<event>
10    4  0.3738096E-005  0.9378262E+02  0.7546771E-02  0.1299987E+00
         21   -1    0    0  503  502  0.00000000000E+00  0.00000000000E+00  0.28215868945E+03  0.28215868945E+03  0.00000000000E+00 0. -1.
         -1   -1    0    0    0  501 -0.00000000000E+00 -0.00000000000E+00 -0.25331623828E+03  0.25331623828E+03  0.00000000000E+00 0.  1.
         23    2    1    2    0    0  0.37050951058E+02  0.46515457980E+01 -0.50997347203E+02  0.11121750165E+03  0.91510619053E+02 0.  0.
         24    2    1    2    0    0  0.19967016716E+02  0.21857692766E+02  0.23323037180E+03  0.24876117846E+03  0.81297460524E+02 0.  0.
        -13    1    4    4    0    0  0.20223946668E+02  0.44074348620E+02  0.77269909308E+02  0.91226065955E+02  0.00000000000E+00 0.  1.
         14    1    4    4    0    0 -0.25692995138E+00 -0.22216655854E+02  0.15596046250E+03  0.15753511251E+03  0.00000000000E+00 0. -1.
        -11    1    3    3    0    0 -0.28684287451E+02  0.35893832634E+01 -0.31253658206E+02  0.42573033367E+02  0.00000000000E+00 0.  1.
         11    1    3    3    0    0  0.65735238509E+02  0.10621625347E+01 -0.19743688997E+02  0.68644468286E+02  0.00000000000E+00 0. -1.
         21    1    1    2  503  501 -0.31620541956E+02 -0.14154166361E+02 -0.21852251384E+02  0.40959980340E+02  0.00000000000E+00 0. -1.
         -2    1    1    2    0  502 -0.25397425818E+02 -0.12355072203E+02 -0.13153832204E+03  0.13453626728E+03  0.00000000000E+00 0.  1.
<scales pt_clust_5="13000.00000" pt_clust_6="13000.00000" pt_clust_7="13000.00000" pt_clust_8="13000.00000" pt_clust_9="35.60483" pt_clust_10="28.24319"></scales>
<clustering>
<clus scale="   28.243">  1 10  2 -1</clus>
<clus scale="   35.605">  2  9  1 -1</clus>
<clus scale="   81.297">  5  6 -1 -1</clus>
<clus scale="   83.847">  1  5  2 -1</clus>
<clus scale="   91.511">  7  8 -1 -1</clus>
<clus scale="   28.243">  1  5  2 -1</clus>
</clustering>
</event>
<event>
10    4  0.3738096E-005  0.5490393E+03  0.7546771E-02  0.1001717E+00
          2   -1    0    0  503    0 -0.00000000000E+00  0.00000000000E+00  0.67096895080E+03  0.67096895080E+03  0.00000000000E+00 0. -1.
         21   -1    0    0  501  502  0.00000000000E+00 -0.00000000000E+00 -0.64348727254E+03  0.64348727254E+03  0.00000000000E+00 0. -1.
         24    2    1    2    0    0 -0.19494474718E+03 -0.47546477843E+02 -0.56307287582E+02  0.22447846189E+03  0.83402321377E+02 0.  0.
         23    2    1    2    0    0 -0.24893490908E+03 -0.14725282311E+03 -0.30091297561E+03  0.42693880949E+03  0.89867376091E+02 0.  0.
        -11    1    3    3    0    0 -0.20612176965E+02 -0.29316313405E+02  0.97846627841E+01  0.37148993213E+02  0.00000000000E+00 0.  1.
         12    1    3    3    0    0 -0.17433257021E+03 -0.18230164437E+02 -0.66091950367E+02  0.18732946868E+03  0.00000000000E+00 0. -1.
        -13    1    4    4    0    0 -0.15852306098E+03 -0.56293637851E+02 -0.12663871586E+03  0.21056091489E+03  0.00000000000E+00 0.  1.
         13    1    4    4    0    0 -0.90411848100E+02 -0.90959185259E+02 -0.17427425975E+03  0.21637789460E+03  0.00000000000E+00 0. -1.
         21    1    1    2  503  502 -0.14544185122E+02 -0.16814654458E+02  0.56806893027E+02  0.61002368977E+02  0.00000000000E+00 0.  1.
          1    1    1    2  501    0  0.45842384138E+03  0.21161395541E+03  0.32789504842E+03  0.60203658298E+03  0.00000000000E+00 0. -1.
<scales pt_clust_5="13000.00000" pt_clust_6="13000.00000" pt_clust_7="13000.00000" pt_clust_8="13000.00000" pt_clust_9="22.23209" pt_clust_10="489.57350"></scales>
<clustering>
<clus scale="   22.232">  1  9  2 -1</clus>
<clus scale="   83.402">  5  6 -1 -1</clus>
<clus scale="   89.867">  7  8 -1 -1</clus>
<clus scale="  168.502">  5  7 -1 -1</clus>
<clus scale="  489.573">  2 10  1 -1</clus>
<clus scale="  489.573">  2  5  1 -1</clus>
</clustering>
</event>
<event>
10    4  0.3738096E-005  0.1328870E+03  0.7546771E-02  0.1246215E+00
         -1   -1    0    0    0  501 -0.00000000000E+00  0.00000000000E+00  0.14305840987E+03  0.14305840987E+03  0.00000000000E+00 0.  1.
         21   -1    0    0  503  502  0.00000000000E+00 -0.00000000000E+00 -0.35105379849E+03  0.35105379849E+03  0.00000000000E+00 0.  1.
         24    2    1    2    0    0 -0.83870673377E+01 -0.17220771048E+02 -0.45196294916E+02  0.93376018967E+02  0.79432222617E+02 0.  0.
         23    2    1    2    0    0 -0.28161776813E+02 -0.47003393716E+02  0.63848460822E+02  0.12449708575E+03  0.91763248179E+02 0.  0.
        -13    1    3    3    0    0 -0.39161019209E+02  0.10058254396E+02 -0.19551200901E+02  0.44911060594E+02  0.00000000000E+00 0.  1.
         14    1    3    3    0    0  0.30773951872E+02 -0.27279025445E+02 -0.25645094014E+02  0.48464958372E+02  0.00000000000E+00 0. -1.
        -13    1    4    4    0    0 -0.16504098197E+02 -0.69901948282E+02  0.67475033964E+02  0.98547185852E+02  0.00000000000E+00 0.  1.
         13    1    4    4    0    0 -0.11657678616E+02  0.22898554565E+02 -0.36265731418E+01  0.25949899897E+02  0.00000000000E+00 0. -1.
         21    1    1    2  503  501 -0.24888665313E+02 -0.15800271170E+02 -0.14973260678E+01  0.29518404690E+02  0.00000000000E+00 0. -1.
         -2    1    1    2    0  502  0.61437509464E+02  0.80024435934E+02 -0.22515022846E+03  0.24672069896E+03  0.00000000000E+00 0.  1.
<scales pt_clust_5="13000.00000" pt_clust_6="13000.00000" pt_clust_7="13000.00000" pt_clust_8="13000.00000" pt_clust_9="29.48040" pt_clust_10="96.11691"></scales>
<clustering>
<clus scale="   29.480">  1  9  2 -1</clus>
<clus scale="   79.432">  5  6 -1 -1</clus>
<clus scale="   82.983">  1  5  2 -1</clus>
<clus scale="   91.763">  7  8 -1 -1</clus>
<clus scale="   96.117">  2 10  1 -1</clus>
<clus scale="   96.117">  2  5  1 -1</clus>
</clustering>
</event>
<event>
10    4  0.3738096E-005  0.1406068E+03  0.7546771E-02  0.1214341E+00
         -3   -1    0    0    0  501 -0.00000000000E+00  0.00000000000E+00  0.59442689361E+03  0.59442689361E+03  0.00000000000E+00 0.  1.
         21   -1    0    0  503  502  0.00000000000E+00 -0.00000000000E+00 -0.11890576388E+03  0.11890576388E+03  0.00000000000E+00 0.  1.
         23    2    1    2    0    0 -0.71573506597E+02 -0.11151689121E+03  0.33368705643E+03  0.36983065274E+03  0.88706686387E+02 0.  0.
         24    2    1    2    0    0 -0.24076150993E+01  0.86578173042E+02 -0.52637944973E+02  0.12909752600E+03  0.79961498922E+02 0.  0.
        -13    1    4    4    0    0  0.37519182517E+02  0.27286782210E+02 -0.21286923451E+02  0.51043027439E+02  0.00000000000E+00 0.  1.
         14    1    4    4    0    0 -0.39926797616E+02  0.59291390833E+02 -0.31351021522E+02  0.78054498559E+02  0.00000000000E+00 0. -1.
        -13    1    3    3    0    0 -0.54325544447E+02 -0.55430317750E+02  0.88463187686E+02  0.11768398566E+03  0.00000000000E+00 0.  1.
         13    1    3    3    0    0 -0.17247962151E+02 -0.56086573463E+02  0.24522386874E+03  0.25214666708E+03  0.00000000000E+00 0. -1.
         21    1    1    2  503  501  0.23844557170E+02  0.17153464188E+02  0.28798284964E+02  0.41135695657E+02  0.00000000000E+00 0. -1.
         -4    1    1    2    0  502  0.50136564527E+02  0.77852539826E+01  0.16567373332E+03  0.17326878309E+03  0.00000000000E+00 0.  1.
<scales pt_clust_5="13000.00000" pt_clust_6="13000.00000" pt_clust_7="13000.00000" pt_clust_8="13000.00000" pt_clust_9="29.37353" pt_clust_10="58.81017"></scales>
<clustering>
<clus scale="   29.374">  1  9  2 -1</clus>
<clus scale="   58.810">  2 10  1 -1</clus>
<clus scale="   79.961">  5  6 -1 -1</clus>
<clus scale="   88.707">  7  8 -1 -1</clus>
<clus scale="  135.260">  2  5  1 -1</clus>
<clus scale="   58.810">  2  5  1 -1</clus>
</clustering>
</event>
<event>
10    4  0.3738096E-005  0.2348495E+03  0.7546771E-02  0.1124142E+00
          2   -1    0    0  503    0 -0.00000000000E+00  0.00000000000E+00  0.89343700066E+03  0.89343700066E+03  0.00000000000E+00 0. -1.
         21   -1    0    0  501  502  0.00000000000E+00 -0.00000000000E+00 -0.42034609208E+03  0.42034609208E+03  0.00000000000E+00 0. -1.
         24    2    1    2    0    0 -0.11853001488E+03 -0.23146611289E+03  0.71986095907E+03  0.76950080516E+03  0.79408833932E+02 0.  0.
         23    2    1    2    0    0  0.36587976616E+02  0.12232123869E+03 -0.26037644870E+03  0.30452543470E+03  0.92944498869E+02 0.  0.
        -13    1    3    3    0    0 -0.46153905256E+02 -0.11548547532E+03  0.23686307416E+03  0.26752793103E+03  0.00000000000E+00 0.  1.
         14    1    3    3    0    0 -0.72376109625E+02 -0.11598063756E+03  0.48299788491E+03  0.50197287413E+03  0.00000000000E+00 0. -1.
        -13    1    4    4    0    0  0.59308118538E+02  0.92301500998E+02 -0.13690788701E+03  0.17544454832E+03  0.00000000000E+00 0.  1.
         13    1    4    4    0    0 -0.22720141923E+02  0.30019737695E+02 -0.12346856169E+03  0.12908088637E+03  0.00000000000E+00 0. -1.
         21    1    1    2  503  502  0.22884479207E+02  0.32780750285E+02  0.10157014406E+03  0.10915480357E+03  0.00000000000E+00 0. -1.
          1    1    1    2  501    0  0.59057559058E+02  0.76364123908E+02 -0.87963745848E+02  0.13060204932E+03  0.00000000000E+00 0. -1.
<scales pt_clust_5="13000.00000" pt_clust_6="13000.00000" pt_clust_7="13000.00000" pt_clust_8="13000.00000" pt_clust_9="39.97846" pt_clust_10="97.61662"></scales>
<clustering>
<clus scale="   39.978">  1  9  2 -1</clus>
<clus scale="   79.409">  5  6 -1 -1</clus>
<clus scale="   92.944">  7  8 -1 -1</clus>
<clus scale="   97.617">  2 10  1 -1</clus>
<clus scale="  229.829">  1  5  2 -1</clus>
<clus scale="   97.617">  2  5  1 -1</clus>
</clustering>
</event>
<event>
10    4  0.3738096E-005  0.2631531E+03  0.7546771E-02  0.1106169E+00
         21   -1    0    0  503  502  0.00000000000E+00  0.00000000000E+00  0.21923751152E+03  0.21923751152E+03  0.00000000000E+00 0. -1.
         -1   -1    0    0    0  501 -0.00000000000E+00 -0.00000000000E+00 -0.93664013494E+03  0.93664013494E+03  0.00000000000E+00 0.  1.
         24    2    1    2    0    0 -0.32826512158E+02 -0.23348863238E+03 -0.58889265943E+03  0.63919515151E+03  0.78621600322E+02 0.  0.
         23    2    1    2    0    0 -0.21963644847E+02  0.27043037349E+03  0.76405979170E+02  0.29796262555E+03  0.96586044387E+02 0.  0.
        -11    1    3    3    0    0 -0.50607519414E+02 -0.15366424828E+03 -0.44761195668E+03  0.47595197865E+03  0.00000000000E+00 0.  1.
         12    1    3    3    0    0  0.17781007256E+02 -0.79824384102E+02 -0.14128070275E+03  0.16324317286E+03  0.00000000000E+00 0. -1.
        -11    1    4    4    0    0 -0.59961752033E+02  0.15463294436E+03  0.50471438475E+02  0.17336125660E+03  0.00000000000E+00 0. -1.
         11    1    4    4    0    0  0.37998107186E+02  0.11579742914E+03  0.25934540694E+02  0.12460136896E+03  0.00000000000E+00 0.  1.
         21    1    1    2  503  501  0.17828189574E+02 -0.96105931156E+01 -0.12412342942E+03  0.12576499343E+03  0.00000000000E+00 0.  1.
         -2    1    1    2    0  502  0.36961967432E+02 -0.27331147998E+02 -0.80792513743E+02  0.92954875958E+02  0.00000000000E+00 0.  1.
<scales pt_clust_5="13000.00000" pt_clust_6="13000.00000" pt_clust_7="13000.00000" pt_clust_8="13000.00000" pt_clust_9="20.25359" pt_clust_10="48.11611"></scales>
<clustering>
<clus scale="   20.254">  2  9  1 -1</clus>
<clus scale="   48.116">  1 10  2 -1</clus>
<clus scale="   78.622">  5  6 -1 -1</clus>
<clus scale="   96.586">  7  8 -1 -1</clus>
<clus scale="  257.103">  2  5  1 -1</clus>
<clus scale="   48.116">  1  5  2 -1</clus>
</clustering>
</event>
<event>
10    4  0.3738096E-005  0.8160495E+02  0.7546771E-02  0.1331079E+00
         -1   -1    0    0    0  501 -0.00000000000E+00  0.00000000000E+00  0.43506926147E+03  0.43506926147E+03  0.00000000000E+00 0.  1.
         21   -1    0    0  503  502  0.00000000000E+00 -0.00000000000E+00 -0.70714636478E+02  0.70714636478E+02  0.00000000000E+00 0. -1.
         23    2    1    2    0    0  0.77450593977E+01  0.15642535495E+02  0.14097597201E+03  0.15855998430E+03  0.70444084726E+02 0.  0.
         24    2    1    2    0    0 -0.11937040359E+01  0.29772265284E+02 -0.22433121182E+02  0.87880422367E+02  0.79573305825E+02 0.  0.
        -13    1    4    4    0    0  0.12290543770E+02  0.25842773491E+02  0.25254997555E+02  0.38167018608E+02  0.00000000000E+00 0.  1.
         14    1    4    4    0    0 -0.13484247806E+02  0.39294917929E+01 -0.47688118737E+02  0.49713403759E+02  0.00000000000E+00 0. -1.
        -11    1    3    3    0    0  0.83803454424E+01 -0.24482640185E+02  0.90210225881E+02  0.93848360207E+02  0.00000000000E+00 0.  1.
         11    1    3    3    0    0 -0.63528604467E+00  0.40125175680E+02  0.50765746134E+02  0.64711624089E+02  0.00000000000E+00 0. -1.
         21    1    1    2  503  501  0.23010651974E+02  0.19003038829E+01  0.11220704833E+03  0.11455794584E+03  0.00000000000E+00 0.  1.
         -2    1    1    2    0  502 -0.29562007336E+02 -0.47315104662E+02  0.13360472583E+03  0.14478554545E+03  0.00000000000E+00 0.  1.
<scales pt_clust_5="13000.00000" pt_clust_6="13000.00000" pt_clust_7="13000.00000" pt_clust_8="13000.00000" pt_clust_9="23.08899" pt_clust_10="50.45741"></scales>
<clustering>
<clus scale="   23.089">  1  9  2 -1</clus>
<clus scale="   50.457">  2 10  1 -1</clus>
<clus scale="   70.444">  7  8 -1 -1</clus>
<clus scale="   72.731">  1  7  2 -1</clus>
<clus scale="   79.573">  5  6 -1 -1</clus>
<clus scale="   50.457">  2  5  1 -1</clus>
</clustering>
</event>
<event>
10    4  0.3738096E-005  0.1547356E+03  0.7546771E-02  0.1209073E+00
          2   -1    0    0  502    0 -0.00000000000E+00  0.00000000000E+00  0.35629050111E+03  0.35629050111E+03  0.00000000000E+00 0. -1.
         21   -1    0    0  503  502  0.00000000000E+00 -0.00000000000E+00 -0.17511479537E+03  0.17511479537E+03  0.00000000000E+00 0. -1.
         24    2    1    2    0    0  0.32346599622E+02 -0.70120239402E+02 -0.32080215320E+02  0.11797912770E+03  0.83227302474E+02 0.  0.
         23    2    1    2    0    0 -0.11109555671E+03 -0.50619936466E+02  0.76274265709E+01  0.15371633151E+03  0.93090989074E+02 0.  0.
        -13    1    3    3    0    0 -0.15121437840E+02 -0.63732863755E+02 -0.15675025739E+02  0.67351631285E+02  0.00000000000E+00 0.  1.
         14    1    3    3    0    0  0.47468037462E+02 -0.63873756463E+01 -0.16405189581E+02  0.50627496416E+02  0.00000000000E+00 0. -1.
        -13    1    4    4    0    0 -0.78629710536E+02 -0.77610697386E+02  0.12631585642E+02  0.11120075847E+03  0.00000000000E+00 0. -1.
         13    1    4    4    0    0 -0.32465846174E+02  0.26990760919E+02 -0.50041590712E+01  0.42515573039E+02  0.00000000000E+00 0.  1.
         21    1    1    2  503  501  0.46871111155E+02  0.19547125940E+02  0.85438789241E+02  0.99392041434E+02  0.00000000000E+00 0. -1.
          1    1    1    2  501    0  0.31877845933E+02  0.10119304993E+03  0.12018970525E+03  0.16031779584E+03  0.00000000000E+00 0. -1.
<scales pt_clust_5="13000.00000" pt_clust_6="13000.00000" pt_clust_7="13000.00000" pt_clust_8="13000.00000" pt_clust_9="45.82210" pt_clust_10="140.22738"></scales>
<clustering>
<clus scale="   45.822">  9 10 -1 -1</clus>
<clus scale="   83.227">  5  6 -1 -1</clus>
<clus scale="   93.091">  7  8 -1 -1</clus>
<clus scale="  113.534">  1  5  2 -1</clus>
<clus scale="  140.227">  2  9  1 -1</clus>
<clus scale="  140.227">  2  5  1 -1</clus>
</clustering>
</event>
<event>
10    4  0.3738096E-005  0.1979630E+03  0.7546771E-02  0.1152638E+00
          2   -1    0    0  503    0 -0.00000000000E+00  0.00000000000E+00  0.13079333900E+04  0.13079333900E+04  0.00000000000E+00 0. -1.
         21   -1    0    0  501  502  0.00000000000E+00 -0.00000000000E+00 -0.13768689051E+03  0.13768689051E+03  0.00000000000E+00 0.  1.
         23    2    1    2    0    0  0.12240249884E+03 -0.15118705635E+03  0.94497499710E+03  0.96921798715E+03  0.92551951618E+02 0.  0.
         24    2    1    2    0    0 -0.10425228125E+03  0.17870953360E+03  0.94455568827E+02  0.24122586277E+03  0.80389220915E+02 0.  0.
        -11    1    4    4    0    0 -0.11559531524E+03  0.14746354379E+03  0.70256658409E+02  0.20010939934E+03  0.00000000000E+00 0.  1.
         12    1    4    4    0    0  0.11343033991E+02  0.31245989817E+02  0.24198910418E+02  0.41116463433E+02  0.00000000000E+00 0. -1.
        -11    1    3    3    0    0  0.61248155643E+02 -0.10813789015E+02  0.28711198681E+03  0.29377128446E+03  0.00000000000E+00 0.  1.
         11    1    3    3    0    0  0.61154343197E+02 -0.14037326733E+03  0.65786301029E+03  0.67544670270E+03  0.00000000000E+00 0. -1.
         21    1    1    2  503  502 -0.33647285606E+02  0.11956644468E+02  0.17223334192E+03  0.17589606375E+03  0.00000000000E+00 0.  1.
          1    1    1    2  501    0  0.15497068017E+02 -0.39479121725E+02 -0.41417408392E+02  0.59280366794E+02  0.00000000000E+00 0. -1.
<scales pt_clust_5="13000.00000" pt_clust_6="13000.00000" pt_clust_7="13000.00000" pt_clust_8="13000.00000" pt_clust_9="35.70856" pt_clust_10="42.22781"></scales>
<clustering>
<clus scale="   35.709">  1  9  2 -1</clus>
<clus scale="   42.228">  2 10  1 -1</clus>
<clus scale="   80.389">  5  6 -1 -1</clus>
<clus scale="   92.552">  7  8 -1 -1</clus>
<clus scale="  192.577">  2  5  1 -1</clus>
<clus scale="   42.228">  2  5  1 -1</clus>
</clustering>
</event>
<event>
10    4  0.3738096E-005  0.3384714E+03  0.7546771E-02  0.1067449E+00
          2   -1    0    0  503    0 -0.00000000000E+00  0.00000000000E+00  0.77116230042E+03  0.77116230042E+03  0.00000000000E+00 0. -1.
         21   -1    0    0  501  502  0.00000000000E+00 -0.00000000000E+00 -0.17800193053E+03  0.17800193053E+03  0.00000000000E+00 0.  1.
         24    2    1    2    0    0  0.73588978833E+02 -0.18041845831E+03  0.50851663968E+02  0.21759205408E+03  0.82427254999E+02 0.  0.
         23    2    1    2    0    0  0.64560478505E+02 -0.54913891712E+02  0.58694715146E+02  0.15461807688E+03  0.11523059153E+03 0.  0.
        -11    1    3    3    0    0  0.38564504545E+02 -0.16484194858E+03  0.24454282101E+02  0.17104999542E+03  0.00000000000E+00 0.  1.
         12    1    3    3    0    0  0.35024474288E+02 -0.15576509732E+02  0.26397381867E+02  0.46542058657E+02  0.00000000000E+00 0. -1.
        -13    1    4    4    0    0  0.32740629171E+02  0.13729551427E+02 -0.23753103391E+02  0.42716030967E+02  0.00000000000E+00 0. -1.
         13    1    4    4    0    0  0.31819849334E+02 -0.68643443139E+02  0.82447818537E+02  0.11190204591E+03  0.00000000000E+00 0.  1.
         21    1    1    2  503  502 -0.37719719766E+02  0.35928277490E+02  0.24377693294E+03  0.24928058772E+03  0.00000000000E+00 0. -1.
          1    1    1    2  501    0 -0.10042973757E+03  0.19940407253E+03  0.23983705784E+03  0.32767351227E+03  0.00000000000E+00 0. -1.
<scales pt_clust_5="13000.00000" pt_clust_6="13000.00000" pt_clust_7="13000.00000" pt_clust_8="13000.00000" pt_clust_9="52.09240" pt_clust_10="249.97909"></scales>
<clustering>
<clus scale="   52.092">  1  9  2 -1</clus>
<clus scale="   82.427">  5  6 -1 -1</clus>
<clus scale="  115.231">  7  8 -1 -1</clus>
<clus scale="  121.461">  5  7 -1 -1</clus>
<clus scale="  249.979">  2 10  1 -1</clus>
<clus scale="  249.979">  2  5  1 -1</clus>
</clustering>
</event>
<event>
10    4  0.3738096E-005  0.2406292E+03  0.7546771E-02  0.1119813E+00
         21   -1    0    0  501  502  0.00000000000E+00  0.00000000000E+00  0.20993200807E+03  0.20993200807E+03  0.00000000000E+00 0.  1.
          2   -1    0    0  503    0 -0.00000000000E+00 -0.00000000000E+00 -0.79720479449E+03  0.79720479449E+03  0.00000000000E+00 0. -1.
         24    2    1    2    0    0 -0.70670737264E+02 -0.21216848553E+03 -0.55181103836E+03  0.60118901796E+03  0.83204530536E+02 0.  0.
         23    2    1    2    0    0  0.65792497755E+02  0.23408700897E+03 -0.85486261330E+02  0.27315554860E+03  0.90447069196E+02 0.  0.
        -11    1    3    3    0    0  0.11017743366E+02 -0.42570525552E+02 -0.16857045685E+03  0.17421147849E+03  0.00000000000E+00 0.  1.
         12    1    3    3    0    0 -0.81688480630E+02 -0.16959795998E+03 -0.38324058151E+03  0.42697753947E+03  0.00000000000E+00 0. -1.
        -13    1    4    4    0    0 -0.21052502996E+02  0.64993821336E+02 -0.12051317010E+02  0.69373186001E+02  0.00000000000E+00 0.  1.
         13    1    4    4    0    0  0.86845000751E+02  0.16909318763E+03 -0.73434944320E+02  0.20378236260E+03  0.00000000000E+00 0. -1.
         21    1    1    2  503  502 -0.20008949819E+02  0.16768008475E+02 -0.30443459750E+02  0.40103970160E+02  0.00000000000E+00 0. -1.
          1    1    1    2  501    0  0.24887189328E+02 -0.38686531910E+02  0.80467973018E+02  0.92688265846E+02  0.00000000000E+00 0. -1.
<scales pt_clust_5="13000.00000" pt_clust_6="13000.00000" pt_clust_7="13000.00000" pt_clust_8="13000.00000" pt_clust_9="26.10602" pt_clust_10="45.80036"></scales>
<clustering>
<clus scale="   26.106">  2  9  1 -1</clus>
<clus scale="   45.800">  1 10  2 -1</clus>
<clus scale="   83.205">  5  6 -1 -1</clus>
<clus scale="   90.447">  7  8 -1 -1</clus>
<clus scale="  238.002">  2  5  1 -1</clus>
<clus scale="   45.800">  1  5  2 -1</clus>
</clustering>
</event>
<event>
10    4  0.3738096E-005  0.2045858E+03  0.7546771E-02  0.1147012E+00
         -1   -1    0    0    0  501 -0.00000000000E+00  0.00000000000E+00  0.85821581649E+03  0.85821581649E+03  0.00000000000E+00 0.  1.
         21   -1    0    0  503  502  0.00000000000E+00 -0.00000000000E+00 -0.12632429425E+03  0.12632429425E+03  0.00000000000E+00 0. -1.
         23    2    1    2    0    0 -0.57550415497E+02 -0.18843763754E+03  0.42335103773E+03  0.47612183571E+03  0.92979071445E+02 0.  0.
         24    2    1    2    0    0  0.98018292136E+01  0.19203935227E+03  0.13808201487E+03  0.25014953688E+03  0.80826723904E+02 0.  0.
        -13    1    4    4    0    0  0.21783161280E+02  0.10788388146E+03  0.12077499684E+03  0.16340146222E+03  0.00000000000E+00 0.  1.
         14    1    4    4    0    0 -0.11981332066E+02  0.84155470803E+02  0.17307018031E+02  0.86748074661E+02  0.00000000000E+00 0. -1.
        -11    1    3    3    0    0 -0.31145948784E+02 -0.42125186071E+02  0.20757462685E+03  0.21408369190E+03  0.00000000000E+00 0.  1.
         11    1    3    3    0    0 -0.26404466713E+02 -0.14631245147E+03  0.21577641088E+03  0.26203814381E+03  0.00000000000E+00 0. -1.
         21    1    1    2  503  501  0.39291905983E+02  0.22822925777E+02  0.20725880365E+03  0.21218141179E+03  0.00000000000E+00 0.  1.
         -2    1    1    2    0  502  0.84566803009E+01 -0.26424640506E+02 -0.36800334017E+02  0.46087326363E+02  0.00000000000E+00 0.  1.
<scales pt_clust_5="13000.00000" pt_clust_6="13000.00000" pt_clust_7="13000.00000" pt_clust_8="13000.00000" pt_clust_9="45.27341" pt_clust_10="27.74486"></scales>
<clustering>
<clus scale="   27.745">  2 10  1 -1</clus>
<clus scale="   45.273">  1  9  2 -1</clus>
<clus scale="   80.827">  5  6 -1 -1</clus>
<clus scale="   92.979">  7  8 -1 -1</clus>
<clus scale="  199.357">  2  5  1 -1</clus>
<clus scale="   27.745">  2  5  1 -1</clus>
</clustering>
</event>
<event>
10    4  0.3738096E-005  0.8561981E+02  0.7546771E-02  0.1318473E+00
          2   -1    0    0  503    0 -0.00000000000E+00  0.00000000000E+00  0.33789404385E+03  0.33789404385E+03  0.00000000000E+00 0. -1.
         21   -1    0    0  501  502  0.00000000000E+00 -0.00000000000E+00 -0.14465252437E+03  0.14465252437E+03  0.00000000000E+00 0. -1.
         23    2    1    2    0    0 -0.60243985805E+02  0.51886008311E+01  0.14378352211E+03  0.17738696985E+03  0.84475892645E+02 0.  0.
         24    2    1    2    0    0 -0.14132721701E+02 -0.68612677688E+01 -0.51405619891E+02  0.94319891595E+02  0.77504150702E+02 0.  0.
        -11    1    4    4    0    0  0.20398409679E+02  0.24542563596E+02 -0.26094621333E+02  0.41223316312E+02  0.00000000000E+00 0.  1.
         12    1    4    4    0    0 -0.34531131380E+02 -0.31403831365E+02 -0.25310998559E+02  0.53096575283E+02  0.00000000000E+00 0. -1.
        -11    1    3    3    0    0 -0.36714834285E+02  0.32724451891E+01  0.56981648852E+01  0.37298217613E+02  0.00000000000E+00 0.  1.
         11    1    3    3    0    0 -0.23529151520E+02  0.19161556420E+01  0.13808535722E+03  0.14008875223E+03  0.00000000000E+00 0. -1.
         21    1    1    2  503  502  0.49463313394E+02 -0.18095793154E+02  0.14623555731E+03  0.15543138462E+03  0.00000000000E+00 0. -1.
          1    1    1    2  501    0  0.24913394113E+02  0.19768460092E+02 -0.45371940054E+02  0.55408322162E+02  0.00000000000E+00 0. -1.
<scales pt_clust_5="13000.00000" pt_clust_6="13000.00000" pt_clust_7="13000.00000" pt_clust_8="13000.00000" pt_clust_9="53.49582" pt_clust_10="31.80360"></scales>
<clustering>
<clus scale="   31.804">  2 10  1 -1</clus>
<clus scale="   53.496">  1  9  2 -1</clus>
<clus scale="   77.504">  5  6 -1 -1</clus>
<clus scale="   78.749">  2  5  1 -1</clus>
<clus scale="   84.476">  7  8 -1 -1</clus>
<clus scale="   31.804">  2  5  1 -1</clus>
</clustering>
</event>
<event>
10    4  0.3738096E-005  0.1312208E+03  0.7546771E-02  0.1228018E+00
         21   -1    0    0  501  502  0.00000000000E+00  0.00000000000E+00  0.11762694715E+03  0.11762694715E+03  0.00000000000E+00 0. -1.
          2   -1    0    0  503    0 -0.00000000000E+00 -0.00000000000E+00 -0.10686726892E+04  0.10686726892E+04  0.00000000000E+00 0. -1.
         23    2    1    2    0    0  0.78143333576E+02  0.50200036789E+02 -0.23436951752E+03  0.26873501865E+03  0.93075320188E+02 0.  0.
         24    2    1    2    0    0 -0.61738853294E+02 -0.75181975541E+02 -0.26374071339E+03  0.29338925306E+03  0.83988537662E+02 0.  0.
        -11    1    4    4    0    0 -0.26679640754E+02  0.11716303219E+02 -0.10584119520E+03  0.10977902164E+03  0.00000000000E+00 0.  1.
         12    1    4    4    0    0 -0.35059212541E+02 -0.86898278760E+02 -0.15789951819E+03  0.18361023142E+03  0.00000000000E+00 0. -1.
        -13    1    3    3    0    0  0.20894947199E+02 -0.14093340665E+02 -0.13468613633E+03  0.13702399931E+03  0.00000000000E+00 0.  1.
         13    1    3    3    0    0  0.57248386377E+02  0.64293377454E+02 -0.99683381193E+02  0.13171101933E+03  0.00000000000E+00 0. -1.
         21    1    1    2  503  502  0.22395821831E+02 -0.10355717220E+03 -0.47625483189E+03  0.48789786395E+03  0.00000000000E+00 0.  1.
          1    1    1    2  501    0 -0.38800302113E+02  0.12853911095E+03  0.23319320710E+02  0.13627750073E+03  0.00000000000E+00 0. -1.
<scales pt_clust_5="13000.00000" pt_clust_6="13000.00000" pt_clust_7="13000.00000" pt_clust_8="13000.00000" pt_clust_9="105.95122" pt_clust_10="124.10170"></scales>
<clustering>
<clus scale="   83.989">  5  6 -1 -1</clus>
<clus scale="   93.075">  7  8 -1 -1</clus>
<clus scale="  105.951">  2  9  1 -1</clus>
<clus scale="  124.102">  1 10  2 -1</clus>
<clus scale="  124.940">  1  5  2 -1</clus>
<clus scale="  124.102">  1  5  2 -1</clus>
</clustering>
</event>
<event>
10    4  0.3738096E-005  0.2412171E+03  0.7546771E-02  0.1155700E+00
         21   -1    0    0  501  502  0.00000000000E+00  0.00000000000E+00  0.25793095984E+03  0.25793095984E+03  0.00000000000E+00 0. -1.
          2   -1    0    0  503    0 -0.00000000000E+00 -0.00000000000E+00 -0.92768896228E+03  0.92768896228E+03  0.00000000000E+00 0. -1.
         24    2    1    2    0    0  0.55328551319E+02  0.44926757705E+02 -0.50935660700E+03  0.52082122986E+03  0.82042295358E+02 0.  0.
         23    2    1    2    0    0  0.96959114520E+02 -0.21155613299E+03  0.29779059160E+02  0.25164977261E+03  0.91015099837E+02 0.  0.
        -13    1    3    3    0    0  0.73604305340E+01  0.45605845175E+02 -0.12109909416E+03  0.12961118647E+03  0.00000000000E+00 0.  1.
         14    1    3    3    0    0  0.47968120785E+02 -0.67908747012E+00 -0.38825751283E+03  0.39121004338E+03  0.00000000000E+00 0. -1.
        -11    1    4    4    0    0 -0.16441696058E+02 -0.13268332766E+02  0.61598153083E+01  0.22007302158E+02  0.00000000000E+00 0.  1.
         11    1    4    4    0    0  0.11340081058E+03 -0.19828780022E+03  0.23619243852E+02  0.22964247045E+03  0.00000000000E+00 0. -1.
         21    1    1    2  503  502 -0.23299879194E+02 -0.76504784571E+01 -0.19474195310E+03  0.19628001042E+03  0.00000000000E+00 0.  1.
          1    1    1    2  501    0 -0.12898778665E+03  0.17427985374E+03  0.45614984959E+01  0.21686890923E+03  0.00000000000E+00 0. -1.
<scales pt_clust_5="13000.00000" pt_clust_6="13000.00000" pt_clust_7="13000.00000" pt_clust_8="13000.00000" pt_clust_9="24.52375" pt_clust_10="223.38755"></scales>
<clustering>
<clus scale="   24.524">  2  9  1 -1</clus>
<clus scale="   82.042">  5  6 -1 -1</clus>
<clus scale="   91.015">  7  8 -1 -1</clus>
<clus scale="   99.050">  2  5  1 -1</clus>
<clus scale="  223.388">  1 10  2 -1</clus>
<clus scale="  223.388">  1  5  2 -1</clus>
</clustering>
</event>
<event>
10    4  0.3738096E-005  0.1074449E+03  0.7546771E-02  0.1270443E+00
         21   -1    0    0  501  502  0.00000000000E+00  0.00000000000E+00  0.32756905184E+02  0.32756905184E+02  0.00000000000E+00 0. -1.
          2   -1    0    0  503    0 -0.00000000000E+00 -0.00000000000E+00 -0.17608508033E+04  0.17608508033E+04  0.00000000000E+00 0. -1.
         24    2    1    2    0    0 -0.40594415131E+02 -0.28973807587E+02 -0.53356959062E+03  0.54189609534E+03  0.80420656834E+02 0.  0.
         23    2    1    2    0    0  0.17690015646E+02 -0.19023022731E+02 -0.99919105559E+02  0.13851751269E+03  0.92349670376E+02 0.  0.
        -11    1    3    3    0    0 -0.54445792375E+02 -0.16643761050E+02 -0.20372699598E+03  0.21153261682E+03  0.00000000000E+00 0.  1.
         12    1    3    3    0    0  0.13851377244E+02 -0.12330046537E+02 -0.32984259464E+03  0.33036347852E+03  0.00000000000E+00 0. -1.
        -13    1    4    4    0    0  0.23448861647E+02  0.42057339454E+00 -0.11232361784E+03  0.11474589805E+03  0.00000000000E+00 0.  1.
         13    1    4    4    0    0 -0.57588460011E+01 -0.19443596126E+02  0.12404512282E+02  0.23771614639E+02  0.00000000000E+00 0. -1.
         21    1    1    2  503  502 -0.18186051976E+02 -0.70705039874E+02 -0.51379342955E+03  0.51895435580E+03  0.00000000000E+00 0.  1.
          1    1    1    2  501    0  0.41090451461E+02  0.11870187019E+03 -0.58081177238E+03  0.59423974465E+03  0.00000000000E+00 0. -1.
<scales pt_clust_5="13000.00000" pt_clust_6="13000.00000" pt_clust_7="13000.00000" pt_clust_8="13000.00000" pt_clust_9="73.00640" pt_clust_10="91.30351"></scales>
<clustering>
<clus scale="   73.006">  2  9  1 -1</clus>
<clus scale="   80.421">  5  6 -1 -1</clus>
<clus scale="   91.304">  1 10  2 -1</clus>
<clus scale="   92.350">  7  8 -1 -1</clus>
<clus scale="   97.383">  2  5  1 -1</clus>
<clus scale="   91.304">  1  5  2 -1</clus>
</clustering>
</event>
<event>
10    4  0.3738096E-005  0.1342302E+03  0.7546771E-02  0.1223618E+00
          2   -1    0    0  503    0 -0.00000000000E+00  0.00000000000E+00  0.44178243399E+03  0.44178243399E+03  0.00000000000E+00 0. -1.
         21   -1    0    0  501  502  0.00000000000E+00 -0.00000000000E+00 -0.26890997123E+03  0.26890997123E+03  0.00000000000E+00 0. -1.
         23    2    1    2    0    0  0.80620684896E+02 -0.36652627777E+01  0.34620415000E+03  0.36679418276E+03  0.90374388194E+02 0.  0.
         24    2    1    2    0    0 -0.73150574358E+02 -0.68471510283E+02 -0.18074517607E+03  0.22185173767E+03  0.80684698593E+02 0.  0.
        -13    1    4    4    0    0  0.16525643841E+02 -0.19594817723E+02 -0.26585510903E+02  0.36930247439E+02  0.00000000000E+00 0.  1.
         14    1    4    4    0    0 -0.89676218200E+02 -0.48876692560E+02 -0.15415966516E+03  0.18492149023E+03  0.00000000000E+00 0. -1.
        -11    1    3    3    0    0 -0.17634784838E+02 -0.13705574900E+02  0.68519934772E+02  0.72068091974E+02  0.00000000000E+00 0.  1.
         11    1    3    3    0    0  0.98255469734E+02  0.10040312122E+02  0.27768421523E+03  0.29472609078E+03  0.00000000000E+00 0. -1.
         21    1    1    2  503  502  0.18718333922E+02  0.29184576304E+02  0.46737894417E+02  0.58194040016E+02  0.00000000000E+00 0. -1.
          1    1    1    2  501    0 -0.26188444459E+02  0.42952196756E+02 -0.39324405590E+02  0.63852444781E+02  0.00000000000E+00 0. -1.
<scales pt_clust_5="13000.00000" pt_clust_6="13000.00000" pt_clust_7="13000.00000" pt_clust_8="13000.00000" pt_clust_9="34.67154" pt_clust_10="50.79381"></scales>
<clustering>
<clus scale="   34.672">  1  9  2 -1</clus>
<clus scale="   50.794">  2 10  1 -1</clus>
<clus scale="   80.685">  5  6 -1 -1</clus>
<clus scale="   90.374">  7  8 -1 -1</clus>
<clus scale="  127.907">  2  5  1 -1</clus>
<clus scale="   50.794">  2  5  1 -1</clus>
</clustering>
</event>
<event>
10    4  0.3738096E-005  0.1227651E+03  0.7546771E-02  0.1241347E+00
         21   -1    0    0  503  502  0.00000000000E+00  0.00000000000E+00  0.12676755053E+03  0.12676755053E+03  0.00000000000E+00 0. -1.
         -1   -1    0    0    0  501 -0.00000000000E+00 -0.00000000000E+00 -0.42194753115E+03  0.42194753115E+03  0.00000000000E+00 0.  1.
         24    2    1    2    0    0  0.11062278361E+03  0.36324122824E+02 -0.73041698252E+02  0.16066625307E+03  0.83196833114E+02 0.  0.
         23    2    1    2    0    0 -0.29587977453E+02 -0.63186876249E+02 -0.16952023992E+02  0.11690370745E+03  0.92255492838E+02 0.  0.
        -13    1    3    3    0    0  0.63921467110E+02  0.34398569133E+02 -0.85632382370E+02  0.11225916634E+03  0.00000000000E+00 0.  1.
         14    1    3    3    0    0  0.46701316498E+02  0.19255536906E+01  0.12590684118E+02  0.48407086736E+02  0.00000000000E+00 0. -1.
        -13    1    4    4    0    0 -0.19535778545E+02 -0.40893985423E+02  0.36455796353E+02  0.58163474577E+02  0.00000000000E+00 0. -1.
         13    1    4    4    0    0 -0.10052198908E+02 -0.22292890826E+02 -0.53407820345E+02  0.58740232875E+02  0.00000000000E+00 0.  1.
         21    1    1    2  503  501 -0.59076988069E+02  0.50920676500E+01 -0.22614549916E+03  0.23379009060E+03  0.00000000000E+00 0.  1.
         -2    1    1    2    0  502 -0.21957818086E+02  0.21770685776E+02  0.20959240785E+02  0.37355030565E+02  0.00000000000E+00 0.  1.
<scales pt_clust_5="13000.00000" pt_clust_6="13000.00000" pt_clust_7="13000.00000" pt_clust_8="13000.00000" pt_clust_9="60.23090" pt_clust_10="30.92100"></scales>
<clustering>
<clus scale="   30.921">  1 10  2 -1</clus>
<clus scale="   60.231">  2  9  1 -1</clus>
<clus scale="   83.197">  5  6 -1 -1</clus>
<clus scale="   92.255">  7  8 -1 -1</clus>
<clus scale="  116.112">  2  5  1 -1</clus>
<clus scale="   30.921">  1  5  2 -1</clus>
</clustering>
</event>
<event>
10    4  0.3738096E-005  0.1426934E+03  0.7546771E-02  0.1232762E+00
         21   -1    0    0  503  502  0.00000000000E+00  0.00000000000E+00  0.11002662342E+03  0.11002662342E+03  0.00000000000E+00 0.  1.
         -1   -1    0    0    0  501 -0.00000000000E+00 -0.00000000000E+00 -0.63102962111E+03  0.63102962111E+03  0.00000000000E+00 0.  1.
         23    2    1    2    0    0  0.18520202706E+02  0.27558181366E+02  0.24933672854E+02  0.90950078178E+02  0.80918337910E+02 0.  0.
         24    2    1    2    0    0  0.65869475840E+02 -0.65439683705E+02 -0.20315233220E+03  0.23719471151E+03  0.79808026150E+02 0.  0.
        -13    1    4    4    0    0  0.23282707936E+02  0.21229873477E+00 -0.12296826187E+03  0.12515319807E+03  0.00000000000E+00 0.  1.
         14    1    4    4    0    0  0.42586767904E+02 -0.65651982439E+02 -0.80184070330E+02  0.11204151344E+03  0.00000000000E+00 0. -1.
        -13    1    3    3    0    0  0.50719074357E+02  0.14862946285E+02  0.15395477163E+02  0.55048636613E+02  0.00000000000E+00 0.  1.
         13    1    3    3    0    0 -0.32198871651E+02  0.12695235081E+02  0.95381956909E+01  0.35901441565E+02  0.00000000000E+00 0. -1.
         21    1    1    2  503  501  0.46719992319E+02 -0.10059177910E+02 -0.22572191714E+03  0.23072565661E+03  0.00000000000E+00 0.  1.
         -2    1    1    2    0  502 -0.13110967086E+03  0.47940680248E+02 -0.11706242121E+03  0.18218579823E+03  0.00000000000E+00 0.  1.
<scales pt_clust_5="13000.00000" pt_clust_6="13000.00000" pt_clust_7="13000.00000" pt_clust_8="13000.00000" pt_clust_9="47.79063" pt_clust_10="118.28810"></scales>
<clustering>
<clus scale="   47.791">  2  9  1 -1</clus>
<clus scale="   79.808">  5  6 -1 -1</clus>
<clus scale="   80.918">  7  8 -1 -1</clus>
<clus scale="   88.102">  2  7  1 -1</clus>
<clus scale="  118.288">  1 10  2 -1</clus>
<clus scale="  118.288">  1  5  2 -1</clus>
</clustering>
</event>
<event>
10    4  0.1091599E-004  0.4860933E+03  0.7546771E-02  0.1017474E+00
          2   -1    0    0  503    0 -0.00000000000E+00  0.00000000000E+00  0.20678486674E+04  0.20678486674E+04  0.00000000000E+00 0. -1.
         21   -1    0    0  501  502  0.00000000000E+00 -0.00000000000E+00 -0.21963864100E+03  0.21963864100E+03  0.00000000000E+00 0.  1.
         24    2    1    2    0    0  0.91080811208E+02 -0.15544487574E+02  0.53091071922E+03  0.54321472830E+03  0.68401052534E+02 0.  0.
         23    2    1    2    0    0  0.34959927391E+03 -0.28305133904E+02  0.11340029902E+04  0.11904532848E+04  0.90528496099E+02 0.  0.
        -11    1    3    3    0    0  0.29604847262E+02 -0.31633823948E+02  0.12353177948E+03  0.13090930578E+03  0.00000000000E+00 0.  1.
         12    1    3    3    0    0  0.61475963946E+02  0.16089336373E+02  0.40737893974E+03  0.41230542252E+03  0.00000000000E+00 0. -1.
        -11    1    4    4    0    0  0.32042591786E+03 -0.30301555869E+02  0.10972833118E+04  0.11435128419E+04  0.00000000000E+00 0.  1.
         11    1    4    4    0    0  0.29173356044E+02  0.19964219649E+01  0.36719678430E+02  0.46940442984E+02  0.00000000000E+00 0. -1.
         21    1    1    2  503  502 -0.25524883022E+00 -0.28969344654E+02  0.94274443069E+02  0.98625345108E+02  0.00000000000E+00 0. -1.
          1    1    1    2  501    0 -0.44042483629E+03  0.72818966133E+02  0.89021873897E+02  0.45519395018E+03  0.00000000000E+00 0. -1.
<scales pt_clust_5="13000.00000" pt_clust_6="13000.00000" pt_clust_7="13000.00000" pt_clust_8="13000.00000" pt_clust_9="28.97047" pt_clust_10="445.80412"></scales>
<clustering>
<clus scale="   28.970">  1  9  2 -1</clus>
<clus scale="   68.401">  5  6 -1 -1</clus>
<clus scale="   90.528">  7  8 -1 -1</clus>
<clus scale="  104.071">  5  7 -1 -1</clus>
<clus scale="  445.804">  2 10  1 -1</clus>
<clus scale="  445.804">  2  5  1 -1</clus>
</clustering>
</event>
<event>
10    4  0.3738096E-005  0.1156540E+03  0.7546771E-02  0.1253125E+00
          4   -1    0    0  503    0 -0.00000000000E+00  0.00000000000E+00  0.22725219771E+03  0.22725219771E+03  0.00000000000E+00 0. -1.
         21   -1    0    0  501  502  0.00000000000E+00 -0.00000000000E+00 -0.22445624566E+03  0.22445624566E+03  0.00000000000E+00 0.  1.
         23    2    1    2    0    0  0.35089085967E+02  0.95006558719E+02  0.13046773983E+03  0.18788719963E+03  0.89567173092E+02 0.  0.
         24    2    1    2    0    0  0.24107208787E+02 -0.29015963096E+02 -0.14526136017E+02  0.91111049194E+02  0.81652501663E+02 0.  0.
        -13    1    4    4    0    0 -0.15243438006E+02 -0.31461143965E+02 -0.32543805049E+02  0.47762592360E+02  0.00000000000E+00 0.  1.
         14    1    4    4    0    0  0.39350646793E+02  0.24451808690E+01  0.18017669032E+02  0.43348456834E+02  0.00000000000E+00 0. -1.
        -11    1    3    3    0    0  0.29149258401E+01  0.98452924154E+02  0.75505256923E+02  0.12410688494E+03  0.00000000000E+00 0.  1.
         11    1    3    3    0    0  0.32174160127E+02 -0.34463654348E+01  0.54962482909E+02  0.63780314691E+02  0.00000000000E+00 0. -1.
         21    1    1    2  503  502 -0.70793131352E+02 -0.26187595100E+02 -0.32802192220E+02  0.82300919789E+02  0.00000000000E+00 0.  1.
          3    1    1    2  501    0  0.11596836598E+02 -0.39803000523E+02 -0.80343459541E+02  0.90409274750E+02  0.00000000000E+00 0. -1.
<scales pt_clust_5="13000.00000" pt_clust_6="13000.00000" pt_clust_7="13000.00000" pt_clust_8="13000.00000" pt_clust_9="78.58098" pt_clust_10="41.45800"></scales>
<clustering>
<clus scale="   41.458">  2 10  1 -1</clus>
<clus scale="   78.581">  2  9  1 -1</clus>
<clus scale="   81.653">  5  6 -1 -1</clus>
<clus scale="   89.567">  7  8 -1 -1</clus>
<clus scale="  109.639">  2  5  1 -1</clus>
<clus scale="   41.458">  2  5  1 -1</clus>
</clustering>
</event>
<event>
10    4  0.3738096E-005  0.1083777E+03  0.7546771E-02  0.1270699E+00
          2   -1    0    0  503    0 -0.00000000000E+00  0.00000000000E+00  0.77807754147E+03  0.77807754147E+03  0.00000000000E+00 0. -1.
         21   -1    0    0  501  502  0.00000000000E+00 -0.00000000000E+00 -0.38160442268E+02  0.38160442268E+02  0.00000000000E+00 0.  1.
         24    2    1    2    0    0 -0.86405607375E+01 -0.39810261094E+02  0.58565736261E+03  0.59274361228E+03  0.81798088824E+02 0.  0.
         23    2    1    2    0    0  0.13682410177E+02  0.20795611342E+02  0.79937887268E+02  0.12857172783E+03  0.97575394319E+02 0.  0.
        -11    1    3    3    0    0  0.11658857285E+02 -0.27131943983E+02  0.63422237142E+02  0.69960356643E+02  0.00000000000E+00 0.  1.
         12    1    3    3    0    0 -0.20299418022E+02 -0.12678317111E+02  0.52223512547E+03  0.52278325563E+03  0.00000000000E+00 0. -1.
        -13    1    4    4    0    0 -0.16515163178E+02  0.34775869589E+02  0.86476355635E+02  0.94658712248E+02  0.00000000000E+00 0. -1.
         13    1    4    4    0    0  0.30197573355E+02 -0.13980258247E+02 -0.65384683668E+01  0.33913015580E+02  0.00000000000E+00 0.  1.
         21    1    1    2  503  502 -0.17672623748E+02 -0.94053096678E+01  0.54455166146E+02  0.58018502222E+02  0.00000000000E+00 0.  1.
          1    1    1    2  501    0  0.12630774308E+02  0.28419959420E+02  0.19866683181E+02  0.36904141416E+02  0.00000000000E+00 0. -1.
<scales pt_clust_5="13000.00000" pt_clust_6="13000.00000" pt_clust_7="13000.00000" pt_clust_8="13000.00000" pt_clust_9="20.01953" pt_clust_10="30.48397"></scales>
<clustering>
<clus scale="   20.020">  1  9  2 -1</clus>
<clus scale="   30.484">  2 10  1 -1</clus>
<clus scale="   81.798">  5  6 -1 -1</clus>
<clus scale="   94.423">  1  5  2 -1</clus>
<clus scale="   97.575">  7  8 -1 -1</clus>
<clus scale="   30.484">  2  5  1 -1</clus>
</clustering>
</event>
<event>
10    4  0.3738096E-005  0.9584333E+02  0.7546771E-02  0.1295777E+00
         21   -1    0    0  503  502  0.00000000000E+00  0.00000000000E+00  0.11187844498E+04  0.11187844498E+04  0.00000000000E+00 0.  1.
         -1   -1    0    0    0  501 -0.00000000000E+00 -0.00000000000E+00 -0.39558438285E+02  0.39558438285E+02  0.00000000000E+00 0.  1.
         23    2    1    2    0    0  0.35298007448E+02  0.10666649821E+02  0.67097211466E+02  0.11882774451E+03  0.90875025885E+02 0.  0.
         24    2    1    2    0    0  0.26891963407E+02  0.44417660079E+01  0.34583572163E+03  0.35584867316E+03  0.79265533859E+02 0.  0.
        -11    1    4    4    0    0  0.41054994624E+02 -0.26095686372E+02  0.17017033575E+03  0.17698711987E+03  0.00000000000E+00 0.  1.
         12    1    4    4    0    0 -0.14163031217E+02  0.30537452380E+02  0.17566538588E+03  0.17886155329E+03  0.00000000000E+00 0. -1.
        -13    1    3    3    0    0  0.15290974342E+02 -0.35256881668E+02  0.55338541669E+02  0.67373702550E+02  0.00000000000E+00 0. -1.
         13    1    3    3    0    0  0.20007033106E+02  0.45923531489E+02  0.11758669798E+02  0.51454041956E+02  0.00000000000E+00 0.  1.
         21    1    1    2  503  501  0.76727460220E+01  0.22926458672E+02  0.17086345209E+02  0.29604674148E+02  0.00000000000E+00 0. -1.
         -2    1    1    2    0  502 -0.69862716877E+02 -0.38034874502E+02  0.64920673319E+03  0.65406179624E+03  0.00000000000E+00 0.  1.
<scales pt_clust_5="13000.00000" pt_clust_6="13000.00000" pt_clust_7="13000.00000" pt_clust_8="13000.00000" pt_clust_9="24.17630" pt_clust_10="78.26406"></scales>
<clustering>
<clus scale="   24.176">  2  9  1 -1</clus>
<clus scale="   78.264">  1 10  2 -1</clus>
<clus scale="   79.266">  5  6 -1 -1</clus>
<clus scale="   84.916">  1  5  2 -1</clus>
<clus scale="   90.875">  7  8 -1 -1</clus>
<clus scale="   78.264">  1  5  2 -1</clus>
</clustering>
</event>
<event>
10    4  0.3738096E-005  0.9252468E+02  0.7546771E-02  0.1300077E+00
         -1   -1    0    0    0  501 -0.00000000000E+00  0.00000000000E+00  0.68287837827E+02  0.68287837827E+02  0.00000000000E+00 0.  1.
         21   -1    0    0  503  502  0.00000000000E+00 -0.00000000000E+00 -0.51839088270E+03  0.51839088270E+03  0.00000000000E+00 0.  1.
         23    2    1    2    0    0 -0.22767758966E+02 -0.15369972177E+02 -0.23241480296E+02  0.98989153104E+02  0.92217564124E+02 0.  0.
         24    2    1    2    0    0 -0.62464149926E+02 -0.23231346468E+02 -0.23431906588E+03  0.25649132795E+03  0.80255287628E+02 0.  0.
        -11    1    4    4    0    0 -0.63862744176E+02 -0.45827990347E+02 -0.20424175198E+03  0.21884548897E+03  0.00000000000E+00 0.  1.
         12    1    4    4    0    0  0.13985942499E+01  0.22596643879E+02 -0.30077313906E+02  0.37645838977E+02  0.00000000000E+00 0. -1.
        -11    1    3    3    0    0  0.53024489221E+01  0.32693816953E+02 -0.27662773821E+02  0.43153570965E+02  0.00000000000E+00 0. -1.
         11    1    3    3    0    0 -0.28070207888E+02 -0.48063789130E+02  0.44212935244E+01  0.55835582140E+02  0.00000000000E+00 0.  1.
         21    1    1    2  503  501 -0.95709806108E+00  0.29533613001E+02 -0.13924246975E+02  0.32665501487E+02  0.00000000000E+00 0. -1.
         -2    1    1    2    0  502  0.86189006953E+02  0.90677056439E+01 -0.17861825172E+03  0.19853273799E+03  0.00000000000E+00 0.  1.
<scales pt_clust_5="13000.00000" pt_clust_6="13000.00000" pt_clust_7="13000.00000" pt_clust_8="13000.00000" pt_clust_9="29.54912" pt_clust_10="87.16848"></scales>
<clustering>
<clus scale="   29.549">  1  9  2 -1</clus>
<clus scale="   80.255">  5  6 -1 -1</clus>
<clus scale="   87.168">  2 10  1 -1</clus>
<clus scale="   87.168">  2  5  1 -1</clus>
<clus scale="   92.218">  7  8 -1 -1</clus>
<clus scale="   87.168">  2  5  1 -1</clus>
</clustering>
</event>
<event>
10    4  0.3738096E-005  0.1931963E+03  0.7546771E-02  0.1185723E+00
         21   -1    0    0  503  502  0.00000000000E+00  0.00000000000E+00  0.99959739049E+03  0.99959739049E+03  0.00000000000E+00 0.  1.
         -1   -1    0    0    0  501 -0.00000000000E+00 -0.00000000000E+00 -0.11300110126E+03  0.11300110126E+03  0.00000000000E+00 0.  1.
         23    2    1    2    0    0  0.88345692316E+01  0.11933369026E+02 -0.80058565746E+01  0.93818241817E+02  0.92289294333E+02 0.  0.
         24    2    1    2    0    0  0.14321507488E+03  0.24335791348E+02  0.14001458943E+03  0.21706425942E+03  0.80062594554E+02 0.  0.
        -11    1    4    4    0    0  0.11057052294E+03  0.40945428618E+02  0.67596324345E+02  0.13591038126E+03  0.00000000000E+00 0.  1.
         12    1    4    4    0    0  0.32644551943E+02 -0.16609637270E+02  0.72418265089E+02  0.81153878160E+02  0.00000000000E+00 0. -1.
        -13    1    3    3    0    0  0.38467434592E+02 -0.25160143318E+02 -0.52106312517E+01  0.46259345152E+02  0.00000000000E+00 0. -1.
         13    1    3    3    0    0 -0.29632865360E+02  0.37093512344E+02 -0.27952253229E+01  0.47558896666E+02  0.00000000000E+00 0.  1.
         21    1    1    2  503  501  0.24744829877E+02  0.18488658193E+02  0.71517048964E+01  0.31706213435E+02  0.00000000000E+00 0.  1.
         -2    1    1    2    0  502 -0.17679447399E+03 -0.54757818567E+02  0.74743585148E+03  0.77000977708E+03  0.00000000000E+00 0.  1.
<scales pt_clust_5="13000.00000" pt_clust_6="13000.00000" pt_clust_7="13000.00000" pt_clust_8="13000.00000" pt_clust_9="30.88911" pt_clust_10="175.82601"></scales>
<clustering>
<clus scale="   30.889">  2  9  1 -1</clus>
<clus scale="   80.063">  5  6 -1 -1</clus>
<clus scale="   92.289">  7  8 -1 -1</clus>
<clus scale="   97.085">  2  7  1 -1</clus>
<clus scale="  175.826">  1 10  2 -1</clus>
<clus scale="  175.826">  1  5  2 -1</clus>
</clustering>
</event>
<event>
10    4  0.3738096E-005  0.1150543E+03  0.7546771E-02  0.1255008E+00
         21   -1    0    0  503  502  0.00000000000E+00  0.00000000000E+00  0.14097147436E+03  0.14097147436E+03  0.00000000000E+00 0. -1.
         -1   -1    0    0    0  501 -0.00000000000E+00 -0.00000000000E+00 -0.16294725771E+03  0.16294725771E+03  0.00000000000E+00 0.  1.
         23    2    1    2    0    0 -0.48523857022E+02 -0.57905749311E+02 -0.97143383333E+00  0.11891046962E+03  0.91821106500E+02 0.  0.
         24    2    1    2    0    0  0.39332806607E+02  0.46719853937E+02  0.31633914208E+02  0.10692306575E+03  0.81865884426E+02 0.  0.
        -13    1    4    4    0    0  0.20420615229E+02 -0.21252864388E+02 -0.30712092109E+00  0.29475075815E+02  0.00000000000E+00 0.  1.
         14    1    4    4    0    0  0.18912191378E+02  0.67972718325E+02  0.31941035129E+02  0.77447989931E+02  0.00000000000E+00 0. -1.
        -11    1    3    3    0    0  0.13326252870E+02  0.16017029054E+02  0.75224108793E+01  0.22152221124E+02  0.00000000000E+00 0.  1.
         11    1    3    3    0    0 -0.61850109892E+02 -0.73922778365E+02 -0.84938447126E+01  0.96758248500E+02  0.00000000000E+00 0. -1.
         21    1    1    2  503  501  0.13744398232E+02 -0.20477870782E+02 -0.15771205584E+02  0.29274265150E+02  0.00000000000E+00 0.  1.
         -2    1    1    2    0  502 -0.45533478167E+01  0.31663766156E+02 -0.36867058131E+02  0.48810931550E+02  0.00000000000E+00 0.  1.
<scales pt_clust_5="13000.00000" pt_clust_6="13000.00000" pt_clust_7="13000.00000" pt_clust_8="13000.00000" pt_clust_9="24.66276" pt_clust_10="25.41920"></scales>
<clustering>
<clus scale="   24.663">  2  9  1 -1</clus>
<clus scale="   25.419">  1 10  2 -1</clus>
<clus scale="   81.866">  5  6 -1 -1</clus>
<clus scale="   91.821">  7  8 -1 -1</clus>
<clus scale="  107.277">  1  5  2 -1</clus>
<clus scale="   25.419">  1  5  2 -1</clus>
</clustering>
</event>
<event>
10    4  0.3738096E-005  0.1194882E+03  0.7546771E-02  0.1247524E+00
         21   -1    0    0  503  502  0.00000000000E+00  0.00000000000E+00  0.42540298930E+03  0.42540298930E+03  0.00000000000E+00 0.  1.
         -3   -1    0    0    0  501 -0.00000000000E+00 -0.00000000000E+00 -0.23049312022E+03  0.23049312022E+03  0.00000000000E+00 0.  1.
         23    2    1    2    0    0 -0.25234730074E+02  0.50923092554E+02 -0.14535201940E+03  0.18063620867E+03  0.90952060901E+02 0.  0.
         24    2    1    2    0    0  0.69885873446E+02 -0.61880512494E+02  0.35056948014E+03  0.37144187124E+03  0.79729982880E+02 0.  0.
        -13    1    4    4    0    0  0.54305663505E+02 -0.31006373585E+02  0.31747583832E+03  0.32357596976E+03  0.00000000000E+00 0.  1.
         14    1    4    4    0    0  0.15580209941E+02 -0.30874138909E+02  0.33093641822E+02  0.47865901477E+02  0.00000000000E+00 0. -1.
        -11    1    3    3    0    0  0.49265252894E+01  0.62135628198E+02 -0.13165471885E+03  0.14566424386E+03  0.00000000000E+00 0.  1.
         11    1    3    3    0    0 -0.30161255363E+02 -0.11212535644E+02 -0.13697300554E+02  0.34971964817E+02  0.00000000000E+00 0. -1.
         21    1    1    2  503  501  0.99996043525E+00  0.25696092096E+02 -0.39888687578E+02  0.47459419156E+02  0.00000000000E+00 0.  1.
         -4    1    1    2    0  502 -0.45651103807E+02 -0.14738672156E+02  0.29581095932E+02  0.56358610454E+02  0.00000000000E+00 0.  1.
<scales pt_clust_5="13000.00000" pt_clust_6="13000.00000" pt_clust_7="13000.00000" pt_clust_8="13000.00000" pt_clust_9="25.71554" pt_clust_10="47.36899"></scales>
<clustering>
<clus scale="   25.716">  2  9  1 -1</clus>
<clus scale="   47.369">  1 10  2 -1</clus>
<clus scale="   79.730">  5  6 -1 -1</clus>
<clus scale="   90.952">  7  8 -1 -1</clus>
<clus scale="  111.185">  1  5  2 -1</clus>
<clus scale="   47.369">  1  5  2 -1</clus>
</clustering>
</event>
<event>
10    4  0.3738096E-005  0.1628254E+03  0.7546771E-02  0.1185965E+00
         21   -1    0    0  501  502  0.00000000000E+00  0.00000000000E+00  0.32401654138E+03  0.32401654138E+03  0.00000000000E+00 0. -1.
          2   -1    0    0  503    0 -0.00000000000E+00 -0.00000000000E+00 -0.34729219319E+03  0.34729219319E+03  0.00000000000E+00 0. -1.
         24    2    1    2    0    0 -0.27236217947E+02  0.11515979306E+03  0.68491857712E+02  0.16119725236E+03  0.85380501807E+02 0.  0.
         23    2    1    2    0    0  0.22888370464E+02 -0.15505457939E+03  0.12417433985E+03  0.21855816938E+03  0.88219083142E+02 0.  0.
        -11    1    3    3    0    0  0.23752658759E+02  0.46313826445E+01  0.11302175406E+02  0.26709130877E+02  0.00000000000E+00 0.  1.
         12    1    3    3    0    0 -0.50988876706E+02  0.11052841042E+03  0.57189682306E+02  0.13448812148E+03  0.00000000000E+00 0. -1.
        -11    1    4    4    0    0 -0.78369312080E+01 -0.89146509176E+02  0.20306605768E+02  0.91765330201E+02  0.00000000000E+00 0. -1.
         11    1    4    4    0    0  0.30725301672E+02 -0.65908070217E+02  0.10386773408E+03  0.12679283918E+03  0.00000000000E+00 0.  1.
         21    1    1    2  503  502 -0.27312168335E+02  0.76051413402E+02 -0.11599148524E+02  0.81635239119E+02  0.00000000000E+00 0. -1.
          1    1    1    2  501    0  0.31660015818E+02 -0.36156627069E+02 -0.20434270085E+03  0.20991807372E+03  0.00000000000E+00 0. -1.
<scales pt_clust_5="13000.00000" pt_clust_6="13000.00000" pt_clust_7="13000.00000" pt_clust_8="13000.00000" pt_clust_9="75.95508" pt_clust_10="48.05893"></scales>
<clustering>
<clus scale="   48.059">  1 10  2 -1</clus>
<clus scale="   75.955">  2  9  1 -1</clus>
<clus scale="   85.381">  5  6 -1 -1</clus>
<clus scale="   88.219">  7  8 -1 -1</clus>
<clus scale="  161.305">  2  5  1 -1</clus>
<clus scale="   48.059">  1  5  2 -1</clus>
</clustering>
</event>
<event>
10    4  0.3738096E-005  0.3404352E+03  0.7546771E-02  0.1109814E+00
         21   -1    0    0  501  502  0.00000000000E+00  0.00000000000E+00  0.31313111311E+03  0.31313111311E+03  0.00000000000E+00 0. -1.
          2   -1    0    0  503    0 -0.00000000000E+00 -0.00000000000E+00 -0.95726429409E+03  0.95726429409E+03  0.00000000000E+00 0. -1.
         24    2    1    2    0    0  0.67682421241E+02  0.21359332116E+02 -0.83158773641E+02  0.13660286618E+03  0.81901344320E+02 0.  0.
         23    2    1    2    0    0  0.20431187730E+03  0.23733325671E+03  0.86338110538E+02  0.33754000741E+03  0.91698251466E+02 0.  0.
        -11    1    3    3    0    0  0.18810819052E+02 -0.20110327320E+02  0.46121277121E+01  0.27920313400E+02  0.00000000000E+00 0.  1.
         12    1    3    3    0    0  0.48871602189E+02  0.41469659436E+02 -0.87770901353E+02  0.10868255278E+03  0.00000000000E+00 0. -1.
        -13    1    4    4    0    0  0.10793307169E+03  0.99073121639E+02  0.84216707843E+02  0.16898960109E+03  0.00000000000E+00 0. -1.
         13    1    4    4    0    0  0.96378805609E+02  0.13826013508E+03  0.21214026954E+01  0.16855040632E+03  0.00000000000E+00 0.  1.
         21    1    1    2  503  502 -0.12763484849E+02  0.30143303913E+02 -0.20589250754E+03  0.20847841610E+03  0.00000000000E+00 0.  1.
          1    1    1    2  501    0 -0.25923081369E+03 -0.28883589274E+03 -0.44142001033E+03  0.58777411752E+03  0.00000000000E+00 0. -1.
<scales pt_clust_5="13000.00000" pt_clust_6="13000.00000" pt_clust_7="13000.00000" pt_clust_8="13000.00000" pt_clust_9="32.73416" pt_clust_10="327.85311"></scales>
<clustering>
<clus scale="   32.734">  2  9  1 -1</clus>
<clus scale="   81.901">  5  6 -1 -1</clus>
<clus scale="   91.698">  7  8 -1 -1</clus>
<clus scale="  108.183">  2  5  1 -1</clus>
<clus scale="  327.853">  1 10  2 -1</clus>
<clus scale="  327.853">  1  5  2 -1</clus>
</clustering>
</event>
<event>
10    4  0.3738096E-005  0.1452888E+03  0.7546771E-02  0.1224715E+00
         21   -1    0    0  501  502  0.00000000000E+00  0.00000000000E+00  0.12367074567E+03  0.12367074567E+03  0.00000000000E+00 0.  1.
          2   -1    0    0  503    0 -0.00000000000E+00 -0.00000000000E+00 -0.76318613330E+03  0.76318613330E+03  0.00000000000E+00 0. -1.
         24    2    1    2    0    0 -0.44363519858E+01 -0.63540856216E+02  0.57860826672E+02  0.11767855913E+03  0.80269834861E+02 0.  0.
         23    2    1    2    0    0  0.54925858142E+02 -0.49864900630E+02 -0.74408155791E+02  0.12524477424E+03  0.68163931948E+02 0.  0.
        -13    1    3    3    0    0 -0.40709416986E+02 -0.27813395971E+02  0.40758113849E+02  0.63969254110E+02  0.00000000000E+00 0.  1.
         14    1    3    3    0    0  0.36273065000E+02 -0.35727460245E+02  0.17102712822E+02  0.53709305022E+02  0.00000000000E+00 0. -1.
        -13    1    4    4    0    0  0.55367484154E+02 -0.88176053229E+01 -0.59023403215E+02  0.81406821534E+02  0.00000000000E+00 0. -1.
         13    1    4    4    0    0 -0.44162601216E+00 -0.41047295307E+02 -0.15384752576E+02  0.43837952706E+02  0.00000000000E+00 0.  1.
         21    1    1    2  503  502 -0.20057034779E+02  0.12429015302E+03 -0.54833892649E+03  0.56260635002E+03  0.00000000000E+00 0. -1.
          1    1    1    2  501    0 -0.30432471378E+02 -0.10884396177E+02 -0.74629132020E+02  0.81327195577E+02  0.00000000000E+00 0. -1.
<scales pt_clust_5="13000.00000" pt_clust_6="13000.00000" pt_clust_7="13000.00000" pt_clust_8="13000.00000" pt_clust_9="121.10158" pt_clust_10="32.32037"></scales>
<clustering>
<clus scale="   32.320">  1 10  2 -1</clus>
<clus scale="   68.164">  7  8 -1 -1</clus>
<clus scale="   80.270">  5  6 -1 -1</clus>
<clus scale="   98.587">  1  7  2 -1</clus>
<clus scale="  121.102">  2  9  1 -1</clus>
<clus scale="   32.320">  1  5  2 -1</clus>
</clustering>
</event>
<event>
10    4  0.3738096E-005  0.1062027E+03  0.7546771E-02  0.1272761E+00
          2   -1    0    0  503    0 -0.00000000000E+00  0.00000000000E+00  0.84741646404E+03  0.84741646404E+03  0.00000000000E+00 0. -1.
         21   -1    0    0  501  502  0.00000000000E+00 -0.00000000000E+00 -0.36288816896E+02  0.36288816896E+02  0.00000000000E+00 0. -1.
         24    2    1    2    0    0 -0.28483935279E+02  0.25911795143E+02  0.36351466948E+03  0.37399785120E+03  0.79048858808E+02 0.  0.
         23    2    1    2    0    0  0.46718534683E+02 -0.59555533624E+02  0.30250692854E+03  0.32475925695E+03  0.90711907133E+02 0.  0.
        -13    1    3    3    0    0 -0.37807579857E+01  0.51059791098E+02  0.24774262034E+03  0.25297786925E+03  0.00000000000E+00 0.  1.
         14    1    3    3    0    0 -0.24703177294E+02 -0.25147995955E+02  0.11577204914E+03  0.12101998195E+03  0.00000000000E+00 0. -1.
        -13    1    4    4    0    0  0.16305697415E+02  0.19749928722E+02  0.12972512873E+03  0.13222913626E+03  0.00000000000E+00 0. -1.
         13    1    4    4    0    0  0.30412837268E+02 -0.79305462347E+02  0.17278179981E+03  0.19253012069E+03  0.00000000000E+00 0.  1.
         21    1    1    2  503  502 -0.35585499655E+02 -0.12350223210E+02  0.12715221755E+03  0.13261426103E+03  0.00000000000E+00 0. -1.
          1    1    1    2  501    0  0.17350900251E+02  0.45993961692E+02  0.17953831576E+02  0.52333911758E+02  0.00000000000E+00 0. -1.
<scales pt_clust_5="13000.00000" pt_clust_6="13000.00000" pt_clust_7="13000.00000" pt_clust_8="13000.00000" pt_clust_9="37.66770" pt_clust_10="47.99766"></scales>
<clustering>
<clus scale="   37.668">  1  9  2 -1</clus>
<clus scale="   47.998">  2 10  1 -1</clus>
<clus scale="   79.049">  5  6 -1 -1</clus>
<clus scale="   90.712">  7  8 -1 -1</clus>
<clus scale="   96.432">  1  5  2 -1</clus>
<clus scale="   47.998">  2  5  1 -1</clus>
</clustering>
</event>
<event>
10    4  0.3738096E-005  0.1275326E+03  0.7546771E-02  0.1234068E+00
         21   -1    0    0  503  502  0.00000000000E+00  0.00000000000E+00  0.95605316515E+02  0.95605316515E+02  0.00000000000E+00 0.  1.
         -3   -1    0    0    0  501 -0.00000000000E+00 -0.00000000000E+00 -0.49821267966E+03  0.49821267966E+03  0.00000000000E+00 0.  1.
         24    2    1    2    0    0  0.47142311310E+02  0.10092494515E+03 -0.26480307093E+03  0.29888608083E+03  0.82486246567E+02 0.  0.
         23    2    1    2    0    0  0.91442652805E+01 -0.70804308847E+02 -0.39031195539E+02  0.12351301063E+03  0.92925571463E+02 0.  0.
        -13    1    3    3    0    0  0.21469539108E+02  0.79647518776E+02 -0.94893478749E+02  0.12573559824E+03  0.00000000000E+00 0.  1.
         14    1    3    3    0    0  0.25672772202E+02  0.21277426371E+02 -0.16990959218E+03  0.17315048258E+03  0.00000000000E+00 0. -1.
        -13    1    4    4    0    0 -0.12947863864E+02 -0.34691605535E+02 -0.64307851920E+02  0.74206835884E+02  0.00000000000E+00 0.  1.
         13    1    4    4    0    0  0.22092129145E+02 -0.36112703312E+02  0.25276656381E+02  0.49306174750E+02  0.00000000000E+00 0. -1.
         21    1    1    2  503  501 -0.17204847273E+02 -0.18503398825E+02 -0.12193647295E+03  0.12452664764E+03  0.00000000000E+00 0.  1.
         -4    1    1    2    0  502 -0.39081729317E+02 -0.11617237476E+02  0.23163376269E+02  0.46892257070E+02  0.00000000000E+00 0.  1.
<scales pt_clust_5="13000.00000" pt_clust_6="13000.00000" pt_clust_7="13000.00000" pt_clust_8="13000.00000" pt_clust_9="25.26623" pt_clust_10="41.46243"></scales>
<clustering>
<clus scale="   25.266">  2  9  1 -1</clus>
<clus scale="   41.462">  1 10  2 -1</clus>
<clus scale="   82.486">  5  6 -1 -1</clus>
<clus scale="   92.926">  7  8 -1 -1</clus>
<clus scale="  120.139">  2  5  1 -1</clus>
<clus scale="   41.462">  1  5  2 -1</clus>
</clustering>
</event>
<event>
10    4  0.3738096E-005  0.1176639E+03  0.7546771E-02  0.1254366E+00
          2   -1    0    0  503    0 -0.00000000000E+00  0.00000000000E+00  0.41989539296E+03  0.41989539296E+03  0.00000000000E+00 0. -1.
         21   -1    0    0  501  502  0.00000000000E+00 -0.00000000000E+00 -0.80915066168E+02  0.80915066168E+02  0.00000000000E+00 0. -1.
         23    2    1    2    0    0 -0.51589242337E+02  0.19650009495E+02  0.12182161904E+03  0.16174411744E+03  0.90956472343E+02 0.  0.
         24    2    1    2    0    0 -0.68751115627E+02 -0.25625179664E+02  0.48285962643E+02  0.11919640688E+03  0.80578430690E+02 0.  0.
        -11    1    4    4    0    0 -0.81202863399E+02 -0.91986555271E+00  0.38263817645E+02  0.89771214304E+02  0.00000000000E+00 0.  1.
         12    1    4    4    0    0  0.12451747772E+02 -0.24705314111E+02  0.10022144998E+02  0.29425192578E+02  0.00000000000E+00 0. -1.
        -11    1    3    3    0    0  0.18769238993E+02 -0.17478790106E+02  0.19968648011E+02  0.32504451069E+02  0.00000000000E+00 0.  1.
         11    1    3    3    0    0 -0.70358481330E+02  0.37128799601E+02  0.10185297103E+03  0.12923966637E+03  0.00000000000E+00 0. -1.
         21    1    1    2  503  502  0.19769494174E+02 -0.15566771274E+02  0.80253284637E+02  0.84105570343E+02  0.00000000000E+00 0.  1.
          1    1    1    2  501    0  0.10057086379E+03  0.21541941443E+02  0.88619460468E+02  0.13576436446E+03  0.00000000000E+00 0. -1.
<scales pt_clust_5="13000.00000" pt_clust_6="13000.00000" pt_clust_7="13000.00000" pt_clust_8="13000.00000" pt_clust_9="25.16262" pt_clust_10="85.74330"></scales>
<clustering>
<clus scale="   25.163">  1  9  2 -1</clus>
<clus scale="   80.578">  5  6 -1 -1</clus>
<clus scale="   90.956">  7  8 -1 -1</clus>
<clus scale="  101.583">  1  7  2 -1</clus>
<clus scale="   85.743">  2 10  1 -1</clus>
<clus scale="   85.743">  2  5  1 -1</clus>
</clustering>
</event>
<event>
10    4  0.3738096E-005  0.1336755E+03  0.7546771E-02  0.1235806E+00
         21   -1    0    0  501  502  0.00000000000E+00  0.00000000000E+00  0.12662129504E+03  0.12662129504E+03  0.00000000000E+00 0. -1.
          2   -1    0    0  503    0 -0.00000000000E+00 -0.00000000000E+00 -0.20898108415E+03  0.20898108415E+03  0.00000000000E+00 0. -1.
         23    2    1    2    0    0  0.69216220609E+02  0.13894912910E+02 -0.24815042919E+02  0.13799443793E+03  0.11594276495E+03 0.  0.
         24    2    1    2    0    0 -0.36450854176E+02 -0.67552400872E+02 -0.20431105451E+02  0.10963142064E+03  0.75562071762E+02 0.  0.
        -11    1    4    4    0    0 -0.47208215277E+02 -0.47227516180E+02  0.13999116746E+02  0.68227773992E+02  0.00000000000E+00 0.  1.
         12    1    4    4    0    0  0.10757361101E+02 -0.20324884691E+02 -0.34430222197E+02  0.41403646652E+02  0.00000000000E+00 0. -1.
        -11    1    3    3    0    0  0.93274454535E+02 -0.28473806369E+01 -0.43786468775E+02  0.10307999948E+03  0.00000000000E+00 0.  1.
         11    1    3    3    0    0 -0.24058233927E+02  0.16742293547E+02  0.18971425856E+02  0.34914438444E+02  0.00000000000E+00 0. -1.
         21    1    1    2  503  502 -0.25329799175E+02  0.78024160665E+00 -0.18695914301E+02  0.31491978578E+02  0.00000000000E+00 0. -1.
          1    1    1    2  501    0 -0.74355672574E+01  0.52877246355E+02 -0.18417726437E+02  0.56484542041E+02  0.00000000000E+00 0. -1.
<scales pt_clust_5="13000.00000" pt_clust_6="13000.00000" pt_clust_7="13000.00000" pt_clust_8="13000.00000" pt_clust_9="25.34181" pt_clust_10="54.51104"></scales>
<clustering>
<clus scale="   25.342">  2  9  1 -1</clus>
<clus scale="   54.511">  1 10  2 -1</clus>
<clus scale="   75.562">  5  6 -1 -1</clus>
<clus scale="  100.678">  1  5  2 -1</clus>
<clus scale="  115.943">  7  8 -1 -1</clus>
<clus scale="   54.511">  1  5  2 -1</clus>
</clustering>
</event>
<event>
10    4  0.3738096E-005  0.2682299E+03  0.7546771E-02  0.1137174E+00
         21   -1    0    0  501  502  0.00000000000E+00  0.00000000000E+00  0.18693615661E+03  0.18693615661E+03  0.00000000000E+00 0. -1.
          2   -1    0    0  503    0 -0.00000000000E+00 -0.00000000000E+00 -0.81710090571E+03  0.81710090571E+03  0.00000000000E+00 0. -1.
         24    2    1    2    0    0  0.15688853576E+02 -0.78299214454E+02 -0.11471676314E+03  0.16078934732E+03  0.79475602271E+02 0.  0.
         23    2    1    2    0    0  0.13860363014E+03 -0.19492640665E+03 -0.52269853285E+02  0.26112293187E+03  0.90806264599E+02 0.  0.
        -11    1    3    3    0    0 -0.51909600478E+01 -0.86467175101E+02 -0.72379373843E+02  0.11288176201E+03  0.00000000000E+00 0.  1.
         12    1    3    3    0    0  0.20879813624E+02  0.81679606477E+01 -0.42337389297E+02  0.47907585314E+02  0.00000000000E+00 0. -1.
        -13    1    4    4    0    0  0.23708583065E+02 -0.26328544008E+02  0.24561609584E+02  0.43111040417E+02  0.00000000000E+00 0.  1.
         13    1    4    4    0    0  0.11489504708E+03 -0.16859786264E+03 -0.76831462868E+02  0.21801189146E+03  0.00000000000E+00 0. -1.
         21    1    1    2  503  502 -0.53814784367E+02 -0.26648300305E+01 -0.11263644182E+03  0.12486032341E+03  0.00000000000E+00 0. -1.
          1    1    1    2  501    0 -0.10047769935E+03  0.27589045114E+03 -0.35054169085E+03  0.45726445972E+03  0.00000000000E+00 0. -1.
<scales pt_clust_5="13000.00000" pt_clust_6="13000.00000" pt_clust_7="13000.00000" pt_clust_8="13000.00000" pt_clust_9="53.88072" pt_clust_10="252.39168"></scales>
<clustering>
<clus scale="   53.881">  2  9  1 -1</clus>
<clus scale="   79.476">  5  6 -1 -1</clus>
<clus scale="   90.806">  7  8 -1 -1</clus>
<clus scale="  112.051">  2  5  1 -1</clus>
<clus scale="  252.392">  1 10  2 -1</clus>
<clus scale="  252.392">  1  5  2 -1</clus>
</clustering>
</event>
<event>
10    4  0.3738096E-005  0.2101986E+03  0.7546771E-02  0.1142522E+00
         21   -1    0    0  501  502  0.00000000000E+00  0.00000000000E+00  0.26247180574E+03  0.26247180574E+03  0.00000000000E+00 0.  1.
          2   -1    0    0  503    0 -0.00000000000E+00 -0.00000000000E+00 -0.10413030771E+04  0.10413030771E+04  0.00000000000E+00 0. -1.
         24    2    1    2    0    0 -0.86885290947E+02 -0.12415612821E+03 -0.19292094575E+03  0.25853371777E+03  0.81592854823E+02 0.  0.
         23    2    1    2    0    0  0.17182661469E+03  0.68252155637E+02  0.10510282868E+03  0.23278452767E+03  0.94653523245E+02 0.  0.
        -11    1    3    3    0    0  0.10683435616E+02 -0.40440792197E+02 -0.32594268750E+02  0.53028104109E+02  0.00000000000E+00 0.  1.
         12    1    3    3    0    0 -0.97568726564E+02 -0.83715336015E+02 -0.16032667700E+03  0.20550561366E+03  0.00000000000E+00 0. -1.
        -13    1    4    4    0    0  0.16893555307E+03  0.34353342966E+02  0.97008218042E+02  0.19781296123E+03  0.00000000000E+00 0.  1.
         13    1    4    4    0    0  0.28910616176E+01  0.33898812671E+02  0.80946106346E+01  0.34971566437E+02  0.00000000000E+00 0. -1.
         21    1    1    2  503  502 -0.10726737789E+03  0.31302100566E+02 -0.74267532504E+03  0.75103445346E+03  0.00000000000E+00 0. -1.
          1    1    1    2  501    0  0.22326054146E+02  0.24601872009E+02  0.51662170721E+02  0.61422183971E+02  0.00000000000E+00 0. -1.
<scales pt_clust_5="13000.00000" pt_clust_6="13000.00000" pt_clust_7="13000.00000" pt_clust_8="13000.00000" pt_clust_9="111.44781" pt_clust_10="33.22205"></scales>
<clustering>
<clus scale="   33.222">  1 10  2 -1</clus>
<clus scale="   81.593">  5  6 -1 -1</clus>
<clus scale="   94.654">  7  8 -1 -1</clus>
<clus scale="  111.448">  2  9  1 -1</clus>
<clus scale="  204.650">  2  5  1 -1</clus>
<clus scale="   33.222">  1  5  2 -1</clus>
</clustering>
</event>
<event>
10    4  0.3738096E-005  0.1960860E+03  0.7546771E-02  0.1157961E+00
          2   -1    0    0  502    0 -0.00000000000E+00  0.00000000000E+00  0.15322337681E+04  0.15322337681E+04  0.00000000000E+00 0. -1.
         21   -1    0    0  503  502  0.00000000000E+00 -0.00000000000E+00 -0.76788326212E+02  0.76788326212E+02  0.00000000000E+00 0. -1.
         24    2    1    2    0    0  0.76722296561E+02  0.13580617607E+03  0.90480828012E+03  0.92155430489E+03  0.79086565490E+02 0.  0.
         23    2    1    2    0    0  0.85375641956E+02 -0.19352053996E+03  0.33923730874E+03  0.41049543220E+03  0.93195217636E+02 0.  0.
        -11    1    3    3    0    0  0.12675051442E+02  0.93173546368E+02  0.39916817824E+03  0.41009413698E+03  0.00000000000E+00 0.  1.
         12    1    3    3    0    0  0.64047245120E+02  0.42632629699E+02  0.50564010188E+03  0.51146016791E+03  0.00000000000E+00 0. -1.
        -11    1    4    4    0    0  0.58443091486E+00 -0.10318251063E+03  0.11655662529E+03  0.15566765547E+03  0.00000000000E+00 0. -1.
         11    1    4    4    0    0  0.84791211041E+02 -0.90338029327E+02  0.22268068345E+03  0.25482777673E+03  0.00000000000E+00 0.  1.
         21    1    1    2  503  501 -0.42905703439E+02  0.12170676122E+02  0.91921229694E+02  0.10216915980E+03  0.00000000000E+00 0. -1.
          1    1    1    2  501    0 -0.11919223508E+03  0.45543687769E+02  0.11947862335E+03  0.17480319744E+03  0.00000000000E+00 0. -1.
<scales pt_clust_5="13000.00000" pt_clust_6="13000.00000" pt_clust_7="13000.00000" pt_clust_8="13000.00000" pt_clust_9="29.06611" pt_clust_10="179.39193"></scales>
<clustering>
<clus scale="   29.066">  9 10 -1 -1</clus>
<clus scale="   79.087">  5  6 -1 -1</clus>
<clus scale="   93.195">  7  8 -1 -1</clus>
<clus scale="  174.884">  1  5  2 -1</clus>
<clus scale="  179.392">  2  9  1 -1</clus>
<clus scale="  179.392">  2  5  1 -1</clus>
</clustering>
</event>
<event>
10    4  0.3738096E-005  0.1285529E+03  0.7546771E-02  0.1242968E+00
          2   -1    0    0  503    0 -0.00000000000E+00  0.00000000000E+00  0.34563373430E+03  0.34563373430E+03  0.00000000000E+00 0. -1.
         21   -1    0    0  501  502  0.00000000000E+00 -0.00000000000E+00 -0.10949037263E+03  0.10949037263E+03  0.00000000000E+00 0. -1.
         24    2    1    2    0    0 -0.28934946350E+02  0.40206865302E+02  0.22071970359E+03  0.24062704336E+03  0.82038791470E+02 0.  0.
         23    2    1    2    0    0  0.69286131600E+02 -0.55634466689E+02 -0.22571928660E+02  0.14860854669E+03  0.11695830997E+03 0.  0.
        -13    1    3    3    0    0 -0.55760299648E+02  0.33414949780E+02  0.12373216691E+03  0.13976916331E+03  0.00000000000E+00 0.  1.
         14    1    3    3    0    0  0.26825353297E+02  0.67919155219E+01  0.96987536682E+02  0.10085788005E+03  0.00000000000E+00 0. -1.
        -13    1    4    4    0    0  0.68991961896E+02 -0.20135289575E+02 -0.62454362274E+02  0.95214852095E+02  0.00000000000E+00 0. -1.
         13    1    4    4    0    0  0.29416970372E+00 -0.35499177114E+02  0.39882433614E+02  0.53393694595E+02  0.00000000000E+00 0.  1.
         21    1    1    2  503  502 -0.19403258687E+02  0.21550599841E+02  0.10628960614E+02  0.30885103285E+02  0.00000000000E+00 0. -1.
          1    1    1    2  501    0 -0.20947926563E+02 -0.61229984545E+01  0.27366626133E+02  0.35003413594E+02  0.00000000000E+00 0. -1.
<scales pt_clust_5="13000.00000" pt_clust_6="13000.00000" pt_clust_7="13000.00000" pt_clust_8="13000.00000" pt_clust_9="29.96514" pt_clust_10="21.82446"></scales>
<clustering>
<clus scale="   21.824">  2 10  1 -1</clus>
<clus scale="   29.965">  2  9  1 -1</clus>
<clus scale="   82.039">  5  6 -1 -1</clus>
<clus scale="   97.862">  1  5  2 -1</clus>
<clus scale="  116.958">  7  8 -1 -1</clus>
<clus scale="   21.824">  2  5  1 -1</clus>
</clustering>
</event>
<event>
10    4  0.3738096E-005  0.1429061E+03  0.7546771E-02  0.1219941E+00
         21   -1    0    0  501  502  0.00000000000E+00  0.00000000000E+00  0.17734946148E+03  0.17734946148E+03  0.00000000000E+00 0.  1.
          2   -1    0    0  503    0 -0.00000000000E+00 -0.00000000000E+00 -0.30207348744E+03  0.30207348744E+03  0.00000000000E+00 0. -1.
         23    2    1    2    0    0 -0.10067921836E+03 -0.35418100146E+02 -0.99870921092E+02  0.18550372478E+03  0.11422208280E+03 0.  0.
         24    2    1    2    0    0  0.54106840223E+02  0.58207931304E+02 -0.13358597659E+02  0.11056309486E+03  0.75696977410E+02 0.  0.
        -13    1    4    4    0    0 -0.44846749434E+01  0.48113305214E+02  0.43762543620E+01  0.48519625413E+02  0.00000000000E+00 0.  1.
         14    1    4    4    0    0  0.58591515166E+02  0.10094626089E+02 -0.17734852021E+02  0.62043469452E+02  0.00000000000E+00 0. -1.
        -13    1    3    3    0    0 -0.10933730140E+03 -0.62589294948E+02 -0.69664134642E+02  0.14396234569E+03  0.00000000000E+00 0. -1.
         13    1    3    3    0    0  0.86580830418E+01  0.27171194803E+02 -0.30206786451E+02  0.41541379089E+02  0.00000000000E+00 0.  1.
         21    1    1    2  503  502  0.24548006463E+02  0.81577484575E+01 -0.91341934983E+02  0.94934201254E+02  0.00000000000E+00 0.  1.
          1    1    1    2  501    0  0.22024371676E+02 -0.30947579615E+02  0.79847427778E+02  0.88421928019E+02  0.00000000000E+00 0. -1.
<scales pt_clust_5="13000.00000" pt_clust_6="13000.00000" pt_clust_7="13000.00000" pt_clust_8="13000.00000" pt_clust_9="25.86800" pt_clust_10="38.14360"></scales>
<clustering>
<clus scale="   25.868">  2  9  1 -1</clus>
<clus scale="   38.144">  1 10  2 -1</clus>
<clus scale="   75.697">  5  6 -1 -1</clus>
<clus scale="  114.222">  7  8 -1 -1</clus>
<clus scale="  114.479">  1  5  2 -1</clus>
<clus scale="   38.144">  1  5  2 -1</clus>
</clustering>
</event>
<event>
10    4  0.3738096E-005  0.1272927E+03  0.7546771E-02  0.1234012E+00
         21   -1    0    0  501  502  0.00000000000E+00  0.00000000000E+00  0.15151704910E+03  0.15151704910E+03  0.00000000000E+00 0.  1.
          2   -1    0    0  503    0 -0.00000000000E+00 -0.00000000000E+00 -0.23552299091E+03  0.23552299091E+03  0.00000000000E+00 0. -1.
         24    2    1    2    0    0 -0.39753715366E+02 -0.92811879730E+02 -0.54962024913E+02  0.14172306347E+03  0.82886667390E+02 0.  0.
         23    2    1    2    0    0  0.52594032950E+02  0.58396265742E+02 -0.50596792538E+02  0.13106686121E+03  0.91881611535E+02 0.  0.
        -11    1    3    3    0    0  0.22417632974E+02 -0.49061986320E+02 -0.15802003575E+02  0.56207936155E+02  0.00000000000E+00 0.  1.
         12    1    3    3    0    0 -0.62171348340E+02 -0.43749893410E+02 -0.39160021338E+02  0.85515127310E+02  0.00000000000E+00 0. -1.
        -13    1    4    4    0    0  0.76967407649E+02  0.35979255968E+02 -0.48628020484E+02  0.97893682515E+02  0.00000000000E+00 0.  1.
         13    1    4    4    0    0 -0.24373374699E+02  0.22417009775E+02 -0.19687720539E+01  0.33173178697E+02  0.00000000000E+00 0. -1.
         21    1    1    2  503  502  0.87342921999E+01  0.22439561960E+02 -0.40697466860E+02  0.47287478364E+02  0.00000000000E+00 0. -1.
          1    1    1    2  501    0 -0.21574609784E+02  0.11976052027E+02  0.62250342492E+02  0.66962636969E+02  0.00000000000E+00 0. -1.
<scales pt_clust_5="13000.00000" pt_clust_6="13000.00000" pt_clust_7="13000.00000" pt_clust_8="13000.00000" pt_clust_9="24.07949" pt_clust_10="24.71746"></scales>
<clustering>
<clus scale="   24.079">  2  9  1 -1</clus>
<clus scale="   24.717">  1 10  2 -1</clus>
<clus scale="   82.887">  5  6 -1 -1</clus>
<clus scale="   91.882">  7  8 -1 -1</clus>
<clus scale="  120.960">  2  5  1 -1</clus>
<clus scale="   24.717">  1  5  2 -1</clus>
</clustering>
</event>
<event>
10    4  0.3738096E-005  0.9424448E+02  0.7546771E-02  0.1299313E+00
          2   -1    0    0  503    0 -0.00000000000E+00  0.00000000000E+00  0.10539324862E+04  0.10539324862E+04  0.00000000000E+00 0. -1.
         21   -1    0    0  501  502  0.00000000000E+00 -0.00000000000E+00 -0.26868869729E+02  0.26868869729E+02  0.00000000000E+00 0.  1.
         24    2    1    2    0    0 -0.21995754604E+02  0.33393334738E+00  0.68385215704E+03  0.68883348643E+03  0.79711194963E+02 0.  0.
         23    2    1    2    0    0  0.47713380715E+02  0.31374081739E+02  0.14246593402E+03  0.17831229758E+03  0.90762511018E+02 0.  0.
        -13    1    3    3    0    0  0.20167874816E+01  0.19977452687E+02  0.45566161956E+02  0.49793987218E+02  0.00000000000E+00 0.  1.
         14    1    3    3    0    0 -0.24012542085E+02 -0.19643519339E+02  0.63828599508E+03  0.63903949921E+03  0.00000000000E+00 0. -1.
        -13    1    4    4    0    0  0.72316742967E+02  0.18452725950E+02  0.12470147910E+03  0.14532953347E+03  0.00000000000E+00 0. -1.
         13    1    4    4    0    0 -0.24603362252E+02  0.12921355789E+02  0.17764454920E+02  0.32982764107E+02  0.00000000000E+00 0.  1.
         21    1    1    2  503  502  0.18527208381E+02 -0.19419716629E+02  0.63777477987E+02  0.69195010967E+02  0.00000000000E+00 0. -1.
          1    1    1    2  501    0 -0.44244834492E+02 -0.12288298457E+02  0.13696804746E+03  0.14446056100E+03  0.00000000000E+00 0. -1.
<scales pt_clust_5="13000.00000" pt_clust_6="13000.00000" pt_clust_7="13000.00000" pt_clust_8="13000.00000" pt_clust_9="26.83995" pt_clust_10="44.11030"></scales>
<clustering>
<clus scale="   26.840">  2  9  1 -1</clus>
<clus scale="   44.110">  2 10  1 -1</clus>
<clus scale="   79.711">  5  6 -1 -1</clus>
<clus scale="   83.654">  1  5  2 -1</clus>
<clus scale="   90.763">  7  8 -1 -1</clus>
<clus scale="   26.840">  2  5  1 -1</clus>
</clustering>
</event>
<event>
10    4  0.3738096E-005  0.1786885E+03  0.7546771E-02  0.1171157E+00
          2   -1    0    0  503    0 -0.00000000000E+00  0.00000000000E+00  0.12042606418E+04  0.12042606418E+04  0.00000000000E+00 0. -1.
         21   -1    0    0  501  502  0.00000000000E+00 -0.00000000000E+00 -0.53867632887E+03  0.53867632887E+03  0.00000000000E+00 0. -1.
         24    2    1    2    0    0  0.22224050328E+02 -0.12197169158E+03  0.98611015445E+03  0.99689296821E+03  0.77532905232E+02 0.  0.
         23    2    1    2    0    0 -0.14361968908E+03  0.83519509660E+02 -0.20766812282E+03  0.28219606861E+03  0.94373981139E+02 0.  0.
        -11    1    3    3    0    0 -0.21891107627E+02 -0.76915537009E+02  0.44582808939E+03  0.45294360103E+03  0.00000000000E+00 0.  1.
         12    1    3    3    0    0  0.44115157955E+02 -0.45056154573E+02  0.54028206506E+03  0.54394936718E+03  0.00000000000E+00 0. -1.
        -11    1    4    4    0    0 -0.86441785534E+02  0.89130100323E+02 -0.97210462276E+02  0.15769030105E+03  0.00000000000E+00 0.  1.
         11    1    4    4    0    0 -0.57177903547E+02 -0.56105906623E+01 -0.11045766055E+03  0.12450576756E+03  0.00000000000E+00 0. -1.
         21    1    1    2  503  502 -0.42016610193E+00 -0.31644408860E+02  0.15669327467E+03  0.15985720965E+03  0.00000000000E+00 0.  1.
          1    1    1    2  501    0  0.12181580486E+03  0.70096590782E+02 -0.26955099338E+03  0.30399072418E+03  0.00000000000E+00 0. -1.
<scales pt_clust_5="13000.00000" pt_clust_6="13000.00000" pt_clust_7="13000.00000" pt_clust_8="13000.00000" pt_clust_9="31.64720" pt_clust_10="140.27892"></scales>
<clustering>
<clus scale="   31.647">  1  9  2 -1</clus>
<clus scale="   77.533">  5  6 -1 -1</clus>
<clus scale="   94.374">  7  8 -1 -1</clus>
<clus scale="  140.279">  2 10  1 -1</clus>
<clus scale="  170.395">  1  5  2 -1</clus>
<clus scale="  140.279">  2  5  1 -1</clus>
</clustering>
</event>
<event>
10    4  0.3738096E-005  0.1357427E+03  0.7546771E-02  0.1237747E+00
          2   -1    0    0  503    0 -0.00000000000E+00  0.00000000000E+00  0.36159407439E+03  0.36159407439E+03  0.00000000000E+00 0. -1.
         21   -1    0    0  501  502  0.00000000000E+00 -0.00000000000E+00 -0.58223951862E+03  0.58223951862E+03  0.00000000000E+00 0. -1.
         23    2    1    2    0    0 -0.22742536065E+02 -0.77165614859E+01 -0.74135933641E+02  0.11878815336E+03  0.89653334879E+02 0.  0.
         24    2    1    2    0    0  0.16032937931E+02  0.14989019652E+03  0.26170906475E+03  0.31303404004E+03  0.82307651799E+02 0.  0.
        -11    1    4    4    0    0  0.27086016150E+01  0.35534809628E+02  0.11233722396E+02  0.37366505548E+02  0.00000000000E+00 0.  1.
         12    1    4    4    0    0  0.13324336316E+02  0.11435538689E+03  0.25047534235E+03  0.27566753449E+03  0.00000000000E+00 0. -1.
        -11    1    3    3    0    0 -0.82101694452E+01 -0.23776813104E+02  0.13477316484E+02  0.28537375200E+02  0.00000000000E+00 0.  1.
         11    1    3    3    0    0 -0.14532366619E+02  0.16060251618E+02 -0.87613250125E+02  0.90250778163E+02  0.00000000000E+00 0. -1.
         21    1    1    2  503  502  0.42650639196E+02 -0.41321293633E+02  0.25971683239E+02  0.64815543364E+02  0.00000000000E+00 0. -1.
          1    1    1    2  501    0 -0.35941041062E+02 -0.10085234140E+03 -0.43419025857E+03  0.44719585624E+03  0.00000000000E+00 0. -1.
<scales pt_clust_5="13000.00000" pt_clust_6="13000.00000" pt_clust_7="13000.00000" pt_clust_8="13000.00000" pt_clust_9="59.38456" pt_clust_10="107.94225"></scales>
<clustering>
<clus scale="   59.385">  1  9  2 -1</clus>
<clus scale="   82.308">  5  6 -1 -1</clus>
<clus scale="   89.653">  7  8 -1 -1</clus>
<clus scale="   92.413">  1  7  2 -1</clus>
<clus scale="  107.942">  2 10  1 -1</clus>
<clus scale="  107.942">  2  5  1 -1</clus>
</clustering>
</event>
<event>
10    4  0.3738096E-005  0.1834879E+03  0.7546771E-02  0.1192097E+00
         21   -1    0    0  501  502  0.00000000000E+00  0.00000000000E+00  0.12071594333E+03  0.12071594333E+03  0.00000000000E+00 0. -1.
          2   -1    0    0  503    0 -0.00000000000E+00 -0.00000000000E+00 -0.11528614002E+04  0.11528614002E+04  0.00000000000E+00 0. -1.
         24    2    1    2    0    0  0.55132869040E+02  0.83431479347E+01 -0.23625018429E+03  0.25592817425E+03  0.81091549679E+02 0.  0.
         23    2    1    2    0    0 -0.25705630675E+02  0.16059989655E+03 -0.21914282281E+03  0.28809379939E+03  0.92311181526E+02 0.  0.
        -11    1    3    3    0    0  0.18384674878E+02 -0.13086547251E+02 -0.83032716661E+01  0.24045754505E+02  0.00000000000E+00 0.  1.
         12    1    3    3    0    0  0.36748194162E+02  0.21429695186E+02 -0.22794691263E+03  0.23188241974E+03  0.00000000000E+00 0. -1.
        -13    1    4    4    0    0  0.34328150034E+02  0.55553781117E+02 -0.65018001909E+02  0.92151967171E+02  0.00000000000E+00 0.  1.
         13    1    4    4    0    0 -0.60033780709E+02  0.10504611543E+03 -0.15412482090E+03  0.19594183222E+03  0.00000000000E+00 0. -1.
         21    1    1    2  503  502 -0.15514941193E+03 -0.13247729962E+03 -0.56192585073E+03  0.59781455039E+03  0.00000000000E+00 0.  1.
          1    1    1    2  501    0  0.12572217357E+03 -0.36465744867E+02 -0.14826598996E+02  0.13174081946E+03  0.00000000000E+00 0. -1.
<scales pt_clust_5="13000.00000" pt_clust_6="13000.00000" pt_clust_7="13000.00000" pt_clust_8="13000.00000" pt_clust_9="158.57636" pt_clust_10="135.00859"></scales>
<clustering>
<clus scale="   81.092">  5  6 -1 -1</clus>
<clus scale="   92.311">  7  8 -1 -1</clus>
<clus scale="   98.413">  2  5  1 -1</clus>
<clus scale="  135.009">  1 10  2 -1</clus>
<clus scale="  158.576">  2  9  1 -1</clus>
<clus scale="  135.009">  1  5  2 -1</clus>
</clustering>
</event>
<event>
10    4  0.3738096E-005  0.2603212E+03  0.7546771E-02  0.1106950E+00
          2   -1    0    0  503    0 -0.00000000000E+00  0.00000000000E+00  0.71536433005E+03  0.71536433005E+03  0.00000000000E+00 0. -1.
         21   -1    0    0  501  502  0.00000000000E+00 -0.00000000000E+00 -0.25440903864E+03  0.25440903864E+03  0.00000000000E+00 0.  1.
         24    2    1    2    0    0  0.86313666946E+02  0.10018977151E+03 -0.10794844650E+03  0.18692261929E+03  0.76152209965E+02 0.  0.
         23    2    1    2    0    0  0.27044345255E+02  0.61492111490E+02 -0.57176934710E+02  0.12288216386E+03  0.85546174349E+02 0.  0.
        -11    1    3    3    0    0  0.58644677985E+02  0.94374421305E+02 -0.11268874671E+03  0.15825448900E+03  0.00000000000E+00 0.  1.
         12    1    3    3    0    0  0.27668988961E+02  0.58153502078E+01  0.47403002133E+01  0.28668130289E+02  0.00000000000E+00 0. -1.
        -11    1    4    4    0    0 -0.19509583254E+02 -0.10842414522E+02 -0.16330352492E+02  0.27656142246E+02  0.00000000000E+00 0. -1.
         11    1    4    4    0    0  0.46553928509E+02  0.72334526013E+02 -0.40846582219E+02  0.95226021612E+02  0.00000000000E+00 0.  1.
         21    1    1    2  503  502 -0.18392406588E+02 -0.10143616683E+02  0.14895081588E+03  0.15042446321E+03  0.00000000000E+00 0. -1.
          1    1    1    2  501    0 -0.94965605613E+02 -0.15153826632E+03  0.47712985674E+03  0.50954412233E+03  0.00000000000E+00 0. -1.
<scales pt_clust_5="13000.00000" pt_clust_6="13000.00000" pt_clust_7="13000.00000" pt_clust_8="13000.00000" pt_clust_9="21.00413" pt_clust_10="195.05285"></scales>
<clustering>
<clus scale="   21.004">  1  9  2 -1</clus>
<clus scale="   76.152">  5  6 -1 -1</clus>
<clus scale="   85.546">  7  8 -1 -1</clus>
<clus scale="   88.222">  5  7 -1 -1</clus>
<clus scale="  195.053">  2 10  1 -1</clus>
<clus scale="  195.053">  2  5  1 -1</clus>
</clustering>
</event>
<event>
10    4  0.3738096E-005  0.3745306E+03  0.7546771E-02  0.1053169E+00
         21   -1    0    0  501  502  0.00000000000E+00  0.00000000000E+00  0.82537439293E+03  0.82537439293E+03  0.00000000000E+00 0. -1.
          2   -1    0    0  503    0 -0.00000000000E+00 -0.00000000000E+00 -0.81239751747E+03  0.81239751747E+03  0.00000000000E+00 0. -1.
         23    2    1    2    0    0 -0.30580543158E+03  0.18120652333E+03  0.50779800437E+02  0.37032332618E+03  0.90598077804E+02 0.  0.
         24    2    1    2    0    0  0.37690293215E+03 -0.23996089266E+03  0.47606838560E+03  0.65798580187E+03  0.81652663357E+02 0.  0.
        -13    1    4    4    0    0  0.12576620156E+03 -0.10779903886E+03  0.22270712106E+03  0.27755401637E+03  0.00000000000E+00 0.  1.
         14    1    4    4    0    0  0.25113673059E+03 -0.13216185380E+03  0.25336126454E+03  0.38043178550E+03  0.00000000000E+00 0. -1.
        -13    1    3    3    0    0 -0.23112969156E+02  0.49650374861E+02  0.12529068678E+02  0.56181372616E+02  0.00000000000E+00 0.  1.
         13    1    3    3    0    0 -0.28269246242E+03  0.13155614847E+03  0.38250731759E+02  0.31414195357E+03  0.00000000000E+00 0. -1.
         21    1    1    2  503  502  0.23813560149E+02 -0.67690893171E+02 -0.41895681122E+03  0.42505758707E+03  0.00000000000E+00 0. -1.
          1    1    1    2  501    0 -0.94911060722E+02  0.12644526250E+03 -0.94914499361E+02  0.18440519527E+03  0.00000000000E+00 0. -1.
<scales pt_clust_5="13000.00000" pt_clust_6="13000.00000" pt_clust_7="13000.00000" pt_clust_8="13000.00000" pt_clust_9="71.75753" pt_clust_10="133.84467"></scales>
<clustering>
<clus scale="   71.758">  2  9  1 -1</clus>
<clus scale="   81.653">  5  6 -1 -1</clus>
<clus scale="   90.598">  7  8 -1 -1</clus>
<clus scale="  133.845">  1 10  2 -1</clus>
<clus scale="  372.468">  1  5  2 -1</clus>
<clus scale="  133.845">  1  5  2 -1</clus>
</clustering>
</event>
<event>
10    4  0.4039534E-005  0.9633869E+02  0.7546771E-02  0.1290928E+00
          2   -1    0    0  503    0 -0.00000000000E+00  0.00000000000E+00  0.29099566601E+03  0.29099566601E+03  0.00000000000E+00 0. -1.
         21   -1    0    0  501  502  0.00000000000E+00 -0.00000000000E+00 -0.43757215521E+03  0.43757215521E+03  0.00000000000E+00 0. -1.
         23    2    1    2    0    0 -0.50453772671E+02 -0.28276567345E+02  0.15557112897E+03  0.18817007688E+03  0.88659202714E+02 0.  0.
         24    2    1    2    0    0 -0.39286447378E+02  0.56617734865E+02  0.53822205443E+02  0.12083282549E+03  0.83395138162E+02 0.  0.
        -13    1    4    4    0    0  0.25258642850E+02  0.18810239059E+02  0.26622903078E+02  0.41238369274E+02  0.00000000000E+00 0.  1.
         14    1    4    4    0    0 -0.64545090228E+02  0.37807495806E+02  0.27199302365E+02  0.79594456219E+02  0.00000000000E+00 0. -1.
        -13    1    3    3    0    0 -0.42628646131E+02 -0.56854849312E+00  0.15802803369E+02  0.45467057444E+02  0.00000000000E+00 0.  1.
         13    1    3    3    0    0 -0.78251265403E+01 -0.27708018852E+02  0.13976832560E+03  0.14270301944E+03  0.00000000000E+00 0. -1.
         21    1    1    2  503  502  0.28240939848E+02  0.66286618049E+01  0.21128719814E+02  0.35887499799E+02  0.00000000000E+00 0.  1.
          1    1    1    2  501    0  0.61499280201E+02 -0.34969829324E+02 -0.37709854343E+03  0.38367741905E+03  0.00000000000E+00 0. -1.
<scales pt_clust_5="13000.00000" pt_clust_6="13000.00000" pt_clust_7="13000.00000" pt_clust_8="13000.00000" pt_clust_9="29.00844" pt_clust_10="71.01340"></scales>
<clustering>
<clus scale="   29.008">  1  9  2 -1</clus>
<clus scale="   71.013">  2 10  1 -1</clus>
<clus scale="   83.395">  5  6 -1 -1</clus>
<clus scale="   88.659">  7  8 -1 -1</clus>
<clus scale="   91.517">  2  5  1 -1</clus>
<clus scale="   71.013">  2  5  1 -1</clus>
</clustering>
</event>
<event>
10    4  0.3738096E-005  0.9290146E+02  0.7546771E-02  0.1302234E+00
          2   -1    0    0  503    0 -0.00000000000E+00  0.00000000000E+00  0.29661717445E+03  0.29661717445E+03  0.00000000000E+00 0. -1.
         21   -1    0    0  501  502  0.00000000000E+00 -0.00000000000E+00 -0.12144278686E+03  0.12144278686E+03  0.00000000000E+00 0. -1.
         23    2    1    2    0    0  0.32064579684E+01  0.95167603225E+01  0.16047973480E+03  0.18481657379E+03  0.91118442511E+02 0.  0.
         24    2    1    2    0    0 -0.15342872275E+02  0.22340439656E+01 -0.49636766798E+01  0.82379735129E+02  0.80755111241E+02 0.  0.
        -11    1    4    4    0    0  0.24466881229E+02 -0.21374827761E+02  0.95679919160E+01  0.33868244835E+02  0.00000000000E+00 0.  1.
         12    1    4    4    0    0 -0.39809753504E+02  0.23608871727E+02 -0.14531668596E+02  0.48511490293E+02  0.00000000000E+00 0. -1.
        -13    1    3    3    0    0  0.65873999437E+01 -0.29728534972E+02  0.14706586789E+02  0.33815134550E+02  0.00000000000E+00 0.  1.
         13    1    3    3    0    0 -0.33809419753E+01  0.39245295295E+02  0.14577314801E+03  0.15100143924E+03  0.00000000000E+00 0. -1.
         21    1    1    2  503  502 -0.41589739217E+01  0.19730269023E+02  0.79113613361E+02  0.81642785345E+02  0.00000000000E+00 0. -1.
          1    1    1    2  501    0  0.16295388228E+02 -0.31481073311E+02 -0.59455283884E+02  0.69220867057E+02  0.00000000000E+00 0. -1.
<scales pt_clust_5="13000.00000" pt_clust_6="13000.00000" pt_clust_7="13000.00000" pt_clust_8="13000.00000" pt_clust_9="20.16384" pt_clust_10="35.00990"></scales>
<clustering>
<clus scale="   20.164">  1  9  2 -1</clus>
<clus scale="   35.010">  2 10  1 -1</clus>
<clus scale="   80.755">  5  6 -1 -1</clus>
<clus scale="   82.762">  2  5  1 -1</clus>
<clus scale="   91.118">  7  8 -1 -1</clus>
<clus scale="   35.010">  2  5  1 -1</clus>
</clustering>
</event>
<event>
10    4  0.3738096E-005  0.1389291E+03  0.7546771E-02  0.1217800E+00
         21   -1    0    0  501  502  0.00000000000E+00  0.00000000000E+00  0.32952031207E+02  0.32952031207E+02  0.00000000000E+00 0.  1.
          2   -1    0    0  503    0 -0.00000000000E+00 -0.00000000000E+00 -0.82693474164E+03  0.82693474164E+03  0.00000000000E+00 0. -1.
         24    2    1    2    0    0  0.10881445761E+03  0.45842532298E+02 -0.41480343720E+03  0.43888131877E+03  0.81319102891E+02 0.  0.
         23    2    1    2    0    0 -0.82767591576E+02 -0.20065613959E+02 -0.28002943406E+03  0.30756604083E+03  0.94484297370E+02 0.  0.
        -13    1    3    3    0    0 -0.10186676648E+01  0.32364728590E+02 -0.10693511477E+03  0.11173017547E+03  0.00000000000E+00 0.  1.
         14    1    3    3    0    0  0.10983312528E+03  0.13477803708E+02 -0.30786832244E+03  0.32715114330E+03  0.00000000000E+00 0. -1.
        -11    1    4    4    0    0 -0.46185801401E+02 -0.12728413559E+02 -0.26160316059E+03  0.26595366963E+03  0.00000000000E+00 0. -1.
         11    1    4    4    0    0 -0.36581790175E+02 -0.73372003997E+01 -0.18426273477E+02  0.41612371194E+02  0.00000000000E+00 0.  1.
         21    1    1    2  503  502  0.75966140181E+00 -0.25428960294E+02 -0.66458341866E+02  0.71161227580E+02  0.00000000000E+00 0. -1.
          1    1    1    2  501    0 -0.26806527438E+02 -0.34795804540E+00 -0.32691497307E+02  0.42278185679E+02  0.00000000000E+00 0. -1.
<scales pt_clust_5="13000.00000" pt_clust_6="13000.00000" pt_clust_7="13000.00000" pt_clust_8="13000.00000" pt_clust_9="25.44030" pt_clust_10="26.81706"></scales>
<clustering>
<clus scale="   25.440">  2  9  1 -1</clus>
<clus scale="   26.817">  1 10  2 -1</clus>
<clus scale="   81.319">  5  6 -1 -1</clus>
<clus scale="   94.484">  7  8 -1 -1</clus>
<clus scale="  130.333">  2  5  1 -1</clus>
<clus scale="   26.817">  1  5  2 -1</clus>
</clustering>
</event>
<event>
10    4  0.3738096E-005  0.1184504E+03  0.7546771E-02  0.1254400E+00
          2   -1    0    0  503    0 -0.00000000000E+00  0.00000000000E+00  0.95171790694E+03  0.95171790694E+03  0.00000000000E+00 0. -1.
         21   -1    0    0  501  502  0.00000000000E+00 -0.00000000000E+00 -0.25788759306E+03  0.25788759306E+03  0.00000000000E+00 0. -1.
         24    2    1    2    0    0 -0.64524231447E+02  0.13209657485E+02  0.53159741965E+03  0.54141715031E+03  0.78732728805E+02 0.  0.
         23    2    1    2    0    0 -0.22007716308E+02  0.59829448601E+02  0.22006290557E+03  0.24559090053E+03  0.88449451764E+02 0.  0.
        -11    1    3    3    0    0 -0.59113868200E+02 -0.20616357853E+02  0.24894629293E+03  0.25669776078E+03  0.00000000000E+00 0.  1.
         12    1    3    3    0    0 -0.54103632468E+01  0.33826015338E+02  0.28265112671E+03  0.28471938953E+03  0.00000000000E+00 0. -1.
        -13    1    4    4    0    0 -0.19807679801E+02 -0.41279459047E+01  0.44977768874E+01  0.20727134713E+02  0.00000000000E+00 0.  1.
         13    1    4    4    0    0 -0.22000365069E+01  0.63957394505E+02  0.21556512868E+03  0.22486376581E+03  0.00000000000E+00 0. -1.
         21    1    1    2  503  502  0.54764620464E+02 -0.75979030185E+02  0.16917021046E+03  0.19336632796E+03  0.00000000000E+00 0.  1.
          1    1    1    2  501    0  0.31767327291E+02  0.29399240989E+01 -0.22700022178E+03  0.22923112120E+03  0.00000000000E+00 0. -1.
<scales pt_clust_5="13000.00000" pt_clust_6="13000.00000" pt_clust_7="13000.00000" pt_clust_8="13000.00000" pt_clust_9="78.78570" pt_clust_10="31.90308"></scales>
<clustering>
<clus scale="   31.903">  2 10  1 -1</clus>
<clus scale="   78.733">  5  6 -1 -1</clus>
<clus scale="   88.449">  7  8 -1 -1</clus>
<clus scale="   99.504">  1  5  2 -1</clus>
<clus scale="   78.786">  1  9  2 -1</clus>
<clus scale="   31.903">  2  5  1 -1</clus>
</clustering>
</event>
<event>
10    4  0.3738096E-005  0.1039585E+03  0.7546771E-02  0.1275883E+00
         -1   -1    0    0    0  501 -0.00000000000E+00  0.00000000000E+00  0.32858586393E+03  0.32858586393E+03  0.00000000000E+00 0.  1.
         21   -1    0    0  503  502  0.00000000000E+00 -0.00000000000E+00 -0.11972797130E+03  0.11972797130E+03  0.00000000000E+00 0.  1.
         23    2    1    2    0    0  0.16977798572E+02 -0.21167416686E+02  0.21408711268E+03  0.23460488613E+03  0.92031818452E+02 0.  0.
         24    2    1    2    0    0 -0.64933496212E+02  0.24212472231E+01 -0.63422655664E+02  0.12362463256E+03  0.83895143813E+02 0.  0.
        -11    1    4    4    0    0 -0.72767633751E+02 -0.64666063538E+01 -0.76636085326E+02  0.10587745319E+03  0.00000000000E+00 0.  1.
         12    1    4    4    0    0  0.78341375391E+01  0.88878535769E+01  0.13213429662E+02  0.17747179371E+02  0.00000000000E+00 0. -1.
        -13    1    3    3    0    0  0.38758661619E+02  0.19464543393E+01  0.19209174784E+03  0.19597260555E+03  0.00000000000E+00 0.  1.
         13    1    3    3    0    0 -0.21780863047E+02 -0.23113871025E+02  0.21995364834E+02  0.38632280582E+02  0.00000000000E+00 0. -1.
         21    1    1    2  503  501  0.25085892098E+02 -0.14045771892E+02  0.25784921910E+02  0.38619268355E+02  0.00000000000E+00 0.  1.
         -2    1    1    2    0  502  0.22869805541E+02  0.32791941355E+02  0.32408513707E+02  0.51465048179E+02  0.00000000000E+00 0.  1.
<scales pt_clust_5="13000.00000" pt_clust_6="13000.00000" pt_clust_7="13000.00000" pt_clust_8="13000.00000" pt_clust_9="28.75040" pt_clust_10="40.58204"></scales>
<clustering>
<clus scale="   28.750">  1  9  2 -1</clus>
<clus scale="   40.582">  2 10  1 -1</clus>
<clus scale="   83.895">  5  6 -1 -1</clus>
<clus scale="   92.032">  7  8 -1 -1</clus>
<clus scale="   96.829">  2  5  1 -1</clus>
<clus scale="   40.582">  2  5  1 -1</clus>
</clustering>
</event>
<event>
10    4  0.3738096E-005  0.1150680E+03  0.7546771E-02  0.1254729E+00
         21   -1    0    0  501  502  0.00000000000E+00  0.00000000000E+00  0.83626099575E+02  0.83626099575E+02  0.00000000000E+00 0.  1.
          2   -1    0    0  503    0 -0.00000000000E+00 -0.00000000000E+00 -0.63099313397E+03  0.63099313397E+03  0.00000000000E+00 0. -1.
         23    2    1    2    0    0 -0.95736957407E+02 -0.49602862200E+02 -0.16867585631E+03  0.21959015189E+03  0.90234590674E+02 0.  0.
         24    2    1    2    0    0  0.49934015856E+02  0.44742217636E+02 -0.89597091045E+01  0.10538247132E+03  0.80807901201E+02 0.  0.
        -11    1    4    4    0    0  0.26310327559E+02  0.67337276735E+02 -0.70315004785E+01  0.72635970244E+02  0.00000000000E+00 0.  1.
         12    1    4    4    0    0  0.23623688297E+02 -0.22595059099E+02 -0.19282086260E+01  0.32746501079E+02  0.00000000000E+00 0. -1.
        -11    1    3    3    0    0 -0.10269015598E+03 -0.29904866054E+02 -0.16741376578E+03  0.19866287555E+03  0.00000000000E+00 0. -1.
         11    1    3    3    0    0  0.69531985746E+01 -0.19697996146E+02 -0.12620905303E+01  0.20927276342E+02  0.00000000000E+00 0.  1.
         21    1    1    2  503  502  0.45861848395E+02  0.45163133405E+02 -0.31595065364E+03  0.32244043371E+03  0.00000000000E+00 0.  1.
          1    1    1    2  501    0 -0.58906843786E-01 -0.40302488841E+02 -0.53780815341E+02  0.67206176617E+02  0.00000000000E+00 0. -1.
<scales pt_clust_5="13000.00000" pt_clust_6="13000.00000" pt_clust_7="13000.00000" pt_clust_8="13000.00000" pt_clust_9="63.18305" pt_clust_10="40.30255"></scales>
<clustering>
<clus scale="   40.303">  1 10  2 -1</clus>
<clus scale="   63.183">  2  9  1 -1</clus>
<clus scale="   80.808">  5  6 -1 -1</clus>
<clus scale="   90.235">  7  8 -1 -1</clus>
<clus scale="  107.834">  1  5  2 -1</clus>
<clus scale="   40.303">  1  5  2 -1</clus>
</clustering>
</event>
<event>
10    4  0.3738096E-005  0.1784877E+03  0.7546771E-02  0.1170528E+00
          2   -1    0    0  503    0 -0.00000000000E+00  0.00000000000E+00  0.10628214219E+04  0.10628214219E+04  0.00000000000E+00 0. -1.
         21   -1    0    0  501  502  0.00000000000E+00 -0.00000000000E+00 -0.66536357204E+02  0.66536357204E+02  0.00000000000E+00 0.  1.
         24    2    1    2    0    0 -0.16746996928E+03  0.11005246974E+03  0.66947918941E+03  0.70348368429E+03  0.80803293944E+02 0.  0.
         23    2    1    2    0    0  0.60723053248E+02 -0.68142762236E+02  0.12038083223E+03  0.17642866135E+03  0.91130689317E+02 0.  0.
        -13    1    3    3    0    0 -0.10760088203E+03  0.76602164220E+02  0.55079026747E+03  0.56640600289E+03  0.00000000000E+00 0.  1.
         14    1    3    3    0    0 -0.59869087242E+02  0.33450305517E+02  0.11868892194E+03  0.13707768140E+03  0.00000000000E+00 0. -1.
        -13    1    4    4    0    0  0.30217672104E+02  0.97271422429E+01  0.74629239585E+02  0.81100236773E+02  0.00000000000E+00 0. -1.
         13    1    4    4    0    0  0.30505381145E+02 -0.77869904479E+02  0.45751592647E+02  0.95328424576E+02  0.00000000000E+00 0.  1.
         21    1    1    2  503  502  0.31862607505E+02  0.15827414626E+02  0.10460808959E+03  0.11049246679E+03  0.00000000000E+00 0.  1.
          1    1    1    2  501    0  0.74884308522E+02 -0.57737122127E+02  0.10181695349E+03  0.13895296669E+03  0.00000000000E+00 0. -1.
<scales pt_clust_5="13000.00000" pt_clust_6="13000.00000" pt_clust_7="13000.00000" pt_clust_8="13000.00000" pt_clust_9="35.57714" pt_clust_10="96.60430"></scales>
<clustering>
<clus scale="   35.577">  1  9  2 -1</clus>
<clus scale="   80.803">  5  6 -1 -1</clus>
<clus scale="   91.131">  7  8 -1 -1</clus>
<clus scale="   96.604">  2 10  1 -1</clus>
<clus scale="  173.442">  1  5  2 -1</clus>
<clus scale="   96.604">  2  5  1 -1</clus>
</clustering>
</event>
<event>
10    4  0.3738096E-005  0.1211472E+03  0.7546771E-02  0.1244855E+00
          2   -1    0    0  503    0 -0.00000000000E+00  0.00000000000E+00  0.12905840526E+04  0.12905840526E+04  0.00000000000E+00 0. -1.
         21   -1    0    0  501  502  0.00000000000E+00 -0.00000000000E+00 -0.27711083766E+02  0.27711083766E+02  0.00000000000E+00 0. -1.
         24    2    1    2    0    0 -0.40082137880E+02  0.41412040869E+02  0.48056151995E+03  0.49049680914E+03  0.79537478077E+02 0.  0.
         23    2    1    2    0    0  0.11992867839E+03 -0.14664022785E+02  0.59117870178E+03  0.61026495604E+03  0.91286021249E+02 0.  0.
        -11    1    3    3    0    0 -0.43222138119E+02  0.20504743071E+02  0.11813006836E+03  0.12744924779E+03  0.00000000000E+00 0.  1.
         12    1    3    3    0    0  0.31400002387E+01  0.20907297798E+02  0.36243145159E+03  0.36304756135E+03  0.00000000000E+00 0. -1.
        -11    1    4    4    0    0  0.18439358708E+02 -0.40818541195E+02  0.13638484751E+03  0.14355134929E+03  0.00000000000E+00 0.  1.
         11    1    4    4    0    0  0.10148931968E+03  0.26154518409E+02  0.45479385427E+03  0.46671360675E+03  0.00000000000E+00 0. -1.
         21    1    1    2  503  502 -0.29533123108E+02 -0.25313161715E+02  0.14186339432E+03  0.14709923238E+03  0.00000000000E+00 0. -1.
          1    1    1    2  501    0 -0.50313417403E+02 -0.14348563693E+01  0.49269352751E+02  0.70434138769E+02  0.00000000000E+00 0. -1.
<scales pt_clust_5="13000.00000" pt_clust_6="13000.00000" pt_clust_7="13000.00000" pt_clust_8="13000.00000" pt_clust_9="38.89681" pt_clust_10="51.92892"></scales>
<clustering>
<clus scale="   38.897">  1  9  2 -1</clus>
<clus scale="   51.929">  2 10  1 -1</clus>
<clus scale="   79.537">  5  6 -1 -1</clus>
<clus scale="   91.286">  7  8 -1 -1</clus>
<clus scale="  112.560">  1  5  2 -1</clus>
<clus scale="   51.929">  2  5  1 -1</clus>
</clustering>
</event>
<event>
10    4  0.3738096E-005  0.1000336E+03  0.7546771E-02  0.1285118E+00
         21   -1    0    0  501  502  0.00000000000E+00  0.00000000000E+00  0.79891310276E+02  0.79891310276E+02  0.00000000000E+00 0.  1.
          2   -1    0    0  503    0 -0.00000000000E+00 -0.00000000000E+00 -0.56016711089E+03  0.56016711089E+03  0.00000000000E+00 0. -1.
         24    2    1    2    0    0  0.16105574390E+02  0.33210220389E+01 -0.10505976103E+03  0.13429150504E+03  0.82013634386E+02 0.  0.
         23    2    1    2    0    0 -0.38437228786E+02  0.70106755535E+02 -0.91639704515E+01  0.12204984935E+03  0.91759520727E+02 0.  0.
        -13    1    3    3    0    0  0.27466552117E+02 -0.39826474230E+01  0.61158482251E+00  0.27760529564E+02  0.00000000000E+00 0.  1.
         14    1    3    3    0    0 -0.11360977726E+02  0.73036694619E+01 -0.10567134585E+03  0.10653097548E+03  0.00000000000E+00 0. -1.
        -11    1    4    4    0    0 -0.38766331759E+02 -0.10234903959E+02  0.52102753703E+01  0.40431778424E+02  0.00000000000E+00 0.  1.
         11    1    4    4    0    0  0.32910297310E+00  0.80341659494E+02 -0.14374245822E+02  0.81618070928E+02  0.00000000000E+00 0. -1.
         21    1    1    2  503  502  0.48158768075E+02 -0.49944871411E+02 -0.15529852973E+03  0.17009229982E+03  0.00000000000E+00 0.  1.
          1    1    1    2  501    0 -0.25827113679E+02 -0.23482906163E+02 -0.21075353941E+03  0.21362476696E+03  0.00000000000E+00 0. -1.
<scales pt_clust_5="13000.00000" pt_clust_6="13000.00000" pt_clust_7="13000.00000" pt_clust_8="13000.00000" pt_clust_9="69.36288" pt_clust_10="34.90685"></scales>
<clustering>
<clus scale="   34.907">  1 10  2 -1</clus>
<clus scale="   69.363">  2  9  1 -1</clus>
<clus scale="   82.014">  5  6 -1 -1</clus>
<clus scale="   91.176">  2  5  1 -1</clus>
<clus scale="   91.760">  7  8 -1 -1</clus>
<clus scale="   34.907">  1  5  2 -1</clus>
</clustering>
</event>
<event>
10    4  0.3738096E-005  0.3218190E+03  0.7546771E-02  0.1088551E+00
         21   -1    0    0  501  502  0.00000000000E+00  0.00000000000E+00  0.45946129339E+03  0.45946129339E+03  0.00000000000E+00 0. -1.
          2   -1    0    0  503    0 -0.00000000000E+00 -0.00000000000E+00 -0.67074418000E+03  0.67074418000E+03  0.00000000000E+00 0. -1.
         24    2    1    2    0    0  0.57961297659E+02 -0.19090524025E+03 -0.12419887016E+03  0.24954364540E+03  0.83918703705E+02 0.  0.
         23    2    1    2    0    0 -0.28728485242E+03  0.76601095209E+02  0.87935071277E+02  0.32277885068E+03  0.89740155277E+02 0.  0.
        -13    1    3    3    0    0  0.21848296218E+02 -0.11427426379E+03 -0.11623153333E+03  0.16445584438E+03  0.00000000000E+00 0.  1.
         14    1    3    3    0    0  0.36113001441E+02 -0.76630976463E+02 -0.79673368328E+01  0.85087801024E+02  0.00000000000E+00 0. -1.
        -11    1    4    4    0    0 -0.11164963508E+03  0.61111491287E+02  0.70760912451E+02  0.14562747719E+03  0.00000000000E+00 0.  1.
         11    1    4    4    0    0 -0.17563521734E+03  0.15489603922E+02  0.17174158826E+02  0.17715137349E+03  0.00000000000E+00 0. -1.
         21    1    1    2  503  502 -0.12954430459E+03 -0.44857965695E+02 -0.48592490604E+02  0.14544825225E+03  0.00000000000E+00 0. -1.
          1    1    1    2  501    0  0.35886785936E+03  0.15916211074E+03 -0.12642659712E+03  0.41243472506E+03  0.00000000000E+00 0. -1.
<scales pt_clust_5="13000.00000" pt_clust_6="13000.00000" pt_clust_7="13000.00000" pt_clust_8="13000.00000" pt_clust_9="137.09108" pt_clust_10="309.05379"></scales>
<clustering>
<clus scale="   83.919">  5  6 -1 -1</clus>
<clus scale="   89.740">  7  8 -1 -1</clus>
<clus scale="  137.091">  2  9  1 -1</clus>
<clus scale="  222.549">  2  5  1 -1</clus>
<clus scale="  309.054">  1 10  2 -1</clus>
<clus scale="  309.054">  1  5  2 -1</clus>
</clustering>
</event>
<event>
10    4  0.3738096E-005  0.1008946E+03  0.7546771E-02  0.1284164E+00
          2   -1    0    0  503    0 -0.00000000000E+00  0.00000000000E+00  0.38541608253E+03  0.38541608253E+03  0.00000000000E+00 0. -1.
         21   -1    0    0  501  502  0.00000000000E+00 -0.00000000000E+00 -0.23681144368E+03  0.23681144368E+03  0.00000000000E+00 0. -1.
         24    2    1    2    0    0  0.76231374261E+01 -0.56248927903E+02  0.28836108877E+03  0.30508285364E+03  0.81861932289E+02 0.  0.
         23    2    1    2    0    0 -0.11691904073E+02 -0.47259425264E+00  0.29467474733E+02  0.98488728516E+02  0.93245769938E+02 0.  0.
        -11    1    3    3    0    0  0.17756973073E+02 -0.24563485152E+02  0.24065054840E+02  0.38701443900E+02  0.00000000000E+00 0.  1.
         12    1    3    3    0    0 -0.10133835647E+02 -0.31685442751E+02  0.26429603393E+03  0.26638140974E+03  0.00000000000E+00 0. -1.
        -11    1    4    4    0    0  0.32719691506E+02 -0.17374261767E+02  0.34602643271E+02  0.50693057765E+02  0.00000000000E+00 0.  1.
         11    1    4    4    0    0 -0.44411595579E+02  0.16901667515E+02 -0.51351685379E+01  0.47795670751E+02  0.00000000000E+00 0. -1.
         21    1    1    2  503  502 -0.27203054263E+02  0.21461237766E+01  0.97293656389E+01  0.28970201315E+02  0.00000000000E+00 0. -1.
          1    1    1    2  501    0  0.31271820910E+02  0.54575398379E+02 -0.17895329029E+03  0.18968574274E+03  0.00000000000E+00 0. -1.
<scales pt_clust_5="13000.00000" pt_clust_6="13000.00000" pt_clust_7="13000.00000" pt_clust_8="13000.00000" pt_clust_9="27.28758" pt_clust_10="62.73001"></scales>
<clustering>
<clus scale="   27.288">  1  9  2 -1</clus>
<clus scale="   62.730">  2 10  1 -1</clus>
<clus scale="   81.862">  5  6 -1 -1</clus>
<clus scale="   90.478">  1  5  2 -1</clus>
<clus scale="   93.246">  7  8 -1 -1</clus>
<clus scale="   62.730">  2  5  1 -1</clus>
</clustering>
</event>
<event>
10    4  0.3738096E-005  0.8958884E+02  0.7546771E-02  0.1309199E+00
          2   -1    0    0  503    0 -0.00000000000E+00  0.00000000000E+00  0.65707577025E+03  0.65707577025E+03  0.00000000000E+00 0. -1.
         21   -1    0    0  501  502  0.00000000000E+00 -0.00000000000E+00 -0.60961339827E+02  0.60961339827E+02  0.00000000000E+00 0. -1.
         24    2    1    2    0    0 -0.42234904479E+01 -0.37838174321E+02  0.43534511735E+03  0.44439109433E+03  0.80675325954E+02 0.  0.
         23    2    1    2    0    0 -0.24988716370E+02 -0.74178572453E+01  0.72246747265E+02  0.11760458369E+03  0.89060569635E+02 0.  0.
        -11    1    3    3    0    0  0.24016940965E+02 -0.40215471319E+02  0.13871468582E+03  0.14640990967E+03  0.00000000000E+00 0.  1.
         12    1    3    3    0    0 -0.28240431412E+02  0.23772969980E+01  0.29663043152E+03  0.29798118466E+03  0.00000000000E+00 0. -1.
        -11    1    4    4    0    0 -0.48317353926E+02 -0.17433500034E+02  0.76214801909E+02  0.91908593961E+02  0.00000000000E+00 0. -1.
         11    1    4    4    0    0  0.23328637556E+02  0.10015642789E+02 -0.39680546443E+01  0.25695989733E+02  0.00000000000E+00 0.  1.
         21    1    1    2  503  502 -0.10470262813E+02  0.32587841341E+02  0.10560932714E+03  0.11101767330E+03  0.00000000000E+00 0. -1.
          1    1    1    2  501    0  0.39682469631E+02  0.12668190225E+02 -0.17086761323E+02  0.45023758751E+02  0.00000000000E+00 0. -1.
<scales pt_clust_5="13000.00000" pt_clust_6="13000.00000" pt_clust_7="13000.00000" pt_clust_8="13000.00000" pt_clust_9="34.22855" pt_clust_10="41.66300"></scales>
<clustering>
<clus scale="   34.229">  1  9  2 -1</clus>
<clus scale="   41.663">  2 10  1 -1</clus>
<clus scale="   80.675">  5  6 -1 -1</clus>
<clus scale="   81.258">  1  5  2 -1</clus>
<clus scale="   89.061">  7  8 -1 -1</clus>
<clus scale="   41.663">  2  5  1 -1</clus>
</clustering>
</event>
<event>
10    4  0.3738096E-005  0.2478941E+03  0.7546771E-02  0.1115213E+00
         21   -1    0    0  501  502  0.00000000000E+00  0.00000000000E+00  0.65645882152E+02  0.65645882152E+02  0.00000000000E+00 0. -1.
          2   -1    0    0  503    0 -0.00000000000E+00 -0.00000000000E+00 -0.14891048703E+04  0.14891048703E+04  0.00000000000E+00 0. -1.
         24    2    1    2    0    0  0.20934202065E+03  0.13228995775E+03 -0.67120055756E+03  0.72012426500E+03  0.82122189652E+02 0.  0.
         23    2    1    2    0    0 -0.14846677207E+03 -0.14075489848E+03 -0.32766591724E+03  0.39712316118E+03  0.92127780671E+02 0.  0.
        -11    1    3    3    0    0  0.79668625308E+02  0.83463898705E+01 -0.24322856566E+03  0.25607984543E+03  0.00000000000E+00 0.  1.
         12    1    3    3    0    0  0.12967339534E+03  0.12394356788E+03 -0.42797199190E+03  0.46404441956E+03  0.00000000000E+00 0. -1.
        -13    1    4    4    0    0 -0.72602849706E+02 -0.16877703266E+02 -0.15108120789E+03  0.16846828197E+03  0.00000000000E+00 0.  1.
         13    1    4    4    0    0 -0.75863922367E+02 -0.12387719521E+03 -0.17658470934E+03  0.22865487920E+03  0.00000000000E+00 0. -1.
         21    1    1    2  503  502  0.19645545203E+02 -0.62993638718E+01 -0.13481484262E+03  0.13638427777E+03  0.00000000000E+00 0.  1.
          1    1    1    2  501    0 -0.80520793783E+02  0.14764304601E+02 -0.28977767071E+03  0.30111904849E+03  0.00000000000E+00 0. -1.
<scales pt_clust_5="13000.00000" pt_clust_6="13000.00000" pt_clust_7="13000.00000" pt_clust_8="13000.00000" pt_clust_9="20.63079" pt_clust_10="77.39942"></scales>
<clustering>
<clus scale="   20.631">  2  9  1 -1</clus>
<clus scale="   77.399">  1 10  2 -1</clus>
<clus scale="   82.122">  5  6 -1 -1</clus>
<clus scale="   92.128">  7  8 -1 -1</clus>
<clus scale="  244.352">  2  5  1 -1</clus>
<clus scale="   77.399">  1  5  2 -1</clus>
</clustering>
</event>
<event>
10    4  0.3738096E-005  0.1960113E+03  0.7546771E-02  0.1189634E+00
         21   -1    0    0  501  502  0.00000000000E+00  0.00000000000E+00  0.10512613909E+03  0.10512613909E+03  0.00000000000E+00 0. -1.
          2   -1    0    0  503    0 -0.00000000000E+00 -0.00000000000E+00 -0.79589405635E+03  0.79589405635E+03  0.00000000000E+00 0. -1.
         24    2    1    2    0    0  0.20589320371E+02  0.86858132665E+01 -0.14258221339E+03  0.16563719648E+03  0.81281177499E+02 0.  0.
         23    2    1    2    0    0  0.14590602333E+03  0.78781436655E+02 -0.12994459161E+03  0.23131071859E+03  0.95519470475E+02 0.  0.
        -13    1    3    3    0    0  0.13344791802E+02  0.44458729493E+02 -0.94361092629E+02  0.10516024866E+03  0.00000000000E+00 0.  1.
         14    1    3    3    0    0  0.72445285690E+01 -0.35772916226E+02 -0.48221120765E+02  0.60476947817E+02  0.00000000000E+00 0. -1.
        -11    1    4    4    0    0  0.53675773996E+02  0.30019733823E+02  0.38833261163E+01  0.61622669161E+02  0.00000000000E+00 0.  1.
         11    1    4    4    0    0  0.92230249333E+02  0.48761702832E+02 -0.13382791773E+03  0.16968804943E+03  0.00000000000E+00 0. -1.
         21    1    1    2  503  502 -0.51677305650E+02  0.60514429912E+02 -0.20690918860E+03  0.22168435325E+03  0.00000000000E+00 0. -1.
          1    1    1    2  501    0 -0.11481803805E+03 -0.14798167983E+03 -0.21133192365E+03  0.28238792712E+03  0.00000000000E+00 0. -1.
<scales pt_clust_5="13000.00000" pt_clust_6="13000.00000" pt_clust_7="13000.00000" pt_clust_8="13000.00000" pt_clust_9="79.57726" pt_clust_10="171.16217"></scales>
<clustering>
<clus scale="   79.577">  2  9  1 -1</clus>
<clus scale="   81.281">  5  6 -1 -1</clus>
<clus scale="   85.237">  2  5  1 -1</clus>
<clus scale="   95.519">  7  8 -1 -1</clus>
<clus scale="  171.162">  1 10  2 -1</clus>
<clus scale="  171.162">  1  5  2 -1</clus>
</clustering>
</event>
<event>
10    4  0.3738096E-005  0.1387764E+03  0.7546771E-02  0.1216958E+00
          4   -1    0    0  503    0 -0.00000000000E+00  0.00000000000E+00  0.72385065628E+02  0.72385065628E+02  0.00000000000E+00 0. -1.
         21   -1    0    0  501  502  0.00000000000E+00 -0.00000000000E+00 -0.41547056861E+03  0.41547056861E+03  0.00000000000E+00 0.  1.
         24    2    1    2    0    0  0.90309658894E+02 -0.13655658515E+02 -0.10970605575E+03  0.16359291819E+03  0.79905648842E+02 0.  0.
         23    2    1    2    0    0 -0.12346877735E+03 -0.70457326438E+01 -0.19974786564E+03  0.25123658288E+03  0.89030497151E+02 0.  0.
        -11    1    3    3    0    0  0.93347139452E+02 -0.33121941480E+02 -0.77194605097E+02  0.12557769908E+03  0.00000000000E+00 0.  1.
         12    1    3    3    0    0 -0.30374805578E+01  0.19466282965E+02 -0.32511450651E+02  0.38015219111E+02  0.00000000000E+00 0. -1.
        -11    1    4    4    0    0 -0.83253322021E+02 -0.47074363231E+02 -0.12487051099E+03  0.15728876570E+03  0.00000000000E+00 0.  1.
         11    1    4    4    0    0 -0.40215455329E+02  0.40028630587E+02 -0.74877354648E+02  0.93947817181E+02  0.00000000000E+00 0. -1.
         21    1    1    2  503  502  0.23091949319E+02 -0.12634069664E+02 -0.27188765626E+01  0.26462239690E+02  0.00000000000E+00 0. -1.
          3    1    1    2  501    0  0.10067169137E+02  0.33335460822E+02 -0.30912705040E+02  0.46563893475E+02  0.00000000000E+00 0. -1.
<scales pt_clust_5="13000.00000" pt_clust_6="13000.00000" pt_clust_7="13000.00000" pt_clust_8="13000.00000" pt_clust_9="26.32219" pt_clust_10="34.28390"></scales>
<clustering>
<clus scale="   26.322">  1  9  2 -1</clus>
<clus scale="   34.284">  2 10  1 -1</clus>
<clus scale="   79.906">  5  6 -1 -1</clus>
<clus scale="   89.030">  7  8 -1 -1</clus>
<clus scale="  133.107">  1  5  2 -1</clus>
<clus scale="   34.284">  2  5  1 -1</clus>
</clustering>
</event>
<event>
10    4  0.3738096E-005  0.1160033E+03  0.7546771E-02  0.1253645E+00
         21   -1    0    0  501  502  0.00000000000E+00  0.00000000000E+00  0.32689932267E+02  0.32689932267E+02  0.00000000000E+00 0.  1.
          2   -1    0    0  503    0 -0.00000000000E+00 -0.00000000000E+00 -0.90306257541E+03  0.90306257541E+03  0.00000000000E+00 0. -1.
         24    2    1    2    0    0  0.72426563622E+02 -0.55786388358E+02 -0.32943648357E+03  0.35114136775E+03  0.80088296240E+02 0.  0.
         23    2    1    2    0    0 -0.50132964844E+02  0.11722120634E+01 -0.16836022254E+03  0.19790594639E+03  0.91142256051E+02 0.  0.
        -13    1    3    3    0    0  0.53776107941E+02 -0.42669592653E+02 -0.10436847116E+03  0.12492134203E+03  0.00000000000E+00 0.  1.
         14    1    3    3    0    0  0.18650455681E+02 -0.13116795706E+02 -0.22506801241E+03  0.22622002572E+03  0.00000000000E+00 0. -1.
        -11    1    4    4    0    0 -0.67049650018E+01  0.38169009108E+02 -0.32586056492E+02  0.50632804482E+02  0.00000000000E+00 0. -1.
         11    1    4    4    0    0 -0.43427999842E+02 -0.36996797045E+02 -0.13577416605E+03  0.14727314191E+03  0.00000000000E+00 0.  1.
         21    1    1    2  503  502  0.31618474255E+02  0.15169856489E+02 -0.96886584245E+02  0.10303816122E+03  0.00000000000E+00 0. -1.
          1    1    1    2  501    0 -0.53912073033E+02  0.39444319806E+02 -0.27568935279E+03  0.28366703232E+03  0.00000000000E+00 0. -1.
<scales pt_clust_5="13000.00000" pt_clust_6="13000.00000" pt_clust_7="13000.00000" pt_clust_8="13000.00000" pt_clust_9="35.06925" pt_clust_10="61.97597"></scales>
<clustering>
<clus scale="   35.069">  2  9  1 -1</clus>
<clus scale="   61.976">  1 10  2 -1</clus>
<clus scale="   80.088">  5  6 -1 -1</clus>
<clus scale="   91.142">  7  8 -1 -1</clus>
<clus scale="  107.536">  2  5  1 -1</clus>
<clus scale="   61.976">  1  5  2 -1</clus>
</clustering>
</event>
<event>
10    4  0.3738096E-005  0.1021664E+03  0.7546771E-02  0.1282088E+00
         21   -1    0    0  501  502  0.00000000000E+00  0.00000000000E+00  0.36770676262E+02  0.36770676262E+02  0.00000000000E+00 0. -1.
          2   -1    0    0  503    0 -0.00000000000E+00 -0.00000000000E+00 -0.12717560392E+04  0.12717560392E+04  0.00000000000E+00 0. -1.
         24    2    1    2    0    0  0.47304841919E+02  0.30955002621E+02 -0.32604221198E+03  0.34049327948E+03  0.80225863181E+02 0.  0.
         23    2    1    2    0    0  0.86651732812E+01  0.16246831797E+02 -0.68264663567E+02  0.11686976964E+03  0.93056079819E+02 0.  0.
        -13    1    3    3    0    0  0.14207586694E+02  0.47951324717E+02 -0.25931981206E+03  0.26409837181E+03  0.00000000000E+00 0.  1.
         14    1    3    3    0    0  0.33097255225E+02 -0.16996322096E+02 -0.66722399917E+02  0.76394907677E+02  0.00000000000E+00 0. -1.
        -13    1    4    4    0    0 -0.16805580095E+02  0.17167703795E+02  0.15980424404E+02  0.28853622650E+02  0.00000000000E+00 0. -1.
         13    1    4    4    0    0  0.25470753376E+02 -0.92087199774E+00 -0.84245087971E+02  0.88016146985E+02  0.00000000000E+00 0.  1.
         21    1    1    2  503  502  0.28467306440E+02 -0.10855213634E+02 -0.93195378356E+02  0.98048976262E+02  0.00000000000E+00 0.  1.
          1    1    1    2  501    0 -0.84437321640E+02 -0.36346620784E+02 -0.74748310901E+03  0.75311469006E+03  0.00000000000E+00 0. -1.
<scales pt_clust_5="13000.00000" pt_clust_6="13000.00000" pt_clust_7="13000.00000" pt_clust_8="13000.00000" pt_clust_9="30.46676" pt_clust_10="79.15221"></scales>
<clustering>
<clus scale="   30.467">  2  9  1 -1</clus>
<clus scale="   79.152">  1 10  2 -1</clus>
<clus scale="   80.226">  5  6 -1 -1</clus>
<clus scale="   90.635">  2  5  1 -1</clus>
<clus scale="   93.056">  7  8 -1 -1</clus>
<clus scale="   79.152">  1  5  2 -1</clus>
</clustering>
</event>
<event>
10    4  0.3738096E-005  0.9486425E+02  0.7546771E-02  0.1297432E+00
         21   -1    0    0  501  502  0.00000000000E+00  0.00000000000E+00  0.55737568795E+02  0.55737568795E+02  0.00000000000E+00 0.  1.
          4   -1    0    0  503    0 -0.00000000000E+00 -0.00000000000E+00 -0.51175442963E+03  0.51175442963E+03  0.00000000000E+00 0. -1.
         23    2    1    2    0    0  0.15073225840E+02  0.61475454558E+02 -0.11351755657E+03  0.15820995303E+03  0.90209311809E+02 0.  0.
         24    2    1    2    0    0 -0.25903473531E+02  0.18922586631E+02 -0.57023061065E+02  0.10311058712E+03  0.79693848302E+02 0.  0.
        -13    1    4    4    0    0 -0.24413658976E+02  0.44175203593E+01  0.15422003340E+02  0.29212658519E+02  0.00000000000E+00 0.  1.
         14    1    4    4    0    0 -0.14898145551E+01  0.14505066272E+02 -0.72445064405E+02  0.73897928602E+02  0.00000000000E+00 0. -1.
        -11    1    3    3    0    0 -0.36803457456E+02  0.15902669973E+02 -0.52532656408E+02  0.66083805749E+02  0.00000000000E+00 0.  1.
         11    1    3    3    0    0  0.51876683297E+02  0.45572784585E+02 -0.60984900166E+02  0.92126147282E+02  0.00000000000E+00 0. -1.
         21    1    1    2  503  502 -0.22598243983E+02 -0.26006851929E-01 -0.77126540530E+02  0.80369052263E+02  0.00000000000E+00 0.  1.
          3    1    1    2  501    0  0.33428491673E+02 -0.80372034338E+02 -0.20834970266E+03  0.22580240601E+03  0.00000000000E+00 0. -1.
<scales pt_clust_5="13000.00000" pt_clust_6="13000.00000" pt_clust_7="13000.00000" pt_clust_8="13000.00000" pt_clust_9="22.59826" pt_clust_10="83.36758"></scales>
<clustering>
<clus scale="   22.598">  2  9  1 -1</clus>
<clus scale="   79.694">  5  6 -1 -1</clus>
<clus scale="   83.368">  1 10  2 -1</clus>
<clus scale="   84.927">  1  5  2 -1</clus>
<clus scale="   90.209">  7  8 -1 -1</clus>
<clus scale="   83.368">  1  5  2 -1</clus>
</clustering>
</event>
<event>
10    4  0.3738096E-005  0.1436334E+03  0.7546771E-02  0.1211093E+00
          2   -1    0    0  503    0 -0.00000000000E+00  0.00000000000E+00  0.66063326062E+03  0.66063326062E+03  0.00000000000E+00 0. -1.
         21   -1    0    0  501  502  0.00000000000E+00 -0.00000000000E+00 -0.13572561337E+03  0.13572561337E+03  0.00000000000E+00 0.  1.
         23    2    1    2    0    0 -0.50726563978E+02 -0.34858649787E+02  0.29944594928E+03  0.31945891917E+03  0.92724402072E+02 0.  0.
         24    2    1    2    0    0  0.10404122700E+03  0.17662195230E+03  0.12331135750E+03  0.25234341149E+03  0.80321948978E+02 0.  0.
        -11    1    4    4    0    0  0.76346492704E+01  0.90453629689E+02  0.47430478439E+02  0.10241971138E+03  0.00000000000E+00 0.  1.
         12    1    4    4    0    0  0.96406577725E+02  0.86168322609E+02  0.75880879063E+02  0.14992370012E+03  0.00000000000E+00 0. -1.
        -13    1    3    3    0    0  0.18239147122E+02 -0.25801339239E+02  0.40693560601E+02  0.51520301519E+02  0.00000000000E+00 0.  1.
         13    1    3    3    0    0 -0.68965711100E+02 -0.90573105482E+01  0.25875238868E+03  0.26793861765E+03  0.00000000000E+00 0. -1.
         21    1    1    2  503  502 -0.15653037347E+02 -0.48144485825E+02  0.11225406224E+03  0.12314172154E+03  0.00000000000E+00 0.  1.
          1    1    1    2  501    0 -0.37661625671E+02 -0.93618816686E+02 -0.10103721774E+02  0.10141482179E+03  0.00000000000E+00 0. -1.
<scales pt_clust_5="13000.00000" pt_clust_6="13000.00000" pt_clust_7="13000.00000" pt_clust_8="13000.00000" pt_clust_9="50.62518" pt_clust_10="105.15787"></scales>
<clustering>
<clus scale="   50.625">  1  9  2 -1</clus>
<clus scale="   80.322">  5  6 -1 -1</clus>
<clus scale="   92.724">  7  8 -1 -1</clus>
<clus scale="  105.158">  2 10  1 -1</clus>
<clus scale="  135.957">  2  5  1 -1</clus>
<clus scale="  105.158">  2  5  1 -1</clus>
</clustering>
</event>
<event>
10    4  0.3738096E-005  0.1059627E+03  0.7546771E-02  0.1272534E+00
         -1   -1    0    0    0  501 -0.00000000000E+00  0.00000000000E+00  0.41853980140E+03  0.41853980140E+03  0.00000000000E+00 0.  1.
         21   -1    0    0  503  502  0.00000000000E+00 -0.00000000000E+00 -0.15978021106E+03  0.15978021106E+03  0.00000000000E+00 0.  1.
         23    2    1    2    0    0  0.32515757685E+02  0.45245488136E+01  0.24621098191E+03  0.26485638794E+03  0.91931020755E+02 0.  0.
         24    2    1    2    0    0  0.50997605121E+01 -0.66136891076E+02 -0.11066234201E+03  0.15290017902E+03  0.82050075481E+02 0.  0.
        -11    1    4    4    0    0  0.36800603834E+02 -0.58248767550E+02 -0.54178425770E+02  0.87649901212E+02  0.00000000000E+00 0.  1.
         12    1    4    4    0    0 -0.31700843322E+02 -0.78881235267E+01 -0.56483916237E+02  0.65250277805E+02  0.00000000000E+00 0. -1.
        -13    1    3    3    0    0  0.83821489026E+01  0.46046442743E+02  0.15302695592E+03  0.16002432487E+03  0.00000000000E+00 0.  1.
         13    1    3    3    0    0  0.24133608782E+02 -0.41521893929E+02  0.93184025987E+02  0.10483206307E+03  0.00000000000E+00 0. -1.
         21    1    1    2  503  501  0.38667557226E+01  0.51988521047E+02  0.35529244230E+02  0.63087917354E+02  0.00000000000E+00 0.  1.
         -2    1    1    2    0  502 -0.41482273919E+02  0.96238212157E+01  0.87681706212E+02  0.97475528152E+02  0.00000000000E+00 0.  1.
<scales pt_clust_5="13000.00000" pt_clust_6="13000.00000" pt_clust_7="13000.00000" pt_clust_8="13000.00000" pt_clust_9="52.84501" pt_clust_10="42.58402"></scales>
<clustering>
<clus scale="   42.584">  2 10  1 -1</clus>
<clus scale="   52.845">  1  9  2 -1</clus>
<clus scale="   82.050">  5  6 -1 -1</clus>
<clus scale="   91.931">  7  8 -1 -1</clus>
<clus scale="   97.514">  2  5  1 -1</clus>
<clus scale="   42.584">  2  5  1 -1</clus>
</clustering>
</event>
<event>
10    4  0.3738096E-005  0.1661430E+03  0.7546771E-02  0.1182422E+00
         21   -1    0    0  501  502  0.00000000000E+00  0.00000000000E+00  0.13778965644E+03  0.13778965644E+03  0.00000000000E+00 0.  1.
          2   -1    0    0  503    0 -0.00000000000E+00 -0.00000000000E+00 -0.79158478449E+03  0.79158478449E+03  0.00000000000E+00 0. -1.
         23    2    1    2    0    0 -0.10977136611E+03  0.11099879105E+03 -0.51241864609E+03  0.54215031721E+03  0.83568015169E+02 0.  0.
         24    2    1    2    0    0  0.82876137115E+02 -0.12384990628E+03  0.79091497744E+00  0.16908741835E+03  0.79891652308E+02 0.  0.
        -13    1    4    4    0    0  0.97694983299E+02 -0.10950052644E+03 -0.73029764121E+01  0.14692858305E+03  0.00000000000E+00 0.  1.
         14    1    4    4    0    0 -0.14818846184E+02 -0.14349379847E+02  0.80938913895E+01  0.22158835304E+02  0.00000000000E+00 0. -1.
        -13    1    3    3    0    0 -0.29707033185E+02  0.33413303278E+02 -0.52721575759E+02  0.69126848671E+02  0.00000000000E+00 0.  1.
         13    1    3    3    0    0 -0.80064332924E+02  0.77585487776E+02 -0.45969707033E+03  0.47302346854E+03  0.00000000000E+00 0. -1.
         21    1    1    2  503  502 -0.22865172167E+01 -0.25154150859E+02 -0.16367671430E+03  0.16561408838E+03  0.00000000000E+00 0.  1.
          1    1    1    2  501    0  0.29181746211E+02  0.38005266088E+02  0.21509317361E+02  0.52522616992E+02  0.00000000000E+00 0. -1.
<scales pt_clust_5="13000.00000" pt_clust_6="13000.00000" pt_clust_7="13000.00000" pt_clust_8="13000.00000" pt_clust_9="25.25786" pt_clust_10="47.38959"></scales>
<clustering>
<clus scale="   25.258">  2  9  1 -1</clus>
<clus scale="   47.390">  1 10  2 -1</clus>
<clus scale="   79.892">  5  6 -1 -1</clus>
<clus scale="   83.568">  7  8 -1 -1</clus>
<clus scale="  164.325">  1  5  2 -1</clus>
<clus scale="   47.390">  1  5  2 -1</clus>
</clustering>
</event>
<event>
10    4  0.3738096E-005  0.9702657E+02  0.7546771E-02  0.1292469E+00
         21   -1    0    0  501  502  0.00000000000E+00  0.00000000000E+00  0.25165657776E+03  0.25165657776E+03  0.00000000000E+00 0. -1.
          2   -1    0    0  503    0 -0.00000000000E+00 -0.00000000000E+00 -0.58635647122E+03  0.58635647122E+03  0.00000000000E+00 0. -1.
         24    2    1    2    0    0 -0.54647106394E+02  0.28736455037E+02 -0.51294621061E+03  0.52282535192E+03  0.80127670328E+02 0.  0.
         23    2    1    2    0    0  0.20279276077E+02 -0.34553153335E+02  0.65589730917E+02  0.11901718357E+03  0.90873030875E+02 0.  0.
        -11    1    3    3    0    0  0.42360281248E+01  0.32652582378E+02 -0.91025645015E+02  0.96797743365E+02  0.00000000000E+00 0.  1.
         12    1    3    3    0    0 -0.58883134519E+02 -0.39161273407E+01 -0.42192056559E+03  0.42602760856E+03  0.00000000000E+00 0. -1.
        -11    1    4    4    0    0  0.52314734873E+02 -0.29610315915E+02  0.20555828457E+02  0.63530656985E+02  0.00000000000E+00 0. -1.
         11    1    4    4    0    0 -0.32035458796E+02 -0.49428374200E+01  0.45033902459E+02  0.55486526588E+02  0.00000000000E+00 0.  1.
         21    1    1    2  503  502  0.25601153873E+02 -0.14447423296E+02 -0.35662837202E+02  0.46216718585E+02  0.00000000000E+00 0.  1.
          1    1    1    2  501    0  0.87666764451E+01  0.20264121593E+02  0.14831942343E+03  0.14995379491E+03  0.00000000000E+00 0. -1.
<scales pt_clust_5="13000.00000" pt_clust_6="13000.00000" pt_clust_7="13000.00000" pt_clust_8="13000.00000" pt_clust_9="29.29855" pt_clust_10="22.07916"></scales>
<clustering>
<clus scale="   22.079">  1 10  2 -1</clus>
<clus scale="   29.299">  2  9  1 -1</clus>
<clus scale="   80.128">  5  6 -1 -1</clus>
<clus scale="   87.044">  2  5  1 -1</clus>
<clus scale="   90.873">  7  8 -1 -1</clus>
<clus scale="   22.079">  1  5  2 -1</clus>
</clustering>
</event>
<event>
10    4  0.3738096E-005  0.1850499E+03  0.7546771E-02  0.1164165E+00
          2   -1    0    0  503    0 -0.00000000000E+00  0.00000000000E+00  0.42978735058E+03  0.42978735058E+03  0.00000000000E+00 0. -1.
         21   -1    0    0  501  502  0.00000000000E+00 -0.00000000000E+00 -0.25496764063E+03  0.25496764063E+03  0.00000000000E+00 0.  1.
         23    2    1    2    0    0 -0.91339743024E+02  0.12097889231E+03  0.49276298366E+02  0.18164231198E+03  0.87103013037E+02 0.  0.
         24    2    1    2    0    0  0.90992788583E+02 -0.15300089935E+03  0.46505613388E+01  0.19366330734E+03  0.76124149323E+02 0.  0.
        -13    1    4    4    0    0  0.15030617619E+02 -0.29467595027E+02  0.32071050350E+02  0.46073971972E+02  0.00000000000E+00 0.  1.
         14    1    4    4    0    0  0.75962170964E+02 -0.12353330433E+03 -0.27420489012E+02  0.14758933536E+03  0.00000000000E+00 0. -1.
        -11    1    3    3    0    0 -0.63075746566E+02  0.11229350667E+03  0.56243019658E+01  0.12891863410E+03  0.00000000000E+00 0.  1.
         11    1    3    3    0    0 -0.28263996458E+02  0.86853856387E+01  0.43651996400E+02  0.52723677880E+02  0.00000000000E+00 0. -1.
         21    1    1    2  503  502  0.74506446792E+02  0.52382157913E+02  0.18702416920E+03  0.20802197226E+03  0.00000000000E+00 0.  1.
          1    1    1    2  501    0 -0.74159492352E+02 -0.20360150866E+02 -0.66131318955E+02  0.10142739963E+03  0.00000000000E+00 0. -1.
<scales pt_clust_5="13000.00000" pt_clust_6="13000.00000" pt_clust_7="13000.00000" pt_clust_8="13000.00000" pt_clust_9="86.65329" pt_clust_10="76.90362"></scales>
<clustering>
<clus scale="   76.124">  5  6 -1 -1</clus>
<clus scale="   76.904">  2 10  1 -1</clus>
<clus scale="   86.653">  1  9  2 -1</clus>
<clus scale="   87.103">  7  8 -1 -1</clus>
<clus scale="  180.143">  2  5  1 -1</clus>
<clus scale="   76.904">  2  5  1 -1</clus>
</clustering>
</event>
<event>
10    4  0.3738096E-005  0.2343396E+03  0.7546771E-02  0.1168265E+00
         -3   -1    0    0    0  501 -0.00000000000E+00  0.00000000000E+00  0.48481366725E+02  0.48481366725E+02  0.00000000000E+00 0.  1.
         21   -1    0    0  503  502  0.00000000000E+00 -0.00000000000E+00 -0.29808365186E+04  0.29808365186E+04  0.00000000000E+00 0.  1.
         24    2    1    2    0    0 -0.43619107411E+02 -0.16681068320E+02 -0.59125199955E+03  0.59646563755E+03  0.63335971032E+02 0.  0.
         23    2    1    2    0    0  0.25535544414E+03  0.44559535644E+02 -0.82696165729E+03  0.87135567699E+03  0.90571397973E+02 0.  0.
        -11    1    3    3    0    0 -0.78143928264E+01  0.20491152170E+02 -0.93145745256E+02  0.95692642934E+02  0.00000000000E+00 0.  1.
         12    1    3    3    0    0 -0.35804714585E+02 -0.37172220490E+02 -0.49810625430E+03  0.50077299461E+03  0.00000000000E+00 0. -1.
        -13    1    4    4    0    0  0.22182384777E+03  0.67285390569E+02 -0.73927428342E+03  0.77476422824E+03  0.00000000000E+00 0.  1.
         13    1    4    4    0    0  0.33531596365E+02 -0.22725854926E+02 -0.87687373863E+02  0.96591448751E+02  0.00000000000E+00 0. -1.
         21    1    1    2  503  501 -0.10712306223E+02 -0.76817104074E+02 -0.76138879845E+02  0.10868647573E+03  0.00000000000E+00 0.  1.
         -4    1    1    2    0  502 -0.20102403050E+03  0.48938636750E+02 -0.14380026152E+04  0.14528100951E+04  0.00000000000E+00 0.  1.
<scales pt_clust_5="13000.00000" pt_clust_6="13000.00000" pt_clust_7="13000.00000" pt_clust_8="13000.00000" pt_clust_9="77.56043" pt_clust_10="216.12927"></scales>
<clustering>
<clus scale="   63.336">  5  6 -1 -1</clus>
<clus scale="   77.560">  1  9  2 -1</clus>
<clus scale="   80.714">  1  5  2 -1</clus>
<clus scale="   90.571">  7  8 -1 -1</clus>
<clus scale="  216.129">  2 10  1 -1</clus>
<clus scale="  216.129">  2  5  1 -1</clus>
</clustering>
</event>
<event>
10    4  0.3738096E-005  0.2039828E+03  0.7546771E-02  0.1158887E+00
          2   -1    0    0  503    0 -0.00000000000E+00  0.00000000000E+00  0.42826988470E+03  0.42826988470E+03  0.00000000000E+00 0. -1.
         21   -1    0    0  501  502  0.00000000000E+00 -0.00000000000E+00 -0.27921697760E+03  0.27921697760E+03  0.00000000000E+00 0. -1.
         23    2    1    2    0    0 -0.19917383775E+03  0.11994271801E+03 -0.16928238316E+02  0.25043997857E+03  0.91526741258E+02 0.  0.
         24    2    1    2    0    0  0.44115232417E+02 -0.11149778339E+03 -0.15548103116E+02  0.14327260061E+03  0.76859515637E+02 0.  0.
        -13    1    4    4    0    0  0.45380969695E+02 -0.24002813419E+02 -0.21296760385E+02  0.55579847655E+02  0.00000000000E+00 0.  1.
         14    1    4    4    0    0 -0.12657372779E+01 -0.87494969971E+02  0.57486572686E+01  0.87692752959E+02  0.00000000000E+00 0. -1.
        -13    1    3    3    0    0 -0.12046584762E+03  0.25006031326E+02  0.12469183643E+02  0.12366407152E+03  0.00000000000E+00 0.  1.
         13    1    3    3    0    0 -0.78707990135E+02  0.94936686688E+02 -0.29397421959E+02  0.12677590705E+03  0.00000000000E+00 0. -1.
         21    1    1    2  503  502  0.17425684437E+03  0.39345630418E+02  0.71749267262E+02  0.19251359379E+03  0.00000000000E+00 0. -1.
          1    1    1    2  501    0 -0.19198239029E+02 -0.47790565042E+02  0.10977998127E+03  0.12126068933E+03  0.00000000000E+00 0. -1.
<scales pt_clust_5="13000.00000" pt_clust_6="13000.00000" pt_clust_7="13000.00000" pt_clust_8="13000.00000" pt_clust_9="182.29603" pt_clust_10="51.50255"></scales>
<clustering>
<clus scale="   51.503">  2 10  1 -1</clus>
<clus scale="   76.860">  5  6 -1 -1</clus>
<clus scale="   91.527">  7  8 -1 -1</clus>
<clus scale="  152.025">  2  5  1 -1</clus>
<clus scale="  182.296">  1  9  2 -1</clus>
<clus scale="   51.503">  2  5  1 -1</clus>
</clustering>
</event>
<event>
10    4  0.3738096E-005  0.1439066E+03  0.7546771E-02  0.1210711E+00
         21   -1    0    0  501  502  0.00000000000E+00  0.00000000000E+00  0.28929889261E+02  0.28929889261E+02  0.00000000000E+00 0. -1.
          2   -1    0    0  503    0 -0.00000000000E+00 -0.00000000000E+00 -0.20320974689E+04  0.20320974689E+04  0.00000000000E+00 0. -1.
         23    2    1    2    0    0 -0.87329181021E+02 -0.95228181580E+02 -0.81435850792E+03  0.82979514393E+03  0.93195541996E+02 0.  0.
         24    2    1    2    0    0  0.72198771029E+02  0.53196145202E+02 -0.43205961894E+03  0.44863078812E+03  0.80941814419E+02 0.  0.
        -13    1    4    4    0    0  0.43288107632E+02  0.56471071223E+02 -0.16110298531E+03  0.17611647857E+03  0.00000000000E+00 0.  1.
         14    1    4    4    0    0  0.28910663397E+02 -0.32749260213E+01 -0.27095663363E+03  0.27251430954E+03  0.00000000000E+00 0. -1.
        -11    1    3    3    0    0 -0.25042847133E+02 -0.93569259036E+02 -0.47839889865E+03  0.48810639891E+03  0.00000000000E+00 0.  1.
         11    1    3    3    0    0 -0.62286333888E+02 -0.16589225443E+01 -0.33595960927E+03  0.34168874502E+03  0.00000000000E+00 0. -1.
         21    1    1    2  503  502 -0.51077924896E+02 -0.59292467998E+02 -0.31398831110E+03  0.32359420681E+03  0.00000000000E+00 0.  1.
          1    1    1    2  501    0  0.66208334888E+02  0.10132450438E+03 -0.44276114169E+03  0.45900721932E+03  0.00000000000E+00 0. -1.
<scales pt_clust_5="13000.00000" pt_clust_6="13000.00000" pt_clust_7="13000.00000" pt_clust_8="13000.00000" pt_clust_9="78.25951" pt_clust_10="94.98364"></scales>
<clustering>
<clus scale="   78.260">  1  9  2 -1</clus>
<clus scale="   80.942">  5  6 -1 -1</clus>
<clus scale="   93.196">  7  8 -1 -1</clus>
<clus scale="   94.984">  1 10  2 -1</clus>
<clus scale="  136.291">  1  5  2 -1</clus>
<clus scale="   78.260">  1  5  2 -1</clus>
</clustering>
</event>
<event>
10    4  0.3738096E-005  0.1545925E+03  0.7546771E-02  0.1202735E+00
          2   -1    0    0  503    0 -0.00000000000E+00  0.00000000000E+00  0.67216568253E+03  0.67216568253E+03  0.00000000000E+00 0. -1.
         21   -1    0    0  501  502  0.00000000000E+00 -0.00000000000E+00 -0.30178112290E+03  0.30178112290E+03  0.00000000000E+00 0.  1.
         23    2    1    2    0    0  0.62062767102E+02 -0.83839672842E+02 -0.44338060417E+01  0.13734132631E+03  0.89230619606E+02 0.  0.
         24    2    1    2    0    0 -0.10728523574E+03  0.15082116267E+02 -0.16975773628E+03  0.21652954488E+03  0.79559806041E+02 0.  0.
        -13    1    4    4    0    0 -0.58086174325E+02  0.46864781699E+02 -0.80550530470E+02  0.10981210940E+03  0.00000000000E+00 0.  1.
         14    1    4    4    0    0 -0.49199061414E+02 -0.31782665432E+02 -0.89207205815E+02  0.10671743548E+03  0.00000000000E+00 0. -1.
        -13    1    3    3    0    0  0.48238102330E+02  0.34868622036E+01 -0.71269869731E+01  0.48886262567E+02  0.00000000000E+00 0. -1.
         13    1    3    3    0    0  0.13824664772E+02 -0.87326535046E+02  0.26931809314E+01  0.88455063748E+02  0.00000000000E+00 0.  1.
         21    1    1    2  503  502  0.34639853422E+02  0.12828283686E+03  0.54360495582E+03  0.55960946532E+03  0.00000000000E+00 0. -1.
          1    1    1    2  501    0  0.10582615215E+02 -0.59525280290E+02  0.97114612962E+00  0.60466468916E+02  0.00000000000E+00 0. -1.
<scales pt_clust_5="13000.00000" pt_clust_6="13000.00000" pt_clust_7="13000.00000" pt_clust_8="13000.00000" pt_clust_9="126.24082" pt_clust_10="60.45867"></scales>
<clustering>
<clus scale="   60.459">  2 10  1 -1</clus>
<clus scale="   79.560">  5  6 -1 -1</clus>
<clus scale="   89.231">  7  8 -1 -1</clus>
<clus scale="  130.472">  2  5  1 -1</clus>
<clus scale="  126.241">  1  9  2 -1</clus>
<clus scale="   60.459">  2  5  1 -1</clus>
</clustering>
</event>
<event>
10    4  0.3738096E-005  0.3354288E+03  0.7546771E-02  0.1069139E+00
         21   -1    0    0  501  502  0.00000000000E+00  0.00000000000E+00  0.48461240978E+03  0.48461240978E+03  0.00000000000E+00 0. -1.
          2   -1    0    0  503    0 -0.00000000000E+00 -0.00000000000E+00 -0.36027194754E+03  0.36027194754E+03  0.00000000000E+00 0. -1.
         23    2    1    2    0    0 -0.36245239050E+03  0.25133952365E+02 -0.29163370517E+02  0.37664853502E+03  0.94921893228E+02 0.  0.
         24    2    1    2    0    0  0.26148150511E+03 -0.50302227854E+02  0.17396086888E+03  0.32840620096E+03  0.81764034155E+02 0.  0.
        -11    1    4    4    0    0  0.69799906078E+02 -0.51642137744E+02  0.51886977056E+02  0.10114937304E+03  0.00000000000E+00 0.  1.
         12    1    4    4    0    0  0.19168159903E+03  0.13399098905E+01  0.12207389183E+03  0.22725682791E+03  0.00000000000E+00 0. -1.
        -13    1    3    3    0    0 -0.30137243650E+02  0.21012102609E+02  0.18114018223E+02  0.40961928263E+02  0.00000000000E+00 0.  1.
         13    1    3    3    0    0 -0.33231514685E+03  0.41218497560E+01 -0.47277388739E+02  0.33568660676E+03  0.00000000000E+00 0. -1.
         21    1    1    2  503  502  0.10692017920E+02  0.34045113099E+02 -0.32565970347E+02  0.48310779313E+02  0.00000000000E+00 0.  1.
          1    1    1    2  501    0  0.90278867471E+02 -0.88768376101E+01  0.12108934227E+02  0.91518842027E+02  0.00000000000E+00 0. -1.
<scales pt_clust_5="13000.00000" pt_clust_6="13000.00000" pt_clust_7="13000.00000" pt_clust_8="13000.00000" pt_clust_9="35.68458" pt_clust_10="91.72421"></scales>
<clustering>
<clus scale="   35.685">  2  9  1 -1</clus>
<clus scale="   81.764">  5  6 -1 -1</clus>
<clus scale="   91.724">  1 10  2 -1</clus>
<clus scale="   94.922">  7  8 -1 -1</clus>
<clus scale="  331.945">  1  5  2 -1</clus>
<clus scale="   91.724">  1  5  2 -1</clus>
</clustering>
</event>
<event>
10    4  0.3738096E-005  0.9123580E+02  0.7546771E-02  0.1306806E+00
          2   -1    0    0  503    0 -0.00000000000E+00  0.00000000000E+00  0.19984335879E+03  0.19984335879E+03  0.00000000000E+00 0. -1.
         21   -1    0    0  501  502  0.00000000000E+00 -0.00000000000E+00 -0.11498297226E+03  0.11498297226E+03  0.00000000000E+00 0.  1.
         23    2    1    2    0    0  0.27690502967E+01  0.67655273614E+01  0.60933311566E+02  0.10986162921E+03  0.91122275621E+02 0.  0.
         24    2    1    2    0    0  0.98454529722E+01  0.28347825145E+02 -0.46351175262E+02  0.97397839401E+02  0.80233257051E+02 0.  0.
        -13    1    4    4    0    0  0.42813504480E+02  0.83990214269E+01 -0.38248508608E+02  0.58021445496E+02  0.00000000000E+00 0.  1.
         14    1    4    4    0    0 -0.32968051507E+02  0.19948803718E+02 -0.81026666544E+01  0.39376393904E+02  0.00000000000E+00 0. -1.
        -11    1    3    3    0    0  0.14265985651E+02 -0.24580731998E+02 -0.11064826941E+02  0.30498543037E+02  0.00000000000E+00 0.  1.
         11    1    3    3    0    0 -0.11496935355E+02  0.31346259359E+02  0.71998138507E+02  0.79363086173E+02  0.00000000000E+00 0. -1.
         21    1    1    2  503  502 -0.33649050195E+00  0.22172770194E+02  0.25725476974E+02  0.33963879777E+02  0.00000000000E+00 0. -1.
          1    1    1    2  501    0 -0.12278012767E+02 -0.57286122701E+02  0.44552773252E+02  0.73602982658E+02  0.00000000000E+00 0. -1.
<scales pt_clust_5="13000.00000" pt_clust_6="13000.00000" pt_clust_7="13000.00000" pt_clust_8="13000.00000" pt_clust_9="22.17532" pt_clust_10="51.10654"></scales>
<clustering>
<clus scale="   22.175">  1  9  2 -1</clus>
<clus scale="   51.107">  2 10  1 -1</clus>
<clus scale="   80.233">  5  6 -1 -1</clus>
<clus scale="   80.362">  2  5  1 -1</clus>
<clus scale="   91.122">  7  8 -1 -1</clus>
<clus scale="   51.107">  2  5  1 -1</clus>
</clustering>
</event>
<event>
10    4  0.3738096E-005  0.1276190E+03  0.7546771E-02  0.1234124E+00
          2   -1    0    0  503    0 -0.00000000000E+00  0.00000000000E+00  0.47201305450E+03  0.47201305450E+03  0.00000000000E+00 0. -1.
         21   -1    0    0  501  502  0.00000000000E+00 -0.00000000000E+00 -0.87884613525E+02  0.87884613525E+02  0.00000000000E+00 0. -1.
         24    2    1    2    0    0  0.70274726974E+02  0.89128509081E+02  0.18804292341E+03  0.23376464530E+03  0.80020872056E+02 0.  0.
         23    2    1    2    0    0  0.11881730995E+02 -0.82868186461E+02  0.12606692202E+03  0.17677352440E+03  0.91365738879E+02 0.  0.
        -13    1    3    3    0    0  0.23159174970E+02  0.26742359899E+02  0.63173334105E+01  0.35936192059E+02  0.00000000000E+00 0.  1.
         14    1    3    3    0    0  0.47115552004E+02  0.62386149181E+02  0.18172559000E+03  0.19782845324E+03  0.00000000000E+00 0. -1.
        -13    1    4    4    0    0 -0.13501531182E+02  0.15481136092E+02  0.33790736178E+02  0.39544541600E+02  0.00000000000E+00 0.  1.
         13    1    4    4    0    0  0.25383262177E+02 -0.98349322553E+02  0.92276185846E+02  0.13722898280E+03  0.00000000000E+00 0. -1.
         21    1    1    2  503  502 -0.18570057614E+02 -0.25483560876E+02  0.76374376577E+02  0.82627503365E+02  0.00000000000E+00 0.  1.
          1    1    1    2  501    0 -0.63586400355E+02  0.19223238256E+02 -0.63557810358E+01  0.66731994963E+02  0.00000000000E+00 0. -1.
<scales pt_clust_5="13000.00000" pt_clust_6="13000.00000" pt_clust_7="13000.00000" pt_clust_8="13000.00000" pt_clust_9="31.53187" pt_clust_10="67.26755"></scales>
<clustering>
<clus scale="   31.532">  1  9  2 -1</clus>
<clus scale="   67.268">  2 10  1 -1</clus>
<clus scale="   80.021">  5  6 -1 -1</clus>
<clus scale="   91.366">  7  8 -1 -1</clus>
<clus scale="  119.759">  1  5  2 -1</clus>
<clus scale="   67.268">  2  5  1 -1</clus>
</clustering>
</event>
<event>
10    4  0.3738096E-005  0.4242723E+03  0.7546771E-02  0.1054176E+00
          4   -1    0    0  503    0 -0.00000000000E+00  0.00000000000E+00  0.19473434012E+04  0.19473434012E+04  0.00000000000E+00 0. -1.
         21   -1    0    0  501  502  0.00000000000E+00 -0.00000000000E+00 -0.44854211131E+03  0.44854211131E+03  0.00000000000E+00 0. -1.
         24    2    1    2    0    0 -0.22546061714E+03  0.47067472060E+02  0.28207732343E+03  0.37626550926E+03  0.94658756890E+02 0.  0.
         23    2    1    2    0    0  0.36313015417E+03 -0.82245651745E+02  0.43810334553E+03  0.58210230894E+03  0.90998354991E+02 0.  0.
        -13    1    3    3    0    0 -0.37919220540E+02 -0.72569185265E+00  0.49490640143E+01  0.38247707770E+02  0.00000000000E+00 0.  1.
         14    1    3    3    0    0 -0.18754139660E+03  0.47793163912E+02  0.27712825942E+03  0.33801780149E+03  0.00000000000E+00 0. -1.
        -11    1    4    4    0    0  0.31659406133E+03 -0.10191051574E+03  0.37424950432E+03  0.50067978226E+03  0.00000000000E+00 0. -1.
         11    1    4    4    0    0  0.46536092847E+02  0.19664863993E+02  0.63853841215E+02  0.81422526682E+02  0.00000000000E+00 0.  1.
         21    1    1    2  503  502 -0.43571581258E+03 -0.25059900308E+03  0.87900859547E+03  0.10125730791E+04  0.00000000000E+00 0. -1.
          3    1    1    2  501    0  0.29804627555E+03  0.28577718277E+03 -0.10038797452E+03  0.42494461520E+03  0.00000000000E+00 0. -1.
<scales pt_clust_5="13000.00000" pt_clust_6="13000.00000" pt_clust_7="13000.00000" pt_clust_8="13000.00000" pt_clust_9="13000.00000" pt_clust_10="424.27231"></scales>
<clustering>
<clus scale="   90.998">  7  8 -1 -1</clus>
<clus scale="   94.659">  5  6 -1 -1</clus>
<clus scale="  249.014">  1  5  2 -1</clus>
<clus scale="  313.244">  1  7  2 -1</clus>
<clus scale="  424.272">  2 10  1 -1</clus>
<clus scale="  424.272">  2  5  1 -1</clus>
</clustering>
</event>
<event>
10    4  0.3738096E-005  0.1086458E+03  0.7546771E-02  0.1268459E+00
         21   -1    0    0  503  502  0.00000000000E+00  0.00000000000E+00  0.15013289520E+03  0.15013289520E+03  0.00000000000E+00 0.  1.
         -3   -1    0    0    0  501 -0.00000000000E+00 -0.00000000000E+00 -0.27922624753E+03  0.27922624753E+03  0.00000000000E+00 0.  1.
         23    2    1    2    0    0 -0.28056144281E+02  0.21728734141E+02 -0.57268943767E+02  0.11338491785E+03  0.91198259608E+02 0.  0.
         24    2    1    2    0    0  0.35680930821E+02 -0.49054500957E+02  0.85428354305E+02  0.13065424775E+03  0.78058028719E+02 0.  0.
        -11    1    4    4    0    0  0.39407476228E+02 -0.68473147885E+02  0.66184659030E+02  0.10306274911E+03  0.00000000000E+00 0.  1.
         12    1    4    4    0    0 -0.37265454066E+01  0.19418646928E+02  0.19243695275E+02  0.27591498636E+02  0.00000000000E+00 0. -1.
        -13    1    3    3    0    0 -0.41926140129E+02  0.49205940965E+02 -0.26507593294E+02  0.69869008542E+02  0.00000000000E+00 0.  1.
         13    1    3    3    0    0  0.13869995848E+02 -0.27477206824E+02 -0.30761350473E+02  0.43515909304E+02  0.00000000000E+00 0. -1.
         21    1    1    2  503  501  0.36235585400E+01  0.58968586645E+02 -0.12721275353E+03  0.14026228662E+03  0.00000000000E+00 0.  1.
         -4    1    1    2    0  502 -0.11248345080E+02 -0.31642819829E+02 -0.30040009340E+02  0.45057690520E+02  0.00000000000E+00 0.  1.
<scales pt_clust_5="13000.00000" pt_clust_6="13000.00000" pt_clust_7="13000.00000" pt_clust_8="13000.00000" pt_clust_9="57.60495" pt_clust_10="33.58265"></scales>
<clustering>
<clus scale="   33.583">  1 10  2 -1</clus>
<clus scale="   57.605">  2  9  1 -1</clus>
<clus scale="   78.058">  5  6 -1 -1</clus>
<clus scale="   91.198">  7  8 -1 -1</clus>
<clus scale="   97.877">  1  5  2 -1</clus>
<clus scale="   33.583">  1  5  2 -1</clus>
</clustering>
</event>
<event>
10    4  0.3738096E-005  0.1289443E+03  0.7546771E-02  0.1237784E+00
         21   -1    0    0  501  502  0.00000000000E+00  0.00000000000E+00  0.11183682004E+03  0.11183682004E+03  0.00000000000E+00 0. -1.
          4   -1    0    0  503    0 -0.00000000000E+00 -0.00000000000E+00 -0.46765727266E+03  0.46765727266E+03  0.00000000000E+00 0. -1.
         24    2    1    2    0    0 -0.21176780778E+02 -0.59298803666E+02 -0.20283971087E+03  0.22638937064E+03  0.78379810371E+02 0.  0.
         23    2    1    2    0    0 -0.72013020136E+01 -0.65208597739E+02 -0.37646129018E+01  0.11183366165E+03  0.90490748692E+02 0.  0.
        -13    1    3    3    0    0 -0.44180859850E+02 -0.31021168472E+02 -0.16602344407E+03  0.17457962438E+03  0.00000000000E+00 0.  1.
         14    1    3    3    0    0  0.23004079072E+02 -0.28277635194E+02 -0.36816266808E+02  0.51809746262E+02  0.00000000000E+00 0. -1.
        -13    1    4    4    0    0 -0.40652218046E+02 -0.66890539771E+02 -0.23086290819E+01  0.78308855892E+02  0.00000000000E+00 0. -1.
         13    1    4    4    0    0  0.33450916033E+02  0.16819420324E+01 -0.14559838198E+01  0.33524805761E+02  0.00000000000E+00 0.  1.
         21    1    1    2  503  502  0.26040435823E+01 -0.22077874193E+02 -0.68377034490E+02  0.71900155894E+02  0.00000000000E+00 0. -1.
          3    1    1    2  501    0  0.25774039209E+02  0.14658527560E+03 -0.80839094349E+02  0.16937090451E+03  0.00000000000E+00 0. -1.
<scales pt_clust_5="13000.00000" pt_clust_6="13000.00000" pt_clust_7="13000.00000" pt_clust_8="13000.00000" pt_clust_9="22.23091" pt_clust_10="91.85895"></scales>
<clustering>
<clus scale="   22.231">  2  9  1 -1</clus>
<clus scale="   78.380">  5  6 -1 -1</clus>
<clus scale="   90.491">  7  8 -1 -1</clus>
<clus scale="  107.733">  2  5  1 -1</clus>
<clus scale="   91.859">  1 10  2 -1</clus>
<clus scale="   91.859">  1  5  2 -1</clus>
</clustering>
</event>
<event>
10    4  0.3738096E-005  0.9202058E+02  0.7546771E-02  0.1303790E+00
         21   -1    0    0  501  502  0.00000000000E+00  0.00000000000E+00  0.24214111604E+03  0.24214111604E+03  0.00000000000E+00 0. -1.
          2   -1    0    0  503    0 -0.00000000000E+00 -0.00000000000E+00 -0.25280696688E+03  0.25280696688E+03  0.00000000000E+00 0. -1.
         23    2    1    2    0    0  0.28335487114E+02 -0.25836884381E+01 -0.11060379491E+03  0.14551075858E+03  0.90169873779E+02 0.  0.
         24    2    1    2    0    0  0.35926279367E+01  0.30889907204E+02 -0.16580138609E+02  0.88060774758E+02  0.80701336496E+02 0.  0.
        -13    1    4    4    0    0 -0.19810285056E+02 -0.20719354874E+02  0.11358544578E+01  0.28688485943E+02  0.00000000000E+00 0.  1.
         14    1    4    4    0    0  0.23402912992E+02  0.51609262078E+02 -0.17715993066E+02  0.59372288815E+02  0.00000000000E+00 0. -1.
        -11    1    3    3    0    0  0.49524616380E+02  0.11985249591E+02 -0.26237489967E+02  0.57312648823E+02  0.00000000000E+00 0.  1.
         11    1    3    3    0    0 -0.21189129266E+02 -0.14568938029E+02 -0.84366304947E+02  0.88198109757E+02  0.00000000000E+00 0. -1.
         21    1    1    2  503  502 -0.61769979236E+02 -0.12553017754E+02 -0.56772769691E+02  0.84830748953E+02  0.00000000000E+00 0. -1.
          1    1    1    2  501    0  0.29841864186E+02 -0.15753201012E+02  0.17329085237E+03  0.17654580062E+03  0.00000000000E+00 0. -1.
<scales pt_clust_5="13000.00000" pt_clust_6="13000.00000" pt_clust_7="13000.00000" pt_clust_8="13000.00000" pt_clust_9="57.75688" pt_clust_10="33.74463"></scales>
<clustering>
<clus scale="   33.745">  1 10  2 -1</clus>
<clus scale="   57.757">  2  9  1 -1</clus>
<clus scale="   80.701">  5  6 -1 -1</clus>
<clus scale="   82.764">  1  5  2 -1</clus>
<clus scale="   90.170">  7  8 -1 -1</clus>
<clus scale="   33.745">  1  5  2 -1</clus>
</clustering>
</event>
<event>
10    4  0.3738096E-005  0.1064861E+03  0.7546771E-02  0.1271805E+00
         -1   -1    0    0    0  501 -0.00000000000E+00  0.00000000000E+00  0.40616969835E+02  0.40616969835E+02  0.00000000000E+00 0.  1.
         21   -1    0    0  503  502  0.00000000000E+00 -0.00000000000E+00 -0.66785349157E+03  0.66785349157E+03  0.00000000000E+00 0.  1.
         23    2    1    2    0    0  0.67169430126E+01 -0.63944510905E+02 -0.11170190875E+03  0.15855021506E+03  0.92340871108E+02 0.  0.
         24    2    1    2    0    0 -0.29237026147E+02  0.47748692670E+02 -0.31987815961E+03  0.33487180137E+03  0.81745611531E+02 0.  0.
        -13    1    4    4    0    0 -0.56132251346E+02  0.42757590551E+02 -0.20583358764E+03  0.21759252513E+03  0.00000000000E+00 0.  1.
         14    1    4    4    0    0  0.26895225200E+02  0.49911021183E+01 -0.11404457197E+03  0.11727927624E+03  0.00000000000E+00 0. -1.
        -11    1    3    3    0    0  0.46444697717E+02 -0.14264403984E+02 -0.54365205846E+02  0.72911993346E+02  0.00000000000E+00 0. -1.
         11    1    3    3    0    0 -0.39727754704E+02 -0.49680106920E+02 -0.57336702906E+02  0.85638221710E+02  0.00000000000E+00 0.  1.
         21    1    1    2  503  501 -0.25661525550E+02  0.14883600627E+02 -0.28709289213E+02  0.41282668861E+02  0.00000000000E+00 0.  1.
         -2    1    1    2    0  502  0.48181608684E+02  0.13122176075E+01 -0.16694716416E+03  0.17376577612E+03  0.00000000000E+00 0.  1.
<scales pt_clust_5="13000.00000" pt_clust_6="13000.00000" pt_clust_7="13000.00000" pt_clust_8="13000.00000" pt_clust_9="29.66539" pt_clust_10="45.71842"></scales>
<clustering>
<clus scale="   29.665">  1  9  2 -1</clus>
<clus scale="   45.718">  2 10  1 -1</clus>
<clus scale="   81.746">  5  6 -1 -1</clus>
<clus scale="   92.341">  7  8 -1 -1</clus>
<clus scale="   97.441">  2  5  1 -1</clus>
<clus scale="   45.718">  2  5  1 -1</clus>
</clustering>
</event>
<event>
10    4  0.3738096E-005  0.1455625E+03  0.7546771E-02  0.1208260E+00
          2   -1    0    0  503    0 -0.00000000000E+00  0.00000000000E+00  0.66518592907E+03  0.66518592907E+03  0.00000000000E+00 0. -1.
         21   -1    0    0  501  502  0.00000000000E+00 -0.00000000000E+00 -0.90329800230E+02  0.90329800230E+02  0.00000000000E+00 0.  1.
         23    2    1    2    0    0  0.11388264308E+02 -0.72947699261E+02  0.30077403062E+03  0.32299832694E+03  0.91716096282E+02 0.  0.
         24    2    1    2    0    0  0.59569641011E+02  0.14731902311E+03  0.60146974619E+02  0.18801830164E+03  0.80509542869E+02 0.  0.
        -13    1    4    4    0    0  0.68915915416E+02  0.11737077420E+03  0.72605527794E+02  0.15426232430E+03  0.00000000000E+00 0.  1.
         14    1    4    4    0    0 -0.93462744052E+01  0.29948248919E+02 -0.12458553176E+02  0.33755977334E+02  0.00000000000E+00 0. -1.
        -13    1    3    3    0    0 -0.35781826473E+02 -0.19210042817E+02  0.16040867311E+03  0.16546995878E+03  0.00000000000E+00 0.  1.
         13    1    3    3    0    0  0.47170090781E+02 -0.53737656445E+02  0.14036535752E+03  0.15752836816E+03  0.00000000000E+00 0. -1.
         21    1    1    2  503  502 -0.45143889778E+02 -0.42349242701E+02  0.18255743436E+03  0.19276578011E+03  0.00000000000E+00 0. -1.
          1    1    1    2  501    0 -0.25814015540E+02 -0.32022081153E+02  0.31377689237E+02  0.51733320612E+02  0.00000000000E+00 0. -1.
<scales pt_clust_5="13000.00000" pt_clust_6="13000.00000" pt_clust_7="13000.00000" pt_clust_8="13000.00000" pt_clust_9="64.49363" pt_clust_10="41.13122"></scales>
<clustering>
<clus scale="   41.131">  2 10  1 -1</clus>
<clus scale="   64.494">  1  9  2 -1</clus>
<clus scale="   80.510">  5  6 -1 -1</clus>
<clus scale="   91.716">  7  8 -1 -1</clus>
<clus scale="  138.775">  2  5  1 -1</clus>
<clus scale="   41.131">  2  5  1 -1</clus>
</clustering>
</event>
<event>
10    4  0.3738096E-005  0.1221003E+03  0.7546771E-02  0.1241321E+00
          2   -1    0    0  503    0 -0.00000000000E+00  0.00000000000E+00  0.85346526513E+03  0.85346526513E+03  0.00000000000E+00 0. -1.
         21   -1    0    0  501  502  0.00000000000E+00 -0.00000000000E+00 -0.13259643376E+03  0.13259643376E+03  0.00000000000E+00 0. -1.
         24    2    1    2    0    0 -0.79522805982E+02  0.10543453926E+03  0.52093732978E+03  0.54326114490E+03  0.79477363170E+02 0.  0.
         23    2    1    2    0    0 -0.47854966068E+02 -0.47499719676E+02  0.10902063609E+03  0.15399273780E+03  0.85334301748E+02 0.  0.
        -13    1    3    3    0    0 -0.69899205101E+02  0.29890096103E+02  0.21710761811E+03  0.23003268150E+03  0.00000000000E+00 0.  1.
         14    1    3    3    0    0 -0.96236008810E+01  0.75544443156E+02  0.30382971167E+03  0.31322846339E+03  0.00000000000E+00 0. -1.
        -13    1    4    4    0    0 -0.70851026374E+02 -0.21580917805E+02  0.72234254508E+02  0.10345719635E+03  0.00000000000E+00 0. -1.
         13    1    4    4    0    0  0.22996060306E+02 -0.25918801870E+02  0.36786381586E+02  0.50535541456E+02  0.00000000000E+00 0.  1.
         21    1    1    2  503  502  0.57931731774E+02  0.80234894158E+01  0.16023497454E+03  0.17057464347E+03  0.00000000000E+00 0. -1.
          1    1    1    2  501    0  0.69446040276E+02 -0.65958308999E+02 -0.69324109049E+02  0.11823317272E+03  0.00000000000E+00 0. -1.
<scales pt_clust_5="13000.00000" pt_clust_6="13000.00000" pt_clust_7="13000.00000" pt_clust_8="13000.00000" pt_clust_9="58.48472" pt_clust_10="97.08722"></scales>
<clustering>
<clus scale="   58.485">  1  9  2 -1</clus>
<clus scale="   79.477">  5  6 -1 -1</clus>
<clus scale="   85.334">  7  8 -1 -1</clus>
<clus scale="   97.087">  2 10  1 -1</clus>
<clus scale="  118.081">  1  5  2 -1</clus>
<clus scale="   97.087">  2  5  1 -1</clus>
</clustering>
</event>
<event>
10    4  0.3738096E-005  0.2069908E+03  0.7546771E-02  0.1144197E+00
         21   -1    0    0  501  502  0.00000000000E+00  0.00000000000E+00  0.11841776542E+03  0.11841776542E+03  0.00000000000E+00 0. -1.
          4   -1    0    0  503    0 -0.00000000000E+00 -0.00000000000E+00 -0.68978613466E+03  0.68978613466E+03  0.00000000000E+00 0. -1.
         24    2    1    2    0    0 -0.14604112111E+03 -0.23520863412E+02 -0.16497069511E+03  0.23628092122E+03  0.82049396184E+02 0.  0.
         23    2    1    2    0    0  0.22760914561E+03  0.10357575133E+03 -0.25606201391E+03  0.36782370346E+03  0.84809565678E+02 0.  0.
        -11    1    3    3    0    0 -0.11042353182E+03  0.14978557789E+02 -0.82925270453E+02  0.13890397422E+03  0.00000000000E+00 0.  1.
         12    1    3    3    0    0 -0.35617589291E+02 -0.38499421201E+02 -0.82045424660E+02  0.97376947002E+02  0.00000000000E+00 0. -1.
        -13    1    4    4    0    0  0.48524426416E+02  0.43955119032E+00 -0.91790845033E+02  0.10382857216E+03  0.00000000000E+00 0.  1.
         13    1    4    4    0    0  0.17908471919E+03  0.10313620014E+03 -0.16427116888E+03  0.26399513130E+03  0.00000000000E+00 0. -1.
         21    1    1    2  503  502  0.26741350553E+01 -0.45892983506E+02 -0.63422794941E+02  0.78331142284E+02  0.00000000000E+00 0.  1.
          3    1    1    2  501    0 -0.84242159550E+02 -0.34161904407E+02 -0.86912865270E+02  0.12576813312E+03  0.00000000000E+00 0. -1.
<scales pt_clust_5="13000.00000" pt_clust_6="13000.00000" pt_clust_7="13000.00000" pt_clust_8="13000.00000" pt_clust_9="45.97083" pt_clust_10="93.74170"></scales>
<clustering>
<clus scale="   45.971">  2  9  1 -1</clus>
<clus scale="   82.049">  5  6 -1 -1</clus>
<clus scale="   84.810">  7  8 -1 -1</clus>
<clus scale="   93.742">  1 10  2 -1</clus>
<clus scale="  205.875">  2  5  1 -1</clus>
<clus scale="   93.742">  1  5  2 -1</clus>
</clustering>
</event>
<event>
10    4  0.3738096E-005  0.1243921E+03  0.7546771E-02  0.1241657E+00
         21   -1    0    0  501  502  0.00000000000E+00  0.00000000000E+00  0.16921476590E+03  0.16921476590E+03  0.00000000000E+00 0.  1.
          2   -1    0    0  503    0 -0.00000000000E+00 -0.00000000000E+00 -0.38789175440E+03  0.38789175440E+03  0.00000000000E+00 0. -1.
         24    2    1    2    0    0  0.63665267762E+02  0.29844640980E+02 -0.19347989816E+03  0.21974849666E+03  0.76882780128E+02 0.  0.
         23    2    1    2    0    0 -0.39713885943E+02 -0.42014085396E+02  0.38898146895E+02  0.11805673145E+03  0.95299264954E+02 0.  0.
        -11    1    3    3    0    0  0.41400219283E+02 -0.15907760163E+02 -0.13567077370E+03  0.14273609854E+03  0.00000000000E+00 0.  1.
         12    1    3    3    0    0  0.22265048479E+02  0.45752401143E+02 -0.57809124455E+02  0.77012398121E+02  0.00000000000E+00 0. -1.
        -13    1    4    4    0    0  0.30787196631E+02 -0.14570780790E+02  0.26412972654E+01  0.34163366059E+02  0.00000000000E+00 0. -1.
         13    1    4    4    0    0 -0.70501082574E+02 -0.27443304606E+02  0.36256849629E+02  0.83893365393E+02  0.00000000000E+00 0.  1.
         21    1    1    2  503  502  0.14370140319E+02  0.14006895739E+02 -0.13617577383E+03  0.13764641455E+03  0.00000000000E+00 0.  1.
          1    1    1    2  501    0 -0.38321522138E+02 -0.18374513234E+01  0.72080536589E+02  0.81654877633E+02  0.00000000000E+00 0. -1.
<scales pt_clust_5="13000.00000" pt_clust_6="13000.00000" pt_clust_7="13000.00000" pt_clust_8="13000.00000" pt_clust_9="20.06724" pt_clust_10="38.07982"></scales>
<clustering>
<clus scale="   20.067">  2  9  1 -1</clus>
<clus scale="   38.080">  1 10  2 -1</clus>
<clus scale="   76.883">  5  6 -1 -1</clus>
<clus scale="   95.299">  7  8 -1 -1</clus>
<clus scale="  110.916">  2  5  1 -1</clus>
<clus scale="   38.080">  1  5  2 -1</clus>
</clustering>
</event>
<event>
10    4  0.3738096E-005  0.1517789E+03  0.7546771E-02  0.1218197E+00
         21   -1    0    0  501  502  0.00000000000E+00  0.00000000000E+00  0.22829671919E+03  0.22829671919E+03  0.00000000000E+00 0.  1.
          2   -1    0    0  503    0 -0.00000000000E+00 -0.00000000000E+00 -0.23934619237E+03  0.23934619237E+03  0.00000000000E+00 0. -1.
         24    2    1    2    0    0 -0.54573855424E+02  0.87786890918E+01 -0.44850419834E+02  0.10628709740E+03  0.78930449359E+02 0.  0.
         23    2    1    2    0    0  0.72862496776E+02 -0.14124956555E+03 -0.18263763914E+02  0.18380170843E+03  0.90493755277E+02 0.  0.
        -13    1    3    3    0    0 -0.15366649126E+02  0.30576295632E+02  0.97878887651E+01  0.35592787562E+02  0.00000000000E+00 0.  1.
         14    1    3    3    0    0 -0.39207206298E+02 -0.21797606541E+02 -0.54638308599E+02  0.70694309836E+02  0.00000000000E+00 0. -1.
        -11    1    4    4    0    0 -0.20593469253E+02 -0.28544683531E+02 -0.12242443266E+02  0.37266168986E+02  0.00000000000E+00 0.  1.
         11    1    4    4    0    0  0.93455966029E+02 -0.11270488202E+03 -0.60213206483E+01  0.14653553945E+03  0.00000000000E+00 0. -1.
         21    1    1    2  503  502  0.38796048171E+00  0.10294081205E+03 -0.12942357464E+02  0.10375194415E+03  0.00000000000E+00 0. -1.
          1    1    1    2  501    0 -0.18676601834E+02  0.29530064412E+02  0.65007068028E+02  0.73802161580E+02  0.00000000000E+00 0. -1.
<scales pt_clust_5="13000.00000" pt_clust_6="13000.00000" pt_clust_7="13000.00000" pt_clust_8="13000.00000" pt_clust_9="121.85117" pt_clust_10="34.94052"></scales>
<clustering>
<clus scale="   34.941">  1 10  2 -1</clus>
<clus scale="   78.930">  5  6 -1 -1</clus>
<clus scale="   90.494">  7  8 -1 -1</clus>
<clus scale="   99.123">  2  5  1 -1</clus>
<clus scale="  121.851">  2  9  1 -1</clus>
<clus scale="   34.941">  1  5  2 -1</clus>
</clustering>
</event>
<event>
10    4  0.3738096E-005  0.2011545E+03  0.7546771E-02  0.1150226E+00
         21   -1    0    0  503  502  0.00000000000E+00  0.00000000000E+00  0.39594914511E+03  0.39594914511E+03  0.00000000000E+00 0. -1.
         -3   -1    0    0    0  501 -0.00000000000E+00 -0.00000000000E+00 -0.40871840953E+03  0.40871840953E+03  0.00000000000E+00 0.  1.
         24    2    1    2    0    0  0.18054038266E+03 -0.71957473261E+02 -0.19618563910E+02  0.20963777662E+03  0.76094688433E+02 0.  0.
         23    2    1    2    0    0 -0.15523236544E+03  0.47463844141E+02  0.12313323236E+03  0.22361567289E+03  0.92153526613E+02 0.  0.
        -11    1    3    3    0    0  0.41847947868E+02 -0.29315547275E+00  0.23078754128E+02  0.47790852399E+02  0.00000000000E+00 0.  1.
         12    1    3    3    0    0  0.13869243479E+03 -0.71664317788E+02 -0.42697318038E+02  0.16184692422E+03  0.00000000000E+00 0. -1.
        -13    1    4    4    0    0 -0.75038031298E+02 -0.22392319652E+02  0.68551366071E+02  0.10407406935E+03  0.00000000000E+00 0.  1.
         13    1    4    4    0    0 -0.80194334144E+02  0.69856163794E+02  0.54581866291E+02  0.11954160354E+03  0.00000000000E+00 0. -1.
         21    1    1    2  503  501 -0.33756202639E+02 -0.43958991350E+02 -0.23100218746E+03  0.23755817130E+03  0.00000000000E+00 0. -1.
         -4    1    1    2    0  502  0.84481854211E+01  0.68452620470E+02  0.11471825459E+03  0.13385593383E+03  0.00000000000E+00 0.  1.
<scales pt_clust_5="13000.00000" pt_clust_6="13000.00000" pt_clust_7="13000.00000" pt_clust_8="13000.00000" pt_clust_9="55.42449" pt_clust_10="66.36987"></scales>
<clustering>
<clus scale="   55.424">  2  9  1 -1</clus>
<clus scale="   66.370">  1 10  2 -1</clus>
<clus scale="   76.095">  5  6 -1 -1</clus>
<clus scale="   92.154">  7  8 -1 -1</clus>
<clus scale="  194.323">  2  5  1 -1</clus>
<clus scale="   66.370">  1  5  2 -1</clus>
</clustering>
</event>
<event>
10    4  0.3738096E-005  0.1549360E+03  0.7546771E-02  0.1196544E+00
          2   -1    0    0  503    0 -0.00000000000E+00  0.00000000000E+00  0.24534888142E+03  0.24534888142E+03  0.00000000000E+00 0. -1.
         21   -1    0    0  501  502  0.00000000000E+00 -0.00000000000E+00 -0.29236065916E+03  0.29236065916E+03  0.00000000000E+00 0.  1.
         23    2    1    2    0    0 -0.11701390635E+03 -0.29408932919E+02  0.14400251725E+03  0.20977559250E+03  0.93337744879E+02 0.  0.
         24    2    1    2    0    0  0.11266161714E+03 -0.21323628781E+01 -0.97520504961E+02  0.16999869675E+03  0.81805385287E+02 0.  0.
        -13    1    4    4    0    0  0.70696340629E+02 -0.49962774980E+01 -0.10558888427E+03  0.12716897361E+03  0.00000000000E+00 0.  1.
         14    1    4    4    0    0  0.41965276512E+02  0.28639146199E+01  0.80683793138E+01  0.42829723142E+02  0.00000000000E+00 0. -1.
        -11    1    3    3    0    0 -0.94537324474E+02 -0.60102073366E+02  0.12280885262E+03  0.16622749238E+03  0.00000000000E+00 0. -1.
         11    1    3    3    0    0 -0.22476581874E+02  0.30693140447E+02  0.21193664630E+02  0.43548100116E+02  0.00000000000E+00 0.  1.
         21    1    1    2  503  502 -0.12090686201E+02  0.19889627428E+02  0.27068670971E+02  0.35700068910E+02  0.00000000000E+00 0.  1.
          1    1    1    2  501    0  0.16442975408E+02  0.11651668369E+02 -0.12056246101E+03  0.12223518241E+03  0.00000000000E+00 0. -1.
<scales pt_clust_5="13000.00000" pt_clust_6="13000.00000" pt_clust_7="13000.00000" pt_clust_8="13000.00000" pt_clust_9="23.31746" pt_clust_10="20.15274"></scales>
<clustering>
<clus scale="   20.153">  2 10  1 -1</clus>
<clus scale="   23.317">  1  9  2 -1</clus>
<clus scale="   81.805">  5  6 -1 -1</clus>
<clus scale="   93.338">  7  8 -1 -1</clus>
<clus scale="  148.275">  2  5  1 -1</clus>
<clus scale="   20.153">  2  5  1 -1</clus>
</clustering>
</event>
<event>
10    4  0.3738096E-005  0.2037242E+03  0.7546771E-02  0.1147372E+00
          2   -1    0    0  503    0 -0.00000000000E+00  0.00000000000E+00  0.98922777220E+03  0.98922777220E+03  0.00000000000E+00 0. -1.
         21   -1    0    0  501  502  0.00000000000E+00 -0.00000000000E+00 -0.27865950855E+03  0.27865950855E+03  0.00000000000E+00 0.  1.
         24    2    1    2    0    0 -0.22689097449E+03  0.35483475215E+02  0.45815051715E+03  0.51872325187E+03  0.80208006752E+02 0.  0.
         23    2    1    2    0    0  0.10842751955E+03  0.42248036043E+02 -0.16500618708E+03  0.22053373987E+03  0.88694222462E+02 0.  0.
        -13    1    3    3    0    0 -0.19997134663E+03  0.16633941772E+01  0.38063388016E+03  0.42996913503E+03  0.00000000000E+00 0.  1.
         14    1    3    3    0    0 -0.26919627854E+02  0.33820081038E+02  0.77516636986E+02  0.88754116833E+02  0.00000000000E+00 0. -1.
        -11    1    4    4    0    0  0.40640373452E+02  0.54540723083E+01 -0.12910173675E+03  0.13545717143E+03  0.00000000000E+00 0.  1.
         11    1    4    4    0    0  0.67787146102E+02  0.36793963735E+02 -0.35904450335E+02  0.85076568442E+02  0.00000000000E+00 0. -1.
         21    1    1    2  503  502  0.51699434808E+02 -0.12706235379E+03  0.42372770922E+03  0.44537943920E+03  0.00000000000E+00 0. -1.
          1    1    1    2  501    0  0.66764020125E+02  0.49330842530E+02 -0.63037756294E+01  0.83250849816E+02  0.00000000000E+00 0. -1.
<scales pt_clust_5="13000.00000" pt_clust_6="13000.00000" pt_clust_7="13000.00000" pt_clust_8="13000.00000" pt_clust_9="136.27804" pt_clust_10="83.01184"></scales>
<clustering>
<clus scale="   80.208">  5  6 -1 -1</clus>
<clus scale="   83.012">  2 10  1 -1</clus>
<clus scale="   88.694">  7  8 -1 -1</clus>
<clus scale="  136.278">  1  9  2 -1</clus>
<clus scale="  200.175">  1  5  2 -1</clus>
<clus scale="   83.012">  2  5  1 -1</clus>
</clustering>
</event>
<event>
10    4  0.3738096E-005  0.2467041E+03  0.7546771E-02  0.1115921E+00
         21   -1    0    0  501  502  0.00000000000E+00  0.00000000000E+00  0.21115731198E+03  0.21115731198E+03  0.00000000000E+00 0. -1.
          2   -1    0    0  503    0 -0.00000000000E+00 -0.00000000000E+00 -0.56279307698E+03  0.56279307698E+03  0.00000000000E+00 0. -1.
         23    2    1    2    0    0  0.12518223066E+03  0.20209252671E+03 -0.11189237186E+03  0.27748591141E+03  0.89255520404E+02 0.  0.
         24    2    1    2    0    0 -0.83708084508E+02 -0.22136681233E+03 -0.66061485827E+02  0.25841959658E+03  0.80039109026E+02 0.  0.
        -13    1    4    4    0    0 -0.97153938519E+02 -0.18453632263E+03 -0.43011112039E+02  0.21293777941E+03  0.00000000000E+00 0.  1.
         14    1    4    4    0    0  0.13445854011E+02 -0.36830489694E+02 -0.23050373788E+02  0.45481817169E+02  0.00000000000E+00 0. -1.
        -13    1    3    3    0    0  0.17937068581E+02  0.74388275235E+02 -0.74049049036E+02  0.10648293565E+03  0.00000000000E+00 0.  1.
         13    1    3    3    0    0  0.10724516208E+03  0.12770425148E+03 -0.37843322823E+02  0.17100297576E+03  0.00000000000E+00 0. -1.
         21    1    1    2  503  502 -0.56637475617E+01 -0.50901065390E+02 -0.14569948315E+03  0.15443877714E+03  0.00000000000E+00 0.  1.
          1    1    1    2  501    0 -0.35810398589E+02  0.70175351001E+02 -0.27982424160E+02  0.83606103827E+02  0.00000000000E+00 0. -1.
<scales pt_clust_5="13000.00000" pt_clust_6="13000.00000" pt_clust_7="13000.00000" pt_clust_8="13000.00000" pt_clust_9="51.21520" pt_clust_10="73.10251"></scales>
<clustering>
<clus scale="   51.215">  2  9  1 -1</clus>
<clus scale="   73.103">  1 10  2 -1</clus>
<clus scale="   80.039">  5  6 -1 -1</clus>
<clus scale="   89.256">  7  8 -1 -1</clus>
<clus scale="  243.521">  1  5  2 -1</clus>
<clus scale="   73.103">  1  5  2 -1</clus>
</clustering>
</event>
<event>
10    4  0.3738096E-005  0.1138500E+03  0.7546771E-02  0.1259237E+00
          2   -1    0    0  503    0 -0.00000000000E+00  0.00000000000E+00  0.53826772895E+03  0.53826772895E+03  0.00000000000E+00 0. -1.
         21   -1    0    0  501  502  0.00000000000E+00 -0.00000000000E+00 -0.11916938390E+03  0.11916938390E+03  0.00000000000E+00 0.  1.
         24    2    1    2    0    0  0.45893637776E+02 -0.85022531324E+02  0.34181419386E+03  0.36285610454E+03  0.74111757862E+02 0.  0.
         23    2    1    2    0    0  0.45093266962E+02  0.81362730386E+02 -0.23787595141E+02  0.13153182351E+03  0.89897020493E+02 0.  0.
        -11    1    3    3    0    0 -0.15826209422E+02 -0.15609062483E+02  0.12533996722E+03  0.12729579380E+03  0.00000000000E+00 0.  1.
         12    1    3    3    0    0  0.61719847198E+02 -0.69413468841E+02  0.21647422664E+03  0.23556031074E+03  0.00000000000E+00 0. -1.
        -11    1    4    4    0    0  0.43911897005E+02  0.14705632656E+02 -0.41896466538E+02  0.62448572752E+02  0.00000000000E+00 0.  1.
         11    1    4    4    0    0  0.11813699573E+01  0.66657097729E+02  0.18108871398E+02  0.69083250763E+02  0.00000000000E+00 0. -1.
         21    1    1    2  503  502 -0.36696153106E+02  0.22299768877E+02  0.96311739654E+02  0.10545064504E+03  0.00000000000E+00 0.  1.
          1    1    1    2  501    0 -0.54290751633E+02 -0.18639967939E+02  0.47600066709E+01  0.57598539748E+02  0.00000000000E+00 0. -1.
<scales pt_clust_5="13000.00000" pt_clust_6="13000.00000" pt_clust_7="13000.00000" pt_clust_8="13000.00000" pt_clust_9="42.94051" pt_clust_10="59.40606"></scales>
<clustering>
<clus scale="   42.941">  1  9  2 -1</clus>
<clus scale="   59.406">  2 10  1 -1</clus>
<clus scale="   74.112">  5  6 -1 -1</clus>
<clus scale="   89.897">  7  8 -1 -1</clus>
<clus scale="  101.847">  1  5  2 -1</clus>
<clus scale="   59.406">  2  5  1 -1</clus>
</clustering>
</event>
<event>
10    4  0.3738096E-005  0.9088354E+02  0.7546771E-02  0.1305861E+00
         21   -1    0    0  503  502  0.00000000000E+00  0.00000000000E+00  0.56858192593E+02  0.56858192593E+02  0.00000000000E+00 0. -1.
         -1   -1    0    0    0  501 -0.00000000000E+00 -0.00000000000E+00 -0.38405700254E+03  0.38405700254E+03  0.00000000000E+00 0.  1.
         24    2    1    2    0    0 -0.41281189610E+01  0.30465685385E+02 -0.19823544281E+03  0.21627589844E+03  0.80825578296E+02 0.  0.
         23    2    1    2    0    0 -0.11608687219E+02 -0.17430498823E+02 -0.62026480274E+02  0.11061983817E+03  0.89167709593E+02 0.  0.
        -13    1    3    3    0    0 -0.34955286734E+02  0.96040968873E+01 -0.15519480187E+03  0.15937232281E+03  0.00000000000E+00 0.  1.
         14    1    3    3    0    0  0.30827167773E+02  0.20861588498E+02 -0.43040640936E+02  0.56903575632E+02  0.00000000000E+00 0. -1.
        -11    1    4    4    0    0 -0.48449180589E+02 -0.20770470203E+02 -0.47235285251E+02  0.70780701501E+02  0.00000000000E+00 0.  1.
         11    1    4    4    0    0  0.36840493370E+02  0.33399713801E+01 -0.14791195023E+02  0.39839136672E+02  0.00000000000E+00 0. -1.
         21    1    1    2  503  501 -0.58038786771E+01 -0.22356148681E+02 -0.82622157716E+02  0.85789878991E+02  0.00000000000E+00 0. -1.
         -2    1    1    2    0  502  0.21540684857E+02  0.93209621184E+01  0.15685270852E+02  0.28229579533E+02  0.00000000000E+00 0.  1.
<scales pt_clust_5="13000.00000" pt_clust_6="13000.00000" pt_clust_7="13000.00000" pt_clust_8="13000.00000" pt_clust_9="23.09724" pt_clust_10="23.17686"></scales>
<clustering>
<clus scale="   23.097">  2  9  1 -1</clus>
<clus scale="   23.177">  1 10  2 -1</clus>
<clus scale="   80.826">  5  6 -1 -1</clus>
<clus scale="   82.715">  2  5  1 -1</clus>
<clus scale="   89.168">  7  8 -1 -1</clus>
<clus scale="   23.177">  1  5  2 -1</clus>
</clustering>
</event>
<event>
10    4  0.3738096E-005  0.1231311E+03  0.7546771E-02  0.1241005E+00
         -1   -1    0    0    0  501 -0.00000000000E+00  0.00000000000E+00  0.15869409439E+03  0.15869409439E+03  0.00000000000E+00 0.  1.
         21   -1    0    0  503  502  0.00000000000E+00 -0.00000000000E+00 -0.54922169476E+03  0.54922169476E+03  0.00000000000E+00 0.  1.
         23    2    1    2    0    0  0.11036788338E+03  0.51629271453E+02 -0.35218265679E+02  0.15592849366E+03  0.90701254368E+02 0.  0.
         24    2    1    2    0    0  0.17472361238E+02 -0.94653139753E+02 -0.54292579450E+02  0.13676972799E+03  0.80583956467E+02 0.  0.
        -11    1    4    4    0    0  0.33066689336E+02 -0.73072847889E+02 -0.45324313618E+01  0.80334239129E+02  0.00000000000E+00 0.  1.
         12    1    4    4    0    0 -0.15594328098E+02 -0.21580291864E+02 -0.49760148088E+02  0.56435488866E+02  0.00000000000E+00 0. -1.
        -11    1    3    3    0    0  0.80367014251E+02  0.77919824644E+02 -0.28036902217E+02  0.11539681078E+03  0.00000000000E+00 0.  1.
         11    1    3    3    0    0  0.30000869131E+02 -0.26290553191E+02 -0.71813634618E+01  0.40531682877E+02  0.00000000000E+00 0. -1.
         21    1    1    2  503  501 -0.70708884389E+02  0.23822817687E+01  0.30007549848E+02  0.76849688652E+02  0.00000000000E+00 0.  1.
         -2    1    1    2    0  502 -0.57131360230E+02  0.40641586532E+02 -0.33102430509E+03  0.33836787885E+03  0.00000000000E+00 0.  1.
<scales pt_clust_5="13000.00000" pt_clust_6="13000.00000" pt_clust_7="13000.00000" pt_clust_8="13000.00000" pt_clust_9="77.24786" pt_clust_10="70.11227"></scales>
<clustering>
<clus scale="   70.112">  2 10  1 -1</clus>
<clus scale="   77.248">  1  9  2 -1</clus>
<clus scale="   80.584">  5  6 -1 -1</clus>
<clus scale="   90.701">  7  8 -1 -1</clus>
<clus scale="  115.881">  2  5  1 -1</clus>
<clus scale="   70.112">  2  5  1 -1</clus>
</clustering>
</event>
<event>
10    4  0.3738096E-005  0.9504424E+02  0.7546771E-02  0.1296498E+00
         -1   -1    0    0    0  501 -0.00000000000E+00  0.00000000000E+00  0.54000828813E+03  0.54000828813E+03  0.00000000000E+00 0.  1.
         21   -1    0    0  503  502  0.00000000000E+00 -0.00000000000E+00 -0.87235751712E+02  0.87235751712E+02  0.00000000000E+00 0. -1.
         23    2    1    2    0    0 -0.42090096876E+02  0.28876431260E+02  0.39435849957E+03  0.40753869747E+03  0.89239784902E+02 0.  0.
         24    2    1    2    0    0  0.24756104260E+02 -0.35290511687E+02 -0.16991599442E+02  0.91974665800E+02  0.79450234639E+02 0.  0.
        -13    1    4    4    0    0  0.25487745615E+01  0.23662092063E+02 -0.16529907659E+02  0.28976347247E+02  0.00000000000E+00 0.  1.
         14    1    4    4    0    0  0.22207329698E+02 -0.58952603750E+02 -0.46169178259E+00  0.62998318553E+02  0.00000000000E+00 0. -1.
        -13    1    3    3    0    0 -0.12256818790E+02  0.57586900249E+02  0.27410153451E+03  0.28035358372E+03  0.00000000000E+00 0. -1.
         13    1    3    3    0    0 -0.29833278085E+02 -0.28710468989E+02  0.12025696507E+03  0.12718511374E+03  0.00000000000E+00 0.  1.
         21    1    1    2  503  501  0.90933567485E+01 -0.45362380726E+02  0.53980239403E+02  0.71093607083E+02  0.00000000000E+00 0.  1.
         -2    1    1    2    0  502  0.82406358672E+01  0.51776461153E+02  0.21425396883E+02  0.56637069492E+02  0.00000000000E+00 0.  1.
<scales pt_clust_5="13000.00000" pt_clust_6="13000.00000" pt_clust_7="13000.00000" pt_clust_8="13000.00000" pt_clust_9="46.26483" pt_clust_10="48.90063"></scales>
<clustering>
<clus scale="   46.265">  1  9  2 -1</clus>
<clus scale="   48.901">  2 10  1 -1</clus>
<clus scale="   79.450">  5  6 -1 -1</clus>
<clus scale="   85.919">  2  5  1 -1</clus>
<clus scale="   89.240">  7  8 -1 -1</clus>
<clus scale="   48.901">  2  5  1 -1</clus>
</clustering>
</event>
<event>
10    4  0.3738096E-005  0.1045711E+03  0.7546771E-02  0.1276759E+00
         21   -1    0    0  503  502  0.00000000000E+00  0.00000000000E+00  0.80799709118E+02  0.80799709118E+02  0.00000000000E+00 0. -1.
         -1   -1    0    0    0  501 -0.00000000000E+00 -0.00000000000E+00 -0.70472891334E+03  0.70472891334E+03  0.00000000000E+00 0.  1.
         24    2    1    2    0    0  0.17480417166E+02 -0.29866054365E+02 -0.45805009946E+03  0.46613643369E+03  0.79219536768E+02 0.  0.
         23    2    1    2    0    0 -0.18216873230E+01  0.21652938846E+02 -0.16472851090E+02  0.95925970354E+02  0.91968846138E+02 0.  0.
        -13    1    3    3    0    0 -0.20156534766E+02 -0.31977334341E+02 -0.11572287847E+03  0.12173997046E+03  0.00000000000E+00 0.  1.
         14    1    3    3    0    0  0.37636951932E+02  0.21112799763E+01 -0.34232722099E+03  0.34439646323E+03  0.00000000000E+00 0. -1.
        -11    1    4    4    0    0 -0.42227828595E+02  0.51876727170E+01 -0.27831153137E+02  0.50839694541E+02  0.00000000000E+00 0. -1.
         11    1    4    4    0    0  0.40406141272E+02  0.16465266129E+02  0.11358302047E+02  0.45086275812E+02  0.00000000000E+00 0.  1.
         21    1    1    2  503  501  0.30989957996E+02 -0.52143775421E+01 -0.16842427947E+03  0.17133098127E+03  0.00000000000E+00 0.  1.
         -2    1    1    2    0  502 -0.46648687839E+02  0.13427493061E+02  0.19018025796E+02  0.52135237145E+02  0.00000000000E+00 0.  1.
<scales pt_clust_5="13000.00000" pt_clust_6="13000.00000" pt_clust_7="13000.00000" pt_clust_8="13000.00000" pt_clust_9="31.42558" pt_clust_10="47.57622"></scales>
<clustering>
<clus scale="   31.426">  2  9  1 -1</clus>
<clus scale="   47.576">  1 10  2 -1</clus>
<clus scale="   79.220">  5  6 -1 -1</clus>
<clus scale="   91.969">  7  8 -1 -1</clus>
<clus scale="   93.555">  2  5  1 -1</clus>
<clus scale="   47.576">  1  5  2 -1</clus>
</clustering>
</event>
<event>
10    4  0.3738096E-005  0.1810093E+03  0.7546771E-02  0.1198630E+00
          2   -1    0    0  503    0 -0.00000000000E+00  0.00000000000E+00  0.15054188916E+04  0.15054188916E+04  0.00000000000E+00 0. -1.
         21   -1    0    0  501  502  0.00000000000E+00 -0.00000000000E+00 -0.96947373648E+02  0.96947373648E+02  0.00000000000E+00 0. -1.
         24    2    1    2    0    0  0.37612224617E+02 -0.13240102456E+02  0.22917144093E+03  0.24579250467E+03  0.79400417235E+02 0.  0.
         23    2    1    2    0    0  0.90488404332E+01  0.54437275150E+02  0.45615748983E+02  0.11527141330E+03  0.90340487765E+02 0.  0.
        -13    1    3    3    0    0  0.57248174845E+02  0.51159365722E+01  0.18828065022E+03  0.19685814582E+03  0.00000000000E+00 0.  1.
         14    1    3    3    0    0 -0.19635950227E+02 -0.18356039029E+02  0.40890790714E+02  0.48934358843E+02  0.00000000000E+00 0. -1.
        -11    1    4    4    0    0 -0.21613430102E+02 -0.12693702490E+02 -0.52877819138E+01  0.25617007656E+02  0.00000000000E+00 0.  1.
         11    1    4    4    0    0  0.30662270535E+02  0.67130977640E+02  0.50903530897E+02  0.89654405642E+02  0.00000000000E+00 0. -1.
         21    1    1    2  503  502 -0.72168105534E+02  0.14317393474E+03  0.99843012310E+03  0.10112218954E+04  0.00000000000E+00 0. -1.
          1    1    1    2  501    0  0.25507040484E+02 -0.18437110744E+03  0.13525420489E+03  0.23008045183E+03  0.00000000000E+00 0. -1.
<scales pt_clust_5="13000.00000" pt_clust_6="13000.00000" pt_clust_7="13000.00000" pt_clust_8="13000.00000" pt_clust_9="13000.00000" pt_clust_10="181.00930"></scales>
<clustering>
<clus scale="   79.400">  5  6 -1 -1</clus>
<clus scale="   88.850">  1  5  2 -1</clus>
<clus scale="   90.340">  7  8 -1 -1</clus>
<clus scale="  105.664">  1  7  2 -1</clus>
<clus scale="  181.009">  2 10  1 -1</clus>
<clus scale="  181.009">  2  5  1 -1</clus>
</clustering>
</event>
<event>
10    4  0.3738096E-005  0.1199625E+03  0.7546771E-02  0.1246152E+00
         21   -1    0    0  501  502  0.00000000000E+00  0.00000000000E+00  0.40716079945E+02  0.40716079945E+02  0.00000000000E+00 0.  1.
          2   -1    0    0  503    0 -0.00000000000E+00 -0.00000000000E+00 -0.10258656271E+04  0.10258656271E+04  0.00000000000E+00 0. -1.
         24    2    1    2    0    0 -0.66038010623E+02 -0.44412673565E+02 -0.41138298044E+03  0.42691069700E+03  0.81751343692E+02 0.  0.
         23    2    1    2    0    0 -0.62045485613E+01  0.68671008154E+02 -0.12165663640E+03  0.16695268702E+03  0.91206681432E+02 0.  0.
        -11    1    3    3    0    0 -0.58842752549E+02  0.95442535906E+01 -0.20904614088E+03  0.21737950989E+03  0.00000000000E+00 0.  1.
         12    1    3    3    0    0 -0.71952580733E+01 -0.53956927155E+02 -0.20233683956E+03  0.20953118711E+03  0.00000000000E+00 0. -1.
        -11    1    4    4    0    0  0.11505738730E+02  0.85483143585E+02 -0.75039618272E+02  0.11432713664E+03  0.00000000000E+00 0.  1.
         11    1    4    4    0    0 -0.17710287292E+02 -0.16812135430E+02 -0.46617018130E+02  0.52625550382E+02  0.00000000000E+00 0. -1.
         21    1    1    2  503  502  0.44962641173E+02 -0.65197138071E+02 -0.35653528747E+03  0.36522557020E+03  0.00000000000E+00 0.  1.
          1    1    1    2  501    0  0.27279918011E+02  0.40938803482E+02 -0.95574642840E+02  0.10749275283E+03  0.00000000000E+00 0. -1.
<scales pt_clust_5="13000.00000" pt_clust_6="13000.00000" pt_clust_7="13000.00000" pt_clust_8="13000.00000" pt_clust_9="77.13273" pt_clust_10="49.19532"></scales>
<clustering>
<clus scale="   49.195">  1 10  2 -1</clus>
<clus scale="   77.133">  2  9  1 -1</clus>
<clus scale="   81.751">  5  6 -1 -1</clus>
<clus scale="   91.207">  7  8 -1 -1</clus>
<clus scale="  112.941">  2  5  1 -1</clus>
<clus scale="   49.195">  1  5  2 -1</clus>
</clustering>
</event>
<event>
10    4  0.3738096E-005  0.1778383E+03  0.7546771E-02  0.1171474E+00
          2   -1    0    0  503    0 -0.00000000000E+00  0.00000000000E+00  0.22230833462E+03  0.22230833462E+03  0.00000000000E+00 0. -1.
         21   -1    0    0  501  502  0.00000000000E+00 -0.00000000000E+00 -0.32819702309E+03  0.32819702309E+03  0.00000000000E+00 0.  1.
         24    2    1    2    0    0 -0.12642662917E+03  0.23508158402E+02  0.69219640896E+02  0.16641951649E+03  0.79798312699E+02 0.  0.
         23    2    1    2    0    0  0.16343519206E+03 -0.81232580939E+02 -0.14529102094E+03  0.25092913310E+03  0.92445415602E+02 0.  0.
        -11    1    3    3    0    0 -0.44495650632E+02 -0.11901237794E+02 -0.99380156330E+01  0.47119704381E+02  0.00000000000E+00 0.  1.
         12    1    3    3    0    0 -0.81930978537E+02  0.35409396196E+02  0.79157656529E+02  0.11929981211E+03  0.00000000000E+00 0. -1.
        -11    1    4    4    0    0  0.12665571317E+03 -0.10171931966E+03 -0.11741547527E+03  0.20043673192E+03  0.00000000000E+00 0.  1.
         11    1    4    4    0    0  0.36779478889E+02  0.20486738722E+02 -0.27875545670E+02  0.50492401183E+02  0.00000000000E+00 0. -1.
         21    1    1    2  503  502 -0.21278291668E+02  0.18969519857E+02  0.41578229453E+02  0.50411879001E+02  0.00000000000E+00 0. -1.
          1    1    1    2  501    0 -0.15730271218E+02  0.38754902680E+02 -0.71395537886E+02  0.82744829109E+02  0.00000000000E+00 0. -1.
<scales pt_clust_5="13000.00000" pt_clust_6="13000.00000" pt_clust_7="13000.00000" pt_clust_8="13000.00000" pt_clust_9="28.50629" pt_clust_10="42.65083"></scales>
<clustering>
<clus scale="   28.506">  1  9  2 -1</clus>
<clus scale="   42.651">  2 10  1 -1</clus>
<clus scale="   79.798">  5  6 -1 -1</clus>
<clus scale="   92.445">  7  8 -1 -1</clus>
<clus scale="  171.604">  1  5  2 -1</clus>
<clus scale="   42.651">  2  5  1 -1</clus>
</clustering>
</event>
<event>
10    4  0.3738096E-005  0.2125530E+03  0.7546771E-02  0.1140129E+00
          2   -1    0    0  503    0 -0.00000000000E+00  0.00000000000E+00  0.15403638917E+04  0.15403638917E+04  0.00000000000E+00 0. -1.
         21   -1    0    0  501  502  0.00000000000E+00 -0.00000000000E+00 -0.66599708377E+02  0.66599708377E+02  0.00000000000E+00 0. -1.
         23    2    1    2    0    0 -0.18915197411E+01 -0.19237805775E+03  0.11223819498E+04  0.11424985935E+04  0.92460261710E+02 0.  0.
         24    2    1    2    0    0 -0.29790775437E+02  0.18654894361E+03  0.18064121141E+03  0.27503782584E+03  0.85595325347E+02 0.  0.
        -13    1    4    4    0    0 -0.32352651639E+02  0.96779239550E+02  0.14740327245E+03  0.17927810799E+03  0.00000000000E+00 0.  1.
         14    1    4    4    0    0  0.25618762025E+01  0.89769704058E+02  0.33237938959E+02  0.95759717850E+02  0.00000000000E+00 0. -1.
        -13    1    3    3    0    0 -0.45658606510E+02 -0.12484397659E+03  0.71039941099E+03  0.72272958288E+03  0.00000000000E+00 0. -1.
         13    1    3    3    0    0  0.43767086768E+02 -0.67534081157E+02  0.41198253882E+03  0.41976901064E+03  0.00000000000E+00 0.  1.
         21    1    1    2  503  502  0.38284997360E+02 -0.28022913385E+02  0.10351228011E+03  0.11386754073E+03  0.00000000000E+00 0. -1.
          1    1    1    2  501    0 -0.66027021821E+01  0.33852027528E+02  0.67228741947E+02  0.75559639939E+02  0.00000000000E+00 0. -1.
<scales pt_clust_5="13000.00000" pt_clust_6="13000.00000" pt_clust_7="13000.00000" pt_clust_8="13000.00000" pt_clust_9="45.38656" pt_clust_10="34.48993"></scales>
<clustering>
<clus scale="   34.490">  2 10  1 -1</clus>
<clus scale="   45.387">  2  9  1 -1</clus>
<clus scale="   85.595">  5  6 -1 -1</clus>
<clus scale="   92.460">  7  8 -1 -1</clus>
<clus scale="  209.658">  2  5  1 -1</clus>
<clus scale="   34.490">  2  5  1 -1</clus>
</clustering>
</event>
<event>
10    4  0.3738096E-005  0.1007033E+03  0.7546771E-02  0.1282673E+00
         -3   -1    0    0    0  501 -0.00000000000E+00  0.00000000000E+00  0.26767203743E+03  0.26767203743E+03  0.00000000000E+00 0.  1.
         21   -1    0    0  503  502  0.00000000000E+00 -0.00000000000E+00 -0.55834361141E+03  0.55834361141E+03  0.00000000000E+00 0.  1.
         23    2    1    2    0    0  0.91903240024E+01 -0.65856739042E+02  0.78445976984E+02  0.13797583291E+03  0.91989059292E+02 0.  0.
         24    2    1    2    0    0  0.28387734728E+02  0.25270508142E+02 -0.24997130600E+03  0.26648021863E+03  0.84152189716E+02 0.  0.
        -13    1    4    4    0    0  0.57364068991E+02  0.21352416835E+02 -0.19251851046E+03  0.20201469993E+03  0.00000000000E+00 0.  1.
         14    1    4    4    0    0 -0.28976334263E+02  0.39180913064E+01 -0.57452795534E+02  0.64465518702E+02  0.00000000000E+00 0. -1.
        -13    1    3    3    0    0 -0.18011689843E+02 -0.65934671208E+02  0.16490554520E+02  0.70311736053E+02  0.00000000000E+00 0.  1.
         13    1    3    3    0    0  0.27202013845E+02  0.77932166830E-01  0.61955422464E+02  0.67664096856E+02  0.00000000000E+00 0. -1.
         21    1    1    2  503  501  0.29808276473E+01  0.26651064632E+02  0.14829569585E+03  0.15070095550E+03  0.00000000000E+00 0. -1.
         -4    1    1    2    0  502 -0.40558886378E+02  0.13935166268E+02 -0.26744194082E+03  0.27085864180E+03  0.00000000000E+00 0.  1.
<scales pt_clust_5="13000.00000" pt_clust_6="13000.00000" pt_clust_7="13000.00000" pt_clust_8="13000.00000" pt_clust_9="26.81724" pt_clust_10="42.97214"></scales>
<clustering>
<clus scale="   26.817">  1  9  2 -1</clus>
<clus scale="   42.972">  2 10  1 -1</clus>
<clus scale="   84.152">  5  6 -1 -1</clus>
<clus scale="   91.989">  7  8 -1 -1</clus>
<clus scale="   93.599">  2  5  1 -1</clus>
<clus scale="   42.972">  2  5  1 -1</clus>
</clustering>
</event>
<event>
10    4  0.3738096E-005  0.1490722E+03  0.7546771E-02  0.1202882E+00
         21   -1    0    0  501  502  0.00000000000E+00  0.00000000000E+00  0.31433941204E+03  0.31433941204E+03  0.00000000000E+00 0.  1.
          2   -1    0    0  503    0 -0.00000000000E+00 -0.00000000000E+00 -0.49739855773E+03  0.49739855773E+03  0.00000000000E+00 0. -1.
         23    2    1    2    0    0  0.14529368688E+03 -0.65200727087E+01 -0.37977086774E+03  0.41655512304E+03  0.90219131853E+02 0.  0.
         24    2    1    2    0    0 -0.75262097453E+02 -0.55286560455E+01  0.64931840373E+02  0.12987321917E+03  0.83402396918E+02 0.  0.
        -11    1    4    4    0    0 -0.67566601303E+02 -0.39067201270E+02  0.43984529121E+02  0.89588674668E+02  0.00000000000E+00 0.  1.
         12    1    4    4    0    0 -0.76954961497E+01  0.33538545224E+02  0.20947311252E+02  0.40284544498E+02  0.00000000000E+00 0. -1.
        -13    1    3    3    0    0  0.13454397912E+03  0.20514104233E+02 -0.34698803910E+03  0.37272457669E+03  0.00000000000E+00 0. -1.
         13    1    3    3    0    0  0.10749707757E+02 -0.27034176942E+02 -0.32782828643E+02  0.43830546353E+02  0.00000000000E+00 0.  1.
         21    1    1    2  503  502 -0.21184788683E+02  0.94915876277E+01 -0.61605563492E+02  0.65834116994E+02  0.00000000000E+00 0.  1.
          1    1    1    2  501    0 -0.48846800740E+02  0.25571411265E+01  0.19338544517E+03  0.19947551057E+03  0.00000000000E+00 0. -1.
<scales pt_clust_5="13000.00000" pt_clust_6="13000.00000" pt_clust_7="13000.00000" pt_clust_8="13000.00000" pt_clust_9="23.21391" pt_clust_10="49.06575"></scales>
<clustering>
<clus scale="   23.214">  2  9  1 -1</clus>
<clus scale="   49.066">  1 10  2 -1</clus>
<clus scale="   83.402">  5  6 -1 -1</clus>
<clus scale="   90.219">  7  8 -1 -1</clus>
<clus scale="  145.048">  1  5  2 -1</clus>
<clus scale="   49.066">  1  5  2 -1</clus>
</clustering>
</event>
<event>
10    4  0.3738096E-005  0.2078166E+03  0.7546771E-02  0.1176571E+00
         21   -1    0    0  501  502  0.00000000000E+00  0.00000000000E+00  0.15417285772E+03  0.15417285772E+03  0.00000000000E+00 0. -1.
          2   -1    0    0  503    0 -0.00000000000E+00 -0.00000000000E+00 -0.52798538592E+03  0.52798538592E+03  0.00000000000E+00 0. -1.
         23    2    1    2    0    0  0.16006192504E+02  0.38324419221E+02 -0.12321843081E+03  0.15824132057E+03  0.90180788078E+02 0.  0.
         24    2    1    2    0    0  0.44522558275E+02 -0.19672218123E+03 -0.84183188367E+02  0.23255225406E+03  0.79447258480E+02 0.  0.
        -13    1    4    4    0    0  0.46780723784E+02 -0.13862526445E+03 -0.22916904469E+02  0.14808978551E+03  0.00000000000E+00 0.  1.
         14    1    4    4    0    0 -0.22581655095E+01 -0.58096916788E+02 -0.61266283898E+02  0.84462468555E+02  0.00000000000E+00 0. -1.
        -11    1    3    3    0    0  0.42581249455E+02  0.22303188743E+02 -0.22921986662E+02  0.53254225239E+02  0.00000000000E+00 0.  1.
         11    1    3    3    0    0 -0.26575056951E+02  0.16021230478E+02 -0.10029644415E+03  0.10498709533E+03  0.00000000000E+00 0. -1.
         21    1    1    2  503  502 -0.26433780974E+02 -0.21806870747E+02 -0.83177063258E+02  0.89959481104E+02  0.00000000000E+00 0. -1.
          1    1    1    2  501    0 -0.34094969805E+02  0.18020463276E+03 -0.83233845767E+02  0.20140518791E+03  0.00000000000E+00 0. -1.
<scales pt_clust_5="13000.00000" pt_clust_6="13000.00000" pt_clust_7="13000.00000" pt_clust_8="13000.00000" pt_clust_9="34.26783" pt_clust_10="192.03095"></scales>
<clustering>
<clus scale="   34.268">  2  9  1 -1</clus>
<clus scale="   79.447">  5  6 -1 -1</clus>
<clus scale="   90.181">  7  8 -1 -1</clus>
<clus scale="   95.782">  2  7  1 -1</clus>
<clus scale="  192.031">  1 10  2 -1</clus>
<clus scale="  192.031">  1  5  2 -1</clus>
</clustering>
</event>
<event>
10    4  0.3738096E-005  0.2189654E+03  0.7546771E-02  0.1141767E+00
          2   -1    0    0  503    0 -0.00000000000E+00  0.00000000000E+00  0.79176994153E+03  0.79176994153E+03  0.00000000000E+00 0. -1.
         21   -1    0    0  501  502  0.00000000000E+00 -0.00000000000E+00 -0.47539593623E+03  0.47539593623E+03  0.00000000000E+00 0. -1.
         24    2    1    2    0    0 -0.36825030297E+01 -0.18220805796E+03  0.22793232787E+03  0.30290527879E+03  0.81148780748E+02 0.  0.
         23    2    1    2    0    0 -0.24371647173E+03  0.61867775633E+02 -0.22167291590E+03  0.34675990902E+03  0.88759295884E+02 0.  0.
        -13    1    3    3    0    0  0.20617338309E+02 -0.21780669659E+02  0.71433105094E+02  0.77473613012E+02  0.00000000000E+00 0.  1.
         14    1    3    3    0    0 -0.24299841339E+02 -0.16042738830E+03  0.15649922277E+03  0.22543166578E+03  0.00000000000E+00 0. -1.
        -11    1    4    4    0    0 -0.78429628159E+02  0.22705360873E+02 -0.13059851671E+03  0.15402179246E+03  0.00000000000E+00 0.  1.
         11    1    4    4    0    0 -0.16528684357E+03  0.39162414759E+02 -0.91074399191E+02  0.19273811656E+03  0.00000000000E+00 0. -1.
         21    1    1    2  503  502  0.86540340691E+02  0.38298341528E+02  0.40333275635E+03  0.41428650216E+03  0.00000000000E+00 0. -1.
          1    1    1    2  501    0  0.16085863407E+03  0.82041940801E+02 -0.93218163010E+02  0.20321418779E+03  0.00000000000E+00 0. -1.
<scales pt_clust_5="13000.00000" pt_clust_6="13000.00000" pt_clust_7="13000.00000" pt_clust_8="13000.00000" pt_clust_9="94.63611" pt_clust_10="200.16901"></scales>
<clustering>
<clus scale="   81.149">  5  6 -1 -1</clus>
<clus scale="   88.759">  7  8 -1 -1</clus>
<clus scale="   94.636">  1  9  2 -1</clus>
<clus scale="  184.352">  1  5  2 -1</clus>
<clus scale="  200.169">  2 10  1 -1</clus>
<clus scale="  200.169">  2  5  1 -1</clus>
</clustering>
</event>
<event>
10    4  0.3738096E-005  0.1044999E+03  0.7546771E-02  0.1274439E+00
         21   -1    0    0  501  502  0.00000000000E+00  0.00000000000E+00  0.19109335110E+03  0.19109335110E+03  0.00000000000E+00 0. -1.
          2   -1    0    0  503    0 -0.00000000000E+00 -0.00000000000E+00 -0.33434453302E+03  0.33434453302E+03  0.00000000000E+00 0. -1.
         23    2    1    2    0    0 -0.24642585464E+02  0.21777457323E+02 -0.27506850798E+02  0.97575376285E+02  0.87651654580E+02 0.  0.
         24    2    1    2    0    0  0.11691417179E+03 -0.45093948695E+01  0.97740606802E+02  0.17207800709E+03  0.79801980545E+02 0.  0.
        -13    1    4    4    0    0  0.99942615237E+01 -0.25825679644E+02  0.33941963715E+01  0.27899311130E+02  0.00000000000E+00 0.  1.
         14    1    4    4    0    0  0.10691991026E+03  0.21316284775E+02  0.94346410431E+02  0.14417869596E+03  0.00000000000E+00 0. -1.
        -13    1    3    3    0    0 -0.75408368379E+01 -0.34212775338E+02 -0.89167428417E+01  0.36150885459E+02  0.00000000000E+00 0. -1.
         13    1    3    3    0    0 -0.17101748626E+02  0.55990232661E+02 -0.18590107957E+02  0.61424490826E+02  0.00000000000E+00 0.  1.
         21    1    1    2  503  502 -0.38130685213E+02 -0.49732190358E+02 -0.16402307219E+03  0.17558703860E+03  0.00000000000E+00 0. -1.
          1    1    1    2  501    0 -0.54140901111E+02  0.32464127905E+02 -0.49461865736E+02  0.80197462153E+02  0.00000000000E+00 0. -1.
<scales pt_clust_5="13000.00000" pt_clust_6="13000.00000" pt_clust_7="13000.00000" pt_clust_8="13000.00000" pt_clust_9="62.66769" pt_clust_10="70.35178"></scales>
<clustering>
<clus scale="   62.668">  2  9  1 -1</clus>
<clus scale="   70.352">  1 10  2 -1</clus>
<clus scale="   79.802">  5  6 -1 -1</clus>
<clus scale="   87.652">  7  8 -1 -1</clus>
<clus scale="   98.009">  1  5  2 -1</clus>
<clus scale="   70.352">  1  5  2 -1</clus>
</clustering>
</event>
<event>
10    4  0.3738096E-005  0.1002624E+03  0.7546771E-02  0.1288027E+00
          2   -1    0    0  503    0 -0.00000000000E+00  0.00000000000E+00  0.81740857184E+03  0.81740857184E+03  0.00000000000E+00 0. -1.
         21   -1    0    0  501  502  0.00000000000E+00 -0.00000000000E+00 -0.10553398136E+03  0.10553398136E+03  0.00000000000E+00 0. -1.
         24    2    1    2    0    0 -0.58381836294E+01 -0.84217264919E+01  0.63684081376E+03  0.64169887399E+03  0.78142260964E+02 0.  0.
         23    2    1    2    0    0 -0.46721622609E+02  0.12710871431E+02 -0.12284851440E+01  0.10562172799E+03  0.93861408341E+02 0.  0.
        -13    1    3    3    0    0 -0.24999539245E+02 -0.30485142940E+01  0.68062799372E+02  0.72572825908E+02  0.00000000000E+00 0.  1.
         14    1    3    3    0    0  0.19161355616E+02 -0.53732121979E+01  0.56877801439E+03  0.56912604809E+03  0.00000000000E+00 0. -1.
        -11    1    4    4    0    0 -0.17583258614E+02 -0.36467936714E+02  0.19344075308E+02  0.44869529095E+02  0.00000000000E+00 0. -1.
         11    1    4    4    0    0 -0.29138363995E+02  0.49178808145E+02 -0.20572560452E+02  0.60752198894E+02  0.00000000000E+00 0.  1.
         21    1    1    2  503  502  0.20074207044E+02 -0.27802264653E+02  0.11491618423E+03  0.11992359695E+03  0.00000000000E+00 0. -1.
          1    1    1    2  501    0  0.32485599194E+02  0.23513119714E+02 -0.38653922368E+02  0.55698354267E+02  0.00000000000E+00 0. -1.
<scales pt_clust_5="13000.00000" pt_clust_6="13000.00000" pt_clust_7="13000.00000" pt_clust_8="13000.00000" pt_clust_9="34.29198" pt_clust_10="40.10382"></scales>
<clustering>
<clus scale="   34.292">  1  9  2 -1</clus>
<clus scale="   40.104">  2 10  1 -1</clus>
<clus scale="   78.142">  5  6 -1 -1</clus>
<clus scale="   85.725">  1  5  2 -1</clus>
<clus scale="   93.861">  7  8 -1 -1</clus>
<clus scale="   40.104">  2  5  1 -1</clus>
</clustering>
</event>
<event>
10    4  0.3738096E-005  0.1602600E+03  0.7546771E-02  0.1191899E+00
          2   -1    0    0  503    0 -0.00000000000E+00  0.00000000000E+00  0.28028410304E+03  0.28028410304E+03  0.00000000000E+00 0. -1.
         21   -1    0    0  501  502  0.00000000000E+00 -0.00000000000E+00 -0.33041555408E+03  0.33041555408E+03  0.00000000000E+00 0.  1.
         23    2    1    2    0    0  0.17622325126E+02  0.10500620061E+03  0.12573598345E+03  0.18788128580E+03  0.90293917349E+02 0.  0.
         24    2    1    2    0    0  0.12605631941E+03 -0.48489955734E+02 -0.15349853456E+03  0.22057127367E+03  0.82755152013E+02 0.  0.
        -11    1    4    4    0    0  0.13458372691E+03 -0.53500185403E+02 -0.15298984504E+03  0.21066784774E+03  0.00000000000E+00 0.  1.
         12    1    4    4    0    0 -0.85274075016E+01  0.50102296687E+01 -0.50868952294E+00  0.99034259255E+01  0.00000000000E+00 0. -1.
        -13    1    3    3    0    0 -0.28081372369E+02  0.85242716149E+02  0.78144454661E+02  0.11900184841E+03  0.00000000000E+00 0. -1.
         13    1    3    3    0    0  0.45703697495E+02  0.19763484461E+02  0.47591528794E+02  0.68879437394E+02  0.00000000000E+00 0.  1.
         21    1    1    2  503  502  0.17604360140E+02  0.15931813782E+02  0.17234350267E+01  0.23805596287E+02  0.00000000000E+00 0. -1.
          1    1    1    2  501    0 -0.16128300468E+03 -0.72448058658E+02 -0.24092334960E+02  0.17844150135E+03  0.00000000000E+00 0. -1.
<scales pt_clust_5="13000.00000" pt_clust_6="13000.00000" pt_clust_7="13000.00000" pt_clust_8="13000.00000" pt_clust_9="23.74313" pt_clust_10="137.24023"></scales>
<clustering>
<clus scale="   23.743">  1  9  2 -1</clus>
<clus scale="   82.755">  5  6 -1 -1</clus>
<clus scale="   90.294">  7  8 -1 -1</clus>
<clus scale="  148.352">  1  7  2 -1</clus>
<clus scale="  137.240">  2 10  1 -1</clus>
<clus scale="  137.240">  2  5  1 -1</clus>
</clustering>
</event>
<event>
10    4  0.3738096E-005  0.9499263E+02  0.7546771E-02  0.1298665E+00
          4   -1    0    0  503    0 -0.00000000000E+00  0.00000000000E+00  0.82649117927E+03  0.82649117927E+03  0.00000000000E+00 0. -1.
         21   -1    0    0  501  502  0.00000000000E+00 -0.00000000000E+00 -0.12121734489E+03  0.12121734489E+03  0.00000000000E+00 0. -1.
         24    2    1    2    0    0 -0.72239040691E+00  0.60426270335E+02  0.38184553113E+03  0.39494703490E+03  0.80779296488E+02 0.  0.
         23    2    1    2    0    0 -0.35599022076E+02  0.51788779701E+02  0.32630579086E+03  0.34516430635E+03  0.93346457637E+02 0.  0.
        -11    1    3    3    0    0  0.29895706149E+02  0.10777369247E+02  0.60380977251E+02  0.68233183627E+02  0.00000000000E+00 0.  1.
         12    1    3    3    0    0 -0.30618096556E+02  0.49648901088E+02  0.32146455388E+03  0.32671385128E+03  0.00000000000E+00 0. -1.
        -11    1    4    4    0    0 -0.53571957766E+02 -0.31318698948E+01  0.18106408953E+03  0.18884906085E+03  0.00000000000E+00 0.  1.
         11    1    4    4    0    0  0.17972935690E+02  0.54920649596E+02  0.14524170133E+03  0.15631524550E+03  0.00000000000E+00 0. -1.
         21    1    1    2  503  502  0.74945840756E+01 -0.39832372642E+02  0.82558059379E+02  0.91970755510E+02  0.00000000000E+00 0.  1.
          3    1    1    2  501    0  0.28826828407E+02 -0.72382677394E+02 -0.85435546988E+02  0.11562642739E+03  0.00000000000E+00 0. -1.
<scales pt_clust_5="13000.00000" pt_clust_6="13000.00000" pt_clust_7="13000.00000" pt_clust_8="13000.00000" pt_clust_9="40.53131" pt_clust_10="78.72419"></scales>
<clustering>
<clus scale="   40.531">  1  9  2 -1</clus>
<clus scale="   78.724">  2 10  1 -1</clus>
<clus scale="   80.779">  5  6 -1 -1</clus>
<clus scale="   82.676">  1  5  2 -1</clus>
<clus scale="   93.346">  7  8 -1 -1</clus>
<clus scale="   78.724">  2  5  1 -1</clus>
</clustering>
</event>
<event>
10    4  0.3738096E-005  0.2526874E+03  0.7546771E-02  0.1137417E+00
         21   -1    0    0  503  502  0.00000000000E+00  0.00000000000E+00  0.17981953150E+03  0.17981953150E+03  0.00000000000E+00 0.  1.
         -1   -1    0    0    0  501 -0.00000000000E+00 -0.00000000000E+00 -0.21202094908E+04  0.21202094908E+04  0.00000000000E+00 0.  1.
         24    2    1    2    0    0  0.21073113401E+03  0.99345308932E+02 -0.18570774648E+03  0.30802558210E+03  0.78200325281E+02 0.  0.
         23    2    1    2    0    0 -0.98785615149E+02 -0.85046934574E+02  0.17989951442E+02  0.15964641222E+03  0.90397786143E+02 0.  0.
        -13    1    3    3    0    0  0.16136812494E+03  0.81647240829E+02 -0.97627074341E+02  0.20551639673E+03  0.00000000000E+00 0.  1.
         14    1    3    3    0    0  0.49363009071E+02  0.17698068103E+02 -0.88080672141E+02  0.10250918536E+03  0.00000000000E+00 0. -1.
        -13    1    4    4    0    0 -0.10715242237E+03 -0.57837880209E+02  0.34731385831E+02  0.12662200113E+03  0.00000000000E+00 0.  1.
         13    1    4    4    0    0  0.83668072222E+01 -0.27209054365E+02 -0.16741434388E+02  0.33024411091E+02  0.00000000000E+00 0. -1.
         21    1    1    2  503  501 -0.24441255481E+03  0.98012760363E-02 -0.15757676821E+04  0.15946100731E+04  0.00000000000E+00 0.  1.
         -2    1    1    2    0  502  0.13246703594E+03 -0.14308175635E+02 -0.19690448216E+03  0.23774695497E+03  0.00000000000E+00 0.  1.
<scales pt_clust_5="13000.00000" pt_clust_6="13000.00000" pt_clust_7="13000.00000" pt_clust_8="13000.00000" pt_clust_9="240.28241" pt_clust_10="133.23753"></scales>
<clustering>
<clus scale="   78.200">  5  6 -1 -1</clus>
<clus scale="   90.398">  7  8 -1 -1</clus>
<clus scale="  133.238">  1 10  2 -1</clus>
<clus scale="  133.238">  1  7  2 -1</clus>
<clus scale="  240.282">  2  9  1 -1</clus>
<clus scale="  133.238">  1  5  2 -1</clus>
</clustering>
</event>
<event>
10    4  0.3738096E-005  0.1040887E+03  0.7546771E-02  0.1278123E+00
          2   -1    0    0  503    0 -0.00000000000E+00  0.00000000000E+00  0.39269218424E+03  0.39269218424E+03  0.00000000000E+00 0. -1.
         21   -1    0    0  501  502  0.00000000000E+00 -0.00000000000E+00 -0.65748281958E+02  0.65748281958E+02  0.00000000000E+00 0. -1.
         23    2    1    2    0    0  0.66818956134E+02  0.23672919146E+02  0.12437126350E+03  0.17168684582E+03  0.94778593809E+02 0.  0.
         24    2    1    2    0    0 -0.25226718068E+02  0.15980265349E+02  0.58052768999E+02  0.10465152935E+03  0.81792801769E+02 0.  0.
        -11    1    4    4    0    0  0.20867908094E+02 -0.14687096071E+02  0.37988716054E+02  0.45763773081E+02  0.00000000000E+00 0.  1.
         12    1    4    4    0    0 -0.46094626162E+02  0.30667361420E+02  0.20064052945E+02  0.58887756266E+02  0.00000000000E+00 0. -1.
        -11    1    3    3    0    0 -0.16841304263E+02  0.24595853727E+02  0.56783217486E+02  0.64132046107E+02  0.00000000000E+00 0.  1.
         11    1    3    3    0    0  0.83660260397E+02 -0.92293458075E+00  0.67588046016E+02  0.10755479972E+03  0.00000000000E+00 0. -1.
         21    1    1    2  503  502 -0.29444914058E+02 -0.68641595359E+02  0.75198641217E+02  0.10598824094E+03  0.00000000000E+00 0. -1.
          1    1    1    2  501    0 -0.12147324008E+02  0.28988410864E+02  0.69321228562E+02  0.76113850082E+02  0.00000000000E+00 0. -1.
<scales pt_clust_5="13000.00000" pt_clust_6="13000.00000" pt_clust_7="13000.00000" pt_clust_8="13000.00000" pt_clust_9="69.51935" pt_clust_10="31.43066"></scales>
<clustering>
<clus scale="   31.431">  2 10  1 -1</clus>
<clus scale="   69.519">  1  9  2 -1</clus>
<clus scale="   81.793">  5  6 -1 -1</clus>
<clus scale="   92.420">  2  5  1 -1</clus>
<clus scale="   94.779">  7  8 -1 -1</clus>
<clus scale="   31.431">  2  5  1 -1</clus>
</clustering>
</event>
<event>
10    4  0.3738096E-005  0.1046937E+03  0.7546771E-02  0.1273038E+00
         21   -1    0    0  501  502  0.00000000000E+00  0.00000000000E+00  0.18518372984E+03  0.18518372984E+03  0.00000000000E+00 0.  1.
          4   -1    0    0  503    0 -0.00000000000E+00 -0.00000000000E+00 -0.30336613865E+03  0.30336613865E+03  0.00000000000E+00 0. -1.
         24    2    1    2    0    0  0.63864504999E+02  0.21210755543E+02 -0.16360448383E+03  0.19583237115E+03  0.83995948180E+02 0.  0.
         23    2    1    2    0    0 -0.16557303037E+01  0.70083532703E+01  0.45472894240E+02  0.10055025584E+03  0.89390779062E+02 0.  0.
        -13    1    3    3    0    0  0.50540973329E+02 -0.27027061643E+02 -0.80387351709E+02  0.98726786441E+02  0.00000000000E+00 0.  1.
         14    1    3    3    0    0  0.13323531671E+02  0.48237817186E+02 -0.83217132119E+02  0.97105584706E+02  0.00000000000E+00 0. -1.
        -11    1    4    4    0    0  0.25818854596E+02  0.36838014838E+02  0.38890081018E+02  0.59465040078E+02  0.00000000000E+00 0.  1.
         11    1    4    4    0    0 -0.27474584900E+02 -0.29829661568E+02  0.65828132222E+01  0.41085215767E+02  0.00000000000E+00 0. -1.
         21    1    1    2  503  502 -0.19970765119E+02  0.45084820488E+02 -0.67762666358E+02  0.83804841446E+02  0.00000000000E+00 0. -1.
          3    1    1    2  501    0 -0.42238009577E+02 -0.73303929301E+02  0.67711847139E+02  0.10836240006E+03  0.00000000000E+00 0. -1.
<scales pt_clust_5="13000.00000" pt_clust_6="13000.00000" pt_clust_7="13000.00000" pt_clust_8="13000.00000" pt_clust_9="49.30996" pt_clust_10="82.08083"></scales>
<clustering>
<clus scale="   49.310">  2  9  1 -1</clus>
<clus scale="   82.081">  1 10  2 -1</clus>
<clus scale="   83.996">  5  6 -1 -1</clus>
<clus scale="   89.391">  7  8 -1 -1</clus>
<clus scale="  100.127">  2  5  1 -1</clus>
<clus scale="   82.081">  1  5  2 -1</clus>
</clustering>
</event>
<event>
10    4  0.3738096E-005  0.1167641E+03  0.7546771E-02  0.1262822E+00
          2   -1    0    0  503    0 -0.00000000000E+00  0.00000000000E+00  0.13697569266E+04  0.13697569266E+04  0.00000000000E+00 0. -1.
         21   -1    0    0  501  502  0.00000000000E+00 -0.00000000000E+00 -0.41584215319E+02  0.41584215319E+02  0.00000000000E+00 0. -1.
         24    2    1    2    0    0  0.11260480261E+02 -0.40571673141E+02  0.35251654132E+02  0.95085317083E+02  0.77625249298E+02 0.  0.
         23    2    1    2    0    0 -0.70832205907E+01 -0.59934753317E+02  0.59769818257E+03  0.60772231243E+03  0.91874615111E+02 0.  0.
        -11    1    3    3    0    0  0.34378629435E+02  0.68097759319E+01  0.19274004801E+02  0.39996880768E+02  0.00000000000E+00 0.  1.
         12    1    3    3    0    0 -0.23118149174E+02 -0.47381449073E+02  0.15977649331E+02  0.55088436315E+02  0.00000000000E+00 0. -1.
        -11    1    4    4    0    0 -0.23754056143E+02  0.18070669478E+02  0.14317247848E+03  0.14625034316E+03  0.00000000000E+00 0.  1.
         11    1    4    4    0    0  0.16670835553E+02 -0.78005422795E+02  0.45452570409E+03  0.46147196927E+03  0.00000000000E+00 0. -1.
         21    1    1    2  503  502  0.41140290831E+02  0.24977142012E+02  0.21793198487E+03  0.22318317854E+03  0.00000000000E+00 0. -1.
          1    1    1    2  501    0 -0.45317550501E+02  0.75529284446E+02  0.47729088968E+03  0.48535033384E+03  0.00000000000E+00 0. -1.
<scales pt_clust_5="13000.00000" pt_clust_6="13000.00000" pt_clust_7="13000.00000" pt_clust_8="13000.00000" pt_clust_9="48.12880" pt_clust_10="72.06194"></scales>
<clustering>
<clus scale="   48.129">  1  9  2 -1</clus>
<clus scale="   77.625">  5  6 -1 -1</clus>
<clus scale="   87.998">  1  5  2 -1</clus>
<clus scale="   72.062">  2 10  1 -1</clus>
<clus scale="   91.875">  7  8 -1 -1</clus>
<clus scale="   72.062">  2  5  1 -1</clus>
</clustering>
</event>
<event>
10    4  0.3738096E-005  0.3694537E+03  0.7546771E-02  0.1055208E+00
         21   -1    0    0  503  502  0.00000000000E+00  0.00000000000E+00  0.46296064325E+03  0.46296064325E+03  0.00000000000E+00 0.  1.
         -1   -1    0    0    0  501 -0.00000000000E+00 -0.00000000000E+00 -0.10206952376E+04  0.10206952376E+04  0.00000000000E+00 0.  1.
         24    2    1    2    0    0  0.17479671035E+03  0.33498141247E+03 -0.83927266238E+03  0.92376291841E+03  0.78694923357E+02 0.  0.
         23    2    1    2    0    0 -0.14849665422E+03 -0.26035179272E+03  0.33228186172E+03  0.45692645968E+03  0.92391783442E+02 0.  0.
        -13    1    3    3    0    0  0.61425691229E+02  0.20097066085E+03 -0.44000839700E+03  0.48761635688E+03  0.00000000000E+00 0.  1.
         14    1    3    3    0    0  0.11337101912E+03  0.13401075162E+03 -0.39926426537E+03  0.43614656153E+03  0.00000000000E+00 0. -1.
        -13    1    4    4    0    0 -0.19932282606E+02  0.33464833136E+01  0.19272691814E+02  0.27927253539E+02  0.00000000000E+00 0. -1.
         13    1    4    4    0    0 -0.12856437161E+03 -0.26369827603E+03  0.31300916990E+03  0.42899920614E+03  0.00000000000E+00 0.  1.
         21    1    1    2  503  501 -0.20576453303E+02 -0.70318553088E+01 -0.12979348960E+02  0.25323919899E+02  0.00000000000E+00 0.  1.
         -2    1    1    2    0  502 -0.57236028299E+01 -0.67597764442E+02 -0.37764444705E+02  0.77642582844E+02  0.00000000000E+00 0.  1.
<scales pt_clust_5="13000.00000" pt_clust_6="13000.00000" pt_clust_7="13000.00000" pt_clust_8="13000.00000" pt_clust_9="21.74483" pt_clust_10="68.35302"></scales>
<clustering>
<clus scale="   21.745">  2  9  1 -1</clus>
<clus scale="   68.353">  1 10  2 -1</clus>
<clus scale="   78.695">  5  6 -1 -1</clus>
<clus scale="   92.392">  7  8 -1 -1</clus>
<clus scale="  366.269">  2  5  1 -1</clus>
<clus scale="   68.353">  1  5  2 -1</clus>
</clustering>
</event>
<event>
10    4  0.3738096E-005  0.1878396E+03  0.7546771E-02  0.1185958E+00
         21   -1    0    0  503  502  0.00000000000E+00  0.00000000000E+00  0.62423026693E+03  0.62423026693E+03  0.00000000000E+00 0.  1.
         -1   -1    0    0    0  501 -0.00000000000E+00 -0.00000000000E+00 -0.14019270813E+03  0.14019270813E+03  0.00000000000E+00 0.  1.
         24    2    1    2    0    0  0.60448571436E+02 -0.47380339716E+02  0.80851732694E+02  0.13794774427E+03  0.81201299805E+02 0.  0.
         23    2    1    2    0    0  0.10845565697E+03 -0.72302552538E+02  0.16249350195E+03  0.23229267746E+03  0.10278842926E+03 0.  0.
        -13    1    3    3    0    0  0.73163554475E+02 -0.22406829585E+02  0.34845843568E+02  0.84078561652E+02  0.00000000000E+00 0.  1.
         14    1    3    3    0    0 -0.12714983039E+02 -0.24973510131E+02  0.46005889126E+02  0.53869182620E+02  0.00000000000E+00 0. -1.
        -13    1    4    4    0    0  0.62967650229E+02 -0.87070873267E+02  0.14686832020E+03  0.18197957420E+03  0.00000000000E+00 0.  1.
         13    1    4    4    0    0  0.45488006741E+02  0.14768320729E+02  0.15625181750E+02  0.50313103255E+02  0.00000000000E+00 0. -1.
         21    1    1    2  503  501 -0.16529202250E+02  0.30439345975E+02 -0.45931960266E+02  0.57528369386E+02  0.00000000000E+00 0.  1.
         -2    1    1    2    0  502 -0.15237502616E+03  0.89243546279E+02  0.28662428442E+03  0.33665418395E+03  0.00000000000E+00 0.  1.
<scales pt_clust_5="13000.00000" pt_clust_6="13000.00000" pt_clust_7="13000.00000" pt_clust_8="13000.00000" pt_clust_9="34.63767" pt_clust_10="157.22035"></scales>
<clustering>
<clus scale="   34.638">  2  9  1 -1</clus>
<clus scale="   81.201">  5  6 -1 -1</clus>
<clus scale="  102.788">  7  8 -1 -1</clus>
<clus scale="  105.080">  2  5  1 -1</clus>
<clus scale="  157.220">  1 10  2 -1</clus>
<clus scale="  157.220">  1  5  2 -1</clus>
</clustering>
</event>
<event>
10    4  0.3738096E-005  0.3577758E+03  0.7546771E-02  0.1106642E+00
          2   -1    0    0  503    0 -0.00000000000E+00  0.00000000000E+00  0.22476047184E+04  0.22476047184E+04  0.00000000000E+00 0. -1.
         21   -1    0    0  501  502  0.00000000000E+00 -0.00000000000E+00 -0.82192201575E+02  0.82192201575E+02  0.00000000000E+00 0. -1.
         24    2    1    2    0    0  0.54415111285E+02  0.38526281630E+02  0.25980832693E+03  0.28001871124E+03  0.80404186392E+02 0.  0.
         23    2    1    2    0    0  0.24567662621E+03 -0.25239893185E+03  0.97189140177E+03  0.10377497550E+04  0.91046316228E+02 0.  0.
        -13    1    3    3    0    0 -0.48528391884E+01  0.29800463989E+02  0.30124776226E+02  0.42651141190E+02  0.00000000000E+00 0.  1.
         14    1    3    3    0    0  0.59267950473E+02  0.87258176405E+01  0.22968355070E+03  0.23736757005E+03  0.00000000000E+00 0. -1.
        -13    1    4    4    0    0  0.24228708515E+03 -0.20841850723E+03  0.84606995616E+03  0.90442007745E+03  0.00000000000E+00 0.  1.
         13    1    4    4    0    0  0.33895410606E+01 -0.43980424622E+02  0.12582144561E+03  0.13332967755E+03  0.00000000000E+00 0. -1.
         21    1    1    2  503  502 -0.43515217325E+02 -0.11444514579E+02  0.16224544714E+03  0.16836904754E+03  0.00000000000E+00 0. -1.
          1    1    1    2  501    0 -0.25657652017E+03  0.22531716480E+03  0.77146734099E+03  0.84365940620E+03  0.00000000000E+00 0. -1.
<scales pt_clust_5="13000.00000" pt_clust_6="13000.00000" pt_clust_7="13000.00000" pt_clust_8="13000.00000" pt_clust_9="44.99501" pt_clust_10="345.99729"></scales>
<clustering>
<clus scale="   44.995">  1  9  2 -1</clus>
<clus scale="   80.404">  5  6 -1 -1</clus>
<clus scale="   91.046">  7  8 -1 -1</clus>
<clus scale="  101.074">  1  5  2 -1</clus>
<clus scale="  345.997">  2 10  1 -1</clus>
<clus scale="  345.997">  2  5  1 -1</clus>
</clustering>
</event>
<event>
10    4  0.3738096E-005  0.2011240E+03  0.7546771E-02  0.1149704E+00
         21   -1    0    0  501  502  0.00000000000E+00  0.00000000000E+00  0.14095593007E+04  0.14095593007E+04  0.00000000000E+00 0.  1.
          2   -1    0    0  503    0 -0.00000000000E+00 -0.00000000000E+00 -0.15337037764E+03  0.15337037764E+03  0.00000000000E+00 0. -1.
         23    2    1    2    0    0  0.13750875630E+03 -0.86694837539E+02  0.32618243217E+03  0.37545073837E+03  0.90242035495E+02 0.  0.
         24    2    1    2    0    0 -0.21898309027E+03  0.10071378330E+03  0.93000155644E+03  0.96407186648E+03  0.80217259963E+02 0.  0.
        -13    1    4    4    0    0 -0.12076997334E+03  0.47418106020E+02  0.64555329149E+03  0.65846253910E+03  0.00000000000E+00 0.  1.
         14    1    4    4    0    0 -0.98213116932E+02  0.53295677280E+02  0.28444826495E+03  0.30560932739E+03  0.00000000000E+00 0. -1.
        -11    1    3    3    0    0  0.11962606140E+03 -0.26579670087E+02  0.20037872729E+03  0.23487977303E+03  0.00000000000E+00 0. -1.
         11    1    3    3    0    0  0.17882694899E+02 -0.60115167452E+02  0.12580370488E+03  0.14057096534E+03  0.00000000000E+00 0.  1.
         21    1    1    2  503  502 -0.50489379355E+02 -0.23552907098E+02  0.56675553655E+02  0.79473487671E+02  0.00000000000E+00 0.  1.
          1    1    1    2  501    0  0.13196371332E+03  0.95339613355E+01 -0.56670619190E+02  0.14393358584E+03  0.00000000000E+00 0. -1.
<scales pt_clust_5="13000.00000" pt_clust_6="13000.00000" pt_clust_7="13000.00000" pt_clust_8="13000.00000" pt_clust_9="55.71281" pt_clust_10="96.55511"></scales>
<clustering>
<clus scale="   55.713">  2  9  1 -1</clus>
<clus scale="   80.217">  5  6 -1 -1</clus>
<clus scale="   90.242">  7  8 -1 -1</clus>
<clus scale="   96.555">  1 10  2 -1</clus>
<clus scale="  196.830">  1  5  2 -1</clus>
<clus scale="   96.555">  1  5  2 -1</clus>
</clustering>
</event>
<event>
10    4  0.3738096E-005  0.1502701E+03  0.7546771E-02  0.1202101E+00
          2   -1    0    0  503    0 -0.00000000000E+00  0.00000000000E+00  0.47901870509E+03  0.47901870509E+03  0.00000000000E+00 0. -1.
         21   -1    0    0  501  502  0.00000000000E+00 -0.00000000000E+00 -0.15710145759E+03  0.15710145759E+03  0.00000000000E+00 0. -1.
         24    2    1    2    0    0 -0.56724378118E+02  0.73340765570E+02  0.10243546235E+03  0.16004009915E+03  0.80766864625E+02 0.  0.
         23    2    1    2    0    0  0.89188239104E+01 -0.20043213571E+03  0.85998368766E+02  0.23666663941E+03  0.91448304164E+02 0.  0.
        -13    1    3    3    0    0 -0.71779937406E+02  0.39345018933E+02  0.50543314806E+02  0.96202996837E+02  0.00000000000E+00 0.  1.
         14    1    3    3    0    0  0.15055559288E+02  0.33995746637E+02  0.51892147542E+02  0.63837102310E+02  0.00000000000E+00 0. -1.
        -11    1    4    4    0    0  0.36666533003E+02 -0.32790980315E+02  0.30648956121E+02  0.57957238925E+02  0.00000000000E+00 0.  1.
         11    1    4    4    0    0 -0.27747709093E+02 -0.16764115539E+03  0.55349412645E+02  0.17870940049E+03  0.00000000000E+00 0. -1.
         21    1    1    2  503  502  0.63683195782E+02  0.17689634034E+02  0.10695140161E+03  0.12572619013E+03  0.00000000000E+00 0.  1.
          1    1    1    2  501    0 -0.15877641574E+02  0.10940173611E+03  0.26532014769E+02  0.11368723399E+03  0.00000000000E+00 0. -1.
<scales pt_clust_5="13000.00000" pt_clust_6="13000.00000" pt_clust_7="13000.00000" pt_clust_8="13000.00000" pt_clust_9="66.09442" pt_clust_10="112.87769"></scales>
<clustering>
<clus scale="   66.094">  1  9  2 -1</clus>
<clus scale="   80.767">  5  6 -1 -1</clus>
<clus scale="   91.448">  7  8 -1 -1</clus>
<clus scale="  112.878">  2 10  1 -1</clus>
<clus scale="  144.019">  1  5  2 -1</clus>
<clus scale="  112.878">  2  5  1 -1</clus>
</clustering>
</event>
<event>
10    4  0.3738096E-005  0.1045843E+03  0.7546771E-02  0.1273274E+00
         21   -1    0    0  501  502  0.00000000000E+00  0.00000000000E+00  0.38258258807E+02  0.38258258807E+02  0.00000000000E+00 0. -1.
          4   -1    0    0  503    0 -0.00000000000E+00 -0.00000000000E+00 -0.12598646887E+04  0.12598646887E+04  0.00000000000E+00 0. -1.
         24    2    1    2    0    0  0.61034686526E+01 -0.57421516727E+02 -0.70332361866E+03  0.71022630897E+03  0.80142463648E+02 0.  0.
         23    2    1    2    0    0  0.60047127613E+01 -0.66040211161E+01 -0.36122681110E+02  0.93530729478E+02  0.85810719586E+02 0.  0.
        -13    1    3    3    0    0  0.22947825846E+02  0.12287582419E+02 -0.14530211724E+03  0.14761535377E+03  0.00000000000E+00 0.  1.
         14    1    3    3    0    0 -0.16844357193E+02 -0.69709099146E+02 -0.55802150141E+03  0.56261095520E+03  0.00000000000E+00 0. -1.
        -13    1    4    4    0    0  0.19000158412E+01  0.39658170497E+02 -0.19172111255E+02  0.44090252861E+02  0.00000000000E+00 0.  1.
         13    1    4    4    0    0  0.41046969201E+01 -0.46262191613E+02 -0.16950569855E+02  0.49440476617E+02  0.00000000000E+00 0. -1.
         21    1    1    2  503  502 -0.86944806774E+01 -0.21234653444E+02 -0.13047440837E+03  0.13247669886E+03  0.00000000000E+00 0. -1.
          3    1    1    2  501    0 -0.34137007365E+01  0.85260191287E+02 -0.35168572174E+03  0.36188921018E+03  0.00000000000E+00 0. -1.
<scales pt_clust_5="13000.00000" pt_clust_6="13000.00000" pt_clust_7="13000.00000" pt_clust_8="13000.00000" pt_clust_9="22.94569" pt_clust_10="78.78741"></scales>
<clustering>
<clus scale="   22.946">  2  9  1 -1</clus>
<clus scale="   78.787">  1 10  2 -1</clus>
<clus scale="   80.142">  5  6 -1 -1</clus>
<clus scale="   85.811">  7  8 -1 -1</clus>
<clus scale="   99.986">  2  5  1 -1</clus>
<clus scale="   78.787">  1  5  2 -1</clus>
</clustering>
</event>
<event>
10    4  0.3738096E-005  0.1833685E+03  0.7546771E-02  0.1164590E+00
          2   -1    0    0  503    0 -0.00000000000E+00  0.00000000000E+00  0.71417222780E+03  0.71417222780E+03  0.00000000000E+00 0. -1.
         21   -1    0    0  501  502  0.00000000000E+00 -0.00000000000E+00 -0.61660956478E+03  0.61660956478E+03  0.00000000000E+00 0. -1.
         24    2    1    2    0    0 -0.12738966635E+03  0.22929423896E+02  0.54325011110E+03  0.56594723684E+03  0.91769854012E+02 0.  0.
         23    2    1    2    0    0  0.21422859655E+03  0.11089516503E+03 -0.18463059429E+03  0.31731564785E+03  0.91701334872E+02 0.  0.
        -13    1    3    3    0    0 -0.33261366867E+02 -0.24357487903E+01  0.34664453438E+02  0.48102762189E+02  0.00000000000E+00 0.  1.
         14    1    3    3    0    0 -0.94128299484E+02  0.25365172686E+02  0.50858565766E+03  0.51784447465E+03  0.00000000000E+00 0. -1.
        -13    1    4    4    0    0  0.72136582422E+02  0.92198584507E+01 -0.98719113127E+02  0.12261384755E+03  0.00000000000E+00 0.  1.
         13    1    4    4    0    0  0.14209201413E+03  0.10167530658E+03 -0.85911481161E+02  0.19470180031E+03  0.00000000000E+00 0. -1.
         21    1    1    2  503  502 -0.31305515957E+02 -0.88552450348E+01  0.76598744541E+02  0.83221501784E+02  0.00000000000E+00 0.  1.
          1    1    1    2  501    0 -0.55533414245E+02 -0.12496934389E+03 -0.33765559833E+03  0.36429740610E+03  0.00000000000E+00 0. -1.
<scales pt_clust_5="13000.00000" pt_clust_6="13000.00000" pt_clust_7="13000.00000" pt_clust_8="13000.00000" pt_clust_9="32.53384" pt_clust_10="137.19064"></scales>
<clustering>
<clus scale="   32.534">  1  9  2 -1</clus>
<clus scale="   91.701">  7  8 -1 -1</clus>
<clus scale="   91.770">  5  6 -1 -1</clus>
<clus scale="  137.191">  2 10  1 -1</clus>
<clus scale="  183.334">  2  7  1 -1</clus>
<clus scale="  137.191">  2  5  1 -1</clus>
</clustering>
</event>
<event>
10    4  0.3738096E-005  0.1559980E+03  0.7546771E-02  0.1217128E+00
          2   -1    0    0  503    0 -0.00000000000E+00  0.00000000000E+00  0.95758665746E+03  0.95758665746E+03  0.00000000000E+00 0. -1.
         21   -1    0    0  501  502  0.00000000000E+00 -0.00000000000E+00 -0.12543567941E+03  0.12543567941E+03  0.00000000000E+00 0. -1.
         24    2    1    2    0    0 -0.31152478899E+02  0.23603645101E+02  0.18289487171E+03  0.20296535828E+03  0.78846645844E+02 0.  0.
         23    2    1    2    0    0  0.15172251807E+02  0.68654388308E+02  0.21178042881E+01  0.11167827996E+03  0.86740595230E+02 0.  0.
        -13    1    3    3    0    0 -0.42110426705E+02  0.46389865738E+02  0.13380329284E+03  0.14774514833E+03  0.00000000000E+00 0.  1.
         14    1    3    3    0    0  0.10957947806E+02 -0.22786220637E+02  0.49091578866E+02  0.55220209947E+02  0.00000000000E+00 0. -1.
        -11    1    4    4    0    0 -0.24340233592E+02  0.87309172272E+01  0.25372263520E+02  0.36227443231E+02  0.00000000000E+00 0. -1.
         11    1    4    4    0    0  0.39512485399E+02  0.59923471081E+02 -0.23254459232E+02  0.75450836728E+02  0.00000000000E+00 0.  1.
         21    1    1    2  503  502  0.65075275482E+02 -0.16374872349E+03  0.65780855666E+03  0.68099965722E+03  0.00000000000E+00 0. -1.
          1    1    1    2  501    0 -0.49095048390E+02  0.71490690078E+02 -0.10670254597E+02  0.87379041408E+02  0.00000000000E+00 0. -1.
<scales pt_clust_5="13000.00000" pt_clust_6="13000.00000" pt_clust_7="13000.00000" pt_clust_8="13000.00000" pt_clust_9="129.65890" pt_clust_10="86.72510"></scales>
<clustering>
<clus scale="   78.847">  5  6 -1 -1</clus>
<clus scale="   86.725">  2 10  1 -1</clus>
<clus scale="   86.741">  7  8 -1 -1</clus>
<clus scale="   93.376">  1  5  2 -1</clus>
<clus scale="  129.659">  1  9  2 -1</clus>
<clus scale="   86.725">  2  5  1 -1</clus>
</clustering>
</event>
<event>
10    4  0.3738096E-005  0.1273837E+03  0.7546771E-02  0.1234237E+00
          2   -1    0    0  503    0 -0.00000000000E+00  0.00000000000E+00  0.11651167528E+04  0.11651167528E+04  0.00000000000E+00 0. -1.
         21   -1    0    0  501  502  0.00000000000E+00 -0.00000000000E+00 -0.65597390436E+02  0.65597390436E+02  0.00000000000E+00 0.  1.
         24    2    1    2    0    0 -0.81301678916E+02 -0.33881051513E+02  0.90914593375E+03  0.91689761036E+03  0.79981312628E+02 0.  0.
         23    2    1    2    0    0  0.69287713088E+02  0.88231352007E+02  0.17659420780E+03  0.22794669319E+03  0.90491005319E+02 0.  0.
        -13    1    3    3    0    0  0.35599063215E+01 -0.29810409328E+02  0.14724913094E+03  0.15027854138E+03  0.00000000000E+00 0.  1.
         14    1    3    3    0    0 -0.84861585237E+02 -0.40706421848E+01  0.76189680281E+03  0.76661906897E+03  0.00000000000E+00 0. -1.
        -11    1    4    4    0    0 -0.20274170915E+02  0.29966845083E+02  0.33058876559E+02  0.49009622829E+02  0.00000000000E+00 0. -1.
         11    1    4    4    0    0  0.89561884002E+02  0.58264506925E+02  0.14353533124E+03  0.17893707036E+03  0.00000000000E+00 0.  1.
         21    1    1    2  503  502  0.22932778888E+02 -0.28723489345E+02  0.35075420537E+02  0.50805868889E+02  0.00000000000E+00 0. -1.
          1    1    1    2  501    0 -0.10918813060E+02 -0.25626811149E+02 -0.21296199706E+02  0.35063970828E+02  0.00000000000E+00 0. -1.
<scales pt_clust_5="13000.00000" pt_clust_6="13000.00000" pt_clust_7="13000.00000" pt_clust_8="13000.00000" pt_clust_9="39.86759" pt_clust_10="27.85595"></scales>
<clustering>
<clus scale="   27.856">  2 10  1 -1</clus>
<clus scale="   39.868">  2  9  1 -1</clus>
<clus scale="   79.981">  5  6 -1 -1</clus>
<clus scale="   90.491">  7  8 -1 -1</clus>
<clus scale="  120.146">  1  5  2 -1</clus>
<clus scale="   27.856">  2  5  1 -1</clus>
</clustering>
</event>
<event>
10    4  0.3738096E-005  0.1016814E+03  0.7546771E-02  0.1281730E+00
          4   -1    0    0  503    0 -0.00000000000E+00  0.00000000000E+00  0.19735949186E+03  0.19735949186E+03  0.00000000000E+00 0. -1.
         21   -1    0    0  501  502  0.00000000000E+00 -0.00000000000E+00 -0.26133755327E+03  0.26133755327E+03  0.00000000000E+00 0.  1.
         23    2    1    2    0    0  0.47360907460E+02  0.21570297065E+02  0.11862879983E+03  0.15847479142E+03  0.91286001644E+02 0.  0.
         24    2    1    2    0    0 -0.56760077317E+02  0.61990981221E+02 -0.12337699623E+03  0.16984819526E+03  0.81005790557E+02 0.  0.
        -11    1    4    4    0    0 -0.35242039882E+02  0.80202196016E+02 -0.83579573963E+02  0.12107823423E+03  0.00000000000E+00 0.  1.
         12    1    4    4    0    0 -0.21518037435E+02 -0.18211214795E+02 -0.39797422268E+02  0.48769961026E+02  0.00000000000E+00 0. -1.
        -11    1    3    3    0    0  0.20098448228E+02  0.56494428298E+02  0.77796512792E+02  0.98223548360E+02  0.00000000000E+00 0.  1.
         11    1    3    3    0    0  0.27262459231E+02 -0.34924131233E+02  0.40832287037E+02  0.60251243061E+02  0.00000000000E+00 0. -1.
         21    1    1    2  503  502 -0.20985338094E+02 -0.47399372490E+02  0.33791034770E+01  0.51947119917E+02  0.00000000000E+00 0.  1.
          3    1    1    2  501    0  0.30384507951E+02 -0.36161905796E+02 -0.62608968476E+02  0.78426938534E+02  0.00000000000E+00 0. -1.
<scales pt_clust_5="13000.00000" pt_clust_6="13000.00000" pt_clust_7="13000.00000" pt_clust_8="13000.00000" pt_clust_9="54.74660" pt_clust_10="47.23242"></scales>
<clustering>
<clus scale="   47.232">  2 10  1 -1</clus>
<clus scale="   54.747">  1  9  2 -1</clus>
<clus scale="   81.006">  5  6 -1 -1</clus>
<clus scale="   91.286">  7  8 -1 -1</clus>
<clus scale="   92.563">  2  5  1 -1</clus>
<clus scale="   47.232">  2  5  1 -1</clus>
</clustering>
</event>
<event>
10    4  0.3738096E-005  0.2231605E+03  0.7546771E-02  0.1167677E+00
         21   -1    0    0  501  502  0.00000000000E+00  0.00000000000E+00  0.40682892911E+03  0.40682892911E+03  0.00000000000E+00 0. -1.
          4   -1    0    0  503    0 -0.00000000000E+00 -0.00000000000E+00 -0.47958914393E+03  0.47958914393E+03  0.00000000000E+00 0. -1.
         24    2    1    2    0    0  0.43759884687E+01 -0.52453201587E+02 -0.16324632814E+03  0.18964445762E+03  0.80902218893E+02 0.  0.
         23    2    1    2    0    0  0.39627906872E+02  0.19148396908E+03  0.76241109239E+02  0.22871254199E+03  0.90885855384E+02 0.  0.
        -11    1    3    3    0    0 -0.25584028453E+02 -0.29261802512E+02 -0.24798088289E+02  0.46105756484E+02  0.00000000000E+00 0.  1.
         12    1    3    3    0    0  0.29960016922E+02 -0.23191399075E+02 -0.13844823985E+03  0.14353870113E+03  0.00000000000E+00 0. -1.
        -13    1    4    4    0    0 -0.42854521018E+01  0.23937798099E+02  0.47190380779E+02  0.53087807599E+02  0.00000000000E+00 0.  1.
         13    1    4    4    0    0  0.43913358974E+02  0.16754617098E+03  0.29050728459E+02  0.17562473439E+03  0.00000000000E+00 0. -1.
         21    1    1    2  503  502  0.63932847636E+02  0.44968191665E+02 -0.16941079976E+03  0.18657321980E+03  0.00000000000E+00 0. -1.
          3    1    1    2  501    0 -0.10793674298E+03 -0.18399895916E+03  0.18365580385E+03  0.28148785364E+03  0.00000000000E+00 0. -1.
<scales pt_clust_5="13000.00000" pt_clust_6="13000.00000" pt_clust_7="13000.00000" pt_clust_8="13000.00000" pt_clust_9="78.16359" pt_clust_10="203.81457"></scales>
<clustering>
<clus scale="   78.164">  2  9  1 -1</clus>
<clus scale="   80.902">  5  6 -1 -1</clus>
<clus scale="   90.886">  7  8 -1 -1</clus>
<clus scale="   94.732">  2  5  1 -1</clus>
<clus scale="  203.815">  1 10  2 -1</clus>
<clus scale="  203.815">  1  5  2 -1</clus>
</clustering>
</event>
<event>
10    4  0.3738096E-005  0.1282563E+03  0.7546771E-02  0.1233987E+00
          2   -1    0    0  503    0 -0.00000000000E+00  0.00000000000E+00  0.10181511280E+04  0.10181511280E+04  0.00000000000E+00 0. -1.
         21   -1    0    0  501  502  0.00000000000E+00 -0.00000000000E+00 -0.40227196428E+02  0.40227196428E+02  0.00000000000E+00 0. -1.
         24    2    1    2    0    0  0.44833177427E+02 -0.55052879044E+02  0.22677635990E+03  0.25002815365E+03  0.77754272675E+02 0.  0.
         23    2    1    2    0    0 -0.12242583935E+03  0.33167612855E+02  0.34341153376E+03  0.37751362819E+03  0.92178529302E+02 0.  0.
        -13    1    3    3    0    0  0.28479579225E+01 -0.62410975757E+02  0.14213140217E+03  0.15525648535E+03  0.00000000000E+00 0.  1.
         14    1    3    3    0    0  0.41985219505E+02  0.73580967131E+01  0.84644957724E+02  0.94771668299E+02  0.00000000000E+00 0. -1.
        -13    1    4    4    0    0 -0.10869056123E+03 -0.32528667408E+01  0.18686702097E+03  0.21620245783E+03  0.00000000000E+00 0. -1.
         13    1    4    4    0    0 -0.13735278115E+02  0.36420479596E+02  0.15654451279E+03  0.16131117036E+03  0.00000000000E+00 0.  1.
         21    1    1    2  503  502  0.48237007241E+02  0.52669109338E+02  0.11752313091E+03  0.13752283536E+03  0.00000000000E+00 0. -1.
          1    1    1    2  501    0  0.29355654679E+02 -0.30783843149E+02  0.29021290704E+03  0.29331370727E+03  0.00000000000E+00 0. -1.
<scales pt_clust_5="13000.00000" pt_clust_6="13000.00000" pt_clust_7="13000.00000" pt_clust_8="13000.00000" pt_clust_9="71.52358" pt_clust_10="42.53706"></scales>
<clustering>
<clus scale="   42.537">  2 10  1 -1</clus>
<clus scale="   71.524">  2  9  1 -1</clus>
<clus scale="   77.754">  5  6 -1 -1</clus>
<clus scale="   92.179">  7  8 -1 -1</clus>
<clus scale="  118.315">  1  5  2 -1</clus>
<clus scale="   42.537">  2  5  1 -1</clus>
</clustering>
</event>
<event>
10    4  0.3738096E-005  0.2241601E+03  0.7546771E-02  0.1174098E+00
         21   -1    0    0  501  502  0.00000000000E+00  0.00000000000E+00  0.24674908839E+03  0.24674908839E+03  0.00000000000E+00 0. -1.
          2   -1    0    0  503    0 -0.00000000000E+00 -0.00000000000E+00 -0.10519678562E+04  0.10519678562E+04  0.00000000000E+00 0. -1.
         24    2    1    2    0    0 -0.44615885794E+01 -0.38979942924E+01 -0.32581657601E+03  0.33557983743E+03  0.80139166193E+02 0.  0.
         23    2    1    2    0    0 -0.10636997496E+03 -0.17283696951E+03  0.16197285066E+03  0.27565767445E+03  0.92545986020E+02 0.  0.
        -11    1    3    3    0    0  0.56797206457E+01  0.37202250957E+02 -0.13691047904E+03  0.14198854170E+03  0.00000000000E+00 0.  1.
         12    1    3    3    0    0 -0.10141309225E+02 -0.41100245250E+02 -0.18890609696E+03  0.19359129573E+03  0.00000000000E+00 0. -1.
        -11    1    4    4    0    0 -0.10746526798E+02 -0.71552648439E+02  0.99426662007E+02  0.12296719260E+03  0.00000000000E+00 0.  1.
         11    1    4    4    0    0 -0.95623448161E+02 -0.10128432107E+03  0.62546188650E+02  0.15269048185E+03  0.00000000000E+00 0. -1.
         21    1    1    2  503  502  0.13062738955E+02 -0.15896732155E+02 -0.14060114990E+03  0.14209864389E+03  0.00000000000E+00 0. -1.
          1    1    1    2  501    0  0.97768824583E+02  0.19263169596E+03 -0.50077389251E+03  0.54538078878E+03  0.00000000000E+00 0. -1.
<scales pt_clust_5="13000.00000" pt_clust_6="13000.00000" pt_clust_7="13000.00000" pt_clust_8="13000.00000" pt_clust_9="20.57526" pt_clust_10="204.16425"></scales>
<clustering>
<clus scale="   20.575">  2  9  1 -1</clus>
<clus scale="   80.139">  5  6 -1 -1</clus>
<clus scale="   80.721">  2  5  1 -1</clus>
<clus scale="   92.546">  7  8 -1 -1</clus>
<clus scale="  204.164">  1 10  2 -1</clus>
<clus scale="  204.164">  1  5  2 -1</clus>
</clustering>
</event>
<event>
10    4  0.3738096E-005  0.1144619E+03  0.7546771E-02  0.1255871E+00
         -1   -1    0    0    0  501 -0.00000000000E+00  0.00000000000E+00  0.14702254136E+03  0.14702254136E+03  0.00000000000E+00 0.  1.
         21   -1    0    0  503  502  0.00000000000E+00 -0.00000000000E+00 -0.26232226339E+03  0.26232226339E+03  0.00000000000E+00 0.  1.
         24    2    1    2    0    0  0.39339985080E+02  0.52298181372E+02 -0.62771169594E+02  0.12130011679E+03  0.80565280369E+02 0.  0.
         23    2    1    2    0    0 -0.61645403946E+02 -0.38615300543E+02 -0.12733403826E+03  0.17212129984E+03  0.90113746427E+02 0.  0.
        -11    1    3    3    0    0  0.56313455988E+02  0.57293528181E+02 -0.33379756738E+02  0.86994033454E+02  0.00000000000E+00 0.  1.
         12    1    3    3    0    0 -0.16973470909E+02 -0.49953468083E+01 -0.29391412856E+02  0.34306083339E+02  0.00000000000E+00 0. -1.
        -13    1    4    4    0    0 -0.77102874956E+02 -0.32897218983E+01 -0.81926641306E+02  0.11255065594E+03  0.00000000000E+00 0.  1.
         13    1    4    4    0    0  0.15457471010E+02 -0.35325578644E+02 -0.45407396955E+02  0.59570643901E+02  0.00000000000E+00 0. -1.
         21    1    1    2  503  501  0.35358061651E+02  0.90869304802E+01  0.81095992926E+02  0.88934385352E+02  0.00000000000E+00 0.  1.
         -2    1    1    2    0  502 -0.13052642785E+02 -0.22769811310E+02 -0.62905070959E+01  0.26989002766E+02  0.00000000000E+00 0.  1.
<scales pt_clust_5="13000.00000" pt_clust_6="13000.00000" pt_clust_7="13000.00000" pt_clust_8="13000.00000" pt_clust_9="36.21622" pt_clust_10="26.24569"></scales>
<clustering>
<clus scale="   26.246">  2 10  1 -1</clus>
<clus scale="   36.216">  1  9  2 -1</clus>
<clus scale="   80.565">  5  6 -1 -1</clus>
<clus scale="   90.114">  7  8 -1 -1</clus>
<clus scale="  107.106">  1  5  2 -1</clus>
<clus scale="   26.246">  2  5  1 -1</clus>
</clustering>
</event>
<event>
10    4  0.3738096E-005  0.1815099E+03  0.7546771E-02  0.1167538E+00
         21   -1    0    0  503  502  0.00000000000E+00  0.00000000000E+00  0.32591366746E+03  0.32591366746E+03  0.00000000000E+00 0.  1.
         -1   -1    0    0    0  501 -0.00000000000E+00 -0.00000000000E+00 -0.11257290952E+04  0.11257290952E+04  0.00000000000E+00 0.  1.
         24    2    1    2    0    0  0.21091483337E+03 -0.11299519774E+03 -0.49652575727E+03  0.55709239189E+03  0.81000764296E+02 0.  0.
         23    2    1    2    0    0 -0.13075341167E+03  0.68476354143E+02  0.25564652676E+03  0.30895524131E+03  0.91174167134E+02 0.  0.
        -11    1    3    3    0    0  0.11602812858E+03 -0.97422356060E+02 -0.24803241003E+03  0.29064362802E+03  0.00000000000E+00 0.  1.
         12    1    3    3    0    0  0.94886704785E+02 -0.15572841679E+02 -0.24849334724E+03  0.26644876387E+03  0.00000000000E+00 0. -1.
        -11    1    4    4    0    0 -0.13053246300E+03  0.42547618186E+02  0.16487354238E+03  0.21455141269E+03  0.00000000000E+00 0.  1.
         11    1    4    4    0    0 -0.22094867333E+00  0.25928735957E+02  0.90772984376E+02  0.94403828625E+02  0.00000000000E+00 0. -1.
         21    1    1    2  503  501 -0.10748942822E+03  0.10911304502E+02 -0.50495149639E+03  0.51638071948E+03  0.00000000000E+00 0.  1.
         -2    1    1    2    0  502  0.27328006522E+02  0.33607539094E+02 -0.53984700869E+02  0.69214410005E+02  0.00000000000E+00 0.  1.
<scales pt_clust_5="13000.00000" pt_clust_6="13000.00000" pt_clust_7="13000.00000" pt_clust_8="13000.00000" pt_clust_9="107.61658" pt_clust_10="43.31615"></scales>
<clustering>
<clus scale="   43.316">  1 10  2 -1</clus>
<clus scale="   81.001">  5  6 -1 -1</clus>
<clus scale="   91.174">  7  8 -1 -1</clus>
<clus scale="  107.617">  2  9  1 -1</clus>
<clus scale="  176.619">  2  5  1 -1</clus>
<clus scale="   43.316">  1  5  2 -1</clus>
</clustering>
</event>
<event>
10    4  0.3738096E-005  0.9328019E+02  0.7546771E-02  0.1301899E+00
          2   -1    0    0  503    0 -0.00000000000E+00  0.00000000000E+00  0.37099633181E+03  0.37099633181E+03  0.00000000000E+00 0. -1.
         21   -1    0    0  501  502  0.00000000000E+00 -0.00000000000E+00 -0.16399361224E+03  0.16399361224E+03  0.00000000000E+00 0. -1.
         23    2    1    2    0    0 -0.29771951838E+02  0.34354695100E+02  0.26727198410E+03  0.28595958011E+03  0.90950281910E+02 0.  0.
         24    2    1    2    0    0  0.43133077354E+02  0.55609284713E+02 -0.58957336812E+02  0.12151826441E+03  0.79610716067E+02 0.  0.
        -11    1    4    4    0    0  0.34669273623E+02  0.43682252289E+02  0.49230398358E+01  0.55985123201E+02  0.00000000000E+00 0.  1.
         12    1    4    4    0    0  0.84638037313E+01  0.11927032424E+02 -0.63880376647E+02  0.65533141209E+02  0.00000000000E+00 0. -1.
        -11    1    3    3    0    0 -0.15720853731E+02 -0.19138197561E+02  0.17978523608E+02  0.30604626432E+02  0.00000000000E+00 0.  1.
         11    1    3    3    0    0 -0.14051098107E+02  0.53492892661E+02  0.24929346050E+03  0.25535495368E+03  0.00000000000E+00 0. -1.
         21    1    1    2  503  502  0.16714317058E+02 -0.22050132052E+02  0.35179436859E+02  0.44756781564E+02  0.00000000000E+00 0. -1.
          1    1    1    2  501    0 -0.30075442574E+02 -0.67913847761E+02 -0.36491364582E+02  0.82755317973E+02  0.00000000000E+00 0. -1.
<scales pt_clust_5="13000.00000" pt_clust_6="13000.00000" pt_clust_7="13000.00000" pt_clust_8="13000.00000" pt_clust_9="27.66906" pt_clust_10="75.23028"></scales>
<clustering>
<clus scale="   27.669">  1  9  2 -1</clus>
<clus scale="   75.230">  2 10  1 -1</clus>
<clus scale="   79.611">  5  6 -1 -1</clus>
<clus scale="   82.262">  2  5  1 -1</clus>
<clus scale="   90.950">  7  8 -1 -1</clus>
<clus scale="   75.230">  2  5  1 -1</clus>
</clustering>
</event>
<event>
10    4  0.3738096E-005  0.1686532E+03  0.7546771E-02  0.1181111E+00
         21   -1    0    0  501  502  0.00000000000E+00  0.00000000000E+00  0.42800305988E+03  0.42800305988E+03  0.00000000000E+00 0. -1.
          4   -1    0    0  503    0 -0.00000000000E+00 -0.00000000000E+00 -0.21322547743E+03  0.21322547743E+03  0.00000000000E+00 0. -1.
         23    2    1    2    0    0 -0.12569007425E+03  0.10409179006E+03 -0.48937589434E+02  0.19407730094E+03  0.92940925091E+02 0.  0.
         24    2    1    2    0    0  0.11049493983E+03  0.50858107591E+01  0.14400817348E+03  0.19834583171E+03  0.79797980731E+02 0.  0.
        -11    1    4    4    0    0  0.76704666544E+02  0.11741406367E+02  0.37068386256E+02  0.85997277589E+02  0.00000000000E+00 0.  1.
         12    1    4    4    0    0  0.33790273284E+02 -0.66555956077E+01  0.10693978722E+03  0.11234855412E+03  0.00000000000E+00 0. -1.
        -13    1    3    3    0    0 -0.24455251888E+02 -0.13037714849E+02 -0.25190243521E+02  0.37451164495E+02  0.00000000000E+00 0.  1.
         13    1    3    3    0    0 -0.10123482236E+03  0.11712950491E+03 -0.23747345913E+02  0.15662613644E+03  0.00000000000E+00 0. -1.
         21    1    1    2  503  502  0.10303666921E+02  0.44936683000E+02  0.75393385239E+02  0.88372131177E+02  0.00000000000E+00 0. -1.
          3    1    1    2  501    0  0.48914675040E+01 -0.15411428382E+03  0.44313613170E+02  0.16043327349E+03  0.00000000000E+00 0. -1.
<scales pt_clust_5="13000.00000" pt_clust_6="13000.00000" pt_clust_7="13000.00000" pt_clust_8="13000.00000" pt_clust_9="46.10283" pt_clust_10="141.04678"></scales>
<clustering>
<clus scale="   46.103">  1  9  2 -1</clus>
<clus scale="   79.798">  5  6 -1 -1</clus>
<clus scale="   92.941">  7  8 -1 -1</clus>
<clus scale="  141.047">  1 10  2 -1</clus>
<clus scale="  161.783">  1  5  2 -1</clus>
<clus scale="   46.103">  1  5  2 -1</clus>
</clustering>
</event>
<event>
10    4  0.3738096E-005  0.3109295E+03  0.7546771E-02  0.1111493E+00
         21   -1    0    0  501  502  0.00000000000E+00  0.00000000000E+00  0.21987013317E+03  0.21987013317E+03  0.00000000000E+00 0. -1.
          2   -1    0    0  503    0 -0.00000000000E+00 -0.00000000000E+00 -0.11627360099E+04  0.11627360099E+04  0.00000000000E+00 0. -1.
         24    2    1    2    0    0 -0.66162299883E+02  0.10494768501E+03 -0.29045224434E+03  0.32634646428E+03  0.82146466671E+02 0.  0.
         23    2    1    2    0    0 -0.15767911735E+03  0.21372018382E+03 -0.13732568551E+03  0.31253086753E+03  0.90984494520E+02 0.  0.
        -13    1    3    3    0    0 -0.52571140174E+02  0.16454879095E+02 -0.14989964651E+03  0.15970094505E+03  0.00000000000E+00 0.  1.
         14    1    3    3    0    0 -0.13591159709E+02  0.88492805917E+02 -0.14055259783E+03  0.16664551923E+03  0.00000000000E+00 0. -1.
        -13    1    4    4    0    0 -0.41223859139E+01  0.40217297599E+02 -0.51448211857E+02  0.65431976855E+02  0.00000000000E+00 0.  1.
         13    1    4    4    0    0 -0.15355673143E+03  0.17350288622E+03 -0.85877473651E+02  0.24709889068E+03  0.00000000000E+00 0. -1.
         21    1    1    2  503  502 -0.63733257095E+02 -0.11917308185E+03 -0.30973977920E+03  0.33793916955E+03  0.00000000000E+00 0. -1.
          1    1    1    2  501    0  0.28757467432E+03 -0.19949478698E+03 -0.20534816766E+03  0.40578964169E+03  0.00000000000E+00 0. -1.
<scales pt_clust_5="13000.00000" pt_clust_6="13000.00000" pt_clust_7="13000.00000" pt_clust_8="13000.00000" pt_clust_9="135.14493" pt_clust_10="297.31975"></scales>
<clustering>
<clus scale="   82.146">  5  6 -1 -1</clus>
<clus scale="   90.984">  7  8 -1 -1</clus>
<clus scale="  135.145">  2  9  1 -1</clus>
<clus scale="  136.061">  2  5  1 -1</clus>
<clus scale="  297.320">  1 10  2 -1</clus>
<clus scale="  297.320">  1  5  2 -1</clus>
</clustering>
</event>
<event>
10    4  0.3738096E-005  0.1061489E+03  0.7546771E-02  0.1272271E+00
         -1   -1    0    0    0  501 -0.00000000000E+00  0.00000000000E+00  0.22281871882E+03  0.22281871882E+03  0.00000000000E+00 0.  1.
         21   -1    0    0  503  502  0.00000000000E+00 -0.00000000000E+00 -0.19189767767E+03  0.19189767767E+03  0.00000000000E+00 0. -1.
         24    2    1    2    0    0  0.14392470862E+02 -0.55760704954E+02  0.20824961510E+02  0.10032434786E+03  0.79466321910E+02 0.  0.
         23    2    1    2    0    0  0.12811116976E+02  0.29403531807E+02 -0.11802196039E+03  0.15177436717E+03  0.89875374798E+02 0.  0.
        -13    1    3    3    0    0  0.13817804562E+02 -0.15135378539E+02  0.47491957916E+02  0.51725211195E+02  0.00000000000E+00 0.  1.
         14    1    3    3    0    0  0.57466630013E+00 -0.40625326414E+02 -0.26666996406E+02  0.48599136669E+02  0.00000000000E+00 0. -1.
        -11    1    4    4    0    0  0.45494170424E+02 -0.27683841377E+01 -0.80551644156E+02  0.92552422278E+02  0.00000000000E+00 0. -1.
         11    1    4    4    0    0 -0.32683053448E+02  0.32171915945E+02 -0.37470316232E+02  0.59221944892E+02  0.00000000000E+00 0.  1.
         21    1    1    2  503  501  0.46013536649E+01 -0.21588954178E+02  0.92166564379E+02  0.94773049901E+02  0.00000000000E+00 0.  1.
         -2    1    1    2    0  502 -0.31804941503E+02  0.47946127324E+02  0.35951475648E+02  0.67844631554E+02  0.00000000000E+00 0.  1.
<scales pt_clust_5="13000.00000" pt_clust_6="13000.00000" pt_clust_7="13000.00000" pt_clust_8="13000.00000" pt_clust_9="22.07386" pt_clust_10="49.40415"></scales>
<clustering>
<clus scale="   22.074">  1  9  2 -1</clus>
<clus scale="   49.404">  2 10  1 -1</clus>
<clus scale="   79.466">  5  6 -1 -1</clus>
<clus scale="   89.875">  7  8 -1 -1</clus>
<clus scale="   97.493">  1  5  2 -1</clus>
<clus scale="   49.404">  2  5  1 -1</clus>
</clustering>
</event>
<event>
10    4  0.3738096E-005  0.9561844E+02  0.7546771E-02  0.1295369E+00
          2   -1    0    0  503    0 -0.00000000000E+00  0.00000000000E+00  0.15879170168E+04  0.15879170168E+04  0.00000000000E+00 0. -1.
         21   -1    0    0  501  502  0.00000000000E+00 -0.00000000000E+00 -0.99826909578E+02  0.99826909578E+02  0.00000000000E+00 0. -1.
         24    2    1    2    0    0  0.30786399863E+02  0.31760102137E+02  0.88694746218E+03  0.89199081231E+03  0.83757400108E+02 0.  0.
         23    2    1    2    0    0  0.44312688506E+02 -0.91121259700E+01  0.49858458992E+03  0.50928061844E+03  0.93453249338E+02 0.  0.
        -11    1    3    3    0    0  0.39144909988E+02  0.21116624189E+02  0.19898412854E+03  0.20389438248E+03  0.00000000000E+00 0.  1.
         12    1    3    3    0    0 -0.83585101257E+01  0.10643477948E+02  0.68796333364E+03  0.68809642983E+03  0.00000000000E+00 0. -1.
        -11    1    4    4    0    0  0.30805609318E+02  0.40930736598E+02  0.27871924443E+03  0.28338794608E+03  0.00000000000E+00 0. -1.
         11    1    4    4    0    0  0.13507079188E+02 -0.50042862568E+02  0.21986534549E+03  0.22589267236E+03  0.00000000000E+00 0.  1.
         21    1    1    2  503  502 -0.31704509212E+02 -0.14610049430E+02  0.18751487247E+03  0.19073661643E+03  0.00000000000E+00 0. -1.
          1    1    1    2  501    0 -0.43394579156E+02 -0.80379267377E+01 -0.84956817309E+02  0.95735879239E+02  0.00000000000E+00 0. -1.
<scales pt_clust_5="13000.00000" pt_clust_6="13000.00000" pt_clust_7="13000.00000" pt_clust_8="13000.00000" pt_clust_9="34.90887" pt_clust_10="44.26311"></scales>
<clustering>
<clus scale="   34.909">  1  9  2 -1</clus>
<clus scale="   44.263">  2 10  1 -1</clus>
<clus scale="   83.757">  5  6 -1 -1</clus>
<clus scale="   86.167">  1  5  2 -1</clus>
<clus scale="   93.453">  7  8 -1 -1</clus>
<clus scale="   44.263">  2  5  1 -1</clus>
</clustering>
</event>
<event>
10    4  0.3738096E-005  0.9975079E+02  0.7546771E-02  0.1286623E+00
          2   -1    0    0  503    0 -0.00000000000E+00  0.00000000000E+00  0.71738196871E+03  0.71738196871E+03  0.00000000000E+00 0. -1.
         21   -1    0    0  501  502  0.00000000000E+00 -0.00000000000E+00 -0.24984894298E+02  0.24984894298E+02  0.00000000000E+00 0.  1.
         23    2    1    2    0    0 -0.24246856416E+02 -0.14463945174E+02  0.34073117827E+03  0.35447438098E+03  0.93580100315E+02 0.  0.
         24    2    1    2    0    0  0.45348244748E+02  0.10021365025E+02  0.18753454910E+03  0.21005292145E+03  0.82438653841E+02 0.  0.
        -13    1    4    4    0    0 -0.10855559249E+02  0.32227759765E+02  0.61383090756E+02  0.70173752193E+02  0.00000000000E+00 0.  1.
         14    1    4    4    0    0  0.56203803997E+02 -0.22206394741E+02  0.12615145834E+03  0.13987916926E+03  0.00000000000E+00 0. -1.
        -11    1    3    3    0    0 -0.23684061665E+02  0.38205720627E+02  0.16576626012E+03  0.17175291806E+03  0.00000000000E+00 0.  1.
         11    1    3    3    0    0 -0.56279475046E+00 -0.52669665801E+02  0.17496491814E+03  0.18272146293E+03  0.00000000000E+00 0. -1.
         21    1    1    2  503  502 -0.52809333607E+01  0.24381592053E+02  0.14180375201E+03  0.14398143760E+03  0.00000000000E+00 0.  1.
          1    1    1    2  501    0 -0.15820454972E+02 -0.19939011903E+02  0.22327595040E+02  0.33858122976E+02  0.00000000000E+00 0. -1.
<scales pt_clust_5="13000.00000" pt_clust_6="13000.00000" pt_clust_7="13000.00000" pt_clust_8="13000.00000" pt_clust_9="24.94695" pt_clust_10="24.69746"></scales>
<clustering>
<clus scale="   24.947">  1  9  2 -1</clus>
<clus scale="   24.697">  2 10  1 -1</clus>
<clus scale="   82.439">  5  6 -1 -1</clus>
<clus scale="   89.382">  2  5  1 -1</clus>
<clus scale="   93.580">  7  8 -1 -1</clus>
<clus scale="   24.697">  2  5  1 -1</clus>
</clustering>
</event>
<event>
10    4  0.3738096E-005  0.2172691E+03  0.7546771E-02  0.1153382E+00
          2   -1    0    0  502    0 -0.00000000000E+00  0.00000000000E+00  0.31984535294E+03  0.31984535294E+03  0.00000000000E+00 0. -1.
         21   -1    0    0  503  502  0.00000000000E+00 -0.00000000000E+00 -0.54906933533E+03  0.54906933533E+03  0.00000000000E+00 0. -1.
         24    2    1    2    0    0 -0.10651216570E+03 -0.52283578702E+02  0.24437513119E+02  0.14520356185E+03  0.80052909265E+02 0.  0.
         23    2    1    2    0    0 -0.34597189348E+02 -0.18485932674E+03 -0.35825158441E+03  0.41488407910E+03  0.91731484005E+02 0.  0.
        -13    1    3    3    0    0 -0.43949441901E+02 -0.13377757057E+02 -0.28877567728E+02  0.54262618303E+02  0.00000000000E+00 0.  1.
         14    1    3    3    0    0 -0.62562723797E+02 -0.38905821645E+02  0.53315080846E+02  0.90940943542E+02  0.00000000000E+00 0. -1.
        -13    1    4    4    0    0  0.11911780904E+02 -0.58048112681E+02 -0.47154603145E+02  0.75729984206E+02  0.00000000000E+00 0.  1.
         13    1    4    4    0    0 -0.46508970252E+02 -0.12681121406E+03 -0.31109698127E+03  0.33915409489E+03  0.00000000000E+00 0. -1.
         21    1    1    2  503  501 -0.99556614192E+01  0.44715243873E+02  0.13207007573E+02  0.47675919267E+02  0.00000000000E+00 0. -1.
          1    1    1    2  501    0  0.15106501646E+03  0.19242766157E+03  0.91383081331E+02  0.26115112807E+03  0.00000000000E+00 0. -1.
<scales pt_clust_5="13000.00000" pt_clust_6="13000.00000" pt_clust_7="13000.00000" pt_clust_8="13000.00000" pt_clust_9="39.39134" pt_clust_10="216.97395"></scales>
<clustering>
<clus scale="   39.391">  9 10 -1 -1</clus>
<clus scale="   80.053">  5  6 -1 -1</clus>
<clus scale="   91.731">  7  8 -1 -1</clus>
<clus scale="  143.132">  1  5  2 -1</clus>
<clus scale="  216.974">  2  9  1 -1</clus>
<clus scale="  216.974">  2  5  1 -1</clus>
</clustering>
</event>
<event>
10    4  0.3738096E-005  0.1628410E+03  0.7546771E-02  0.1187137E+00
          2   -1    0    0  503    0 -0.00000000000E+00  0.00000000000E+00  0.19054508697E+04  0.19054508697E+04  0.00000000000E+00 0. -1.
         21   -1    0    0  501  502  0.00000000000E+00 -0.00000000000E+00 -0.15237143327E+03  0.15237143327E+03  0.00000000000E+00 0. -1.
         24    2    1    2    0    0 -0.33965946536E+02 -0.17249512378E+03  0.13141368844E+04  0.13283014012E+04  0.80750283572E+02 0.  0.
         23    2    1    2    0    0 -0.88791967405E+02  0.74755517248E+02  0.44930789124E+03  0.47297315795E+03  0.91398173824E+02 0.  0.
        -13    1    3    3    0    0 -0.33678355428E+02 -0.93439389592E+02  0.46483489383E+03  0.47532791805E+03  0.00000000000E+00 0.  1.
         14    1    3    3    0    0 -0.28759110818E+00 -0.79055734184E+02  0.84930199055E+03  0.85297348316E+03  0.00000000000E+00 0. -1.
        -13    1    4    4    0    0 -0.24639696412E+02  0.77847808875E+02  0.28792353596E+03  0.29927806225E+03  0.00000000000E+00 0.  1.
         13    1    4    4    0    0 -0.64152270994E+02 -0.30922916270E+01  0.16138435529E+03  0.17369509571E+03  0.00000000000E+00 0. -1.
         21    1    1    2  503  502  0.46886113413E+02 -0.10854566717E+02  0.81981397640E+02  0.95063551420E+02  0.00000000000E+00 0.  1.
          1    1    1    2  501    0  0.75871800529E+02  0.10859417324E+03 -0.92346736856E+02  0.16148419237E+03  0.00000000000E+00 0. -1.
<scales pt_clust_5="13000.00000" pt_clust_6="13000.00000" pt_clust_7="13000.00000" pt_clust_8="13000.00000" pt_clust_9="48.12618" pt_clust_10="132.81782"></scales>
<clustering>
<clus scale="   48.126">  1  9  2 -1</clus>
<clus scale="   80.750">  5  6 -1 -1</clus>
<clus scale="   91.398">  7  8 -1 -1</clus>
<clus scale="  132.818">  2 10  1 -1</clus>
<clus scale="  157.112">  1  5  2 -1</clus>
<clus scale="  132.818">  2  5  1 -1</clus>
</clustering>
</event>
<event>
10    4  0.3738096E-005  0.1107367E+03  0.7546771E-02  0.1262844E+00
         -1   -1    0    0    0  501 -0.00000000000E+00  0.00000000000E+00  0.72671085678E+03  0.72671085678E+03  0.00000000000E+00 0.  1.
         21   -1    0    0  503  502  0.00000000000E+00 -0.00000000000E+00 -0.47108861958E+02  0.47108861958E+02  0.00000000000E+00 0. -1.
         23    2    1    2    0    0  0.19156172320E+02 -0.54675349190E+02  0.39589118117E+03  0.41011229164E+03  0.90032836643E+02 0.  0.
         24    2    1    2    0    0  0.26927351337E+02  0.54322037442E+02  0.89149427618E+02  0.13453712798E+03  0.80477651303E+02 0.  0.
        -13    1    4    4    0    0  0.37117196212E+02  0.29624468023E+01  0.69052825019E+02  0.78452246550E+02  0.00000000000E+00 0.  1.
         14    1    4    4    0    0 -0.10189844874E+02  0.51359590640E+02  0.20096602600E+02  0.56084881433E+02  0.00000000000E+00 0. -1.
        -11    1    3    3    0    0 -0.27435190588E+02 -0.53062926523E+02  0.24538474286E+03  0.25255105599E+03  0.00000000000E+00 0.  1.
         11    1    3    3    0    0  0.46591362908E+02 -0.16124226675E+01  0.15050643832E+03  0.15756123565E+03  0.00000000000E+00 0. -1.
         21    1    1    2  503  501  0.11256561954E+01 -0.20861562083E+02  0.17105401579E+03  0.17232512351E+03  0.00000000000E+00 0.  1.
         -2    1    1    2    0  502 -0.47209179853E+02  0.21214873831E+02  0.23507370235E+02  0.56845175603E+02  0.00000000000E+00 0.  1.
<scales pt_clust_5="13000.00000" pt_clust_6="13000.00000" pt_clust_7="13000.00000" pt_clust_8="13000.00000" pt_clust_9="20.89191" pt_clust_10="51.08129"></scales>
<clustering>
<clus scale="   20.892">  1  9  2 -1</clus>
<clus scale="   51.081">  2 10  1 -1</clus>
<clus scale="   80.478">  5  6 -1 -1</clus>
<clus scale="   90.033">  7  8 -1 -1</clus>
<clus scale="  103.118">  2  5  1 -1</clus>
<clus scale="   51.081">  2  5  1 -1</clus>
</clustering>
</event>
<event>
10    4  0.3738096E-005  0.1827575E+03  0.7546771E-02  0.1166680E+00
          2   -1    0    0  503    0 -0.00000000000E+00  0.00000000000E+00  0.15432888572E+04  0.15432888572E+04  0.00000000000E+00 0. -1.
         21   -1    0    0  501  502  0.00000000000E+00 -0.00000000000E+00 -0.52860440185E+02  0.52860440185E+02  0.00000000000E+00 0.  1.
         24    2    1    2    0    0 -0.10080131722E+03  0.95829749373E+02  0.65720681381E+03  0.67645595708E+03  0.79546334524E+02 0.  0.
         23    2    1    2    0    0  0.10179177203E+03 -0.13809716138E+03  0.40468913900E+03  0.44921163947E+03  0.92657471245E+02 0.  0.
        -11    1    3    3    0    0 -0.49760843369E+02  0.21236491857E+02  0.11911900037E+03  0.13082991389E+03  0.00000000000E+00 0.  1.
         12    1    3    3    0    0 -0.51040473849E+02  0.74593257516E+02  0.53808781344E+03  0.54562604319E+03  0.00000000000E+00 0. -1.
        -11    1    4    4    0    0  0.28226089432E+02  0.57652551670E+01  0.10329172886E+03  0.10723400366E+03  0.00000000000E+00 0. -1.
         11    1    4    4    0    0  0.73565682599E+02 -0.14386241655E+03  0.30139741014E+03  0.34197763581E+03  0.00000000000E+00 0.  1.
         21    1    1    2  503  502  0.23837088033E+02  0.57893465108E+02  0.43578771470E+03  0.44026218592E+03  0.00000000000E+00 0. -1.
          1    1    1    2  501    0 -0.24827542846E+02 -0.15626053103E+02 -0.72552505276E+01  0.30219514879E+02  0.00000000000E+00 0. -1.
<scales pt_clust_5="13000.00000" pt_clust_6="13000.00000" pt_clust_7="13000.00000" pt_clust_8="13000.00000" pt_clust_9="61.05188" pt_clust_10="29.33565"></scales>
<clustering>
<clus scale="   29.336">  2 10  1 -1</clus>
<clus scale="   61.052">  1  9  2 -1</clus>
<clus scale="   79.546">  5  6 -1 -1</clus>
<clus scale="   92.657">  7  8 -1 -1</clus>
<clus scale="  176.472">  1  5  2 -1</clus>
<clus scale="   29.336">  2  5  1 -1</clus>
</clustering>
</event>
<event>
10    4  0.3738096E-005  0.1098036E+03  0.7546771E-02  0.1264148E+00
          2   -1    0    0  503    0 -0.00000000000E+00  0.00000000000E+00  0.44744950655E+03  0.44744950655E+03  0.00000000000E+00 0. -1.
         21   -1    0    0  501  502  0.00000000000E+00 -0.00000000000E+00 -0.18999798768E+03  0.18999798768E+03  0.00000000000E+00 0. -1.
         23    2    1    2    0    0  0.32101724587E+02  0.14047291321E+02  0.12846913399E+03  0.16076113965E+03  0.90066522744E+02 0.  0.
         24    2    1    2    0    0 -0.61846189323E+02 -0.74026720570E+02  0.15523563166E+03  0.20022335474E+03  0.81770312176E+02 0.  0.
        -13    1    4    4    0    0  0.19969621687E+02 -0.12360436758E+02  0.22273538611E+02  0.32367834487E+02  0.00000000000E+00 0.  1.
         14    1    4    4    0    0 -0.81815811010E+02 -0.61666283812E+02  0.13296209305E+03  0.16785552025E+03  0.00000000000E+00 0. -1.
        -13    1    3    3    0    0  0.52796444099E+02 -0.16647357057E+02  0.99071420679E+02  0.11348896599E+03  0.00000000000E+00 0. -1.
         13    1    3    3    0    0 -0.20694719511E+02  0.30694648377E+02  0.29397713309E+02  0.47272173659E+02  0.00000000000E+00 0.  1.
         21    1    1    2  503  502  0.35367607306E+02  0.10982481972E+02  0.11817735255E+03  0.12384413273E+03  0.00000000000E+00 0.  1.
          1    1    1    2  501    0 -0.56231425702E+01  0.48996947277E+02 -0.14443059933E+03  0.15261886711E+03  0.00000000000E+00 0. -1.
<scales pt_clust_5="13000.00000" pt_clust_6="13000.00000" pt_clust_7="13000.00000" pt_clust_8="13000.00000" pt_clust_9="37.03353" pt_clust_10="49.40694"></scales>
<clustering>
<clus scale="   37.034">  1  9  2 -1</clus>
<clus scale="   49.407">  2 10  1 -1</clus>
<clus scale="   81.770">  5  6 -1 -1</clus>
<clus scale="   90.067">  7  8 -1 -1</clus>
<clus scale="  103.108">  2  5  1 -1</clus>
<clus scale="   49.407">  2  5  1 -1</clus>
</clustering>
</event>
<event>
10    4  0.3738096E-005  0.1639935E+03  0.7546771E-02  0.1201664E+00
         21   -1    0    0  503  502  0.00000000000E+00  0.00000000000E+00  0.10526304032E+03  0.10526304032E+03  0.00000000000E+00 0.  1.
         -3   -1    0    0    0  501 -0.00000000000E+00 -0.00000000000E+00 -0.86187521690E+03  0.86187521690E+03  0.00000000000E+00 0.  1.
         23    2    1    2    0    0  0.19253698996E+03 -0.53066299176E+02 -0.48818220323E+03  0.53504973415E+03  0.89832231716E+02 0.  0.
         24    2    1    2    0    0 -0.46146448507E+02  0.30889684344E+02 -0.77329359836E+02  0.12507280182E+03  0.81115402690E+02 0.  0.
        -13    1    4    4    0    0 -0.46076667675E+01 -0.19631961220E+02 -0.50501642067E+02  0.54378859365E+02  0.00000000000E+00 0.  1.
         14    1    4    4    0    0 -0.41538781740E+02  0.50521645564E+02 -0.26827717769E+02  0.70693942454E+02  0.00000000000E+00 0. -1.
        -13    1    3    3    0    0  0.10043273808E+03 -0.13318059958E+02 -0.34951024589E+03  0.36389767461E+03  0.00000000000E+00 0. -1.
         13    1    3    3    0    0  0.92104251880E+02 -0.39748239219E+02 -0.13867195734E+03  0.17115205955E+03  0.00000000000E+00 0.  1.
         21    1    1    2  503  501 -0.10708992431E+03 -0.15630738509E+02 -0.22008717162E+03  0.24525687552E+03  0.00000000000E+00 0. -1.
         -4    1    1    2    0  502 -0.39300617142E+02  0.37807353341E+02  0.28986558114E+02  0.61758845729E+02  0.00000000000E+00 0.  1.
<scales pt_clust_5="13000.00000" pt_clust_6="13000.00000" pt_clust_7="13000.00000" pt_clust_8="13000.00000" pt_clust_9="137.20067" pt_clust_10="54.53379"></scales>
<clustering>
<clus scale="   54.534">  1 10  2 -1</clus>
<clus scale="   81.115">  5  6 -1 -1</clus>
<clus scale="   89.832">  7  8 -1 -1</clus>
<clus scale="  111.860">  1  5  2 -1</clus>
<clus scale="  137.201">  2  9  1 -1</clus>
<clus scale="   54.534">  1  5  2 -1</clus>
</clustering>
</event>
<event>
10    4  0.3738096E-005  0.3471759E+03  0.7546771E-02  0.1085913E+00
          2   -1    0    0  503    0 -0.00000000000E+00  0.00000000000E+00  0.97988676976E+03  0.97988676976E+03  0.00000000000E+00 0. -1.
         21   -1    0    0  501  502  0.00000000000E+00 -0.00000000000E+00 -0.22399838393E+03  0.22399838393E+03  0.00000000000E+00 0. -1.
         24    2    1    2    0    0 -0.15200877346E+03 -0.63646358091E+02  0.25650755489E+03  0.31536972509E+03  0.80649932953E+02 0.  0.
         23    2    1    2    0    0  0.86287317673E+02 -0.29552279262E+03  0.27863768575E+03  0.42437931756E+03  0.87633458805E+02 0.  0.
        -11    1    3    3    0    0 -0.15477471119E+03 -0.72934148150E+02  0.22665962475E+03  0.28398800447E+03  0.00000000000E+00 0.  1.
         12    1    3    3    0    0  0.27659377365E+01  0.92877900594E+01  0.29847930141E+02  0.31381720626E+02  0.00000000000E+00 0. -1.
        -11    1    4    4    0    0  0.35567442736E+02 -0.24815973303E+03  0.21789190304E+03  0.33215234079E+03  0.00000000000E+00 0. -1.
         11    1    4    4    0    0  0.50719874937E+02 -0.47363059594E+02  0.60745782713E+02  0.92226976775E+02  0.00000000000E+00 0.  1.
         21    1    1    2  503  502 -0.21295849704E+02 -0.12664653948E+02  0.24248492607E+02  0.34668372733E+02  0.00000000000E+00 0. -1.
          1    1    1    2  501    0  0.87017305486E+02  0.37183380466E+03  0.19649465258E+03  0.42946773829E+03  0.00000000000E+00 0. -1.
<scales pt_clust_5="13000.00000" pt_clust_6="13000.00000" pt_clust_7="13000.00000" pt_clust_8="13000.00000" pt_clust_9="24.77714" pt_clust_10="335.93380"></scales>
<clustering>
<clus scale="   24.777">  1  9  2 -1</clus>
<clus scale="   80.650">  5  6 -1 -1</clus>
<clus scale="   87.633">  7  8 -1 -1</clus>
<clus scale="  190.132">  1  5  2 -1</clus>
<clus scale="  335.934">  2 10  1 -1</clus>
<clus scale="  335.934">  2  5  1 -1</clus>
</clustering>
</event>
<event>
10    4  0.3738096E-005  0.6853504E+03  0.7546771E-02  0.9742618E-01
          2   -1    0    0  503    0 -0.00000000000E+00  0.00000000000E+00  0.73503019302E+03  0.73503019302E+03  0.00000000000E+00 0. -1.
         21   -1    0    0  501  502  0.00000000000E+00 -0.00000000000E+00 -0.12610790027E+04  0.12610790027E+04  0.00000000000E+00 0. -1.
         24    2    1    2    0    0  0.32353854011E+03 -0.37674779519E+03  0.35379749556E+03  0.61456495323E+03  0.76820086993E+02 0.  0.
         23    2    1    2    0    0  0.13375826528E+03 -0.91163666243E+02  0.62454445271E+02  0.19580278248E+03  0.90752874982E+02 0.  0.
        -11    1    3    3    0    0  0.40317879322E+02 -0.28477966300E+02  0.61647144559E+02  0.78974023513E+02  0.00000000000E+00 0.  1.
         12    1    3    3    0    0  0.28322066079E+03 -0.34826982889E+03  0.29215035100E+03  0.53559092972E+03  0.00000000000E+00 0. -1.
        -13    1    4    4    0    0  0.30936684812E+02 -0.74782864714E+02  0.34656135506E+02  0.88037509337E+02  0.00000000000E+00 0.  1.
         13    1    4    4    0    0  0.10282158047E+03 -0.16380801528E+02  0.27798309765E+02  0.10776527314E+03  0.00000000000E+00 0. -1.
         21    1    1    2  503  502 -0.23628013028E+02 -0.55530695568E+01  0.18248209172E+02  0.30366374810E+02  0.00000000000E+00 0.  1.
          1    1    1    2  501    0 -0.43366879236E+03  0.47346453099E+03 -0.96054895972E+03  0.11553750852E+04  0.00000000000E+00 0. -1.
<scales pt_clust_5="13000.00000" pt_clust_6="13000.00000" pt_clust_7="13000.00000" pt_clust_8="13000.00000" pt_clust_9="24.27179" pt_clust_10="643.68976"></scales>
<clustering>
<clus scale="   24.272">  1  9  2 -1</clus>
<clus scale="   76.820">  5  6 -1 -1</clus>
<clus scale="   90.753">  7  8 -1 -1</clus>
<clus scale="  108.277">  5  7 -1 -1</clus>
<clus scale="  643.690">  2 10  1 -1</clus>
<clus scale="  643.690">  2  5  1 -1</clus>
</clustering>
</event>
<event>
10    4  0.5856769E-005  0.1878549E+03  0.7546771E-02  0.1188868E+00
          2   -1    0    0  503    0 -0.00000000000E+00  0.00000000000E+00  0.28358872058E+03  0.28358872058E+03  0.00000000000E+00 0. -1.
         21   -1    0    0  501  502  0.00000000000E+00 -0.00000000000E+00 -0.12800581850E+04  0.12800581850E+04  0.00000000000E+00 0. -1.
         23    2    1    2    0    0 -0.15094750296E+02 -0.46340160410E+02  0.12987673677E+03  0.16605603535E+03  0.91276383416E+02 0.  0.
         24    2    1    2    0    0  0.16655713174E+03  0.79091695295E+01  0.41825876992E+02  0.18997734520E+03  0.80858856084E+02 0.  0.
        -13    1    4    4    0    0  0.56044538394E+02  0.24467460777E+02 -0.17300687964E+02  0.63552818385E+02  0.00000000000E+00 0.  1.
         14    1    4    4    0    0  0.11051259334E+03 -0.16558291247E+02  0.59126564956E+02  0.12642452681E+03  0.00000000000E+00 0. -1.
        -13    1    3    3    0    0 -0.15039442261E+02  0.26244087459E+02  0.46950875351E+02  0.55850887606E+02  0.00000000000E+00 0.  1.
         13    1    3    3    0    0 -0.55308034593E-01 -0.72584247870E+02  0.82925861419E+02  0.11020514775E+03  0.00000000000E+00 0. -1.
         21    1    1    2  503  502  0.17119892462E+02  0.17880613104E+02  0.23214891310E+01  0.24863554747E+02  0.00000000000E+00 0. -1.
          1    1    1    2  501    0 -0.16858227390E+03  0.20550377776E+02 -0.11704935674E+04  0.11827499703E+04  0.00000000000E+00 0. -1.
<scales pt_clust_5="13000.00000" pt_clust_6="13000.00000" pt_clust_7="13000.00000" pt_clust_8="13000.00000" pt_clust_9="24.75494" pt_clust_10="169.56215"></scales>
<clustering>
<clus scale="   24.755">  1  9  2 -1</clus>
<clus scale="   80.859">  5  6 -1 -1</clus>
<clus scale="   91.276">  7  8 -1 -1</clus>
<clus scale="   98.485">  1  7  2 -1</clus>
<clus scale="  169.562">  2 10  1 -1</clus>
<clus scale="  169.562">  2  5  1 -1</clus>
</clustering>
</event>
<event>
10    4  0.3738096E-005  0.9957720E+02  0.7546771E-02  0.1286092E+00
         -3   -1    0    0    0  501 -0.00000000000E+00  0.00000000000E+00  0.82454793353E+02  0.82454793353E+02  0.00000000000E+00 0.  1.
         21   -1    0    0  503  502  0.00000000000E+00 -0.00000000000E+00 -0.32443608778E+03  0.32443608778E+03  0.00000000000E+00 0.  1.
         24    2    1    2    0    0  0.35416565903E+01 -0.35875926130E+02 -0.51392629887E+02  0.10176678318E+03  0.80097754937E+02 0.  0.
         23    2    1    2    0    0 -0.31585991347E+01  0.51734129853E+02 -0.12651613813E+03  0.16367054533E+03  0.89973981034E+02 0.  0.
        -13    1    3    3    0    0 -0.11106644551E+02 -0.40842804593E+02 -0.67348523038E+02  0.79544426553E+02  0.00000000000E+00 0.  1.
         14    1    3    3    0    0  0.14648301142E+02  0.49668784635E+01  0.15955893151E+02  0.22222356631E+02  0.00000000000E+00 0. -1.
        -13    1    4    4    0    0  0.41338823263E+02  0.40307188488E+02 -0.74899391850E+02  0.94570009263E+02  0.00000000000E+00 0.  1.
         13    1    4    4    0    0 -0.44497422397E+02  0.11426941365E+02 -0.51616746275E+02  0.69100536069E+02  0.00000000000E+00 0. -1.
         21    1    1    2  503  501  0.32986252117E+02  0.82478556522E+00  0.27256647355E+02  0.42798340213E+02  0.00000000000E+00 0.  1.
         -4    1    1    2    0  502 -0.33369309573E+02 -0.16682989288E+02 -0.91329173772E+02  0.98655212406E+02  0.00000000000E+00 0.  1.
<scales pt_clust_5="13000.00000" pt_clust_6="13000.00000" pt_clust_7="13000.00000" pt_clust_8="13000.00000" pt_clust_9="32.99656" pt_clust_10="35.01677"></scales>
<clustering>
<clus scale="   32.997">  1  9  2 -1</clus>
<clus scale="   35.017">  2 10  1 -1</clus>
<clus scale="   80.098">  5  6 -1 -1</clus>
<clus scale="   89.974">  7  8 -1 -1</clus>
<clus scale="   90.752">  1  5  2 -1</clus>
<clus scale="   35.017">  2  5  1 -1</clus>
</clustering>
</event>
<event>
10    4  0.3738096E-005  0.1711311E+03  0.7546771E-02  0.1185740E+00
         21   -1    0    0  503  502  0.00000000000E+00  0.00000000000E+00  0.12255420924E+03  0.12255420924E+03  0.00000000000E+00 0.  1.
         -1   -1    0    0    0  501 -0.00000000000E+00 -0.00000000000E+00 -0.12089854527E+04  0.12089854527E+04  0.00000000000E+00 0.  1.
         24    2    1    2    0    0 -0.96765063294E+02 -0.39135452091E+01 -0.82794112158E+03  0.83711443041E+03  0.76780697347E+02 0.  0.
         23    2    1    2    0    0  0.14635488723E+03  0.46017913694E+02 -0.90608121521E+02  0.21778375118E+03  0.12522990536E+03 0.  0.
        -13    1    3    3    0    0  0.26393866113E+01  0.20700109354E+02 -0.11912998086E+03  0.12094384329E+03  0.00000000000E+00 0.  1.
         14    1    3    3    0    0 -0.99404449905E+02 -0.24613654563E+02 -0.70881114071E+03  0.71617058712E+03  0.00000000000E+00 0. -1.
        -13    1    4    4    0    0  0.68829735240E+01  0.19584195441E+02 -0.71616352937E+02  0.74564187407E+02  0.00000000000E+00 0. -1.
         13    1    4    4    0    0  0.13947191371E+03  0.26433718253E+02 -0.18991768584E+02  0.14321956377E+03  0.00000000000E+00 0.  1.
         21    1    1    2  503  501 -0.20149212514E+02  0.22929757678E+02 -0.19714121047E+03  0.19949040433E+03  0.00000000000E+00 0. -1.
         -2    1    1    2    0  502 -0.29440611421E+02 -0.65034126163E+02  0.29259210067E+02  0.77151076080E+02  0.00000000000E+00 0.  1.
<scales pt_clust_5="13000.00000" pt_clust_6="13000.00000" pt_clust_7="13000.00000" pt_clust_8="13000.00000" pt_clust_9="30.52482" pt_clust_10="71.09259"></scales>
<clustering>
<clus scale="   30.525">  2  9  1 -1</clus>
<clus scale="   71.093">  1 10  2 -1</clus>
<clus scale="   76.781">  5  6 -1 -1</clus>
<clus scale="  125.230">  7  8 -1 -1</clus>
<clus scale="  139.637">  2  5  1 -1</clus>
<clus scale="   71.093">  1  5  2 -1</clus>
</clustering>
</event>
<event>
10    4  0.3738096E-005  0.2027439E+03  0.7546771E-02  0.1148896E+00
         -1   -1    0    0    0  501 -0.00000000000E+00  0.00000000000E+00  0.62166644087E+02  0.62166644087E+02  0.00000000000E+00 0.  1.
         21   -1    0    0  503  502  0.00000000000E+00 -0.00000000000E+00 -0.10034180577E+04  0.10034180577E+04  0.00000000000E+00 0. -1.
         23    2    1    2    0    0  0.17517650987E+03 -0.23948151237E+02 -0.23720894064E+03  0.31102429773E+03  0.95956806429E+02 0.  0.
         24    2    1    2    0    0 -0.19298515067E+03  0.23157201738E+02 -0.59678299160E+03  0.63276836522E+03  0.80413559758E+02 0.  0.
        -11    1    4    4    0    0 -0.61693516589E+02  0.40208160525E+02 -0.15554832642E+03  0.17209900643E+03  0.00000000000E+00 0.  1.
         12    1    4    4    0    0 -0.13129163408E+03 -0.17050958787E+02 -0.44123466518E+03  0.46066935879E+03  0.00000000000E+00 0. -1.
        -11    1    3    3    0    0  0.12258685389E+03 -0.11688610464E+01 -0.87204567118E+02  0.15044447318E+03  0.00000000000E+00 0.  1.
         11    1    3    3    0    0  0.52589655980E+02 -0.22779290191E+02 -0.15000437352E+03  0.16057982455E+03  0.00000000000E+00 0. -1.
         21    1    1    2  503  501 -0.81136079460E+01  0.21722598176E+02 -0.32302549745E+02  0.39763760203E+02  0.00000000000E+00 0. -1.
         -2    1    1    2    0  502  0.25922248741E+02 -0.20931648676E+02 -0.74956931632E+02  0.82028278635E+02  0.00000000000E+00 0.  1.
<scales pt_clust_5="13000.00000" pt_clust_6="13000.00000" pt_clust_7="13000.00000" pt_clust_8="13000.00000" pt_clust_9="23.18840" pt_clust_10="32.11841"></scales>
<clustering>
<clus scale="   23.188">  1  9  2 -1</clus>
<clus scale="   32.118">  2 10  1 -1</clus>
<clus scale="   80.414">  5  6 -1 -1</clus>
<clus scale="   95.957">  7  8 -1 -1</clus>
<clus scale="  195.867">  2  5  1 -1</clus>
<clus scale="   32.118">  2  5  1 -1</clus>
</clustering>
</event>
<event>
10    4  0.3738096E-005  0.2230196E+03  0.7546771E-02  0.1132282E+00
         21   -1    0    0  501  502  0.00000000000E+00  0.00000000000E+00  0.13128705136E+03  0.13128705136E+03  0.00000000000E+00 0. -1.
          2   -1    0    0  503    0 -0.00000000000E+00 -0.00000000000E+00 -0.91838674495E+03  0.91838674495E+03  0.00000000000E+00 0. -1.
         23    2    1    2    0    0 -0.44482903196E+01 -0.23084627156E+03 -0.22761390701E+03  0.33664986902E+03  0.90638045353E+02 0.  0.
         24    2    1    2    0    0 -0.99546561248E+02  0.15991650030E+03 -0.97925214400E+02  0.22754358880E+03  0.81877544324E+02 0.  0.
        -11    1    4    4    0    0 -0.19441704472E+02  0.93898205260E+02 -0.73727096350E+02  0.12095675905E+03  0.00000000000E+00 0.  1.
         12    1    4    4    0    0 -0.80104856776E+02  0.66018295044E+02 -0.24198118050E+02  0.10658682975E+03  0.00000000000E+00 0. -1.
        -13    1    3    3    0    0  0.19191674829E+02 -0.28560761181E+02 -0.73808641836E+02  0.81435576204E+02  0.00000000000E+00 0.  1.
         13    1    3    3    0    0 -0.23639965149E+02 -0.20228551037E+03 -0.15380526518E+03  0.25521429281E+03  0.00000000000E+00 0. -1.
         21    1    1    2  503  502  0.51703745059E+02 -0.57062895451E+01 -0.23443729240E+03  0.24013888286E+03  0.00000000000E+00 0. -1.
          1    1    1    2  501    0  0.52291106509E+02  0.76636060797E+02 -0.22712327977E+03  0.24534145562E+03  0.00000000000E+00 0. -1.
<scales pt_clust_5="13000.00000" pt_clust_6="13000.00000" pt_clust_7="13000.00000" pt_clust_8="13000.00000" pt_clust_9="52.01768" pt_clust_10="102.49428"></scales>
<clustering>
<clus scale="   52.018">  2  9  1 -1</clus>
<clus scale="   81.878">  5  6 -1 -1</clus>
<clus scale="   90.638">  7  8 -1 -1</clus>
<clus scale="  102.494">  1 10  2 -1</clus>
<clus scale="  219.605">  1  5  2 -1</clus>
<clus scale="  102.494">  1  5  2 -1</clus>
</clustering>
</event>
<event>
10    4  0.3738096E-005  0.1053209E+03  0.7546771E-02  0.1277521E+00
         21   -1    0    0  503  502  0.00000000000E+00  0.00000000000E+00  0.34894784231E+03  0.34894784231E+03  0.00000000000E+00 0.  1.
         -3   -1    0    0    0  501 -0.00000000000E+00 -0.00000000000E+00 -0.13842784749E+03  0.13842784749E+03  0.00000000000E+00 0.  1.
         23    2    1    2    0    0 -0.17362431992E+02 -0.32874343773E+02 -0.50997868043E+02  0.11597875008E+03  0.97304220887E+02 0.  0.
         24    2    1    2    0    0 -0.31274995483E+02 -0.55330084571E+02  0.14791014196E+03  0.18010244611E+03  0.80746129309E+02 0.  0.
        -13    1    4    4    0    0 -0.43043481778E+02 -0.54538147899E+02  0.61183464176E+02  0.92577357860E+02  0.00000000000E+00 0.  1.
         14    1    4    4    0    0  0.11768486295E+02 -0.79193667283E+00  0.86726677785E+02  0.87525088249E+02  0.00000000000E+00 0. -1.
        -11    1    3    3    0    0 -0.37575711696E+02 -0.55593297650E+02 -0.52994139771E+02  0.85503963085E+02  0.00000000000E+00 0.  1.
         11    1    3    3    0    0  0.20213279704E+02  0.22718953877E+02  0.19962717286E+01  0.30474786997E+02  0.00000000000E+00 0. -1.
         21    1    1    2  503  501  0.55519187313E+02  0.66405111061E+02  0.12283643041E+02  0.87423720015E+02  0.00000000000E+00 0. -1.
         -4    1    1    2    0  502 -0.68817598381E+01  0.21799317283E+02  0.10132407787E+03  0.10387077360E+03  0.00000000000E+00 0.  1.
<scales pt_clust_5="13000.00000" pt_clust_6="13000.00000" pt_clust_7="13000.00000" pt_clust_8="13000.00000" pt_clust_9="89.13290" pt_clust_10="22.85976"></scales>
<clustering>
<clus scale="   22.860">  1 10  2 -1</clus>
<clus scale="   80.746">  5  6 -1 -1</clus>
<clus scale="   89.133">  2  9  1 -1</clus>
<clus scale="   90.246">  1  5  2 -1</clus>
<clus scale="   97.304">  7  8 -1 -1</clus>
<clus scale="   22.860">  1  5  2 -1</clus>
</clustering>
</event>
<event>
10    4  0.3738096E-005  0.1545164E+03  0.7546771E-02  0.1196733E+00
          2   -1    0    0  503    0 -0.00000000000E+00  0.00000000000E+00  0.45340071338E+03  0.45340071338E+03  0.00000000000E+00 0. -1.
         21   -1    0    0  501  502  0.00000000000E+00 -0.00000000000E+00 -0.13290316823E+03  0.13290316823E+03  0.00000000000E+00 0.  1.
         24    2    1    2    0    0 -0.11626453785E+03  0.81372077466E+02  0.11967837438E+03  0.20218713155E+03  0.80111579176E+02 0.  0.
         23    2    1    2    0    0  0.56126622526E+02 -0.11300189152E+03 -0.39407137803E+01  0.15513426428E+03  0.90174749712E+02 0.  0.
        -11    1    3    3    0    0 -0.22658633906E+02 -0.62602327809E+01 -0.42198640444E+01  0.23883288248E+02  0.00000000000E+00 0.  1.
         12    1    3    3    0    0 -0.93605903945E+02  0.87632310247E+02  0.12389823842E+03  0.17830384330E+03  0.00000000000E+00 0. -1.
        -11    1    4    4    0    0  0.41361792128E+02 -0.38687070576E+02  0.38317432849E+02  0.68379184976E+02  0.00000000000E+00 0. -1.
         11    1    4    4    0    0  0.14764830397E+02 -0.74314820946E+02 -0.42258146630E+02  0.86755079306E+02  0.00000000000E+00 0.  1.
         21    1    1    2  503  502  0.25702457158E+02 -0.24938355126E+02  0.61760270040E+02  0.71392358245E+02  0.00000000000E+00 0. -1.
          1    1    1    2  501    0  0.34435458168E+02  0.56568169182E+02  0.14299961451E+03  0.15759012753E+03  0.00000000000E+00 0. -1.
<scales pt_clust_5="13000.00000" pt_clust_6="13000.00000" pt_clust_7="13000.00000" pt_clust_8="13000.00000" pt_clust_9="35.81254" pt_clust_10="64.58261"></scales>
<clustering>
<clus scale="   35.813">  1  9  2 -1</clus>
<clus scale="   64.583">  2 10  1 -1</clus>
<clus scale="   80.112">  5  6 -1 -1</clus>
<clus scale="   90.175">  7  8 -1 -1</clus>
<clus scale="  148.868">  1  5  2 -1</clus>
<clus scale="   64.583">  2  5  1 -1</clus>
</clustering>
</event>
<event>
10    4  0.3738096E-005  0.1331437E+03  0.7546771E-02  0.1236243E+00
         -1   -1    0    0    0  501 -0.00000000000E+00  0.00000000000E+00  0.23607968799E+03  0.23607968799E+03  0.00000000000E+00 0.  1.
         21   -1    0    0  503  502  0.00000000000E+00 -0.00000000000E+00 -0.26488486666E+03  0.26488486666E+03  0.00000000000E+00 0.  1.
         24    2    1    2    0    0 -0.60378772761E+02 -0.20681889344E+02  0.75519255872E+02  0.12429271984E+03  0.75313912722E+02 0.  0.
         23    2    1    2    0    0 -0.88244012145E+02  0.19029436487E+02 -0.96057737372E+02  0.16190309946E+03  0.94002125366E+02 0.  0.
        -11    1    3    3    0    0 -0.45627930521E+02  0.21649937321E+02  0.23742557804E+02  0.55806244102E+02  0.00000000000E+00 0.  1.
         12    1    3    3    0    0 -0.14750842241E+02 -0.42331826665E+02  0.51776698067E+02  0.68486475734E+02  0.00000000000E+00 0. -1.
        -13    1    4    4    0    0 -0.56461670890E+02  0.37734219746E+02 -0.10397221379E+03  0.12418539713E+03  0.00000000000E+00 0.  1.
         13    1    4    4    0    0 -0.31782341255E+02 -0.18704783260E+02  0.79144764150E+01  0.37717702334E+02  0.00000000000E+00 0. -1.
         21    1    1    2  503  501  0.50328171134E+02 -0.68506848687E+02  0.26600227575E+02  0.89071236849E+02  0.00000000000E+00 0.  1.
         -2    1    1    2    0  502  0.98294613773E+02  0.70159301545E+02 -0.34866924750E+02  0.12569749851E+03  0.00000000000E+00 0.  1.
<scales pt_clust_5="13000.00000" pt_clust_6="13000.00000" pt_clust_7="13000.00000" pt_clust_8="13000.00000" pt_clust_9="85.00655" pt_clust_10="94.29133"></scales>
<clustering>
<clus scale="   75.314">  5  6 -1 -1</clus>
<clus scale="   85.007">  1  9  2 -1</clus>
<clus scale="   94.002">  7  8 -1 -1</clus>
<clus scale="  100.983">  1  5  2 -1</clus>
<clus scale="   94.291">  2 10  1 -1</clus>
<clus scale="   94.291">  2  5  1 -1</clus>
</clustering>
</event>
<event>
10    4  0.3738096E-005  0.2258268E+03  0.7546771E-02  0.1172619E+00
         21   -1    0    0  501  502  0.00000000000E+00  0.00000000000E+00  0.89068874785E+03  0.89068874785E+03  0.00000000000E+00 0. -1.
          2   -1    0    0  503    0 -0.00000000000E+00 -0.00000000000E+00 -0.32262001612E+03  0.32262001612E+03  0.00000000000E+00 0. -1.
         24    2    1    2    0    0 -0.47764137651E+01 -0.14814121679E+02 -0.29888923665E+02  0.86946545006E+02  0.80150368689E+02 0.  0.
         23    2    1    2    0    0 -0.11453971640E+02  0.14945724852E+03  0.15378138349E+03  0.23279109224E+03  0.89857198452E+02 0.  0.
        -11    1    3    3    0    0  0.35440198242E+02 -0.16179028630E+02 -0.25284239854E+02  0.46444175133E+02  0.00000000000E+00 0.  1.
         12    1    3    3    0    0 -0.40216612007E+02  0.13649069513E+01 -0.46046838108E+01  0.40502369872E+02  0.00000000000E+00 0. -1.
        -13    1    4    4    0    0  0.24539642967E+02  0.12988493305E+03  0.13010375673E+03  0.18547042197E+03  0.00000000000E+00 0. -1.
         13    1    4    4    0    0 -0.35993614606E+02  0.19572315470E+02  0.23677626763E+02  0.47320670266E+02  0.00000000000E+00 0.  1.
         21    1    1    2  503  502  0.95399983109E+02  0.98966087807E+02 -0.17764311871E+03  0.22461638618E+03  0.00000000000E+00 0. -1.
          1    1    1    2  501    0 -0.79169597705E+02 -0.23360921465E+03  0.62181939061E+03  0.66895474055E+03  0.00000000000E+00 0. -1.
<scales pt_clust_5="13000.00000" pt_clust_6="13000.00000" pt_clust_7="13000.00000" pt_clust_8="13000.00000" pt_clust_9="126.92469" pt_clust_10="207.17970"></scales>
<clustering>
<clus scale="   80.150">  5  6 -1 -1</clus>
<clus scale="   81.648">  2  5  1 -1</clus>
<clus scale="   89.857">  7  8 -1 -1</clus>
<clus scale="  126.925">  2  9  1 -1</clus>
<clus scale="  207.180">  1 10  2 -1</clus>
<clus scale="  207.180">  1  5  2 -1</clus>
</clustering>
</event>
<event>
10    4  0.3738096E-005  0.1925353E+03  0.7546771E-02  0.1160638E+00
          2   -1    0    0  503    0 -0.00000000000E+00  0.00000000000E+00  0.26588556827E+03  0.26588556827E+03  0.00000000000E+00 0. -1.
         21   -1    0    0  501  502  0.00000000000E+00 -0.00000000000E+00 -0.30047972620E+03  0.30047972620E+03  0.00000000000E+00 0. -1.
         24    2    1    2    0    0  0.14975795289E+03  0.72867144585E+02  0.13621825446E+03  0.22972605145E+03  0.80508264507E+02 0.  0.
         23    2    1    2    0    0 -0.11561264326E+03 -0.31976779604E+02 -0.19936263965E+03  0.25992545156E+03  0.11587484871E+03 0.  0.
        -13    1    3    3    0    0  0.28477772502E+01  0.30755058562E+02  0.13418390766E+02  0.33675460994E+02  0.00000000000E+00 0.  1.
         14    1    3    3    0    0  0.14691017564E+03  0.42112086023E+02  0.12279986370E+03  0.19605059046E+03  0.00000000000E+00 0. -1.
        -11    1    4    4    0    0  0.79969183086E+01 -0.41080226412E+02 -0.38629175011E+02  0.56953918799E+02  0.00000000000E+00 0.  1.
         11    1    4    4    0    0 -0.12360956157E+03  0.91034468088E+01 -0.16073346464E+03  0.20297153276E+03  0.00000000000E+00 0. -1.
         21    1    1    2  503  502  0.16871269959E+01 -0.23414023071E+02  0.28400611943E+02  0.36846405966E+02  0.00000000000E+00 0. -1.
          1    1    1    2  501    0 -0.35832436626E+02 -0.17476341911E+02  0.14961531570E+00  0.39867385491E+02  0.00000000000E+00 0. -1.
<scales pt_clust_5="13000.00000" pt_clust_6="13000.00000" pt_clust_7="13000.00000" pt_clust_8="13000.00000" pt_clust_9="23.47473" pt_clust_10="40.66042"></scales>
<clustering>
<clus scale="   23.475">  1  9  2 -1</clus>
<clus scale="   40.660">  2 10  1 -1</clus>
<clus scale="   80.508">  5  6 -1 -1</clus>
<clus scale="  115.875">  7  8 -1 -1</clus>
<clus scale="  173.564">  1  5  2 -1</clus>
<clus scale="   40.660">  2  5  1 -1</clus>
</clustering>
</event>
<event>
10    4  0.3738096E-005  0.1014032E+03  0.7546771E-02  0.1283323E+00
         21   -1    0    0  503  502  0.00000000000E+00  0.00000000000E+00  0.98160349609E+02  0.98160349609E+02  0.00000000000E+00 0. -1.
         -3   -1    0    0    0  501 -0.00000000000E+00 -0.00000000000E+00 -0.24893714893E+03  0.24893714893E+03  0.00000000000E+00 0.  1.
         23    2    1    2    0    0  0.54321524039E+01  0.31659143754E+02 -0.17031043234E+03  0.19621161470E+03  0.91986655095E+02 0.  0.
         24    2    1    2    0    0 -0.73953876907E+01 -0.47171246958E+02  0.32222197956E+02  0.98472256785E+02  0.79866745373E+02 0.  0.
        -13    1    4    4    0    0  0.18834677622E+02 -0.13137429092E+02 -0.20274080473E+02  0.30632914705E+02  0.00000000000E+00 0.  1.
         14    1    4    4    0    0 -0.26230065313E+02 -0.34033817866E+02  0.52496278430E+02  0.67839342080E+02  0.00000000000E+00 0. -1.
        -11    1    3    3    0    0  0.43381169191E+02 -0.49035041676E+01 -0.91843691723E+02  0.10169185760E+03  0.00000000000E+00 0.  1.
         11    1    3    3    0    0 -0.37949016787E+02  0.36562647922E+02 -0.78466740616E+02  0.94519757094E+02  0.00000000000E+00 0. -1.
         21    1    1    2  503  501 -0.21061063525E+02  0.11784887238E+02 -0.15854231374E+02  0.28875744432E+02  0.00000000000E+00 0. -1.
         -4    1    1    2    0  502  0.23024298812E+02  0.37272159656E+01  0.31656664331E+01  0.23537882628E+02  0.00000000000E+00 0.  1.
<scales pt_clust_5="13000.00000" pt_clust_6="13000.00000" pt_clust_7="13000.00000" pt_clust_8="13000.00000" pt_clust_9="22.75848" pt_clust_10="23.32403"></scales>
<clustering>
<clus scale="   23.324">  1 10  2 -1</clus>
<clus scale="   22.758">  2  9  1 -1</clus>
<clus scale="   79.867">  5  6 -1 -1</clus>
<clus scale="   90.553">  1  5  2 -1</clus>
<clus scale="   91.987">  7  8 -1 -1</clus>
<clus scale="   23.324">  1  5  2 -1</clus>
</clustering>
</event>
<event>
10    4  0.3738096E-005  0.1361531E+03  0.7546771E-02  0.1223127E+00
          2   -1    0    0  503    0 -0.00000000000E+00  0.00000000000E+00  0.74890050052E+03  0.74890050052E+03  0.00000000000E+00 0. -1.
         21   -1    0    0  501  502  0.00000000000E+00 -0.00000000000E+00 -0.18303953981E+03  0.18303953981E+03  0.00000000000E+00 0. -1.
         24    2    1    2    0    0  0.77204112216E+02 -0.13872671230E+02  0.30993909845E+03  0.32778155421E+03  0.72288149683E+02 0.  0.
         23    2    1    2    0    0 -0.81270918249E+02 -0.42222463314E+02 -0.14206794043E+03  0.19235727479E+03  0.91816789896E+02 0.  0.
        -11    1    3    3    0    0  0.30573103695E+02  0.23021357025E+02  0.62403512078E+02  0.73204479839E+02  0.00000000000E+00 0.  1.
         12    1    3    3    0    0  0.46631008520E+02 -0.36894028256E+02  0.24753558637E+03  0.25457707437E+03  0.00000000000E+00 0. -1.
        -13    1    4    4    0    0 -0.46248517525E+02  0.23129807236E+02 -0.36258116605E+02  0.63155081947E+02  0.00000000000E+00 0.  1.
         13    1    4    4    0    0 -0.35022400724E+02 -0.65352270550E+02 -0.10580982382E+03  0.12920219285E+03  0.00000000000E+00 0. -1.
         21    1    1    2  503  502  0.40463622395E+02  0.10002250403E+02  0.23231477802E+03  0.23602437551E+03  0.00000000000E+00 0. -1.
          1    1    1    2  501    0 -0.36396816361E+02  0.46092884141E+02  0.16567502467E+03  0.17577683582E+03  0.00000000000E+00 0. -1.
<scales pt_clust_5="13000.00000" pt_clust_6="13000.00000" pt_clust_7="13000.00000" pt_clust_8="13000.00000" pt_clust_9="41.68153" pt_clust_10="54.49113"></scales>
<clustering>
<clus scale="   41.682">  1  9  2 -1</clus>
<clus scale="   54.491">  2 10  1 -1</clus>
<clus scale="   72.288">  5  6 -1 -1</clus>
<clus scale="   91.817">  7  8 -1 -1</clus>
<clus scale="  123.826">  1  5  2 -1</clus>
<clus scale="   54.491">  2  5  1 -1</clus>
</clustering>
</event>
<event>
10    4  0.3738096E-005  0.3199415E+03  0.7546771E-02  0.1117813E+00
         -1   -1    0    0    0  501 -0.00000000000E+00  0.00000000000E+00  0.21063325258E+03  0.21063325258E+03  0.00000000000E+00 0.  1.
         21   -1    0    0  503  502  0.00000000000E+00 -0.00000000000E+00 -0.10365630233E+04  0.10365630233E+04  0.00000000000E+00 0. -1.
         24    2    1    2    0    0  0.50326665013E+02 -0.26866681482E+02 -0.49879025564E+02  0.10948172687E+03  0.79017336977E+02 0.  0.
         23    2    1    2    0    0  0.21378242960E+03 -0.16005762638E+03 -0.45631862304E+03  0.53641544584E+03  0.90517809475E+02 0.  0.
        -11    1    3    3    0    0  0.60937257980E+02 -0.12341703254E+02 -0.64905164196E+01  0.62512349601E+02  0.00000000000E+00 0.  1.
         12    1    3    3    0    0 -0.10610592966E+02 -0.14524978228E+02 -0.43388509144E+02  0.46969377273E+02  0.00000000000E+00 0. -1.
        -11    1    4    4    0    0  0.10745170097E+03 -0.11678619557E+03 -0.19809542281E+03  0.25382411244E+03  0.00000000000E+00 0. -1.
         11    1    4    4    0    0  0.10633072863E+03 -0.43271430814E+02 -0.25822320023E+03  0.28259133340E+03  0.00000000000E+00 0.  1.
         21    1    1    2  503  501  0.53496605935E+02 -0.72681964620E+02 -0.17878286046E+02  0.92001021405E+02  0.00000000000E+00 0.  1.
         -2    1    1    2    0  502 -0.31760570055E+03  0.25960627249E+03 -0.30185383607E+03  0.50929808176E+03  0.00000000000E+00 0.  1.
<scales pt_clust_5="13000.00000" pt_clust_6="13000.00000" pt_clust_7="13000.00000" pt_clust_8="13000.00000" pt_clust_9="90.24719" pt_clust_10="306.86994"></scales>
<clustering>
<clus scale="   79.017">  5  6 -1 -1</clus>
<clus scale="   90.247">  1  9  2 -1</clus>
<clus scale="   90.518">  7  8 -1 -1</clus>
<clus scale="  106.459">  1  5  2 -1</clus>
<clus scale="  306.870">  2 10  1 -1</clus>
<clus scale="  306.870">  2  5  1 -1</clus>
</clustering>
</event>
<event>
10    4  0.3738096E-005  0.1118416E+03  0.7546771E-02  0.1261718E+00
         -1   -1    0    0    0  501 -0.00000000000E+00  0.00000000000E+00  0.63757703144E+03  0.63757703144E+03  0.00000000000E+00 0.  1.
         21   -1    0    0  503  502  0.00000000000E+00 -0.00000000000E+00 -0.33356608587E+03  0.33356608587E+03  0.00000000000E+00 0.  1.
         24    2    1    2    0    0 -0.10555795295E+02  0.32655018969E+02  0.22159432008E+03  0.23767270566E+03  0.78781325499E+02 0.  0.
         23    2    1    2    0    0  0.67703838231E+02 -0.42115856314E+02  0.83545315079E+02  0.14690832303E+03  0.90800223792E+02 0.  0.
        -11    1    3    3    0    0  0.32191740723E+02  0.21542423946E+02  0.13524744626E+03  0.14068495271E+03  0.00000000000E+00 0.  1.
         12    1    3    3    0    0 -0.42747536018E+02  0.11112595023E+02  0.86346873822E+02  0.96987752951E+02  0.00000000000E+00 0. -1.
        -11    1    4    4    0    0  0.58792904349E+02  0.13473748161E+02  0.23873768092E+02  0.64869902838E+02  0.00000000000E+00 0.  1.
         11    1    4    4    0    0  0.89109338816E+01 -0.55589604475E+02  0.59671546988E+02  0.82038420196E+02  0.00000000000E+00 0. -1.
         21    1    1    2  503  501 -0.81305910985E+01  0.66787982221E+02  0.28387878104E+03  0.29174287207E+03  0.00000000000E+00 0.  1.
         -2    1    1    2    0  502 -0.49017451837E+02 -0.57327144876E+02 -0.28500747063E+03  0.29481921654E+03  0.00000000000E+00 0.  1.
<scales pt_clust_5="13000.00000" pt_clust_6="13000.00000" pt_clust_7="13000.00000" pt_clust_8="13000.00000" pt_clust_9="67.28106" pt_clust_10="74.79156"></scales>
<clustering>
<clus scale="   67.281">  1  9  2 -1</clus>
<clus scale="   74.792">  2 10  1 -1</clus>
<clus scale="   78.781">  5  6 -1 -1</clus>
<clus scale="   90.800">  7  8 -1 -1</clus>
<clus scale="  102.325">  1  5  2 -1</clus>
<clus scale="   74.792">  2  5  1 -1</clus>
</clustering>
</event>
<event>
10    4  0.3738096E-005  0.1656124E+03  0.7546771E-02  0.1194781E+00
         21   -1    0    0  503  502  0.00000000000E+00  0.00000000000E+00  0.86142063553E+02  0.86142063553E+02  0.00000000000E+00 0.  1.
         -3   -1    0    0    0  501 -0.00000000000E+00 -0.00000000000E+00 -0.67905681754E+03  0.67905681754E+03  0.00000000000E+00 0.  1.
         23    2    1    2    0    0 -0.93299400908E+02 -0.10988754569E+02 -0.22608618317E+03  0.26047014828E+03  0.88905595944E+02 0.  0.
         24    2    1    2    0    0 -0.13859086981E+02 -0.11474319400E+03 -0.21657208337E+03  0.25860448018E+03  0.81331021226E+02 0.  0.
        -11    1    4    4    0    0 -0.25310044577E+02 -0.11318551811E+03 -0.21802769768E+03  0.24695675092E+03  0.00000000000E+00 0.  1.
         12    1    4    4    0    0  0.11450957596E+02 -0.15576758869E+01  0.14556143111E+01  0.11647729266E+02  0.00000000000E+00 0. -1.
        -13    1    3    3    0    0 -0.67998084492E+02  0.25112904318E+02 -0.80364363367E+02  0.10822582112E+03  0.00000000000E+00 0.  1.
         13    1    3    3    0    0 -0.25301316415E+02 -0.36101658887E+02 -0.14572181980E+03  0.15224432716E+03  0.00000000000E+00 0. -1.
         21    1    1    2  503  501  0.14014173086E+02 -0.15160070594E+02 -0.38238820638E+02  0.43456094987E+02  0.00000000000E+00 0.  1.
         -4    1    1    2    0  502  0.93144314802E+02  0.14089201916E+03 -0.11201766682E+03  0.20266815764E+03  0.00000000000E+00 0.  1.
<scales pt_clust_5="13000.00000" pt_clust_6="13000.00000" pt_clust_7="13000.00000" pt_clust_8="13000.00000" pt_clust_9="20.64521" pt_clust_10="144.26617"></scales>
<clustering>
<clus scale="   20.645">  2  9  1 -1</clus>
<clus scale="   81.331">  5  6 -1 -1</clus>
<clus scale="   88.906">  7  8 -1 -1</clus>
<clus scale="  126.182">  2  7  1 -1</clus>
<clus scale="  144.266">  1 10  2 -1</clus>
<clus scale="  144.266">  1  5  2 -1</clus>
</clustering>
</event>
<event>
10    4  0.3738096E-005  0.1134244E+03  0.7546771E-02  0.1257050E+00
         21   -1    0    0  501  502  0.00000000000E+00  0.00000000000E+00  0.47023194077E+02  0.47023194077E+02  0.00000000000E+00 0. -1.
          2   -1    0    0  503    0 -0.00000000000E+00 -0.00000000000E+00 -0.49566384947E+03  0.49566384947E+03  0.00000000000E+00 0. -1.
         23    2    1    2    0    0  0.82263441925E+02  0.36986776521E+02 -0.23503039004E+03  0.26610035978E+03  0.86225412252E+02 0.  0.
         24    2    1    2    0    0 -0.43965793627E+02 -0.48405113950E+02 -0.71505581947E+02  0.12459128025E+03  0.78319172608E+02 0.  0.
        -11    1    4    4    0    0 -0.12917622455E+02  0.19247354838E+02 -0.28999887825E+01  0.23360983992E+02  0.00000000000E+00 0.  1.
         12    1    4    4    0    0 -0.31048171172E+02 -0.67652468788E+02 -0.68605593165E+02  0.10123029625E+03  0.00000000000E+00 0. -1.
        -11    1    3    3    0    0  0.11808465901E+02  0.29388529255E+02 -0.15917088749E+03  0.16229139516E+03  0.00000000000E+00 0.  1.
         11    1    3    3    0    0  0.70454976025E+02  0.75982472656E+01 -0.75859502547E+02  0.10380896462E+03  0.00000000000E+00 0. -1.
         21    1    1    2  503  502 -0.17857296140E+02 -0.11810085681E+02 -0.76853984489E+02  0.79780298828E+02  0.00000000000E+00 0. -1.
          1    1    1    2  501    0 -0.20440352159E+02  0.23228423110E+02 -0.65250698920E+02  0.72215104695E+02  0.00000000000E+00 0. -1.
<scales pt_clust_5="13000.00000" pt_clust_6="13000.00000" pt_clust_7="13000.00000" pt_clust_8="13000.00000" pt_clust_9="21.40937" pt_clust_10="31.61754"></scales>
<clustering>
<clus scale="   21.409">  2  9  1 -1</clus>
<clus scale="   31.618">  1 10  2 -1</clus>
<clus scale="   78.319">  5  6 -1 -1</clus>
<clus scale="   86.225">  7  8 -1 -1</clus>
<clus scale="  107.537">  1  5  2 -1</clus>
<clus scale="   31.618">  1  5  2 -1</clus>
</clustering>
</event>
<event>
10    4  0.3738096E-005  0.1990098E+03  0.7546771E-02  0.1187185E+00
          2   -1    0    0  503    0 -0.00000000000E+00  0.00000000000E+00  0.51075207194E+03  0.51075207194E+03  0.00000000000E+00 0. -1.
         21   -1    0    0  501  502  0.00000000000E+00 -0.00000000000E+00 -0.32108539424E+03  0.32108539424E+03  0.00000000000E+00 0. -1.
         24    2    1    2    0    0  0.34290185462E+01 -0.30969577496E+02 -0.65730801403E+02  0.10822924811E+03  0.80138374046E+02 0.  0.
         23    2    1    2    0    0  0.83225466572E+02  0.16839039648E+03 -0.11393713150E+03  0.23742633339E+03  0.90043267048E+02 0.  0.
        -11    1    3    3    0    0 -0.21915211745E+02  0.19593413394E+02 -0.23763447502E+02  0.37800526339E+02  0.00000000000E+00 0.  1.
         12    1    3    3    0    0  0.25344230292E+02 -0.50562990890E+02 -0.41967353902E+02  0.70428721771E+02  0.00000000000E+00 0. -1.
        -13    1    4    4    0    0  0.10202543475E+03  0.12837645872E+03 -0.92871175060E+02  0.18845360078E+03  0.00000000000E+00 0. -1.
         13    1    4    4    0    0 -0.18799968182E+02  0.40013937759E+02 -0.21065956441E+02  0.48972732611E+02  0.00000000000E+00 0.  1.
         21    1    1    2  503  502  0.89217580617E+02 -0.91497546927E+02  0.10508719079E+03  0.16545360514E+03  0.00000000000E+00 0. -1.
          1    1    1    2  501    0 -0.17587206573E+03 -0.45923272054E+02  0.26424741981E+03  0.32072827954E+03  0.00000000000E+00 0. -1.
<scales pt_clust_5="13000.00000" pt_clust_6="13000.00000" pt_clust_7="13000.00000" pt_clust_8="13000.00000" pt_clust_9="134.68820" pt_clust_10="177.47431"></scales>
<clustering>
<clus scale="   80.138">  5  6 -1 -1</clus>
<clus scale="   85.983">  1  5  2 -1</clus>
<clus scale="   90.043">  7  8 -1 -1</clus>
<clus scale="  134.688">  1  9  2 -1</clus>
<clus scale="  177.474">  2 10  1 -1</clus>
<clus scale="  177.474">  2  5  1 -1</clus>
</clustering>
</event>
<event>
10    4  0.3738096E-005  0.1265438E+03  0.7546771E-02  0.1234715E+00
          2   -1    0    0  503    0 -0.00000000000E+00  0.00000000000E+00  0.11094692699E+04  0.11094692699E+04  0.00000000000E+00 0. -1.
         21   -1    0    0  501  502  0.00000000000E+00 -0.00000000000E+00 -0.38196127619E+02  0.38196127619E+02  0.00000000000E+00 0.  1.
         24    2    1    2    0    0 -0.88008206659E+01 -0.62316869669E+02  0.55688489429E+03  0.56660631913E+03  0.83433139099E+02 0.  0.
         23    2    1    2    0    0  0.25841688607E+00  0.69901574096E+02  0.13756647562E+03  0.17904648138E+03  0.90811950973E+02 0.  0.
        -13    1    3    3    0    0 -0.12312426288E+02 -0.32984483468E+02  0.65744145273E+02  0.74577909788E+02  0.00000000000E+00 0.  1.
         14    1    3    3    0    0  0.35116056221E+01 -0.29332386202E+02  0.49114074901E+03  0.49202840934E+03  0.00000000000E+00 0. -1.
        -13    1    4    4    0    0  0.41558792330E+02  0.11633609173E+02  0.53558904117E+02  0.68782485361E+02  0.00000000000E+00 0. -1.
         13    1    4    4    0    0 -0.41300375444E+02  0.58267964923E+02  0.84007571504E+02  0.11026399602E+03  0.00000000000E+00 0.  1.
         21    1    1    2  503  502 -0.10839841845E+02 -0.56932736305E+02  0.31624387215E+03  0.32151053686E+03  0.00000000000E+00 0. -1.
          1    1    1    2  501    0  0.19382245625E+02  0.49348031878E+02  0.60577900251E+02  0.80502060188E+02  0.00000000000E+00 0. -1.
<scales pt_clust_5="13000.00000" pt_clust_6="13000.00000" pt_clust_7="13000.00000" pt_clust_8="13000.00000" pt_clust_9="53.10389" pt_clust_10="53.01792"></scales>
<clustering>
<clus scale="   53.018">  2 10  1 -1</clus>
<clus scale="   53.104">  1  9  2 -1</clus>
<clus scale="   83.433">  5  6 -1 -1</clus>
<clus scale="   90.812">  7  8 -1 -1</clus>
<clus scale="  121.357">  1  5  2 -1</clus>
<clus scale="   53.018">  2  5  1 -1</clus>
</clustering>
</event>
<event>
10    4  0.3738096E-005  0.1299602E+03  0.7546771E-02  0.1249250E+00
         21   -1    0    0  501  502  0.00000000000E+00  0.00000000000E+00  0.97303797756E+02  0.97303797756E+02  0.00000000000E+00 0.  1.
          2   -1    0    0  503    0 -0.00000000000E+00 -0.00000000000E+00 -0.72927645181E+03  0.72927645181E+03  0.00000000000E+00 0. -1.
         24    2    1    2    0    0 -0.11491263431E+02 -0.23964551833E+02  0.49290922706E+02  0.96687421090E+02  0.78819499212E+02 0.  0.
         23    2    1    2    0    0 -0.60983544711E+02  0.23226229447E+02 -0.47051931931E+03  0.48530018973E+03  0.99344822956E+02 0.  0.
        -13    1    3    3    0    0 -0.19311866725E+02 -0.49690145411E+02  0.44355094128E+02  0.69350076586E+02  0.00000000000E+00 0.  1.
         14    1    3    3    0    0  0.78206032938E+01  0.25725593577E+02  0.49358285777E+01  0.27337344504E+02  0.00000000000E+00 0. -1.
        -11    1    4    4    0    0  0.18837956871E+02 -0.16173767689E+02 -0.54872792659E+02  0.60228587519E+02  0.00000000000E+00 0.  1.
         11    1    4    4    0    0 -0.79821501582E+02  0.39399997136E+02 -0.41564652665E+03  0.42507160221E+03  0.00000000000E+00 0. -1.
         21    1    1    2  503  502 -0.19713838019E+02 -0.20161373810E+02 -0.34121335452E+02  0.44264906375E+02  0.00000000000E+00 0. -1.
          1    1    1    2  501    0  0.92188646161E+02  0.20899696196E+02 -0.17662292200E+03  0.20032773237E+03  0.00000000000E+00 0. -1.
<scales pt_clust_5="13000.00000" pt_clust_6="13000.00000" pt_clust_7="13000.00000" pt_clust_8="13000.00000" pt_clust_9="28.19781" pt_clust_10="83.78692"></scales>
<clustering>
<clus scale="   28.198">  2  9  1 -1</clus>
<clus scale="   78.819">  5  6 -1 -1</clus>
<clus scale="   83.478">  2  5  1 -1</clus>
<clus scale="   83.787">  1 10  2 -1</clus>
<clus scale="   99.345">  7  8 -1 -1</clus>
<clus scale="   83.787">  1  5  2 -1</clus>
</clustering>
</event>
<event>
10    4  0.3738096E-005  0.1867318E+03  0.7546771E-02  0.1171255E+00
          2   -1    0    0  502    0 -0.00000000000E+00  0.00000000000E+00  0.27804244414E+03  0.27804244414E+03  0.00000000000E+00 0. -1.
         21   -1    0    0  503  502  0.00000000000E+00 -0.00000000000E+00 -0.35795719976E+03  0.35795719976E+03  0.00000000000E+00 0.  1.
         24    2    1    2    0    0 -0.61267373028E+02  0.10751559906E+03 -0.17770700108E+03  0.23189235292E+03  0.82951733401E+02 0.  0.
         23    2    1    2    0    0 -0.12289277462E+03 -0.10405470043E+02  0.89164249257E+02  0.17600826307E+03  0.88417970254E+02 0.  0.
        -11    1    3    3    0    0 -0.40440627285E+02  0.10201871038E+03 -0.17938102834E+03  0.21028745786E+03  0.00000000000E+00 0.  1.
         12    1    3    3    0    0 -0.20826745743E+02  0.54968886780E+01  0.16740272699E+01  0.21604895063E+02  0.00000000000E+00 0. -1.
        -13    1    4    4    0    0 -0.78277949215E+02  0.26671647468E+02  0.18786855658E+02  0.84804245516E+02  0.00000000000E+00 0.  1.
         13    1    4    4    0    0 -0.44614825407E+02 -0.37077117511E+02  0.70377393599E+02  0.91204017558E+02  0.00000000000E+00 0. -1.
         21    1    1    2  503  501  0.55377002774E+02 -0.80390652004E+02 -0.34165562890E+01  0.97677746814E+02  0.00000000000E+00 0. -1.
          1    1    1    2  501    0  0.12878314488E+03 -0.16719477015E+02  0.12044552481E+02  0.13042128109E+03  0.00000000000E+00 0. -1.
<scales pt_clust_5="13000.00000" pt_clust_6="13000.00000" pt_clust_7="13000.00000" pt_clust_8="13000.00000" pt_clust_9="80.44643" pt_clust_10="80.44643"></scales>
<clustering>
<clus scale="   80.446">  9 10 -1 -1</clus>
<clus scale="   82.952">  5  6 -1 -1</clus>
<clus scale="   88.418">  7  8 -1 -1</clus>
<clus scale="  148.978">  1  5  2 -1</clus>
<clus scale="  184.600">  1  7  2 -1</clus>
<clus scale="  186.732">  2  5  1 -1</clus>
</clustering>
</event>
<event>
10    4  0.3738096E-005  0.9176322E+02  0.7546771E-02  0.1302423E+00
         -3   -1    0    0    0  501 -0.00000000000E+00  0.00000000000E+00  0.93767203355E+02  0.93767203355E+02  0.00000000000E+00 0.  1.
         21   -1    0    0  503  502  0.00000000000E+00 -0.00000000000E+00 -0.53131161664E+03  0.53131161664E+03  0.00000000000E+00 0.  1.
         23    2    1    2    0    0 -0.62551202324E+01 -0.11567397926E+02  0.19767259275E+02  0.94134377512E+02  0.91091192035E+02 0.  0.
         24    2    1    2    0    0  0.12634444014E+02 -0.37518804802E+02 -0.74748418787E+02  0.11686587438E+03  0.80641283437E+02 0.  0.
        -13    1    4    4    0    0  0.33737678309E+02 -0.13046894989E+02 -0.81803697165E+00  0.36181785349E+02  0.00000000000E+00 0.  1.
         14    1    4    4    0    0 -0.21103234295E+02 -0.24471909813E+02 -0.73930381815E+02  0.80684089032E+02  0.00000000000E+00 0. -1.
        -13    1    3    3    0    0  0.28515293487E+02  0.27583034938E+02  0.83122007187E+01  0.40534410812E+02  0.00000000000E+00 0.  1.
         13    1    3    3    0    0 -0.34770413720E+02 -0.39150432865E+02  0.11455058556E+02  0.53599966700E+02  0.00000000000E+00 0. -1.
         21    1    1    2  503  501 -0.21472183639E+01 -0.38883238386E+02 -0.26059699442E+02  0.46857493628E+02  0.00000000000E+00 0. -1.
         -4    1    1    2    0  502 -0.42321054180E+01  0.87969441115E+02 -0.35650355433E+03  0.36722107447E+03  0.00000000000E+00 0.  1.
<scales pt_clust_5="13000.00000" pt_clust_6="13000.00000" pt_clust_7="13000.00000" pt_clust_8="13000.00000" pt_clust_9="38.94248" pt_clust_10="85.58175"></scales>
<clustering>
<clus scale="   38.942">  1  9  2 -1</clus>
<clus scale="   80.641">  5  6 -1 -1</clus>
<clus scale="   85.582">  2 10  1 -1</clus>
<clus scale="   85.582">  2  5  1 -1</clus>
<clus scale="   91.091">  7  8 -1 -1</clus>
<clus scale="   85.582">  2  5  1 -1</clus>
</clustering>
</event>
<event>
10    4  0.3738096E-005  0.1857761E+03  0.7546771E-02  0.1185272E+00
         21   -1    0    0  501  502  0.00000000000E+00  0.00000000000E+00  0.38147315245E+03  0.38147315245E+03  0.00000000000E+00 0.  1.
          2   -1    0    0  503    0 -0.00000000000E+00 -0.00000000000E+00 -0.32843984971E+03  0.32843984971E+03  0.00000000000E+00 0. -1.
         24    2    1    2    0    0 -0.24178037596E+02 -0.67447184772E+02  0.13738030977E+03  0.17453573365E+03  0.80347200160E+02 0.  0.
         23    2    1    2    0    0  0.77631043593E+02 -0.12258466054E+03  0.75564005512E+02  0.18769387602E+03  0.92008120509E+02 0.  0.
        -11    1    3    3    0    0 -0.37245345797E+02 -0.76446987095E+02  0.13336402541E+03  0.15816864700E+03  0.00000000000E+00 0.  1.
         12    1    3    3    0    0  0.13067308200E+02  0.89998023221E+01  0.40162843548E+01  0.16367086651E+02  0.00000000000E+00 0. -1.
        -13    1    4    4    0    0  0.94801333748E+02 -0.76903584053E+02  0.62665284364E+02  0.13721658786E+03  0.00000000000E+00 0.  1.
         13    1    4    4    0    0 -0.17170290155E+02 -0.45681076485E+02  0.12898721149E+02  0.50477288161E+02  0.00000000000E+00 0. -1.
         21    1    1    2  503  502 -0.33477724217E+02 -0.52555415317E+02 -0.13911474760E+02  0.63846368948E+02  0.00000000000E+00 0.  1.
          1    1    1    2  501    0 -0.19975281780E+02  0.24258726063E+03 -0.14599953778E+03  0.28383702354E+03  0.00000000000E+00 0. -1.
<scales pt_clust_5="13000.00000" pt_clust_6="13000.00000" pt_clust_7="13000.00000" pt_clust_8="13000.00000" pt_clust_9="62.31236" pt_clust_10="161.39171"></scales>
<clustering>
<clus scale="   62.312">  2  9  1 -1</clus>
<clus scale="   80.347">  5  6 -1 -1</clus>
<clus scale="   92.008">  7  8 -1 -1</clus>
<clus scale="  110.291">  2  5  1 -1</clus>
<clus scale="  161.392">  1 10  2 -1</clus>
<clus scale="  161.392">  1  5  2 -1</clus>
</clustering>
</event>
<event>
10    4  0.3738096E-005  0.2055249E+03  0.7546771E-02  0.1174347E+00
         21   -1    0    0  501  502  0.00000000000E+00  0.00000000000E+00  0.52001208963E+03  0.52001208963E+03  0.00000000000E+00 0. -1.
          2   -1    0    0  503    0 -0.00000000000E+00 -0.00000000000E+00 -0.25134207243E+03  0.25134207243E+03  0.00000000000E+00 0. -1.
         24    2    1    2    0    0 -0.83350792922E+02 -0.13747559963E+01 -0.14984927362E+02  0.11887748016E+03  0.83415002290E+02 0.  0.
         23    2    1    2    0    0 -0.47326401682E+02 -0.13407008857E+03 -0.28914180054E+02  0.17044462444E+03  0.89446985663E+02 0.  0.
        -11    1    3    3    0    0 -0.48334561199E+02  0.40655820938E+02 -0.60749392084E+01  0.63451008415E+02  0.00000000000E+00 0.  1.
         12    1    3    3    0    0 -0.35016231723E+02 -0.42030576934E+02 -0.89099881534E+01  0.55426471748E+02  0.00000000000E+00 0. -1.
        -13    1    4    4    0    0  0.24410924166E+02 -0.15440525008E+02 -0.28355038983E+00  0.28885695975E+02  0.00000000000E+00 0.  1.
         13    1    4    4    0    0 -0.71737325848E+02 -0.11862956357E+03 -0.28630629664E+02  0.14155892846E+03  0.00000000000E+00 0. -1.
         21    1    1    2  503  502  0.69202024010E+02 -0.51071858730E+02 -0.26671174187E+02  0.90047800716E+02  0.00000000000E+00 0. -1.
          1    1    1    2  501    0  0.61475170594E+02  0.18651670330E+03  0.33924029880E+03  0.39198425675E+03  0.00000000000E+00 0. -1.
<scales pt_clust_5="13000.00000" pt_clust_6="13000.00000" pt_clust_7="13000.00000" pt_clust_8="13000.00000" pt_clust_9="86.00730" pt_clust_10="185.03976"></scales>
<clustering>
<clus scale="   83.415">  5  6 -1 -1</clus>
<clus scale="   86.007">  2  9  1 -1</clus>
<clus scale="   89.447">  7  8 -1 -1</clus>
<clus scale="  104.138">  2  5  1 -1</clus>
<clus scale="  185.040">  1 10  2 -1</clus>
<clus scale="  185.040">  1  5  2 -1</clus>
</clustering>
</event>
<event>
10    4  0.3738096E-005  0.3189986E+03  0.7546771E-02  0.1121780E+00
          2   -1    0    0  503    0 -0.00000000000E+00  0.00000000000E+00  0.68030234157E+03  0.68030234157E+03  0.00000000000E+00 0. -1.
         21   -1    0    0  501  502  0.00000000000E+00 -0.00000000000E+00 -0.12366073800E+04  0.12366073800E+04  0.00000000000E+00 0. -1.
         24    2    1    2    0    0 -0.57922610508E+02  0.55029252998E+01  0.32136857823E+03  0.33576346239E+03  0.77936054613E+02 0.  0.
         23    2    1    2    0    0 -0.42810558679E+02 -0.13658172304E+03 -0.53797351744E+03  0.56418266190E+03  0.91647474195E+02 0.  0.
        -11    1    3    3    0    0 -0.12234348239E+02  0.18300370203E+02  0.17252423573E+02  0.27968356147E+02  0.00000000000E+00 0.  1.
         12    1    3    3    0    0 -0.45688262269E+02 -0.12797444903E+02  0.30411615466E+03  0.30779510624E+03  0.00000000000E+00 0. -1.
        -13    1    4    4    0    0 -0.46900732581E+02 -0.16667534121E+02 -0.14547401082E+03  0.15375361210E+03  0.00000000000E+00 0.  1.
         13    1    4    4    0    0  0.40901739021E+01 -0.11991418892E+03 -0.39249950662E+03  0.41042904980E+03  0.00000000000E+00 0. -1.
         21    1    1    2  503  502  0.39237644018E+03  0.20004508743E+02  0.16292997517E+03  0.42533002244E+03  0.00000000000E+00 0. -1.
          1    1    1    2  501    0 -0.29164327099E+03  0.11107428900E+03 -0.50263007442E+03  0.59163357486E+03  0.00000000000E+00 0. -1.
<scales pt_clust_5="13000.00000" pt_clust_6="13000.00000" pt_clust_7="13000.00000" pt_clust_8="13000.00000" pt_clust_9="13000.00000" pt_clust_10="318.99859"></scales>
<clustering>
<clus scale="   77.936">  5  6 -1 -1</clus>
<clus scale="   91.647">  7  8 -1 -1</clus>
<clus scale="   97.259">  1  5  2 -1</clus>
<clus scale="  170.353">  1  7  2 -1</clus>
<clus scale="  318.999">  2 10  1 -1</clus>
<clus scale="  318.999">  2  5  1 -1</clus>
</clustering>
</event>
<event>
10    4  0.3738096E-005  0.1175279E+03  0.7546771E-02  0.1250555E+00
         21   -1    0    0  501  502  0.00000000000E+00  0.00000000000E+00  0.60931925314E+02  0.60931925314E+02  0.00000000000E+00 0. -1.
          2   -1    0    0  503    0 -0.00000000000E+00 -0.00000000000E+00 -0.14642604788E+04  0.14642604788E+04  0.00000000000E+00 0. -1.
         24    2    1    2    0    0 -0.72478758256E+02 -0.46412483899E+02 -0.86005696386E+03  0.86832650279E+03  0.82979788615E+02 0.  0.
         23    2    1    2    0    0  0.70305221610E+02  0.56144652807E+02 -0.34083698689E+03  0.36451469553E+03  0.92768881632E+02 0.  0.
        -13    1    3    3    0    0 -0.54026550768E+02 -0.10922231959E+02 -0.21240015228E+03  0.21943561249E+03  0.00000000000E+00 0.  1.
         14    1    3    3    0    0 -0.18452207488E+02 -0.35490251940E+02 -0.64765681158E+03  0.64889089031E+03  0.00000000000E+00 0. -1.
        -11    1    4    4    0    0 -0.22964982884E+02  0.13204754302E+02 -0.65430210394E+02  0.70589435522E+02  0.00000000000E+00 0. -1.
         11    1    4    4    0    0  0.93270204494E+02  0.42939898505E+02 -0.27540677650E+03  0.29392526001E+03  0.00000000000E+00 0.  1.
         21    1    1    2  503  502  0.19333428890E+02  0.29622015515E+02 -0.23551228966E+03  0.23815390792E+03  0.00000000000E+00 0. -1.
          1    1    1    2  501    0 -0.17159892243E+02 -0.39354184423E+02  0.33077686870E+02  0.54197297922E+02  0.00000000000E+00 0. -1.
<scales pt_clust_5="13000.00000" pt_clust_6="13000.00000" pt_clust_7="13000.00000" pt_clust_8="13000.00000" pt_clust_9="35.37295" pt_clust_10="42.63261"></scales>
<clustering>
<clus scale="   35.373">  2  9  1 -1</clus>
<clus scale="   42.633">  1 10  2 -1</clus>
<clus scale="   82.980">  5  6 -1 -1</clus>
<clus scale="   92.769">  7  8 -1 -1</clus>
<clus scale="  109.965">  2  5  1 -1</clus>
<clus scale="   42.633">  1  5  2 -1</clus>
</clustering>
</event>
<event>
10    4  0.3738096E-005  0.1271682E+03  0.7546771E-02  0.1234636E+00
         21   -1    0    0  501  502  0.00000000000E+00  0.00000000000E+00  0.28435057055E+03  0.28435057055E+03  0.00000000000E+00 0. -1.
          2   -1    0    0  503    0 -0.00000000000E+00 -0.00000000000E+00 -0.12450044907E+03  0.12450044907E+03  0.00000000000E+00 0. -1.
         24    2    1    2    0    0  0.56356344767E+02  0.66591510286E+02 -0.21299747482E+01  0.11883269706E+03  0.80661057896E+02 0.  0.
         23    2    1    2    0    0 -0.72573123198E+02 -0.26987746074E+02  0.13156795896E+03  0.17786980754E+03  0.91281673750E+02 0.  0.
        -13    1    3    3    0    0  0.36198695873E+02 -0.11303195541E+02 -0.54038242235E+01  0.38305471262E+02  0.00000000000E+00 0.  1.
         14    1    3    3    0    0  0.20157648894E+02  0.77894705827E+02  0.32738494752E+01  0.80527225801E+02  0.00000000000E+00 0. -1.
        -13    1    4    4    0    0 -0.82812462784E+02  0.24964527824E+01  0.11715733198E+03  0.14349207889E+03  0.00000000000E+00 0. -1.
         13    1    4    4    0    0  0.10239339585E+02 -0.29484198856E+02  0.14410626982E+02  0.34377728653E+02  0.00000000000E+00 0.  1.
         21    1    1    2  503  502  0.50984837015E+01  0.24367283532E+02 -0.18366866657E+02  0.30937046297E+02  0.00000000000E+00 0. -1.
          1    1    1    2  501    0  0.11118294730E+02 -0.63971047744E+02  0.48779003926E+02  0.81211468717E+02  0.00000000000E+00 0. -1.
<scales pt_clust_5="13000.00000" pt_clust_6="13000.00000" pt_clust_7="13000.00000" pt_clust_8="13000.00000" pt_clust_9="24.89496" pt_clust_10="61.19107"></scales>
<clustering>
<clus scale="   24.895">  2  9  1 -1</clus>
<clus scale="   61.191">  1 10  2 -1</clus>
<clus scale="   80.661">  5  6 -1 -1</clus>
<clus scale="   91.282">  7  8 -1 -1</clus>
<clus scale="  119.773">  2  5  1 -1</clus>
<clus scale="   61.191">  1  5  2 -1</clus>
</clustering>
</event>
<event>
10    4  0.3738096E-005  0.1411082E+03  0.7546771E-02  0.1238162E+00
          2   -1    0    0  503    0 -0.00000000000E+00  0.00000000000E+00  0.31903075506E+03  0.31903075506E+03  0.00000000000E+00 0. -1.
         21   -1    0    0  501  502  0.00000000000E+00 -0.00000000000E+00 -0.11646054677E+03  0.11646054677E+03  0.00000000000E+00 0.  1.
         24    2    1    2    0    0  0.13337711373E+02  0.50978025128E+01  0.12040332262E+03  0.14554726786E+03  0.80518103246E+02 0.  0.
         23    2    1    2    0    0  0.46527205249E+02  0.88153550786E+02  0.41170768305E+02  0.14105870093E+03  0.90921370422E+02 0.  0.
        -11    1    3    3    0    0  0.37964996043E+00  0.36182383989E+02  0.23972666033E+02  0.43405043048E+02  0.00000000000E+00 0.  1.
         12    1    3    3    0    0  0.12958061413E+02 -0.31084581477E+02  0.96430656584E+02  0.10214222482E+03  0.00000000000E+00 0. -1.
        -11    1    4    4    0    0  0.89648643224E+01  0.91942908402E+02  0.11602181985E+02  0.93104660595E+02  0.00000000000E+00 0.  1.
         11    1    4    4    0    0  0.37562340927E+02 -0.37893576159E+01  0.29568586319E+02  0.47954040330E+02  0.00000000000E+00 0. -1.
         21    1    1    2  503  502 -0.42450456191E+02 -0.10703984659E+03  0.49180785196E+02  0.12521309684E+03  0.00000000000E+00 0. -1.
          1    1    1    2  501    0 -0.17414460432E+02  0.13788493288E+02 -0.81846678222E+01  0.23672236199E+02  0.00000000000E+00 0. -1.
<scales pt_clust_5="13000.00000" pt_clust_6="13000.00000" pt_clust_7="13000.00000" pt_clust_8="13000.00000" pt_clust_9="107.91121" pt_clust_10="22.21229"></scales>
<clustering>
<clus scale="   22.212">  2 10  1 -1</clus>
<clus scale="   80.518">  5  6 -1 -1</clus>
<clus scale="   81.574">  1  5  2 -1</clus>
<clus scale="   90.921">  7  8 -1 -1</clus>
<clus scale="  107.911">  1  9  2 -1</clus>
<clus scale="   22.212">  2  5  1 -1</clus>
</clustering>
</event>
<event>
10    4  0.3738096E-005  0.2116913E+03  0.7546771E-02  0.1141091E+00
          4   -1    0    0  503    0 -0.00000000000E+00  0.00000000000E+00  0.60204003575E+03  0.60204003575E+03  0.00000000000E+00 0. -1.
         21   -1    0    0  501  502  0.00000000000E+00 -0.00000000000E+00 -0.22442360182E+03  0.22442360182E+03  0.00000000000E+00 0.  1.
         24    2    1    2    0    0 -0.13615729361E+03 -0.15949282105E+03  0.38806491346E+03  0.44858692230E+03  0.81603193743E+02 0.  0.
         23    2    1    2    0    0  0.10587558704E+03  0.12461150634E+03 -0.99892446628E+02  0.21257689390E+03  0.92047637030E+02 0.  0.
        -11    1    3    3    0    0 -0.37649321955E+02 -0.18302976524E+02  0.14366037526E+03  0.14963546977E+03  0.00000000000E+00 0.  1.
         12    1    3    3    0    0 -0.98507971657E+02 -0.14118984452E+03  0.24440453820E+03  0.29895145253E+03  0.00000000000E+00 0. -1.
        -11    1    4    4    0    0  0.75484862223E+02  0.65727681751E+02 -0.95594815097E+01  0.10054589131E+03  0.00000000000E+00 0. -1.
         11    1    4    4    0    0  0.30390724817E+02  0.58883824585E+02 -0.90332965119E+02  0.11203100258E+03  0.00000000000E+00 0.  1.
         21    1    1    2  503  502 -0.62143241307E+01  0.28800140159E+02  0.11604742959E+03  0.11972916024E+03  0.00000000000E+00 0. -1.
          3    1    1    2  501    0  0.36496030702E+02  0.60811745534E+01 -0.26603462480E+02  0.45570661142E+02  0.00000000000E+00 0. -1.
<scales pt_clust_5="13000.00000" pt_clust_6="13000.00000" pt_clust_7="13000.00000" pt_clust_8="13000.00000" pt_clust_9="29.46296" pt_clust_10="36.97635"></scales>
<clustering>
<clus scale="   29.463">  1  9  2 -1</clus>
<clus scale="   36.976">  2 10  1 -1</clus>
<clus scale="   81.603">  5  6 -1 -1</clus>
<clus scale="   92.048">  7  8 -1 -1</clus>
<clus scale="  207.363">  1  5  2 -1</clus>
<clus scale="   36.976">  2  5  1 -1</clus>
</clustering>
</event>
<event>
10    4  0.3738096E-005  0.1508988E+03  0.7546771E-02  0.1199958E+00
         21   -1    0    0  501  502  0.00000000000E+00  0.00000000000E+00  0.26364677780E+03  0.26364677780E+03  0.00000000000E+00 0.  1.
          2   -1    0    0  503    0 -0.00000000000E+00 -0.00000000000E+00 -0.39728237061E+03  0.39728237061E+03  0.00000000000E+00 0. -1.
         24    2    1    2    0    0 -0.10283187399E+03  0.85497715855E+02  0.41333631542E+02  0.16444952334E+03  0.86318728603E+02 0.  0.
         23    2    1    2    0    0  0.13372641848E+02 -0.13358496011E+03  0.95500272080E+02  0.18752854838E+03  0.89570560875E+02 0.  0.
        -13    1    3    3    0    0 -0.19934016693E+02  0.64777656547E+02  0.40585711110E+02  0.78998162989E+02  0.00000000000E+00 0.  1.
         14    1    3    3    0    0 -0.82897857293E+02  0.20720059308E+02  0.74792043134E+00  0.85451360355E+02  0.00000000000E+00 0. -1.
        -13    1    4    4    0    0 -0.27131040350E+02 -0.92023378315E+02  0.85761305464E+02  0.12868332068E+03  0.00000000000E+00 0.  1.
         13    1    4    4    0    0  0.40503682198E+02 -0.41561581790E+02  0.97389666154E+01  0.58845227702E+02  0.00000000000E+00 0. -1.
         21    1    1    2  503  502  0.29183495236E+02 -0.23354806294E+02 -0.15968673685E+03  0.16400297953E+03  0.00000000000E+00 0. -1.
          1    1    1    2  501    0  0.60275736902E+02  0.71442050545E+02 -0.11078275959E+03  0.14494809715E+03  0.00000000000E+00 0. -1.
<scales pt_clust_5="13000.00000" pt_clust_6="13000.00000" pt_clust_7="13000.00000" pt_clust_8="13000.00000" pt_clust_9="37.37811" pt_clust_10="96.16431"></scales>
<clustering>
<clus scale="   37.378">  2  9  1 -1</clus>
<clus scale="   86.319">  5  6 -1 -1</clus>
<clus scale="   89.571">  7  8 -1 -1</clus>
<clus scale="   96.164">  1 10  2 -1</clus>
<clus scale="  148.992">  2  5  1 -1</clus>
<clus scale="   96.164">  1  5  2 -1</clus>
</clustering>
</event>
<event>
10    4  0.5068671E-005  0.3765357E+03  0.7546771E-02  0.1071634E+00
         21   -1    0    0  503  502  0.00000000000E+00  0.00000000000E+00  0.23273784880E+03  0.23273784880E+03  0.00000000000E+00 0. -1.
          2   -1    0    0  502    0 -0.00000000000E+00 -0.00000000000E+00 -0.21059626109E+04  0.21059626109E+04  0.00000000000E+00 0. -1.
         23    2    1    2    0    0 -0.19763791786E+03 -0.24054610574E+02 -0.35111581008E+03  0.41360521840E+03  0.90264022350E+02 0.  0.
         24    2    1    2    0    0 -0.28885911325E+02  0.38242885908E+03 -0.59830936465E+02  0.39664321525E+03  0.81608033407E+02 0.  0.
        -13    1    4    4    0    0 -0.49877834658E+02  0.13893326463E+03 -0.26666797575E+02  0.15000456161E+03  0.00000000000E+00 0.  1.
         14    1    4    4    0    0  0.20991923332E+02  0.24349559445E+03 -0.33164138890E+02  0.24663865364E+03  0.00000000000E+00 0. -1.
        -11    1    3    3    0    0 -0.61429613715E+02  0.15141236236E+02 -0.18347658483E+03  0.19407862236E+03  0.00000000000E+00 0.  1.
         11    1    3    3    0    0 -0.13620830414E+03 -0.39195846811E+02 -0.16763922525E+03  0.21952659604E+03  0.00000000000E+00 0. -1.
         21    1    1    2  503  501 -0.16403017316E+01 -0.21118530416E+02 -0.17763079887E+02  0.27644347049E+02  0.00000000000E+00 0.  1.
          1    1    1    2  501    0  0.22816413092E+03 -0.33725571809E+03 -0.14445149356E+04  0.15008076790E+04  0.00000000000E+00 0. -1.
<scales pt_clust_5="13000.00000" pt_clust_6="13000.00000" pt_clust_7="13000.00000" pt_clust_8="13000.00000" pt_clust_9="21.18214" pt_clust_10="367.58595"></scales>
<clustering>
<clus scale="   21.182">  1  9  2 -1</clus>
<clus scale="   81.608">  5  6 -1 -1</clus>
<clus scale="   90.264">  7  8 -1 -1</clus>
<clus scale="  219.143">  2  7  1 -1</clus>
<clus scale="  367.586">  1 10  2 -1</clus>
<clus scale="   21.182">  1  5  2 -1</clus>
</clustering>
</event>
<event>
10    4  0.3738096E-005  0.1329949E+03  0.7546771E-02  0.1226205E+00
         -3   -1    0    0    0  501 -0.00000000000E+00  0.00000000000E+00  0.11046620078E+03  0.11046620078E+03  0.00000000000E+00 0.  1.
         21   -1    0    0  503  502  0.00000000000E+00 -0.00000000000E+00 -0.63783772198E+03  0.63783772198E+03  0.00000000000E+00 0.  1.
         23    2    1    2    0    0  0.69915676191E+02 -0.50978094864E+02 -0.50505399572E+02  0.13597320225E+03  0.91929040092E+02 0.  0.
         24    2    1    2    0    0 -0.11080691874E+03  0.70796003263E+02 -0.47026284017E+03  0.49469962248E+03  0.79311602709E+02 0.  0.
        -13    1    4    4    0    0 -0.35262616978E+02 -0.75279643822E+01 -0.20222722459E+03  0.20541658348E+03  0.00000000000E+00 0.  1.
         14    1    4    4    0    0 -0.75544301758E+02  0.78323967645E+02 -0.26803561558E+03  0.28928303900E+03  0.00000000000E+00 0. -1.
        -13    1    3    3    0    0  0.54715175060E+02 -0.72129818119E+02 -0.59592010659E+02  0.10838666329E+03  0.00000000000E+00 0.  1.
         13    1    3    3    0    0  0.15200501131E+02  0.21151723255E+02  0.90866110873E+01  0.27586538969E+02  0.00000000000E+00 0. -1.
         21    1    1    2  503  501 -0.27234701237E+02 -0.37074741202E+02  0.54596217894E+01  0.46325725647E+02  0.00000000000E+00 0.  1.
         -4    1    1    2    0  502  0.68125943782E+02  0.17256832803E+02 -0.12062903254E+02  0.71305372375E+02  0.00000000000E+00 0.  1.
<scales pt_clust_5="13000.00000" pt_clust_6="13000.00000" pt_clust_7="13000.00000" pt_clust_8="13000.00000" pt_clust_9="46.00288" pt_clust_10="58.74275"></scales>
<clustering>
<clus scale="   46.003">  1  9  2 -1</clus>
<clus scale="   58.743">  2 10  1 -1</clus>
<clus scale="   79.312">  5  6 -1 -1</clus>
<clus scale="   91.929">  7  8 -1 -1</clus>
<clus scale="  124.607">  2  5  1 -1</clus>
<clus scale="   58.743">  2  5  1 -1</clus>
</clustering>
</event>
<event>
10    4  0.3738096E-005  0.9574471E+02  0.7546771E-02  0.1293456E+00
          2   -1    0    0  502    0 -0.00000000000E+00  0.00000000000E+00  0.42024725457E+03  0.42024725457E+03  0.00000000000E+00 0. -1.
         21   -1    0    0  503  502  0.00000000000E+00 -0.00000000000E+00 -0.75507964475E+02  0.75507964475E+02  0.00000000000E+00 0. -1.
         24    2    1    2    0    0  0.88654742950E+01 -0.43033981109E+02  0.16937846372E+03  0.19064551800E+03  0.75671192669E+02 0.  0.
         23    2    1    2    0    0 -0.23742082680E+02  0.53081372298E+02  0.25497052714E+02  0.10495379884E+03  0.83569621392E+02 0.  0.
        -13    1    3    3    0    0  0.17168200327E+01 -0.63055246770E+02  0.10138623889E+03  0.11940720687E+03  0.00000000000E+00 0.  1.
         14    1    3    3    0    0  0.71486542623E+01  0.20021265661E+02  0.67992224830E+02  0.71238311138E+02  0.00000000000E+00 0. -1.
        -11    1    4    4    0    0  0.19019797598E+02 -0.11583432527E+02 -0.27597104340E+01  0.22439799719E+02  0.00000000000E+00 0. -1.
         11    1    4    4    0    0 -0.42761880278E+02  0.64664804825E+02  0.28256763148E+02  0.82513999125E+02  0.00000000000E+00 0.  1.
         21    1    1    2  503  501 -0.31285226354E+02 -0.45936924974E+02  0.22404184655E+02  0.59924235115E+02  0.00000000000E+00 0. -1.
          1    1    1    2  501    0  0.46161834739E+02  0.35889533784E+02  0.12745958901E+03  0.14023166708E+03  0.00000000000E+00 0. -1.
<scales pt_clust_5="13000.00000" pt_clust_6="13000.00000" pt_clust_7="13000.00000" pt_clust_8="13000.00000" pt_clust_9="55.57847" pt_clust_10="52.55472"></scales>
<clustering>
<clus scale="   55.578">  2  9  1 -1</clus>
<clus scale="   52.555">  2 10  1 -1</clus>
<clus scale="   75.671">  5  6 -1 -1</clus>
<clus scale="   83.570">  7  8 -1 -1</clus>
<clus scale="   88.934">  1  5  2 -1</clus>
<clus scale="   55.578">  2  5  1 -1</clus>
</clustering>
</event>
<event>
10    4  0.3738096E-005  0.1133273E+03  0.7546771E-02  0.1258469E+00
         -1   -1    0    0    0  501 -0.00000000000E+00  0.00000000000E+00  0.71758560707E+02  0.71758560707E+02  0.00000000000E+00 0.  1.
         21   -1    0    0  503  502  0.00000000000E+00 -0.00000000000E+00 -0.51237263823E+03  0.51237263823E+03  0.00000000000E+00 0.  1.
         24    2    1    2    0    0 -0.10577714865E+02 -0.40606041623E+02 -0.14676099942E+03  0.17186603976E+03  0.78983580603E+02 0.  0.
         23    2    1    2    0    0  0.52698161582E+02  0.92581636149E+02 -0.22348508277E+03  0.26340979192E+03  0.89948211046E+02 0.  0.
        -11    1    3    3    0    0 -0.36666934295E+02  0.48907208167E+01 -0.60816742430E+02  0.71183280203E+02  0.00000000000E+00 0.  1.
         12    1    3    3    0    0  0.26089219430E+02 -0.45496762440E+02 -0.85944256986E+02  0.10068275956E+03  0.00000000000E+00 0. -1.
        -11    1    4    4    0    0  0.32541930238E+02  0.98882774575E+02 -0.21801709924E+03  0.24159519013E+03  0.00000000000E+00 0.  1.
         11    1    4    4    0    0  0.20156231344E+02 -0.63011384262E+01 -0.54679835343E+01  0.21814601793E+02  0.00000000000E+00 0. -1.
         21    1    1    2  503  501 -0.27143601535E+02 -0.78137056826E+01  0.28137749884E+02  0.39869312376E+02  0.00000000000E+00 0.  1.
         -2    1    1    2    0  502 -0.14976845182E+02 -0.44161888843E+02 -0.98505745214E+02  0.10898605488E+03  0.00000000000E+00 0.  1.
<scales pt_clust_5="13000.00000" pt_clust_6="13000.00000" pt_clust_7="13000.00000" pt_clust_8="13000.00000" pt_clust_9="28.24587" pt_clust_10="48.97530"></scales>
<clustering>
<clus scale="   28.246">  1  9  2 -1</clus>
<clus scale="   48.975">  2 10  1 -1</clus>
<clus scale="   78.984">  5  6 -1 -1</clus>
<clus scale="   89.948">  7  8 -1 -1</clus>
<clus scale="  104.837">  1  5  2 -1</clus>
<clus scale="   48.975">  2  5  1 -1</clus>
</clustering>
</event>
<event>
10    4  0.3738096E-005  0.2856528E+03  0.7546771E-02  0.1116867E+00
          2   -1    0    0  503    0 -0.00000000000E+00  0.00000000000E+00  0.62799754480E+03  0.62799754480E+03  0.00000000000E+00 0. -1.
         21   -1    0    0  501  502  0.00000000000E+00 -0.00000000000E+00 -0.31241525323E+03  0.31241525323E+03  0.00000000000E+00 0. -1.
         24    2    1    2    0    0  0.85308630098E+02 -0.11240665118E+03  0.19620644390E+03  0.25514971549E+03  0.81802145979E+02 0.  0.
         23    2    1    2    0    0  0.24161490952E+03  0.90935782050E+02 -0.18023905411E+02  0.27587407355E+03  0.95574904297E+02 0.  0.
        -13    1    3    3    0    0 -0.15730565436E+02 -0.22204722796E+02  0.26088655080E+02  0.37697723105E+02  0.00000000000E+00 0.  1.
         14    1    3    3    0    0  0.10103919553E+03 -0.90201928385E+02  0.17011778882E+03  0.21745199239E+03  0.00000000000E+00 0. -1.
        -11    1    4    4    0    0  0.91979827639E+02  0.41743506753E+02 -0.53663076380E+02  0.11437890896E+03  0.00000000000E+00 0. -1.
         11    1    4    4    0    0  0.14963508188E+03  0.49192275297E+02  0.35639170968E+02  0.16149516459E+03  0.00000000000E+00 0.  1.
         21    1    1    2  503  502 -0.31690209527E+02  0.10163476164E+02  0.10737887318E+03  0.11241791686E+03  0.00000000000E+00 0.  1.
          1    1    1    2  501    0 -0.29523333009E+03  0.11307392968E+02  0.30020879896E+02  0.29697109213E+03  0.00000000000E+00 0. -1.
<scales pt_clust_5="13000.00000" pt_clust_6="13000.00000" pt_clust_7="13000.00000" pt_clust_8="13000.00000" pt_clust_9="33.28011" pt_clust_10="269.18963"></scales>
<clustering>
<clus scale="   33.280">  1  9  2 -1</clus>
<clus scale="   81.802">  5  6 -1 -1</clus>
<clus scale="   95.575">  7  8 -1 -1</clus>
<clus scale="  153.180">  1  5  2 -1</clus>
<clus scale="  269.190">  2 10  1 -1</clus>
<clus scale="  269.190">  2  5  1 -1</clus>
</clustering>
</event>
<event>
10    4  0.3738096E-005  0.1555267E+03  0.7546771E-02  0.1195512E+00
         21   -1    0    0  501  502  0.00000000000E+00  0.00000000000E+00  0.77725290255E+03  0.77725290255E+03  0.00000000000E+00 0. -1.
          2   -1    0    0  503    0 -0.00000000000E+00 -0.00000000000E+00 -0.19750449937E+03  0.19750449937E+03  0.00000000000E+00 0. -1.
         24    2    1    2    0    0  0.53259510282E+02 -0.13103561493E+03  0.48847552465E+02  0.17003858718E+03  0.80747321525E+02 0.  0.
         23    2    1    2    0    0 -0.62678619391E+02  0.10271608118E+03  0.95791368110E+02  0.17855704961E+03  0.90705187824E+02 0.  0.
        -13    1    3    3    0    0  0.28602708867E+02 -0.98885688398E+02  0.69851551323E+02  0.12440150138E+03  0.00000000000E+00 0.  1.
         14    1    3    3    0    0  0.24656801415E+02 -0.32149926531E+02 -0.21003998858E+02  0.45637085796E+02  0.00000000000E+00 0. -1.
        -13    1    4    4    0    0 -0.42558843535E+02  0.89734414756E+02  0.23020803852E+02  0.10194840737E+03  0.00000000000E+00 0. -1.
         13    1    4    4    0    0 -0.20119775856E+02  0.12981666426E+02  0.72770564258E+02  0.76608642242E+02  0.00000000000E+00 0.  1.
         21    1    1    2  503  502  0.10688609215E+03  0.10627905275E+03 -0.21992093671E+02  0.15232703611E+03  0.00000000000E+00 0. -1.
          1    1    1    2  501    0 -0.97466983040E+02 -0.77959519000E+02  0.45710157628E+03  0.47383472902E+03  0.00000000000E+00 0. -1.
<scales pt_clust_5="13000.00000" pt_clust_6="13000.00000" pt_clust_7="13000.00000" pt_clust_8="13000.00000" pt_clust_9="124.82741" pt_clust_10="124.80985"></scales>
<clustering>
<clus scale="   80.747">  5  6 -1 -1</clus>
<clus scale="   90.705">  7  8 -1 -1</clus>
<clus scale="  124.810">  1 10  2 -1</clus>
<clus scale="  124.827">  2  9  1 -1</clus>
<clus scale="  149.937">  2  5  1 -1</clus>
<clus scale="  124.810">  1  5  2 -1</clus>
</clustering>
</event>
<event>
10    4  0.3738096E-005  0.9474978E+02  0.7546771E-02  0.1299345E+00
         21   -1    0    0  501  502  0.00000000000E+00  0.00000000000E+00  0.45697216175E+02  0.45697216175E+02  0.00000000000E+00 0.  1.
          2   -1    0    0  503    0 -0.00000000000E+00 -0.00000000000E+00 -0.68011106667E+03  0.68011106667E+03  0.00000000000E+00 0. -1.
         23    2    1    2    0    0  0.14325858999E+02  0.16483998514E+02 -0.33589240523E+03  0.34923986311E+03  0.93101136665E+02 0.  0.
         24    2    1    2    0    0  0.68144250097E+02 -0.18416037581E+02 -0.10727764687E+03  0.15149450393E+03  0.80369782522E+02 0.  0.
        -13    1    4    4    0    0  0.65736917217E+02 -0.58569657117E+01 -0.28843836572E+02  0.72025087579E+02  0.00000000000E+00 0.  1.
         14    1    4    4    0    0  0.24073328801E+01 -0.12559071869E+02 -0.78433810299E+02  0.79469416355E+02  0.00000000000E+00 0. -1.
        -11    1    3    3    0    0 -0.11881099960E+02  0.50936395980E+02 -0.18864460379E+03  0.19576124108E+03  0.00000000000E+00 0. -1.
         11    1    3    3    0    0  0.26206958959E+02 -0.34452397465E+02 -0.14724780144E+03  0.15347862202E+03  0.00000000000E+00 0.  1.
         21    1    1    2  503  502 -0.23282983346E+02  0.41124188277E+02 -0.67175676885E+02  0.82133231642E+02  0.00000000000E+00 0.  1.
          1    1    1    2  501    0 -0.59187125750E+02 -0.39192149211E+02 -0.12406812151E+03  0.14294068416E+03  0.00000000000E+00 0. -1.
<scales pt_clust_5="13000.00000" pt_clust_6="13000.00000" pt_clust_7="13000.00000" pt_clust_8="13000.00000" pt_clust_9="47.25776" pt_clust_10="71.13288"></scales>
<clustering>
<clus scale="   47.258">  1  9  2 -1</clus>
<clus scale="   71.133">  1 10  2 -1</clus>
<clus scale="   80.370">  5  6 -1 -1</clus>
<clus scale="   82.274">  1  5  2 -1</clus>
<clus scale="   93.101">  7  8 -1 -1</clus>
<clus scale="   47.258">  1  5  2 -1</clus>
</clustering>
</event>
<event>
10    4  0.3738096E-005  0.2305061E+03  0.7546771E-02  0.1127007E+00
         21   -1    0    0  503  502  0.00000000000E+00  0.00000000000E+00  0.77936001009E+03  0.77936001009E+03  0.00000000000E+00 0.  1.
         -1   -1    0    0    0  501 -0.00000000000E+00 -0.00000000000E+00 -0.11164945553E+03  0.11164945553E+03  0.00000000000E+00 0.  1.
         23    2    1    2    0    0 -0.24426936483E+01  0.21131843926E+03  0.26750650258E+03  0.35294015992E+03  0.91354135331E+02 0.  0.
         24    2    1    2    0    0  0.49034512476E+02 -0.20886714752E+03  0.28278443281E+03  0.36397339581E+03  0.80496762003E+02 0.  0.
        -13    1    4    4    0    0  0.68074478241E+02 -0.18079714666E+03  0.22135702988E+03  0.29380380785E+03  0.00000000000E+00 0.  1.
         14    1    4    4    0    0 -0.19039965765E+02 -0.28070000857E+02  0.61427402921E+02  0.70169587957E+02  0.00000000000E+00 0. -1.
        -13    1    3    3    0    0 -0.40506190597E+02  0.16620484033E+03  0.20412341137E+03  0.26632905868E+03  0.00000000000E+00 0. -1.
         13    1    3    3    0    0  0.38063496948E+02  0.45113598933E+02  0.63383091206E+02  0.86611101248E+02  0.00000000000E+00 0.  1.
         21    1    1    2  503  501  0.35375975069E+02 -0.19595379161E+02  0.60758226411E+02  0.72986304010E+02  0.00000000000E+00 0. -1.
         -2    1    1    2    0  502 -0.81967793896E+02  0.17144087415E+02  0.56661392769E+02  0.10110960587E+03  0.00000000000E+00 0.  1.
<scales pt_clust_5="13000.00000" pt_clust_6="13000.00000" pt_clust_7="13000.00000" pt_clust_8="13000.00000" pt_clust_9="40.44056" pt_clust_10="79.47455"></scales>
<clustering>
<clus scale="   40.441">  1  9  2 -1</clus>
<clus scale="   79.475">  1 10  2 -1</clus>
<clus scale="   80.497">  5  6 -1 -1</clus>
<clus scale="   91.354">  7  8 -1 -1</clus>
<clus scale="  226.423">  1  5  2 -1</clus>
<clus scale="   40.441">  1  5  2 -1</clus>
</clustering>
</event>
<event>
10    4  0.3738096E-005  0.2207750E+03  0.7546771E-02  0.1167837E+00
         21   -1    0    0  501  502  0.00000000000E+00  0.00000000000E+00  0.85608606703E+02  0.85608606703E+02  0.00000000000E+00 0.  1.
         -3   -1    0    0    0  501 -0.00000000000E+00 -0.00000000000E+00 -0.98795364703E+03  0.98795364703E+03  0.00000000000E+00 0.  1.
         24    2    1    2    0    0  0.11979894376E+02 -0.52943167252E+02 -0.31148775982E+03  0.32604555938E+03  0.79590108969E+02 0.  0.
         23    2    1    2    0    0  0.17524967560E+03 -0.44037240288E+02 -0.21947990986E+03  0.29831499882E+03  0.90380752162E+02 0.  0.
        -11    1    3    3    0    0 -0.16077418250E+02  0.12671242078E+02 -0.35480560193E+02  0.40962347405E+02  0.00000000000E+00 0.  1.
         12    1    3    3    0    0  0.28057312626E+02 -0.65614409330E+02 -0.27600719963E+03  0.28508321197E+03  0.00000000000E+00 0. -1.
        -13    1    4    4    0    0  0.12942432762E+03 -0.34674128174E+01 -0.98311137535E+02  0.16256616898E+03  0.00000000000E+00 0.  1.
         13    1    4    4    0    0  0.45825347976E+02 -0.40569827471E+02 -0.12116877232E+03  0.13574882984E+03  0.00000000000E+00 0. -1.
         21    1    1    2  503  502  0.95123136743E+01 -0.20622727762E+02 -0.24226497677E+02  0.33206990250E+02  0.00000000000E+00 0.  1.
         -4    1    1    2    0  503 -0.19674188365E+03  0.11760313530E+03 -0.34715087297E+03  0.41599470528E+03  0.00000000000E+00 0.  1.
<scales pt_clust_5="13000.00000" pt_clust_6="13000.00000" pt_clust_7="13000.00000" pt_clust_8="13000.00000" pt_clust_9="22.71081" pt_clust_10="201.42729"></scales>
<clustering>
<clus scale="   22.711">  1  9  2 -1</clus>
<clus scale="   79.590">  5  6 -1 -1</clus>
<clus scale="   90.381">  7  8 -1 -1</clus>
<clus scale="   97.476">  2  5  1 -1</clus>
<clus scale="  201.427">  1 10  2 -1</clus>
<clus scale="   22.711">  1  5  2 -1</clus>
</clustering>
</event>
<event>
10    4  0.3738096E-005  0.1889716E+03  0.7546771E-02  0.1160094E+00
         -1   -1    0    0    0  501 -0.00000000000E+00  0.00000000000E+00  0.14260195977E+03  0.14260195977E+03  0.00000000000E+00 0.  1.
         21   -1    0    0  503  502  0.00000000000E+00 -0.00000000000E+00 -0.79853120452E+03  0.79853120452E+03  0.00000000000E+00 0. -1.
         24    2    1    2    0    0  0.13193353699E+03  0.98994646267E+02 -0.80792835866E+02  0.20097245296E+03  0.81584596279E+02 0.  0.
         23    2    1    2    0    0 -0.16548813802E+03 -0.50715789199E+02 -0.11998991434E+03  0.22838616140E+03  0.88341632746E+02 0.  0.
        -11    1    3    3    0    0  0.12806046052E+03  0.11203346200E+03 -0.71875438517E+02  0.18470803128E+03  0.00000000000E+00 0.  1.
         12    1    3    3    0    0  0.38730764651E+01 -0.13038815736E+02 -0.89173973487E+01  0.16264421679E+02  0.00000000000E+00 0. -1.
        -11    1    4    4    0    0 -0.31110960212E+02 -0.32177694825E+02 -0.71453740420E+02  0.84314488136E+02  0.00000000000E+00 0.  1.
         11    1    4    4    0    0 -0.13437717780E+03 -0.18538094374E+02 -0.48536173922E+02  0.14407167326E+03  0.00000000000E+00 0. -1.
         21    1    1    2  503  501  0.10476040430E+02  0.18719997401E+02  0.21215414095E+02  0.30170838917E+02  0.00000000000E+00 0.  1.
         -2    1    1    2    0  502  0.23078560600E+02 -0.66998854469E+02 -0.47636190864E+03  0.48160371102E+03  0.00000000000E+00 0.  1.
<scales pt_clust_5="13000.00000" pt_clust_6="13000.00000" pt_clust_7="13000.00000" pt_clust_8="13000.00000" pt_clust_9="21.45194" pt_clust_10="70.54292"></scales>
<clustering>
<clus scale="   21.452">  1  9  2 -1</clus>
<clus scale="   70.543">  2 10  1 -1</clus>
<clus scale="   81.585">  5  6 -1 -1</clus>
<clus scale="   88.342">  7  8 -1 -1</clus>
<clus scale="  185.909">  1  5  2 -1</clus>
<clus scale="   70.543">  2  5  1 -1</clus>
</clustering>
</event>
<event>
10    4  0.3738096E-005  0.9446715E+02  0.7546771E-02  0.1296940E+00
         21   -1    0    0  501  502  0.00000000000E+00  0.00000000000E+00  0.10720666323E+03  0.10720666323E+03  0.00000000000E+00 0. -1.
          2   -1    0    0  503    0 -0.00000000000E+00 -0.00000000000E+00 -0.53454301769E+03  0.53454301769E+03  0.00000000000E+00 0. -1.
         24    2    1    2    0    0  0.33470910045E+02 -0.56935783749E+02 -0.32070435196E+03  0.33716944235E+03  0.80436100085E+02 0.  0.
         23    2    1    2    0    0  0.31681347683E+02  0.15600028256E+02 -0.62990761229E+02  0.11435221931E+03  0.88665243410E+02 0.  0.
        -13    1    3    3    0    0 -0.20439374285E+02 -0.89910132546E+01 -0.28583948587E+02  0.36271868677E+02  0.00000000000E+00 0.  1.
         14    1    3    3    0    0  0.53910284329E+02 -0.47944770494E+02 -0.29212040337E+03  0.30089757367E+03  0.00000000000E+00 0. -1.
        -11    1    4    4    0    0 -0.10192178991E+02  0.35815899959E+02 -0.15104645655E+01  0.37268494814E+02  0.00000000000E+00 0.  1.
         11    1    4    4    0    0  0.41873526673E+02 -0.20215871703E+02 -0.61480296664E+02  0.77083724499E+02  0.00000000000E+00 0. -1.
         21    1    1    2  503  502 -0.42648955028E+02  0.26101446465E+02 -0.10873970262E+03  0.11968517785E+03  0.00000000000E+00 0. -1.
          1    1    1    2  501    0 -0.22503302699E+02  0.15234309027E+02  0.65098461347E+02  0.70542841406E+02  0.00000000000E+00 0. -1.
<scales pt_clust_5="13000.00000" pt_clust_6="13000.00000" pt_clust_7="13000.00000" pt_clust_8="13000.00000" pt_clust_9="53.77450" pt_clust_10="27.17504"></scales>
<clustering>
<clus scale="   27.175">  1 10  2 -1</clus>
<clus scale="   53.774">  2  9  1 -1</clus>
<clus scale="   80.436">  5  6 -1 -1</clus>
<clus scale="   86.790">  2  5  1 -1</clus>
<clus scale="   88.665">  7  8 -1 -1</clus>
<clus scale="   27.175">  1  5  2 -1</clus>
</clustering>
</event>
<event>
10    4  0.3738096E-005  0.1937738E+03  0.7546771E-02  0.1156092E+00
         21   -1    0    0  503  502  0.00000000000E+00  0.00000000000E+00  0.20657118796E+03  0.20657118796E+03  0.00000000000E+00 0.  1.
         -1   -1    0    0    0  501 -0.00000000000E+00 -0.00000000000E+00 -0.41467268851E+03  0.41467268851E+03  0.00000000000E+00 0.  1.
         24    2    1    2    0    0 -0.12733869102E+03 -0.98138230192E+01 -0.16847845677E+03  0.22605222760E+03  0.80019784128E+02 0.  0.
         23    2    1    2    0    0  0.22304087034E+03  0.12698066811E+02  0.38819764395E+02  0.23688026250E+03  0.68533305125E+02 0.  0.
        -11    1    3    3    0    0 -0.51070077969E+02  0.33477201034E+02 -0.87386265367E+02  0.10660785725E+03  0.00000000000E+00 0.  1.
         12    1    3    3    0    0 -0.76268613055E+02 -0.43291024053E+02 -0.81092191407E+02  0.11944437035E+03  0.00000000000E+00 0. -1.
        -11    1    4    4    0    0  0.11782172495E+03 -0.17233952933E+02 -0.46497767343E+01  0.11916622184E+03  0.00000000000E+00 0. -1.
         11    1    4    4    0    0  0.10521914539E+03  0.29932019744E+02  0.43469541129E+02  0.11771404066E+03  0.00000000000E+00 0.  1.
         21    1    1    2  503  501 -0.58611862541E+02  0.13687756799E+02 -0.96597866165E+02  0.11381499402E+03  0.00000000000E+00 0.  1.
         -2    1    1    2    0  502 -0.37090316773E+02 -0.16572000590E+02  0.18155057991E+02  0.44496392354E+02  0.00000000000E+00 0.  1.
<scales pt_clust_5="13000.00000" pt_clust_6="13000.00000" pt_clust_7="13000.00000" pt_clust_8="13000.00000" pt_clust_9="61.78982" pt_clust_10="40.62417"></scales>
<clustering>
<clus scale="   40.624">  1 10  2 -1</clus>
<clus scale="   61.790">  2  9  1 -1</clus>
<clus scale="   68.533">  7  8 -1 -1</clus>
<clus scale="   80.020">  5  6 -1 -1</clus>
<clus scale="  189.320">  1  7  2 -1</clus>
<clus scale="   40.624">  1  5  2 -1</clus>
</clustering>
</event>
<event>
10    4  0.3738096E-005  0.9529800E+02  0.7546771E-02  0.1296983E+00
         21   -1    0    0  501  502  0.00000000000E+00  0.00000000000E+00  0.10557125573E+03  0.10557125573E+03  0.00000000000E+00 0.  1.
          2   -1    0    0  503    0 -0.00000000000E+00 -0.00000000000E+00 -0.28234094178E+03  0.28234094178E+03  0.00000000000E+00 0. -1.
         24    2    1    2    0    0  0.40089980300E+02  0.28686241042E+02 -0.11305894037E+03  0.14768464346E+03  0.81230061985E+02 0.  0.
         23    2    1    2    0    0  0.30235118971E+02  0.83936057971E+01  0.24936209977E+02  0.10075222633E+03  0.92436905531E+02 0.  0.
        -13    1    3    3    0    0  0.44316783296E+02  0.53590052401E+02 -0.78393395255E+02  0.10479215342E+03  0.00000000000E+00 0.  1.
         14    1    3    3    0    0 -0.42268029962E+01 -0.24903811359E+02 -0.34665545112E+02  0.42892490039E+02  0.00000000000E+00 0. -1.
        -13    1    4    4    0    0  0.53727285573E+02 -0.18277057415E+02 -0.98956314032E+00  0.56759591948E+02  0.00000000000E+00 0.  1.
         13    1    4    4    0    0 -0.23492166603E+02  0.26670663212E+02  0.25925773117E+02  0.43992634379E+02  0.00000000000E+00 0. -1.
         21    1    1    2  503  502 -0.20221133663E+02 -0.86379237546E+01 -0.77802126677E+02  0.80849730296E+02  0.00000000000E+00 0. -1.
          1    1    1    2  501    0 -0.50103965607E+02 -0.28441923084E+02 -0.10844828982E+02  0.58625597430E+02  0.00000000000E+00 0. -1.
<scales pt_clust_5="13000.00000" pt_clust_6="13000.00000" pt_clust_7="13000.00000" pt_clust_8="13000.00000" pt_clust_9="21.98881" pt_clust_10="61.35365"></scales>
<clustering>
<clus scale="   21.989">  2  9  1 -1</clus>
<clus scale="   61.354">  1 10  2 -1</clus>
<clus scale="   81.230">  5  6 -1 -1</clus>
<clus scale="   84.472">  2  5  1 -1</clus>
<clus scale="   92.437">  7  8 -1 -1</clus>
<clus scale="   61.354">  1  5  2 -1</clus>
</clustering>
</event>
<event>
10    4  0.3738096E-005  0.9005175E+02  0.7546771E-02  0.1303448E+00
          2   -1    0    0  503    0 -0.00000000000E+00  0.00000000000E+00  0.72792654947E+03  0.72792654947E+03  0.00000000000E+00 0. -1.
         21   -1    0    0  501  502  0.00000000000E+00 -0.00000000000E+00 -0.38250217072E+02  0.38250217072E+02  0.00000000000E+00 0. -1.
         24    2    1    2    0    0  0.30177865232E+01  0.17141099664E+01  0.38303243297E+03  0.39320497167E+03  0.88793354667E+02 0.  0.
         23    2    1    2    0    0 -0.11895902807E+02  0.12963392439E+02  0.20332311690E+03  0.22303820337E+03  0.89978821131E+02 0.  0.
        -13    1    3    3    0    0 -0.22623960030E+01 -0.36682420816E+02  0.84224049583E+02  0.91893465278E+02  0.00000000000E+00 0.  1.
         14    1    3    3    0    0  0.52801825262E+01  0.38396530783E+02  0.29880838339E+03  0.30131150640E+03  0.00000000000E+00 0. -1.
        -13    1    4    4    0    0 -0.20835797327E+02 -0.34556203483E+02  0.64993170174E+02  0.76500809269E+02  0.00000000000E+00 0.  1.
         13    1    4    4    0    0  0.89398945199E+01  0.47519595922E+02  0.13832994672E+03  0.14653739411E+03  0.00000000000E+00 0. -1.
         21    1    1    2  503  502 -0.23461087840E+02  0.11810754306E-01  0.11111890074E+03  0.11356862631E+03  0.00000000000E+00 0.  1.
          1    1    1    2  501    0  0.32339204124E+02 -0.14689313160E+02 -0.77981182126E+01  0.36364965175E+02  0.00000000000E+00 0. -1.
<scales pt_clust_5="13000.00000" pt_clust_6="13000.00000" pt_clust_7="13000.00000" pt_clust_8="13000.00000" pt_clust_9="23.46109" pt_clust_10="35.02398"></scales>
<clustering>
<clus scale="   23.461">  1  9  2 -1</clus>
<clus scale="   35.024">  2 10  1 -1</clus>
<clus scale="   88.793">  5  6 -1 -1</clus>
<clus scale="   88.867">  1  5  2 -1</clus>
<clus scale="   89.979">  7  8 -1 -1</clus>
<clus scale="   35.024">  2  5  1 -1</clus>
</clustering>
</event>
<event>
10    4  0.3738096E-005  0.2362367E+03  0.7546771E-02  0.1146224E+00
         21   -1    0    0  501  502  0.00000000000E+00  0.00000000000E+00  0.14139485106E+03  0.14139485106E+03  0.00000000000E+00 0. -1.
          2   -1    0    0  503    0 -0.00000000000E+00 -0.00000000000E+00 -0.12513525190E+04  0.12513525190E+04  0.00000000000E+00 0. -1.
         23    2    1    2    0    0  0.71783818341E+02 -0.73002002363E+02 -0.75162051060E+02  0.15721502391E+03  0.92655387862E+02 0.  0.
         24    2    1    2    0    0 -0.26052709645E+03  0.51426567269E+02 -0.69439452727E+03  0.74849989989E+03  0.86886597542E+02 0.  0.
        -13    1    4    4    0    0 -0.14665748125E+03  0.25889825675E+02 -0.26994532014E+03  0.30830046342E+03  0.00000000000E+00 0.  1.
         14    1    4    4    0    0 -0.11386961520E+03  0.25536741594E+02 -0.42444920712E+03  0.44019943647E+03  0.00000000000E+00 0. -1.
        -13    1    3    3    0    0  0.21754361341E+02 -0.19751367607E+02  0.21237381052E+02  0.36254587484E+02  0.00000000000E+00 0.  1.
         13    1    3    3    0    0  0.50029457000E+02 -0.53250634756E+02 -0.96399432112E+02  0.12096043643E+03  0.00000000000E+00 0. -1.
         21    1    1    2  503  502 -0.38958423988E+01  0.10389133763E+03 -0.22500622415E+03  0.24786364907E+03  0.00000000000E+00 0. -1.
          1    1    1    2  501    0  0.19263912051E+03 -0.82315902535E+02 -0.11539486542E+03  0.23916879714E+03  0.00000000000E+00 0. -1.
<scales pt_clust_5="13000.00000" pt_clust_6="13000.00000" pt_clust_7="13000.00000" pt_clust_8="13000.00000" pt_clust_9="103.96436" pt_clust_10="219.67819"></scales>
<clustering>
<clus scale="   86.887">  5  6 -1 -1</clus>
<clus scale="   92.655">  7  8 -1 -1</clus>
<clus scale="  103.964">  2  9  1 -1</clus>
<clus scale="  131.941">  2  7  1 -1</clus>
<clus scale="  219.678">  1 10  2 -1</clus>
<clus scale="  219.678">  1  5  2 -1</clus>
</clustering>
</event>
<event>
10    4  0.3738096E-005  0.1171096E+03  0.7546771E-02  0.1252059E+00
          2   -1    0    0  503    0 -0.00000000000E+00  0.00000000000E+00  0.57310272362E+03  0.57310272362E+03  0.00000000000E+00 0. -1.
         21   -1    0    0  501  502  0.00000000000E+00 -0.00000000000E+00 -0.70972240956E+02  0.70972240956E+02  0.00000000000E+00 0. -1.
         23    2    1    2    0    0 -0.28705666235E+02 -0.34746980065E+02  0.17838349248E+03  0.20570845561E+03  0.91999621850E+02 0.  0.
         24    2    1    2    0    0  0.72998078624E+02  0.90278476500E+02  0.67388112715E+02  0.15621875931E+03  0.79901315527E+02 0.  0.
        -11    1    4    4    0    0  0.38735060740E+02 -0.37742783681E+01  0.76947656359E+01  0.39671898441E+02  0.00000000000E+00 0.  1.
         12    1    4    4    0    0  0.34263017884E+02  0.94052754868E+02  0.59693347079E+02  0.11654686087E+03  0.00000000000E+00 0. -1.
        -13    1    3    3    0    0  0.33404332941E+02 -0.11875186744E+02  0.74933632510E+02  0.82897037345E+02  0.00000000000E+00 0. -1.
         13    1    3    3    0    0 -0.62109999176E+02 -0.22871793321E+02  0.10344985997E+03  0.12281141826E+03  0.00000000000E+00 0.  1.
         21    1    1    2  503  502 -0.33793438696E+02 -0.22800433481E+01  0.20379510918E+03  0.20659051677E+03  0.00000000000E+00 0. -1.
          1    1    1    2  501    0 -0.10498973694E+02 -0.53251453088E+02  0.52563768294E+02  0.75557232889E+02  0.00000000000E+00 0. -1.
<scales pt_clust_5="13000.00000" pt_clust_6="13000.00000" pt_clust_7="13000.00000" pt_clust_8="13000.00000" pt_clust_9="33.87027" pt_clust_10="56.09423"></scales>
<clustering>
<clus scale="   33.870">  1  9  2 -1</clus>
<clus scale="   56.094">  2 10  1 -1</clus>
<clus scale="   79.901">  5  6 -1 -1</clus>
<clus scale="   92.000">  7  8 -1 -1</clus>
<clus scale="  107.865">  2  5  1 -1</clus>
<clus scale="   56.094">  2  5  1 -1</clus>
</clustering>
</event>
<event>
10    4  0.3738096E-005  0.1171513E+03  0.7546771E-02  0.1251048E+00
          2   -1    0    0  502    0 -0.00000000000E+00  0.00000000000E+00  0.94844578155E+03  0.94844578155E+03  0.00000000000E+00 0. -1.
         21   -1    0    0  503  502  0.00000000000E+00 -0.00000000000E+00 -0.23812791444E+02  0.23812791444E+02  0.00000000000E+00 0. -1.
         24    2    1    2    0    0  0.75270336790E+01 -0.71908613506E+02  0.34947195003E+03  0.36607504298E+03  0.81564626528E+02 0.  0.
         23    2    1    2    0    0 -0.28601939170E+02  0.72095779958E+02  0.27144342251E+03  0.29662676474E+03  0.91049621230E+02 0.  0.
        -11    1    3    3    0    0 -0.31241426413E+02 -0.10662202994E+02  0.70593130335E+02  0.77930092696E+02  0.00000000000E+00 0.  1.
         12    1    3    3    0    0  0.38768460092E+02 -0.61246410512E+02  0.27887881969E+03  0.28814495028E+03  0.00000000000E+00 0. -1.
        -11    1    4    4    0    0 -0.60026715864E+02  0.36700408288E+02  0.18738788164E+03  0.20016079729E+03  0.00000000000E+00 0.  1.
         11    1    4    4    0    0  0.31424776694E+02  0.35395371670E+02  0.84055540868E+02  0.96465967452E+02  0.00000000000E+00 0. -1.
         21    1    1    2  503  501 -0.11845277736E+01 -0.21124001081E+02  0.54334819314E+02  0.58308653882E+02  0.00000000000E+00 0. -1.
          1    1    1    2  501    0  0.22259433265E+02  0.20936834629E+02  0.24938279826E+03  0.25124811140E+03  0.00000000000E+00 0. -1.
<scales pt_clust_5="13000.00000" pt_clust_6="13000.00000" pt_clust_7="13000.00000" pt_clust_8="13000.00000" pt_clust_9="21.15719" pt_clust_10="29.90987"></scales>
<clustering>
<clus scale="   21.157">  2  9  1 -1</clus>
<clus scale="   29.910">  2 10  1 -1</clus>
<clus scale="   81.565">  5  6 -1 -1</clus>
<clus scale="   91.050">  7  8 -1 -1</clus>
<clus scale="  109.942">  1  5  2 -1</clus>
<clus scale="   21.157">  2  5  1 -1</clus>
</clustering>
</event>
<event>
10    4  0.3738096E-005  0.1141835E+03  0.7546771E-02  0.1257403E+00
          2   -1    0    0  503    0 -0.00000000000E+00  0.00000000000E+00  0.13602855935E+04  0.13602855935E+04  0.00000000000E+00 0. -1.
         21   -1    0    0  501  502  0.00000000000E+00 -0.00000000000E+00 -0.88772780446E+02  0.88772780446E+02  0.00000000000E+00 0. -1.
         24    2    1    2    0    0  0.73813714220E+02 -0.77277638768E+02  0.11148668257E+04  0.11229531551E+04  0.81703437917E+02 0.  0.
         23    2    1    2    0    0 -0.38641877722E+02  0.43751050630E+01  0.11049591146E+02  0.10193647063E+03  0.93576783030E+02 0.  0.
        -11    1    3    3    0    0  0.18135178388E+02 -0.37348465975E+02  0.14950485047E+03  0.15516279490E+03  0.00000000000E+00 0.  1.
         12    1    3    3    0    0  0.55678535833E+02 -0.39929172793E+02  0.96536197521E+03  0.96779036024E+03  0.00000000000E+00 0. -1.
        -13    1    4    4    0    0 -0.34280945478E+02  0.47027640239E+02  0.99982799113E+01  0.59048689829E+02  0.00000000000E+00 0.  1.
         13    1    4    4    0    0 -0.43609322438E+01 -0.42652535176E+02  0.10513112346E+01  0.42887780803E+02  0.00000000000E+00 0. -1.
         21    1    1    2  503  502 -0.41557303883E+02  0.17277503688E+02  0.16012049976E+03  0.16632527193E+03  0.00000000000E+00 0. -1.
          1    1    1    2  501    0  0.63854673845E+01  0.55625030017E+02 -0.14524103552E+02  0.57843476227E+02  0.00000000000E+00 0. -1.
<scales pt_clust_5="13000.00000" pt_clust_6="13000.00000" pt_clust_7="13000.00000" pt_clust_8="13000.00000" pt_clust_9="45.00580" pt_clust_10="56.22061"></scales>
<clustering>
<clus scale="   45.006">  1  9  2 -1</clus>
<clus scale="   56.221">  2 10  1 -1</clus>
<clus scale="   81.703">  5  6 -1 -1</clus>
<clus scale="   93.577">  7  8 -1 -1</clus>
<clus scale="  104.674">  1  5  2 -1</clus>
<clus scale="   56.221">  2  5  1 -1</clus>
</clustering>
</event>
<event>
10    4  0.3738096E-005  0.1740068E+03  0.7546771E-02  0.1194165E+00
         21   -1    0    0  501  502  0.00000000000E+00  0.00000000000E+00  0.17475506099E+03  0.17475506099E+03  0.00000000000E+00 0.  1.
          2   -1    0    0  503    0 -0.00000000000E+00 -0.00000000000E+00 -0.43776912817E+03  0.43776912817E+03  0.00000000000E+00 0. -1.
         23    2    1    2    0    0 -0.65889836335E+02  0.13145688514E+02 -0.27906595304E+02  0.11595741500E+03  0.90294320830E+02 0.  0.
         24    2    1    2    0    0  0.13097830360E+03  0.89947040049E+02  0.28536888801E+02  0.18025648958E+03  0.80201383931E+02 0.  0.
        -13    1    4    4    0    0  0.60333004541E+01  0.20562490453E+02  0.30559769307E+02  0.37324472241E+02  0.00000000000E+00 0.  1.
         14    1    4    4    0    0  0.12494500315E+03  0.69384549596E+02 -0.20228805053E+01  0.14293201734E+03  0.00000000000E+00 0. -1.
        -11    1    3    3    0    0 -0.83437819896E+01  0.43894456840E+02  0.77131570352E+00  0.44687100679E+02  0.00000000000E+00 0. -1.
         11    1    3    3    0    0 -0.57546054345E+02 -0.30748768326E+02 -0.28677911007E+02  0.71270314325E+02  0.00000000000E+00 0.  1.
         21    1    1    2  503  502  0.24016536758E+02  0.12995782547E+02 -0.55687793821E+02  0.62022695705E+02  0.00000000000E+00 0. -1.
          1    1    1    2  501    0 -0.89105004027E+02 -0.11608851111E+03 -0.20795656686E+03  0.25428758887E+03  0.00000000000E+00 0. -1.
<scales pt_clust_5="13000.00000" pt_clust_6="13000.00000" pt_clust_7="13000.00000" pt_clust_8="13000.00000" pt_clust_9="27.30722" pt_clust_10="154.42188"></scales>
<clustering>
<clus scale="   27.307">  2  9  1 -1</clus>
<clus scale="   80.201">  5  6 -1 -1</clus>
<clus scale="   90.294">  7  8 -1 -1</clus>
<clus scale="  110.265">  2  7  1 -1</clus>
<clus scale="  154.422">  1 10  2 -1</clus>
<clus scale="  154.422">  1  5  2 -1</clus>
</clustering>
</event>
<event>
10    4  0.3738096E-005  0.4253944E+03  0.7546771E-02  0.1078433E+00
          2   -1    0    0  503    0 -0.00000000000E+00  0.00000000000E+00  0.39510773900E+03  0.39510773900E+03  0.00000000000E+00 0. -1.
         21   -1    0    0  501  502  0.00000000000E+00 -0.00000000000E+00 -0.12225664511E+04  0.12225664511E+04  0.00000000000E+00 0.  1.
         23    2    1    2    0    0 -0.59149041608E+02  0.64340769099E+02  0.11701951113E+03  0.17169777228E+03  0.90267465503E+02 0.  0.
         24    2    1    2    0    0 -0.33122451356E+03 -0.22670604858E+03 -0.85034659359E+03  0.94421453288E+03  0.85711399698E+02 0.  0.
        -11    1    4    4    0    0 -0.28539979170E+03 -0.17106322800E+03 -0.75157140820E+03  0.82193384813E+03  0.00000000000E+00 0.  1.
         12    1    4    4    0    0 -0.45824721857E+02 -0.55642820584E+02 -0.98775185385E+02  0.12228068475E+03  0.00000000000E+00 0. -1.
        -11    1    3    3    0    0 -0.46024628743E+01  0.70163459041E+02  0.73073172729E+02  0.10140898492E+03  0.00000000000E+00 0.  1.
         11    1    3    3    0    0 -0.54546578734E+02 -0.58226899423E+01  0.43946338398E+02  0.70288787358E+02  0.00000000000E+00 0. -1.
         21    1    1    2  503  502 -0.32844930316E+02  0.26582198668E+02 -0.31934200671E+02  0.52964100162E+02  0.00000000000E+00 0.  1.
          1    1    1    2  501    0  0.42321848548E+03  0.13578308081E+03 -0.62197429010E+02  0.44879778482E+03  0.00000000000E+00 0. -1.
<scales pt_clust_5="13000.00000" pt_clust_6="13000.00000" pt_clust_7="13000.00000" pt_clust_8="13000.00000" pt_clust_9="42.25403" pt_clust_10="416.67028"></scales>
<clustering>
<clus scale="   42.254">  2  9  1 -1</clus>
<clus scale="   85.711">  5  6 -1 -1</clus>
<clus scale="   90.267">  7  8 -1 -1</clus>
<clus scale="  126.320">  1  7  2 -1</clus>
<clus scale="  416.670">  2 10  1 -1</clus>
<clus scale="   42.254">  2  5  1 -1</clus>
</clustering>
</event>
<event>
10    4  0.3738096E-005  0.1701490E+03  0.7546771E-02  0.1212036E+00
         -3   -1    0    0    0  501 -0.00000000000E+00  0.00000000000E+00  0.37532190484E+03  0.37532190484E+03  0.00000000000E+00 0.  1.
         21   -1    0    0  503  502  0.00000000000E+00 -0.00000000000E+00 -0.38885147179E+03  0.38885147179E+03  0.00000000000E+00 0. -1.
         24    2    1    2    0    0 -0.16476170926E+02 -0.86335064644E+00 -0.23058399137E+03  0.24415198618E+03  0.78543018143E+02 0.  0.
         23    2    1    2    0    0 -0.11257864319E+03  0.11461832319E+03  0.57994304608E+01  0.18399716276E+03  0.89498668135E+02 0.  0.
        -13    1    3    3    0    0 -0.15421646029E+02 -0.24734331797E+02 -0.28862333205E+02  0.41020100118E+02  0.00000000000E+00 0.  1.
         14    1    3    3    0    0 -0.10545248974E+01  0.23870981151E+02 -0.20172165816E+03  0.20313188606E+03  0.00000000000E+00 0. -1.
        -11    1    4    4    0    0 -0.11054733059E+03  0.68784274994E+02  0.27770650822E+02  0.13312850121E+03  0.00000000000E+00 0. -1.
         11    1    4    4    0    0 -0.20313126085E+01  0.45834048193E+02 -0.21971220361E+02  0.50868661559E+02  0.00000000000E+00 0.  1.
         21    1    1    2  503  501  0.16628461265E+02 -0.41292034258E+02  0.19647486764E+03  0.20145448972E+03  0.00000000000E+00 0.  1.
         -4    1    1    2    0  502  0.11242635286E+03 -0.72462938282E+02  0.14780126316E+02  0.13456973796E+03  0.00000000000E+00 0.  1.
<scales pt_clust_5="13000.00000" pt_clust_6="13000.00000" pt_clust_7="13000.00000" pt_clust_8="13000.00000" pt_clust_9="44.51447" pt_clust_10="144.70890"></scales>
<clustering>
<clus scale="   44.514">  1  9  2 -1</clus>
<clus scale="   78.543">  5  6 -1 -1</clus>
<clus scale="   80.161">  1  5  2 -1</clus>
<clus scale="   89.499">  7  8 -1 -1</clus>
<clus scale="  144.709">  2 10  1 -1</clus>
<clus scale="  144.709">  2  5  1 -1</clus>
</clustering>
</event>
<event>
10    4  0.3738096E-005  0.1833675E+03  0.7546771E-02  0.1183129E+00
          2   -1    0    0  503    0 -0.00000000000E+00  0.00000000000E+00  0.54071891685E+03  0.54071891685E+03  0.00000000000E+00 0. -1.
         21   -1    0    0  501  502  0.00000000000E+00 -0.00000000000E+00 -0.18334108672E+03  0.18334108672E+03  0.00000000000E+00 0. -1.
         24    2    1    2    0    0  0.81589310263E+02 -0.20346624487E+02  0.18289634606E+03  0.21719752489E+03  0.81565254472E+02 0.  0.
         23    2    1    2    0    0 -0.22954271553E+03  0.36666651370E+02  0.17951272477E+03  0.30745159245E+03  0.90925033810E+02 0.  0.
        -13    1    3    3    0    0  0.34983957065E+02 -0.50229728267E+02  0.10670845698E+03  0.12301868819E+03  0.00000000000E+00 0.  1.
         14    1    3    3    0    0  0.46605353198E+02  0.29883103781E+02  0.76187889085E+02  0.94178836697E+02  0.00000000000E+00 0. -1.
        -13    1    4    4    0    0 -0.14661449376E+02  0.30801117444E+02  0.17966323625E+02  0.38554581027E+02  0.00000000000E+00 0.  1.
         13    1    4    4    0    0 -0.21488126616E+03  0.58655339263E+01  0.16154640114E+03  0.26889701143E+03  0.00000000000E+00 0. -1.
         21    1    1    2  503  502  0.39122986196E+01 -0.24168852609E+02  0.41202743077E+02  0.47928129047E+02  0.00000000000E+00 0.  1.
          1    1    1    2  501    0  0.14404110665E+03  0.78488257251E+01 -0.46233983773E+02  0.15148275719E+03  0.00000000000E+00 0. -1.
<scales pt_clust_5="13000.00000" pt_clust_6="13000.00000" pt_clust_7="13000.00000" pt_clust_8="13000.00000" pt_clust_9="24.48345" pt_clust_10="159.23656"></scales>
<clustering>
<clus scale="   24.483">  1  9  2 -1</clus>
<clus scale="   81.565">  5  6 -1 -1</clus>
<clus scale="   90.925">  7  8 -1 -1</clus>
<clus scale="  120.312">  1  5  2 -1</clus>
<clus scale="  159.237">  2 10  1 -1</clus>
<clus scale="  159.237">  2  5  1 -1</clus>
</clustering>
</event>
<event>
10    4  0.3738096E-005  0.2029725E+03  0.7546771E-02  0.1179356E+00
         21   -1    0    0  501  502  0.00000000000E+00  0.00000000000E+00  0.14072281661E+04  0.14072281661E+04  0.00000000000E+00 0. -1.
          4   -1    0    0  503    0 -0.00000000000E+00 -0.00000000000E+00 -0.10013750128E+03  0.10013750128E+03  0.00000000000E+00 0. -1.
         23    2    1    2    0    0 -0.87123280078E+01  0.21609911221E+02  0.38277055098E+02  0.10110204813E+03  0.90628904146E+02 0.  0.
         24    2    1    2    0    0 -0.15827193999E+03  0.44497641854E+02  0.12425781835E+03  0.22222130624E+03  0.83139980804E+02 0.  0.
        -11    1    4    4    0    0 -0.24775500313E+02 -0.13507894599E+01  0.64195149835E+02  0.68823450293E+02  0.00000000000E+00 0.  1.
         12    1    4    4    0    0 -0.13349643968E+03  0.45848431314E+02  0.60062668513E+02  0.15339785595E+03  0.00000000000E+00 0. -1.
        -13    1    3    3    0    0  0.25830516109E+02  0.15522217655E+02 -0.17769811105E+02  0.34984582177E+02  0.00000000000E+00 0. -1.
         13    1    3    3    0    0 -0.34542844117E+02  0.60876935651E+01  0.56046866203E+02  0.66117465952E+02  0.00000000000E+00 0.  1.
         21    1    1    2  503  502  0.42594348269E+01  0.30551636755E+02  0.80442487669E+01  0.31878758315E+02  0.00000000000E+00 0.  1.
          3    1    1    2  501    0  0.16272483317E+03 -0.96659189830E+02  0.11365115426E+04  0.11521635547E+04  0.00000000000E+00 0. -1.
<scales pt_clust_5="13000.00000" pt_clust_6="13000.00000" pt_clust_7="13000.00000" pt_clust_8="13000.00000" pt_clust_9="30.84713" pt_clust_10="185.16362"></scales>
<clustering>
<clus scale="   30.847">  2  9  1 -1</clus>
<clus scale="   83.140">  5  6 -1 -1</clus>
<clus scale="   90.629">  7  8 -1 -1</clus>
<clus scale="   96.545">  2  7  1 -1</clus>
<clus scale="  185.164">  1 10  2 -1</clus>
<clus scale="  185.164">  1  5  2 -1</clus>
</clustering>
</event>
<event>
10    4  0.3738096E-005  0.1709094E+03  0.7546771E-02  0.1178905E+00
         21   -1    0    0  501  502  0.00000000000E+00  0.00000000000E+00  0.69562817851E+03  0.69562817851E+03  0.00000000000E+00 0. -1.
          2   -1    0    0  503    0 -0.00000000000E+00 -0.00000000000E+00 -0.10899930589E+03  0.10899930589E+03  0.00000000000E+00 0. -1.
         24    2    1    2    0    0 -0.49903593070E+02 -0.15225939991E+03  0.49551701034E+02  0.18523562818E+03  0.78635700621E+02 0.  0.
         23    2    1    2    0    0  0.70219129657E+02  0.13387450858E+03  0.24790785144E+03  0.30498786380E+03  0.93306934592E+02 0.  0.
        -11    1    3    3    0    0  0.19672475328E+02 -0.42901248605E+02  0.24665313145E+02  0.53253179154E+02  0.00000000000E+00 0.  1.
         12    1    3    3    0    0 -0.69576068399E+02 -0.10935815130E+03  0.24886387889E+02  0.13198244903E+03  0.00000000000E+00 0. -1.
        -11    1    4    4    0    0  0.71716130604E+02  0.48509632332E+02  0.86483185805E+02  0.12237536208E+03  0.00000000000E+00 0. -1.
         11    1    4    4    0    0 -0.14970009470E+01  0.85364876247E+02  0.16142466563E+03  0.18261250172E+03  0.00000000000E+00 0.  1.
         21    1    1    2  503  502  0.17522658109E+02  0.28720438544E+02  0.13979169603E+02  0.36432462450E+02  0.00000000000E+00 0.  1.
          1    1    1    2  501    0 -0.37838194696E+02 -0.10335547216E+02  0.27519015055E+03  0.27797152997E+03  0.00000000000E+00 0. -1.
<scales pt_clust_5="13000.00000" pt_clust_6="13000.00000" pt_clust_7="13000.00000" pt_clust_8="13000.00000" pt_clust_9="33.64383" pt_clust_10="38.87770"></scales>
<clustering>
<clus scale="   33.644">  2  9  1 -1</clus>
<clus scale="   38.878">  1 10  2 -1</clus>
<clus scale="   78.636">  5  6 -1 -1</clus>
<clus scale="   93.307">  7  8 -1 -1</clus>
<clus scale="  163.363">  2  5  1 -1</clus>
<clus scale="   38.878">  1  5  2 -1</clus>
</clustering>
</event>
<event>
10    4  0.3738096E-005  0.1361317E+03  0.7546771E-02  0.1238919E+00
         21   -1    0    0  501  502  0.00000000000E+00  0.00000000000E+00  0.72856127998E+02  0.72856127998E+02  0.00000000000E+00 0. -1.
          2   -1    0    0  503    0 -0.00000000000E+00 -0.00000000000E+00 -0.77744724793E+03  0.77744724793E+03  0.00000000000E+00 0. -1.
         24    2    1    2    0    0 -0.86977637333E+01 -0.34719680635E+02 -0.36984200292E+02  0.94348715752E+02  0.79074280114E+02 0.  0.
         23    2    1    2    0    0  0.12472903383E+03 -0.90547301981E+01 -0.41949793936E+03  0.44725226072E+03  0.91742812074E+02 0.  0.
        -13    1    3    3    0    0 -0.25456169509E+02 -0.20010797765E+02 -0.56234737917E+02  0.64890633699E+02  0.00000000000E+00 0.  1.
         14    1    3    3    0    0  0.16758405776E+02 -0.14708882869E+02  0.19250537625E+02  0.29458082054E+02  0.00000000000E+00 0. -1.
        -11    1    4    4    0    0  0.94365714051E+01 -0.25384447716E+02 -0.28634803161E+02  0.39412828087E+02  0.00000000000E+00 0.  1.
         11    1    4    4    0    0  0.11529246242E+03  0.16329717518E+02 -0.39086313620E+03  0.40783943263E+03  0.00000000000E+00 0. -1.
         21    1    1    2  503  502 -0.57159448333E+02 -0.41860574090E+02 -0.14952739260E+03  0.16546283974E+03  0.00000000000E+00 0. -1.
          1    1    1    2  501    0 -0.58871821761E+02  0.85634984923E+02 -0.98581587678E+02  0.14323955972E+03  0.00000000000E+00 0. -1.
<scales pt_clust_5="13000.00000" pt_clust_6="13000.00000" pt_clust_7="13000.00000" pt_clust_8="13000.00000" pt_clust_9="70.84850" pt_clust_10="100.57389"></scales>
<clustering>
<clus scale="   70.849">  2  9  1 -1</clus>
<clus scale="   79.074">  5  6 -1 -1</clus>
<clus scale="   89.462">  2  5  1 -1</clus>
<clus scale="   91.743">  7  8 -1 -1</clus>
<clus scale="  100.574">  1 10  2 -1</clus>
<clus scale="  100.574">  1  5  2 -1</clus>
</clustering>
</event>
<event>
10    4  0.3738096E-005  0.1390082E+03  0.7546771E-02  0.1232037E+00
         21   -1    0    0  501  502  0.00000000000E+00  0.00000000000E+00  0.12236905788E+03  0.12236905788E+03  0.00000000000E+00 0. -1.
          2   -1    0    0  503    0 -0.00000000000E+00 -0.00000000000E+00 -0.41254213645E+03  0.41254213645E+03  0.00000000000E+00 0. -1.
         23    2    1    2    0    0 -0.50536393364E+01  0.35718337405E+02 -0.89082542301E+02  0.13217567377E+03  0.90737922042E+02 0.  0.
         24    2    1    2    0    0  0.79532511191E+02 -0.39421028528E+02 -0.68987652758E+02  0.13867439982E+03  0.81190240206E+02 0.  0.
        -13    1    4    4    0    0  0.42118546615E+02 -0.25040647165E+02 -0.82855906788E+02  0.96260621591E+02  0.00000000000E+00 0.  1.
         14    1    4    4    0    0  0.37413964576E+02 -0.14380381363E+02  0.13868254031E+02  0.42413778225E+02  0.00000000000E+00 0. -1.
        -11    1    3    3    0    0  0.38005174149E+02  0.37074084835E+02 -0.60413627694E+02  0.80428150791E+02  0.00000000000E+00 0.  1.
         11    1    3    3    0    0 -0.43058813485E+02 -0.13557474304E+01 -0.28668914606E+02  0.51747522980E+02  0.00000000000E+00 0. -1.
         21    1    1    2  503  502 -0.14781741225E+03  0.21871365402E+02 -0.64784136037E+02  0.16286598255E+03  0.00000000000E+00 0. -1.
          1    1    1    2  501    0  0.73338540397E+02 -0.18168674279E+02 -0.67318747476E+02  0.10119513820E+03  0.00000000000E+00 0. -1.
<scales pt_clust_5="13000.00000" pt_clust_6="13000.00000" pt_clust_7="13000.00000" pt_clust_8="13000.00000" pt_clust_9="112.83366" pt_clust_10="75.55560"></scales>
<clustering>
<clus scale="   75.556">  1 10  2 -1</clus>
<clus scale="   81.190">  5  6 -1 -1</clus>
<clus scale="   90.738">  7  8 -1 -1</clus>
<clus scale="   96.728">  2  7  1 -1</clus>
<clus scale="  112.834">  1  9  2 -1</clus>
<clus scale="   75.556">  1  5  2 -1</clus>
</clustering>
</event>
<event>
10    4  0.3738096E-005  0.3799351E+03  0.7546771E-02  0.1050958E+00
         21   -1    0    0  501  502  0.00000000000E+00  0.00000000000E+00  0.38169046406E+03  0.38169046406E+03  0.00000000000E+00 0. -1.
          2   -1    0    0  503    0 -0.00000000000E+00 -0.00000000000E+00 -0.44586918984E+03  0.44586918984E+03  0.00000000000E+00 0. -1.
         24    2    1    2    0    0 -0.12015099295E+02 -0.97400787114E+02 -0.11128131674E+02  0.12710248461E+03  0.79999564615E+02 0.  0.
         23    2    1    2    0    0 -0.14721049425E+03 -0.19375374172E+03  0.12395060306E+03  0.28739222304E+03  0.89549404333E+02 0.  0.
        -13    1    3    3    0    0 -0.24666240175E+02  0.20057466914E+01  0.59410570333E+01  0.25450787470E+02  0.00000000000E+00 0.  1.
         14    1    3    3    0    0  0.12651140880E+02 -0.99406533806E+02 -0.17069188707E+02  0.10165169714E+03  0.00000000000E+00 0. -1.
        -11    1    4    4    0    0 -0.23179023292E+02 -0.16927925393E+02 -0.13143055236E+02  0.31568365175E+02  0.00000000000E+00 0.  1.
         11    1    4    4    0    0 -0.12403147096E+03 -0.17682581633E+03  0.13709365829E+03  0.25582385786E+03  0.00000000000E+00 0. -1.
         21    1    1    2  503  502  0.65879881609E+02  0.24447488985E+02 -0.96270431411E+02  0.11918823131E+03  0.00000000000E+00 0. -1.
          1    1    1    2  501    0  0.93345711937E+02  0.26670703985E+03 -0.80730765752E+02  0.29387671493E+03  0.00000000000E+00 0. -1.
<scales pt_clust_5="13000.00000" pt_clust_6="13000.00000" pt_clust_7="13000.00000" pt_clust_8="13000.00000" pt_clust_9="70.26976" pt_clust_10="308.86501"></scales>
<clustering>
<clus scale="   70.270">  2  9  1 -1</clus>
<clus scale="   80.000">  5  6 -1 -1</clus>
<clus scale="   89.549">  7  8 -1 -1</clus>
<clus scale="  120.550">  5  7 -1 -1</clus>
<clus scale="  308.865">  1 10  2 -1</clus>
<clus scale="  308.865">  1  5  2 -1</clus>
</clustering>
</event>
<event>
10    4  0.3738096E-005  0.1780524E+03  0.7546771E-02  0.1181252E+00
         21   -1    0    0  501  502  0.00000000000E+00  0.00000000000E+00  0.32150970154E+03  0.32150970154E+03  0.00000000000E+00 0. -1.
          2   -1    0    0  503    0 -0.00000000000E+00 -0.00000000000E+00 -0.34812051185E+03  0.34812051185E+03  0.00000000000E+00 0. -1.
         23    2    1    2    0    0  0.65969440153E+02  0.70841531964E+02  0.12790626933E+03  0.18607848346E+03  0.94311709706E+02 0.  0.
         24    2    1    2    0    0 -0.16597623722E+03 -0.44463731497E+02 -0.33611726314E+02  0.19336147925E+03  0.82059604986E+02 0.  0.
        -11    1    4    4    0    0 -0.33384435575E+02  0.45451397464E+01  0.23312251938E+02  0.40971208481E+02  0.00000000000E+00 0.  1.
         12    1    4    4    0    0 -0.13259180165E+03 -0.49008871243E+02 -0.56923978252E+02  0.15239027077E+03  0.00000000000E+00 0. -1.
        -13    1    3    3    0    0  0.68166308944E+02  0.46348311058E+02  0.13697717456E+03  0.15986731362E+03  0.00000000000E+00 0. -1.
         13    1    3    3    0    0 -0.21968687913E+01  0.24493220906E+02 -0.90709052290E+01  0.26211169842E+02  0.00000000000E+00 0.  1.
         21    1    1    2  503  502 -0.45228010155E+02  0.73393205150E+02 -0.25951351216E+02  0.90031150691E+02  0.00000000000E+00 0. -1.
          1    1    1    2  501    0  0.14523480723E+03 -0.99771005617E+02 -0.94954002106E+02  0.20015909999E+03  0.00000000000E+00 0. -1.
<scales pt_clust_5="13000.00000" pt_clust_6="13000.00000" pt_clust_7="13000.00000" pt_clust_8="13000.00000" pt_clust_9="86.20983" pt_clust_10="158.01555"></scales>
<clustering>
<clus scale="   82.060">  5  6 -1 -1</clus>
<clus scale="   86.210">  2  9  1 -1</clus>
<clus scale="   94.312">  7  8 -1 -1</clus>
<clus scale="  137.055">  2  7  1 -1</clus>
<clus scale="  158.016">  1 10  2 -1</clus>
<clus scale="  158.016">  1  5  2 -1</clus>
</clustering>
</event>
<event>
10    4  0.3738096E-005  0.9082091E+02  0.7546771E-02  0.1308328E+00
         21   -1    0    0  503  502  0.00000000000E+00  0.00000000000E+00  0.59331930147E+03  0.59331930147E+03  0.00000000000E+00 0. -1.
         -1   -1    0    0    0  501 -0.00000000000E+00 -0.00000000000E+00 -0.24195506242E+03  0.24195506242E+03  0.00000000000E+00 0.  1.
         23    2    1    2    0    0 -0.67305143893E+01 -0.29881163688E+02 -0.18901611142E+03  0.21184837656E+03  0.90633661010E+02 0.  0.
         24    2    1    2    0    0 -0.21165013931E+02  0.26012154395E+01  0.39400593829E+03  0.40241843569E+03  0.79026538802E+02 0.  0.
        -11    1    4    4    0    0  0.78795704685E+01  0.21157272872E+02  0.34290147737E+02  0.41055231798E+02  0.00000000000E+00 0.  1.
         12    1    4    4    0    0 -0.29044584400E+02 -0.18556057433E+02  0.35971579055E+03  0.36136320389E+03  0.00000000000E+00 0. -1.
        -13    1    3    3    0    0  0.25011007896E+02 -0.50593981089E+02 -0.95303137611E+02  0.11076095646E+03  0.00000000000E+00 0. -1.
         13    1    3    3    0    0 -0.31741522285E+02  0.20712817401E+02 -0.93712973812E+02  0.10108742010E+03  0.00000000000E+00 0.  1.
         21    1    1    2  503  501  0.76192987197E+01  0.36806177743E+02 -0.26944583219E+02  0.46246718780E+02  0.00000000000E+00 0.  1.
         -2    1    1    2    0  502  0.20276229601E+02 -0.95262294951E+01  0.17331899540E+03  0.17476083286E+03  0.00000000000E+00 0.  1.
<scales pt_clust_5="13000.00000" pt_clust_6="13000.00000" pt_clust_7="13000.00000" pt_clust_8="13000.00000" pt_clust_9="37.46979" pt_clust_10="22.40256"></scales>
<clustering>
<clus scale="   22.403">  1 10  2 -1</clus>
<clus scale="   37.470">  2  9  1 -1</clus>
<clus scale="   79.027">  5  6 -1 -1</clus>
<clus scale="   79.241">  1  5  2 -1</clus>
<clus scale="   90.634">  7  8 -1 -1</clus>
<clus scale="   22.403">  1  5  2 -1</clus>
</clustering>
</event>
<event>
10    4  0.3738096E-005  0.1022799E+03  0.7546771E-02  0.1279195E+00
          2   -1    0    0  503    0 -0.00000000000E+00  0.00000000000E+00  0.15764047293E+03  0.15764047293E+03  0.00000000000E+00 0. -1.
         21   -1    0    0  501  502  0.00000000000E+00 -0.00000000000E+00 -0.15080057228E+03  0.15080057228E+03  0.00000000000E+00 0. -1.
         24    2    1    2    0    0 -0.53163463283E+02 -0.19699840138E+01  0.27651970643E+02  0.98882828298E+02  0.78631721249E+02 0.  0.
         23    2    1    2    0    0  0.38935143491E+02  0.58484417682E+02  0.16382555380E+02  0.11287131244E+03  0.86805371619E+02 0.  0.
        -11    1    3    3    0    0 -0.62341697233E+02  0.23858986500E+02  0.13769796455E+02  0.68156773289E+02  0.00000000000E+00 0.  1.
         12    1    3    3    0    0  0.91782339501E+01 -0.25828970514E+02  0.13882174188E+02  0.30726055009E+02  0.00000000000E+00 0. -1.
        -11    1    4    4    0    0 -0.16703815318E+02  0.11980563746E+02  0.32624495707E+02  0.38560459982E+02  0.00000000000E+00 0.  1.
         11    1    4    4    0    0  0.55638958809E+02  0.46503853935E+02 -0.16241940327E+02  0.74310852463E+02  0.00000000000E+00 0. -1.
         21    1    1    2  503  502  0.85486974520E+01 -0.19026587490E+02  0.19452465354E+02  0.28521740269E+02  0.00000000000E+00 0.  1.
          1    1    1    2  501    0  0.56796223400E+01 -0.37487846178E+02 -0.56647090730E+02  0.68165164191E+02  0.00000000000E+00 0. -1.
<scales pt_clust_5="13000.00000" pt_clust_6="13000.00000" pt_clust_7="13000.00000" pt_clust_8="13000.00000" pt_clust_9="20.85884" pt_clust_10="38.78218"></scales>
<clustering>
<clus scale="   20.859">  1  9  2 -1</clus>
<clus scale="   38.782">  2 10  1 -1</clus>
<clus scale="   78.632">  5  6 -1 -1</clus>
<clus scale="   86.805">  7  8 -1 -1</clus>
<clus scale="   95.441">  1  5  2 -1</clus>
<clus scale="   38.782">  2  5  1 -1</clus>
</clustering>
</event>
<event>
10    4  0.3738096E-005  0.1505921E+03  0.7546771E-02  0.1215707E+00
          2   -1    0    0  503    0 -0.00000000000E+00  0.00000000000E+00  0.15716221818E+03  0.15716221818E+03  0.00000000000E+00 0. -1.
         21   -1    0    0  501  502  0.00000000000E+00 -0.00000000000E+00 -0.34436994568E+03  0.34436994568E+03  0.00000000000E+00 0. -1.
         24    2    1    2    0    0 -0.63140112534E+02  0.33073897195E+02  0.20287109885E+02  0.11154473272E+03  0.83367284259E+02 0.  0.
         23    2    1    2    0    0 -0.74723541156E+02 -0.47067482421E+02 -0.76951853845E+02  0.14840602498E+03  0.91125215698E+02 0.  0.
        -13    1    3    3    0    0  0.12044616551E+02  0.25018984304E+02 -0.10793443222E+02  0.29791286982E+02  0.00000000000E+00 0.  1.
         14    1    3    3    0    0 -0.75184729086E+02  0.80549128908E+01  0.31080553107E+02  0.81753445743E+02  0.00000000000E+00 0. -1.
        -11    1    4    4    0    0 -0.64311947097E+02 -0.70176335768E+02 -0.39219353494E+02  0.10295097051E+03  0.00000000000E+00 0.  1.
         11    1    4    4    0    0 -0.10411594059E+02  0.23108853347E+02 -0.37732500351E+02  0.45455054467E+02  0.00000000000E+00 0. -1.
         21    1    1    2  503  502 -0.40411814575E+01 -0.35244398580E+02  0.89581555863E+01  0.36588896271E+02  0.00000000000E+00 0. -1.
          1    1    1    2  501    0  0.14190483515E+03  0.49237983807E+02 -0.13950113913E+03  0.20499250988E+03  0.00000000000E+00 0. -1.
<scales pt_clust_5="13000.00000" pt_clust_6="13000.00000" pt_clust_7="13000.00000" pt_clust_8="13000.00000" pt_clust_9="35.47533" pt_clust_10="119.89242"></scales>
<clustering>
<clus scale="   35.475">  1  9  2 -1</clus>
<clus scale="   83.367">  5  6 -1 -1</clus>
<clus scale="   91.125">  7  8 -1 -1</clus>
<clus scale="  106.959">  1  5  2 -1</clus>
<clus scale="  119.892">  2 10  1 -1</clus>
<clus scale="  119.892">  2  5  1 -1</clus>
</clustering>
</event>
<event>
10    4  0.3738096E-005  0.1048713E+03  0.7546771E-02  0.1276348E+00
          2   -1    0    0  503    0 -0.00000000000E+00  0.00000000000E+00  0.24007838925E+03  0.24007838925E+03  0.00000000000E+00 0. -1.
         21   -1    0    0  501  502  0.00000000000E+00 -0.00000000000E+00 -0.12893341874E+03  0.12893341874E+03  0.00000000000E+00 0. -1.
         24    2    1    2    0    0  0.14492442773E+02  0.12174621159E+02  0.10978075662E+02  0.85291910711E+02  0.82437488981E+02 0.  0.
         23    2    1    2    0    0 -0.69308209173E+02  0.68819243328E+02  0.30706978519E+02  0.13977395969E+03  0.95153166875E+02 0.  0.
        -13    1    3    3    0    0  0.22424188006E+02  0.14472178003E+02  0.43885794668E+02  0.51363908705E+02  0.00000000000E+00 0.  1.
         14    1    3    3    0    0 -0.79317452330E+01 -0.22975568440E+01 -0.32907719006E+02  0.33928002005E+02  0.00000000000E+00 0. -1.
        -11    1    4    4    0    0 -0.52068490985E+02  0.87909148027E+02  0.33550865641E+01  0.10222721099E+03  0.00000000000E+00 0. -1.
         11    1    4    4    0    0 -0.17239718187E+02 -0.19089904699E+02  0.27351891955E+02  0.37546748702E+02  0.00000000000E+00 0.  1.
         21    1    1    2  503  502  0.31064545483E+02 -0.17928075766E+02  0.67605335696E+02  0.76530407691E+02  0.00000000000E+00 0.  1.
          1    1    1    2  501    0  0.23751220916E+02 -0.63065788720E+02  0.18545806274E+01  0.67415529896E+02  0.00000000000E+00 0. -1.
<scales pt_clust_5="13000.00000" pt_clust_6="13000.00000" pt_clust_7="13000.00000" pt_clust_8="13000.00000" pt_clust_9="35.86672" pt_clust_10="73.25603"></scales>
<clustering>
<clus scale="   35.867">  1  9  2 -1</clus>
<clus scale="   73.256">  2 10  1 -1</clus>
<clus scale="   82.437">  5  6 -1 -1</clus>
<clus scale="   93.487">  1  5  2 -1</clus>
<clus scale="   95.153">  7  8 -1 -1</clus>
<clus scale="   73.256">  2  5  1 -1</clus>
</clustering>
</event>
<event>
10    4  0.3738096E-005  0.1377503E+03  0.7546771E-02  0.1228740E+00
         21   -1    0    0  501  502  0.00000000000E+00  0.00000000000E+00  0.20140233706E+03  0.20140233706E+03  0.00000000000E+00 0. -1.
          2   -1    0    0  503    0 -0.00000000000E+00 -0.00000000000E+00 -0.69588750227E+03  0.69588750227E+03  0.00000000000E+00 0. -1.
         24    2    1    2    0    0 -0.87660352888E+02  0.48819584671E+02 -0.38823447403E+03  0.40889502900E+03  0.80009053251E+02 0.  0.
         23    2    1    2    0    0 -0.39886253162E+02  0.21712670047E+01 -0.10972483454E+03  0.14986843457E+03  0.93943497780E+02 0.  0.
        -13    1    3    3    0    0  0.33488612300E+01  0.27813031155E+02 -0.43568824429E+02  0.51797896055E+02  0.00000000000E+00 0.  1.
         14    1    3    3    0    0 -0.91009214118E+02  0.21006553516E+02 -0.34466564960E+03  0.35709713295E+03  0.00000000000E+00 0. -1.
        -13    1    4    4    0    0 -0.25773118632E+02 -0.41232572339E+02 -0.85090542523E+02  0.98003974881E+02  0.00000000000E+00 0.  1.
         13    1    4    4    0    0 -0.14113134530E+02  0.43403839343E+02 -0.24634292015E+02  0.51864459692E+02  0.00000000000E+00 0. -1.
         21    1    1    2  503  502  0.16352196746E+03 -0.30709413534E+02 -0.12207394684E+03  0.20636024427E+03  0.00000000000E+00 0. -1.
          1    1    1    2  501    0 -0.35975361405E+02 -0.20281438142E+02  0.12554809019E+03  0.13216613149E+03  0.00000000000E+00 0. -1.
<scales pt_clust_5="13000.00000" pt_clust_6="13000.00000" pt_clust_7="13000.00000" pt_clust_8="13000.00000" pt_clust_9="112.13243" pt_clust_10="41.29847"></scales>
<clustering>
<clus scale="   41.298">  1 10  2 -1</clus>
<clus scale="   80.009">  5  6 -1 -1</clus>
<clus scale="   93.943">  7  8 -1 -1</clus>
<clus scale="  106.401">  1  7  2 -1</clus>
<clus scale="  112.132">  1  9  2 -1</clus>
<clus scale="   41.298">  1  5  2 -1</clus>
</clustering>
</event>
<event>
10    4  0.3738096E-005  0.5164992E+03  0.7546771E-02  0.1009702E+00
         21   -1    0    0  503  502  0.00000000000E+00  0.00000000000E+00  0.40728362059E+03  0.40728362059E+03  0.00000000000E+00 0.  1.
         -1   -1    0    0    0  501 -0.00000000000E+00 -0.00000000000E+00 -0.10340449257E+04  0.10340449257E+04  0.00000000000E+00 0.  1.
         23    2    1    2    0    0  0.50522943799E+03  0.18371751109E+03 -0.60432172911E+03  0.81401471761E+03  0.91685873075E+02 0.  0.
         24    2    1    2    0    0 -0.45457223447E+03 -0.21575224046E+03  0.64050647763E+02  0.51319225209E+03  0.77967021933E+02 0.  0.
        -13    1    4    4    0    0 -0.22045561316E+03 -0.13959221029E+03  0.99426222332E+01  0.26112356899E+03  0.00000000000E+00 0.  1.
         14    1    4    4    0    0 -0.23411662132E+03 -0.76160030167E+02  0.54108025529E+02  0.25206868310E+03  0.00000000000E+00 0. -1.
        -13    1    3    3    0    0  0.33574386406E+02  0.38093948876E+02 -0.71286194116E+02  0.87522053421E+02  0.00000000000E+00 0. -1.
         13    1    3    3    0    0  0.47165505158E+03  0.14562356221E+03 -0.53303553500E+03  0.72649266419E+03  0.00000000000E+00 0.  1.
         21    1    1    2  503  501 -0.47400205403E+02  0.63857921296E+01 -0.48059869916E+02  0.67803457948E+02  0.00000000000E+00 0. -1.
         -2    1    1    2    0  502 -0.32569981084E+01  0.25648937240E+02 -0.38430353865E+02  0.46318118662E+02  0.00000000000E+00 0.  1.
<scales pt_clust_5="13000.00000" pt_clust_6="13000.00000" pt_clust_7="13000.00000" pt_clust_8="13000.00000" pt_clust_9="47.99513" pt_clust_10="25.85492"></scales>
<clustering>
<clus scale="   25.855">  1 10  2 -1</clus>
<clus scale="   47.995">  2  9  1 -1</clus>
<clus scale="   77.967">  5  6 -1 -1</clus>
<clus scale="   91.686">  7  8 -1 -1</clus>
<clus scale="  514.241">  1  5  2 -1</clus>
<clus scale="   25.855">  1  5  2 -1</clus>
</clustering>
</event>
<event>
10    4  0.3738096E-005  0.1326194E+03  0.7546771E-02  0.1232160E+00
         21   -1    0    0  501  502  0.00000000000E+00  0.00000000000E+00  0.69017748454E+02  0.69017748454E+02  0.00000000000E+00 0. -1.
          2   -1    0    0  503    0 -0.00000000000E+00 -0.00000000000E+00 -0.67945572571E+03  0.67945572571E+03  0.00000000000E+00 0. -1.
         24    2    1    2    0    0  0.11240337556E+03 -0.50687743945E+02 -0.21771278350E+03  0.25707519247E+03  0.59034161811E+02 0.  0.
         23    2    1    2    0    0 -0.43098923425E+02  0.40207296909E+02 -0.49470796709E+02  0.12103257807E+03  0.93420454404E+02 0.  0.
        -13    1    3    3    0    0  0.74746258642E+02 -0.36431884115E+02 -0.87194998444E+02  0.12048756415E+03  0.00000000000E+00 0.  1.
         14    1    3    3    0    0  0.37657116914E+02 -0.14255859830E+02 -0.13051778505E+03  0.13658762832E+03  0.00000000000E+00 0. -1.
        -13    1    4    4    0    0  0.72468846502E+01 -0.20906889919E+02  0.76347180227E+01  0.23407355735E+02  0.00000000000E+00 0. -1.
         13    1    4    4    0    0 -0.50345808075E+02  0.61114186828E+02 -0.57105514732E+02  0.97625222331E+02  0.00000000000E+00 0.  1.
         21    1    1    2  503  502 -0.10282226481E+02  0.37519839357E+02 -0.26872122671E+03  0.27152266979E+03  0.00000000000E+00 0. -1.
          1    1    1    2  501    0 -0.59022225650E+02 -0.27039392321E+02 -0.74533170337E+02  0.98843033838E+02  0.00000000000E+00 0. -1.
<scales pt_clust_5="13000.00000" pt_clust_6="13000.00000" pt_clust_7="13000.00000" pt_clust_8="13000.00000" pt_clust_9="38.90325" pt_clust_10="64.10912"></scales>
<clustering>
<clus scale="   38.903">  2  9  1 -1</clus>
<clus scale="   59.034">  5  6 -1 -1</clus>
<clus scale="   64.109">  1 10  2 -1</clus>
<clus scale="   93.420">  7  8 -1 -1</clus>
<clus scale="  111.111">  2  5  1 -1</clus>
<clus scale="   64.109">  1  5  2 -1</clus>
</clustering>
</event>
<event>
10    4  0.3738096E-005  0.2337580E+03  0.7546771E-02  0.1139631E+00
         21   -1    0    0  501  502  0.00000000000E+00  0.00000000000E+00  0.45470111371E+03  0.45470111371E+03  0.00000000000E+00 0.  1.
          2   -1    0    0  503    0 -0.00000000000E+00 -0.00000000000E+00 -0.44945362738E+03  0.44945362738E+03  0.00000000000E+00 0. -1.
         24    2    1    2    0    0 -0.11712704698E+03  0.22748603879E+02 -0.18662647085E+03  0.23538390798E+03  0.79623491504E+02 0.  0.
         23    2    1    2    0    0  0.23247503963E+03 -0.12464391062E+03  0.22117622402E+03  0.35615679159E+03  0.91367333418E+02 0.  0.
        -13    1    3    3    0    0 -0.31034127402E+02  0.37706003058E+02 -0.10502776809E+03  0.11582612745E+03  0.00000000000E+00 0.  1.
         14    1    3    3    0    0 -0.86092919580E+02 -0.14957399179E+02 -0.81598702754E+02  0.11955778052E+03  0.00000000000E+00 0. -1.
        -13    1    4    4    0    0  0.28177178007E+02 -0.20697402593E+02  0.79082391944E+02  0.86465950235E+02  0.00000000000E+00 0. -1.
         13    1    4    4    0    0  0.20429786163E+03 -0.10394650803E+03  0.14209383208E+03  0.26969084136E+03  0.00000000000E+00 0.  1.
         21    1    1    2  503  502 -0.32853658480E+02 -0.66074304587E+02 -0.89535816873E+02  0.11602516583E+03  0.00000000000E+00 0.  1.
          1    1    1    2  501    0 -0.82494334172E+02  0.16796961133E+03  0.60233550023E+02  0.19658887570E+03  0.00000000000E+00 0. -1.
<scales pt_clust_5="13000.00000" pt_clust_6="13000.00000" pt_clust_7="13000.00000" pt_clust_8="13000.00000" pt_clust_9="73.79144" pt_clust_10="215.16239"></scales>
<clustering>
<clus scale="   73.791">  2  9  1 -1</clus>
<clus scale="   79.623">  5  6 -1 -1</clus>
<clus scale="   91.367">  7  8 -1 -1</clus>
<clus scale="  159.524">  2  5  1 -1</clus>
<clus scale="  215.162">  1 10  2 -1</clus>
<clus scale="  215.162">  1  5  2 -1</clus>
</clustering>
</event>
<event>
10    4  0.3738096E-005  0.2115387E+03  0.7546771E-02  0.1172886E+00
         21   -1    0    0  501  502  0.00000000000E+00  0.00000000000E+00  0.34678184757E+03  0.34678184757E+03  0.00000000000E+00 0. -1.
          4   -1    0    0  503    0 -0.00000000000E+00 -0.00000000000E+00 -0.34488243310E+03  0.34488243310E+03  0.00000000000E+00 0. -1.
         24    2    1    2    0    0  0.14609070955E+02  0.56340687627E+02 -0.41054114167E+02  0.10692813367E+03  0.79752664184E+02 0.  0.
         23    2    1    2    0    0 -0.45492962093E+02 -0.16848776230E+03  0.70061750204E+02  0.20941329380E+03  0.92127862956E+02 0.  0.
        -11    1    3    3    0    0  0.12821828049E+02  0.76845232399E+02 -0.35468336435E+02  0.85601354583E+02  0.00000000000E+00 0.  1.
         12    1    3    3    0    0  0.17872429060E+01 -0.20504544772E+02 -0.55857777317E+01  0.21326779091E+02  0.00000000000E+00 0. -1.
        -13    1    4    4    0    0 -0.28122336120E+02 -0.35014773212E+02 -0.18199386695E+02  0.48457381358E+02  0.00000000000E+00 0.  1.
         13    1    4    4    0    0 -0.17370625972E+02 -0.13347298909E+03  0.88261136900E+02  0.16095591244E+03  0.00000000000E+00 0. -1.
         21    1    1    2  503  502  0.56379445435E+02 -0.10265907524E+03 -0.92606638045E+02  0.14931013699E+03  0.00000000000E+00 0. -1.
          3    1    1    2  501    0 -0.25495554297E+02  0.21480614991E+03  0.65498416480E+02  0.22601271622E+03  0.00000000000E+00 0. -1.
<scales pt_clust_5="13000.00000" pt_clust_6="13000.00000" pt_clust_7="13000.00000" pt_clust_8="13000.00000" pt_clust_9="99.81624" pt_clust_10="190.42357"></scales>
<clustering>
<clus scale="   79.753">  5  6 -1 -1</clus>
<clus scale="   92.128">  7  8 -1 -1</clus>
<clus scale="   98.733">  2  5  1 -1</clus>
<clus scale="   99.816">  2  9  1 -1</clus>
<clus scale="  190.424">  1 10  2 -1</clus>
<clus scale="  190.424">  1  5  2 -1</clus>
</clustering>
</event>
<event>
10    4  0.3738096E-005  0.9895229E+02  0.7546771E-02  0.1289131E+00
         21   -1    0    0  503  502  0.00000000000E+00  0.00000000000E+00  0.14771051294E+03  0.14771051294E+03  0.00000000000E+00 0.  1.
         -3   -1    0    0    0  501 -0.00000000000E+00 -0.00000000000E+00 -0.22804121182E+03  0.22804121182E+03  0.00000000000E+00 0.  1.
         24    2    1    2    0    0 -0.24824845966E+02  0.28442645435E+02 -0.41014394030E+02  0.97553843576E+02  0.80058196472E+02 0.  0.
         23    2    1    2    0    0  0.10028905110E+02  0.33634627028E+01  0.80488813179E+02  0.12313281402E+03  0.92581580366E+02 0.  0.
        -13    1    3    3    0    0  0.47210937014E+01 -0.23493712619E+02  0.18228024767E+01  0.24032600093E+02  0.00000000000E+00 0.  1.
         14    1    3    3    0    0 -0.29545939668E+02  0.51936358054E+02 -0.42837196506E+02  0.73521243483E+02  0.00000000000E+00 0. -1.
        -11    1    4    4    0    0 -0.22366103031E+02 -0.30688878781E+02  0.11540863664E+02  0.39689310649E+02  0.00000000000E+00 0. -1.
         11    1    4    4    0    0  0.32395008141E+02  0.34052341484E+02  0.68947949515E+02  0.83443503374E+02  0.00000000000E+00 0.  1.
         21    1    1    2  503  501 -0.32881427119E+02 -0.22968845682E+01 -0.15022467453E+02  0.36223451748E+02  0.00000000000E+00 0.  1.
         -4    1    1    2    0  502  0.47677367976E+02 -0.29509223569E+02 -0.10478265058E+03  0.11884161541E+03  0.00000000000E+00 0.  1.
<scales pt_clust_5="13000.00000" pt_clust_6="13000.00000" pt_clust_7="13000.00000" pt_clust_8="13000.00000" pt_clust_9="32.96155" pt_clust_10="42.64244"></scales>
<clustering>
<clus scale="   32.962">  2  9  1 -1</clus>
<clus scale="   42.642">  1 10  2 -1</clus>
<clus scale="   80.058">  5  6 -1 -1</clus>
<clus scale="   87.347">  2  5  1 -1</clus>
<clus scale="   92.582">  7  8 -1 -1</clus>
<clus scale="   42.642">  1  5  2 -1</clus>
</clustering>
</event>
<event>
10    4  0.3738096E-005  0.2743622E+03  0.7546771E-02  0.1099376E+00
         21   -1    0    0  501  502  0.00000000000E+00  0.00000000000E+00  0.20312493782E+03  0.20312493782E+03  0.00000000000E+00 0. -1.
          2   -1    0    0  503    0 -0.00000000000E+00 -0.00000000000E+00 -0.62790723991E+03  0.62790723991E+03  0.00000000000E+00 0. -1.
         24    2    1    2    0    0 -0.10969163610E+03  0.23415706208E+03 -0.40247173784E+03  0.48507033901E+03  0.80299123717E+02 0.  0.
         23    2    1    2    0    0  0.81630012459E+02 -0.22414223623E+03  0.36081023420E+02  0.25853588495E+03  0.92928803701E+02 0.  0.
        -11    1    3    3    0    0 -0.34314669493E+01  0.83256234756E+02 -0.15946577121E+03  0.17992417230E+03  0.00000000000E+00 0.  1.
         12    1    3    3    0    0 -0.10626016915E+03  0.15090082733E+03 -0.24300596663E+03  0.30514616671E+03  0.00000000000E+00 0. -1.
        -13    1    4    4    0    0  0.78056842562E+02 -0.16544739190E+03  0.63513520669E+02  0.19364833453E+03  0.00000000000E+00 0. -1.
         13    1    4    4    0    0  0.35731698970E+01 -0.58694844330E+02 -0.27432497249E+02  0.64887550419E+02  0.00000000000E+00 0.  1.
         21    1    1    2  503  502  0.21615217136E+02  0.17948875808E+02 -0.50291746138E+02  0.57607633906E+02  0.00000000000E+00 0. -1.
          1    1    1    2  501    0  0.64464065071E+01 -0.27963701661E+02 -0.80998415309E+01  0.29818319877E+02  0.00000000000E+00 0. -1.
<scales pt_clust_5="13000.00000" pt_clust_6="13000.00000" pt_clust_7="13000.00000" pt_clust_8="13000.00000" pt_clust_9="28.09590" pt_clust_10="28.29192"></scales>
<clustering>
<clus scale="   28.096">  2  9  1 -1</clus>
<clus scale="   28.292">  1 10  2 -1</clus>
<clus scale="   80.299">  5  6 -1 -1</clus>
<clus scale="   92.929">  7  8 -1 -1</clus>
<clus scale="  270.346">  2  5  1 -1</clus>
<clus scale="   28.292">  1  5  2 -1</clus>
</clustering>
</event>
<event>
10    4  0.3738096E-005  0.1979195E+03  0.7546771E-02  0.1152727E+00
         21   -1    0    0  501  502  0.00000000000E+00  0.00000000000E+00  0.15616345186E+03  0.15616345186E+03  0.00000000000E+00 0. -1.
          2   -1    0    0  503    0 -0.00000000000E+00 -0.00000000000E+00 -0.10619218179E+04  0.10619218179E+04  0.00000000000E+00 0. -1.
         23    2    1    2    0    0  0.14390867787E+03  0.52544663509E+02 -0.11997631775E+03  0.21448478067E+03  0.90215049141E+02 0.  0.
         24    2    1    2    0    0 -0.21982721403E+03 -0.11869586969E+03 -0.12695098843E+03  0.29064351304E+03  0.77099835931E+02 0.  0.
        -11    1    4    4    0    0 -0.20561664889E+02 -0.44340995923E+01  0.99196205738E+01  0.23256013729E+02  0.00000000000E+00 0.  1.
         12    1    4    4    0    0 -0.19926554914E+03 -0.11426177010E+03 -0.13687060900E+03  0.26738749932E+03  0.00000000000E+00 0. -1.
        -11    1    3    3    0    0  0.82777257114E+02  0.16589582444E+02 -0.11959498093E+02  0.85266160554E+02  0.00000000000E+00 0. -1.
         11    1    3    3    0    0  0.61131420757E+02  0.35955081066E+02 -0.10801681965E+03  0.12921862012E+03  0.00000000000E+00 0.  1.
         21    1    1    2  503  502 -0.70150550515E+02 -0.17758305651E+02 -0.38283319954E+03  0.38961226344E+03  0.00000000000E+00 0.  1.
          1    1    1    2  501    0  0.14606908668E+03  0.83909511831E+02 -0.27599786033E+03  0.32334471260E+03  0.00000000000E+00 0. -1.
<scales pt_clust_5="13000.00000" pt_clust_6="13000.00000" pt_clust_7="13000.00000" pt_clust_8="13000.00000" pt_clust_9="72.36337" pt_clust_10="137.82729"></scales>
<clustering>
<clus scale="   72.363">  2  9  1 -1</clus>
<clus scale="   77.100">  5  6 -1 -1</clus>
<clus scale="   90.215">  7  8 -1 -1</clus>
<clus scale="  137.827">  1 10  2 -1</clus>
<clus scale="  192.296">  1  5  2 -1</clus>
<clus scale="  137.827">  1  5  2 -1</clus>
</clustering>
</event>
<event>
10    4  0.3738096E-005  0.1178776E+03  0.7546771E-02  0.1250370E+00
         21   -1    0    0  501  502  0.00000000000E+00  0.00000000000E+00  0.18290793567E+03  0.18290793567E+03  0.00000000000E+00 0. -1.
          2   -1    0    0  503    0 -0.00000000000E+00 -0.00000000000E+00 -0.50800314371E+03  0.50800314371E+03  0.00000000000E+00 0. -1.
         23    2    1    2    0    0 -0.70786973232E+02  0.26619367684E+02 -0.31297006124E+03  0.33455422872E+03  0.90867411151E+02 0.  0.
         24    2    1    2    0    0  0.58526730748E+02 -0.35606697668E+02  0.87630089870E+01  0.10534977856E+03  0.79552312262E+02 0.  0.
        -11    1    4    4    0    0  0.46939357379E+02 -0.41550558425E+02  0.38026307751E+02  0.73319521669E+02  0.00000000000E+00 0.  1.
         12    1    4    4    0    0  0.11587373369E+02  0.59438607570E+01 -0.29263298764E+02  0.32030256896E+02  0.00000000000E+00 0. -1.
        -11    1    3    3    0    0 -0.17234779691E+02 -0.33247230878E+02 -0.11352349567E+03  0.11954078827E+03  0.00000000000E+00 0.  1.
         11    1    3    3    0    0 -0.53552193541E+02  0.59866598563E+02 -0.19944656557E+03  0.21501344045E+03  0.00000000000E+00 0. -1.
         21    1    1    2  503  502  0.18648317679E+02  0.32443254621E+02 -0.13203358479E+03  0.13723407753E+03  0.00000000000E+00 0. -1.
          1    1    1    2  501    0 -0.63880751948E+01 -0.23455924637E+02  0.11114542900E+03  0.11377299457E+03  0.00000000000E+00 0. -1.
<scales pt_clust_5="13000.00000" pt_clust_6="13000.00000" pt_clust_7="13000.00000" pt_clust_8="13000.00000" pt_clust_9="36.55352" pt_clust_10="24.31024"></scales>
<clustering>
<clus scale="   24.310">  1 10  2 -1</clus>
<clus scale="   36.554">  2  9  1 -1</clus>
<clus scale="   79.552">  5  6 -1 -1</clus>
<clus scale="   90.867">  7  8 -1 -1</clus>
<clus scale="  109.393">  1  5  2 -1</clus>
<clus scale="   24.310">  1  5  2 -1</clus>
</clustering>
</event>
<event>
10    4  0.3738096E-005  0.1279324E+03  0.7546771E-02  0.1240977E+00
         -3   -1    0    0    0  501 -0.00000000000E+00  0.00000000000E+00  0.17544248193E+03  0.17544248193E+03  0.00000000000E+00 0.  1.
         21   -1    0    0  503  502  0.00000000000E+00 -0.00000000000E+00 -0.25556991707E+03  0.25556991707E+03  0.00000000000E+00 0. -1.
         24    2    1    2    0    0  0.45601201121E+02  0.36176590290E+02 -0.60935541195E+02  0.11682103343E+03  0.80906108801E+02 0.  0.
         23    2    1    2    0    0 -0.17348988429E+02  0.52789224574E+02  0.30181481716E+02  0.11103484015E+03  0.91269514401E+02 0.  0.
        -13    1    3    3    0    0  0.35216767265E+02 -0.20504450430E+02 -0.16130687822E+02  0.43827528719E+02  0.00000000000E+00 0.  1.
         14    1    3    3    0    0  0.10384433856E+02  0.56681040720E+02 -0.44804853373E+02  0.72993504707E+02  0.00000000000E+00 0. -1.
        -13    1    4    4    0    0 -0.54082882428E+02  0.26649567432E+02  0.81039488272E+01  0.60834460651E+02  0.00000000000E+00 0.  1.
         13    1    4    4    0    0  0.36733894000E+02  0.26139657142E+02  0.22077532888E+02  0.50200379504E+02  0.00000000000E+00 0. -1.
         21    1    1    2  503  501  0.33883474909E+02 -0.67210168854E+00  0.47331551119E+02  0.58213549316E+02  0.00000000000E+00 0. -1.
         -4    1    1    2    0  502 -0.62135687602E+02 -0.88293713175E+02 -0.96704926775E+02  0.14494297611E+03  0.00000000000E+00 0.  1.
<scales pt_clust_5="13000.00000" pt_clust_6="13000.00000" pt_clust_7="13000.00000" pt_clust_8="13000.00000" pt_clust_9="33.89014" pt_clust_10="89.64688"></scales>
<clustering>
<clus scale="   33.890">  1  9  2 -1</clus>
<clus scale="   80.906">  5  6 -1 -1</clus>
<clus scale="   91.270">  7  8 -1 -1</clus>
<clus scale="  103.375">  1  5  2 -1</clus>
<clus scale="   89.647">  2 10  1 -1</clus>
<clus scale="   89.647">  2  5  1 -1</clus>
</clustering>
</event>
<event>
10    4  0.3738096E-005  0.2609447E+03  0.7546771E-02  0.1107181E+00
          4   -1    0    0  503    0 -0.00000000000E+00  0.00000000000E+00  0.63052653268E+03  0.63052653268E+03  0.00000000000E+00 0. -1.
         21   -1    0    0  501  502  0.00000000000E+00 -0.00000000000E+00 -0.68422708174E+03  0.68422708174E+03  0.00000000000E+00 0.  1.
         24    2    1    2    0    0 -0.23672951785E+03 -0.10624971027E+03  0.42301153268E+03  0.50363434563E+03  0.85900708749E+02 0.  0.
         23    2    1    2    0    0  0.22274104632E+03  0.10797312878E+03 -0.46495386099E+03  0.53563848305E+03  0.97235391793E+02 0.  0.
        -13    1    3    3    0    0 -0.18580228708E+03 -0.11626034166E+03  0.31438365054E+03  0.38324409539E+03  0.00000000000E+00 0.  1.
         14    1    3    3    0    0 -0.50927230776E+02  0.10010631381E+02  0.10862788213E+03  0.12039025024E+03  0.00000000000E+00 0. -1.
        -11    1    4    4    0    0  0.20143314583E+03  0.63604984300E+02 -0.41410714000E+03  0.46487162708E+03  0.00000000000E+00 0.  1.
         11    1    4    4    0    0  0.21307900490E+02  0.44368144477E+02 -0.50846720988E+02  0.70766855962E+02  0.00000000000E+00 0. -1.
         21    1    1    2  503  502  0.78440631320E+01  0.32460032807E+02  0.12758057994E+03  0.13187868453E+03  0.00000000000E+00 0. -1.
          3    1    1    2  501    0  0.61444084042E+01 -0.34183451308E+02 -0.13933880068E+03  0.14360210121E+03  0.00000000000E+00 0. -1.
<scales pt_clust_5="13000.00000" pt_clust_6="13000.00000" pt_clust_7="13000.00000" pt_clust_8="13000.00000" pt_clust_9="33.39436" pt_clust_10="34.60125"></scales>
<clustering>
<clus scale="   33.394">  1  9  2 -1</clus>
<clus scale="   34.601">  2 10  1 -1</clus>
<clus scale="   85.901">  5  6 -1 -1</clus>
<clus scale="   97.235">  7  8 -1 -1</clus>
<clus scale="  256.936">  1  5  2 -1</clus>
<clus scale="   34.601">  2  5  1 -1</clus>
</clustering>
</event>
<event>
10    4  0.3738096E-005  0.4894880E+03  0.7546771E-02  0.1037921E+00
         21   -1    0    0  501  502  0.00000000000E+00  0.00000000000E+00  0.17687390946E+03  0.17687390946E+03  0.00000000000E+00 0. -1.
          2   -1    0    0  503    0 -0.00000000000E+00 -0.00000000000E+00 -0.25037824507E+04  0.25037824507E+04  0.00000000000E+00 0. -1.
         23    2    1    2    0    0  0.24541360986E+03  0.67723746208E+01 -0.24766803616E+03  0.36035491960E+03  0.90788253568E+02 0.  0.
         24    2    1    2    0    0 -0.56013392753E+03 -0.18034294599E+03 -0.10204590367E+04  0.11807472557E+04  0.80955799073E+02 0.  0.
        -13    1    4    4    0    0 -0.18338031540E+02 -0.17760216662E+02 -0.72272388755E+02  0.76648593419E+02  0.00000000000E+00 0.  1.
         14    1    4    4    0    0 -0.54179589599E+03 -0.16258272933E+03 -0.94818664794E+03  0.11040986623E+04  0.00000000000E+00 0. -1.
        -13    1    3    3    0    0  0.22099808036E+03 -0.19316868623E+02 -0.18791159755E+03  0.29073022105E+03  0.00000000000E+00 0. -1.
         13    1    3    3    0    0  0.24415529496E+02  0.26089243244E+02 -0.59756438611E+02  0.69624698557E+02  0.00000000000E+00 0.  1.
         21    1    1    2  503  502 -0.24912622081E+02 -0.18582314652E+02 -0.84222162796E+02  0.89773681348E+02  0.00000000000E+00 0.  1.
          1    1    1    2  501    0  0.33963293976E+03  0.19215288602E+03 -0.97455930554E+03  0.10497805034E+04  0.00000000000E+00 0. -1.
<scales pt_clust_5="13000.00000" pt_clust_6="13000.00000" pt_clust_7="13000.00000" pt_clust_8="13000.00000" pt_clust_9="31.07959" pt_clust_10="482.74700"></scales>
<clustering>
<clus scale="   31.080">  2  9  1 -1</clus>
<clus scale="   80.956">  5  6 -1 -1</clus>
<clus scale="   90.788">  7  8 -1 -1</clus>
<clus scale="  258.770">  2  7  1 -1</clus>
<clus scale="  482.747">  1 10  2 -1</clus>
<clus scale="  482.747">  1  5  2 -1</clus>
</clustering>
</event>
<event>
10    4  0.3738096E-005  0.1941977E+03  0.7546771E-02  0.1155731E+00
          2   -1    0    0  503    0 -0.00000000000E+00  0.00000000000E+00  0.13136972140E+04  0.13136972140E+04  0.00000000000E+00 0. -1.
         21   -1    0    0  501  502  0.00000000000E+00 -0.00000000000E+00 -0.12244233218E+03  0.12244233218E+03  0.00000000000E+00 0. -1.
         23    2    1    2    0    0 -0.15534464103E+03 -0.44329612131E+02  0.28790093517E+03  0.34258648299E+03  0.91550411489E+02 0.  0.
         24    2    1    2    0    0  0.20542651135E+03  0.13212789992E+03  0.17912195007E+03  0.31367268713E+03  0.81535563726E+02 0.  0.
        -13    1    4    4    0    0  0.43093380169E+02  0.25479366556E+02  0.90826260315E+00  0.50070574946E+02  0.00000000000E+00 0.  1.
         14    1    4    4    0    0  0.16233313118E+03  0.10664853336E+03  0.17821368746E+03  0.26360211218E+03  0.00000000000E+00 0. -1.
        -11    1    3    3    0    0 -0.57236828948E+01 -0.30827090835E+02  0.81331911896E+02  0.87166220337E+02  0.00000000000E+00 0. -1.
         11    1    3    3    0    0 -0.14962095814E+03 -0.13502521296E+02  0.20656902328E+03  0.25542026265E+03  0.00000000000E+00 0.  1.
         21    1    1    2  503  502  0.38770372965E+02  0.85608075875E+02  0.21483808395E+03  0.23449368177E+03  0.00000000000E+00 0. -1.
          1    1    1    2  501    0 -0.88852243284E+02 -0.17340636366E+03  0.50939391263E+03  0.54538669430E+03  0.00000000000E+00 0. -1.
<scales pt_clust_5="13000.00000" pt_clust_6="13000.00000" pt_clust_7="13000.00000" pt_clust_8="13000.00000" pt_clust_9="93.97811" pt_clust_10="149.40277"></scales>
<clustering>
<clus scale="   81.536">  5  6 -1 -1</clus>
<clus scale="   91.550">  7  8 -1 -1</clus>
<clus scale="   93.978">  1  9  2 -1</clus>
<clus scale="  149.403">  2 10  1 -1</clus>
<clus scale="  189.682">  2  5  1 -1</clus>
<clus scale="  149.403">  2  5  1 -1</clus>
</clustering>
</event>
<event>
10    4  0.3738096E-005  0.1013522E+03  0.7546771E-02  0.1281188E+00
         21   -1    0    0  501  502  0.00000000000E+00  0.00000000000E+00  0.67571704961E+02  0.67571704961E+02  0.00000000000E+00 0. -1.
          4   -1    0    0  503    0 -0.00000000000E+00 -0.00000000000E+00 -0.64137059247E+03  0.64137059247E+03  0.00000000000E+00 0. -1.
         24    2    1    2    0    0 -0.70457069077E+00  0.66008086233E+02 -0.36121096604E+03  0.37595700307E+03  0.80701563207E+02 0.  0.
         23    2    1    2    0    0 -0.33529895896E+02 -0.54471728507E+01 -0.10795685402E+03  0.14378982154E+03  0.88695573947E+02 0.  0.
        -11    1    3    3    0    0 -0.32590371586E+02  0.20661946722E+01 -0.10402814345E+03  0.10903327982E+03  0.00000000000E+00 0.  1.
         12    1    3    3    0    0  0.31885800896E+02  0.63941891560E+02 -0.25718282259E+03  0.26692372325E+03  0.00000000000E+00 0. -1.
        -13    1    4    4    0    0  0.83004151207E+01 -0.37624929635E+02 -0.26617765702E+02  0.46829880122E+02  0.00000000000E+00 0.  1.
         13    1    4    4    0    0 -0.41830311016E+02  0.32177756785E+02 -0.81339088318E+02  0.96959941418E+02  0.00000000000E+00 0. -1.
         21    1    1    2  503  502 -0.23681126482E+02  0.56303336851E+01 -0.98018400849E+02  0.10099556086E+03  0.00000000000E+00 0. -1.
          3    1    1    2  501    0  0.57915593068E+02 -0.66191247067E+02 -0.66126665959E+01  0.88199911951E+02  0.00000000000E+00 0. -1.
<scales pt_clust_5="13000.00000" pt_clust_6="13000.00000" pt_clust_7="13000.00000" pt_clust_8="13000.00000" pt_clust_9="24.34125" pt_clust_10="86.22554"></scales>
<clustering>
<clus scale="   24.341">  2  9  1 -1</clus>
<clus scale="   80.702">  5  6 -1 -1</clus>
<clus scale="   86.226">  1 10  2 -1</clus>
<clus scale="   88.696">  7  8 -1 -1</clus>
<clus scale="   94.436">  2  5  1 -1</clus>
<clus scale="   86.226">  1  5  2 -1</clus>
</clustering>
</event>
<event>
10    4  0.3738096E-005  0.1282081E+03  0.7546771E-02  0.1230712E+00
         21   -1    0    0  501  502  0.00000000000E+00  0.00000000000E+00  0.60271930875E+02  0.60271930875E+02  0.00000000000E+00 0.  1.
          2   -1    0    0  503    0 -0.00000000000E+00 -0.00000000000E+00 -0.62262192124E+03  0.62262192124E+03  0.00000000000E+00 0. -1.
         24    2    1    2    0    0 -0.69819039139E+02  0.41436790706E+02 -0.34287655286E+03  0.36309987216E+03  0.87666874090E+02 0.  0.
         23    2    1    2    0    0  0.62029002682E+02 -0.66184035007E+02 -0.62381595543E+02  0.14208687471E+03  0.89829242671E+02 0.  0.
        -13    1    3    3    0    0 -0.31091625094E+02 -0.26240676619E+02 -0.98040892141E+02  0.10614743893E+03  0.00000000000E+00 0.  1.
         14    1    3    3    0    0 -0.38727414044E+02  0.67677467325E+02 -0.24483566072E+03  0.25695243323E+03  0.00000000000E+00 0. -1.
        -11    1    4    4    0    0  0.83312732507E+02 -0.57332150058E+02 -0.62775231730E+02  0.11903241805E+03  0.00000000000E+00 0. -1.
         11    1    4    4    0    0 -0.21283729825E+02 -0.88518849488E+01  0.39363618667E+00  0.23054456660E+02  0.00000000000E+00 0.  1.
         21    1    1    2  503  502 -0.23728905648E+02 -0.37110330502E+01 -0.11654105486E+03  0.11899012647E+03  0.00000000000E+00 0.  1.
          1    1    1    2  501    0  0.31518942105E+02  0.28458277351E+02 -0.40550787093E+02  0.58716978763E+02  0.00000000000E+00 0. -1.
<scales pt_clust_5="13000.00000" pt_clust_6="13000.00000" pt_clust_7="13000.00000" pt_clust_8="13000.00000" pt_clust_9="24.01734" pt_clust_10="40.51011"></scales>
<clustering>
<clus scale="   24.017">  2  9  1 -1</clus>
<clus scale="   40.510">  1 10  2 -1</clus>
<clus scale="   87.667">  5  6 -1 -1</clus>
<clus scale="   89.829">  7  8 -1 -1</clus>
<clus scale="  126.702">  2  5  1 -1</clus>
<clus scale="   40.510">  1  5  2 -1</clus>
</clustering>
</event>
<event>
10    4  0.3738096E-005  0.1795036E+03  0.7546771E-02  0.1169468E+00
          2   -1    0    0  503    0 -0.00000000000E+00  0.00000000000E+00  0.79453840709E+03  0.79453840709E+03  0.00000000000E+00 0. -1.
         21   -1    0    0  501  502  0.00000000000E+00 -0.00000000000E+00 -0.88494775480E+02  0.88494775480E+02  0.00000000000E+00 0.  1.
         24    2    1    2    0    0  0.51121618840E+02 -0.19918196134E+03  0.27618221708E+03  0.35371323681E+03  0.80929371822E+02 0.  0.
         23    2    1    2    0    0  0.23567445598E+02  0.11599868042E+03  0.14914138401E+03  0.21096241829E+03  0.90834306054E+02 0.  0.
        -13    1    3    3    0    0  0.51531651014E+02 -0.18840111203E+03  0.21053511999E+03  0.28718552683E+03  0.00000000000E+00 0.  1.
         14    1    3    3    0    0 -0.41003217366E+00 -0.10780849310E+02  0.65647097094E+02  0.66527709980E+02  0.00000000000E+00 0. -1.
        -11    1    4    4    0    0  0.13075653409E+02  0.23147625712E+02 -0.83250478766E+01  0.27858422611E+02  0.00000000000E+00 0. -1.
         11    1    4    4    0    0  0.10491792188E+02  0.92851054706E+02  0.15746643189E+03  0.18310399568E+03  0.00000000000E+00 0.  1.
         21    1    1    2  503  502  0.71049626060E+01  0.34016720854E+02  0.16374262662E+03  0.16738956229E+03  0.00000000000E+00 0. -1.
          1    1    1    2  501    0 -0.81794027044E+02  0.49166560068E+02  0.11697740390E+03  0.15096796519E+03  0.00000000000E+00 0. -1.
<scales pt_clust_5="13000.00000" pt_clust_6="13000.00000" pt_clust_7="13000.00000" pt_clust_8="13000.00000" pt_clust_9="34.75080" pt_clust_10="98.11896"></scales>
<clustering>
<clus scale="   34.751">  1  9  2 -1</clus>
<clus scale="   80.929">  5  6 -1 -1</clus>
<clus scale="   90.834">  7  8 -1 -1</clus>
<clus scale="   98.119">  2 10  1 -1</clus>
<clus scale="  174.700">  1  5  2 -1</clus>
<clus scale="   98.119">  2  5  1 -1</clus>
</clustering>
</event>
<event>
10    4  0.3738096E-005  0.1199975E+03  0.7546771E-02  0.1245818E+00
          2   -1    0    0  503    0 -0.00000000000E+00  0.00000000000E+00  0.63475211585E+03  0.63475211585E+03  0.00000000000E+00 0. -1.
         21   -1    0    0  501  502  0.00000000000E+00 -0.00000000000E+00 -0.25971641936E+03  0.25971641936E+03  0.00000000000E+00 0. -1.
         24    2    1    2    0    0  0.21096361027E+02 -0.60864831948E+02  0.38966170250E+03  0.40331901074E+03  0.81733700594E+02 0.  0.
         23    2    1    2    0    0 -0.26732395972E+02  0.10603184844E+03 -0.14980884907E+02  0.14267591123E+03  0.90413576715E+02 0.  0.
        -11    1    3    3    0    0  0.27673533213E+02  0.11525237561E+02  0.85869376149E+02  0.90951664644E+02  0.00000000000E+00 0.  1.
         12    1    3    3    0    0 -0.65771721858E+01 -0.72390069509E+02  0.30379232635E+03  0.31236734610E+03  0.00000000000E+00 0. -1.
        -13    1    4    4    0    0  0.92811143362E+01  0.10098430151E+03 -0.25977200110E+02  0.10468420683E+03  0.00000000000E+00 0.  1.
         13    1    4    4    0    0 -0.36013510308E+02  0.50475469278E+01  0.10996315203E+02  0.37991704394E+02  0.00000000000E+00 0. -1.
         21    1    1    2  503  502 -0.21951023901E+02 -0.17389468260E+02  0.17105986512E+03  0.17333700849E+03  0.00000000000E+00 0. -1.
          1    1    1    2  501    0  0.27587058846E+02 -0.27777548228E+02 -0.17070498623E+03  0.17513660475E+03  0.00000000000E+00 0. -1.
<scales pt_clust_5="13000.00000" pt_clust_6="13000.00000" pt_clust_7="13000.00000" pt_clust_8="13000.00000" pt_clust_9="28.00430" pt_clust_10="39.13416"></scales>
<clustering>
<clus scale="   28.004">  1  9  2 -1</clus>
<clus scale="   39.134">  2 10  1 -1</clus>
<clus scale="   81.734">  5  6 -1 -1</clus>
<clus scale="   90.414">  7  8 -1 -1</clus>
<clus scale="  113.601">  1  5  2 -1</clus>
<clus scale="   39.134">  2  5  1 -1</clus>
</clustering>
</event>
<event>
10    4  0.3738096E-005  0.2653571E+03  0.7546771E-02  0.1104532E+00
          2   -1    0    0  502    0 -0.00000000000E+00  0.00000000000E+00  0.73825642417E+03  0.73825642417E+03  0.00000000000E+00 0. -1.
         21   -1    0    0  503  502  0.00000000000E+00 -0.00000000000E+00 -0.24625609689E+03  0.24625609689E+03  0.00000000000E+00 0.  1.
         24    2    1    2    0    0  0.18956001255E+03  0.12516661268E+03  0.18686657946E+03  0.30462385020E+03  0.79226840828E+02 0.  0.
         23    2    1    2    0    0 -0.22218182946E+03 -0.22703665436E+03 -0.87157397366E+01  0.33058267303E+03  0.91096277781E+02 0.  0.
        -11    1    3    3    0    0  0.11841638325E+03  0.38857876005E+02  0.70365628919E+02  0.14312126356E+03  0.00000000000E+00 0.  1.
         12    1    3    3    0    0  0.71143629296E+02  0.86308736673E+02  0.11650095054E+03  0.16150258665E+03  0.00000000000E+00 0. -1.
        -13    1    4    4    0    0 -0.56167220811E+02 -0.80309481659E+02 -0.41837492918E+02  0.10655864747E+03  0.00000000000E+00 0. -1.
         13    1    4    4    0    0 -0.16601460865E+03 -0.14672717270E+03  0.33121753181E+02  0.22402402556E+03  0.00000000000E+00 0.  1.
         21    1    1    2  503  501 -0.11570088125E+02  0.40291990482E+02  0.21152414719E+02  0.46954617288E+02  0.00000000000E+00 0.  1.
          1    1    1    2  501    0  0.44191905043E+02  0.61578051198E+02  0.29269707283E+03  0.30235138053E+03  0.00000000000E+00 0. -1.
<scales pt_clust_5="13000.00000" pt_clust_6="13000.00000" pt_clust_7="13000.00000" pt_clust_8="13000.00000" pt_clust_9="41.92030" pt_clust_10="76.33500"></scales>
<clustering>
<clus scale="   41.920">  2  9  1 -1</clus>
<clus scale="   76.335">  2 10  1 -1</clus>
<clus scale="   79.227">  5  6 -1 -1</clus>
<clus scale="   91.096">  7  8 -1 -1</clus>
<clus scale="  261.520">  1  5  2 -1</clus>
<clus scale="   41.920">  2  5  1 -1</clus>
</clustering>
</event>
<event>
10    4  0.3738096E-005  0.1911755E+03  0.7546771E-02  0.1184556E+00
         21   -1    0    0  503  502  0.00000000000E+00  0.00000000000E+00  0.14617016163E+03  0.14617016163E+03  0.00000000000E+00 0.  1.
         -3   -1    0    0    0  501 -0.00000000000E+00 -0.00000000000E+00 -0.76707235972E+03  0.76707235972E+03  0.00000000000E+00 0.  1.
         23    2    1    2    0    0 -0.67898481719E+01  0.59582628560E+02 -0.43807431753E+03  0.45153886711E+03  0.91553531685E+02 0.  0.
         24    2    1    2    0    0  0.72266184900E+02  0.14239621809E+03 -0.21465358485E+02  0.18011155888E+03  0.80500482119E+02 0.  0.
        -11    1    4    4    0    0  0.46209297706E+01  0.89667766994E+02  0.61770951225E+01  0.89998988516E+02  0.00000000000E+00 0.  1.
         12    1    4    4    0    0  0.67645255129E+02  0.52728451096E+02 -0.27642453608E+02  0.90112570366E+02  0.00000000000E+00 0. -1.
        -11    1    3    3    0    0  0.40678694457E+02  0.38100063848E+02 -0.18767329711E+03  0.19577445568E+03  0.00000000000E+00 0.  1.
         11    1    3    3    0    0 -0.47468542628E+02  0.21482564712E+02 -0.25040102042E+03  0.25576441143E+03  0.00000000000E+00 0. -1.
         21    1    1    2  503  501  0.96434678759E+01 -0.20436436006E+02 -0.52085811282E+02  0.56776545564E+02  0.00000000000E+00 0.  1.
         -4    1    1    2    0  502 -0.75119804604E+02 -0.18154241064E+03 -0.10927671079E+03  0.22481554979E+03  0.00000000000E+00 0.  1.
<scales pt_clust_5="13000.00000" pt_clust_6="13000.00000" pt_clust_7="13000.00000" pt_clust_8="13000.00000" pt_clust_9="22.59744" pt_clust_10="173.40060"></scales>
<clustering>
<clus scale="   22.597">  2  9  1 -1</clus>
<clus scale="   80.500">  5  6 -1 -1</clus>
<clus scale="   91.554">  7  8 -1 -1</clus>
<clus scale="  102.837">  2  7  1 -1</clus>
<clus scale="  173.401">  1 10  2 -1</clus>
<clus scale="  173.401">  1  5  2 -1</clus>
</clustering>
</event>
<event>
10    4  0.3738096E-005  0.1445265E+03  0.7546771E-02  0.1233709E+00
         -1   -1    0    0    0  501 -0.00000000000E+00  0.00000000000E+00  0.28661321212E+02  0.28661321212E+02  0.00000000000E+00 0.  1.
         21   -1    0    0  503  502  0.00000000000E+00 -0.00000000000E+00 -0.15268233099E+04  0.15268233099E+04  0.00000000000E+00 0. -1.
         24    2    1    2    0    0  0.25056385643E+02 -0.48081133569E+01 -0.33091966258E+03  0.34154275153E+03  0.80577215311E+02 0.  0.
         23    2    1    2    0    0  0.10577180636E+03 -0.52953044771E+02 -0.83691457756E+03  0.85001061670E+03  0.90001879990E+02 0.  0.
        -11    1    3    3    0    0 -0.23985346351E+02  0.13386046646E+02 -0.65643313633E+02  0.71158468991E+02  0.00000000000E+00 0.  1.
         12    1    3    3    0    0  0.49041731995E+02 -0.18194160003E+02 -0.26527634895E+03  0.27038428254E+03  0.00000000000E+00 0. -1.
        -13    1    4    4    0    0  0.64665240746E+02  0.17384740251E+02 -0.39981377641E+03  0.40538238537E+03  0.00000000000E+00 0.  1.
         13    1    4    4    0    0  0.41106565614E+02 -0.70337785022E+02 -0.43710080114E+03  0.44462823133E+03  0.00000000000E+00 0. -1.
         21    1    1    2  503  501 -0.22030728161E+02 -0.20263351795E+01 -0.98530415534E+02  0.10098367097E+03  0.00000000000E+00 0. -1.
         -2    1    1    2    0  502 -0.10879746384E+03  0.59787493307E+02 -0.23179733298E+03  0.26294759187E+03  0.00000000000E+00 0.  1.
<scales pt_clust_5="13000.00000" pt_clust_6="13000.00000" pt_clust_7="13000.00000" pt_clust_8="13000.00000" pt_clust_9="22.12372" pt_clust_10="113.08222"></scales>
<clustering>
<clus scale="   22.124">  2  9  1 -1</clus>
<clus scale="   80.577">  5  6 -1 -1</clus>
<clus scale="   83.158">  1  5  2 -1</clus>
<clus scale="   90.002">  7  8 -1 -1</clus>
<clus scale="  113.082">  2 10  1 -1</clus>
<clus scale="   22.124">  2  5  1 -1</clus>
</clustering>
</event>
<event>
10    4  0.3738096E-005  0.3227433E+03  0.7546771E-02  0.1115868E+00
          2   -1    0    0  503    0 -0.00000000000E+00  0.00000000000E+00  0.19897656660E+04  0.19897656660E+04  0.00000000000E+00 0. -1.
         21   -1    0    0  501  502  0.00000000000E+00 -0.00000000000E+00 -0.15075259714E+03  0.15075259714E+03  0.00000000000E+00 0. -1.
         23    2    1    2    0    0 -0.23713688544E+02 -0.55509057807E+02  0.13447063574E+03  0.17304268360E+03  0.90652214261E+02 0.  0.
         24    2    1    2    0    0  0.11873374872E+03  0.95779462630E+02  0.86803645248E+03  0.88504938751E+03  0.80955092162E+02 0.  0.
        -13    1    4    4    0    0  0.19044042711E+02  0.53893207242E+02  0.18890025853E+03  0.19735871154E+03  0.00000000000E+00 0.  1.
         14    1    4    4    0    0  0.99689706009E+02  0.41886255388E+02  0.67913619395E+03  0.68769067596E+03  0.00000000000E+00 0. -1.
        -11    1    3    3    0    0  0.10783821977E+02 -0.68694344977E+02  0.10429932590E+03  0.12535371248E+03  0.00000000000E+00 0. -1.
         11    1    3    3    0    0 -0.34497510522E+02  0.13185287170E+02  0.30171309834E+02  0.47688971126E+02  0.00000000000E+00 0.  1.
         21    1    1    2  503  502  0.12997110427E+03  0.23283576088E+03  0.60064468536E+03  0.65717502808E+03  0.00000000000E+00 0. -1.
          1    1    1    2  501    0 -0.22499116444E+03 -0.27310616570E+03  0.23586129530E+03  0.42525116395E+03  0.00000000000E+00 0. -1.
<scales pt_clust_5="13000.00000" pt_clust_6="13000.00000" pt_clust_7="13000.00000" pt_clust_8="13000.00000" pt_clust_9="322.74325" pt_clust_10="13000.00000"></scales>
<clustering>
<clus scale="   80.955">  5  6 -1 -1</clus>
<clus scale="   90.652">  7  8 -1 -1</clus>
<clus scale="  108.910">  1  7  2 -1</clus>
<clus scale="  151.297">  1  5  2 -1</clus>
<clus scale="  322.743">  1  9  2 -1</clus>
<clus scale="  322.743">  2  5  1 -1</clus>
</clustering>
</event>
<event>
10    4  0.3738096E-005  0.1842124E+03  0.7546771E-02  0.1183833E+00
         21   -1    0    0  501  502  0.00000000000E+00  0.00000000000E+00  0.28982596065E+03  0.28982596065E+03  0.00000000000E+00 0. -1.
          2   -1    0    0  503    0 -0.00000000000E+00 -0.00000000000E+00 -0.11374751073E+04  0.11374751073E+04  0.00000000000E+00 0. -1.
         24    2    1    2    0    0 -0.75253611514E+02 -0.31063789768E+02 -0.69698727975E+03  0.70653902049E+03  0.82328939442E+02 0.  0.
         23    2    1    2    0    0  0.17000004451E+03  0.14168377804E+03 -0.26591831740E+03  0.35771472515E+03  0.90955840762E+02 0.  0.
        -13    1    3    3    0    0 -0.44437307429E+01 -0.37269483625E+02 -0.13663817367E+03  0.14169951184E+03  0.00000000000E+00 0.  1.
         14    1    3    3    0    0 -0.70809880771E+02  0.62056938573E+01 -0.56034910608E+03  0.56483950865E+03  0.00000000000E+00 0. -1.
        -13    1    4    4    0    0 -0.89801642522E+00  0.28418748766E+02 -0.63633681325E+02  0.69697038057E+02  0.00000000000E+00 0. -1.
         13    1    4    4    0    0  0.17089806093E+03  0.11326502927E+03 -0.20228463607E+03  0.28801768709E+03  0.00000000000E+00 0.  1.
         21    1    1    2  503  502 -0.62629958864E+02 -0.11880844526E+03 -0.85737571427E+02  0.15933891417E+03  0.00000000000E+00 0. -1.
          1    1    1    2  501    0 -0.32116474130E+02  0.81884569926E+01  0.20099402187E+03  0.20370840819E+03  0.00000000000E+00 0. -1.
<scales pt_clust_5="13000.00000" pt_clust_6="13000.00000" pt_clust_7="13000.00000" pt_clust_8="13000.00000" pt_clust_9="160.19122" pt_clust_10="33.14391"></scales>
<clustering>
<clus scale="   33.144">  1 10  2 -1</clus>
<clus scale="   82.329">  5  6 -1 -1</clus>
<clus scale="   90.956">  7  8 -1 -1</clus>
<clus scale="  116.814">  2  5  1 -1</clus>
<clus scale="  160.191">  1  9  2 -1</clus>
<clus scale="   33.144">  1  5  2 -1</clus>
</clustering>
</event>
<event>
10    4  0.3738096E-005  0.1057443E+03  0.7546771E-02  0.1273504E+00
          2   -1    0    0  503    0 -0.00000000000E+00  0.00000000000E+00  0.66002377061E+03  0.66002377061E+03  0.00000000000E+00 0. -1.
         21   -1    0    0  501  502  0.00000000000E+00 -0.00000000000E+00 -0.61995235462E+02  0.61995235462E+02  0.00000000000E+00 0. -1.
         24    2    1    2    0    0  0.79060972410E+02 -0.71857194191E+01  0.40287876027E+03  0.41857595358E+03  0.81192743027E+02 0.  0.
         23    2    1    2    0    0 -0.41095554782E+01 -0.28491762967E+02  0.58602862720E+02  0.11297226086E+03  0.92194182041E+02 0.  0.
        -11    1    3    3    0    0  0.30951165712E+02  0.20845535422E+02  0.56242230491E+02  0.67495922074E+02  0.00000000000E+00 0.  1.
         12    1    3    3    0    0  0.48109806698E+02 -0.28031254841E+02  0.34663652977E+03  0.35108003151E+03  0.00000000000E+00 0. -1.
        -11    1    4    4    0    0 -0.38038948347E+00 -0.52260813570E+02  0.29547680208E+01  0.52345658705E+02  0.00000000000E+00 0. -1.
         11    1    4    4    0    0 -0.37291659947E+01  0.23769050603E+02  0.55648094699E+02  0.60626602158E+02  0.00000000000E+00 0.  1.
         21    1    1    2  503  502 -0.21610018098E+02  0.25670485667E+02  0.13178548837E+03  0.13599037341E+03  0.00000000000E+00 0. -1.
          1    1    1    2  501    0 -0.53341398834E+02  0.10006996719E+02  0.47614237994E+01  0.54480418221E+02  0.00000000000E+00 0. -1.
<scales pt_clust_5="13000.00000" pt_clust_6="13000.00000" pt_clust_7="13000.00000" pt_clust_8="13000.00000" pt_clust_9="33.55543" pt_clust_10="55.74703"></scales>
<clustering>
<clus scale="   33.555">  1  9  2 -1</clus>
<clus scale="   55.747">  2 10  1 -1</clus>
<clus scale="   81.193">  5  6 -1 -1</clus>
<clus scale="   92.194">  7  8 -1 -1</clus>
<clus scale="   96.303">  1  5  2 -1</clus>
<clus scale="   55.747">  2  5  1 -1</clus>
</clustering>
</event>
<event>
10    4  0.3738096E-005  0.1605286E+03  0.7546771E-02  0.1208242E+00
         21   -1    0    0  503  502  0.00000000000E+00  0.00000000000E+00  0.86040597324E+03  0.86040597324E+03  0.00000000000E+00 0.  1.
         -3   -1    0    0    0  501 -0.00000000000E+00 -0.00000000000E+00 -0.15342957792E+03  0.15342957792E+03  0.00000000000E+00 0.  1.
         24    2    1    2    0    0  0.44174463399E+02  0.39201024294E+02  0.94104971398E+02  0.14081998986E+03  0.86524102879E+02 0.  0.
         23    2    1    2    0    0 -0.77866503719E+02 -0.16512846351E+03 -0.10411129606E+02  0.20427461840E+03  0.91044638715E+02 0.  0.
        -11    1    3    3    0    0 -0.27851769078E+01  0.39727730480E+02  0.50542364400E+01  0.40144676926E+02  0.00000000000E+00 0.  1.
         12    1    3    3    0    0  0.46959640307E+02 -0.52670618560E+00  0.89050734958E+02  0.10067531293E+03  0.00000000000E+00 0. -1.
        -11    1    4    4    0    0 -0.41240032011E+02 -0.74309590314E+01  0.15994300862E+01  0.41934682174E+02  0.00000000000E+00 0. -1.
         11    1    4    4    0    0 -0.36626471708E+02 -0.15769750448E+03 -0.12010559692E+02  0.16233993622E+03  0.00000000000E+00 0.  1.
         21    1    1    2  503  501 -0.34891369711E+02  0.16496246831E+02  0.71907592590E+01  0.39258640559E+02  0.00000000000E+00 0.  1.
         -4    1    1    2    0  502  0.68583410032E+02  0.10943119239E+03  0.61609179427E+03  0.62948230235E+03  0.00000000000E+00 0.  1.
<scales pt_clust_5="13000.00000" pt_clust_6="13000.00000" pt_clust_7="13000.00000" pt_clust_8="13000.00000" pt_clust_9="38.59448" pt_clust_10="132.21310"></scales>
<clustering>
<clus scale="   38.594">  2  9  1 -1</clus>
<clus scale="   86.524">  5  6 -1 -1</clus>
<clus scale="   91.045">  7  8 -1 -1</clus>
<clus scale="  103.506">  2  5  1 -1</clus>
<clus scale="  132.213">  1 10  2 -1</clus>
<clus scale="  132.213">  1  5  2 -1</clus>
</clustering>
</event>
<event>
10    4  0.3738096E-005  0.9471649E+02  0.7546771E-02  0.1296829E+00
         21   -1    0    0  501  502  0.00000000000E+00  0.00000000000E+00  0.37933760774E+02  0.37933760774E+02  0.00000000000E+00 0. -1.
          2   -1    0    0  503    0 -0.00000000000E+00 -0.00000000000E+00 -0.88645058909E+03  0.88645058909E+03  0.00000000000E+00 0. -1.
         24    2    1    2    0    0  0.35523292831E+02  0.11569237513E+02 -0.26176866703E+03  0.27662400015E+03  0.81254235772E+02 0.  0.
         23    2    1    2    0    0 -0.39697642063E+02 -0.34331873619E+02 -0.16332978090E+03  0.19380401693E+03  0.90159854250E+02 0.  0.
        -11    1    3    3    0    0  0.42706951604E+02 -0.25115735662E+02 -0.11598154762E+03  0.12612059023E+03  0.00000000000E+00 0.  1.
         12    1    3    3    0    0 -0.71836587737E+01  0.36684973175E+02 -0.14578711941E+03  0.15050340992E+03  0.00000000000E+00 0. -1.
        -11    1    4    4    0    0 -0.14875737779E+02 -0.51629358837E+02 -0.40448145479E+02  0.67252737796E+02  0.00000000000E+00 0. -1.
         11    1    4    4    0    0 -0.24821904284E+02  0.17297485218E+02 -0.12288163542E+03  0.12655127913E+03  0.00000000000E+00 0.  1.
         21    1    1    2  503  502 -0.69524535227E+02  0.12903892688E+01 -0.30505671453E+03  0.31288164725E+03  0.00000000000E+00 0. -1.
          1    1    1    2  501    0  0.73698884460E+02  0.21472246837E+02 -0.11836166586E+03  0.14107468554E+03  0.00000000000E+00 0. -1.
<scales pt_clust_5="13000.00000" pt_clust_6="13000.00000" pt_clust_7="13000.00000" pt_clust_8="13000.00000" pt_clust_9="69.53651" pt_clust_10="62.02484"></scales>
<clustering>
<clus scale="   69.537">  2  9  1 -1</clus>
<clus scale="   62.025">  1 10  2 -1</clus>
<clus scale="   81.254">  5  6 -1 -1</clus>
<clus scale="   86.282">  2  5  1 -1</clus>
<clus scale="   90.160">  7  8 -1 -1</clus>
<clus scale="   62.025">  1  5  2 -1</clus>
</clustering>
</event>
<event>
10    4  0.3738096E-005  0.1508062E+03  0.7546771E-02  0.1200793E+00
          2   -1    0    0  503    0 -0.00000000000E+00  0.00000000000E+00  0.54365388998E+03  0.54365388998E+03  0.00000000000E+00 0. -1.
         21   -1    0    0  501  502  0.00000000000E+00 -0.00000000000E+00 -0.19216578973E+03  0.19216578973E+03  0.00000000000E+00 0.  1.
         23    2    1    2    0    0  0.77422808208E+02 -0.72168465607E+02  0.38675683822E+03  0.41061342177E+03  0.88430490013E+02 0.  0.
         24    2    1    2    0    0 -0.12820949940E+03  0.68736869993E+02 -0.83291630971E+02  0.18618580290E+03  0.81026072210E+02 0.  0.
        -13    1    4    4    0    0 -0.84637337419E+02  0.97326003360E+01 -0.72854754099E+02  0.11209824972E+03  0.00000000000E+00 0.  1.
         14    1    4    4    0    0 -0.43572161981E+02  0.59004269657E+02 -0.10436876872E+02  0.74087553181E+02  0.00000000000E+00 0. -1.
        -13    1    3    3    0    0  0.67425894993E+00 -0.60247610658E+02  0.17004910365E+03  0.18040766854E+03  0.00000000000E+00 0.  1.
         13    1    3    3    0    0  0.76748549258E+02 -0.11920854949E+02  0.21670773458E+03  0.23020575323E+03  0.00000000000E+00 0. -1.
         21    1    1    2  503  502  0.25274269814E+02  0.67133826689E+01  0.87821831992E+02  0.91632594615E+02  0.00000000000E+00 0. -1.
          1    1    1    2  501    0  0.25512421379E+02 -0.32817870552E+01 -0.39798938997E+02  0.47387860430E+02  0.00000000000E+00 0. -1.
<scales pt_clust_5="13000.00000" pt_clust_6="13000.00000" pt_clust_7="13000.00000" pt_clust_8="13000.00000" pt_clust_9="26.45639" pt_clust_10="25.72263"></scales>
<clustering>
<clus scale="   25.723">  2 10  1 -1</clus>
<clus scale="   26.456">  1  9  2 -1</clus>
<clus scale="   81.026">  5  6 -1 -1</clus>
<clus scale="   88.430">  7  8 -1 -1</clus>
<clus scale="  146.587">  2  5  1 -1</clus>
<clus scale="   25.723">  2  5  1 -1</clus>
</clustering>
</event>
<event>
10    4  0.3738096E-005  0.1242392E+03  0.7546771E-02  0.1241676E+00
          2   -1    0    0  503    0 -0.00000000000E+00  0.00000000000E+00  0.56032968718E+03  0.56032968718E+03  0.00000000000E+00 0. -1.
         21   -1    0    0  501  502  0.00000000000E+00 -0.00000000000E+00 -0.23314313067E+03  0.23314313067E+03  0.00000000000E+00 0. -1.
         24    2    1    2    0    0  0.69460993534E+02  0.50967823276E+02  0.39964535367E+03  0.41629125261E+03  0.78482161444E+02 0.  0.
         23    2    1    2    0    0 -0.43882889573E+02 -0.19722913649E+02  0.42794521703E+02  0.11557134361E+03  0.95972199388E+02 0.  0.
        -11    1    3    3    0    0  0.72141831374E+02  0.37934892589E+02  0.19681569511E+03  0.21302562698E+03  0.00000000000E+00 0.  1.
         12    1    3    3    0    0 -0.26808378399E+01  0.13032930687E+02  0.20282965856E+03  0.20326562563E+03  0.00000000000E+00 0. -1.
        -11    1    4    4    0    0  0.51007830125E+01 -0.49527708086E+02  0.16142095350E+02  0.52340988698E+02  0.00000000000E+00 0. -1.
         11    1    4    4    0    0 -0.48983672585E+02  0.29804794437E+02  0.26652426353E+02  0.63230354909E+02  0.00000000000E+00 0.  1.
         21    1    1    2  503  502 -0.19595234039E+02 -0.68917629997E+02  0.52978226525E+02  0.89108391340E+02  0.00000000000E+00 0. -1.
          1    1    1    2  501    0 -0.59828699219E+01  0.37672720370E+02 -0.16823154538E+03  0.17250183029E+03  0.00000000000E+00 0. -1.
<scales pt_clust_5="13000.00000" pt_clust_6="13000.00000" pt_clust_7="13000.00000" pt_clust_8="13000.00000" pt_clust_9="61.86520" pt_clust_10="38.14484"></scales>
<clustering>
<clus scale="   38.145">  2 10  1 -1</clus>
<clus scale="   61.865">  2  9  1 -1</clus>
<clus scale="   78.482">  5  6 -1 -1</clus>
<clus scale="   95.972">  7  8 -1 -1</clus>
<clus scale="  111.284">  1  5  2 -1</clus>
<clus scale="   38.145">  2  5  1 -1</clus>
</clustering>
</event>
<event>
10    4  0.3738096E-005  0.1004972E+03  0.7546771E-02  0.1285930E+00
         21   -1    0    0  503  502  0.00000000000E+00  0.00000000000E+00  0.65002748009E+03  0.65002748009E+03  0.00000000000E+00 0.  1.
         -1   -1    0    0    0  501 -0.00000000000E+00 -0.00000000000E+00 -0.10071189230E+03  0.10071189230E+03  0.00000000000E+00 0.  1.
         23    2    1    2    0    0  0.19706377562E+02 -0.26331837876E+02  0.11579657867E+03  0.15145915233E+03  0.91920183804E+02 0.  0.
         24    2    1    2    0    0 -0.13722484173E+02  0.35423599341E+02  0.45713735682E+03  0.46541267196E+03  0.78684523603E+02 0.  0.
        -13    1    4    4    0    0 -0.20153796510E+02  0.14078150227E+02  0.35470977131E+02  0.43157386925E+02  0.00000000000E+00 0.  1.
         14    1    4    4    0    0  0.64313123372E+01  0.21345449113E+02  0.42166637969E+03  0.42225528503E+03  0.00000000000E+00 0. -1.
        -13    1    3    3    0    0  0.30295155780E+02 -0.10072497349E+01  0.11992927914E+03  0.12370061847E+03  0.00000000000E+00 0.  1.
         13    1    3    3    0    0 -0.10588778218E+02 -0.25324588141E+02 -0.41327004707E+01  0.27758533857E+02  0.00000000000E+00 0. -1.
         21    1    1    2  503  501 -0.30555403950E+02 -0.58876941673E+02  0.12681838339E+02  0.67534850226E+02  0.00000000000E+00 0. -1.
         -2    1    1    2    0  502  0.24571510561E+02  0.49785180209E+02 -0.36300186044E+02  0.66332697868E+02  0.00000000000E+00 0.  1.
<scales pt_clust_5="13000.00000" pt_clust_6="13000.00000" pt_clust_7="13000.00000" pt_clust_8="13000.00000" pt_clust_9="62.82756" pt_clust_10="55.51870"></scales>
<clustering>
<clus scale="   55.519">  1 10  2 -1</clus>
<clus scale="   62.828">  2  9  1 -1</clus>
<clus scale="   78.685">  5  6 -1 -1</clus>
<clus scale="   88.553">  1  5  2 -1</clus>
<clus scale="   91.920">  7  8 -1 -1</clus>
<clus scale="   55.519">  1  5  2 -1</clus>
</clustering>
</event>
<event>
10    4  0.3738096E-005  0.1579441E+03  0.7546771E-02  0.1192175E+00
         21   -1    0    0  501  502  0.00000000000E+00  0.00000000000E+00  0.44042751656E+02  0.44042751656E+02  0.00000000000E+00 0. -1.
          2   -1    0    0  503    0 -0.00000000000E+00 -0.00000000000E+00 -0.17063662561E+04  0.17063662561E+04  0.00000000000E+00 0. -1.
         24    2    1    2    0    0  0.71202001656E+02 -0.94570744290E+02 -0.12169185466E+04  0.12255174638E+04  0.83599966561E+02 0.  0.
         23    2    1    2    0    0 -0.49070742578E+02  0.72470447582E+02 -0.84461607026E+02  0.15166473210E+03  0.90600907012E+02 0.  0.
        -13    1    3    3    0    0  0.42493339451E+02 -0.60979816372E+02 -0.36697462516E+03  0.37442569010E+03  0.00000000000E+00 0.  1.
         14    1    3    3    0    0  0.28708662205E+02 -0.33590927918E+02 -0.84994392142E+03  0.85109177371E+03  0.00000000000E+00 0. -1.
        -13    1    4    4    0    0 -0.18632674161E+02  0.20246588227E+02 -0.86916811285E+02  0.91168157627E+02  0.00000000000E+00 0.  1.
         13    1    4    4    0    0 -0.30438068417E+02  0.52223859355E+02  0.24552042587E+01  0.60496574471E+02  0.00000000000E+00 0. -1.
         21    1    1    2  503  502  0.31814773233E+02 -0.60242308475E+01 -0.16137533616E+03  0.16459182930E+03  0.00000000000E+00 0.  1.
          1    1    1    2  501    0 -0.53946032311E+02  0.28124527556E+02 -0.19956801465E+03  0.20863498250E+03  0.00000000000E+00 0. -1.
<scales pt_clust_5="13000.00000" pt_clust_6="13000.00000" pt_clust_7="13000.00000" pt_clust_8="13000.00000" pt_clust_9="32.38010" pt_clust_10="56.75173"></scales>
<clustering>
<clus scale="   32.380">  2  9  1 -1</clus>
<clus scale="   56.752">  1 10  2 -1</clus>
<clus scale="   83.600">  5  6 -1 -1</clus>
<clus scale="   90.601">  7  8 -1 -1</clus>
<clus scale="  154.035">  2  5  1 -1</clus>
<clus scale="   56.752">  1  5  2 -1</clus>
</clustering>
</event>
<event>
10    4  0.3738096E-005  0.1528658E+03  0.7546771E-02  0.1199013E+00
         -1   -1    0    0    0  501 -0.00000000000E+00  0.00000000000E+00  0.44791449280E+03  0.44791449280E+03  0.00000000000E+00 0.  1.
         21   -1    0    0  503  502  0.00000000000E+00 -0.00000000000E+00 -0.21611365706E+03  0.21611365706E+03  0.00000000000E+00 0.  1.
         23    2    1    2    0    0 -0.88705531354E+02  0.15567020759E+03  0.25847168381E+03  0.32768464228E+03  0.92020262070E+02 0.  0.
         24    2    1    2    0    0  0.13819066345E+00 -0.69959016582E+02 -0.11408472993E+03  0.15623612572E+03  0.80623311005E+02 0.  0.
        -13    1    4    4    0    0 -0.38089672512E+02 -0.31144475763E+02 -0.35743350140E+02  0.60814378250E+02  0.00000000000E+00 0.  1.
         14    1    4    4    0    0  0.38227863176E+02 -0.38814540819E+02 -0.78341379792E+02  0.95421747467E+02  0.00000000000E+00 0. -1.
        -13    1    3    3    0    0 -0.71904664637E+02  0.10652123568E+03  0.10594820413E+03  0.16655952811E+03  0.00000000000E+00 0.  1.
         13    1    3    3    0    0 -0.16800866717E+02  0.49148971912E+02  0.15252347967E+03  0.16112511416E+03  0.00000000000E+00 0. -1.
         21    1    1    2  503  501  0.16859776960E+02 -0.52601546538E+02  0.84648055714E+02  0.10107654581E+03  0.00000000000E+00 0.  1.
         -2    1    1    2    0  502  0.71707563730E+02 -0.33109644467E+02  0.27658261477E+01  0.79030836052E+02  0.00000000000E+00 0.  1.
<scales pt_clust_5="13000.00000" pt_clust_6="13000.00000" pt_clust_7="13000.00000" pt_clust_8="13000.00000" pt_clust_9="55.23744" pt_clust_10="83.41740"></scales>
<clustering>
<clus scale="   55.237">  1  9  2 -1</clus>
<clus scale="   80.623">  5  6 -1 -1</clus>
<clus scale="   83.417">  2 10  1 -1</clus>
<clus scale="   92.020">  7  8 -1 -1</clus>
<clus scale="  146.289">  2  5  1 -1</clus>
<clus scale="   83.417">  2  5  1 -1</clus>
</clustering>
</event>
<event>
10    4  0.3738096E-005  0.2312789E+03  0.7546771E-02  0.1143236E+00
         -1   -1    0    0    0  501 -0.00000000000E+00  0.00000000000E+00  0.16679950153E+03  0.16679950153E+03  0.00000000000E+00 0.  1.
         21   -1    0    0  503  502  0.00000000000E+00 -0.00000000000E+00 -0.14464085562E+04  0.14464085562E+04  0.00000000000E+00 0.  1.
         23    2    1    2    0    0 -0.27099851177E+02 -0.12526593977E+03 -0.49786237736E+03  0.52181883583E+03  0.89453859821E+02 0.  0.
         24    2    1    2    0    0  0.20424510587E+03  0.36166111308E+02 -0.31257491203E+03  0.38375472318E+03  0.80873735251E+02 0.  0.
        -13    1    4    4    0    0  0.18222951967E+03  0.70453021112E+01 -0.23042561145E+03  0.29385914403E+03  0.00000000000E+00 0.  1.
         14    1    4    4    0    0  0.22015586200E+02  0.29120809197E+02 -0.82149300579E+02  0.89895579144E+02  0.00000000000E+00 0. -1.
        -11    1    3    3    0    0 -0.45646434302E+02 -0.95999918108E+02 -0.45204852763E+03  0.46437856602E+03  0.00000000000E+00 0.  1.
         11    1    3    3    0    0  0.18546583125E+02 -0.29266021662E+02 -0.45813849732E+02  0.57440269818E+02  0.00000000000E+00 0. -1.
         21    1    1    2  503  501  0.45734288618E+02  0.30159599547E+02  0.88558912244E+02  0.10413408442E+03  0.00000000000E+00 0.  1.
         -2    1    1    2    0  502 -0.22287954331E+03  0.58940228915E+02 -0.55773067756E+03  0.60350041433E+03  0.00000000000E+00 0.  1.
<scales pt_clust_5="13000.00000" pt_clust_6="13000.00000" pt_clust_7="13000.00000" pt_clust_8="13000.00000" pt_clust_9="54.78345" pt_clust_10="216.67799"></scales>
<clustering>
<clus scale="   54.783">  1  9  2 -1</clus>
<clus scale="   80.874">  5  6 -1 -1</clus>
<clus scale="   89.454">  7  8 -1 -1</clus>
<clus scale="  151.025">  1  7  2 -1</clus>
<clus scale="  216.678">  2 10  1 -1</clus>
<clus scale="  216.678">  2  5  1 -1</clus>
</clustering>
</event>
<event>
10    4  0.3738096E-005  0.1128719E+03  0.7546771E-02  0.1260203E+00
         21   -1    0    0  501  502  0.00000000000E+00  0.00000000000E+00  0.21947194641E+03  0.21947194641E+03  0.00000000000E+00 0.  1.
          2   -1    0    0  503    0 -0.00000000000E+00 -0.00000000000E+00 -0.32308201907E+03  0.32308201907E+03  0.00000000000E+00 0. -1.
         23    2    1    2    0    0  0.12469055999E+03 -0.11212653702E+02 -0.14462438739E+03  0.20304447019E+03  0.68098341339E+02 0.  0.
         24    2    1    2    0    0 -0.67558862817E+02 -0.50606580986E+02  0.91520369728E+02  0.14953816004E+03  0.82827877247E+02 0.  0.
        -13    1    4    4    0    0 -0.11303849780E+02 -0.26992023874E+02  0.82910437758E+02  0.87923188420E+02  0.00000000000E+00 0.  1.
         14    1    4    4    0    0 -0.56255013037E+02 -0.23614557112E+02  0.86099319696E+01  0.61614971621E+02  0.00000000000E+00 0. -1.
        -13    1    3    3    0    0  0.80603097374E+02 -0.25256844669E+02 -0.12902594715E+03  0.15421563652E+03  0.00000000000E+00 0. -1.
         13    1    3    3    0    0  0.44087462614E+02  0.14044190967E+02 -0.15598440240E+02  0.48828833670E+02  0.00000000000E+00 0.  1.
         21    1    1    2  503  502 -0.63422263406E+02 -0.13933913790E+02 -0.84611713586E+02  0.10665683065E+03  0.00000000000E+00 0.  1.
          1    1    1    2  501    0  0.62905662355E+01  0.75753148478E+02  0.34105658593E+02  0.83314504595E+02  0.00000000000E+00 0. -1.
<scales pt_clust_5="13000.00000" pt_clust_6="13000.00000" pt_clust_7="13000.00000" pt_clust_8="13000.00000" pt_clust_9="64.93487" pt_clust_10="74.24802"></scales>
<clustering>
<clus scale="   64.935">  2  9  1 -1</clus>
<clus scale="   68.098">  7  8 -1 -1</clus>
<clus scale="   74.248">  1 10  2 -1</clus>
<clus scale="   82.828">  5  6 -1 -1</clus>
<clus scale="  102.552">  2  7  1 -1</clus>
<clus scale="   74.248">  1  5  2 -1</clus>
</clustering>
</event>
<event>
10    4  0.3738096E-005  0.2254771E+03  0.7546771E-02  0.1158168E+00
         21   -1    0    0  501  502  0.00000000000E+00  0.00000000000E+00  0.12063010905E+03  0.12063010905E+03  0.00000000000E+00 0. -1.
          2   -1    0    0  503    0 -0.00000000000E+00 -0.00000000000E+00 -0.13374099161E+04  0.13374099161E+04  0.00000000000E+00 0. -1.
         24    2    1    2    0    0  0.94676642941E+02  0.59371437752E+02 -0.42028927413E+03  0.44230542280E+03  0.80637328512E+02 0.  0.
         23    2    1    2    0    0 -0.17673401238E+03 -0.14738096228E+03 -0.42456286216E+03  0.49306673037E+03  0.99524456802E+02 0.  0.
        -11    1    3    3    0    0  0.93727082550E+02  0.76295043236E+02 -0.36963719039E+03  0.38889246861E+03  0.00000000000E+00 0.  1.
         12    1    3    3    0    0  0.94956039156E+00 -0.16923605484E+02 -0.50652083744E+02  0.53412954189E+02  0.00000000000E+00 0. -1.
        -11    1    4    4    0    0 -0.70947813655E+02 -0.51274914924E+02 -0.26386657204E+03  0.27800769235E+03  0.00000000000E+00 0.  1.
         11    1    4    4    0    0 -0.10578619873E+03 -0.96106047359E+02 -0.16069629012E+03  0.21505903803E+03  0.00000000000E+00 0. -1.
         21    1    1    2  503  502 -0.90575653515E+02 -0.28240964616E+01 -0.30222315358E+03  0.31551665422E+03  0.00000000000E+00 0. -1.
          1    1    1    2  501    0  0.17263302295E+03  0.90833620993E+02 -0.69704517229E+02  0.20715121781E+03  0.00000000000E+00 0. -1.
<scales pt_clust_5="13000.00000" pt_clust_6="13000.00000" pt_clust_7="13000.00000" pt_clust_8="13000.00000" pt_clust_9="90.61967" pt_clust_10="202.32346"></scales>
<clustering>
<clus scale="   80.637">  5  6 -1 -1</clus>
<clus scale="   90.620">  2  9  1 -1</clus>
<clus scale="   99.524">  7  8 -1 -1</clus>
<clus scale="  114.466">  2  5  1 -1</clus>
<clus scale="  202.323">  1 10  2 -1</clus>
<clus scale="  202.323">  1  5  2 -1</clus>
</clustering>
</event>
<event>
10    4  0.3738096E-005  0.2471008E+03  0.7546771E-02  0.1115898E+00
          2   -1    0    0  503    0 -0.00000000000E+00  0.00000000000E+00  0.18389794323E+04  0.18389794323E+04  0.00000000000E+00 0. -1.
         21   -1    0    0  501  502  0.00000000000E+00 -0.00000000000E+00 -0.87007390184E+02  0.87007390184E+02  0.00000000000E+00 0. -1.
         24    2    1    2    0    0  0.32428593828E+03  0.50461373030E+02  0.60244399988E+03  0.69071789061E+03  0.80278960374E+02 0.  0.
         23    2    1    2    0    0 -0.14946374048E+03 -0.40981726896E+02  0.25472121537E+03  0.31241749676E+03  0.93289244076E+02 0.  0.
        -13    1    3    3    0    0  0.28617703544E+02  0.29269432440E+02  0.61453867175E+02  0.73839355511E+02  0.00000000000E+00 0.  1.
         14    1    3    3    0    0  0.29566823474E+03  0.21191940590E+02  0.54099013270E+03  0.61687853510E+03  0.00000000000E+00 0. -1.
        -11    1    4    4    0    0 -0.13167121941E+02  0.19477572413E+02  0.76596487354E+02  0.80123472230E+02  0.00000000000E+00 0.  1.
         11    1    4    4    0    0 -0.13629661854E+03 -0.60459299309E+02  0.17812472802E+03  0.23229402453E+03  0.00000000000E+00 0. -1.
         21    1    1    2  503  502 -0.10635897505E+03  0.52385122836E+02  0.66000400081E+03  0.67056820217E+03  0.00000000000E+00 0. -1.
          1    1    1    2  501    0 -0.68463222744E+02 -0.61864768970E+02  0.23480282604E+03  0.25228323294E+03  0.00000000000E+00 0. -1.
<scales pt_clust_5="13000.00000" pt_clust_6="13000.00000" pt_clust_7="13000.00000" pt_clust_8="13000.00000" pt_clust_9="120.99850" pt_clust_10="92.27389"></scales>
<clustering>
<clus scale="   80.279">  5  6 -1 -1</clus>
<clus scale="   92.274">  2 10  1 -1</clus>
<clus scale="   93.289">  7  8 -1 -1</clus>
<clus scale="  120.998">  1  9  2 -1</clus>
<clus scale="  242.488">  1  5  2 -1</clus>
<clus scale="   92.274">  2  5  1 -1</clus>
</clustering>
</event>
<event>
10    4  0.3738096E-005  0.1409575E+03  0.7546771E-02  0.1231053E+00
          2   -1    0    0  503    0 -0.00000000000E+00  0.00000000000E+00  0.42784465256E+03  0.42784465256E+03  0.00000000000E+00 0. -1.
         21   -1    0    0  501  502  0.00000000000E+00 -0.00000000000E+00 -0.17270023114E+03  0.17270023114E+03  0.00000000000E+00 0. -1.
         23    2    1    2    0    0  0.20100613895E+02  0.17944193818E+02 -0.84826949932E+02  0.12748747960E+03  0.91276597494E+02 0.  0.
         24    2    1    2    0    0  0.71527520898E+02  0.91638681487E+02  0.18960821578E+03  0.23607842040E+03  0.79170138916E+02 0.  0.
        -13    1    4    4    0    0  0.36972746918E+02  0.57032270450E+01  0.10177200461E+03  0.10842993930E+03  0.00000000000E+00 0.  1.
         14    1    4    4    0    0  0.34554773980E+02  0.85935454442E+02  0.87836211171E+02  0.12764848110E+03  0.00000000000E+00 0. -1.
        -13    1    3    3    0    0  0.12304962954E+02  0.52202178075E+02 -0.27553683308E+02  0.60296641473E+02  0.00000000000E+00 0. -1.
         13    1    3    3    0    0  0.77956509411E+01 -0.34257984257E+02 -0.57273266623E+02  0.67190838130E+02  0.00000000000E+00 0.  1.
         21    1    1    2  503  502 -0.22643255889E+02 -0.15352147331E+02  0.11010298168E+03  0.11345074720E+03  0.00000000000E+00 0. -1.
          1    1    1    2  501    0 -0.68984878904E+02 -0.94230727974E+02  0.40260173881E+02  0.12352823650E+03  0.00000000000E+00 0. -1.
<scales pt_clust_5="13000.00000" pt_clust_6="13000.00000" pt_clust_7="13000.00000" pt_clust_8="13000.00000" pt_clust_9="27.35700" pt_clust_10="116.62377"></scales>
<clustering>
<clus scale="   27.357">  1  9  2 -1</clus>
<clus scale="   79.170">  5  6 -1 -1</clus>
<clus scale="   91.277">  7  8 -1 -1</clus>
<clus scale="   94.669">  1  7  2 -1</clus>
<clus scale="  116.624">  2 10  1 -1</clus>
<clus scale="  116.624">  2  5  1 -1</clus>
</clustering>
</event>
<event>
10    4  0.3738096E-005  0.1064380E+03  0.7546771E-02  0.1271701E+00
         21   -1    0    0  501  502  0.00000000000E+00  0.00000000000E+00  0.38120655715E+03  0.38120655715E+03  0.00000000000E+00 0.  1.
          2   -1    0    0  503    0 -0.00000000000E+00 -0.00000000000E+00 -0.16046567876E+03  0.16046567876E+03  0.00000000000E+00 0. -1.
         24    2    1    2    0    0 -0.34199436066E+02  0.26264653098E+02 -0.99826882860E+02  0.13522251418E+03  0.80375919098E+02 0.  0.
         23    2    1    2    0    0  0.97574804179E+02  0.53445469306E+00  0.20568485373E+03  0.24506700952E+03  0.90721838897E+02 0.  0.
        -13    1    3    3    0    0 -0.37905307987E+02 -0.16939792759E+02 -0.24228956301E+02  0.48070898429E+02  0.00000000000E+00 0.  1.
         14    1    3    3    0    0  0.37058719219E+01  0.43204445857E+02 -0.75597926559E+02  0.87151615754E+02  0.00000000000E+00 0. -1.
        -13    1    4    4    0    0  0.82933082236E+02 -0.32695841004E+02  0.17911118806E+03  0.20006931758E+03  0.00000000000E+00 0.  1.
         13    1    4    4    0    0  0.14641721943E+02  0.33230295697E+02  0.26573665667E+02  0.44997691947E+02  0.00000000000E+00 0. -1.
         21    1    1    2  503  502 -0.17369165088E+02 -0.10288755861E+02 -0.13314490144E+02  0.24183094111E+02  0.00000000000E+00 0. -1.
          1    1    1    2  501    0 -0.46006203025E+02 -0.16510351930E+02  0.12819739766E+03  0.13719961809E+03  0.00000000000E+00 0. -1.
<scales pt_clust_5="13000.00000" pt_clust_6="13000.00000" pt_clust_7="13000.00000" pt_clust_8="13000.00000" pt_clust_9="20.18778" pt_clust_10="49.50883"></scales>
<clustering>
<clus scale="   20.188">  2  9  1 -1</clus>
<clus scale="   49.509">  1 10  2 -1</clus>
<clus scale="   80.376">  5  6 -1 -1</clus>
<clus scale="   90.722">  7  8 -1 -1</clus>
<clus scale="   97.770">  2  5  1 -1</clus>
<clus scale="   49.509">  1  5  2 -1</clus>
</clustering>
</event>
<event>
10    4  0.3738096E-005  0.1047246E+03  0.7546771E-02  0.1273901E+00
          2   -1    0    0  503    0 -0.00000000000E+00  0.00000000000E+00  0.18659441801E+03  0.18659441801E+03  0.00000000000E+00 0. -1.
         21   -1    0    0  501  502  0.00000000000E+00 -0.00000000000E+00 -0.22875134100E+03  0.22875134100E+03  0.00000000000E+00 0. -1.
         24    2    1    2    0    0  0.46232812003E+01 -0.37270903282E+02  0.30076928683E+02  0.10963185393E+03  0.98509018859E+02 0.  0.
         23    2    1    2    0    0  0.91816350483E+02 -0.29355348358E+02  0.14281176952E+02  0.13384161715E+03  0.91747739877E+02 0.  0.
        -11    1    3    3    0    0 -0.26156026525E+02  0.20641611692E+02 -0.73490948544E+01  0.34120712947E+02  0.00000000000E+00 0.  1.
         12    1    3    3    0    0  0.30779307726E+02 -0.57912514975E+02  0.37426023537E+02  0.75511140983E+02  0.00000000000E+00 0. -1.
        -11    1    4    4    0    0  0.44525667641E+02 -0.60438540137E+02 -0.15248075775E+01  0.75084467441E+02  0.00000000000E+00 0. -1.
         11    1    4    4    0    0  0.47290682842E+02  0.31083191779E+02  0.15805984529E+02  0.58757149708E+02  0.00000000000E+00 0.  1.
         21    1    1    2  503  502 -0.84438548423E+02  0.15393520777E+02 -0.82579349988E+02  0.11910574288E+03  0.00000000000E+00 0. -1.
          1    1    1    2  501    0 -0.12001083261E+02  0.51232730863E+02 -0.39356786345E+01  0.52766545058E+02  0.00000000000E+00 0. -1.
<scales pt_clust_5="13000.00000" pt_clust_6="13000.00000" pt_clust_7="13000.00000" pt_clust_8="13000.00000" pt_clust_9="99.40572" pt_clust_10="52.61959"></scales>
<clustering>
<clus scale="   52.620">  2 10  1 -1</clus>
<clus scale="   91.748">  7  8 -1 -1</clus>
<clus scale="   98.509">  5  6 -1 -1</clus>
<clus scale="   99.406">  2  9  1 -1</clus>
<clus scale="   98.391">  2  7  1 -1</clus>
<clus scale="   52.620">  2  5  1 -1</clus>
</clustering>
</event>
<event>
10    4  0.3738096E-005  0.1133366E+03  0.7546771E-02  0.1259062E+00
         21   -1    0    0  503  502  0.00000000000E+00  0.00000000000E+00  0.20724187252E+03  0.20724187252E+03  0.00000000000E+00 0. -1.
          2   -1    0    0  502    0 -0.00000000000E+00 -0.00000000000E+00 -0.20059876373E+03  0.20059876373E+03  0.00000000000E+00 0. -1.
         23    2    1    2    0    0 -0.29978454805E+02  0.78041869308E+02 -0.63164961556E+02  0.13836700470E+03  0.90367994901E+02 0.  0.
         24    2    1    2    0    0  0.14452737297E+02 -0.41327084561E+01  0.13558592346E+03  0.15704234420E+03  0.77799706530E+02 0.  0.
        -11    1    4    4    0    0  0.45929346913E+02  0.34661155614E+01  0.68430831499E+02  0.82488166209E+02  0.00000000000E+00 0.  1.
         12    1    4    4    0    0 -0.31476609616E+02 -0.75988240175E+01  0.67155091963E+02  0.74554177991E+02  0.00000000000E+00 0. -1.
        -13    1    3    3    0    0 -0.38411428779E+02 -0.55511193274E+01 -0.24352129171E+02  0.45817889320E+02  0.00000000000E+00 0. -1.
         13    1    3    3    0    0  0.84329739730E+01  0.83592988635E+02 -0.38812832386E+02  0.92549115376E+02  0.00000000000E+00 0.  1.
         21    1    1    2  503  501  0.83210435623E+01 -0.24675879869E+02  0.43933288111E+01  0.26409092209E+02  0.00000000000E+00 0.  1.
          1    1    1    2  501    0  0.72046739462E+01 -0.49233280983E+02 -0.70171181928E+02  0.86022195137E+02  0.00000000000E+00 0. -1.
<scales pt_clust_5="13000.00000" pt_clust_6="13000.00000" pt_clust_7="13000.00000" pt_clust_8="13000.00000" pt_clust_9="26.04110" pt_clust_10="50.81650"></scales>
<clustering>
<clus scale="   26.041">  1  9  2 -1</clus>
<clus scale="   50.817">  1 10  2 -1</clus>
<clus scale="   77.800">  5  6 -1 -1</clus>
<clus scale="   90.368">  7  8 -1 -1</clus>
<clus scale="  103.593">  1  5  2 -1</clus>
<clus scale="   26.041">  1  5  2 -1</clus>
</clustering>
</event>
<event>
10    4  0.6447062E-005  0.1991792E+03  0.7546771E-02  0.1181596E+00
         -1   -1    0    0    0  501 -0.00000000000E+00  0.00000000000E+00  0.22229541566E+03  0.22229541566E+03  0.00000000000E+00 0.  1.
         21   -1    0    0  503  502  0.00000000000E+00 -0.00000000000E+00 -0.95672881051E+03  0.95672881051E+03  0.00000000000E+00 0.  1.
         24    2    1    2    0    0  0.59157427910E+02 -0.19704301490E+02  0.12716945429E+03  0.16281910194E+03  0.80312695617E+02 0.  0.
         23    2    1    2    0    0  0.13792518430E+03  0.11102151673E+03 -0.15865521112E+03  0.25434513015E+03  0.90392674333E+02 0.  0.
        -13    1    3    3    0    0  0.59723116595E+02  0.44713110712E+01  0.12491730865E+03  0.13853222469E+03  0.00000000000E+00 0.  1.
         14    1    3    3    0    0 -0.56568868522E+00 -0.24175612561E+02  0.22521456447E+01  0.24286877247E+02  0.00000000000E+00 0. -1.
        -11    1    4    4    0    0  0.12612167026E+03  0.75492543892E+02 -0.80271001646E+02  0.16747905421E+03  0.00000000000E+00 0.  1.
         11    1    4    4    0    0  0.11803514040E+02  0.35528972842E+02 -0.78384209471E+02  0.86866075941E+02  0.00000000000E+00 0. -1.
         21    1    1    2  503  501 -0.29612461649E+02 -0.27419310238E+02 -0.43009965686E+01  0.40585896939E+02  0.00000000000E+00 0.  1.
         -2    1    1    2    0  502 -0.16747015056E+03 -0.63897905005E+02 -0.69864664145E+03  0.72127409714E+03  0.00000000000E+00 0.  1.
<scales pt_clust_5="13000.00000" pt_clust_6="13000.00000" pt_clust_7="13000.00000" pt_clust_8="13000.00000" pt_clust_9="40.35736" pt_clust_10="177.48672"></scales>
<clustering>
<clus scale="   40.357">  1  9  2 -1</clus>
<clus scale="   80.313">  5  6 -1 -1</clus>
<clus scale="   90.393">  7  8 -1 -1</clus>
<clus scale="   97.153">  1  5  2 -1</clus>
<clus scale="  177.487">  2 10  1 -1</clus>
<clus scale="  177.487">  2  5  1 -1</clus>
</clustering>
</event>
<event>
10    4  0.3738096E-005  0.1241652E+03  0.7546771E-02  0.1237497E+00
          2   -1    0    0  503    0 -0.00000000000E+00  0.00000000000E+00  0.12861203492E+04  0.12861203492E+04  0.00000000000E+00 0. -1.
         21   -1    0    0  501  502  0.00000000000E+00 -0.00000000000E+00 -0.21025904736E+03  0.21025904736E+03  0.00000000000E+00 0.  1.
         23    2    1    2    0    0 -0.57851431005E+02 -0.90663542485E+02  0.54730840776E+03  0.56561876349E+03  0.93869198372E+02 0.  0.
         24    2    1    2    0    0 -0.20940177714E+02  0.47032308746E+02  0.25725929516E+02  0.10693988263E+03  0.90132047232E+02 0.  0.
        -11    1    4    4    0    0  0.28217632096E+02  0.36894462406E+02 -0.70695777853E+01  0.46983135777E+02  0.00000000000E+00 0.  1.
         12    1    4    4    0    0 -0.49157809810E+02  0.10137846339E+02  0.32795507301E+02  0.59956746850E+02  0.00000000000E+00 0. -1.
        -11    1    3    3    0    0 -0.19822720073E+02 -0.10021078541E+03  0.35779921207E+03  0.37209597942E+03  0.00000000000E+00 0.  1.
         11    1    3    3    0    0 -0.38028710933E+02  0.95472429280E+01  0.18950919569E+03  0.19352278407E+03  0.00000000000E+00 0. -1.
         21    1    1    2  503  502  0.86446386268E+02  0.13803465741E+01  0.65757072245E+03  0.66323007929E+03  0.00000000000E+00 0.  1.
          1    1    1    2  501    0 -0.76547775480E+01  0.42250887165E+02 -0.15474375784E+03  0.16059067120E+03  0.00000000000E+00 0. -1.
<scales pt_clust_5="13000.00000" pt_clust_6="13000.00000" pt_clust_7="13000.00000" pt_clust_8="13000.00000" pt_clust_9="86.11207" pt_clust_10="42.93871"></scales>
<clustering>
<clus scale="   42.939">  2 10  1 -1</clus>
<clus scale="   86.112">  1  9  2 -1</clus>
<clus scale="   90.132">  5  6 -1 -1</clus>
<clus scale="   93.869">  7  8 -1 -1</clus>
<clus scale="  121.365">  2  5  1 -1</clus>
<clus scale="   42.939">  2  5  1 -1</clus>
</clustering>
</event>
<event>
10    4  0.3738096E-005  0.1001470E+03  0.7546771E-02  0.1283983E+00
          2   -1    0    0  503    0 -0.00000000000E+00  0.00000000000E+00  0.36328234816E+03  0.36328234816E+03  0.00000000000E+00 0. -1.
         21   -1    0    0  501  502  0.00000000000E+00 -0.00000000000E+00 -0.10406213677E+03  0.10406213677E+03  0.00000000000E+00 0.  1.
         23    2    1    2    0    0 -0.98094280052E+01  0.37144300059E+02  0.10575457962E+03  0.14427017139E+03  0.90299099322E+02 0.  0.
         24    2    1    2    0    0  0.11440723880E+02 -0.67951124451E+02 -0.40226491179E+02  0.11449625562E+03  0.82115628730E+02 0.  0.
        -13    1    4    4    0    0  0.19654872348E+02 -0.85465136134E+02 -0.30537454564E+02  0.92860861684E+02  0.00000000000E+00 0.  1.
         14    1    4    4    0    0 -0.82141484679E+01  0.17514011683E+02 -0.96890366151E+01  0.21635393937E+02  0.00000000000E+00 0. -1.
        -11    1    3    3    0    0  0.33103397865E+02  0.36385171877E+02  0.80878047257E+02  0.94662422380E+02  0.00000000000E+00 0.  1.
         11    1    3    3    0    0 -0.42912825870E+02  0.75912818194E+00  0.24876532364E+02  0.49607749014E+02  0.00000000000E+00 0. -1.
         21    1    1    2  503  502 -0.19061960047E+02 -0.11468231607E+02  0.23539615243E+02  0.32388148184E+02  0.00000000000E+00 0.  1.
          1    1    1    2  501    0  0.17430664172E+02  0.42275055999E+02  0.17015250771E+03  0.17618990973E+03  0.00000000000E+00 0. -1.
<scales pt_clust_5="13000.00000" pt_clust_6="13000.00000" pt_clust_7="13000.00000" pt_clust_8="13000.00000" pt_clust_9="22.24587" pt_clust_10="37.13560"></scales>
<clustering>
<clus scale="   22.246">  1  9  2 -1</clus>
<clus scale="   37.136">  2 10  1 -1</clus>
<clus scale="   82.116">  5  6 -1 -1</clus>
<clus scale="   90.299">  7  8 -1 -1</clus>
<clus scale="   92.836">  2  5  1 -1</clus>
<clus scale="   37.136">  2  5  1 -1</clus>
</clustering>
</event>
<event>
10    4  0.3738096E-005  0.1069874E+03  0.7546771E-02  0.1269670E+00
          2   -1    0    0  503    0 -0.00000000000E+00  0.00000000000E+00  0.32640385795E+03  0.32640385795E+03  0.00000000000E+00 0. -1.
         21   -1    0    0  501  502  0.00000000000E+00 -0.00000000000E+00 -0.85054017010E+02  0.85054017010E+02  0.00000000000E+00 0.  1.
         23    2    1    2    0    0  0.64068435734E+02  0.38971719151E+01  0.19580940780E+03  0.22369187740E+03  0.87044697847E+02 0.  0.
         24    2    1    2    0    0 -0.51946709497E+02 -0.23381451811E+02 -0.18202178076E+02  0.98650082271E+02  0.78456143985E+02 0.  0.
        -11    1    4    4    0    0 -0.70683069411E+02 -0.30042323286E+02 -0.11458994126E+02  0.77652727165E+02  0.00000000000E+00 0.  1.
         12    1    4    4    0    0  0.18736359914E+02  0.66608714753E+01 -0.67431839504E+01  0.20997355106E+02  0.00000000000E+00 0. -1.
        -11    1    3    3    0    0  0.54866606414E+02 -0.21179058380E+02  0.18626063970E+03  0.19532517225E+03  0.00000000000E+00 0. -1.
         11    1    3    3    0    0  0.92018293202E+01  0.25076230295E+02  0.95487681037E+01  0.28366705148E+02  0.00000000000E+00 0.  1.
         21    1    1    2  503  502 -0.22805845823E+02 -0.12026644342E+02  0.14192332295E+02  0.29430750480E+02  0.00000000000E+00 0. -1.
          1    1    1    2  501    0  0.10684119586E+02  0.31510924238E+02  0.49550278917E+02  0.59685164810E+02  0.00000000000E+00 0. -1.
<scales pt_clust_5="13000.00000" pt_clust_6="13000.00000" pt_clust_7="13000.00000" pt_clust_8="13000.00000" pt_clust_9="25.78268" pt_clust_10="32.06938"></scales>
<clustering>
<clus scale="   25.783">  2  9  1 -1</clus>
<clus scale="   32.069">  2 10  1 -1</clus>
<clus scale="   78.456">  5  6 -1 -1</clus>
<clus scale="   87.045">  7  8 -1 -1</clus>
<clus scale="  100.124">  2  5  1 -1</clus>
<clus scale="   25.783">  2  5  1 -1</clus>
</clustering>
</event>
<event>
10    4  0.3738096E-005  0.1666850E+03  0.7546771E-02  0.1182531E+00
         21   -1    0    0  501  502  0.00000000000E+00  0.00000000000E+00  0.88313388618E+02  0.88313388618E+02  0.00000000000E+00 0. -1.
          2   -1    0    0  503    0 -0.00000000000E+00 -0.00000000000E+00 -0.78008718193E+03  0.78008718193E+03  0.00000000000E+00 0. -1.
         24    2    1    2    0    0 -0.10519768775E+03  0.15191237953E+02 -0.38219624790E+03  0.40935916186E+03  0.10101299061E+03 0.  0.
         23    2    1    2    0    0  0.11208809529E+03  0.12310968884E+02 -0.80586499768E+02  0.16727275714E+03  0.93651963542E+02 0.  0.
        -11    1    3    3    0    0  0.19741145044E+02 -0.42336031162E+01 -0.51862323396E+02  0.55653722167E+02  0.00000000000E+00 0.  1.
         12    1    3    3    0    0 -0.12493883279E+03  0.19424841069E+02 -0.33033392451E+03  0.35370543970E+03  0.00000000000E+00 0. -1.
        -13    1    4    4    0    0  0.54777180925E+02  0.89184234617E+01 -0.93218220626E+02  0.10848831496E+03  0.00000000000E+00 0.  1.
         13    1    4    4    0    0  0.57310914367E+02  0.33925454222E+01  0.12631720858E+02  0.58784442175E+02  0.00000000000E+00 0. -1.
         21    1    1    2  503  502 -0.81773898953E+02 -0.15281647851E+02 -0.18787790005E+03  0.20547166383E+03  0.00000000000E+00 0. -1.
          1    1    1    2  501    0  0.74883491410E+02 -0.12220558986E+02 -0.41113145591E+02  0.86296987711E+02  0.00000000000E+00 0. -1.
<scales pt_clust_5="13000.00000" pt_clust_6="13000.00000" pt_clust_7="13000.00000" pt_clust_8="13000.00000" pt_clust_9="73.71809" pt_clust_10="75.87410"></scales>
<clustering>
<clus scale="   75.874">  1 10  2 -1</clus>
<clus scale="   73.718">  2  9  1 -1</clus>
<clus scale="   93.652">  7  8 -1 -1</clus>
<clus scale="  101.013">  5  6 -1 -1</clus>
<clus scale="  162.330">  1  7  2 -1</clus>
<clus scale="   75.874">  1  5  2 -1</clus>
</clustering>
</event>
<event>
10    4  0.3738096E-005  0.1267922E+03  0.7546771E-02  0.1236569E+00
         -1   -1    0    0    0  501 -0.00000000000E+00  0.00000000000E+00  0.29350217000E+03  0.29350217000E+03  0.00000000000E+00 0.  1.
         21   -1    0    0  503  502  0.00000000000E+00 -0.00000000000E+00 -0.17442943985E+03  0.17442943985E+03  0.00000000000E+00 0.  1.
         24    2    1    2    0    0 -0.72641254595E+02  0.68270001323E+02  0.98211384169E+02  0.16037796910E+03  0.78345848917E+02 0.  0.
         23    2    1    2    0    0  0.39759527501E+02 -0.46885821749E+02 -0.11094224240E+03  0.15750973528E+03  0.93391837181E+02 0.  0.
        -11    1    3    3    0    0 -0.46747050641E+02  0.75128914031E+02  0.41657309908E+02  0.97800674516E+02  0.00000000000E+00 0.  1.
         12    1    3    3    0    0 -0.25894203954E+02 -0.68589127080E+01  0.56554074261E+02  0.62577294584E+02  0.00000000000E+00 0. -1.
        -13    1    4    4    0    0  0.66815788641E+02 -0.12765662371E+02 -0.62573777973E+02  0.92427211562E+02  0.00000000000E+00 0.  1.
         13    1    4    4    0    0 -0.27056261139E+02 -0.34120159378E+02 -0.48368464423E+02  0.65082523717E+02  0.00000000000E+00 0. -1.
         21    1    1    2  503  501  0.21192789734E+02 -0.51435479714E+01  0.59439311274E+01  0.22603555908E+02  0.00000000000E+00 0. -1.
         -2    1    1    2    0  502  0.11688937360E+02 -0.16240631602E+02  0.12585965725E+03  0.12744034956E+03  0.00000000000E+00 0.  1.
<scales pt_clust_5="13000.00000" pt_clust_6="13000.00000" pt_clust_7="13000.00000" pt_clust_8="13000.00000" pt_clust_9="22.54537" pt_clust_10="20.00974"></scales>
<clustering>
<clus scale="   20.010">  2 10  1 -1</clus>
<clus scale="   22.545">  1  9  2 -1</clus>
<clus scale="   78.346">  5  6 -1 -1</clus>
<clus scale="   93.392">  7  8 -1 -1</clus>
<clus scale="  116.156">  1  5  2 -1</clus>
<clus scale="   20.010">  2  5  1 -1</clus>
</clustering>
</event>
<event>
10    4  0.3738096E-005  0.1002859E+03  0.7546771E-02  0.1284944E+00
         21   -1    0    0  501  502  0.00000000000E+00  0.00000000000E+00  0.28814239091E+03  0.28814239091E+03  0.00000000000E+00 0.  1.
          2   -1    0    0  503    0 -0.00000000000E+00 -0.00000000000E+00 -0.25518861925E+03  0.25518861925E+03  0.00000000000E+00 0. -1.
         23    2    1    2    0    0 -0.20239915748E+02  0.92375619153E+02 -0.95376645835E+02  0.16275711255E+03  0.91925317032E+02 0.  0.
         24    2    1    2    0    0 -0.29365630738E+02  0.13866492824E+02  0.50539844161E+02  0.10121393698E+03  0.81457751616E+02 0.  0.
        -13    1    4    4    0    0 -0.37253645716E+02  0.82897811447E+00  0.68305478962E+02  0.77808481415E+02  0.00000000000E+00 0.  1.
         14    1    4    4    0    0  0.78880149779E+01  0.13037514710E+02 -0.17765634801E+02  0.23405455560E+02  0.00000000000E+00 0. -1.
        -11    1    3    3    0    0  0.29635007740E+02  0.10888122367E+02 -0.64243873356E+01  0.32218901984E+02  0.00000000000E+00 0.  1.
         11    1    3    3    0    0 -0.49874923488E+02  0.81487496786E+02 -0.88952258500E+02  0.13053821057E+03  0.00000000000E+00 0. -1.
         21    1    1    2  503  502  0.18648847736E+02 -0.42389339106E+02 -0.87767034033E+02  0.99235517103E+02  0.00000000000E+00 0.  1.
          1    1    1    2  501    0  0.30956698750E+02 -0.63852772871E+02  0.16555760737E+03  0.18012444353E+03  0.00000000000E+00 0. -1.
<scales pt_clust_5="13000.00000" pt_clust_6="13000.00000" pt_clust_7="13000.00000" pt_clust_8="13000.00000" pt_clust_9="46.31021" pt_clust_10="73.04593"></scales>
<clustering>
<clus scale="   46.310">  2  9  1 -1</clus>
<clus scale="   73.046">  1 10  2 -1</clus>
<clus scale="   81.458">  5  6 -1 -1</clus>
<clus scale="   90.787">  1  5  2 -1</clus>
<clus scale="   91.925">  7  8 -1 -1</clus>
<clus scale="   73.046">  1  5  2 -1</clus>
</clustering>
</event>
<event>
10    4  0.3738096E-005  0.2025334E+03  0.7546771E-02  0.1166109E+00
         21   -1    0    0  501  502  0.00000000000E+00  0.00000000000E+00  0.85583163450E+02  0.85583163450E+02  0.00000000000E+00 0. -1.
          2   -1    0    0  503    0 -0.00000000000E+00 -0.00000000000E+00 -0.13241034738E+04  0.13241034738E+04  0.00000000000E+00 0. -1.
         23    2    1    2    0    0 -0.76907358024E+02 -0.96860768932E+02 -0.29558242645E+03  0.33227248424E+03  0.87973192965E+02 0.  0.
         24    2    1    2    0    0  0.19153585008E+03 -0.61234712637E+02 -0.49376968587E+03  0.53916689123E+03  0.80353979447E+02 0.  0.
        -11    1    4    4    0    0  0.89170867814E+02 -0.16637845536E+02 -0.12906961908E+03  0.15775686400E+03  0.00000000000E+00 0.  1.
         12    1    4    4    0    0  0.10236498227E+03 -0.44596867102E+02 -0.36470006679E+03  0.38141002722E+03  0.00000000000E+00 0. -1.
        -11    1    3    3    0    0 -0.43078471583E+02 -0.40428106513E+02 -0.48068476065E+02  0.76162752716E+02  0.00000000000E+00 0.  1.
         11    1    3    3    0    0 -0.33828886440E+02 -0.56432662419E+02 -0.24751395039E+03  0.25610973152E+03  0.00000000000E+00 0. -1.
         21    1    1    2  503  502  0.45569751628E+02  0.75234699522E+02 -0.27022494645E+03  0.28418019629E+03  0.00000000000E+00 0. -1.
          1    1    1    2  501    0 -0.16019824369E+03  0.82860782048E+02 -0.17894325156E+03  0.25406706548E+03  0.00000000000E+00 0. -1.
<scales pt_clust_5="13000.00000" pt_clust_6="13000.00000" pt_clust_7="13000.00000" pt_clust_8="13000.00000" pt_clust_9="87.95944" pt_clust_10="185.91129"></scales>
<clustering>
<clus scale="   80.354">  5  6 -1 -1</clus>
<clus scale="   87.959">  2  9  1 -1</clus>
<clus scale="   87.973">  7  8 -1 -1</clus>
<clus scale="  131.375">  2  7  1 -1</clus>
<clus scale="  185.911">  1 10  2 -1</clus>
<clus scale="  185.911">  1  5  2 -1</clus>
</clustering>
</event>
<event>
10    4  0.3738096E-005  0.1023816E+03  0.7546771E-02  0.1282433E+00
         21   -1    0    0  503  502  0.00000000000E+00  0.00000000000E+00  0.59625662016E+03  0.59625662016E+03  0.00000000000E+00 0. -1.
         -1   -1    0    0    0  501 -0.00000000000E+00 -0.00000000000E+00 -0.12339563215E+03  0.12339563215E+03  0.00000000000E+00 0.  1.
         24    2    1    2    0    0 -0.25657335338E+02 -0.46526798733E+02 -0.84450954994E+02  0.12733176752E+03  0.79109881585E+02 0.  0.
         23    2    1    2    0    0  0.53370004993E+02  0.97233771952E+01  0.47356991092E+03  0.48574219439E+03  0.93456499924E+02 0.  0.
        -13    1    3    3    0    0 -0.19841469115E+02 -0.22717980199E+02 -0.95717381799E+02  0.10035739982E+03  0.00000000000E+00 0.  1.
         14    1    3    3    0    0 -0.58158662231E+01 -0.23808818533E+02  0.11266426805E+02  0.26974367700E+02  0.00000000000E+00 0. -1.
        -11    1    4    4    0    0  0.29307922446E+02  0.50938929942E+02  0.21964344755E+03  0.22736968345E+03  0.00000000000E+00 0. -1.
         11    1    4    4    0    0  0.24062082547E+02 -0.41215552747E+02  0.25392646337E+03  0.25837251093E+03  0.00000000000E+00 0.  1.
         21    1    1    2  503  501 -0.67434104790E+01  0.21774386803E+02  0.44898115315E+01  0.23232647571E+02  0.00000000000E+00 0.  1.
         -2    1    1    2    0  502 -0.20969259176E+02  0.15029034734E+02  0.79252220553E+02  0.83345642826E+02  0.00000000000E+00 0.  1.
<scales pt_clust_5="13000.00000" pt_clust_6="13000.00000" pt_clust_7="13000.00000" pt_clust_8="13000.00000" pt_clust_9="22.79468" pt_clust_10="26.12611"></scales>
<clustering>
<clus scale="   22.795">  2  9  1 -1</clus>
<clus scale="   26.126">  1 10  2 -1</clus>
<clus scale="   79.110">  5  6 -1 -1</clus>
<clus scale="   89.478">  2  5  1 -1</clus>
<clus scale="   93.456">  7  8 -1 -1</clus>
<clus scale="   26.126">  1  5  2 -1</clus>
</clustering>
</event>
<event>
10    4  0.3738096E-005  0.1622816E+03  0.7546771E-02  0.1188836E+00
          2   -1    0    0  503    0 -0.00000000000E+00  0.00000000000E+00  0.38596214916E+03  0.38596214916E+03  0.00000000000E+00 0. -1.
         21   -1    0    0  501  502  0.00000000000E+00 -0.00000000000E+00 -0.21113700118E+03  0.21113700118E+03  0.00000000000E+00 0. -1.
         23    2    1    2    0    0 -0.13661137590E+03  0.65209754300E+02  0.24596297503E+03  0.30498472871E+03  0.97994487499E+02 0.  0.
         24    2    1    2    0    0  0.70906792157E+02 -0.22093063139E+02 -0.45885114160E+02  0.11941140713E+03  0.81472472892E+02 0.  0.
        -11    1    4    4    0    0  0.87550337588E+02 -0.76003288176E+01 -0.33100975382E+02  0.93906875047E+02  0.00000000000E+00 0.  1.
         12    1    4    4    0    0 -0.16643545431E+02 -0.14492734322E+02 -0.12784138779E+02  0.25504532086E+02  0.00000000000E+00 0. -1.
        -11    1    3    3    0    0 -0.10926819821E+03  0.86174412270E+01  0.19650634201E+03  0.22500787072E+03  0.00000000000E+00 0. -1.
         11    1    3    3    0    0 -0.27343177690E+02  0.56592313073E+02  0.49456633015E+02  0.79976857992E+02  0.00000000000E+00 0.  1.
         21    1    1    2  503  502 -0.61421052946E+01 -0.20673963487E+02  0.57157932690E+02  0.61091468251E+02  0.00000000000E+00 0.  1.
          1    1    1    2  501    0  0.71846689038E+02 -0.22442727674E+02 -0.82410645574E+02  0.11161154624E+03  0.00000000000E+00 0. -1.
<scales pt_clust_5="13000.00000" pt_clust_6="13000.00000" pt_clust_7="13000.00000" pt_clust_8="13000.00000" pt_clust_9="21.56706" pt_clust_10="75.28996"></scales>
<clustering>
<clus scale="   21.567">  1  9  2 -1</clus>
<clus scale="   75.290">  2 10  1 -1</clus>
<clus scale="   81.472">  5  6 -1 -1</clus>
<clus scale="   97.994">  7  8 -1 -1</clus>
<clus scale="  152.873">  2  5  1 -1</clus>
<clus scale="   75.290">  2  5  1 -1</clus>
</clustering>
</event>
<event>
10    4  0.3738096E-005  0.9951974E+02  0.7546771E-02  0.1286523E+00
          2   -1    0    0  503    0 -0.00000000000E+00  0.00000000000E+00  0.80098931275E+02  0.80098931275E+02  0.00000000000E+00 0. -1.
         21   -1    0    0  501  502  0.00000000000E+00 -0.00000000000E+00 -0.30606333772E+03  0.30606333772E+03  0.00000000000E+00 0. -1.
         24    2    1    2    0    0 -0.49229366969E+02 -0.14216282617E+02  0.39726182159E+01  0.95278763316E+02  0.80228597020E+02 0.  0.
         23    2    1    2    0    0  0.30716285851E+02  0.43389949551E+01 -0.19579007244E+03  0.21795714692E+03  0.90604902376E+02 0.  0.
        -11    1    3    3    0    0 -0.42834810642E+02  0.26484853491E+02 -0.10806623757E+02  0.51507781783E+02  0.00000000000E+00 0.  1.
         12    1    3    3    0    0 -0.63945563277E+01 -0.40701136108E+02  0.14779241973E+02  0.43770981533E+02  0.00000000000E+00 0. -1.
        -13    1    4    4    0    0 -0.14694915310E+02  0.36053118705E+02 -0.62740255212E+02  0.73838387905E+02  0.00000000000E+00 0.  1.
         13    1    4    4    0    0  0.45411201161E+02 -0.31714123750E+02 -0.13304981723E+03  0.14411875901E+03  0.00000000000E+00 0. -1.
         21    1    1    2  503  502  0.17094378394E+02 -0.14149099239E+02  0.86573807824E+01  0.23819425349E+02  0.00000000000E+00 0.  1.
          1    1    1    2  501    0  0.14187027240E+01  0.24026386901E+02 -0.42804333008E+02  0.49106933413E+02  0.00000000000E+00 0. -1.
<scales pt_clust_5="13000.00000" pt_clust_6="13000.00000" pt_clust_7="13000.00000" pt_clust_8="13000.00000" pt_clust_9="22.19042" pt_clust_10="23.43761"></scales>
<clustering>
<clus scale="   22.190">  1  9  2 -1</clus>
<clus scale="   23.438">  2 10  1 -1</clus>
<clus scale="   80.229">  5  6 -1 -1</clus>
<clus scale="   90.175">  1  5  2 -1</clus>
<clus scale="   90.605">  7  8 -1 -1</clus>
<clus scale="   23.438">  2  5  1 -1</clus>
</clustering>
</event>
<event>
10    4  0.3738096E-005  0.1957362E+03  0.7546771E-02  0.1154604E+00
         21   -1    0    0  501  502  0.00000000000E+00  0.00000000000E+00  0.50770905075E+03  0.50770905075E+03  0.00000000000E+00 0. -1.
          2   -1    0    0  503    0 -0.00000000000E+00 -0.00000000000E+00 -0.20106191369E+03  0.20106191369E+03  0.00000000000E+00 0. -1.
         24    2    1    2    0    0 -0.16172610229E+03 -0.89786533807E+02 -0.62379886834E+02  0.21095706342E+03  0.79966733791E+02 0.  0.
         23    2    1    2    0    0  0.13424427177E+03  0.70200654273E+02  0.13574983577E+03  0.22339368214E+03  0.92342097367E+02 0.  0.
        -11    1    3    3    0    0 -0.25773292150E+02 -0.70898729907E+01 -0.43029388347E+02  0.50656264655E+02  0.00000000000E+00 0.  1.
         12    1    3    3    0    0 -0.13595281014E+03 -0.82696660816E+02 -0.19350498486E+02  0.16030079877E+03  0.00000000000E+00 0. -1.
        -11    1    4    4    0    0  0.34162144047E+02  0.69170354290E+02  0.54080588044E+02  0.94214117847E+02  0.00000000000E+00 0.  1.
         11    1    4    4    0    0  0.10008212772E+03  0.10302999823E+01  0.81669247728E+02  0.12917956429E+03  0.00000000000E+00 0. -1.
         21    1    1    2  503  502  0.15214889572E+02 -0.14979854897E+02 -0.13283509714E+02  0.25146382400E+02  0.00000000000E+00 0.  1.
          1    1    1    2  501    0  0.12266940950E+02  0.34565734432E+02  0.24656069783E+03  0.24927383648E+03  0.00000000000E+00 0. -1.
<scales pt_clust_5="13000.00000" pt_clust_6="13000.00000" pt_clust_7="13000.00000" pt_clust_8="13000.00000" pt_clust_9="21.35156" pt_clust_10="36.61082"></scales>
<clustering>
<clus scale="   21.352">  2  9  1 -1</clus>
<clus scale="   36.611">  1 10  2 -1</clus>
<clus scale="   79.967">  5  6 -1 -1</clus>
<clus scale="   92.342">  7  8 -1 -1</clus>
<clus scale="  190.211">  2  5  1 -1</clus>
<clus scale="   36.611">  1  5  2 -1</clus>
</clustering>
</event>
<event>
10    4  0.3738096E-005  0.1837011E+03  0.7546771E-02  0.1196938E+00
          2   -1    0    0  503    0 -0.00000000000E+00  0.00000000000E+00  0.56399309201E+03  0.56399309201E+03  0.00000000000E+00 0. -1.
         21   -1    0    0  501  502  0.00000000000E+00 -0.00000000000E+00 -0.36928194828E+03  0.36928194828E+03  0.00000000000E+00 0. -1.
         24    2    1    2    0    0 -0.55661436802E+01  0.38632343618E+02 -0.32247859712E+02  0.94793668019E+02  0.80140346340E+02 0.  0.
         23    2    1    2    0    0 -0.57182703432E+02 -0.95498498090E+02  0.33450712680E+03  0.36397690196E+03  0.90522608052E+02 0.  0.
        -13    1    3    3    0    0  0.17794263710E+02  0.44356798271E+02 -0.46628265538E+02  0.66770925716E+02  0.00000000000E+00 0.  1.
         14    1    3    3    0    0 -0.23360407390E+02 -0.57244546528E+01  0.14380405826E+02  0.28022742303E+02  0.00000000000E+00 0. -1.
        -11    1    4    4    0    0 -0.16156694612E+02 -0.87963036353E+02  0.28770149560E+03  0.30128173711E+03  0.00000000000E+00 0. -1.
         11    1    4    4    0    0 -0.41026008820E+02 -0.75354617368E+01  0.46805631206E+02  0.62695164853E+02  0.00000000000E+00 0.  1.
         21    1    1    2  503  502 -0.66201907918E+02 -0.43888111926E+02  0.14978709260E+03  0.16954359938E+03  0.00000000000E+00 0. -1.
          1    1    1    2  501    0  0.12895075503E+03  0.10075426640E+03 -0.25733521597E+03  0.30496087093E+03  0.00000000000E+00 0. -1.
<scales pt_clust_5="13000.00000" pt_clust_6="13000.00000" pt_clust_7="13000.00000" pt_clust_8="13000.00000" pt_clust_9="79.42833" pt_clust_10="159.84913"></scales>
<clustering>
<clus scale="   79.428">  1  9  2 -1</clus>
<clus scale="   80.140">  5  6 -1 -1</clus>
<clus scale="   88.195">  1  5  2 -1</clus>
<clus scale="   90.523">  7  8 -1 -1</clus>
<clus scale="  159.849">  2 10  1 -1</clus>
<clus scale="  159.849">  2  5  1 -1</clus>
</clustering>
</event>
<event>
10    4  0.3738096E-005  0.2797186E+03  0.7546771E-02  0.1096381E+00
         21   -1    0    0  501  502  0.00000000000E+00  0.00000000000E+00  0.11361314582E+03  0.11361314582E+03  0.00000000000E+00 0. -1.
          2   -1    0    0  503    0 -0.00000000000E+00 -0.00000000000E+00 -0.11545748031E+04  0.11545748031E+04  0.00000000000E+00 0. -1.
         23    2    1    2    0    0 -0.91438544039E+02  0.22866092508E+03 -0.64088118643E+03  0.69269503707E+03  0.91928740201E+02 0.  0.
         24    2    1    2    0    0  0.74433873326E+02 -0.24004917282E+03 -0.18222710063E+03  0.32039026315E+03  0.79241388492E+02 0.  0.
        -13    1    4    4    0    0  0.73438437538E+02 -0.17890439785E+03 -0.17113699038E+03  0.25823992169E+03  0.00000000000E+00 0.  1.
         14    1    4    4    0    0  0.99543578727E+00 -0.61144774969E+02 -0.11090110246E+02  0.62150341460E+02  0.00000000000E+00 0. -1.
        -13    1    3    3    0    0 -0.29095824608E+02  0.39185927611E+02 -0.53734525847E+02  0.72591343839E+02  0.00000000000E+00 0.  1.
         13    1    3    3    0    0 -0.62342719431E+02  0.18947499746E+03 -0.58714666058E+03  0.62010369323E+03  0.00000000000E+00 0. -1.
         21    1    1    2  503  502  0.18634973072E+02  0.53942589376E+02 -0.20159745547E+03  0.20951992560E+03  0.00000000000E+00 0. -1.
          1    1    1    2  501    0 -0.16303023593E+01 -0.42554341631E+02 -0.16255914704E+02  0.45582723046E+02  0.00000000000E+00 0. -1.
<scales pt_clust_5="13000.00000" pt_clust_6="13000.00000" pt_clust_7="13000.00000" pt_clust_8="13000.00000" pt_clust_9="55.44140" pt_clust_10="42.58556"></scales>
<clustering>
<clus scale="   42.586">  1 10  2 -1</clus>
<clus scale="   55.441">  2  9  1 -1</clus>
<clus scale="   79.241">  5  6 -1 -1</clus>
<clus scale="   91.929">  7  8 -1 -1</clus>
<clus scale="  275.809">  1  5  2 -1</clus>
<clus scale="   42.586">  1  5  2 -1</clus>
</clustering>
</event>
<event>
10    4  0.3738096E-005  0.1003150E+03  0.7546771E-02  0.1284460E+00
          2   -1    0    0  503    0 -0.00000000000E+00  0.00000000000E+00  0.69063971527E+03  0.69063971527E+03  0.00000000000E+00 0. -1.
         21   -1    0    0  501  502  0.00000000000E+00 -0.00000000000E+00 -0.44446514110E+02  0.44446514110E+02  0.00000000000E+00 0.  1.
         24    2    1    2    0    0  0.59750809310E+02  0.20567184236E+02  0.50080759039E+03  0.51116279465E+03  0.80535655230E+02 0.  0.
         23    2    1    2    0    0 -0.41219516152E+02 -0.22406053083E+01  0.70372475220E+02  0.12176010549E+03  0.90383456437E+02 0.  0.
        -13    1    3    3    0    0  0.19242104185E+02  0.42895108543E+02  0.14675412184E+03  0.15410068523E+03  0.00000000000E+00 0.  1.
         14    1    3    3    0    0  0.40508705125E+02 -0.22327924307E+02  0.35405346854E+03  0.35706210942E+03  0.00000000000E+00 0. -1.
        -11    1    4    4    0    0 -0.28344324413E+02 -0.45793488886E+02  0.35558471961E+02  0.64535643477E+02  0.00000000000E+00 0.  1.
         11    1    4    4    0    0 -0.12875191739E+02  0.43552883578E+02  0.34814003259E+02  0.57224462018E+02  0.00000000000E+00 0. -1.
         21    1    1    2  503  502 -0.26766860846E+02  0.30091470498E+01  0.74573720832E+02  0.79289089062E+02  0.00000000000E+00 0. -1.
          1    1    1    2  501    0  0.82355676875E+01 -0.21335725977E+02  0.43941471805E+00  0.22874240171E+02  0.00000000000E+00 0. -1.
<scales pt_clust_5="13000.00000" pt_clust_6="13000.00000" pt_clust_7="13000.00000" pt_clust_8="13000.00000" pt_clust_9="26.22519" pt_clust_10="22.87002"></scales>
<clustering>
<clus scale="   22.870">  2 10  1 -1</clus>
<clus scale="   26.225">  1  9  2 -1</clus>
<clus scale="   80.536">  5  6 -1 -1</clus>
<clus scale="   90.383">  7  8 -1 -1</clus>
<clus scale="   91.542">  1  5  2 -1</clus>
<clus scale="   22.870">  2  5  1 -1</clus>
</clustering>
</event>
<event>
10    4  0.3738096E-005  0.1339016E+03  0.7546771E-02  0.1225155E+00
          2   -1    0    0  503    0 -0.00000000000E+00  0.00000000000E+00  0.46720408268E+03  0.46720408268E+03  0.00000000000E+00 0. -1.
         21   -1    0    0  501  502  0.00000000000E+00 -0.00000000000E+00 -0.86991548589E+02  0.86991548589E+02  0.00000000000E+00 0. -1.
         24    2    1    2    0    0  0.52692497625E+02 -0.64080435575E+02  0.30537577963E+03  0.32549476749E+03  0.76221226358E+02 0.  0.
         23    2    1    2    0    0 -0.47278344561E+02  0.70864146389E+02  0.26946516142E+02  0.12708287162E+03  0.90371303067E+02 0.  0.
        -11    1    3    3    0    0 -0.13746569086E+02 -0.36909953039E+02  0.13466918210E+03  0.14031073160E+03  0.00000000000E+00 0.  1.
         12    1    3    3    0    0  0.66439066711E+02 -0.27170482536E+02  0.17070659753E+03  0.18518403588E+03  0.00000000000E+00 0. -1.
        -11    1    4    4    0    0  0.23125505287E+02  0.23374213998E+02  0.26383994938E+02  0.42157538635E+02  0.00000000000E+00 0. -1.
         11    1    4    4    0    0 -0.70403849848E+02  0.47489932391E+02  0.56252120406E+00  0.84925332982E+02  0.00000000000E+00 0.  1.
         21    1    1    2  503  502  0.15128418059E+02 -0.24016979978E+02  0.64226851340E+02  0.70219461642E+02  0.00000000000E+00 0. -1.
          1    1    1    2  501    0 -0.20542571123E+02  0.17233269164E+02 -0.16336613017E+02  0.31398530527E+02  0.00000000000E+00 0. -1.
<scales pt_clust_5="13000.00000" pt_clust_6="13000.00000" pt_clust_7="13000.00000" pt_clust_8="13000.00000" pt_clust_9="27.17552" pt_clust_10="26.81385"></scales>
<clustering>
<clus scale="   26.814">  2 10  1 -1</clus>
<clus scale="   27.176">  1  9  2 -1</clus>
<clus scale="   76.221">  5  6 -1 -1</clus>
<clus scale="   90.371">  7  8 -1 -1</clus>
<clus scale="  124.789">  1  5  2 -1</clus>
<clus scale="   26.814">  2  5  1 -1</clus>
</clustering>
</event>
<event>
10    4  0.3738096E-005  0.1422823E+03  0.7546771E-02  0.1212069E+00
         21   -1    0    0  501  502  0.00000000000E+00  0.00000000000E+00  0.13198453208E+03  0.13198453208E+03  0.00000000000E+00 0. -1.
          2   -1    0    0  503    0 -0.00000000000E+00 -0.00000000000E+00 -0.60707399862E+03  0.60707399862E+03  0.00000000000E+00 0. -1.
         23    2    1    2    0    0 -0.50354721867E+02  0.82898518394E+02 -0.48274514243E+03  0.50031136720E+03  0.88661317629E+02 0.  0.
         24    2    1    2    0    0  0.47367826359E+02 -0.63056362902E+02  0.85669407830E+01  0.11258826839E+03  0.79893115020E+02 0.  0.
        -13    1    4    4    0    0  0.63925446777E+01 -0.55538515940E+02  0.32377947895E+02  0.64604356588E+02  0.00000000000E+00 0.  1.
         14    1    4    4    0    0  0.40975281681E+02 -0.75178469622E+01 -0.23811007112E+02  0.47983911799E+02  0.00000000000E+00 0. -1.
        -11    1    3    3    0    0 -0.71302456269E+02  0.83313529522E+02 -0.42363751037E+03  0.43760018815E+03  0.00000000000E+00 0. -1.
         11    1    3    3    0    0  0.20947734403E+02 -0.41501112742E+00 -0.59107632057E+02  0.62711179053E+02  0.00000000000E+00 0.  1.
         21    1    1    2  503  502 -0.18941969628E+02  0.17917863127E+02 -0.52471663344E+02  0.58592862078E+02  0.00000000000E+00 0.  1.
          1    1    1    2  501    0  0.21928865136E+02 -0.37760018619E+02  0.51560398450E+02  0.67566033039E+02  0.00000000000E+00 0. -1.
<scales pt_clust_5="13000.00000" pt_clust_6="13000.00000" pt_clust_7="13000.00000" pt_clust_8="13000.00000" pt_clust_9="26.07390" pt_clust_10="43.30299"></scales>
<clustering>
<clus scale="   26.074">  2  9  1 -1</clus>
<clus scale="   43.303">  1 10  2 -1</clus>
<clus scale="   79.893">  5  6 -1 -1</clus>
<clus scale="   88.661">  7  8 -1 -1</clus>
<clus scale="  136.990">  1  5  2 -1</clus>
<clus scale="   43.303">  1  5  2 -1</clus>
</clustering>
</event>
<event>
10    4  0.3738096E-005  0.1430554E+03  0.7546771E-02  0.1229417E+00
         -3   -1    0    0    0  501 -0.00000000000E+00  0.00000000000E+00  0.10002943729E+03  0.10002943729E+03  0.00000000000E+00 0.  1.
         21   -1    0    0  503  502  0.00000000000E+00 -0.00000000000E+00 -0.93142056963E+03  0.93142056963E+03  0.00000000000E+00 0.  1.
         23    2    1    2    0    0 -0.21958360180E+02  0.86506887073E+01 -0.41874038484E+01  0.83210269386E+02  0.79683188838E+02 0.  0.
         24    2    1    2    0    0 -0.30099556800E+02 -0.65383550919E+02 -0.67149044590E+02  0.12800190286E+03  0.81819929696E+02 0.  0.
        -13    1    4    4    0    0 -0.57882724332E+02 -0.53223626345E+02 -0.49373409613E+02  0.92848789729E+02  0.00000000000E+00 0.  1.
         14    1    4    4    0    0  0.27783167532E+02 -0.12159924574E+02 -0.17775634977E+02  0.35153113128E+02  0.00000000000E+00 0. -1.
        -11    1    3    3    0    0  0.21302810239E+02 -0.26234760608E+01 -0.25794332041E+02  0.33556518237E+02  0.00000000000E+00 0. -1.
         11    1    3    3    0    0 -0.43261170419E+02  0.11274164768E+02  0.21606928193E+02  0.49653751149E+02  0.00000000000E+00 0.  1.
         21    1    1    2  503  501 -0.51959406786E+02 -0.15788219112E+02 -0.49164061927E+01  0.54527230502E+02  0.00000000000E+00 0.  1.
         -4    1    1    2    0  502  0.10401732377E+03  0.72521081324E+02 -0.75513827771E+03  0.76571060418E+03  0.00000000000E+00 0.  1.
<scales pt_clust_5="13000.00000" pt_clust_6="13000.00000" pt_clust_7="13000.00000" pt_clust_8="13000.00000" pt_clust_9="54.30514" pt_clust_10="117.34708"></scales>
<clustering>
<clus scale="   54.305">  1  9  2 -1</clus>
<clus scale="   79.683">  7  8 -1 -1</clus>
<clus scale="   81.820">  5  6 -1 -1</clus>
<clus scale="   93.676">  1  7  2 -1</clus>
<clus scale="  117.347">  2 10  1 -1</clus>
<clus scale="  117.347">  2  5  1 -1</clus>
</clustering>
</event>
<event>
10    4  0.3738096E-005  0.1524717E+03  0.7546771E-02  0.1200145E+00
         -1   -1    0    0    0  501 -0.00000000000E+00  0.00000000000E+00  0.11847257695E+03  0.11847257695E+03  0.00000000000E+00 0.  1.
         21   -1    0    0  503  502  0.00000000000E+00 -0.00000000000E+00 -0.70586007582E+03  0.70586007582E+03  0.00000000000E+00 0. -1.
         24    2    1    2    0    0 -0.98381597523E+02  0.81965170635E+02 -0.17053451392E+03  0.22802373145E+03  0.80719103926E+02 0.  0.
         23    2    1    2    0    0  0.11888739870E+03 -0.59076725143E+02 -0.40402609069E+03  0.43581430870E+03  0.95251019352E+02 0.  0.
        -11    1    3    3    0    0 -0.71873358591E+01  0.19558996080E+02  0.42219840309E+01  0.21261168208E+02  0.00000000000E+00 0.  1.
         12    1    3    3    0    0 -0.91194261664E+02  0.62406174555E+02 -0.17475649795E+03  0.20676256324E+03  0.00000000000E+00 0. -1.
        -11    1    4    4    0    0  0.25458008264E+02 -0.49053530241E+02 -0.24452246261E+03  0.25069023463E+03  0.00000000000E+00 0. -1.
         11    1    4    4    0    0  0.93429390433E+02 -0.10023194902E+02 -0.15950362807E+03  0.18512407407E+03  0.00000000000E+00 0.  1.
         21    1    1    2  503  501  0.62378154411E+02  0.79073017102E+01  0.20299274928E+02  0.66072839583E+02  0.00000000000E+00 0.  1.
         -2    1    1    2    0  502 -0.82883955584E+02 -0.30795747203E+02 -0.33126169196E+02  0.94421773044E+02  0.00000000000E+00 0.  1.
<scales pt_clust_5="13000.00000" pt_clust_6="13000.00000" pt_clust_7="13000.00000" pt_clust_8="13000.00000" pt_clust_9="62.87734" pt_clust_10="63.76277"></scales>
<clustering>
<clus scale="   62.877">  1  9  2 -1</clus>
<clus scale="   63.763">  2 10  1 -1</clus>
<clus scale="   80.719">  5  6 -1 -1</clus>
<clus scale="   95.251">  7  8 -1 -1</clus>
<clus scale="  143.842">  1  5  2 -1</clus>
<clus scale="   63.763">  2  5  1 -1</clus>
</clustering>
</event>
<event>
10    4  0.3738096E-005  0.3499936E+03  0.7546771E-02  0.1112839E+00
         21   -1    0    0  501  502  0.00000000000E+00  0.00000000000E+00  0.45142056754E+03  0.45142056754E+03  0.00000000000E+00 0. -1.
          2   -1    0    0  503    0 -0.00000000000E+00 -0.00000000000E+00 -0.57196807577E+03  0.57196807577E+03  0.00000000000E+00 0. -1.
         24    2    1    2    0    0  0.43305275250E+02 -0.64589949890E+00 -0.49617544040E+01  0.90917190412E+02  0.79784412356E+02 0.  0.
         23    2    1    2    0    0 -0.31348017345E+03 -0.14617681598E+03  0.23520058640E+03  0.43537879513E+03  0.12082176429E+03 0.  0.
        -11    1    3    3    0    0  0.41112626167E+02 -0.50622292682E+00  0.33105180216E+02  0.52786904144E+02  0.00000000000E+00 0.  1.
         12    1    3    3    0    0  0.21926490829E+01 -0.13967657208E+00 -0.38066934620E+02  0.38130286268E+02  0.00000000000E+00 0. -1.
        -13    1    4    4    0    0 -0.29314718163E+03 -0.15587283047E+03  0.18434182827E+03  0.37975455103E+03  0.00000000000E+00 0. -1.
         13    1    4    4    0    0 -0.20332991818E+02  0.96960144856E+01  0.50858758127E+02  0.55624244097E+02  0.00000000000E+00 0.  1.
         21    1    1    2  503  502  0.25520965994E+02  0.79091806295E+01 -0.14773353373E+03  0.15013018295E+03  0.00000000000E+00 0.  1.
          1    1    1    2  501    0  0.24465393221E+03  0.13891353485E+03 -0.20305280650E+03  0.34696247482E+03  0.00000000000E+00 0. -1.
<scales pt_clust_5="13000.00000" pt_clust_6="13000.00000" pt_clust_7="13000.00000" pt_clust_8="13000.00000" pt_clust_9="26.71844" pt_clust_10="328.47788"></scales>
<clustering>
<clus scale="   26.718">  2  9  1 -1</clus>
<clus scale="   79.784">  5  6 -1 -1</clus>
<clus scale="   92.194">  2  5  1 -1</clus>
<clus scale="  120.822">  7  8 -1 -1</clus>
<clus scale="  328.478">  1 10  2 -1</clus>
<clus scale="  328.478">  1  5  2 -1</clus>
</clustering>
</event>
<event>
10    4  0.3738096E-005  0.1277040E+03  0.7546771E-02  0.1232944E+00
         21   -1    0    0  501  502  0.00000000000E+00  0.00000000000E+00  0.26645266859E+03  0.26645266859E+03  0.00000000000E+00 0.  1.
          2   -1    0    0  503    0 -0.00000000000E+00 -0.00000000000E+00 -0.33708658335E+03  0.33708658335E+03  0.00000000000E+00 0. -1.
         24    2    1    2    0    0  0.91239265175E+02 -0.11857234329E+02  0.43234255637E+01  0.12470583873E+03  0.84069356428E+02 0.  0.
         23    2    1    2    0    0 -0.84780916680E+02  0.39840029305E+00  0.14963749093E+03  0.19483612683E+03  0.91552034772E+02 0.  0.
        -13    1    3    3    0    0  0.53973851701E+01 -0.35123146111E+02  0.40592414187E+01  0.35766529050E+02  0.00000000000E+00 0.  1.
         14    1    3    3    0    0  0.85841880005E+02  0.23265911782E+02  0.26418414497E+00  0.88939309684E+02  0.00000000000E+00 0. -1.
        -13    1    4    4    0    0 -0.28834119764E+02  0.42488625254E+02  0.86326531704E+02  0.10044381422E+03  0.00000000000E+00 0.  1.
         13    1    4    4    0    0 -0.55946796916E+02 -0.42090224961E+02  0.63310959222E+02  0.94392312611E+02  0.00000000000E+00 0. -1.
         21    1    1    2  503  502 -0.17535701366E+02 -0.74897454629E+02 -0.59124070460E+02  0.97019509585E+02  0.00000000000E+00 0. -1.
          1    1    1    2  501    0  0.11077352871E+02  0.86356288665E+02 -0.16547076079E+03  0.18697777679E+03  0.00000000000E+00 0. -1.
<scales pt_clust_5="13000.00000" pt_clust_6="13000.00000" pt_clust_7="13000.00000" pt_clust_8="13000.00000" pt_clust_9="76.92288" pt_clust_10="35.40908"></scales>
<clustering>
<clus scale="   76.923">  2  9  1 -1</clus>
<clus scale="   35.409">  1 10  2 -1</clus>
<clus scale="   84.069">  5  6 -1 -1</clus>
<clus scale="   91.552">  7  8 -1 -1</clus>
<clus scale="  122.451">  2  5  1 -1</clus>
<clus scale="   35.409">  1  5  2 -1</clus>
</clustering>
</event>
<event>
10    4  0.3738096E-005  0.3906334E+03  0.7546771E-02  0.1088591E+00
         21   -1    0    0  503  502  0.00000000000E+00  0.00000000000E+00  0.14051437169E+03  0.14051437169E+03  0.00000000000E+00 0. -1.
          2   -1    0    0  502    0 -0.00000000000E+00 -0.00000000000E+00 -0.14961195473E+04  0.14961195473E+04  0.00000000000E+00 0. -1.
         24    2    1    2    0    0 -0.49919649508E+02 -0.78023979226E+02 -0.17106863708E+03  0.21146289746E+03  0.82899732620E+02 0.  0.
         23    2    1    2    0    0  0.32415750650E+03  0.25749650950E+03 -0.47011904338E+03  0.63261608587E+03  0.88366598423E+02 0.  0.
        -11    1    3    3    0    0 -0.43799288021E+02 -0.17487840425E+01 -0.89275548504E+02  0.99456319243E+02  0.00000000000E+00 0.  1.
         12    1    3    3    0    0 -0.61203614863E+01 -0.76275195184E+02 -0.81793088580E+02  0.11200657822E+03  0.00000000000E+00 0. -1.
        -13    1    4    4    0    0  0.27838321699E+03  0.21573999119E+03 -0.34510618816E+03  0.49309151322E+03  0.00000000000E+00 0. -1.
         13    1    4    4    0    0  0.45774289512E+02  0.41756518313E+02 -0.12501285522E+03  0.13952457265E+03  0.00000000000E+00 0.  1.
         21    1    1    2  503  501 -0.32734535689E+02 -0.41505523732E+02 -0.20986131200E+03  0.21641633164E+03  0.00000000000E+00 0. -1.
          1    1    1    2  501    0 -0.24150332131E+03 -0.13796700654E+03 -0.50455618313E+03  0.57613860401E+03  0.00000000000E+00 0. -1.
<scales pt_clust_5="13000.00000" pt_clust_6="13000.00000" pt_clust_7="13000.00000" pt_clust_8="13000.00000" pt_clust_9="44.31770" pt_clust_10="44.31770"></scales>
<clustering>
<clus scale="   44.318">  9 10 -1 -1</clus>
<clus scale="   82.900">  5  6 -1 -1</clus>
<clus scale="   88.367">  7  8 -1 -1</clus>
<clus scale="  124.306">  2  5  1 -1</clus>
<clus scale="  387.388">  2  7  1 -1</clus>
<clus scale="  390.633">  1  5  2 -1</clus>
</clustering>
</event>
<event>
10    4  0.3738096E-005  0.1773493E+03  0.7546771E-02  0.1202726E+00
         21   -1    0    0  503  502  0.00000000000E+00  0.00000000000E+00  0.88579093331E+03  0.88579093331E+03  0.00000000000E+00 0.  1.
         -3   -1    0    0    0  501 -0.00000000000E+00 -0.00000000000E+00 -0.11486653756E+03  0.11486653756E+03  0.00000000000E+00 0.  1.
         24    2    1    2    0    0 -0.18241270970E+02 -0.26595677794E+02  0.17851696079E+03  0.19820379475E+03  0.79852144108E+02 0.  0.
         23    2    1    2    0    0 -0.82454114412E+02 -0.79935089845E+02  0.18041198233E+02  0.14831299763E+03  0.92102990513E+02 0.  0.
        -11    1    3    3    0    0 -0.22041148440E+02  0.25373995669E+02  0.79493441667E+02  0.86306773482E+02  0.00000000000E+00 0.  1.
         12    1    3    3    0    0  0.37998774698E+01 -0.51969673463E+02  0.99023519127E+02  0.11189702127E+03  0.00000000000E+00 0. -1.
        -11    1    4    4    0    0 -0.37419312130E+02  0.12128124802E+02 -0.12664526489E+02  0.41324164392E+02  0.00000000000E+00 0. -1.
         11    1    4    4    0    0 -0.45034802281E+02 -0.92063214647E+02  0.30705724722E+02  0.10698883324E+03  0.00000000000E+00 0.  1.
         21    1    1    2  503  501 -0.20556227588E+02  0.62887433109E+01 -0.25866477470E+02  0.33633040924E+02  0.00000000000E+00 0.  1.
         -4    1    1    2    0  502  0.12125161297E+03  0.10024202433E+03  0.60023271419E+03  0.62050763757E+03  0.00000000000E+00 0.  1.
<scales pt_clust_5="13000.00000" pt_clust_6="13000.00000" pt_clust_7="13000.00000" pt_clust_8="13000.00000" pt_clust_9="21.49667" pt_clust_10="151.55794"></scales>
<clustering>
<clus scale="   21.497">  2  9  1 -1</clus>
<clus scale="   79.852">  5  6 -1 -1</clus>
<clus scale="   86.433">  2  5  1 -1</clus>
<clus scale="   92.103">  7  8 -1 -1</clus>
<clus scale="  151.558">  1 10  2 -1</clus>
<clus scale="  151.558">  1  5  2 -1</clus>
</clustering>
</event>
<event>
10    4  0.3738096E-005  0.9077405E+02  0.7546771E-02  0.1306432E+00
         21   -1    0    0  501  502  0.00000000000E+00  0.00000000000E+00  0.11039792700E+03  0.11039792700E+03  0.00000000000E+00 0.  1.
          4   -1    0    0  503    0 -0.00000000000E+00 -0.00000000000E+00 -0.27612062177E+03  0.27612062177E+03  0.00000000000E+00 0. -1.
         24    2    1    2    0    0  0.13231489330E+02 -0.57417036550E+01 -0.11084425033E+03  0.13843290789E+03  0.81665064053E+02 0.  0.
         23    2    1    2    0    0  0.38783289122E+02 -0.81941545265E+01  0.29373874723E+02  0.10292725993E+03  0.90332212616E+02 0.  0.
        -11    1    3    3    0    0  0.40024708069E+02 -0.27346719243E+02 -0.62822362099E+02  0.79350296087E+02  0.00000000000E+00 0.  1.
         12    1    3    3    0    0 -0.26793218739E+02  0.21605015588E+02 -0.48021888227E+02  0.59082611807E+02  0.00000000000E+00 0. -1.
        -13    1    4    4    0    0 -0.23007953520E+02 -0.21000207395E+02  0.24507233634E+02  0.39635579171E+02  0.00000000000E+00 0. -1.
         13    1    4    4    0    0  0.61791242643E+02  0.12806052868E+02  0.48666410890E+01  0.63291680756E+02  0.00000000000E+00 0.  1.
         21    1    1    2  503  502  0.36334776362E+01  0.20440114516E+02 -0.86628032382E+02  0.89080954392E+02  0.00000000000E+00 0. -1.
          3    1    1    2  501    0 -0.55648256089E+02 -0.65042563341E+01  0.23757132129E+01  0.56077426559E+02  0.00000000000E+00 0. -1.
<scales pt_clust_5="13000.00000" pt_clust_6="13000.00000" pt_clust_7="13000.00000" pt_clust_8="13000.00000" pt_clust_9="20.76055" pt_clust_10="55.24675"></scales>
<clustering>
<clus scale="   20.761">  2  9  1 -1</clus>
<clus scale="   55.247">  1 10  2 -1</clus>
<clus scale="   81.665">  5  6 -1 -1</clus>
<clus scale="   82.154">  2  5  1 -1</clus>
<clus scale="   90.332">  7  8 -1 -1</clus>
<clus scale="   55.247">  1  5  2 -1</clus>
</clustering>
</event>
<event>
10    4  0.3738096E-005  0.1735415E+03  0.7546771E-02  0.1175583E+00
         21   -1    0    0  501  502  0.00000000000E+00  0.00000000000E+00  0.11906963618E+04  0.11906963618E+04  0.00000000000E+00 0. -1.
          2   -1    0    0  503    0 -0.00000000000E+00 -0.00000000000E+00 -0.86075818025E+02  0.86075818025E+02  0.00000000000E+00 0. -1.
         23    2    1    2    0    0  0.96997446752E+02  0.13622617997E+03  0.14258559662E+03  0.23759287230E+03  0.90297529417E+02 0.  0.
         24    2    1    2    0    0 -0.31965100434E+02 -0.96334513168E+02  0.63272736233E+03  0.64573505536E+03  0.79547096802E+02 0.  0.
        -13    1    4    4    0    0  0.20813521413E+02 -0.14680940550E+02  0.66302716752E+02  0.71026635410E+02  0.00000000000E+00 0.  1.
         14    1    4    4    0    0 -0.52778621847E+02 -0.81653572618E+02  0.56642464558E+03  0.57470841995E+03  0.00000000000E+00 0. -1.
        -11    1    3    3    0    0  0.75545523906E+01  0.80228237440E+02  0.85993335186E+02  0.11784945923E+03  0.00000000000E+00 0.  1.
         11    1    3    3    0    0  0.89442894361E+02  0.55997942534E+02  0.56592261431E+02  0.11974341307E+03  0.00000000000E+00 0. -1.
         21    1    1    2  503  502  0.64882011405E+02 -0.49885878796E+02  0.95418804005E+02  0.12571008100E+03  0.00000000000E+00 0. -1.
          1    1    1    2  501    0 -0.12991435772E+03  0.99942119910E+01  0.23388878086E+03  0.26773417120E+03  0.00000000000E+00 0. -1.
<scales pt_clust_5="13000.00000" pt_clust_6="13000.00000" pt_clust_7="13000.00000" pt_clust_8="13000.00000" pt_clust_9="81.84300" pt_clust_10="114.45061"></scales>
<clustering>
<clus scale="   79.547">  5  6 -1 -1</clus>
<clus scale="   81.843">  2  9  1 -1</clus>
<clus scale="   90.298">  7  8 -1 -1</clus>
<clus scale="  114.451">  1 10  2 -1</clus>
<clus scale="  168.199">  1  5  2 -1</clus>
<clus scale="  114.451">  1  5  2 -1</clus>
</clustering>
</event>
<event>
10    4  0.3738096E-005  0.9616518E+02  0.7546771E-02  0.1289510E+00
          2   -1    0    0  503    0 -0.00000000000E+00  0.00000000000E+00  0.23951125877E+03  0.23951125877E+03  0.00000000000E+00 0. -1.
         21   -1    0    0  501  502  0.00000000000E+00 -0.00000000000E+00 -0.22260797404E+03  0.22260797404E+03  0.00000000000E+00 0. -1.
         24    2    1    2    0    0  0.14065100202E+01 -0.14718899045E+02  0.94754764549E+02  0.13117719008E+03  0.89500645427E+02 0.  0.
         23    2    1    2    0    0 -0.11987423196E+02  0.47890337144E+02 -0.44566480365E+01  0.10385930720E+03  0.91267251929E+02 0.  0.
        -13    1    3    3    0    0 -0.31095008516E+02 -0.38364680732E+02  0.62416706401E+02  0.79590159695E+02  0.00000000000E+00 0.  1.
         14    1    3    3    0    0  0.32501518536E+02  0.23645781687E+02  0.32338058148E+02  0.51587030381E+02  0.00000000000E+00 0. -1.
        -11    1    4    4    0    0 -0.31913098075E+02 -0.40421351830E+01 -0.28767357873E+02  0.43154901976E+02  0.00000000000E+00 0.  1.
         11    1    4    4    0    0  0.19925674879E+02  0.51932472327E+02  0.24310709836E+02  0.60704405229E+02  0.00000000000E+00 0. -1.
         21    1    1    2  503  502  0.19613601092E+02 -0.87236390749E+01  0.74180304845E+02  0.77223784247E+02  0.00000000000E+00 0.  1.
          1    1    1    2  501    0 -0.90326879169E+01 -0.24447799025E+02 -0.14757513663E+03  0.14985895128E+03  0.00000000000E+00 0. -1.
<scales pt_clust_5="13000.00000" pt_clust_6="13000.00000" pt_clust_7="13000.00000" pt_clust_8="13000.00000" pt_clust_9="21.46614" pt_clust_10="26.07317"></scales>
<clustering>
<clus scale="   21.466">  1  9  2 -1</clus>
<clus scale="   26.073">  2 10  1 -1</clus>
<clus scale="   89.501">  5  6 -1 -1</clus>
<clus scale="   91.267">  7  8 -1 -1</clus>
<clus scale="   94.490">  1  5  2 -1</clus>
<clus scale="   26.073">  2  5  1 -1</clus>
</clustering>
</event>
<event>
10    4  0.3738096E-005  0.1399575E+03  0.7546771E-02  0.1218881E+00
         21   -1    0    0  501  502  0.00000000000E+00  0.00000000000E+00  0.12623295157E+03  0.12623295157E+03  0.00000000000E+00 0. -1.
          2   -1    0    0  503    0 -0.00000000000E+00 -0.00000000000E+00 -0.67564551577E+03  0.67564551577E+03  0.00000000000E+00 0. -1.
         24    2    1    2    0    0 -0.68070895986E+02  0.79179878389E+02 -0.32893350228E+03  0.35323550538E+03  0.75332418770E+02 0.  0.
         23    2    1    2    0    0 -0.34864412413E+02 -0.15798443685E+03 -0.14739550236E+03  0.24007268843E+03  0.98665353958E+02 0.  0.
        -11    1    3    3    0    0 -0.65941596968E+02  0.21392891781E+02 -0.20665811189E+03  0.21797597400E+03  0.00000000000E+00 0.  1.
         12    1    3    3    0    0 -0.21292990179E+01  0.57786986608E+02 -0.12227539039E+03  0.13525953139E+03  0.00000000000E+00 0. -1.
        -13    1    4    4    0    0  0.95568078943E+01 -0.41235633580E+02  0.54482687947E+01  0.42677789150E+02  0.00000000000E+00 0.  1.
         13    1    4    4    0    0 -0.44421220307E+02 -0.11674880327E+03 -0.15284377116E+03  0.19739489928E+03  0.00000000000E+00 0. -1.
         21    1    1    2  503  502  0.32053431192E+02 -0.57424394896E+01 -0.91131824477E+02  0.96775035495E+02  0.00000000000E+00 0. -1.
          1    1    1    2  501    0  0.70881877207E+02  0.84546997953E+02  0.18048264929E+02  0.11179523803E+03  0.00000000000E+00 0. -1.
<scales pt_clust_5="13000.00000" pt_clust_6="13000.00000" pt_clust_7="13000.00000" pt_clust_8="13000.00000" pt_clust_9="32.56375" pt_clust_10="111.65679"></scales>
<clustering>
<clus scale="   32.564">  2  9  1 -1</clus>
<clus scale="   75.332">  5  6 -1 -1</clus>
<clus scale="   98.665">  7  8 -1 -1</clus>
<clus scale="  111.657">  1 10  2 -1</clus>
<clus scale="  124.612">  2  5  1 -1</clus>
<clus scale="  111.657">  1  5  2 -1</clus>
</clustering>
</event>
<event>
10    4  0.3738096E-005  0.1714777E+03  0.7546771E-02  0.1178230E+00
         21   -1    0    0  501  502  0.00000000000E+00  0.00000000000E+00  0.83068273251E+02  0.83068273251E+02  0.00000000000E+00 0. -1.
          2   -1    0    0  503    0 -0.00000000000E+00 -0.00000000000E+00 -0.73390415000E+03  0.73390415000E+03  0.00000000000E+00 0. -1.
         23    2    1    2    0    0 -0.47205383854E+02 -0.15981270770E+03 -0.38601055536E+03  0.43050001129E+03  0.92507627072E+02 0.  0.
         24    2    1    2    0    0  0.51286605111E+02  0.10495362343E+03 -0.14407817320E+03  0.20131049931E+03  0.78242048829E+02 0.  0.
        -11    1    4    4    0    0  0.59938707155E+02  0.53030546522E+02 -0.11796459260E+03  0.14255010553E+03  0.00000000000E+00 0.  1.
         12    1    4    4    0    0 -0.86521020443E+01  0.51923076908E+02 -0.26113580603E+02  0.58760393781E+02  0.00000000000E+00 0. -1.
        -11    1    3    3    0    0 -0.27935760289E+02 -0.19385883799E+02 -0.23693651520E+02  0.41444038364E+02  0.00000000000E+00 0.  1.
         11    1    3    3    0    0 -0.19269623565E+02 -0.14042682390E+03 -0.36231690384E+03  0.38905597293E+03  0.00000000000E+00 0. -1.
         21    1    1    2  503  502 -0.12564645211E+02 -0.41498565063E+02 -0.32008691745E+02  0.53893947330E+02  0.00000000000E+00 0. -1.
          1    1    1    2  501    0  0.84834239533E+01  0.96357649334E+02 -0.88738456448E+02  0.13126796532E+03  0.00000000000E+00 0. -1.
<scales pt_clust_5="13000.00000" pt_clust_6="13000.00000" pt_clust_7="13000.00000" pt_clust_8="13000.00000" pt_clust_9="43.35898" pt_clust_10="84.25829"></scales>
<clustering>
<clus scale="   43.359">  1  9  2 -1</clus>
<clus scale="   78.242">  5  6 -1 -1</clus>
<clus scale="   84.258">  1 10  2 -1</clus>
<clus scale="   92.508">  7  8 -1 -1</clus>
<clus scale="  164.222">  1  5  2 -1</clus>
<clus scale="   43.359">  1  5  2 -1</clus>
</clustering>
</event>
<event>
10    4  0.3738096E-005  0.3722327E+03  0.7546771E-02  0.1087834E+00
          2   -1    0    0  502    0 -0.00000000000E+00  0.00000000000E+00  0.25389157857E+04  0.25389157857E+04  0.00000000000E+00 0. -1.
         21   -1    0    0  503  502  0.00000000000E+00 -0.00000000000E+00 -0.16754033368E+03  0.16754033368E+03  0.00000000000E+00 0.  1.
         23    2    1    2    0    0 -0.82642550688E+02  0.80909136151E+02  0.38603614900E+03  0.41292730902E+03  0.90049845632E+02 0.  0.
         24    2    1    2    0    0  0.13352242603E+03  0.31681821135E+03  0.10781620012E+03  0.36926212348E+03  0.80797063877E+02 0.  0.
        -13    1    4    4    0    0  0.47896322255E+02  0.20579878668E+03  0.82269270021E+02  0.22674971020E+03  0.00000000000E+00 0.  1.
         14    1    4    4    0    0  0.85626103774E+02  0.11101942467E+03  0.25546930098E+02  0.14251241328E+03  0.00000000000E+00 0. -1.
        -11    1    3    3    0    0 -0.25779153517E+02 -0.17846376849E+02  0.62803639547E+02  0.70195121362E+02  0.00000000000E+00 0.  1.
         11    1    3    3    0    0 -0.56863397172E+02  0.98755513000E+02  0.32323250946E+03  0.34273218766E+03  0.00000000000E+00 0. -1.
         21    1    1    2  503  501 -0.94891917229E+02 -0.28261925209E+03  0.13547445996E+04  0.13871593447E+04  0.00000000000E+00 0.  1.
          1    1    1    2  501    0  0.44012041888E+02 -0.11510809541E+03  0.52277850330E+03  0.53710734213E+03  0.00000000000E+00 0. -1.
<scales pt_clust_5="13000.00000" pt_clust_6="13000.00000" pt_clust_7="13000.00000" pt_clust_8="13000.00000" pt_clust_9="83.66462" pt_clust_10="83.66462"></scales>
<clustering>
<clus scale="   80.797">  5  6 -1 -1</clus>
<clus scale="   83.665">  9 10 -1 -1</clus>
<clus scale="   90.050">  7  8 -1 -1</clus>
<clus scale="  146.578">  1  7  2 -1</clus>
<clus scale="  357.983">  1  5  2 -1</clus>
<clus scale="  372.233">  2  5  1 -1</clus>
</clustering>
</event>
<event>
10    4  0.3738096E-005  0.2093484E+03  0.7546771E-02  0.1143255E+00
         21   -1    0    0  503  502  0.00000000000E+00  0.00000000000E+00  0.27034693079E+03  0.27034693079E+03  0.00000000000E+00 0.  1.
          2   -1    0    0  502    0 -0.00000000000E+00 -0.00000000000E+00 -0.45949455707E+03  0.45949455707E+03  0.00000000000E+00 0. -1.
         23    2    1    2    0    0 -0.10451753318E+03  0.18915265896E+03 -0.15978915539E+03  0.28459543896E+03  0.93591380813E+02 0.  0.
         24    2    1    2    0    0  0.76243256254E+02 -0.71348779563E+02  0.16588832942E+03  0.21162445654E+03  0.79763966185E+02 0.  0.
        -13    1    4    4    0    0  0.87865920403E+02 -0.70742094500E+02  0.16510279723E+03  0.19995948978E+03  0.00000000000E+00 0.  1.
         14    1    4    4    0    0 -0.11622664150E+02 -0.60668506262E+00  0.78553219113E+00  0.11664966761E+02  0.00000000000E+00 0. -1.
        -13    1    3    3    0    0 -0.45317220787E+02  0.42109521592E+02 -0.34526382172E+01  0.61957913290E+02  0.00000000000E+00 0.  1.
         13    1    3    3    0    0 -0.59200312395E+02  0.14704313736E+03 -0.15633651717E+03  0.22263752567E+03  0.00000000000E+00 0. -1.
         21    1    1    2  503  501 -0.68315603390E+01 -0.35479793001E+02 -0.79372534341E+02  0.87209432608E+02  0.00000000000E+00 0. -1.
          1    1    1    2  501    0  0.35105837267E+02 -0.82324086392E+02 -0.11587426596E+03  0.14641215975E+03  0.00000000000E+00 0. -1.
<scales pt_clust_5="13000.00000" pt_clust_6="13000.00000" pt_clust_7="13000.00000" pt_clust_8="13000.00000" pt_clust_9="26.81118" pt_clust_10="128.28777"></scales>
<clustering>
<clus scale="   26.811">  9 10 -1 -1</clus>
<clus scale="   79.764">  5  6 -1 -1</clus>
<clus scale="   93.591">  7  8 -1 -1</clus>
<clus scale="  128.288">  1  9  2 -1</clus>
<clus scale="  203.543">  1  5  2 -1</clus>
<clus scale="  128.288">  1  5  2 -1</clus>
</clustering>
</event>
<event>
10    4  0.3738096E-005  0.3083318E+03  0.7546771E-02  0.1110371E+00
          2   -1    0    0  503    0 -0.00000000000E+00  0.00000000000E+00  0.93807923604E+03  0.93807923604E+03  0.00000000000E+00 0. -1.
         21   -1    0    0  501  502  0.00000000000E+00 -0.00000000000E+00 -0.24877797494E+03  0.24877797494E+03  0.00000000000E+00 0. -1.
         24    2    1    2    0    0 -0.78956083801E+02 -0.87435167112E+02  0.39386492696E+02  0.14887170279E+03  0.82051913253E+02 0.  0.
         23    2    1    2    0    0  0.26478127235E+03  0.10444277739E+03  0.26543607339E+03  0.40032695627E+03  0.93744050073E+02 0.  0.
        -11    1    3    3    0    0 -0.83050029384E+02 -0.33933890055E+02  0.28378267866E+02  0.94096452442E+02  0.00000000000E+00 0.  1.
         12    1    3    3    0    0  0.40939455832E+01 -0.53501277057E+02  0.11008224831E+02  0.54775250351E+02  0.00000000000E+00 0. -1.
        -13    1    4    4    0    0  0.12070014483E+03  0.64890061576E+02  0.18623974227E+03  0.23122388859E+03  0.00000000000E+00 0. -1.
         13    1    4    4    0    0  0.14408112753E+03  0.39552715818E+02  0.79196331117E+02  0.16910306768E+03  0.00000000000E+00 0.  1.
         21    1    1    2  503  502  0.56719414776E+02  0.16758395943E+03  0.24565698332E+03  0.30273557591E+03  0.00000000000E+00 0. -1.
          1    1    1    2  501    0 -0.24254460333E+03 -0.18459156971E+03  0.13882171170E+03  0.33492297600E+03  0.00000000000E+00 0. -1.
<scales pt_clust_5="13000.00000" pt_clust_6="13000.00000" pt_clust_7="13000.00000" pt_clust_8="13000.00000" pt_clust_9="142.60181" pt_clust_10="293.73550"></scales>
<clustering>
<clus scale="   82.052">  5  6 -1 -1</clus>
<clus scale="   93.744">  7  8 -1 -1</clus>
<clus scale="  143.567">  1  5  2 -1</clus>
<clus scale="  142.602">  1  9  2 -1</clus>
<clus scale="  293.735">  2 10  1 -1</clus>
<clus scale="  293.735">  2  5  1 -1</clus>
</clustering>
</event>
<event>
10    4  0.3738096E-005  0.9118885E+02  0.7546771E-02  0.1305911E+00
          2   -1    0    0  503    0 -0.00000000000E+00  0.00000000000E+00  0.39485161017E+03  0.39485161017E+03  0.00000000000E+00 0. -1.
         21   -1    0    0  501  502  0.00000000000E+00 -0.00000000000E+00 -0.10766329607E+03  0.10766329607E+03  0.00000000000E+00 0. -1.
         24    2    1    2    0    0 -0.18981991314E+02  0.93450185367E+01  0.24749134809E+03  0.26092318439E+03  0.79883010758E+02 0.  0.
         23    2    1    2    0    0  0.16923075519E+02  0.43988606179E+01  0.15895265684E+02  0.92530567896E+02  0.89462316448E+02 0.  0.
        -13    1    3    3    0    0 -0.11867096782E+02 -0.35395583132E+02  0.11285011968E+03  0.11886473322E+03  0.00000000000E+00 0.  1.
         14    1    3    3    0    0 -0.71148945316E+01  0.44740601669E+02  0.13464122840E+03  0.14205845117E+03  0.00000000000E+00 0. -1.
        -13    1    4    4    0    0 -0.16693835915E+02 -0.15960235278E+02 -0.26209608741E+02  0.34933606428E+02  0.00000000000E+00 0.  1.
         13    1    4    4    0    0  0.33616911434E+02  0.20359095896E+02  0.42104874425E+02  0.57596961468E+02  0.00000000000E+00 0. -1.
         21    1    1    2  503  502  0.28679099221E+02  0.18430430220E+02  0.75360493896E+02  0.82712608050E+02  0.00000000000E+00 0.  1.
          1    1    1    2  501    0 -0.26620183426E+02 -0.32174309374E+02 -0.51558793567E+02  0.66348545903E+02  0.00000000000E+00 0. -1.
<scales pt_clust_5="13000.00000" pt_clust_6="13000.00000" pt_clust_7="13000.00000" pt_clust_8="13000.00000" pt_clust_9="34.09064" pt_clust_10="40.99921"></scales>
<clustering>
<clus scale="   34.091">  1  9  2 -1</clus>
<clus scale="   40.999">  2 10  1 -1</clus>
<clus scale="   79.883">  5  6 -1 -1</clus>
<clus scale="   81.812">  1  5  2 -1</clus>
<clus scale="   89.462">  7  8 -1 -1</clus>
<clus scale="   40.999">  2  5  1 -1</clus>
</clustering>
</event>
<event>
10    4  0.3738096E-005  0.9318585E+02  0.7546771E-02  0.1300205E+00
         21   -1    0    0  501  502  0.00000000000E+00  0.00000000000E+00  0.21561404507E+03  0.21561404507E+03  0.00000000000E+00 0.  1.
          2   -1    0    0  503    0 -0.00000000000E+00 -0.00000000000E+00 -0.26073132345E+03  0.26073132345E+03  0.00000000000E+00 0. -1.
         24    2    1    2    0    0 -0.11372009705E+02  0.20709200796E+02  0.35168021499E+02  0.92639042959E+02  0.82383304995E+02 0.  0.
         23    2    1    2    0    0 -0.65017006655E+02 -0.46515466878E+01  0.11960743768E+03  0.16364291844E+03  0.90687471925E+02 0.  0.
        -13    1    3    3    0    0 -0.18319122815E+02  0.44749178776E+02 -0.13470233442E+01  0.48372448085E+02  0.00000000000E+00 0.  1.
         14    1    3    3    0    0  0.69471131096E+01 -0.24039977980E+02  0.36515044843E+02  0.44266594874E+02  0.00000000000E+00 0. -1.
        -11    1    4    4    0    0 -0.85383457222E+02 -0.78887207913E+00  0.71901656865E+02  0.11162797743E+03  0.00000000000E+00 0.  1.
         11    1    4    4    0    0  0.20366450567E+02 -0.38626746086E+01  0.47705780820E+02  0.52014941002E+02  0.00000000000E+00 0. -1.
         21    1    1    2  503  502  0.17707517447E+02  0.13760206154E+02 -0.27205598983E+02  0.35256830027E+02  0.00000000000E+00 0. -1.
          1    1    1    2  501    0  0.58681498913E+02 -0.29817860262E+02 -0.17268713858E+03  0.18480657710E+03  0.00000000000E+00 0. -1.
<scales pt_clust_5="13000.00000" pt_clust_6="13000.00000" pt_clust_7="13000.00000" pt_clust_8="13000.00000" pt_clust_9="22.42542" pt_clust_10="74.94788"></scales>
<clustering>
<clus scale="   22.425">  2  9  1 -1</clus>
<clus scale="   74.948">  1 10  2 -1</clus>
<clus scale="   82.383">  5  6 -1 -1</clus>
<clus scale="   85.126">  2  5  1 -1</clus>
<clus scale="   90.687">  7  8 -1 -1</clus>
<clus scale="   74.948">  1  5  2 -1</clus>
</clustering>
</event>
<event>
10    4  0.3738096E-005  0.2713424E+03  0.7546771E-02  0.1100996E+00
          4   -1    0    0  503    0 -0.00000000000E+00  0.00000000000E+00  0.10166974792E+04  0.10166974792E+04  0.00000000000E+00 0. -1.
         21   -1    0    0  501  502  0.00000000000E+00 -0.00000000000E+00 -0.35332587937E+03  0.35332587937E+03  0.00000000000E+00 0.  1.
         24    2    1    2    0    0  0.24423609927E+02  0.22502135234E+03  0.27814035545E+03  0.36700183932E+03  0.78084383850E+02 0.  0.
         23    2    1    2    0    0 -0.27096038961E+03 -0.16243975261E+03 -0.36285688528E+02  0.33020570832E+03  0.88954778680E+02 0.  0.
        -11    1    3    3    0    0 -0.80026903093E+01  0.38913155743E+02  0.13717187533E+02  0.42029013501E+02  0.00000000000E+00 0.  1.
         12    1    3    3    0    0  0.32426300236E+02  0.18610819660E+03  0.26442316791E+03  0.32497282581E+03  0.00000000000E+00 0. -1.
        -11    1    4    4    0    0 -0.25884367503E+03 -0.12315207167E+03 -0.37402398642E+02  0.28907684149E+03  0.00000000000E+00 0.  1.
         11    1    4    4    0    0 -0.12116714584E+02 -0.39287680938E+02  0.11167101134E+01  0.41128866837E+02  0.00000000000E+00 0. -1.
         21    1    1    2  503  502  0.22619378285E+03 -0.83949155212E+02  0.51826321294E+03  0.57167109945E+03  0.00000000000E+00 0. -1.
          3    1    1    2  501    0  0.20342996841E+02  0.21367555476E+02 -0.96746280066E+02  0.10114471145E+03  0.00000000000E+00 0. -1.
<scales pt_clust_5="13000.00000" pt_clust_6="13000.00000" pt_clust_7="13000.00000" pt_clust_8="13000.00000" pt_clust_9="242.50806" pt_clust_10="29.50271"></scales>
<clustering>
<clus scale="   29.503">  2 10  1 -1</clus>
<clus scale="   78.084">  5  6 -1 -1</clus>
<clus scale="   88.955">  7  8 -1 -1</clus>
<clus scale="  242.508">  1  9  2 -1</clus>
<clus scale="  267.976">  1  5  2 -1</clus>
<clus scale="   29.503">  2  5  1 -1</clus>
</clustering>
</event>
<event>
10    4  0.3738096E-005  0.9759403E+02  0.7546771E-02  0.1292720E+00
         21   -1    0    0  501  502  0.00000000000E+00  0.00000000000E+00  0.38605453707E+03  0.38605453707E+03  0.00000000000E+00 0. -1.
          2   -1    0    0  503    0 -0.00000000000E+00 -0.00000000000E+00 -0.20460097637E+03  0.20460097637E+03  0.00000000000E+00 0. -1.
         23    2    1    2    0    0  0.16086187199E+02 -0.10513320965E+02 -0.70320507215E+02  0.11882348822E+03  0.93833641518E+02 0.  0.
         24    2    1    2    0    0  0.31125874049E+02 -0.21309098103E+02  0.57029786848E+02  0.10509020100E+03  0.79803859934E+02 0.  0.
        -13    1    4    4    0    0 -0.22754592661E+02 -0.85245731615E+01  0.40620762265E+02  0.47333774007E+02  0.00000000000E+00 0.  1.
         14    1    4    4    0    0  0.53880466710E+02 -0.12784524941E+02  0.16409024583E+02  0.57756426990E+02  0.00000000000E+00 0. -1.
        -13    1    3    3    0    0 -0.29530796972E+02 -0.17817090062E+02  0.23341490489E+00  0.34490160200E+02  0.00000000000E+00 0.  1.
         13    1    3    3    0    0  0.45616984171E+02  0.73037690971E+01 -0.70553922120E+02  0.84333328017E+02  0.00000000000E+00 0. -1.
         21    1    1    2  503  502 -0.29876474680E+02 -0.54250506916E+02 -0.66657309209E+02  0.90988560331E+02  0.00000000000E+00 0.  1.
          1    1    1    2  501    0 -0.17335586567E+02  0.86072925984E+02  0.26140159028E+03  0.27575326390E+03  0.00000000000E+00 0. -1.
<scales pt_clust_5="13000.00000" pt_clust_6="13000.00000" pt_clust_7="13000.00000" pt_clust_8="13000.00000" pt_clust_9="61.93320" pt_clust_10="85.13430"></scales>
<clustering>
<clus scale="   61.933">  2  9  1 -1</clus>
<clus scale="   79.804">  5  6 -1 -1</clus>
<clus scale="   85.134">  1 10  2 -1</clus>
<clus scale="   85.134">  1  5  2 -1</clus>
<clus scale="   93.834">  7  8 -1 -1</clus>
<clus scale="   85.134">  1  5  2 -1</clus>
</clustering>
</event>
<event>
10    4  0.3738096E-005  0.2711539E+03  0.7546771E-02  0.1105528E+00
         21   -1    0    0  501  502  0.00000000000E+00  0.00000000000E+00  0.28208069417E+03  0.28208069417E+03  0.00000000000E+00 0.  1.
          2   -1    0    0  503    0 -0.00000000000E+00 -0.00000000000E+00 -0.15286268148E+04  0.15286268148E+04  0.00000000000E+00 0. -1.
         24    2    1    2    0    0  0.18333653385E+03 -0.10085432905E+03 -0.27834995964E+03  0.35752749642E+03  0.81014383508E+02 0.  0.
         23    2    1    2    0    0  0.18778868940E+02 -0.22270024064E+03  0.77108607332E+02  0.26334321885E+03  0.11599944175E+03 0.  0.
        -11    1    3    3    0    0  0.18941603160E+03 -0.86600294524E+02 -0.26517022912E+03  0.33718436270E+03  0.00000000000E+00 0.  1.
         12    1    3    3    0    0 -0.60794977478E+01 -0.14254034523E+02 -0.13179730515E+02  0.20343133719E+02  0.00000000000E+00 0. -1.
        -11    1    4    4    0    0  0.30184294843E+02 -0.20537608575E+02  0.45612472244E+02  0.58424161486E+02  0.00000000000E+00 0. -1.
         11    1    4    4    0    0 -0.11405425903E+02 -0.20216263207E+03  0.31496135088E+02  0.20491905736E+03  0.00000000000E+00 0.  1.
         21    1    1    2  503  502  0.23205141876E+02 -0.73342550354E+02 -0.34836373887E+03  0.35675608314E+03  0.00000000000E+00 0. -1.
          1    1    1    2  501    0 -0.22532054467E+03  0.39689712004E+03 -0.69694102943E+03  0.83308071053E+03  0.00000000000E+00 0. -1.
<scales pt_clust_5="13000.00000" pt_clust_6="13000.00000" pt_clust_7="13000.00000" pt_clust_8="13000.00000" pt_clust_9="76.92599" pt_clust_10="245.08905"></scales>
<clustering>
<clus scale="   76.926">  2  9  1 -1</clus>
<clus scale="   81.014">  5  6 -1 -1</clus>
<clus scale="  115.999">  7  8 -1 -1</clus>
<clus scale="  238.913">  2  5  1 -1</clus>
<clus scale="  245.089">  1 10  2 -1</clus>
<clus scale="  245.089">  1  5  2 -1</clus>
</clustering>
</event>
<event>
10    4  0.3738096E-005  0.1141612E+03  0.7546771E-02  0.1261437E+00
          2   -1    0    0  503    0 -0.00000000000E+00  0.00000000000E+00  0.20415258923E+03  0.20415258923E+03  0.00000000000E+00 0. -1.
         21   -1    0    0  501  502  0.00000000000E+00 -0.00000000000E+00 -0.31737372889E+03  0.31737372889E+03  0.00000000000E+00 0.  1.
         24    2    1    2    0    0  0.72546096186E+02 -0.47907769167E+02 -0.75310255117E+01  0.11257514157E+03  0.71122118475E+02 0.  0.
         23    2    1    2    0    0 -0.13340758155E+02  0.56411484132E+02 -0.58780572327E+02  0.12468765105E+03  0.93443155289E+02 0.  0.
        -11    1    3    3    0    0  0.48343860796E+02 -0.18293890154E+02  0.29352456153E+02  0.59442089262E+02  0.00000000000E+00 0.  1.
         12    1    3    3    0    0  0.24202235391E+02 -0.29613879013E+02 -0.36883481665E+02  0.53133052311E+02  0.00000000000E+00 0. -1.
        -11    1    4    4    0    0  0.35936637417E+02  0.21863457113E+02 -0.22590317829E+01  0.42125477924E+02  0.00000000000E+00 0. -1.
         11    1    4    4    0    0 -0.49277395572E+02  0.34548027019E+02 -0.56521540544E+02  0.82562173122E+02  0.00000000000E+00 0.  1.
         21    1    1    2  503  502 -0.65496252009E+01  0.37358120127E+02  0.10793368921E+03  0.11440370621E+03  0.00000000000E+00 0. -1.
          1    1    1    2  501    0 -0.52655712831E+02 -0.45861835092E+02 -0.15484323103E+03  0.16985981929E+03  0.00000000000E+00 0. -1.
<scales pt_clust_5="13000.00000" pt_clust_6="13000.00000" pt_clust_7="13000.00000" pt_clust_8="13000.00000" pt_clust_9="37.92791" pt_clust_10="68.29578"></scales>
<clustering>
<clus scale="   37.928">  1  9  2 -1</clus>
<clus scale="   68.296">  2 10  1 -1</clus>
<clus scale="   71.122">  5  6 -1 -1</clus>
<clus scale="   93.443">  7  8 -1 -1</clus>
<clus scale="   96.745">  1  5  2 -1</clus>
<clus scale="   68.296">  2  5  1 -1</clus>
</clustering>
</event>
<event>
10    4  0.3738096E-005  0.1283778E+03  0.7546771E-02  0.1232228E+00
         -1   -1    0    0    0  501 -0.00000000000E+00  0.00000000000E+00  0.41219505452E+03  0.41219505452E+03  0.00000000000E+00 0.  1.
         21   -1    0    0  503  502  0.00000000000E+00 -0.00000000000E+00 -0.82209858421E+02  0.82209858421E+02  0.00000000000E+00 0. -1.
         23    2    1    2    0    0  0.97719176631E+02 -0.10061131968E+02  0.97860115362E+02  0.16591674296E+03  0.91112565306E+02 0.  0.
         24    2    1    2    0    0 -0.86638865735E+02 -0.36396708500E+02  0.77273483573E+02  0.14691730547E+03  0.82355873725E+02 0.  0.
        -13    1    4    4    0    0 -0.32736960777E+02  0.14254165921E+02 -0.52588667678E+01  0.36090795595E+02  0.00000000000E+00 0.  1.
         14    1    4    4    0    0 -0.53901904958E+02 -0.50650874421E+02  0.82532350341E+02  0.11082650987E+03  0.00000000000E+00 0. -1.
        -11    1    3    3    0    0  0.18114572774E+02  0.28560572771E+02 -0.22465186900E+00  0.33821509905E+02  0.00000000000E+00 0.  1.
         11    1    3    3    0    0  0.79604603857E+02 -0.38621704739E+02  0.98084767231E+02  0.13209523305E+03  0.00000000000E+00 0. -1.
         21    1    1    2  503  501 -0.42424992349E+02  0.11288364016E+02  0.49483973125E+02  0.66151120430E+02  0.00000000000E+00 0.  1.
         -2    1    1    2    0  502  0.31344681452E+02  0.35169476452E+02  0.10536762404E+03  0.11541974408E+03  0.00000000000E+00 0.  1.
<scales pt_clust_5="13000.00000" pt_clust_6="13000.00000" pt_clust_7="13000.00000" pt_clust_8="13000.00000" pt_clust_9="43.90111" pt_clust_10="42.72300"></scales>
<clustering>
<clus scale="   43.901">  1  9  2 -1</clus>
<clus scale="   42.723">  2 10  1 -1</clus>
<clus scale="   82.356">  5  6 -1 -1</clus>
<clus scale="   91.113">  7  8 -1 -1</clus>
<clus scale="  122.319">  2  5  1 -1</clus>
<clus scale="   42.723">  2  5  1 -1</clus>
</clustering>
</event>
<event>
10    4  0.3738096E-005  0.1729259E+03  0.7546771E-02  0.1199600E+00
          2   -1    0    0  503    0 -0.00000000000E+00  0.00000000000E+00  0.63175022449E+03  0.63175022449E+03  0.00000000000E+00 0. -1.
         21   -1    0    0  501  502  0.00000000000E+00 -0.00000000000E+00 -0.26641303653E+03  0.26641303653E+03  0.00000000000E+00 0.  1.
         24    2    1    2    0    0 -0.69129506514E+02 -0.13058389290E+03  0.84786235546E+01  0.16844355451E+03  0.80438188951E+02 0.  0.
         23    2    1    2    0    0  0.62102851412E+02 -0.13131895482E+02 -0.63637295110E+02  0.12624609241E+03  0.88651901774E+02 0.  0.
        -11    1    3    3    0    0 -0.27233595998E+02 -0.91113311192E+02 -0.29400811222E+02  0.99537490062E+02  0.00000000000E+00 0.  1.
         12    1    3    3    0    0 -0.41895910516E+02 -0.39470581711E+02  0.37879434777E+02  0.68906064447E+02  0.00000000000E+00 0. -1.
        -11    1    4    4    0    0  0.32968181921E+02  0.17028349455E+02  0.12641617388E+02  0.39200461662E+02  0.00000000000E+00 0. -1.
         11    1    4    4    0    0  0.29134669491E+02 -0.30160244937E+02 -0.76278912498E+02  0.87045630751E+02  0.00000000000E+00 0.  1.
         21    1    1    2  503  502  0.44206695132E+02  0.14775141610E+03  0.49588737168E+03  0.51931589446E+03  0.00000000000E+00 0. -1.
          1    1    1    2  501    0 -0.37180040031E+02 -0.40356277121E+01 -0.75391512163E+02  0.84157719634E+02  0.00000000000E+00 0. -1.
<scales pt_clust_5="13000.00000" pt_clust_6="13000.00000" pt_clust_7="13000.00000" pt_clust_8="13000.00000" pt_clust_9="153.07866" pt_clust_10="37.39842"></scales>
<clustering>
<clus scale="   37.398">  2 10  1 -1</clus>
<clus scale="   80.438">  5  6 -1 -1</clus>
<clus scale="   88.652">  7  8 -1 -1</clus>
<clus scale="   99.775">  2  7  1 -1</clus>
<clus scale="  153.079">  1  9  2 -1</clus>
<clus scale="   37.398">  2  5  1 -1</clus>
</clustering>
</event>
<event>
10    4  0.3738096E-005  0.3505178E+03  0.7546771E-02  0.1062403E+00
          2   -1    0    0  503    0 -0.00000000000E+00  0.00000000000E+00  0.14371029695E+04  0.14371029695E+04  0.00000000000E+00 0. -1.
         21   -1    0    0  501  502  0.00000000000E+00 -0.00000000000E+00 -0.84080323476E+02  0.84080323476E+02  0.00000000000E+00 0.  1.
         24    2    1    2    0    0 -0.54416641060E+02 -0.17083123006E+03  0.32124328198E+03  0.37637691334E+03  0.79484933718E+02 0.  0.
         23    2    1    2    0    0 -0.51400899738E+02 -0.85672767996E+02  0.13436192020E+03  0.19105224905E+03  0.92010654798E+02 0.  0.
        -11    1    3    3    0    0 -0.35522372658E+02 -0.17340928660E+03  0.28773715034E+03  0.33782434389E+03  0.00000000000E+00 0.  1.
         12    1    3    3    0    0 -0.18894268402E+02  0.25780565315E+01  0.33506131637E+02  0.38552569450E+02  0.00000000000E+00 0. -1.
        -13    1    4    4    0    0 -0.61402955480E+02 -0.64622561732E+02  0.14100378678E+03  0.16681866297E+03  0.00000000000E+00 0. -1.
         13    1    4    4    0    0  0.10002055742E+02 -0.21050206264E+02 -0.66418665800E+01  0.24233586084E+02  0.00000000000E+00 0.  1.
         21    1    1    2  503  502 -0.23460141249E+01 -0.22355694746E+02  0.43430020858E+02  0.48902429199E+02  0.00000000000E+00 0.  1.
          1    1    1    2  501    0  0.10816355492E+03  0.27885969281E+03  0.85398742295E+03  0.90485170136E+03  0.00000000000E+00 0. -1.
<scales pt_clust_5="13000.00000" pt_clust_6="13000.00000" pt_clust_7="13000.00000" pt_clust_8="13000.00000" pt_clust_9="22.47845" pt_clust_10="292.32639"></scales>
<clustering>
<clus scale="   22.478">  2  9  1 -1</clus>
<clus scale="   79.485">  5  6 -1 -1</clus>
<clus scale="   92.011">  7  8 -1 -1</clus>
<clus scale="  110.421">  5  7 -1 -1</clus>
<clus scale="  292.326">  2 10  1 -1</clus>
<clus scale="   22.478">  2  5  1 -1</clus>
</clustering>
</event>
<event>
10    4  0.3738096E-005  0.3802697E+03  0.7546771E-02  0.1101997E+00
          2   -1    0    0  503    0 -0.00000000000E+00  0.00000000000E+00  0.28300550150E+03  0.28300550150E+03  0.00000000000E+00 0. -1.
         21   -1    0    0  501  502  0.00000000000E+00 -0.00000000000E+00 -0.12292630220E+04  0.12292630220E+04  0.00000000000E+00 0. -1.
         23    2    1    2    0    0  0.34902676191E+02  0.28464552588E+02  0.48611511416E+02  0.10777089975E+03  0.84988588835E+02 0.  0.
         24    2    1    2    0    0 -0.32396726668E+03 -0.19762822540E+03 -0.94257623846E+03  0.10192858048E+04  0.80510130703E+02 0.  0.
        -13    1    4    4    0    0 -0.20198266520E+03 -0.77501068741E+02 -0.50337208142E+03  0.54789311462E+03  0.00000000000E+00 0.  1.
         14    1    4    4    0    0 -0.12198460148E+03 -0.12012715666E+03 -0.43920415704E+03  0.47139269015E+03  0.00000000000E+00 0. -1.
        -13    1    3    3    0    0  0.58721039297E+02  0.17648926619E+02  0.53241535672E+02  0.81205333492E+02  0.00000000000E+00 0.  1.
         13    1    3    3    0    0 -0.23818363106E+02  0.10815625969E+02 -0.46300242561E+01  0.26565566261E+02  0.00000000000E+00 0. -1.
         21    1    1    2  503  502  0.64977004757E+01 -0.26393371599E+02  0.20381175617E+02  0.33973850170E+02  0.00000000000E+00 0.  1.
          1    1    1    2  501    0  0.28256689001E+03  0.19555704441E+03 -0.72673969086E+02  0.35123796881E+03  0.00000000000E+00 0. -1.
<scales pt_clust_5="13000.00000" pt_clust_6="13000.00000" pt_clust_7="13000.00000" pt_clust_8="13000.00000" pt_clust_9="27.18143" pt_clust_10="371.64940"></scales>
<clustering>
<clus scale="   27.181">  1  9  2 -1</clus>
<clus scale="   80.510">  5  6 -1 -1</clus>
<clus scale="   84.989">  7  8 -1 -1</clus>
<clus scale="   94.868">  1  7  2 -1</clus>
<clus scale="  371.649">  2 10  1 -1</clus>
<clus scale="  371.649">  2  5  1 -1</clus>
</clustering>
</event>
<event>
10    4  0.3738096E-005  0.1001903E+03  0.7546771E-02  0.1284873E+00
          2   -1    0    0  503    0 -0.00000000000E+00  0.00000000000E+00  0.57794092684E+02  0.57794092684E+02  0.00000000000E+00 0. -1.
         21   -1    0    0  501  502  0.00000000000E+00 -0.00000000000E+00 -0.46506385832E+03  0.46506385832E+03  0.00000000000E+00 0.  1.
         24    2    1    2    0    0  0.27263905570E+02 -0.40645538307E+02 -0.21852060601E+02  0.95772668563E+02  0.79369459870E+02 0.  0.
         23    2    1    2    0    0 -0.17734746795E+02  0.18987311113E+02 -0.20778200703E+03  0.22775869782E+03  0.89585840175E+02 0.  0.
        -11    1    3    3    0    0  0.39855397866E+02  0.99560372552E+01 -0.86056218832E+01  0.41971801783E+02  0.00000000000E+00 0.  1.
         12    1    3    3    0    0 -0.12591492296E+02 -0.50601575562E+02 -0.13246438718E+02  0.53800866780E+02  0.00000000000E+00 0. -1.
        -13    1    4    4    0    0 -0.33033878062E+02 -0.14597128850E+02 -0.17405975683E+03  0.17776701667E+03  0.00000000000E+00 0.  1.
         13    1    4    4    0    0  0.15299131267E+02  0.33584439962E+02 -0.33722250207E+02  0.49991681149E+02  0.00000000000E+00 0. -1.
         21    1    1    2  503  502  0.21204166024E+02  0.15528992164E+02 -0.89651261885E+01  0.27769402982E+02  0.00000000000E+00 0.  1.
          1    1    1    2  501    0 -0.30733324798E+02  0.61292350306E+01 -0.16867057182E+03  0.17155718164E+03  0.00000000000E+00 0. -1.
<scales pt_clust_5="13000.00000" pt_clust_6="13000.00000" pt_clust_7="13000.00000" pt_clust_8="13000.00000" pt_clust_9="26.28243" pt_clust_10="30.81435"></scales>
<clustering>
<clus scale="   26.282">  1  9  2 -1</clus>
<clus scale="   30.814">  2 10  1 -1</clus>
<clus scale="   79.369">  5  6 -1 -1</clus>
<clus scale="   89.586">  7  8 -1 -1</clus>
<clus scale="   91.170">  1  5  2 -1</clus>
<clus scale="   30.814">  2  5  1 -1</clus>
</clustering>
</event>
<event>
10    4  0.3738096E-005  0.2185420E+03  0.7546771E-02  0.1136676E+00
          2   -1    0    0  503    0 -0.00000000000E+00  0.00000000000E+00  0.58717691243E+03  0.58717691243E+03  0.00000000000E+00 0. -1.
         21   -1    0    0  501  502  0.00000000000E+00 -0.00000000000E+00 -0.34011063083E+03  0.34011063083E+03  0.00000000000E+00 0. -1.
         24    2    1    2    0    0  0.13987555324E+03  0.14359860146E+03  0.46554759795E+03  0.51320778814E+03  0.80386187346E+02 0.  0.
         23    2    1    2    0    0 -0.17210861379E+03 -0.11720368055E+03 -0.15131595625E+03  0.27659859689E+03  0.10125308641E+03 0.  0.
        -11    1    3    3    0    0  0.51128518601E+02  0.55357830911E+01  0.97790271288E+02  0.11048849473E+03  0.00000000000E+00 0.  1.
         12    1    3    3    0    0  0.88747034637E+02  0.13806281837E+03  0.36775732666E+03  0.40271929341E+03  0.00000000000E+00 0. -1.
        -11    1    4    4    0    0 -0.15946252624E+03 -0.97373032814E+02 -0.16510219342E+03  0.24933619686E+03  0.00000000000E+00 0. -1.
         11    1    4    4    0    0 -0.12646087547E+02 -0.19830647739E+02  0.13786237163E+02  0.27262400024E+02  0.00000000000E+00 0.  1.
         21    1    1    2  503  502 -0.22408143171E+02  0.79395844950E+01  0.18574622472E+02  0.30169164428E+02  0.00000000000E+00 0.  1.
          1    1    1    2  501    0  0.54641203720E+02 -0.34334505401E+02 -0.85739982565E+02  0.10731199381E+03  0.00000000000E+00 0. -1.
<scales pt_clust_5="13000.00000" pt_clust_6="13000.00000" pt_clust_7="13000.00000" pt_clust_8="13000.00000" pt_clust_9="23.77313" pt_clust_10="64.08859"></scales>
<clustering>
<clus scale="   23.773">  1  9  2 -1</clus>
<clus scale="   64.089">  2 10  1 -1</clus>
<clus scale="   80.386">  5  6 -1 -1</clus>
<clus scale="  101.253">  7  8 -1 -1</clus>
<clus scale="  209.691">  1  5  2 -1</clus>
<clus scale="   64.089">  2  5  1 -1</clus>
</clustering>
</event>
<event>
10    4  0.3738096E-005  0.1131840E+03  0.7546771E-02  0.1258719E+00
         21   -1    0    0  503  502  0.00000000000E+00  0.00000000000E+00  0.17241844371E+03  0.17241844371E+03  0.00000000000E+00 0.  1.
         -1   -1    0    0    0  501 -0.00000000000E+00 -0.00000000000E+00 -0.20143081899E+03  0.20143081899E+03  0.00000000000E+00 0.  1.
         24    2    1    2    0    0 -0.84922098067E+01 -0.56495975168E+02 -0.44835520963E+02  0.10791613200E+03  0.79823272090E+02 0.  0.
         23    2    1    2    0    0 -0.12465654038E+02  0.10042637847E+03  0.44457390613E+02  0.14294576609E+03  0.90643159912E+02 0.  0.
        -11    1    3    3    0    0 -0.27666052644E+02 -0.60377118632E+02 -0.89090550330E+01  0.67008791847E+02  0.00000000000E+00 0.  1.
         12    1    3    3    0    0  0.19173842838E+02  0.38811434641E+01 -0.35926465930E+02  0.40907340148E+02  0.00000000000E+00 0. -1.
        -11    1    4    4    0    0 -0.50042061192E+02  0.47420772415E+02  0.10833999069E+02  0.69787628421E+02  0.00000000000E+00 0.  1.
         11    1    4    4    0    0  0.37576407154E+02  0.53005606058E+02  0.33623391544E+02  0.73158137668E+02  0.00000000000E+00 0. -1.
         21    1    1    2  503  501 -0.24464352682E+02  0.33145011007E+01 -0.48569884461E+02  0.54484164178E+02  0.00000000000E+00 0.  1.
         -2    1    1    2    0  502  0.45422216527E+02 -0.47244904406E+02  0.19935639537E+02  0.68503200438E+02  0.00000000000E+00 0.  1.
<scales pt_clust_5="13000.00000" pt_clust_6="13000.00000" pt_clust_7="13000.00000" pt_clust_8="13000.00000" pt_clust_9="24.68786" pt_clust_10="62.45391"></scales>
<clustering>
<clus scale="   24.688">  2  9  1 -1</clus>
<clus scale="   62.454">  1 10  2 -1</clus>
<clus scale="   79.823">  5  6 -1 -1</clus>
<clus scale="   90.643">  7  8 -1 -1</clus>
<clus scale="  104.720">  2  5  1 -1</clus>
<clus scale="   62.454">  1  5  2 -1</clus>
</clustering>
</event>
<event>
10    4  0.3738096E-005  0.1457625E+03  0.7546771E-02  0.1208034E+00
         21   -1    0    0  503  502  0.00000000000E+00  0.00000000000E+00  0.43325069085E+03  0.43325069085E+03  0.00000000000E+00 0.  1.
         -1   -1    0    0    0  501 -0.00000000000E+00 -0.00000000000E+00 -0.99715552726E+02  0.99715552726E+02  0.00000000000E+00 0.  1.
         24    2    1    2    0    0  0.11285851586E+03 -0.25671395047E+02  0.12413630513E+03  0.18752160904E+03  0.79739992959E+02 0.  0.
         23    2    1    2    0    0 -0.79966587278E+02  0.89390850815E+02  0.18929150485E+03  0.24194090801E+03  0.91207181030E+02 0.  0.
        -11    1    3    3    0    0  0.81563000349E+02 -0.26444608031E+02  0.12994311634E+03  0.15568254175E+03  0.00000000000E+00 0.  1.
         12    1    3    3    0    0  0.31295515516E+02  0.77321298487E+00 -0.58068112064E+01  0.31839067293E+02  0.00000000000E+00 0. -1.
        -11    1    4    4    0    0 -0.69706241154E+02  0.62238585013E+02  0.19123883300E+03  0.21284946034E+03  0.00000000000E+00 0. -1.
         11    1    4    4    0    0 -0.10260346124E+02  0.27152265802E+02 -0.19473281497E+01  0.29091447673E+02  0.00000000000E+00 0.  1.
         21    1    1    2  503  501 -0.83472188700E+01 -0.63830626107E+02 -0.94716150222E+01  0.65067168244E+02  0.00000000000E+00 0.  1.
         -2    1    1    2    0  502 -0.24544709717E+02  0.11117033829E+00  0.29578943167E+02  0.38436558285E+02  0.00000000000E+00 0.  1.
<scales pt_clust_5="13000.00000" pt_clust_6="13000.00000" pt_clust_7="13000.00000" pt_clust_8="13000.00000" pt_clust_9="64.61027" pt_clust_10="24.54496"></scales>
<clustering>
<clus scale="   24.545">  1 10  2 -1</clus>
<clus scale="   64.610">  2  9  1 -1</clus>
<clus scale="   79.740">  5  6 -1 -1</clus>
<clus scale="   91.207">  7  8 -1 -1</clus>
<clus scale="  138.876">  2  5  1 -1</clus>
<clus scale="   24.545">  1  5  2 -1</clus>
</clustering>
</event>
<event>
10    4  0.3738096E-005  0.1046694E+03  0.7546771E-02  0.1271631E+00
          2   -1    0    0  503    0 -0.00000000000E+00  0.00000000000E+00  0.97789584737E+03  0.97789584737E+03  0.00000000000E+00 0. -1.
         21   -1    0    0  501  502  0.00000000000E+00 -0.00000000000E+00 -0.28072998097E+03  0.28072998097E+03  0.00000000000E+00 0.  1.
         23    2    1    2    0    0  0.47554818681E+02  0.26437351938E+02  0.25738938867E+03  0.27763678248E+03  0.88727060293E+02 0.  0.
         24    2    1    2    0    0  0.97613230975E+02  0.47645993535E+02 -0.20045334462E+03  0.24221358711E+03  0.81776493259E+02 0.  0.
        -11    1    4    4    0    0  0.83249181613E+02  0.18448301888E+02 -0.18963352126E+03  0.20792219331E+03  0.00000000000E+00 0.  1.
         12    1    4    4    0    0  0.14364049362E+02  0.29197691647E+02 -0.10819823357E+02  0.34291393805E+02  0.00000000000E+00 0. -1.
        -13    1    3    3    0    0  0.64768194928E+02  0.44405450804E+02  0.18112806252E+03  0.19741868748E+03  0.00000000000E+00 0.  1.
         13    1    3    3    0    0 -0.17213376247E+02 -0.17968098865E+02  0.76261326149E+02  0.80218094995E+02  0.00000000000E+00 0. -1.
         21    1    1    2  503  502 -0.10710873518E+03 -0.36740409173E+02  0.66877629202E+03  0.67829482350E+03  0.00000000000E+00 0. -1.
          1    1    1    2  501    0 -0.38059314477E+02 -0.37342936301E+02 -0.28546469665E+02  0.60480635251E+02  0.00000000000E+00 0. -1.
<scales pt_clust_5="13000.00000" pt_clust_6="13000.00000" pt_clust_7="13000.00000" pt_clust_8="13000.00000" pt_clust_9="65.33221" pt_clust_10="53.31985"></scales>
<clustering>
<clus scale="   53.320">  2 10  1 -1</clus>
<clus scale="   81.776">  5  6 -1 -1</clus>
<clus scale="   88.727">  7  8 -1 -1</clus>
<clus scale="  102.948">  1  7  2 -1</clus>
<clus scale="   65.332">  1  9  2 -1</clus>
<clus scale="   53.320">  2  5  1 -1</clus>
</clustering>
</event>
<event>
10    4  0.3738096E-005  0.4526430E+03  0.7546771E-02  0.1026937E+00
          2   -1    0    0  503    0 -0.00000000000E+00  0.00000000000E+00  0.55963871259E+03  0.55963871259E+03  0.00000000000E+00 0. -1.
         21   -1    0    0  501  502  0.00000000000E+00 -0.00000000000E+00 -0.44419060418E+03  0.44419060418E+03  0.00000000000E+00 0. -1.
         24    2    1    2    0    0  0.47906376560E+02 -0.15515547718E+03  0.10591817687E+03  0.20981298383E+03  0.80215864886E+02 0.  0.
         23    2    1    2    0    0  0.11293136335E+03 -0.21118279036E+03  0.17395453715E+03  0.30939636407E+03  0.90079217002E+02 0.  0.
        -13    1    3    3    0    0 -0.20133513354E+02 -0.16273227272E+02  0.21296776549E+02  0.33522067018E+02  0.00000000000E+00 0.  1.
         14    1    3    3    0    0  0.68039889914E+02 -0.13888224991E+03  0.84621400326E+02  0.17629091682E+03  0.00000000000E+00 0. -1.
        -11    1    4    4    0    0  0.35826318183E+02 -0.28417441049E+02  0.25328432923E+00  0.45728986248E+02  0.00000000000E+00 0. -1.
         11    1    4    4    0    0  0.77105045166E+02 -0.18276534931E+03  0.17370125282E+03  0.26366737783E+03  0.00000000000E+00 0.  1.
         21    1    1    2  503  502  0.27208005944E+01 -0.23412029785E+02  0.12179866551E+02  0.26530643485E+02  0.00000000000E+00 0.  1.
          1    1    1    2  501    0 -0.16355854050E+03  0.38975029732E+03 -0.17660447216E+03  0.45808932538E+03  0.00000000000E+00 0. -1.
<scales pt_clust_5="13000.00000" pt_clust_6="13000.00000" pt_clust_7="13000.00000" pt_clust_8="13000.00000" pt_clust_9="23.56960" pt_clust_10="416.78357"></scales>
<clustering>
<clus scale="   23.570">  1  9  2 -1</clus>
<clus scale="   80.216">  5  6 -1 -1</clus>
<clus scale="   90.079">  7  8 -1 -1</clus>
<clus scale="   95.899">  5  7 -1 -1</clus>
<clus scale="  416.784">  2 10  1 -1</clus>
<clus scale="  416.784">  2  5  1 -1</clus>
</clustering>
</event>
<event>
10    4  0.3738096E-005  0.1932079E+03  0.7546771E-02  0.1156570E+00
          2   -1    0    0  503    0 -0.00000000000E+00  0.00000000000E+00  0.13460234837E+04  0.13460234837E+04  0.00000000000E+00 0. -1.
         21   -1    0    0  501  502  0.00000000000E+00 -0.00000000000E+00 -0.68885048088E+02  0.68885048088E+02  0.00000000000E+00 0. -1.
         23    2    1    2    0    0 -0.23812602140E+02  0.18359017237E+03  0.74349556221E+03  0.77148663859E+03  0.90186424021E+02 0.  0.
         24    2    1    2    0    0  0.14555518814E+02 -0.15742543743E+03  0.37671894473E+03  0.41639480874E+03  0.80453974135E+02 0.  0.
        -13    1    4    4    0    0  0.19549093113E+02 -0.11278509516E+03  0.17063609279E+03  0.20547340678E+03  0.00000000000E+00 0.  1.
         14    1    4    4    0    0 -0.49935742983E+01 -0.44640342264E+02  0.20608285194E+03  0.21092140196E+03  0.00000000000E+00 0. -1.
        -11    1    3    3    0    0 -0.14536795336E+02  0.13295276440E+03  0.65985540291E+03  0.67327327938E+03  0.00000000000E+00 0.  1.
         11    1    3    3    0    0 -0.92758068039E+01  0.50637407977E+02  0.83640159298E+02  0.98213359203E+02  0.00000000000E+00 0. -1.
         21    1    1    2  503  502 -0.19840211380E+02 -0.16691668596E+02  0.18421140191E+03  0.18602711195E+03  0.00000000000E+00 0.  1.
          1    1    1    2  501    0  0.29097294706E+02 -0.94730663527E+01 -0.27287473270E+02  0.40999972473E+02  0.00000000000E+00 0. -1.
<scales pt_clust_5="13000.00000" pt_clust_6="13000.00000" pt_clust_7="13000.00000" pt_clust_8="13000.00000" pt_clust_9="25.92770" pt_clust_10="30.51989"></scales>
<clustering>
<clus scale="   25.928">  1  9  2 -1</clus>
<clus scale="   30.520">  2 10  1 -1</clus>
<clus scale="   80.454">  5  6 -1 -1</clus>
<clus scale="   90.186">  7  8 -1 -1</clus>
<clus scale="  188.861">  2  5  1 -1</clus>
<clus scale="   30.520">  2  5  1 -1</clus>
</clustering>
</event>
<event>
10    4  0.3738096E-005  0.1990410E+03  0.7546771E-02  0.1184547E+00
          2   -1    0    0  503    0 -0.00000000000E+00  0.00000000000E+00  0.15321433214E+04  0.15321433214E+04  0.00000000000E+00 0. -1.
         21   -1    0    0  501  502  0.00000000000E+00 -0.00000000000E+00 -0.76799203755E+02  0.76799203755E+02  0.00000000000E+00 0. -1.
         24    2    1    2    0    0 -0.35466021446E+02 -0.17672065462E+02  0.41670690276E+03  0.42670122388E+03  0.82819992048E+02 0.  0.
         23    2    1    2    0    0 -0.10750139323E+02 -0.12729068753E+03  0.14314996920E+03  0.21271688734E+03  0.91858999844E+02 0.  0.
        -11    1    3    3    0    0 -0.24188927184E+02 -0.50958220375E+02  0.27204326579E+03  0.27782977321E+03  0.00000000000E+00 0.  1.
         12    1    3    3    0    0 -0.11277094262E+02  0.33286154913E+02  0.14466363697E+03  0.14887145067E+03  0.00000000000E+00 0. -1.
        -13    1    4    4    0    0  0.21956474273E+02 -0.32623241255E+01  0.24623214655E+01  0.22333664012E+02  0.00000000000E+00 0. -1.
         13    1    4    4    0    0 -0.32706613596E+02 -0.12402836340E+03  0.14068764773E+03  0.19038322333E+03  0.00000000000E+00 0.  1.
         21    1    1    2  503  502 -0.12258730029E+02  0.20641354540E+03  0.84688035267E+03  0.87175865922E+03  0.00000000000E+00 0. -1.
          1    1    1    2  501    0  0.58474890798E+02 -0.61450792409E+02  0.48606892980E+02  0.97765754673E+02  0.00000000000E+00 0. -1.
<scales pt_clust_5="13000.00000" pt_clust_6="13000.00000" pt_clust_7="13000.00000" pt_clust_8="13000.00000" pt_clust_9="176.57649" pt_clust_10="84.82637"></scales>
<clustering>
<clus scale="   82.820">  5  6 -1 -1</clus>
<clus scale="   84.826">  2 10  1 -1</clus>
<clus scale="   91.138">  1  5  2 -1</clus>
<clus scale="   91.859">  7  8 -1 -1</clus>
<clus scale="  176.576">  1  9  2 -1</clus>
<clus scale="   84.826">  2  5  1 -1</clus>
</clustering>
</event>
<event>
10    4  0.3738096E-005  0.9143063E+02  0.7546771E-02  0.1304345E+00
          2   -1    0    0  502    0 -0.00000000000E+00  0.00000000000E+00  0.62579466406E+03  0.62579466406E+03  0.00000000000E+00 0. -1.
         21   -1    0    0  503  502  0.00000000000E+00 -0.00000000000E+00 -0.42158743596E+02  0.42158743596E+02  0.00000000000E+00 0.  1.
         24    2    1    2    0    0 -0.12096205664E+02 -0.35369702932E+01  0.29372801677E+03  0.30515315264E+03  0.81752494622E+02 0.  0.
         23    2    1    2    0    0  0.29888567457E+02  0.36061919083E+02  0.49896184598E+02  0.11291771197E+03  0.89816434840E+02 0.  0.
        -11    1    3    3    0    0  0.60789316384E+01  0.27461819182E+02  0.40033332203E+02  0.48926195539E+02  0.00000000000E+00 0.  1.
         12    1    3    3    0    0 -0.18175137302E+02 -0.30998789475E+02  0.25369468457E+03  0.25622695710E+03  0.00000000000E+00 0. -1.
        -11    1    4    4    0    0  0.20943954798E+02  0.60792072300E+02  0.99088098278E+01  0.65057742117E+02  0.00000000000E+00 0.  1.
         11    1    4    4    0    0  0.89446126593E+01 -0.24730153217E+02  0.39987374770E+02  0.47859969858E+02  0.00000000000E+00 0. -1.
         21    1    1    2  503  501  0.14123861123E+02 -0.16931640457E+02  0.32007408905E+02  0.38866928440E+02  0.00000000000E+00 0. -1.
          1    1    1    2  501    0 -0.31916222917E+02 -0.15593308333E+02  0.20800431019E+03  0.21101561460E+03  0.00000000000E+00 0. -1.
<scales pt_clust_5="13000.00000" pt_clust_6="13000.00000" pt_clust_7="13000.00000" pt_clust_8="13000.00000" pt_clust_9="22.04912" pt_clust_10="35.32720"></scales>
<clustering>
<clus scale="   22.049">  2  9  1 -1</clus>
<clus scale="   35.327">  2 10  1 -1</clus>
<clus scale="   81.752">  5  6 -1 -1</clus>
<clus scale="   83.523">  1  5  2 -1</clus>
<clus scale="   89.816">  7  8 -1 -1</clus>
<clus scale="   22.049">  2  5  1 -1</clus>
</clustering>
</event>
<event>
10    4  0.3738096E-005  0.1106269E+03  0.7546771E-02  0.1260705E+00
         21   -1    0    0  501  502  0.00000000000E+00  0.00000000000E+00  0.19012864135E+03  0.19012864135E+03  0.00000000000E+00 0. -1.
          2   -1    0    0  503    0 -0.00000000000E+00 -0.00000000000E+00 -0.24126425095E+03  0.24126425095E+03  0.00000000000E+00 0. -1.
         24    2    1    2    0    0 -0.45939549888E+02 -0.13362926582E+02 -0.40611214873E+02  0.11397559119E+03  0.95142811406E+02 0.  0.
         23    2    1    2    0    0  0.40202983111E+02 -0.52357047231E+02  0.87418177615E+02  0.14298878642E+03  0.91903835716E+02 0.  0.
        -13    1    3    3    0    0 -0.67753923354E+02 -0.11154083753E+02 -0.54805782469E+02  0.87856027148E+02  0.00000000000E+00 0.  1.
         14    1    3    3    0    0  0.21814373466E+02 -0.22088428298E+01  0.14194567596E+02  0.26119564039E+02  0.00000000000E+00 0. -1.
        -11    1    4    4    0    0  0.60723547054E+02 -0.21964972357E+02  0.22412570198E+02  0.68352999059E+02  0.00000000000E+00 0.  1.
         11    1    4    4    0    0 -0.20520563944E+02 -0.30392074874E+02  0.65005607417E+02  0.74635787364E+02  0.00000000000E+00 0. -1.
         21    1    1    2  503  502 -0.46634088190E+02 -0.91941370053E+01 -0.57153751633E+02  0.74335870630E+02  0.00000000000E+00 0. -1.
          1    1    1    2  501    0  0.52370654967E+02  0.74914110819E+02 -0.40788820708E+02  0.10009264407E+03  0.00000000000E+00 0. -1.
<scales pt_clust_5="13000.00000" pt_clust_6="13000.00000" pt_clust_7="13000.00000" pt_clust_8="13000.00000" pt_clust_9="47.53178" pt_clust_10="78.77543"></scales>
<clustering>
<clus scale="   47.532">  2  9  1 -1</clus>
<clus scale="   78.775">  1 10  2 -1</clus>
<clus scale="   91.904">  7  8 -1 -1</clus>
<clus scale="   95.143">  5  6 -1 -1</clus>
<clus scale="  107.854">  1  7  2 -1</clus>
<clus scale="   78.775">  1  5  2 -1</clus>
</clustering>
</event>
<event>
10    4  0.3738096E-005  0.1852608E+03  0.7546771E-02  0.1164078E+00
         -1   -1    0    0    0  501 -0.00000000000E+00  0.00000000000E+00  0.47228345594E+03  0.47228345594E+03  0.00000000000E+00 0.  1.
         21   -1    0    0  503  502  0.00000000000E+00 -0.00000000000E+00 -0.33358954099E+03  0.33358954099E+03  0.00000000000E+00 0. -1.
         24    2    1    2    0    0  0.67164614292E+02 -0.18206480093E+03  0.36000394264E+03  0.41664875470E+03  0.79590633412E+02 0.  0.
         23    2    1    2    0    0 -0.80014962946E+02  0.65668147128E+02 -0.10666180672E+03  0.17432043887E+03  0.91083338491E+02 0.  0.
        -11    1    3    3    0    0  0.74289235551E+02 -0.12979193253E+03  0.30891209636E+03  0.34320769156E+03  0.00000000000E+00 0.  1.
         12    1    3    3    0    0 -0.71246212589E+01 -0.52272868402E+02  0.51091846278E+02  0.73441063140E+02  0.00000000000E+00 0. -1.
        -13    1    4    4    0    0 -0.72454906835E+02  0.45448921270E+02 -0.12116717154E+03  0.14831318697E+03  0.00000000000E+00 0. -1.
         13    1    4    4    0    0 -0.75600561107E+01  0.20219225858E+02  0.14505364820E+02  0.26007251897E+02  0.00000000000E+00 0.  1.
         21    1    1    2  503  501 -0.16471274657E+02  0.17243253059E+02  0.29231664849E+02  0.37724301117E+02  0.00000000000E+00 0. -1.
         -2    1    1    2    0  502  0.29321623312E+02  0.99153400746E+02 -0.14387988582E+03  0.17717950225E+03  0.00000000000E+00 0.  1.
<scales pt_clust_5="13000.00000" pt_clust_6="13000.00000" pt_clust_7="13000.00000" pt_clust_8="13000.00000" pt_clust_9="23.84602" pt_clust_10="103.85118"></scales>
<clustering>
<clus scale="   23.846">  1  9  2 -1</clus>
<clus scale="   79.591">  5  6 -1 -1</clus>
<clus scale="   91.083">  7  8 -1 -1</clus>
<clus scale="  103.851">  2 10  1 -1</clus>
<clus scale="  179.889">  1  5  2 -1</clus>
<clus scale="  103.851">  2  5  1 -1</clus>
</clustering>
</event>
<event>
10    4  0.3738096E-005  0.1296875E+03  0.7546771E-02  0.1230835E+00
         21   -1    0    0  501  502  0.00000000000E+00  0.00000000000E+00  0.68040970399E+02  0.68040970399E+02  0.00000000000E+00 0. -1.
          2   -1    0    0  503    0 -0.00000000000E+00 -0.00000000000E+00 -0.56501558358E+03  0.56501558358E+03  0.00000000000E+00 0. -1.
         24    2    1    2    0    0 -0.86406486083E+02  0.60628199126E+02 -0.13366529772E+03  0.18797531907E+03  0.79538980380E+02 0.  0.
         23    2    1    2    0    0  0.35535302787E+02 -0.82772193055E+02 -0.74295288634E+02  0.14788297134E+03  0.90750149370E+02 0.  0.
        -13    1    3    3    0    0 -0.26705969233E+02 -0.18901870147E+02 -0.33799946897E+02  0.47041746332E+02  0.00000000000E+00 0.  1.
         14    1    3    3    0    0 -0.59700516850E+02  0.79530069273E+02 -0.99865350818E+02  0.14093357274E+03  0.00000000000E+00 0. -1.
        -11    1    4    4    0    0  0.27666019456E+02 -0.59870572547E+02  0.38555507631E+01  0.66066325471E+02  0.00000000000E+00 0. -1.
         11    1    4    4    0    0  0.78692833316E+01 -0.22901620508E+02 -0.78150839397E+02  0.81816645865E+02  0.00000000000E+00 0.  1.
         21    1    1    2  503  502  0.28362237277E+02 -0.65661842801E+01 -0.17741183184E+03  0.17978456373E+03  0.00000000000E+00 0. -1.
          1    1    1    2  501    0  0.22508946019E+02  0.28710178209E+02 -0.11160219499E+03  0.11741369984E+03  0.00000000000E+00 0. -1.
<scales pt_clust_5="13000.00000" pt_clust_6="13000.00000" pt_clust_7="13000.00000" pt_clust_8="13000.00000" pt_clust_9="29.11239" pt_clust_10="40.88992"></scales>
<clustering>
<clus scale="   29.112">  2  9  1 -1</clus>
<clus scale="   40.890">  1 10  2 -1</clus>
<clus scale="   79.539">  5  6 -1 -1</clus>
<clus scale="   90.750">  7  8 -1 -1</clus>
<clus scale="  122.105">  2  5  1 -1</clus>
<clus scale="   40.890">  1  5  2 -1</clus>
</clustering>
</event>
<event>
10    4  0.3738096E-005  0.1997080E+03  0.7546771E-02  0.1181220E+00
         21   -1    0    0  501  502  0.00000000000E+00  0.00000000000E+00  0.55995637144E+02  0.55995637144E+02  0.00000000000E+00 0. -1.
          2   -1    0    0  503    0 -0.00000000000E+00 -0.00000000000E+00 -0.23339181109E+04  0.23339181109E+04  0.00000000000E+00 0. -1.
         24    2    1    2    0    0  0.51865884940E+02 -0.17411777791E+02 -0.28579424369E+03  0.30187101426E+03  0.80340024256E+02 0.  0.
         23    2    1    2    0    0 -0.11455542249E+03 -0.11101816604E+02 -0.30801078169E+03  0.34085255174E+03  0.89797690611E+02 0.  0.
        -11    1    3    3    0    0  0.49043362301E+02 -0.33591024834E+02 -0.27686986601E+03  0.28317932665E+03  0.00000000000E+00 0.  1.
         12    1    3    3    0    0  0.28225226391E+01  0.16179247043E+02 -0.89243776827E+01  0.18691687616E+02  0.00000000000E+00 0. -1.
        -13    1    4    4    0    0 -0.21913571594E+01 -0.31561505897E+02 -0.61043624283E+02  0.68755034480E+02  0.00000000000E+00 0.  1.
         13    1    4    4    0    0 -0.11236406533E+03  0.20459689293E+02 -0.24696715741E+03  0.27209751726E+03  0.00000000000E+00 0. -1.
         21    1    1    2  503  502  0.19281826820E+03  0.28842975368E+02 -0.15428604200E+04  0.15551299230E+04  0.00000000000E+00 0. -1.
          1    1    1    2  501    0 -0.13012873066E+03 -0.32938097278E+00 -0.14125702831E+03  0.19206025898E+03  0.00000000000E+00 0. -1.
<scales pt_clust_5="13000.00000" pt_clust_6="13000.00000" pt_clust_7="13000.00000" pt_clust_8="13000.00000" pt_clust_9="178.38064" pt_clust_10="125.90389"></scales>
<clustering>
<clus scale="   80.340">  5  6 -1 -1</clus>
<clus scale="   89.798">  7  8 -1 -1</clus>
<clus scale="   97.200">  2  5  1 -1</clus>
<clus scale="  125.904">  1 10  2 -1</clus>
<clus scale="  178.381">  2  9  1 -1</clus>
<clus scale="  125.904">  1  5  2 -1</clus>
</clustering>
</event>
<event>
10    4  0.3738096E-005  0.8801134E+02  0.7546771E-02  0.1310899E+00
         21   -1    0    0  501  502  0.00000000000E+00  0.00000000000E+00  0.74944472111E+02  0.74944472111E+02  0.00000000000E+00 0. -1.
          2   -1    0    0  503    0 -0.00000000000E+00 -0.00000000000E+00 -0.65698445309E+03  0.65698445309E+03  0.00000000000E+00 0. -1.
         24    2    1    2    0    0  0.13665526767E+01  0.34830733142E+02 -0.18952025847E+03  0.20940225933E+03  0.81953220837E+02 0.  0.
         23    2    1    2    0    0 -0.22081013991E+02  0.29403605584E+02  0.13975256263E+02  0.95413954407E+02  0.86927393311E+02 0.  0.
        -13    1    3    3    0    0  0.18613264862E+02  0.12341925666E+02 -0.52194040005E+01  0.22935102705E+02  0.00000000000E+00 0.  1.
         14    1    3    3    0    0 -0.17246712185E+02  0.22488807476E+02 -0.18430085447E+03  0.18646715662E+03  0.00000000000E+00 0. -1.
        -11    1    4    4    0    0  0.26041631390E+02  0.18252155428E+00 -0.17054226327E+02  0.31129511965E+02  0.00000000000E+00 0.  1.
         11    1    4    4    0    0 -0.48122645381E+02  0.29221084030E+02  0.31029482590E+02  0.64284442442E+02  0.00000000000E+00 0. -1.
         21    1    1    2  503  502 -0.43046799876E+01 -0.60879707562E+02 -0.39444918650E+03  0.39914286890E+03  0.00000000000E+00 0. -1.
          1    1    1    2  501    0  0.25019141302E+02 -0.33546311641E+01 -0.12045792280E+02  0.27969842570E+02  0.00000000000E+00 0. -1.
<scales pt_clust_5="13000.00000" pt_clust_6="13000.00000" pt_clust_7="13000.00000" pt_clust_8="13000.00000" pt_clust_9="61.09350" pt_clust_10="25.24304"></scales>
<clustering>
<clus scale="   25.243">  1 10  2 -1</clus>
<clus scale="   61.093">  2  9  1 -1</clus>
<clus scale="   81.953">  5  6 -1 -1</clus>
<clus scale="   83.102">  2  5  1 -1</clus>
<clus scale="   86.927">  7  8 -1 -1</clus>
<clus scale="   25.243">  1  5  2 -1</clus>
</clustering>
</event>
<event>
10    4  0.3738096E-005  0.1357679E+03  0.7546771E-02  0.1233454E+00
          2   -1    0    0  503    0 -0.00000000000E+00  0.00000000000E+00  0.65527314339E+03  0.65527314339E+03  0.00000000000E+00 0. -1.
         21   -1    0    0  501  502  0.00000000000E+00 -0.00000000000E+00 -0.18995200970E+03  0.18995200970E+03  0.00000000000E+00 0. -1.
         24    2    1    2    0    0  0.82174695865E+02  0.99820202208E+01  0.29357316761E+03  0.31548064000E+03  0.80563689769E+02 0.  0.
         23    2    1    2    0    0 -0.42309972481E+01 -0.82832104840E+01  0.61340669078E+02  0.13639659486E+03  0.12146950437E+03 0.  0.
        -11    1    3    3    0    0  0.49416569005E+02  0.41925381017E+02  0.12489562494E+03  0.14070768279E+03  0.00000000000E+00 0.  1.
         12    1    3    3    0    0  0.32758126860E+02 -0.31943360796E+02  0.16867754266E+03  0.17477295721E+03  0.00000000000E+00 0. -1.
        -11    1    4    4    0    0 -0.55178390807E+02  0.18092985534E+01  0.63838007998E+02  0.84399168470E+02  0.00000000000E+00 0.  1.
         11    1    4    4    0    0  0.50947393559E+02 -0.10092509037E+02 -0.24973389200E+01  0.51997426386E+02  0.00000000000E+00 0. -1.
         21    1    1    2  503  502 -0.77537464804E+01 -0.93018547627E+02  0.21711981735E+03  0.23633363255E+03  0.00000000000E+00 0. -1.
          1    1    1    2  501    0 -0.70189952137E+02  0.91319737891E+02 -0.10671252035E+03  0.15701428568E+03  0.00000000000E+00 0. -1.
<scales pt_clust_5="13000.00000" pt_clust_6="13000.00000" pt_clust_7="13000.00000" pt_clust_8="13000.00000" pt_clust_9="93.34115" pt_clust_10="111.18794"></scales>
<clustering>
<clus scale="   80.564">  5  6 -1 -1</clus>
<clus scale="   93.341">  1  9  2 -1</clus>
<clus scale="  111.188">  2 10  1 -1</clus>
<clus scale="  100.839">  1  5  2 -1</clus>
<clus scale="  121.470">  7  8 -1 -1</clus>
<clus scale="  111.188">  2  5  1 -1</clus>
</clustering>
</event>
<event>
10    4  0.3738096E-005  0.1510903E+03  0.7546771E-02  0.1200826E+00
          2   -1    0    0  503    0 -0.00000000000E+00  0.00000000000E+00  0.51364043710E+03  0.51364043710E+03  0.00000000000E+00 0. -1.
         21   -1    0    0  501  502  0.00000000000E+00 -0.00000000000E+00 -0.21022616012E+03  0.21022616012E+03  0.00000000000E+00 0.  1.
         23    2    1    2    0    0  0.13162566276E+03  0.47641148022E+02  0.21304928754E+03  0.27030776831E+03  0.89896032200E+02 0.  0.
         24    2    1    2    0    0 -0.57006894835E+02 -0.98761424022E+02 -0.86455543629E+02  0.16415496842E+03  0.80428152413E+02 0.  0.
        -13    1    4    4    0    0 -0.68929897970E+02 -0.76392101735E+02 -0.92205287725E+02  0.13816258222E+03  0.00000000000E+00 0.  1.
         14    1    4    4    0    0  0.11923003136E+02 -0.22369322287E+02  0.57497440954E+01  0.25992386203E+02  0.00000000000E+00 0. -1.
        -13    1    3    3    0    0  0.14954154945E+02  0.43137163918E+02  0.35615854845E+02  0.57904497039E+02  0.00000000000E+00 0.  1.
         13    1    3    3    0    0  0.11667150781E+03  0.45039841040E+01  0.17743343269E+03  0.21240327127E+03  0.00000000000E+00 0. -1.
         21    1    1    2  503  502 -0.11326305610E+03  0.92323698748E+02  0.18116076774E+03  0.23274752200E+03  0.00000000000E+00 0.  1.
          1    1    1    2  501    0  0.38644288172E+02 -0.41203422748E+02 -0.43402346638E+01  0.56656338493E+02  0.00000000000E+00 0. -1.
<scales pt_clust_5="13000.00000" pt_clust_6="13000.00000" pt_clust_7="13000.00000" pt_clust_8="13000.00000" pt_clust_9="138.09321" pt_clust_10="56.48985"></scales>
<clustering>
<clus scale="   56.490">  2 10  1 -1</clus>
<clus scale="   80.428">  5  6 -1 -1</clus>
<clus scale="   89.896">  7  8 -1 -1</clus>
<clus scale="  138.093">  1  9  2 -1</clus>
<clus scale="  145.656">  2  5  1 -1</clus>
<clus scale="   56.490">  2  5  1 -1</clus>
</clustering>
</event>
<event>
10    4  0.3738096E-005  0.1058399E+03  0.7546771E-02  0.1273622E+00
         21   -1    0    0  503  502  0.00000000000E+00  0.00000000000E+00  0.44542909889E+03  0.44542909889E+03  0.00000000000E+00 0. -1.
         -1   -1    0    0    0  501 -0.00000000000E+00 -0.00000000000E+00 -0.78738375505E+02  0.78738375505E+02  0.00000000000E+00 0.  1.
         23    2    1    2    0    0 -0.40456355984E+02  0.34421655816E+02 -0.19004381175E+02  0.10725810893E+03  0.91222630412E+02 0.  0.
         24    2    1    2    0    0  0.41820612418E+02 -0.39699887101E+02  0.30558425360E+03  0.32094959945E+03  0.79384284829E+02 0.  0.
        -13    1    4    4    0    0 -0.43968961525E+01 -0.49862551878E+02  0.13736539225E+03  0.14620142873E+03  0.00000000000E+00 0.  1.
         14    1    4    4    0    0  0.46217508570E+02  0.10162664778E+02  0.16821886135E+03  0.17474817072E+03  0.00000000000E+00 0. -1.
        -13    1    3    3    0    0 -0.61871654770E+01  0.23853301996E+02  0.34773348929E+02  0.42619793858E+02  0.00000000000E+00 0. -1.
         13    1    3    3    0    0 -0.34269190507E+02  0.10568353820E+02 -0.53777730105E+02  0.64638315075E+02  0.00000000000E+00 0.  1.
         21    1    1    2  503  501 -0.10970550334E+02  0.25455222185E+02  0.28689719663E+02  0.39892622444E+02  0.00000000000E+00 0.  1.
         -2    1    1    2    0  502  0.96062939001E+01 -0.20176990900E+02  0.51421131294E+02  0.56067143568E+02  0.00000000000E+00 0.  1.
<scales pt_clust_5="13000.00000" pt_clust_6="13000.00000" pt_clust_7="13000.00000" pt_clust_8="13000.00000" pt_clust_9="25.76365" pt_clust_10="22.34708"></scales>
<clustering>
<clus scale="   22.347">  1 10  2 -1</clus>
<clus scale="   25.764">  1  9  2 -1</clus>
<clus scale="   79.384">  5  6 -1 -1</clus>
<clus scale="   91.223">  7  8 -1 -1</clus>
<clus scale="   95.825">  1  5  2 -1</clus>
<clus scale="   22.347">  1  5  2 -1</clus>
</clustering>
</event>
<event>
10    4  0.3738096E-005  0.2179925E+03  0.7546771E-02  0.1186871E+00
          2   -1    0    0  503    0 -0.00000000000E+00  0.00000000000E+00  0.80485548155E+03  0.80485548155E+03  0.00000000000E+00 0. -1.
         21   -1    0    0  501  502  0.00000000000E+00 -0.00000000000E+00 -0.15049091356E+03  0.15049091356E+03  0.00000000000E+00 0. -1.
         24    2    1    2    0    0  0.78688501534E+00  0.41791186603E+02  0.30507624983E+03  0.31210815690E+03  0.50920142696E+02 0.  0.
         23    2    1    2    0    0  0.45729758989E+02  0.17807054013E+03  0.14919536114E+03  0.25372315939E+03  0.91191324719E+02 0.  0.
        -11    1    3    3    0    0  0.23222067617E+02  0.90652237378E+01  0.14879047568E+03  0.15086433760E+03  0.00000000000E+00 0.  1.
         12    1    3    3    0    0 -0.22435182602E+02  0.32725962865E+02  0.15628577415E+03  0.16124381931E+03  0.00000000000E+00 0. -1.
        -11    1    4    4    0    0  0.68222743739E+02  0.12941624554E+03  0.81807196499E+02  0.16761660052E+03  0.00000000000E+00 0. -1.
         11    1    4    4    0    0 -0.22492984750E+02  0.48654294592E+02  0.67388164646E+02  0.86106558865E+02  0.00000000000E+00 0.  1.
         21    1    1    2  503  502  0.61105018825E+02 -0.21751128060E+03  0.14642901923E+03  0.26923305552E+03  0.00000000000E+00 0. -1.
          1    1    1    2  501    0 -0.10762166283E+03 -0.23504461352E+01  0.53663937788E+02  0.12028202329E+03  0.00000000000E+00 0. -1.
<scales pt_clust_5="13000.00000" pt_clust_6="13000.00000" pt_clust_7="13000.00000" pt_clust_8="13000.00000" pt_clust_9="198.00221" pt_clust_10="107.59877"></scales>
<clustering>
<clus scale="   50.920">  5  6 -1 -1</clus>
<clus scale="   65.879">  1  5  2 -1</clus>
<clus scale="   91.191">  7  8 -1 -1</clus>
<clus scale="  107.599">  2 10  1 -1</clus>
<clus scale="  198.002">  1  9  2 -1</clus>
<clus scale="  107.599">  2  5  1 -1</clus>
</clustering>
</event>
<event>
10    4  0.3738096E-005  0.1471187E+03  0.7546771E-02  0.1233011E+00
         21   -1    0    0  501  502  0.00000000000E+00  0.00000000000E+00  0.22622301515E+03  0.22622301515E+03  0.00000000000E+00 0. -1.
          2   -1    0    0  503    0 -0.00000000000E+00 -0.00000000000E+00 -0.61171513084E+03  0.61171513084E+03  0.00000000000E+00 0. -1.
         24    2    1    2    0    0 -0.32954076969E+01  0.95231393079E+00  0.15159407241E+03  0.17139817052E+03  0.79904965145E+02 0.  0.
         23    2    1    2    0    0 -0.16804812266E+01  0.12478736410E+03 -0.14488373957E+03  0.21193212943E+03  0.91374062169E+02 0.  0.
        -11    1    3    3    0    0  0.13202971595E+02 -0.27468091804E+02  0.21702488491E+02  0.37414068651E+02  0.00000000000E+00 0.  1.
         12    1    3    3    0    0 -0.16498379292E+02  0.28420405735E+02  0.12989158392E+03  0.13398410187E+03  0.00000000000E+00 0. -1.
        -13    1    4    4    0    0 -0.45729071139E+02  0.61309047853E+02 -0.60511572573E+02  0.97527420304E+02  0.00000000000E+00 0.  1.
         13    1    4    4    0    0  0.44048589912E+02  0.63478316251E+02 -0.84372166995E+02  0.11440470913E+03  0.00000000000E+00 0. -1.
         21    1    1    2  503  502  0.80574510604E+02 -0.31794048287E+02 -0.26734272904E+03  0.28102535123E+03  0.00000000000E+00 0. -1.
          1    1    1    2  501    0 -0.75598621680E+02 -0.93945629748E+02 -0.12485971950E+03  0.17358249481E+03  0.00000000000E+00 0. -1.
<scales pt_clust_5="13000.00000" pt_clust_6="13000.00000" pt_clust_7="13000.00000" pt_clust_8="13000.00000" pt_clust_9="85.06481" pt_clust_10="115.30267"></scales>
<clustering>
<clus scale="   79.905">  5  6 -1 -1</clus>
<clus scale="   79.979">  2  5  1 -1</clus>
<clus scale="   85.065">  2  9  1 -1</clus>
<clus scale="   91.374">  7  8 -1 -1</clus>
<clus scale="  115.303">  1 10  2 -1</clus>
<clus scale="  115.303">  1  5  2 -1</clus>
</clustering>
</event>
<event>
10    4  0.3738096E-005  0.1748297E+03  0.7546771E-02  0.1174297E+00
          2   -1    0    0  503    0 -0.00000000000E+00  0.00000000000E+00  0.11530130544E+04  0.11530130544E+04  0.00000000000E+00 0. -1.
         21   -1    0    0  501  502  0.00000000000E+00 -0.00000000000E+00 -0.88241876869E+02  0.88241876869E+02  0.00000000000E+00 0. -1.
         24    2    1    2    0    0  0.19102080806E+03 -0.12869233470E+02  0.65045644257E+03  0.68281861470E+03  0.80579840012E+02 0.  0.
         23    2    1    2    0    0 -0.93392227185E+02  0.30169871909E+02  0.20220045266E+03  0.24266801109E+03  0.91489951806E+02 0.  0.
        -13    1    3    3    0    0  0.15308994046E+03 -0.38779938372E+02  0.44214603625E+03  0.46950349398E+03  0.00000000000E+00 0.  1.
         14    1    3    3    0    0  0.37930867607E+02  0.25910704902E+02  0.20831040632E+03  0.21331512072E+03  0.00000000000E+00 0. -1.
        -11    1    4    4    0    0 -0.43052435679E+02  0.59261633142E+02  0.87817297494E+02  0.11435615908E+03  0.00000000000E+00 0.  1.
         11    1    4    4    0    0 -0.50339791506E+02 -0.29091761233E+02  0.11438315517E+03  0.12831185201E+03  0.00000000000E+00 0. -1.
         21    1    1    2  503  502 -0.19749006115E+00 -0.54382426793E+02  0.20408946620E+03  0.21121078940E+03  0.00000000000E+00 0. -1.
          1    1    1    2  501    0 -0.97431090818E+02  0.37081788354E+02  0.80248160551E+01  0.10455751603E+03  0.00000000000E+00 0. -1.
<scales pt_clust_5="13000.00000" pt_clust_6="13000.00000" pt_clust_7="13000.00000" pt_clust_8="13000.00000" pt_clust_9="54.38279" pt_clust_10="103.15280"></scales>
<clustering>
<clus scale="   54.383">  1  9  2 -1</clus>
<clus scale="   80.580">  5  6 -1 -1</clus>
<clus scale="   91.490">  7  8 -1 -1</clus>
<clus scale="  103.153">  2 10  1 -1</clus>
<clus scale="  169.376">  1  5  2 -1</clus>
<clus scale="  103.153">  2  5  1 -1</clus>
</clustering>
</event>
<event>
10    4  0.3738096E-005  0.1454088E+03  0.7546771E-02  0.1207881E+00
         21   -1    0    0  501  502  0.00000000000E+00  0.00000000000E+00  0.55957369539E+02  0.55957369539E+02  0.00000000000E+00 0.  1.
          2   -1    0    0  503    0 -0.00000000000E+00 -0.00000000000E+00 -0.12074769745E+04  0.12074769745E+04  0.00000000000E+00 0. -1.
         23    2    1    2    0    0  0.31238447902E+02 -0.10409729964E+03 -0.66223427555E+03  0.67708364426E+03  0.89866218255E+02 0.  0.
         24    2    1    2    0    0  0.26149557359E+01  0.75786200696E+02 -0.37781858619E+02  0.11750639966E+03  0.81424191186E+02 0.  0.
        -13    1    4    4    0    0  0.25441872676E+02  0.13824043628E+00  0.73837563008E+01  0.26492033761E+02  0.00000000000E+00 0.  1.
         14    1    4    4    0    0 -0.22826916940E+02  0.75647960259E+02 -0.45165614920E+02  0.91014365896E+02  0.00000000000E+00 0. -1.
        -13    1    3    3    0    0  0.36721269695E+02 -0.39042565255E+01 -0.11688452767E+03  0.12257931178E+03  0.00000000000E+00 0. -1.
         13    1    3    3    0    0 -0.54828217933E+01 -0.10019304311E+03 -0.54534974788E+03  0.55450433248E+03  0.00000000000E+00 0.  1.
         21    1    1    2  503  502  0.35446568066E+02 -0.19719718472E+02 -0.11522435286E+03  0.12215554828E+03  0.00000000000E+00 0. -1.
          1    1    1    2  501    0 -0.69299971704E+02  0.48030817412E+02 -0.33627911792E+03  0.34668875184E+03  0.00000000000E+00 0. -1.
<scales pt_clust_5="13000.00000" pt_clust_6="13000.00000" pt_clust_7="13000.00000" pt_clust_8="13000.00000" pt_clust_9="40.56262" pt_clust_10="71.66804"></scales>
<clustering>
<clus scale="   40.563">  2  9  1 -1</clus>
<clus scale="   71.668">  1 10  2 -1</clus>
<clus scale="   81.424">  5  6 -1 -1</clus>
<clus scale="   89.866">  7  8 -1 -1</clus>
<clus scale="  140.348">  1  5  2 -1</clus>
<clus scale="   71.668">  1  5  2 -1</clus>
</clustering>
</event>
<event>
10    4  0.3738096E-005  0.2968409E+03  0.7546771E-02  0.1094775E+00
         21   -1    0    0  501  502  0.00000000000E+00  0.00000000000E+00  0.42662210393E+03  0.42662210393E+03  0.00000000000E+00 0. -1.
          2   -1    0    0  503    0 -0.00000000000E+00 -0.00000000000E+00 -0.94623796756E+03  0.94623796756E+03  0.00000000000E+00 0. -1.
         24    2    1    2    0    0  0.17305444414E+03  0.11888534664E+03 -0.56229966138E+03  0.60565963938E+03  0.81000761156E+02 0.  0.
         23    2    1    2    0    0  0.23929643366E+02 -0.32612938470E+03 -0.15779274028E+02  0.34074054028E+03  0.94457010870E+02 0.  0.
        -11    1    3    3    0    0  0.86035603439E+02  0.44079448958E+02 -0.36332949442E+03  0.37597000465E+03  0.00000000000E+00 0.  1.
         12    1    3    3    0    0  0.87018840703E+02  0.74805897680E+02 -0.19897016696E+03  0.22968963474E+03  0.00000000000E+00 0. -1.
        -13    1    4    4    0    0 -0.29521133830E+02 -0.13637948218E+03  0.18130058656E+02  0.14071090764E+03  0.00000000000E+00 0. -1.
         13    1    4    4    0    0  0.53450777195E+02 -0.18974990252E+03 -0.33909332684E+02  0.20002963264E+03  0.00000000000E+00 0.  1.
         21    1    1    2  503  502  0.19114454023E+02  0.15017657949E+02 -0.95684309936E+02  0.98723753832E+02  0.00000000000E+00 0. -1.
          1    1    1    2  501    0 -0.21609854153E+03  0.19222638011E+03  0.15414738171E+03  0.32773613800E+03  0.00000000000E+00 0. -1.
<scales pt_clust_5="13000.00000" pt_clust_6="13000.00000" pt_clust_7="13000.00000" pt_clust_8="13000.00000" pt_clust_9="24.30828" pt_clust_10="281.41141"></scales>
<clustering>
<clus scale="   24.308">  2  9  1 -1</clus>
<clus scale="   81.001">  5  6 -1 -1</clus>
<clus scale="   94.457">  7  8 -1 -1</clus>
<clus scale="  240.684">  2  5  1 -1</clus>
<clus scale="  281.411">  1 10  2 -1</clus>
<clus scale="  281.411">  1  5  2 -1</clus>
</clustering>
</event>
<event>
10    4  0.3738096E-005  0.1777258E+03  0.7546771E-02  0.1170082E+00
         -3   -1    0    0    0  501 -0.00000000000E+00  0.00000000000E+00  0.47970101617E+03  0.47970101617E+03  0.00000000000E+00 0.  1.
         21   -1    0    0  503  502  0.00000000000E+00 -0.00000000000E+00 -0.40426975444E+03  0.40426975444E+03  0.00000000000E+00 0. -1.
         24    2    1    2    0    0 -0.75844257792E+02 -0.11935883331E+03 -0.25252050883E+02  0.16600145250E+03  0.83186138439E+02 0.  0.
         23    2    1    2    0    0  0.26932872625E+03 -0.26636651630E+02 -0.15196744190E+03  0.32268318110E+03  0.88220507701E+02 0.  0.
        -13    1    3    3    0    0  0.17875386848E+02 -0.25492679721E+02 -0.94609313332E+00  0.31149659172E+02  0.00000000000E+00 0.  1.
         14    1    3    3    0    0 -0.93719644640E+02 -0.93866153592E+02 -0.24305957749E+02  0.13485179333E+03  0.00000000000E+00 0. -1.
        -13    1    4    4    0    0  0.24675941217E+03 -0.43565660645E+02 -0.15446553754E+03  0.29435994389E+03  0.00000000000E+00 0. -1.
         13    1    4    4    0    0  0.22569314080E+02  0.16929009015E+02  0.24980956454E+01  0.28323237211E+02  0.00000000000E+00 0.  1.
         21    1    1    2  503  501 -0.66593852704E+02  0.15888880948E+03  0.11235055665E+03  0.20567703464E+03  0.00000000000E+00 0. -1.
         -4    1    1    2    0  502 -0.12689061575E+03 -0.12893324539E+02  0.14030019785E+03  0.18960910237E+03  0.00000000000E+00 0.  1.
<scales pt_clust_5="13000.00000" pt_clust_6="13000.00000" pt_clust_7="13000.00000" pt_clust_8="13000.00000" pt_clust_9="177.48233" pt_clust_10="127.54404"></scales>
<clustering>
<clus scale="   83.186">  5  6 -1 -1</clus>
<clus scale="   88.221">  7  8 -1 -1</clus>
<clus scale="  127.544">  2 10  1 -1</clus>
<clus scale="  177.482">  1  9  2 -1</clus>
<clus scale="  177.482">  1  5  2 -1</clus>
<clus scale="  127.544">  2  5  1 -1</clus>
</clustering>
</event>
<event>
10    4  0.3738096E-005  0.1529350E+03  0.7546771E-02  0.1198701E+00
         21   -1    0    0  501  502  0.00000000000E+00  0.00000000000E+00  0.28100128527E+03  0.28100128527E+03  0.00000000000E+00 0.  1.
          2   -1    0    0  503    0 -0.00000000000E+00 -0.00000000000E+00 -0.27809087551E+03  0.27809087551E+03  0.00000000000E+00 0. -1.
         23    2    1    2    0    0  0.16308656754E+02 -0.12259200851E+03 -0.17405928634E+03  0.23195945850E+03  0.90629919969E+02 0.  0.
         24    2    1    2    0    0 -0.51488473561E+02  0.11355951166E+03  0.15731799156E+03  0.21622878608E+03  0.80368599994E+02 0.  0.
        -13    1    4    4    0    0 -0.69345511690E+02  0.10635277735E+03  0.14748816726E+03  0.19460851143E+03  0.00000000000E+00 0.  1.
         14    1    4    4    0    0  0.17857038128E+02  0.72067343062E+01  0.98298243026E+01  0.21620274649E+02  0.00000000000E+00 0. -1.
        -13    1    3    3    0    0  0.49864893784E+02 -0.46115024734E+02 -0.60225648672E+02  0.90775723055E+02  0.00000000000E+00 0.  1.
         13    1    3    3    0    0 -0.33556237030E+02 -0.76476983773E+02 -0.11383363767E+03  0.14118373545E+03  0.00000000000E+00 0. -1.
         21    1    1    2  503  502  0.12567054852E+02  0.46037298023E+02  0.40680157318E+02  0.62707566340E+02  0.00000000000E+00 0. -1.
          1    1    1    2  501    0  0.22612761955E+02 -0.37004801171E+02 -0.21028452786E+02  0.48196349857E+02  0.00000000000E+00 0. -1.
<scales pt_clust_5="13000.00000" pt_clust_6="13000.00000" pt_clust_7="13000.00000" pt_clust_8="13000.00000" pt_clust_9="42.41308" pt_clust_10="43.36697"></scales>
<clustering>
<clus scale="   43.367">  1 10  2 -1</clus>
<clus scale="   42.413">  1  9  2 -1</clus>
<clus scale="   80.369">  5  6 -1 -1</clus>
<clus scale="   90.630">  7  8 -1 -1</clus>
<clus scale="  147.086">  1  5  2 -1</clus>
<clus scale="   43.367">  1  5  2 -1</clus>
</clustering>
</event>
<event>
10    4  0.3738096E-005  0.1840727E+03  0.7546771E-02  0.1166465E+00
          4   -1    0    0  503    0 -0.00000000000E+00  0.00000000000E+00  0.24552792715E+03  0.24552792715E+03  0.00000000000E+00 0. -1.
         21   -1    0    0  501  502  0.00000000000E+00 -0.00000000000E+00 -0.23600122822E+03  0.23600122822E+03  0.00000000000E+00 0. -1.
         24    2    1    2    0    0 -0.11184081026E+03 -0.11989036794E+03  0.31480472331E+02  0.18154150905E+03  0.71303802177E+02 0.  0.
         23    2    1    2    0    0  0.12943685621E+03  0.10224229581E+03 -0.65283670179E+01  0.18997223583E+03  0.94018317433E+02 0.  0.
        -13    1    3    3    0    0 -0.19936435480E+02 -0.62590404218E+01 -0.17656569194E+02  0.27356744732E+02  0.00000000000E+00 0.  1.
         14    1    3    3    0    0 -0.91904374781E+02 -0.11363132752E+03  0.49137041525E+02  0.15418476432E+03  0.00000000000E+00 0. -1.
        -13    1    4    4    0    0  0.81290858539E+02  0.18459975703E+02  0.27103466753E+02  0.87655988358E+02  0.00000000000E+00 0. -1.
         13    1    4    4    0    0  0.48145997668E+02  0.83782320106E+02 -0.33631833771E+02  0.10231624747E+03  0.00000000000E+00 0.  1.
         21    1    1    2  503  502  0.35135791192E+02  0.15489847729E+02  0.22975323588E+02  0.44747342930E+02  0.00000000000E+00 0.  1.
          3    1    1    2  501    0 -0.52731837138E+02  0.21582244030E+01 -0.38400729967E+02  0.65268067556E+02  0.00000000000E+00 0. -1.
<scales pt_clust_5="13000.00000" pt_clust_6="13000.00000" pt_clust_7="13000.00000" pt_clust_8="13000.00000" pt_clust_9="38.39869" pt_clust_10="50.59951"></scales>
<clustering>
<clus scale="   38.399">  1  9  2 -1</clus>
<clus scale="   50.600">  2 10  1 -1</clus>
<clus scale="   71.304">  5  6 -1 -1</clus>
<clus scale="   94.018">  7  8 -1 -1</clus>
<clus scale="  173.573">  1  5  2 -1</clus>
<clus scale="   50.600">  2  5  1 -1</clus>
</clustering>
</event>
<event>
10    4  0.3738096E-005  0.1554726E+03  0.7546771E-02  0.1196298E+00
         -1   -1    0    0    0  501 -0.00000000000E+00  0.00000000000E+00  0.70985072011E+02  0.70985072011E+02  0.00000000000E+00 0.  1.
         21   -1    0    0  503  502  0.00000000000E+00 -0.00000000000E+00 -0.55748614899E+03  0.55748614899E+03  0.00000000000E+00 0.  1.
         24    2    1    2    0    0  0.13170124105E+03 -0.16337510505E+02 -0.16742704539E+03  0.22852486590E+03  0.81115150618E+02 0.  0.
         23    2    1    2    0    0 -0.12019752569E+03  0.36967189130E+02 -0.29023426326E+03  0.33020385071E+03  0.94787326155E+02 0.  0.
        -11    1    3    3    0    0  0.98293325937E+02 -0.47810794887E+02 -0.11092847556E+03  0.15573238816E+03  0.00000000000E+00 0.  1.
         12    1    3    3    0    0  0.33407915116E+02  0.31473284382E+02 -0.56498569833E+02  0.72792477739E+02  0.00000000000E+00 0. -1.
        -13    1    4    4    0    0 -0.13324142845E+03  0.18945258571E+02 -0.25868959230E+03  0.29160333716E+03  0.00000000000E+00 0.  1.
         13    1    4    4    0    0  0.13043902763E+02  0.18021930559E+02 -0.31544670957E+02  0.38600513548E+02  0.00000000000E+00 0. -1.
         21    1    1    2  503  501 -0.34741778064E+02 -0.16381199596E+02 -0.24947427910E+02  0.45800753297E+02  0.00000000000E+00 0.  1.
         -2    1    1    2    0  502  0.23238062697E+02 -0.42484790294E+01 -0.38923404207E+01  0.23941751104E+02  0.00000000000E+00 0.  1.
<scales pt_clust_5="13000.00000" pt_clust_6="13000.00000" pt_clust_7="13000.00000" pt_clust_8="13000.00000" pt_clust_9="37.17093" pt_clust_10="23.62324"></scales>
<clustering>
<clus scale="   23.623">  2 10  1 -1</clus>
<clus scale="   37.171">  1  9  2 -1</clus>
<clus scale="   81.115">  5  6 -1 -1</clus>
<clus scale="   94.787">  7  8 -1 -1</clus>
<clus scale="  147.536">  1  5  2 -1</clus>
<clus scale="   23.623">  2  5  1 -1</clus>
</clustering>
</event>
<event>
10    4  0.3738096E-005  0.1553867E+03  0.7546771E-02  0.1211584E+00
          2   -1    0    0  503    0 -0.00000000000E+00  0.00000000000E+00  0.37991542622E+03  0.37991542622E+03  0.00000000000E+00 0. -1.
         21   -1    0    0  501  502  0.00000000000E+00 -0.00000000000E+00 -0.17808938563E+03  0.17808938563E+03  0.00000000000E+00 0. -1.
         23    2    1    2    0    0  0.50377158847E+00  0.46181652081E+02  0.38816666152E+02  0.10891198981E+03  0.90675736439E+02 0.  0.
         24    2    1    2    0    0  0.13267614405E+03 -0.10195054710E+03  0.14756112683E+03  0.23648520047E+03  0.78448012306E+02 0.  0.
        -13    1    4    4    0    0  0.95036007266E+02 -0.27156825901E+02  0.97987691021E+02  0.13917946494E+03  0.00000000000E+00 0.  1.
         14    1    4    4    0    0  0.37640136783E+02 -0.74793721201E+02  0.49573435807E+02  0.97305735524E+02  0.00000000000E+00 0. -1.
        -11    1    3    3    0    0  0.68821367224E+01 -0.25992749624E+02  0.37703195009E+00  0.26891057844E+02  0.00000000000E+00 0. -1.
         11    1    3    3    0    0 -0.63783651339E+01  0.72174401705E+02  0.38439634202E+02  0.82020931968E+02  0.00000000000E+00 0.  1.
         21    1    1    2  503  502 -0.38760337224E+01  0.38917289399E+02  0.62712869646E+02  0.73908612968E+02  0.00000000000E+00 0. -1.
          1    1    1    2  501    0 -0.12930388191E+03  0.16851605622E+02 -0.47264622038E+02  0.13869900860E+03  0.00000000000E+00 0. -1.
<scales pt_clust_5="13000.00000" pt_clust_6="13000.00000" pt_clust_7="13000.00000" pt_clust_8="13000.00000" pt_clust_9="39.10983" pt_clust_10="134.13024"></scales>
<clustering>
<clus scale="   39.110">  1  9  2 -1</clus>
<clus scale="   78.448">  5  6 -1 -1</clus>
<clus scale="   90.676">  7  8 -1 -1</clus>
<clus scale="  106.265">  1  7  2 -1</clus>
<clus scale="  134.130">  2 10  1 -1</clus>
<clus scale="  134.130">  2  5  1 -1</clus>
</clustering>
</event>
<event>
10    4  0.3738096E-005  0.1382190E+03  0.7546771E-02  0.1230581E+00
         21   -1    0    0  501  502  0.00000000000E+00  0.00000000000E+00  0.17790818156E+03  0.17790818156E+03  0.00000000000E+00 0.  1.
          2   -1    0    0  503    0 -0.00000000000E+00 -0.00000000000E+00 -0.34683211387E+03  0.34683211387E+03  0.00000000000E+00 0. -1.
         24    2    1    2    0    0  0.66727682046E+01 -0.62113347769E+02 -0.88840973318E+02  0.13480646838E+03  0.79859073189E+02 0.  0.
         23    2    1    2    0    0 -0.77614680756E+02 -0.37882011109E+02  0.34571714854E+02  0.13161152111E+03  0.93098354376E+02 0.  0.
        -11    1    3    3    0    0 -0.26504129379E+02 -0.21922829537E+02 -0.31861819216E+01  0.34543177102E+02  0.00000000000E+00 0.  1.
         12    1    3    3    0    0  0.33176897583E+02 -0.40190518232E+02 -0.85654791397E+02  0.10026329128E+03  0.00000000000E+00 0. -1.
        -11    1    4    4    0    0 -0.33078462070E+02 -0.66298507523E+02  0.18060195511E+02  0.76261703460E+02  0.00000000000E+00 0.  1.
         11    1    4    4    0    0 -0.44536218686E+02  0.28416496414E+02  0.16511519342E+02  0.55349817654E+02  0.00000000000E+00 0. -1.
         21    1    1    2  503  502  0.10962497883E+03 -0.82660362782E+01 -0.86693197930E+02  0.14000597811E+03  0.00000000000E+00 0. -1.
          1    1    1    2  501    0 -0.38683066274E+02  0.10826139516E+03 -0.27961475916E+02  0.11831632784E+03  0.00000000000E+00 0. -1.
<scales pt_clust_5="13000.00000" pt_clust_6="13000.00000" pt_clust_7="13000.00000" pt_clust_8="13000.00000" pt_clust_9="102.16256" pt_clust_10="96.17009"></scales>
<clustering>
<clus scale="   79.859">  5  6 -1 -1</clus>
<clus scale="   93.098">  7  8 -1 -1</clus>
<clus scale="  101.391">  2  5  1 -1</clus>
<clus scale="   96.170">  1 10  2 -1</clus>
<clus scale="  102.163">  2  9  1 -1</clus>
<clus scale="   96.170">  1  5  2 -1</clus>
</clustering>
</event>
<event>
10    4  0.3738096E-005  0.1159772E+03  0.7546771E-02  0.1252652E+00
          2   -1    0    0  503    0 -0.00000000000E+00  0.00000000000E+00  0.42181103043E+03  0.42181103043E+03  0.00000000000E+00 0. -1.
         21   -1    0    0  501  502  0.00000000000E+00 -0.00000000000E+00 -0.78868961623E+02  0.78868961623E+02  0.00000000000E+00 0. -1.
         24    2    1    2    0    0 -0.60999251278E+02  0.39603819039E+02  0.23562668459E+03  0.25971077957E+03  0.81488547625E+02 0.  0.
         23    2    1    2    0    0  0.24976192257E+02 -0.21380450115E+02  0.20296332928E+01  0.95553602228E+02  0.89696363698E+02 0.  0.
        -11    1    3    3    0    0 -0.38170619208E+02 -0.21058769516E+02  0.79578395845E+02  0.90736922086E+02  0.00000000000E+00 0.  1.
         12    1    3    3    0    0 -0.22828632070E+02  0.60662588555E+02  0.15604828875E+03  0.16897385749E+03  0.00000000000E+00 0. -1.
        -13    1    4    4    0    0  0.54669166335E+02 -0.32738784875E+02  0.47098178563E+00  0.63724152459E+02  0.00000000000E+00 0.  1.
         13    1    4    4    0    0 -0.29692974077E+02  0.11358334760E+02  0.15586515071E+01  0.31829449769E+02  0.00000000000E+00 0. -1.
         21    1    1    2  503  502 -0.21304614019E+02  0.91623917734E+01  0.67780808605E+02  0.71638495354E+02  0.00000000000E+00 0.  1.
          1    1    1    2  501    0  0.57327673039E+02 -0.27385760698E+02  0.37504942320E+02  0.73777114904E+02  0.00000000000E+00 0. -1.
<scales pt_clust_5="13000.00000" pt_clust_6="13000.00000" pt_clust_7="13000.00000" pt_clust_8="13000.00000" pt_clust_9="23.19129" pt_clust_10="59.87122"></scales>
<clustering>
<clus scale="   23.191">  1  9  2 -1</clus>
<clus scale="   59.871">  2 10  1 -1</clus>
<clus scale="   81.489">  5  6 -1 -1</clus>
<clus scale="   89.696">  7  8 -1 -1</clus>
<clus scale="  109.753">  1  5  2 -1</clus>
<clus scale="   59.871">  2  5  1 -1</clus>
</clustering>
</event>
<event>
10    4  0.3738096E-005  0.1684473E+03  0.7546771E-02  0.1181042E+00
          2   -1    0    0  503    0 -0.00000000000E+00  0.00000000000E+00  0.15819170961E+04  0.15819170961E+04  0.00000000000E+00 0. -1.
         21   -1    0    0  501  502  0.00000000000E+00 -0.00000000000E+00 -0.44863992214E+02  0.44863992214E+02  0.00000000000E+00 0.  1.
         23    2    1    2    0    0 -0.65402139779E+02  0.14662717703E+03  0.39838825575E+03  0.43873135823E+03  0.89414950914E+02 0.  0.
         24    2    1    2    0    0  0.79770652997E+02 -0.10576370598E+03  0.40407553641E+03  0.43231254432E+03  0.77895945167E+02 0.  0.
        -11    1    4    4    0    0  0.78208936189E+02 -0.70373431810E+02  0.20834834890E+03  0.23340542430E+03  0.00000000000E+00 0.  1.
         12    1    4    4    0    0  0.15617168084E+01 -0.35390274174E+02  0.19572718751E+03  0.19890712002E+03  0.00000000000E+00 0. -1.
        -13    1    3    3    0    0  0.17285906029E+02  0.28650402038E+02  0.38107294412E+02  0.50713055239E+02  0.00000000000E+00 0.  1.
         13    1    3    3    0    0 -0.82688045808E+02  0.11797677499E+03  0.36028096133E+03  0.38801830299E+03  0.00000000000E+00 0. -1.
         21    1    1    2  503  502  0.44433817380E+02 -0.66492948303E+02  0.61365498312E+03  0.61884417635E+03  0.00000000000E+00 0.  1.
          1    1    1    2  501    0 -0.58802330598E+02  0.25629477259E+02  0.12093432865E+03  0.13689300944E+03  0.00000000000E+00 0. -1.
<scales pt_clust_5="13000.00000" pt_clust_6="13000.00000" pt_clust_7="13000.00000" pt_clust_8="13000.00000" pt_clust_9="76.21477" pt_clust_10="64.14502"></scales>
<clustering>
<clus scale="   64.145">  2 10  1 -1</clus>
<clus scale="   76.215">  1  9  2 -1</clus>
<clus scale="   77.896">  5  6 -1 -1</clus>
<clus scale="   89.415">  7  8 -1 -1</clus>
<clus scale="  162.626">  2  5  1 -1</clus>
<clus scale="   64.145">  2  5  1 -1</clus>
</clustering>
</event>
<event>
10    4  0.3738096E-005  0.2452543E+03  0.7546771E-02  0.1116910E+00
          2   -1    0    0  503    0 -0.00000000000E+00  0.00000000000E+00  0.11692078507E+03  0.11692078507E+03  0.00000000000E+00 0. -1.
         21   -1    0    0  501  502  0.00000000000E+00 -0.00000000000E+00 -0.90893980728E+03  0.90893980728E+03  0.00000000000E+00 0. -1.
         24    2    1    2    0    0  0.22539289836E+03  0.12544228323E+03 -0.18627728156E+03  0.32802281024E+03  0.79762230141E+02 0.  0.
         23    2    1    2    0    0 -0.16113464726E+03 -0.11166989320E+03 -0.54534785443E+03  0.58642817666E+03  0.89772960596E+02 0.  0.
        -13    1    3    3    0    0  0.10558138820E+03  0.10363257935E+03 -0.94773997910E+02  0.17569647611E+03  0.00000000000E+00 0.  1.
         14    1    3    3    0    0  0.11981151016E+03  0.21809703881E+02 -0.91503283651E+02  0.15232633413E+03  0.00000000000E+00 0. -1.
        -11    1    4    4    0    0 -0.48005657321E+02 -0.66219435901E+02 -0.13028600226E+03  0.15383107362E+03  0.00000000000E+00 0.  1.
         11    1    4    4    0    0 -0.11312898994E+03 -0.45450457304E+02 -0.41506185216E+03  0.43259710304E+03  0.00000000000E+00 0. -1.
         21    1    1    2  503  502 -0.15557909081E+02 -0.26829893736E+02  0.21314181786E+01  0.31087532490E+02  0.00000000000E+00 0.  1.
          1    1    1    2  501    0 -0.48700342021E+02  0.13057503708E+02 -0.62525304391E+02  0.80322072964E+02  0.00000000000E+00 0. -1.
<scales pt_clust_5="13000.00000" pt_clust_6="13000.00000" pt_clust_7="13000.00000" pt_clust_8="13000.00000" pt_clust_9="31.01438" pt_clust_10="51.20608"></scales>
<clustering>
<clus scale="   31.014">  1  9  2 -1</clus>
<clus scale="   51.206">  2 10  1 -1</clus>
<clus scale="   79.762">  5  6 -1 -1</clus>
<clus scale="   89.773">  7  8 -1 -1</clus>
<clus scale="  241.770">  1  5  2 -1</clus>
<clus scale="   51.206">  2  5  1 -1</clus>
</clustering>
</event>
<event>
10    4  0.3738096E-005  0.1185988E+03  0.7546771E-02  0.1248382E+00
         21   -1    0    0  501  502  0.00000000000E+00  0.00000000000E+00  0.30169953389E+03  0.30169953389E+03  0.00000000000E+00 0. -1.
          4   -1    0    0  503    0 -0.00000000000E+00 -0.00000000000E+00 -0.57502202074E+03  0.57502202074E+03  0.00000000000E+00 0. -1.
         23    2    1    2    0    0 -0.27957255757E+02  0.44194792318E+02 -0.24796178979E+03  0.26865766241E+03  0.89202592791E+02 0.  0.
         24    2    1    2    0    0  0.10151503521E+03 -0.70127388374E+02 -0.57841469266E+02  0.15796047203E+03  0.79891940667E+02 0.  0.
        -13    1    4    4    0    0 -0.10374291896E+01 -0.40081995016E+02 -0.17226977700E+02  0.43639561689E+02  0.00000000000E+00 0.  1.
         14    1    4    4    0    0  0.10255246440E+03 -0.30045393359E+02 -0.40614491566E+02  0.11432091034E+03  0.00000000000E+00 0. -1.
        -11    1    3    3    0    0 -0.37826578170E+02  0.66932497560E+02 -0.20654934267E+03  0.22039382977E+03  0.00000000000E+00 0. -1.
         11    1    3    3    0    0  0.98693224124E+01 -0.22737705242E+02 -0.41412447117E+02  0.48263832637E+02  0.00000000000E+00 0.  1.
         21    1    1    2  503  502  0.34332218583E+00  0.30286269064E+02 -0.20197734140E+03  0.20423570306E+03  0.00000000000E+00 0. -1.
          3    1    1    2  501    0 -0.73901101634E+02 -0.43536730077E+01  0.23445811361E+03  0.24586771713E+03  0.00000000000E+00 0. -1.
<scales pt_clust_5="13000.00000" pt_clust_6="13000.00000" pt_clust_7="13000.00000" pt_clust_8="13000.00000" pt_clust_9="30.28821" pt_clust_10="73.99811"></scales>
<clustering>
<clus scale="   30.288">  2  9  1 -1</clus>
<clus scale="   73.998">  1 10  2 -1</clus>
<clus scale="   79.892">  5  6 -1 -1</clus>
<clus scale="   89.203">  7  8 -1 -1</clus>
<clus scale="  111.765">  1  5  2 -1</clus>
<clus scale="   73.998">  1  5  2 -1</clus>
</clustering>
</event>
<event>
10    4  0.3738096E-005  0.1529661E+03  0.7546771E-02  0.1197254E+00
         21   -1    0    0  503  502  0.00000000000E+00  0.00000000000E+00  0.25123693829E+03  0.25123693829E+03  0.00000000000E+00 0.  1.
         -1   -1    0    0    0  501 -0.00000000000E+00 -0.00000000000E+00 -0.44410893725E+03  0.44410893725E+03  0.00000000000E+00 0.  1.
         23    2    1    2    0    0  0.92948204124E+02  0.10667061695E+03 -0.25978316645E+03  0.30968700455E+03  0.91655649286E+02 0.  0.
         24    2    1    2    0    0 -0.35025313465E+02 -0.63197907144E+02 -0.19134613746E+02  0.11663383197E+03  0.89535296202E+02 0.  0.
        -11    1    4    4    0    0 -0.35959943712E+02 -0.64735707760E+01 -0.41820988103E+02  0.55533951024E+02  0.00000000000E+00 0.  1.
         12    1    4    4    0    0  0.93463024684E+00 -0.56724336368E+02  0.22686374357E+02  0.61099880946E+02  0.00000000000E+00 0. -1.
        -13    1    3    3    0    0  0.86454069045E+02  0.36507394219E+02 -0.11315940462E+03  0.14701070281E+03  0.00000000000E+00 0.  1.
         13    1    3    3    0    0  0.64941350796E+01  0.70163222733E+02 -0.14662376182E+03  0.16267630174E+03  0.00000000000E+00 0. -1.
         21    1    1    2  503  501 -0.63697399339E+01  0.34284314263E+02 -0.75111460765E+02  0.82811347831E+02  0.00000000000E+00 0.  1.
         -2    1    1    2    0  502 -0.51553150725E+02 -0.77757024072E+02  0.16115724199E+03  0.18621369120E+03  0.00000000000E+00 0.  1.
<scales pt_clust_5="13000.00000" pt_clust_6="13000.00000" pt_clust_7="13000.00000" pt_clust_8="13000.00000" pt_clust_9="34.87102" pt_clust_10="92.43872"></scales>
<clustering>
<clus scale="   34.871">  2  9  1 -1</clus>
<clus scale="   89.535">  5  6 -1 -1</clus>
<clus scale="   91.656">  7  8 -1 -1</clus>
<clus scale="   92.439">  1 10  2 -1</clus>
<clus scale="  151.705">  1  5  2 -1</clus>
<clus scale="   92.439">  1  5  2 -1</clus>
</clustering>
</event>
<event>
10    4  0.3738096E-005  0.1543922E+03  0.7546771E-02  0.1197096E+00
         -1   -1    0    0    0  501 -0.00000000000E+00  0.00000000000E+00  0.43024404408E+03  0.43024404408E+03  0.00000000000E+00 0.  1.
         21   -1    0    0  503  502  0.00000000000E+00 -0.00000000000E+00 -0.14887560612E+03  0.14887560612E+03  0.00000000000E+00 0.  1.
         24    2    1    2    0    0  0.12944113190E+03  0.18963163515E+02  0.28677121636E+03  0.32503225689E+03  0.79332397467E+02 0.  0.
         23    2    1    2    0    0 -0.66274845602E+02 -0.15256530172E+02 -0.59070512611E+02  0.12777519105E+03  0.90620401204E+02 0.  0.
        -11    1    3    3    0    0  0.12490005742E+03 -0.79518600786E+01  0.22419096479E+03  0.25675833991E+03  0.00000000000E+00 0.  1.
         12    1    3    3    0    0  0.45410744788E+01  0.26915023594E+02  0.62580251567E+02  0.68273916972E+02  0.00000000000E+00 0. -1.
        -13    1    4    4    0    0  0.11380046704E+02  0.23026560065E+02 -0.65331282311E+01  0.26503012959E+02  0.00000000000E+00 0.  1.
         13    1    4    4    0    0 -0.77654892306E+02 -0.38283090236E+02 -0.52537384380E+02  0.10127217809E+03  0.00000000000E+00 0. -1.
         21    1    1    2  503  501  0.62448494254E+01  0.24714928957E+02  0.43777116421E+02  0.50658284414E+02  0.00000000000E+00 0. -1.
         -2    1    1    2    0  502 -0.69411135721E+02 -0.28421562300E+02  0.98906177914E+01  0.75653917849E+02  0.00000000000E+00 0.  1.
<scales pt_clust_5="13000.00000" pt_clust_6="13000.00000" pt_clust_7="13000.00000" pt_clust_8="13000.00000" pt_clust_9="25.49168" pt_clust_10="73.34919"></scales>
<clustering>
<clus scale="   25.492">  1  9  2 -1</clus>
<clus scale="   73.349">  2 10  1 -1</clus>
<clus scale="   79.332">  5  6 -1 -1</clus>
<clus scale="   90.620">  7  8 -1 -1</clus>
<clus scale="  148.049">  1  5  2 -1</clus>
<clus scale="   73.349">  2  5  1 -1</clus>
</clustering>
</event>
<event>
10    4  0.3738096E-005  0.1399496E+03  0.7546771E-02  0.1233681E+00
         21   -1    0    0  501  502  0.00000000000E+00  0.00000000000E+00  0.11607462372E+04  0.11607462372E+04  0.00000000000E+00 0. -1.
          2   -1    0    0  503    0 -0.00000000000E+00 -0.00000000000E+00 -0.66943507568E+02  0.66943507568E+02  0.00000000000E+00 0. -1.
         24    2    1    2    0    0 -0.30101720012E+02 -0.77083349231E+01  0.65536794714E+02  0.11266344115E+03  0.86211643851E+02 0.  0.
         23    2    1    2    0    0  0.69019164003E+02 -0.82049658953E+02  0.18581201544E+03  0.23114536807E+03  0.86059773207E+02 0.  0.
        -11    1    3    3    0    0 -0.52675205174E+02 -0.16998457122E+02  0.68507102204E+02  0.88072968821E+02  0.00000000000E+00 0.  1.
         12    1    3    3    0    0  0.22573485161E+02  0.92901221990E+01 -0.29703074898E+01  0.24590472329E+02  0.00000000000E+00 0. -1.
        -13    1    4    4    0    0  0.34194200700E+02 -0.74805638254E+02  0.17596200638E+03  0.19423633688E+03  0.00000000000E+00 0.  1.
         13    1    4    4    0    0  0.34824963303E+02 -0.72440206989E+01  0.98500090638E+01  0.36909031191E+02  0.00000000000E+00 0. -1.
         21    1    1    2  503  502  0.72783394452E+02  0.63774670339E+02  0.12896850470E+03  0.16123742212E+03  0.00000000000E+00 0. -1.
          1    1    1    2  501    0 -0.11170083844E+03  0.25983323538E+02  0.71348541479E+03  0.72264351345E+03  0.00000000000E+00 0. -1.
<scales pt_clust_5="13000.00000" pt_clust_6="13000.00000" pt_clust_7="13000.00000" pt_clust_8="13000.00000" pt_clust_9="86.61860" pt_clust_10="110.36123"></scales>
<clustering>
<clus scale="   86.060">  7  8 -1 -1</clus>
<clus scale="   86.212">  5  6 -1 -1</clus>
<clus scale="   91.640">  2  5  1 -1</clus>
<clus scale="   86.619">  2  9  1 -1</clus>
<clus scale="  110.361">  1 10  2 -1</clus>
<clus scale="  110.361">  1  5  2 -1</clus>
</clustering>
</event>
<event>
10    4  0.3738096E-005  0.1192979E+03  0.7546771E-02  0.1247448E+00
          2   -1    0    0  503    0 -0.00000000000E+00  0.00000000000E+00  0.27351438291E+03  0.27351438291E+03  0.00000000000E+00 0. -1.
         21   -1    0    0  501  502  0.00000000000E+00 -0.00000000000E+00 -0.13124791313E+03  0.13124791313E+03  0.00000000000E+00 0. -1.
         23    2    1    2    0    0  0.51244594109E+02 -0.67732010888E+02  0.23104727003E+02  0.12687725774E+03  0.91380393940E+02 0.  0.
         24    2    1    2    0    0 -0.32974164500E+02  0.52677424833E+02 -0.29777150259E+02  0.10670650844E+03  0.81470201022E+02 0.  0.
        -13    1    4    4    0    0  0.10869622882E+02 -0.16882518698E+02 -0.34738852487E+01  0.20377340796E+02  0.00000000000E+00 0.  1.
         14    1    4    4    0    0 -0.43843787382E+02  0.69559943531E+02 -0.26303265010E+02  0.86329167645E+02  0.00000000000E+00 0. -1.
        -11    1    3    3    0    0  0.23095633135E+02  0.21188542215E+02  0.31840530707E+01  0.31503980463E+02  0.00000000000E+00 0. -1.
         11    1    3    3    0    0  0.28148960974E+02 -0.88920553102E+02  0.19920673933E+02  0.95373277273E+02  0.00000000000E+00 0.  1.
         21    1    1    2  503  502 -0.28814651301E+01 -0.33337362698E+02  0.54483911708E+02  0.63938871025E+02  0.00000000000E+00 0.  1.
          1    1    1    2  501    0 -0.15388964479E+02  0.48391948753E+02  0.94454981321E+02  0.10723965884E+03  0.00000000000E+00 0. -1.
<scales pt_clust_5="13000.00000" pt_clust_6="13000.00000" pt_clust_7="13000.00000" pt_clust_8="13000.00000" pt_clust_9="33.46166" pt_clust_10="36.74157"></scales>
<clustering>
<clus scale="   33.462">  1  9  2 -1</clus>
<clus scale="   36.742">  2 10  1 -1</clus>
<clus scale="   81.470">  5  6 -1 -1</clus>
<clus scale="   91.380">  7  8 -1 -1</clus>
<clus scale="  111.888">  2  5  1 -1</clus>
<clus scale="   36.742">  2  5  1 -1</clus>
</clustering>
</event>
<event>
10    4  0.3738096E-005  0.1176966E+03  0.7546771E-02  0.1251912E+00
          2   -1    0    0  503    0 -0.00000000000E+00  0.00000000000E+00  0.18541715619E+04  0.18541715619E+04  0.00000000000E+00 0. -1.
         21   -1    0    0  501  502  0.00000000000E+00 -0.00000000000E+00 -0.23295335621E+02  0.23295335621E+02  0.00000000000E+00 0.  1.
         24    2    1    2    0    0 -0.49179633781E+02 -0.10364250032E+03  0.10520655008E+04  0.10608323848E+04  0.73233369663E+02 0.  0.
         23    2    1    2    0    0 -0.23653467923E+02  0.41469059631E+02  0.46768399245E+03  0.47839914320E+03  0.88646793338E+02 0.  0.
        -13    1    3    3    0    0 -0.11593487086E+01 -0.26112974362E+02  0.73181674501E+02  0.77709645491E+02  0.00000000000E+00 0.  1.
         14    1    3    3    0    0 -0.48020285073E+02 -0.77529525959E+02  0.97888382631E+03  0.98312273933E+03  0.00000000000E+00 0. -1.
        -11    1    4    4    0    0 -0.45963580113E+02 -0.72174606836E+01  0.24369656514E+03  0.24809828354E+03  0.00000000000E+00 0.  1.
         11    1    4    4    0    0  0.22310112190E+02  0.48686520314E+02  0.22398742731E+03  0.23030085966E+03  0.00000000000E+00 0. -1.
         21    1    1    2  503  502  0.57254359826E+02  0.79873095534E+02  0.29129308852E+03  0.30742387111E+03  0.00000000000E+00 0. -1.
          1    1    1    2  501    0  0.15578741878E+02 -0.17699654844E+02  0.19833644545E+02  0.30811498438E+02  0.00000000000E+00 0. -1.
<scales pt_clust_5="13000.00000" pt_clust_6="13000.00000" pt_clust_7="13000.00000" pt_clust_8="13000.00000" pt_clust_9="96.43217" pt_clust_10="23.57912"></scales>
<clustering>
<clus scale="   23.579">  2 10  1 -1</clus>
<clus scale="   73.233">  5  6 -1 -1</clus>
<clus scale="   88.647">  7  8 -1 -1</clus>
<clus scale="   96.432">  2  9  1 -1</clus>
<clus scale="  106.571">  1  5  2 -1</clus>
<clus scale="   23.579">  2  5  1 -1</clus>
</clustering>
</event>
<event>
10    4  0.3738096E-005  0.1189027E+03  0.7546771E-02  0.1248861E+00
         21   -1    0    0  501  502  0.00000000000E+00  0.00000000000E+00  0.48577998363E+03  0.48577998363E+03  0.00000000000E+00 0. -1.
          2   -1    0    0  503    0 -0.00000000000E+00 -0.00000000000E+00 -0.23030137091E+03  0.23030137091E+03  0.00000000000E+00 0. -1.
         24    2    1    2    0    0 -0.35601566162E+02  0.14685538131E+02 -0.12574957669E+03  0.15414783833E+03  0.80408105808E+02 0.  0.
         23    2    1    2    0    0 -0.13085912884E+02 -0.57493301470E+02  0.13368346649E+03  0.17286890849E+03  0.92388686967E+02 0.  0.
        -11    1    3    3    0    0  0.20710661651E+02 -0.11666749818E+02 -0.18267971000E+02  0.29979381611E+02  0.00000000000E+00 0.  1.
         12    1    3    3    0    0 -0.56312227812E+02  0.26352287949E+02 -0.10748160569E+03  0.12416845672E+03  0.00000000000E+00 0. -1.
        -11    1    4    4    0    0  0.30273493268E+02 -0.57042250103E+02  0.94293732057E+02  0.11428740349E+03  0.00000000000E+00 0.  1.
         11    1    4    4    0    0 -0.43359406152E+02 -0.45105136702E+00  0.39389734436E+02  0.58581505001E+02  0.00000000000E+00 0. -1.
         21    1    1    2  503  502 -0.38348822786E+02  0.51392807078E+02 -0.48481917574E+02  0.80388737769E+02  0.00000000000E+00 0. -1.
          1    1    1    2  501    0  0.87036301831E+02 -0.85850437398E+01  0.29602664049E+03  0.30867586996E+03  0.00000000000E+00 0. -1.
<scales pt_clust_5="13000.00000" pt_clust_6="13000.00000" pt_clust_7="13000.00000" pt_clust_8="13000.00000" pt_clust_9="64.12373" pt_clust_10="85.83012"></scales>
<clustering>
<clus scale="   64.124">  2  9  1 -1</clus>
<clus scale="   80.408">  5  6 -1 -1</clus>
<clus scale="   85.830">  1 10  2 -1</clus>
<clus scale="   92.389">  7  8 -1 -1</clus>
<clus scale="  109.853">  2  5  1 -1</clus>
<clus scale="   85.830">  1  5  2 -1</clus>
</clustering>
</event>
<event>
10    4  0.3738096E-005  0.2437327E+03  0.7546771E-02  0.1147415E+00
         21   -1    0    0  503  502  0.00000000000E+00  0.00000000000E+00  0.90766851873E+03  0.90766851873E+03  0.00000000000E+00 0.  1.
         -1   -1    0    0    0  501 -0.00000000000E+00 -0.00000000000E+00 -0.15923151321E+03  0.15923151321E+03  0.00000000000E+00 0.  1.
         23    2    1    2    0    0 -0.49679617003E+02 -0.49873914368E+02  0.30327228051E+03  0.32384583655E+03  0.89143581051E+02 0.  0.
         24    2    1    2    0    0 -0.77898785436E+02 -0.16865797732E+03  0.16904854274E+03  0.26300334924E+03  0.77971904068E+02 0.  0.
        -13    1    4    4    0    0 -0.88884983989E+02 -0.11010481420E+03  0.12637722578E+03  0.18972299198E+03  0.00000000000E+00 0.  1.
         14    1    4    4    0    0  0.10986198552E+02 -0.58553163115E+02  0.42671316957E+02  0.73280357261E+02  0.00000000000E+00 0. -1.
        -11    1    3    3    0    0 -0.45993337671E+01 -0.65078846353E+02  0.15645939724E+03  0.16951682246E+03  0.00000000000E+00 0. -1.
         11    1    3    3    0    0 -0.45080283236E+02  0.15204931986E+02  0.14681288328E+03  0.15432901409E+03  0.00000000000E+00 0.  1.
         21    1    1    2  503  501 -0.78279349165E+02 -0.10519271444E+02  0.25495523340E+02  0.82995983564E+02  0.00000000000E+00 0. -1.
         -2    1    1    2    0  502  0.20585775160E+03  0.22905116313E+03  0.25062065892E+03  0.39705486259E+03  0.00000000000E+00 0.  1.
<scales pt_clust_5="13000.00000" pt_clust_6="13000.00000" pt_clust_7="13000.00000" pt_clust_8="13000.00000" pt_clust_9="78.98298" pt_clust_10="230.92435"></scales>
<clustering>
<clus scale="   77.972">  5  6 -1 -1</clus>
<clus scale="   78.983">  2  9  1 -1</clus>
<clus scale="   89.144">  7  8 -1 -1</clus>
<clus scale="  116.776">  2  7  1 -1</clus>
<clus scale="  230.924">  1 10  2 -1</clus>
<clus scale="  230.924">  1  5  2 -1</clus>
</clustering>
</event>
<event>
10    4  0.3738096E-005  0.1080646E+03  0.7546771E-02  0.1267913E+00
         21   -1    0    0  501  502  0.00000000000E+00  0.00000000000E+00  0.21766430657E+03  0.21766430657E+03  0.00000000000E+00 0. -1.
          4   -1    0    0  503    0 -0.00000000000E+00 -0.00000000000E+00 -0.13107016981E+03  0.13107016981E+03  0.00000000000E+00 0. -1.
         24    2    1    2    0    0  0.10101359494E+02 -0.52226344858E+02 -0.50915320988E+02  0.11018967014E+03  0.81974172354E+02 0.  0.
         23    2    1    2    0    0 -0.25968624473E+02  0.70063317717E+02  0.57258495900E+02  0.13097499369E+03  0.91064129446E+02 0.  0.
        -13    1    3    3    0    0  0.34282309708E+02  0.51510067390E+01 -0.25030021716E+02  0.42758760699E+02  0.00000000000E+00 0.  1.
         14    1    3    3    0    0 -0.24180950214E+02 -0.57377351597E+02 -0.25885299271E+02  0.67430909440E+02  0.00000000000E+00 0. -1.
        -11    1    4    4    0    0 -0.31268891437E+02 -0.21673521513E+01  0.48881091416E+02  0.58067220401E+02  0.00000000000E+00 0.  1.
         11    1    4    4    0    0  0.53002669644E+01  0.72230669868E+02  0.83774044839E+01  0.72907773285E+02  0.00000000000E+00 0. -1.
         21    1    1    2  503  502 -0.23577872430E+02 -0.12746899623E+02  0.13852702161E+02  0.30171126520E+02  0.00000000000E+00 0.  1.
          3    1    1    2  501    0  0.39445137408E+02 -0.50900732350E+01  0.66398259686E+02  0.77398686035E+02  0.00000000000E+00 0. -1.
<scales pt_clust_5="13000.00000" pt_clust_6="13000.00000" pt_clust_7="13000.00000" pt_clust_8="13000.00000" pt_clust_9="26.80298" pt_clust_10="32.29536"></scales>
<clustering>
<clus scale="   26.803">  1  9  2 -1</clus>
<clus scale="   32.295">  1 10  2 -1</clus>
<clus scale="   81.974">  5  6 -1 -1</clus>
<clus scale="   91.064">  7  8 -1 -1</clus>
<clus scale="  100.524">  2  5  1 -1</clus>
<clus scale="   26.803">  1  5  2 -1</clus>
</clustering>
</event>
<event>
10    4  0.3738096E-005  0.3664007E+03  0.7546771E-02  0.1056288E+00
         21   -1    0    0  501  502  0.00000000000E+00  0.00000000000E+00  0.10239878589E+04  0.10239878589E+04  0.00000000000E+00 0. -1.
          2   -1    0    0  503    0 -0.00000000000E+00 -0.00000000000E+00 -0.28222216611E+03  0.28222216611E+03  0.00000000000E+00 0. -1.
         24    2    1    2    0    0  0.23670288949E+03 -0.18634811888E+03  0.30735299292E+03  0.43793340513E+03  0.81030400267E+02 0.  0.
         23    2    1    2    0    0 -0.36205603143E+03  0.23421926078E+03  0.39755896380E+03  0.59341945524E+03  0.90278946295E+02 0.  0.
        -11    1    3    3    0    0  0.10437789392E+03 -0.84363444404E+02  0.81537827418E+02  0.15703615122E+03  0.00000000000E+00 0.  1.
         12    1    3    3    0    0  0.13232499557E+03 -0.10198467448E+03  0.22581516551E+03  0.28089725391E+03  0.00000000000E+00 0. -1.
        -13    1    4    4    0    0 -0.13970787857E+03  0.72078683657E+02  0.91743931874E+02  0.18201806781E+03  0.00000000000E+00 0.  1.
         13    1    4    4    0    0 -0.22234815286E+03  0.16214057712E+03  0.30581503193E+03  0.41140138744E+03  0.00000000000E+00 0. -1.
         21    1    1    2  503  502 -0.48317669989E+02 -0.38417398690E+02 -0.50934231346E+02  0.80029929889E+02  0.00000000000E+00 0. -1.
          1    1    1    2  501    0  0.17367081193E+03 -0.94537432069E+01  0.87787967401E+02  0.19482723475E+03  0.00000000000E+00 0. -1.
<scales pt_clust_5="13000.00000" pt_clust_6="13000.00000" pt_clust_7="13000.00000" pt_clust_8="13000.00000" pt_clust_9="61.72920" pt_clust_10="162.84501"></scales>
<clustering>
<clus scale="   61.729">  2  9  1 -1</clus>
<clus scale="   81.030">  5  6 -1 -1</clus>
<clus scale="   90.279">  7  8 -1 -1</clus>
<clus scale="  162.845">  1 10  2 -1</clus>
<clus scale="  364.232">  2  5  1 -1</clus>
<clus scale="  162.845">  1  5  2 -1</clus>
</clustering>
</event>
<event>
10    4  0.3738096E-005  0.1599471E+03  0.7546771E-02  0.1190142E+00
          4   -1    0    0  503    0 -0.00000000000E+00  0.00000000000E+00  0.33670540194E+03  0.33670540194E+03  0.00000000000E+00 0. -1.
         21   -1    0    0  501  502  0.00000000000E+00 -0.00000000000E+00 -0.21359805660E+03  0.21359805660E+03  0.00000000000E+00 0. -1.
         23    2    1    2    0    0 -0.96334242275E+00  0.11134762042E+03  0.13834398807E+03  0.19899698131E+03  0.89785961789E+02 0.  0.
         24    2    1    2    0    0 -0.13083538490E+03 -0.12148037171E+03 -0.60733937398E+00  0.19600218309E+03  0.80877118283E+02 0.  0.
        -11    1    4    4    0    0 -0.43989076652E+02 -0.54634735775E+02 -0.38536166418E+02  0.80031427202E+02  0.00000000000E+00 0.  1.
         12    1    4    4    0    0 -0.86846308251E+02 -0.66845635937E+02  0.37928827044E+02  0.11597075589E+03  0.00000000000E+00 0. -1.
        -11    1    3    3    0    0  0.26563894684E+02 -0.95287697430E+00  0.17961698620E+02  0.32080696573E+02  0.00000000000E+00 0.  1.
         11    1    3    3    0    0 -0.27527237107E+02  0.11230049739E+03  0.12038228945E+03  0.16691628474E+03  0.00000000000E+00 0. -1.
         21    1    1    2  503  502  0.44527545692E+02  0.20347927948E+02  0.29313794487E+02  0.57061712596E+02  0.00000000000E+00 0. -1.
          3    1    1    2  501    0  0.87271181633E+02 -0.10215176654E+02 -0.43943097846E+02  0.98242581532E+02  0.00000000000E+00 0. -1.
<scales pt_clust_5="13000.00000" pt_clust_6="13000.00000" pt_clust_7="13000.00000" pt_clust_8="13000.00000" pt_clust_9="48.95652" pt_clust_10="91.76900"></scales>
<clustering>
<clus scale="   48.957">  1  9  2 -1</clus>
<clus scale="   80.877">  5  6 -1 -1</clus>
<clus scale="   89.786">  7  8 -1 -1</clus>
<clus scale="   91.769">  2 10  1 -1</clus>
<clus scale="  155.121">  2  5  1 -1</clus>
<clus scale="   91.769">  2  5  1 -1</clus>
</clustering>
</event>
<event>
10    4  0.3738096E-005  0.1062297E+03  0.7546771E-02  0.1271337E+00
          2   -1    0    0  503    0 -0.00000000000E+00  0.00000000000E+00  0.59570491766E+03  0.59570491766E+03  0.00000000000E+00 0. -1.
         21   -1    0    0  501  502  0.00000000000E+00 -0.00000000000E+00 -0.20143474080E+03  0.20143474080E+03  0.00000000000E+00 0.  1.
         23    2    1    2    0    0  0.27616876800E+02 -0.48783826344E+02  0.46599297045E+03  0.47807773366E+03  0.90919290117E+02 0.  0.
         24    2    1    2    0    0  0.85946874749E+02  0.82115145658E+02 -0.52709438638E+02  0.15394278807E+03  0.82403486881E+02 0.  0.
        -11    1    4    4    0    0  0.32137647616E+02  0.16646896897E+02 -0.58728535476E+02  0.68985422009E+02  0.00000000000E+00 0.  1.
         12    1    4    4    0    0  0.53809227133E+02  0.65468248761E+02  0.60190968376E+01  0.84957366056E+02  0.00000000000E+00 0. -1.
        -13    1    3    3    0    0 -0.30996312966E+02 -0.26034077664E+02  0.24473588774E+03  0.24806087835E+03  0.00000000000E+00 0. -1.
         13    1    3    3    0    0  0.58613189766E+02 -0.22749748679E+02  0.22125708270E+03  0.23001685531E+03  0.00000000000E+00 0.  1.
         21    1    1    2  503  502 -0.68274564743E+02 -0.23061154314E+01  0.44223173006E+02  0.81378273452E+02  0.00000000000E+00 0. -1.
          1    1    1    2  501    0 -0.45289186805E+02 -0.31025203883E+02 -0.63236527953E+02  0.83740863293E+02  0.00000000000E+00 0. -1.
<scales pt_clust_5="13000.00000" pt_clust_6="13000.00000" pt_clust_7="13000.00000" pt_clust_8="13000.00000" pt_clust_9="75.15972" pt_clust_10="54.89694"></scales>
<clustering>
<clus scale="   54.897">  2 10  1 -1</clus>
<clus scale="   75.160">  2  9  1 -1</clus>
<clus scale="   82.403">  5  6 -1 -1</clus>
<clus scale="   90.919">  7  8 -1 -1</clus>
<clus scale="   99.039">  2  5  1 -1</clus>
<clus scale="   54.897">  2  5  1 -1</clus>
</clustering>
</event>
<event>
10    4  0.3738096E-005  0.3331099E+03  0.7546771E-02  0.1115344E+00
          2   -1    0    0  503    0 -0.00000000000E+00  0.00000000000E+00  0.11491279354E+04  0.11491279354E+04  0.00000000000E+00 0. -1.
         21   -1    0    0  501  502  0.00000000000E+00 -0.00000000000E+00 -0.20143861214E+03  0.20143861214E+03  0.00000000000E+00 0.  1.
         23    2    1    2    0    0  0.43663692595E+02  0.36065498013E+01  0.65772114893E+02  0.12000412010E+03  0.90307765404E+02 0.  0.
         24    2    1    2    0    0 -0.18574217154E+03 -0.23847552265E+03  0.14414543760E+03  0.34435710941E+03  0.80207122022E+02 0.  0.
        -13    1    4    4    0    0 -0.13628328817E+03 -0.11022429600E+03  0.80570426597E+02  0.19290962574E+03  0.00000000000E+00 0.  1.
         14    1    4    4    0    0 -0.49458883373E+02 -0.12825122666E+03  0.63575011008E+02  0.15144748367E+03  0.00000000000E+00 0. -1.
        -11    1    3    3    0    0  0.51954914544E+02 -0.16499387837E+02  0.41648195832E+01  0.54670729522E+02  0.00000000000E+00 0.  1.
         11    1    3    3    0    0 -0.82912219493E+01  0.20105937638E+02  0.61607295310E+02  0.65333390583E+02  0.00000000000E+00 0. -1.
         21    1    1    2  503  502 -0.10451389737E+03 -0.46357388405E+02  0.21353433664E+03  0.24221700008E+03  0.00000000000E+00 0.  1.
          1    1    1    2  501    0  0.24659237631E+03  0.28122636126E+03  0.52423743409E+03  0.64398831793E+03  0.00000000000E+00 0. -1.
<scales pt_clust_5="13000.00000" pt_clust_6="13000.00000" pt_clust_7="13000.00000" pt_clust_8="13000.00000" pt_clust_9="105.45284" pt_clust_10="323.30967"></scales>
<clustering>
<clus scale="   80.207">  5  6 -1 -1</clus>
<clus scale="   90.308">  7  8 -1 -1</clus>
<clus scale="  100.374">  1  7  2 -1</clus>
<clus scale="  105.453">  1  9  2 -1</clus>
<clus scale="  323.310">  2 10  1 -1</clus>
<clus scale="  323.310">  2  5  1 -1</clus>
</clustering>
</event>
<event>
10    4  0.3738096E-005  0.3249847E+03  0.7546771E-02  0.1129004E+00
          2   -1    0    0  502    0 -0.00000000000E+00  0.00000000000E+00  0.43242776508E+03  0.43242776508E+03  0.00000000000E+00 0. -1.
         21   -1    0    0  503  502  0.00000000000E+00 -0.00000000000E+00 -0.48104482170E+03  0.48104482170E+03  0.00000000000E+00 0. -1.
         24    2    1    2    0    0  0.97097297617E+01 -0.20922180798E+01 -0.18949397755E+01  0.77457243162E+02  0.76794384515E+02 0.  0.
         23    2    1    2    0    0 -0.12695710116E+03  0.27665297076E+03  0.18114618397E+03  0.36589173674E+03  0.91694336130E+02 0.  0.
        -13    1    3    3    0    0 -0.22518947162E+02  0.64893678953E+01  0.25254050976E+02  0.34452604657E+02  0.00000000000E+00 0.  1.
         14    1    3    3    0    0  0.32228676924E+02 -0.85815859751E+01 -0.27148990751E+02  0.43004638505E+02  0.00000000000E+00 0. -1.
        -13    1    4    4    0    0 -0.77340119409E+02  0.24415581175E+03  0.16411496078E+03  0.30418296276E+03  0.00000000000E+00 0. -1.
         13    1    4    4    0    0 -0.49616981755E+02  0.32497159008E+02  0.17031223189E+02  0.61708773974E+02  0.00000000000E+00 0.  1.
         21    1    1    2  503  501 -0.60659008992E+02  0.19085567137E+02 -0.12431877956E+02  0.64794489228E+02  0.00000000000E+00 0. -1.
          1    1    1    2  501    0  0.17790638039E+03 -0.29364631982E+03 -0.21543642286E+03  0.40532911766E+03  0.00000000000E+00 0. -1.
<scales pt_clust_5="13000.00000" pt_clust_6="13000.00000" pt_clust_7="13000.00000" pt_clust_8="13000.00000" pt_clust_9="63.59068" pt_clust_10="311.78073"></scales>
<clustering>
<clus scale="   63.591">  2  9  1 -1</clus>
<clus scale="   76.794">  5  6 -1 -1</clus>
<clus scale="   76.914">  1  5  2 -1</clus>
<clus scale="   91.694">  7  8 -1 -1</clus>
<clus scale="  311.781">  2 10  1 -1</clus>
<clus scale="   63.591">  2  5  1 -1</clus>
</clustering>
</event>
<event>
10    4  0.3738096E-005  0.1207083E+03  0.7546771E-02  0.1246352E+00
         21   -1    0    0  501  502  0.00000000000E+00  0.00000000000E+00  0.24181879819E+03  0.24181879819E+03  0.00000000000E+00 0.  1.
          2   -1    0    0  503    0 -0.00000000000E+00 -0.00000000000E+00 -0.85572725060E+03  0.85572725060E+03  0.00000000000E+00 0. -1.
         23    2    1    2    0    0  0.64435516476E+02 -0.67778657548E+02 -0.27906113172E+03  0.30850985215E+03  0.92505845393E+02 0.  0.
         24    2    1    2    0    0  0.81066642265E+02 -0.11891732964E+02  0.16892998973E+03  0.20486752545E+03  0.81976507321E+02 0.  0.
        -13    1    4    4    0    0  0.71947115838E+02 -0.35986862831E+02  0.15714062405E+03  0.17653503194E+03  0.00000000000E+00 0.  1.
         14    1    4    4    0    0  0.91195264270E+01  0.24095129867E+02  0.11789365682E+02  0.28332493514E+02  0.00000000000E+00 0. -1.
        -11    1    3    3    0    0 -0.74587287442E+01 -0.48948226960E+02 -0.63662156321E+02  0.80650057064E+02  0.00000000000E+00 0.  1.
         11    1    3    3    0    0  0.71894245221E+02 -0.18830430588E+02 -0.21539897540E+03  0.22785979508E+03  0.00000000000E+00 0. -1.
         21    1    1    2  503  502 -0.10049890467E+02  0.74635071135E+02 -0.41582198382E+03  0.42258646023E+03  0.00000000000E+00 0. -1.
          1    1    1    2  501    0 -0.13545226827E+03  0.50353193771E+01 -0.87955326603E+02  0.16158221096E+03  0.00000000000E+00 0. -1.
<scales pt_clust_5="13000.00000" pt_clust_6="13000.00000" pt_clust_7="13000.00000" pt_clust_8="13000.00000" pt_clust_9="75.30866" pt_clust_10="88.60218"></scales>
<clustering>
<clus scale="   75.309">  2  9  1 -1</clus>
<clus scale="   81.977">  5  6 -1 -1</clus>
<clus scale="   92.506">  7  8 -1 -1</clus>
<clus scale="  110.414">  2  7  1 -1</clus>
<clus scale="   88.602">  1 10  2 -1</clus>
<clus scale="   88.602">  1  5  2 -1</clus>
</clustering>
</event>
<event>
10    4  0.3738096E-005  0.1526732E+03  0.7546771E-02  0.1210241E+00
         21   -1    0    0  501  502  0.00000000000E+00  0.00000000000E+00  0.63918492572E+02  0.63918492572E+02  0.00000000000E+00 0.  1.
          2   -1    0    0  503    0 -0.00000000000E+00 -0.00000000000E+00 -0.13609174446E+04  0.13609174446E+04  0.00000000000E+00 0. -1.
         23    2    1    2    0    0 -0.61990566257E+02 -0.42278259753E+02 -0.27937974350E+03  0.30306878048E+03  0.90373464405E+02 0.  0.
         24    2    1    2    0    0 -0.76235457088E+02 -0.94642117646E+02 -0.92803797480E+02  0.17206634595E+03  0.78900616160E+02 0.  0.
        -11    1    4    4    0    0 -0.72850910470E+02 -0.10060778598E+03 -0.10190726864E+03  0.16066820830E+03  0.00000000000E+00 0.  1.
         12    1    4    4    0    0 -0.33845466174E+01  0.59656683389E+01  0.91034711616E+01  0.11398137643E+02  0.00000000000E+00 0. -1.
        -13    1    3    3    0    0  0.18739743080E+02 -0.22166926722E+02 -0.38433988019E+02  0.48163492876E+02  0.00000000000E+00 0. -1.
         13    1    3    3    0    0 -0.80730309337E+02 -0.20111333031E+02 -0.24094575549E+03  0.25490528760E+03  0.00000000000E+00 0.  1.
         21    1    1    2  503  502  0.27224950869E+02 -0.12302036976E+02 -0.13961010284E+03  0.14277086145E+03  0.00000000000E+00 0.  1.
          1    1    1    2  501    0  0.11100107248E+03  0.14922241438E+03 -0.78520530817E+03  0.80692994926E+03  0.00000000000E+00 0. -1.
<scales pt_clust_5="13000.00000" pt_clust_6="13000.00000" pt_clust_7="13000.00000" pt_clust_8="13000.00000" pt_clust_9="29.87538" pt_clust_10="130.70507"></scales>
<clustering>
<clus scale="   29.875">  2  9  1 -1</clus>
<clus scale="   78.901">  5  6 -1 -1</clus>
<clus scale="   90.373">  7  8 -1 -1</clus>
<clus scale="  115.287">  2  7  1 -1</clus>
<clus scale="  130.705">  1 10  2 -1</clus>
<clus scale="  130.705">  1  5  2 -1</clus>
</clustering>
</event>
<event>
10    4  0.3738096E-005  0.1746722E+03  0.7546771E-02  0.1176368E+00
         21   -1    0    0  501  502  0.00000000000E+00  0.00000000000E+00  0.11724170263E+03  0.11724170263E+03  0.00000000000E+00 0.  1.
          2   -1    0    0  503    0 -0.00000000000E+00 -0.00000000000E+00 -0.70891689273E+03  0.70891689273E+03  0.00000000000E+00 0. -1.
         24    2    1    2    0    0  0.61812055752E+02 -0.10030780122E+03 -0.43514536060E+03  0.46425706561E+03  0.11090875934E+03 0.  0.
         23    2    1    2    0    0 -0.13046573984E+03  0.12419680985E+03 -0.10484241332E+03  0.22690901685E+03  0.89719638042E+02 0.  0.
        -11    1    3    3    0    0  0.66959138439E+02 -0.96847072334E+01 -0.23390625325E+03  0.24349426089E+03  0.00000000000E+00 0.  1.
         12    1    3    3    0    0 -0.51470826869E+01 -0.90623093987E+02 -0.20123910735E+03  0.22076280473E+03  0.00000000000E+00 0. -1.
        -13    1    4    4    0    0 -0.50370301737E+02  0.35278804602E+01 -0.52677161117E+02  0.72969147871E+02  0.00000000000E+00 0. -1.
         13    1    4    4    0    0 -0.80095438100E+02  0.12066892939E+03 -0.52165252200E+02  0.15393986898E+03  0.00000000000E+00 0.  1.
         21    1    1    2  503  502  0.38310821987E+02  0.28844013614E+02 -0.56327448930E+02  0.73976196885E+02  0.00000000000E+00 0.  1.
          1    1    1    2  501    0  0.30342862097E+02 -0.52733022247E+02  0.46400327508E+01  0.61016316011E+02  0.00000000000E+00 0. -1.
<scales pt_clust_5="13000.00000" pt_clust_6="13000.00000" pt_clust_7="13000.00000" pt_clust_8="13000.00000" pt_clust_9="47.95515" pt_clust_10="60.61740"></scales>
<clustering>
<clus scale="   47.955">  2  9  1 -1</clus>
<clus scale="   60.617">  1 10  2 -1</clus>
<clus scale="   89.720">  7  8 -1 -1</clus>
<clus scale="  110.909">  5  6 -1 -1</clus>
<clus scale="  162.047">  1  7  2 -1</clus>
<clus scale="   60.617">  1  5  2 -1</clus>
</clustering>
</event>
<event>
10    4  0.3738096E-005  0.2463903E+03  0.7546771E-02  0.1115791E+00
         21   -1    0    0  501  502  0.00000000000E+00  0.00000000000E+00  0.91251938122E+02  0.91251938122E+02  0.00000000000E+00 0. -1.
          2   -1    0    0  503    0 -0.00000000000E+00 -0.00000000000E+00 -0.11237206207E+04  0.11237206207E+04  0.00000000000E+00 0. -1.
         23    2    1    2    0    0 -0.66620389513E+02  0.20307037046E+03 -0.56930653249E+03  0.61391209546E+03  0.84275034021E+02 0.  0.
         24    2    1    2    0    0  0.98034647852E+02 -0.23667812101E+03 -0.24699233836E+03  0.36493392868E+03  0.80896427287E+02 0.  0.
        -11    1    4    4    0    0  0.58969896037E+02 -0.99845204631E+02 -0.16186444063E+03  0.19911456669E+03  0.00000000000E+00 0.  1.
         12    1    4    4    0    0  0.39064751816E+02 -0.13683291637E+03 -0.85127897726E+02  0.16581936199E+03  0.00000000000E+00 0. -1.
        -11    1    3    3    0    0  0.19502522640E+02  0.49311104386E+02 -0.11571655876E+03  0.12728808026E+03  0.00000000000E+00 0.  1.
         11    1    3    3    0    0 -0.86122912153E+02  0.15375926607E+03 -0.45358997373E+03  0.48662401520E+03  0.00000000000E+00 0. -1.
         21    1    1    2  503  502 -0.51347204562E+02 -0.48945746622E+01 -0.11288546910E+03  0.12411132669E+03  0.00000000000E+00 0.  1.
          1    1    1    2  501    0  0.19932946223E+02  0.38502325206E+02 -0.10328434261E+03  0.11201520799E+03  0.00000000000E+00 0. -1.
<scales pt_clust_5="13000.00000" pt_clust_6="13000.00000" pt_clust_7="13000.00000" pt_clust_8="13000.00000" pt_clust_9="50.11737" pt_clust_10="43.35612"></scales>
<clustering>
<clus scale="   43.356">  1 10  2 -1</clus>
<clus scale="   50.117">  2  9  1 -1</clus>
<clus scale="   80.896">  5  6 -1 -1</clus>
<clus scale="   84.275">  7  8 -1 -1</clus>
<clus scale="  245.255">  1  5  2 -1</clus>
<clus scale="   43.356">  1  5  2 -1</clus>
</clustering>
</event>
<event>
10    4  0.3738096E-005  0.9130661E+02  0.7546771E-02  0.1304585E+00
         21   -1    0    0  501  502  0.00000000000E+00  0.00000000000E+00  0.41981838672E+03  0.41981838672E+03  0.00000000000E+00 0. -1.
          2   -1    0    0  503    0 -0.00000000000E+00 -0.00000000000E+00 -0.18865737297E+03  0.18865737297E+03  0.00000000000E+00 0. -1.
         24    2    1    2    0    0  0.58390823360E+02  0.31765656766E+02  0.48633547714E+01  0.10495365548E+03  0.81074486600E+02 0.  0.
         23    2    1    2    0    0 -0.29561771750E+02  0.16227578334E+01  0.27234382107E+03  0.28807296280E+03  0.89097381140E+02 0.  0.
        -11    1    3    3    0    0  0.76407964877E+02  0.37530717531E+02  0.89605325139E+01  0.85598031508E+02  0.00000000000E+00 0.  1.
         12    1    3    3    0    0 -0.18017141517E+02 -0.57650607652E+01 -0.40971777425E+01  0.19355623977E+02  0.00000000000E+00 0. -1.
        -13    1    4    4    0    0 -0.50448116684E+02  0.24916691874E+02  0.11981883067E+03  0.13237222592E+03  0.00000000000E+00 0. -1.
         13    1    4    4    0    0  0.20886344934E+02 -0.23293934040E+02  0.15252499040E+03  0.15570073688E+03  0.00000000000E+00 0.  1.
         21    1    1    2  503  502 -0.57763267720E+02 -0.20153885699E+02 -0.12013603644E+03  0.13481632490E+03  0.00000000000E+00 0. -1.
          1    1    1    2  501    0  0.28934216110E+02 -0.13234528900E+02  0.74089874355E+02  0.80632816515E+02  0.00000000000E+00 0. -1.
<scales pt_clust_5="13000.00000" pt_clust_6="13000.00000" pt_clust_7="13000.00000" pt_clust_8="13000.00000" pt_clust_9="60.68795" pt_clust_10="31.81732"></scales>
<clustering>
<clus scale="   31.817">  1 10  2 -1</clus>
<clus scale="   60.688">  2  9  1 -1</clus>
<clus scale="   81.074">  5  6 -1 -1</clus>
<clus scale="   83.496">  2  5  1 -1</clus>
<clus scale="   89.097">  7  8 -1 -1</clus>
<clus scale="   31.817">  1  5  2 -1</clus>
</clustering>
</event>
<event>
10    4  0.3738096E-005  0.2453265E+03  0.7546771E-02  0.1116294E+00
          2   -1    0    0  503    0 -0.00000000000E+00  0.00000000000E+00  0.67914173051E+03  0.67914173051E+03  0.00000000000E+00 0. -1.
         21   -1    0    0  501  502  0.00000000000E+00 -0.00000000000E+00 -0.77816268811E+02  0.77816268811E+02  0.00000000000E+00 0. -1.
         24    2    1    2    0    0 -0.43609732495E+02  0.99262942065E+02  0.29601169829E+03  0.32553603148E+03  0.81214788271E+02 0.  0.
         23    2    1    2    0    0 -0.49990845418E+01  0.47169929443E+02  0.16288445173E+03  0.19762562221E+03  0.10136344926E+03 0.  0.
        -11    1    3    3    0    0  0.75746961206E+01  0.27995122296E+02  0.16708922462E+03  0.16958747559E+03  0.00000000000E+00 0.  1.
         12    1    3    3    0    0 -0.51184428615E+02  0.71267819769E+02  0.12892247367E+03  0.15594855589E+03  0.00000000000E+00 0. -1.
        -11    1    4    4    0    0 -0.35862740262E+02  0.45971247177E+02  0.15520936119E+03  0.16579938934E+03  0.00000000000E+00 0.  1.
         11    1    4    4    0    0  0.30863655720E+02  0.11986822660E+01  0.76750905468E+01  0.31826232867E+02  0.00000000000E+00 0. -1.
         21    1    1    2  503  502  0.79217762148E+02 -0.11136149049E+03  0.89760350067E+02  0.16350460498E+03  0.00000000000E+00 0. -1.
          1    1    1    2  501    0 -0.30608945111E+02 -0.35071381016E+02  0.52668961615E+02  0.70291740659E+02  0.00000000000E+00 0. -1.
<scales pt_clust_5="13000.00000" pt_clust_6="13000.00000" pt_clust_7="13000.00000" pt_clust_8="13000.00000" pt_clust_9="144.49245" pt_clust_10="46.55007"></scales>
<clustering>
<clus scale="   46.550">  2 10  1 -1</clus>
<clus scale="   81.215">  5  6 -1 -1</clus>
<clus scale="  101.363">  7  8 -1 -1</clus>
<clus scale="  102.697">  5  7 -1 -1</clus>
<clus scale="  144.492">  2  9  1 -1</clus>
<clus scale="   46.550">  2  5  1 -1</clus>
</clustering>
</event>
<event>
10    4  0.3738096E-005  0.1619304E+03  0.7546771E-02  0.1188442E+00
         21   -1    0    0  501  502  0.00000000000E+00  0.00000000000E+00  0.58192642308E+03  0.58192642308E+03  0.00000000000E+00 0.  1.
          2   -1    0    0  503    0 -0.00000000000E+00 -0.00000000000E+00 -0.19748077959E+03  0.19748077959E+03  0.00000000000E+00 0. -1.
         24    2    1    2    0    0 -0.42833934694E+02 -0.12845231116E+03 -0.38548089862E+02  0.16219986553E+03  0.80548736441E+02 0.  0.
         23    2    1    2    0    0  0.11733182265E+03  0.10111514471E+03  0.47383451539E+03  0.50707621505E+03  0.92823007924E+02 0.  0.
        -11    1    3    3    0    0  0.15501729999E+02 -0.54764496742E+02  0.77324188024E+01  0.57439046275E+02  0.00000000000E+00 0.  1.
         12    1    3    3    0    0 -0.58335664693E+02 -0.73687814421E+02 -0.46280508664E+02  0.10476081926E+03  0.00000000000E+00 0. -1.
        -13    1    4    4    0    0  0.69905490909E+02  0.38217898910E+01  0.22706601792E+03  0.23761388897E+03  0.00000000000E+00 0.  1.
         13    1    4    4    0    0  0.47426331745E+02  0.97293354817E+02  0.24676849747E+03  0.26946232608E+03  0.00000000000E+00 0. -1.
         21    1    1    2  503  502 -0.15745573844E+02  0.12397623152E+02 -0.44960405832E+02  0.49224610187E+02  0.00000000000E+00 0. -1.
          1    1    1    2  501    0 -0.58752314115E+02  0.14939543303E+02 -0.58803762070E+01  0.60906511904E+02  0.00000000000E+00 0. -1.
<scales pt_clust_5="13000.00000" pt_clust_6="13000.00000" pt_clust_7="13000.00000" pt_clust_8="13000.00000" pt_clust_9="20.04056" pt_clust_10="64.71408"></scales>
<clustering>
<clus scale="   20.041">  2  9  1 -1</clus>
<clus scale="   64.714">  1 10  2 -1</clus>
<clus scale="   80.549">  5  6 -1 -1</clus>
<clus scale="   92.823">  7  8 -1 -1</clus>
<clus scale="  155.221">  2  5  1 -1</clus>
<clus scale="   64.714">  1  5  2 -1</clus>
</clustering>
</event>
<event>
10    4  0.3738096E-005  0.4770068E+03  0.7546771E-02  0.1060785E+00
         21   -1    0    0  501  502  0.00000000000E+00  0.00000000000E+00  0.89042088594E+03  0.89042088594E+03  0.00000000000E+00 0. -1.
          2   -1    0    0  503    0 -0.00000000000E+00 -0.00000000000E+00 -0.67590579054E+03  0.67590579054E+03  0.00000000000E+00 0. -1.
         23    2    1    2    0    0  0.10585965653E+03 -0.49502031954E+02  0.21255346707E+02  0.15047864958E+03  0.92386774848E+02 0.  0.
         24    2    1    2    0    0 -0.40400965148E+03  0.29177657244E+03  0.52783532306E+03  0.73039534734E+03  0.80683755728E+02 0.  0.
        -13    1    4    4    0    0 -0.23497748753E+02  0.27304141678E+02  0.71325690944E+02  0.79906285972E+02  0.00000000000E+00 0.  1.
         14    1    4    4    0    0 -0.38051190272E+03  0.26447243076E+03  0.45650963211E+03  0.65048906137E+03  0.00000000000E+00 0. -1.
        -11    1    3    3    0    0  0.42597528198E+02  0.69140006146E+01 -0.28946756552E+02  0.51964098452E+02  0.00000000000E+00 0.  1.
         11    1    3    3    0    0  0.63262128333E+02 -0.56416032568E+02  0.50202103259E+02  0.98514551127E+02  0.00000000000E+00 0. -1.
         21    1    1    2  503  502 -0.45573881957E+02 -0.28475440438E+02 -0.27029970660E+03  0.27558984164E+03  0.00000000000E+00 0. -1.
          1    1    1    2  501    0  0.34372387690E+03 -0.21379910004E+03 -0.64275867767E+02  0.40986283792E+03  0.00000000000E+00 0. -1.
<scales pt_clust_5="13000.00000" pt_clust_6="13000.00000" pt_clust_7="13000.00000" pt_clust_8="13000.00000" pt_clust_9="53.73853" pt_clust_10="470.13385"></scales>
<clustering>
<clus scale="   53.739">  2  9  1 -1</clus>
<clus scale="   80.684">  5  6 -1 -1</clus>
<clus scale="   92.387">  7  8 -1 -1</clus>
<clus scale="  145.503">  2  7  1 -1</clus>
<clus scale="  470.134">  1 10  2 -1</clus>
<clus scale="  470.134">  1  5  2 -1</clus>
</clustering>
</event>
<event>
10    4  0.3738096E-005  0.3044561E+03  0.7546771E-02  0.1112258E+00
         21   -1    0    0  501  502  0.00000000000E+00  0.00000000000E+00  0.73102396502E+03  0.73102396502E+03  0.00000000000E+00 0. -1.
          2   -1    0    0  503    0 -0.00000000000E+00 -0.00000000000E+00 -0.72872992108E+03  0.72872992108E+03  0.00000000000E+00 0. -1.
         23    2    1    2    0    0  0.90549442179E+02  0.62651000322E+02  0.11835477932E+03  0.18496086834E+03  0.89879473224E+02 0.  0.
         24    2    1    2    0    0 -0.12080340417E+03  0.25140388670E+03 -0.90390438803E+02  0.30423702319E+03  0.81193338069E+02 0.  0.
        -11    1    4    4    0    0 -0.13160718770E+03  0.21257209743E+03 -0.81482815633E+02  0.26295778692E+03  0.00000000000E+00 0.  1.
         12    1    4    4    0    0  0.10803783528E+02  0.38831789275E+02 -0.89076231709E+01  0.41279236274E+02  0.00000000000E+00 0. -1.
        -13    1    3    3    0    0  0.40835361956E+02  0.47761491193E+02  0.84298253917E+01  0.63401488809E+02  0.00000000000E+00 0.  1.
         13    1    3    3    0    0  0.49714080223E+02  0.14889509128E+02  0.10992495393E+03  0.12155937953E+03  0.00000000000E+00 0. -1.
         21    1    1    2  503  502 -0.14903421397E+03 -0.75907676860E+02 -0.43393303146E+03  0.46504951148E+03  0.00000000000E+00 0. -1.
          1    1    1    2  501    0  0.17928817596E+03 -0.23814721016E+03  0.40826273489E+03  0.50550648309E+03  0.00000000000E+00 0. -1.
<scales pt_clust_5="13000.00000" pt_clust_6="13000.00000" pt_clust_7="13000.00000" pt_clust_8="13000.00000" pt_clust_9="97.18876" pt_clust_10="293.42999"></scales>
<clustering>
<clus scale="   81.193">  5  6 -1 -1</clus>
<clus scale="   89.879">  7  8 -1 -1</clus>
<clus scale="  142.136">  2  7  1 -1</clus>
<clus scale="   97.189">  2  9  1 -1</clus>
<clus scale="  293.430">  1 10  2 -1</clus>
<clus scale="  293.430">  1  5  2 -1</clus>
</clustering>
</event>
<event>
10    4  0.3738096E-005  0.3755235E+03  0.7546771E-02  0.1052601E+00
         21   -1    0    0  503  502  0.00000000000E+00  0.00000000000E+00  0.21338293087E+03  0.21338293087E+03  0.00000000000E+00 0. -1.
          4   -1    0    0  502    0 -0.00000000000E+00 -0.00000000000E+00 -0.72347227305E+03  0.72347227305E+03  0.00000000000E+00 0. -1.
         24    2    1    2    0    0 -0.95043470359E+00  0.15389269916E+03 -0.20364095718E+03  0.26689246190E+03  0.77962045863E+02 0.  0.
         23    2    1    2    0    0  0.35542848883E+02  0.17821835242E+03 -0.25063443846E+03  0.32250048859E+03  0.90354126355E+02 0.  0.
        -13    1    3    3    0    0 -0.24616102510E+02  0.13092986169E+03 -0.12970023456E+03  0.18593206294E+03  0.00000000000E+00 0.  1.
         14    1    3    3    0    0  0.23665667806E+02  0.22962837470E+02 -0.73940722618E+02  0.80960398953E+02  0.00000000000E+00 0. -1.
        -11    1    4    4    0    0  0.31096104385E+02  0.14659507684E+03 -0.13219511924E+03  0.19983151357E+03  0.00000000000E+00 0. -1.
         11    1    4    4    0    0  0.44467444975E+01  0.31623275574E+02 -0.11843931922E+03  0.12266897502E+03  0.00000000000E+00 0.  1.
         21    1    1    2  503  501 -0.70686041156E+01 -0.25704367434E+02 -0.27851490489E+02  0.38553666386E+02  0.00000000000E+00 0. -1.
          3    1    1    2  501    0 -0.27523810063E+02 -0.30640668414E+03 -0.27962456054E+02  0.30890858705E+03  0.00000000000E+00 0. -1.
<scales pt_clust_5="13000.00000" pt_clust_6="13000.00000" pt_clust_7="13000.00000" pt_clust_8="13000.00000" pt_clust_9="23.02968" pt_clust_10="342.95017"></scales>
<clustering>
<clus scale="   23.030">  9 10 -1 -1</clus>
<clus scale="   77.962">  5  6 -1 -1</clus>
<clus scale="   90.354">  7  8 -1 -1</clus>
<clus scale="   95.752">  5  7 -1 -1</clus>
<clus scale="  342.950">  1  9  2 -1</clus>
<clus scale="  342.950">  1  5  2 -1</clus>
</clustering>
</event>
<event>
10    4  0.3738096E-005  0.1686075E+03  0.7546771E-02  0.1190124E+00
          2   -1    0    0  503    0 -0.00000000000E+00  0.00000000000E+00  0.56938044319E+03  0.56938044319E+03  0.00000000000E+00 0. -1.
         21   -1    0    0  501  502  0.00000000000E+00 -0.00000000000E+00 -0.17341932089E+03  0.17341932089E+03  0.00000000000E+00 0.  1.
         23    2    1    2    0    0 -0.93198869570E+01 -0.89765001129E+02  0.12384178246E+02  0.12901860273E+03  0.91366384733E+02 0.  0.
         24    2    1    2    0    0  0.64451805865E+02  0.15411863156E+03  0.17910377596E+03  0.25780291918E+03  0.80483505783E+02 0.  0.
        -11    1    4    4    0    0  0.66521946714E+02  0.11171779948E+03  0.87165421864E+02  0.15653704636E+03  0.00000000000E+00 0.  1.
         12    1    4    4    0    0 -0.20701408495E+01  0.42400832081E+02  0.91938354098E+02  0.10126587282E+03  0.00000000000E+00 0. -1.
        -11    1    3    3    0    0 -0.49862070068E+02 -0.45609781663E+02  0.14178651300E+02  0.69047174942E+02  0.00000000000E+00 0.  1.
         11    1    3    3    0    0  0.40542183111E+02 -0.44155219466E+02 -0.17944730532E+01  0.59971427789E+02  0.00000000000E+00 0. -1.
         21    1    1    2  503  502  0.10838020994E+03 -0.33646342597E+02  0.13319000389E+03  0.17497978001E+03  0.00000000000E+00 0. -1.
          1    1    1    2  501    0 -0.16351212885E+03 -0.30707287833E+02  0.71283164191E+02  0.18099846216E+03  0.00000000000E+00 0. -1.
<scales pt_clust_5="13000.00000" pt_clust_6="13000.00000" pt_clust_7="13000.00000" pt_clust_8="13000.00000" pt_clust_9="113.48280" pt_clust_10="148.15830"></scales>
<clustering>
<clus scale="   80.484">  5  6 -1 -1</clus>
<clus scale="   91.366">  7  8 -1 -1</clus>
<clus scale="  113.483">  1  9  2 -1</clus>
<clus scale="  132.477">  1  7  2 -1</clus>
<clus scale="  148.158">  2 10  1 -1</clus>
<clus scale="  148.158">  2  5  1 -1</clus>
</clustering>
</event>
<event>
10    4  0.3738096E-005  0.1852283E+03  0.7546771E-02  0.1187744E+00
          2   -1    0    0  503    0 -0.00000000000E+00  0.00000000000E+00  0.34812820185E+03  0.34812820185E+03  0.00000000000E+00 0. -1.
         21   -1    0    0  501  502  0.00000000000E+00 -0.00000000000E+00 -0.65419113326E+03  0.65419113326E+03  0.00000000000E+00 0. -1.
         23    2    1    2    0    0 -0.16178256901E+03 -0.32329108979E+02  0.43285922277E+02  0.19320458737E+03  0.90750044588E+02 0.  0.
         24    2    1    2    0    0 -0.97469600927E+02  0.83007078401E+01 -0.62736733143E+02  0.14198311454E+03  0.81572558335E+02 0.  0.
        -11    1    4    4    0    0 -0.90836865222E+02 -0.19802547795E+02 -0.64341370197E+02  0.11306320755E+03  0.00000000000E+00 0.  1.
         12    1    4    4    0    0 -0.66327357054E+01  0.28103255635E+02  0.16046370547E+01  0.28919906990E+02  0.00000000000E+00 0. -1.
        -11    1    3    3    0    0 -0.13397177905E+03 -0.16090487534E+02 -0.51577229289E+01  0.13503311992E+03  0.00000000000E+00 0. -1.
         11    1    3    3    0    0 -0.27810789961E+02 -0.16238621445E+02  0.48443645206E+02  0.58171467452E+02  0.00000000000E+00 0.  1.
         21    1    1    2  503  502  0.16132674042E+03 -0.14751890651E+02  0.14831146431E+03  0.21963657686E+03  0.00000000000E+00 0.  1.
          1    1    1    2  501    0  0.97925429517E+02  0.38780291791E+02 -0.43492358486E+03  0.44749505634E+03  0.00000000000E+00 0. -1.
<scales pt_clust_5="13000.00000" pt_clust_6="13000.00000" pt_clust_7="13000.00000" pt_clust_8="13000.00000" pt_clust_9="161.47425" pt_clust_10="105.32474"></scales>
<clustering>
<clus scale="   81.573">  5  6 -1 -1</clus>
<clus scale="   90.750">  7  8 -1 -1</clus>
<clus scale="  105.325">  2 10  1 -1</clus>
<clus scale="  105.325">  2  5  1 -1</clus>
<clus scale="  161.474">  1  9  2 -1</clus>
<clus scale="  105.325">  2  5  1 -1</clus>
</clustering>
</event>
<event>
10    4  0.3738096E-005  0.5104841E+03  0.7546771E-02  0.1066671E+00
         21   -1    0    0  501  502  0.00000000000E+00  0.00000000000E+00  0.85380924492E+03  0.85380924492E+03  0.00000000000E+00 0. -1.
          4   -1    0    0  503    0 -0.00000000000E+00 -0.00000000000E+00 -0.62511280788E+03  0.62511280788E+03  0.00000000000E+00 0. -1.
         24    2    1    2    0    0 -0.60992094981E+02 -0.72217888127E+01 -0.16557064319E+02  0.10215129546E+03  0.79928473656E+02 0.  0.
         23    2    1    2    0    0 -0.58801309767E+02 -0.16287053650E+03  0.87768998731E+02  0.21438882462E+03  0.90965736909E+02 0.  0.
        -11    1    3    3    0    0 -0.64072236292E+02 -0.21505374213E+02  0.13326797298E+02  0.68886400034E+02  0.00000000000E+00 0.  1.
         12    1    3    3    0    0  0.30801413108E+01  0.14283585400E+02 -0.29883861617E+02  0.33264895424E+02  0.00000000000E+00 0. -1.
        -11    1    4    4    0    0 -0.60580520330E+02 -0.10096559496E+03  0.14785172662E+02  0.11867035072E+03  0.00000000000E+00 0.  1.
         11    1    4    4    0    0  0.17792105629E+01 -0.61904941543E+02  0.72983826069E+02  0.95718473898E+02  0.00000000000E+00 0. -1.
         21    1    1    2  503  502  0.22332086823E+03 -0.36974243126E+03 -0.23047082428E+03  0.48959011071E+03  0.00000000000E+00 0. -1.
          3    1    1    2  501    0 -0.10352746348E+03  0.53983475657E+03  0.38795532690E+03  0.67279182202E+03  0.00000000000E+00 0. -1.
<scales pt_clust_5="13000.00000" pt_clust_6="13000.00000" pt_clust_7="13000.00000" pt_clust_8="13000.00000" pt_clust_9="13000.00000" pt_clust_10="510.48413"></scales>
<clustering>
<clus scale="   79.928">  5  6 -1 -1</clus>
<clus scale="   90.966">  7  8 -1 -1</clus>
<clus scale="  100.801">  2  5  1 -1</clus>
<clus scale="  198.425">  2  7  1 -1</clus>
<clus scale="  510.484">  1 10  2 -1</clus>
<clus scale="  510.484">  1  5  2 -1</clus>
</clustering>
</event>
<event>
10    4  0.3738096E-005  0.1712922E+03  0.7546771E-02  0.1178147E+00
         21   -1    0    0  503  502  0.00000000000E+00  0.00000000000E+00  0.47849218940E+03  0.47849218940E+03  0.00000000000E+00 0.  1.
         -3   -1    0    0    0  501 -0.00000000000E+00 -0.00000000000E+00 -0.12581085581E+03  0.12581085581E+03  0.00000000000E+00 0.  1.
         24    2    1    2    0    0 -0.54163234017E+02 -0.10478619359E+03  0.13475335826E+03  0.19692854399E+03  0.81905931347E+02 0.  0.
         23    2    1    2    0    0  0.96526633679E+02  0.14359003406E+03  0.13390414842E+03  0.23805226790E+03  0.93824689694E+02 0.  0.
        -11    1    3    3    0    0 -0.24214749886E+02 -0.31885153635E+02  0.10553394744E+03  0.11287351858E+03  0.00000000000E+00 0.  1.
         12    1    3    3    0    0 -0.29948484132E+02 -0.72901039952E+02  0.29219410817E+02  0.84055025408E+02  0.00000000000E+00 0. -1.
        -13    1    4    4    0    0  0.10823135686E+03  0.87903991631E+02  0.87361002817E+02  0.16453900196E+03  0.00000000000E+00 0.  1.
         13    1    4    4    0    0 -0.11704723182E+02  0.55686042432E+02  0.46543145604E+02  0.73513265940E+02  0.00000000000E+00 0. -1.
         21    1    1    2  503  501  0.30807561616E+02 -0.71965746502E+01 -0.20632363951E+02  0.37770239364E+02  0.00000000000E+00 0.  1.
         -4    1    1    2    0  502 -0.73170961277E+02 -0.31607265826E+02  0.10465619086E+03  0.13155199395E+03  0.00000000000E+00 0.  1.
<scales pt_clust_5="13000.00000" pt_clust_6="13000.00000" pt_clust_7="13000.00000" pt_clust_8="13000.00000" pt_clust_9="31.63695" pt_clust_10="76.21129"></scales>
<clustering>
<clus scale="   31.637">  2  9  1 -1</clus>
<clus scale="   76.211">  1 10  2 -1</clus>
<clus scale="   81.906">  5  6 -1 -1</clus>
<clus scale="   93.825">  7  8 -1 -1</clus>
<clus scale="  165.065">  2  5  1 -1</clus>
<clus scale="   76.211">  1  5  2 -1</clus>
</clustering>
</event>
<event>
10    4  0.3738096E-005  0.1294595E+03  0.7546771E-02  0.1249828E+00
         -1   -1    0    0    0  501 -0.00000000000E+00  0.00000000000E+00  0.14372756393E+03  0.14372756393E+03  0.00000000000E+00 0.  1.
         21   -1    0    0  501  502  0.00000000000E+00 -0.00000000000E+00 -0.56388132651E+03  0.56388132651E+03  0.00000000000E+00 0. -1.
         24    2    1    2    0    0  0.23452828109E+02  0.44672457053E+00 -0.40758281450E+03  0.41604401355E+03  0.80116389201E+02 0.  0.
         23    2    1    2    0    0  0.86845793391E+02 -0.15936196187E+02 -0.88794602112E+02  0.15384366451E+03  0.89371346451E+02 0.  0.
        -11    1    3    3    0    0 -0.25409162790E+02 -0.21221794177E+00 -0.61718142182E+02  0.66744285632E+02  0.00000000000E+00 0.  1.
         12    1    3    3    0    0  0.48861990898E+02  0.65894251231E+00 -0.34586467232E+03  0.34929972791E+03  0.00000000000E+00 0. -1.
        -11    1    4    4    0    0  0.13440613036E+02 -0.38615270008E+02 -0.67469059060E+01  0.41440437931E+02  0.00000000000E+00 0.  1.
         11    1    4    4    0    0  0.73405180355E+02  0.22679073821E+02 -0.82047696206E+02  0.11240322658E+03  0.00000000000E+00 0. -1.
         21    1    1    2  503  502 -0.67847898163E+02  0.10237913544E+01  0.58168888274E+02  0.89375639841E+02  0.00000000000E+00 0.  1.
         -2    1    1    2    0  503 -0.42450723336E+02  0.14465680262E+02  0.18054765766E+02  0.48345572538E+02  0.00000000000E+00 0.  1.
<scales pt_clust_5="13000.00000" pt_clust_6="13000.00000" pt_clust_7="13000.00000" pt_clust_8="13000.00000" pt_clust_9="22.28468" pt_clust_10="97.59051"></scales>
<clustering>
<clus scale="   22.285">  9 10 -1 -1</clus>
<clus scale="   80.116">  5  6 -1 -1</clus>
<clus scale="   83.480">  1  5  2 -1</clus>
<clus scale="   89.371">  7  8 -1 -1</clus>
<clus scale="   97.591">  2  9  1 -1</clus>
<clus scale="   97.591">  2  5  1 -1</clus>
</clustering>
</event>
<event>
10    4  0.3738096E-005  0.2289415E+03  0.7546771E-02  0.1171164E+00
         21   -1    0    0  501  502  0.00000000000E+00  0.00000000000E+00  0.91275257726E+02  0.91275257726E+02  0.00000000000E+00 0. -1.
          2   -1    0    0  503    0 -0.00000000000E+00 -0.00000000000E+00 -0.17509000684E+04  0.17509000684E+04  0.00000000000E+00 0. -1.
         24    2    1    2    0    0  0.11786777979E+02 -0.38416685540E+01 -0.83128971238E+02  0.11606860666E+03  0.80048791625E+02 0.  0.
         23    2    1    2    0    0 -0.54117288884E+02 -0.34306964013E+02 -0.31560916816E+03  0.33501330409E+03  0.92299069102E+02 0.  0.
        -13    1    3    3    0    0 -0.20492570001E+02  0.24836877874E+02 -0.57373995394E+02  0.65792030485E+02  0.00000000000E+00 0.  1.
         14    1    3    3    0    0  0.32279347980E+02 -0.28678546428E+02 -0.25754975843E+02  0.50276576175E+02  0.00000000000E+00 0. -1.
        -13    1    4    4    0    0  0.16994110602E+02  0.17185180505E+02 -0.80313694183E+02  0.83871447451E+02  0.00000000000E+00 0.  1.
         13    1    4    4    0    0 -0.71111399487E+02 -0.51492144518E+02 -0.23529547398E+03  0.25114185664E+03  0.00000000000E+00 0. -1.
         21    1    1    2  503  502  0.20534929229E+03 -0.12126809444E+03 -0.10622579342E+04  0.10886993163E+04  0.00000000000E+00 0. -1.
          1    1    1    2  501    0 -0.16301878139E+03  0.15941672701E+03 -0.19862873699E+03  0.30239409897E+03  0.00000000000E+00 0. -1.
<scales pt_clust_5="13000.00000" pt_clust_6="13000.00000" pt_clust_7="13000.00000" pt_clust_8="13000.00000" pt_clust_9="228.94153" pt_clust_10="13000.00000"></scales>
<clustering>
<clus scale="   80.049">  5  6 -1 -1</clus>
<clus scale="   81.003">  2  5  1 -1</clus>
<clus scale="   92.299">  7  8 -1 -1</clus>
<clus scale="  111.496">  2  7  1 -1</clus>
<clus scale="  228.942">  2  9  1 -1</clus>
<clus scale="  228.942">  1  5  2 -1</clus>
</clustering>
</event>
<event>
10    4  0.3738096E-005  0.1663275E+03  0.7546771E-02  0.1187364E+00
          2   -1    0    0  503    0 -0.00000000000E+00  0.00000000000E+00  0.14831918999E+03  0.14831918999E+03  0.00000000000E+00 0. -1.
         21   -1    0    0  501  502  0.00000000000E+00 -0.00000000000E+00 -0.51257381552E+03  0.51257381552E+03  0.00000000000E+00 0. -1.
         23    2    1    2    0    0  0.10317808977E+03  0.25992830855E+01  0.37681517084E+02  0.15761975334E+03  0.11301157211E+03 0.  0.
         24    2    1    2    0    0 -0.91559469545E+02 -0.33415992485E+02 -0.32191133622E+03  0.34605377395E+03  0.81403569098E+02 0.  0.
        -13    1    4    4    0    0 -0.97237729882E+02 -0.43422954076E+01 -0.25002993514E+03  0.26830765942E+03  0.00000000000E+00 0.  1.
         14    1    4    4    0    0  0.56782603362E+01 -0.29073697077E+02 -0.71881401087E+02  0.77746114530E+02  0.00000000000E+00 0. -1.
        -13    1    3    3    0    0  0.11814995904E+03  0.23284779333E+02  0.11375869482E+02  0.12095868789E+03  0.00000000000E+00 0. -1.
         13    1    3    3    0    0 -0.14971869263E+02 -0.20685496247E+02  0.26305647602E+02  0.36661065451E+02  0.00000000000E+00 0.  1.
         21    1    1    2  503  502  0.26439337733E+02  0.34620743828E+02  0.21609069469E+02  0.48627012722E+02  0.00000000000E+00 0. -1.
          1    1    1    2  501    0 -0.38057957961E+02 -0.38040344287E+01 -0.10163387585E+03  0.10859246550E+03  0.00000000000E+00 0. -1.
<scales pt_clust_5="13000.00000" pt_clust_6="13000.00000" pt_clust_7="13000.00000" pt_clust_8="13000.00000" pt_clust_9="42.70584" pt_clust_10="38.24760"></scales>
<clustering>
<clus scale="   38.248">  2 10  1 -1</clus>
<clus scale="   42.706">  1  9  2 -1</clus>
<clus scale="   81.404">  5  6 -1 -1</clus>
<clus scale="  113.012">  7  8 -1 -1</clus>
<clus scale="  146.696">  2  5  1 -1</clus>
<clus scale="   38.248">  2  5  1 -1</clus>
</clustering>
</event>
<event>
10    4  0.3738096E-005  0.2585331E+03  0.7546771E-02  0.1149992E+00
         21   -1    0    0  501  502  0.00000000000E+00  0.00000000000E+00  0.59317734767E+03  0.59317734767E+03  0.00000000000E+00 0. -1.
          2   -1    0    0  503    0 -0.00000000000E+00 -0.00000000000E+00 -0.46096149137E+03  0.46096149137E+03  0.00000000000E+00 0. -1.
         23    2    1    2    0    0 -0.73020703935E+01  0.12344901435E+02  0.11587476139E+03  0.14812571436E+03  0.91151248506E+02 0.  0.
         24    2    1    2    0    0  0.46854756025E+02  0.24070584284E+03 -0.19084761613E+03  0.32106373698E+03  0.80774003746E+02 0.  0.
        -11    1    4    4    0    0  0.21628309537E+02  0.70511074523E+02 -0.15425686872E+02  0.75349500458E+02  0.00000000000E+00 0.  1.
         12    1    4    4    0    0  0.25226446488E+02  0.17019476832E+03 -0.17542192925E+03  0.24571423652E+03  0.00000000000E+00 0. -1.
        -11    1    3    3    0    0  0.11017835567E+02 -0.27795531998E+02  0.70834916657E+01  0.30727189162E+02  0.00000000000E+00 0. -1.
         11    1    3    3    0    0 -0.18319905960E+02  0.40140433433E+02  0.10879126973E+03  0.11739852520E+03  0.00000000000E+00 0.  1.
         21    1    1    2  503  502  0.31491668130E+02 -0.17732525633E+02 -0.14836251966E+03  0.15270103100E+03  0.00000000000E+00 0.  1.
          1    1    1    2  501    0 -0.71044353761E+02 -0.23531821864E+03  0.35555123070E+03  0.43224835671E+03  0.00000000000E+00 0. -1.
<scales pt_clust_5="13000.00000" pt_clust_6="13000.00000" pt_clust_7="13000.00000" pt_clust_8="13000.00000" pt_clust_9="36.14094" pt_clust_10="245.59098"></scales>
<clustering>
<clus scale="   36.141">  2  9  1 -1</clus>
<clus scale="   80.774">  5  6 -1 -1</clus>
<clus scale="   91.151">  7  8 -1 -1</clus>
<clus scale="   92.039">  2  7  1 -1</clus>
<clus scale="  245.591">  1 10  2 -1</clus>
<clus scale="  245.591">  1  5  2 -1</clus>
</clustering>
</event>
<event>
10    4  0.3738096E-005  0.9534645E+02  0.7546771E-02  0.1293725E+00
         21   -1    0    0  501  502  0.00000000000E+00  0.00000000000E+00  0.13759370988E+03  0.13759370988E+03  0.00000000000E+00 0. -1.
          2   -1    0    0  503    0 -0.00000000000E+00 -0.00000000000E+00 -0.27084327364E+03  0.27084327364E+03  0.00000000000E+00 0. -1.
         24    2    1    2    0    0  0.21708274539E+02 -0.40020876835E+02 -0.18155267148E+03  0.20387071627E+03  0.80802083297E+02 0.  0.
         23    2    1    2    0    0 -0.24334410837E+02 -0.17769805941E+01  0.39317810028E+02  0.98651402789E+02  0.87125701582E+02 0.  0.
        -13    1    3    3    0    0 -0.12070940076E+02  0.19335226837E+02 -0.30318718706E+02  0.37931297040E+02  0.00000000000E+00 0.  1.
         14    1    3    3    0    0  0.33779214615E+02 -0.59356103672E+02 -0.15123395277E+03  0.16593941923E+03  0.00000000000E+00 0. -1.
        -11    1    4    4    0    0 -0.38065410416E+02 -0.26322301425E+02 -0.45912539580E+01  0.46507189072E+02  0.00000000000E+00 0. -1.
         11    1    4    4    0    0  0.13730999578E+02  0.24545320831E+02  0.43909063986E+02  0.52144213718E+02  0.00000000000E+00 0.  1.
         21    1    1    2  503  502  0.22956456203E+02  0.30680662318E+02 -0.37725386645E+02  0.53772732116E+02  0.00000000000E+00 0.  1.
          1    1    1    2  501    0 -0.20330319905E+02  0.11117195111E+02  0.46710684336E+02  0.52142132347E+02  0.00000000000E+00 0. -1.
<scales pt_clust_5="13000.00000" pt_clust_6="13000.00000" pt_clust_7="13000.00000" pt_clust_8="13000.00000" pt_clust_9="38.07733" pt_clust_10="23.17140"></scales>
<clustering>
<clus scale="   23.171">  1 10  2 -1</clus>
<clus scale="   38.077">  2  9  1 -1</clus>
<clus scale="   80.802">  5  6 -1 -1</clus>
<clus scale="   87.126">  7  8 -1 -1</clus>
<clus scale="   89.605">  2  5  1 -1</clus>
<clus scale="   23.171">  1  5  2 -1</clus>
</clustering>
</event>
<event>
10    4  0.3738096E-005  0.1192854E+03  0.7546771E-02  0.1248235E+00
          2   -1    0    0  503    0 -0.00000000000E+00  0.00000000000E+00  0.57091876096E+03  0.57091876096E+03  0.00000000000E+00 0. -1.
         21   -1    0    0  501  502  0.00000000000E+00 -0.00000000000E+00 -0.14991739881E+03  0.14991739881E+03  0.00000000000E+00 0.  1.
         23    2    1    2    0    0  0.19552787181E+02 -0.97170172076E+02  0.29451201123E+03  0.32420995951E+03  0.92468477128E+02 0.  0.
         24    2    1    2    0    0 -0.73600607384E+02  0.55499923778E+02 -0.84913030273E+02  0.14888472565E+03  0.80368824029E+02 0.  0.
        -11    1    4    4    0    0 -0.32102287361E+02  0.17640232124E+02 -0.85167611045E+02  0.92710606805E+02  0.00000000000E+00 0.  1.
         12    1    4    4    0    0 -0.41498320022E+02  0.37859691654E+02  0.25458077141E+00  0.56174118847E+02  0.00000000000E+00 0. -1.
        -11    1    3    3    0    0  0.38822872570E+02 -0.10655688955E+03  0.25881863499E+03  0.28257507314E+03  0.00000000000E+00 0.  1.
         11    1    3    3    0    0 -0.19270085389E+02  0.93867174697E+01  0.35693376240E+02  0.41634886372E+02  0.00000000000E+00 0. -1.
         21    1    1    2  503  502 -0.24165078620E+02  0.35183394799E+02  0.36973480914E+02  0.56469997212E+02  0.00000000000E+00 0. -1.
          1    1    1    2  501    0  0.78212898822E+02  0.64868534989E+01  0.17442890028E+03  0.19127147739E+03  0.00000000000E+00 0. -1.
<scales pt_clust_5="13000.00000" pt_clust_6="13000.00000" pt_clust_7="13000.00000" pt_clust_8="13000.00000" pt_clust_9="42.68281" pt_clust_10="72.26120"></scales>
<clustering>
<clus scale="   42.683">  1  9  2 -1</clus>
<clus scale="   72.261">  2 10  1 -1</clus>
<clus scale="   80.369">  5  6 -1 -1</clus>
<clus scale="   92.468">  7  8 -1 -1</clus>
<clus scale="  110.171">  2  5  1 -1</clus>
<clus scale="   72.261">  2  5  1 -1</clus>
</clustering>
</event>
<event>
10    4  0.3738096E-005  0.2614814E+03  0.7546771E-02  0.1106256E+00
         21   -1    0    0  501  502  0.00000000000E+00  0.00000000000E+00  0.16266296169E+03  0.16266296169E+03  0.00000000000E+00 0. -1.
          2   -1    0    0  503    0 -0.00000000000E+00 -0.00000000000E+00 -0.57689680687E+03  0.57689680687E+03  0.00000000000E+00 0. -1.
         24    2    1    2    0    0 -0.12358271906E+03  0.40552296679E+02 -0.39005044573E+03  0.41865580799E+03  0.78842616231E+02 0.  0.
         23    2    1    2    0    0 -0.21314847756E+02  0.46434385483E+01 -0.76715080438E+02  0.12183252745E+03  0.92098191736E+02 0.  0.
        -13    1    3    3    0    0 -0.33002437223E+02 -0.20952263105E+02 -0.14651948427E+03  0.15164470800E+03  0.00000000000E+00 0.  1.
         14    1    3    3    0    0 -0.90580281835E+02  0.61504559784E+02 -0.24353096146E+03  0.26701109999E+03  0.00000000000E+00 0. -1.
        -11    1    4    4    0    0  0.29429661239E+02  0.24339641546E+02 -0.19574296102E+02  0.42914754795E+02  0.00000000000E+00 0.  1.
         11    1    4    4    0    0 -0.50744508996E+02 -0.19696202997E+02 -0.57140784336E+02  0.78917772651E+02  0.00000000000E+00 0. -1.
         21    1    1    2  503  502  0.18956984469E+02 -0.14748430627E+02 -0.35186449822E+02  0.42602461398E+02  0.00000000000E+00 0. -1.
          1    1    1    2  501    0  0.12594058235E+03 -0.30447304600E+02  0.87718130813E+02  0.15646897172E+03  0.00000000000E+00 0. -1.
<scales pt_clust_5="13000.00000" pt_clust_6="13000.00000" pt_clust_7="13000.00000" pt_clust_8="13000.00000" pt_clust_9="24.01840" pt_clust_10="130.96907"></scales>
<clustering>
<clus scale="   24.018">  2  9  1 -1</clus>
<clus scale="   78.843">  5  6 -1 -1</clus>
<clus scale="   92.098">  7  8 -1 -1</clus>
<clus scale="   92.893">  5  7 -1 -1</clus>
<clus scale="  130.969">  1 10  2 -1</clus>
<clus scale="  130.969">  1  5  2 -1</clus>
</clustering>
</event>
<event>
10    4  0.3738096E-005  0.9716417E+02  0.7546771E-02  0.1291232E+00
          2   -1    0    0  503    0 -0.00000000000E+00  0.00000000000E+00  0.50823476236E+03  0.50823476236E+03  0.00000000000E+00 0. -1.
         21   -1    0    0  501  502  0.00000000000E+00 -0.00000000000E+00 -0.93192933241E+02  0.93192933241E+02  0.00000000000E+00 0. -1.
         24    2    1    2    0    0  0.51308971726E+01 -0.50022103558E+02  0.34725121571E+03  0.36002824520E+03  0.80674615465E+02 0.  0.
         23    2    1    2    0    0 -0.68659991585E+01 -0.46851968877E+01 -0.15777496640E+02  0.91649879307E+02  0.89898153276E+02 0.  0.
        -11    1    3    3    0    0  0.12624487925E+02 -0.51572524632E+02  0.10504453433E+03  0.11770071021E+03  0.00000000000E+00 0.  1.
         12    1    3    3    0    0 -0.74935907525E+01  0.15504210742E+01  0.24220668138E+03  0.24232753499E+03  0.00000000000E+00 0. -1.
        -13    1    4    4    0    0 -0.29372669785E+02 -0.35092601084E+02 -0.25772511680E+02  0.52521107561E+02  0.00000000000E+00 0. -1.
         13    1    4    4    0    0  0.22506670627E+02  0.30407404196E+02  0.99950150399E+01  0.39128771745E+02  0.00000000000E+00 0.  1.
         21    1    1    2  503  502 -0.39504074706E+02  0.15964016747E+02  0.82846888630E+02  0.93161304760E+02  0.00000000000E+00 0. -1.
          1    1    1    2  501    0  0.41239176692E+02  0.38743283698E+02  0.72122141740E+00  0.56588266330E+02  0.00000000000E+00 0. -1.
<scales pt_clust_5="13000.00000" pt_clust_6="13000.00000" pt_clust_7="13000.00000" pt_clust_8="13000.00000" pt_clust_9="42.60777" pt_clust_10="55.42859"></scales>
<clustering>
<clus scale="   42.608">  1  9  2 -1</clus>
<clus scale="   55.429">  2 10  1 -1</clus>
<clus scale="   80.675">  5  6 -1 -1</clus>
<clus scale="   88.699">  1  5  2 -1</clus>
<clus scale="   89.898">  7  8 -1 -1</clus>
<clus scale="   55.429">  2  5  1 -1</clus>
</clustering>
</event>
<event>
10    4  0.3738096E-005  0.1339067E+03  0.7546771E-02  0.1225250E+00
          2   -1    0    0  503    0 -0.00000000000E+00  0.00000000000E+00  0.11111762899E+03  0.11111762899E+03  0.00000000000E+00 0. -1.
         21   -1    0    0  501  502  0.00000000000E+00 -0.00000000000E+00 -0.35951979701E+03  0.35951979701E+03  0.00000000000E+00 0. -1.
         24    2    1    2    0    0  0.12137025100E+03 -0.64873261719E+02 -0.68292975676E+02  0.17128324340E+03  0.75728072929E+02 0.  0.
         23    2    1    2    0    0 -0.56378057755E+02  0.70120270841E+01 -0.15138540121E+03  0.18521257968E+03  0.90324448792E+02 0.  0.
        -11    1    3    3    0    0  0.50844192898E+02 -0.15989434694E+02 -0.66801722362E+02  0.85459136925E+02  0.00000000000E+00 0.  1.
         12    1    3    3    0    0  0.70526058105E+02 -0.48883827025E+02 -0.14912533133E+01  0.85824106479E+02  0.00000000000E+00 0. -1.
        -11    1    4    4    0    0 -0.36526201003E+02 -0.36594082206E+02 -0.45031958367E+02  0.68565060246E+02  0.00000000000E+00 0. -1.
         11    1    4    4    0    0 -0.19851856752E+02  0.43606109290E+02 -0.10635344285E+03  0.11664751943E+03  0.00000000000E+00 0.  1.
         21    1    1    2  503  502 -0.55855556051E+01  0.46934461838E+02 -0.21024199402E-01  0.47265659642E+02  0.00000000000E+00 0.  1.
          1    1    1    2  501    0 -0.59406637644E+02  0.10926772797E+02 -0.28702766937E+02  0.66875943281E+02  0.00000000000E+00 0. -1.
<scales pt_clust_5="13000.00000" pt_clust_6="13000.00000" pt_clust_7="13000.00000" pt_clust_8="13000.00000" pt_clust_9="47.26565" pt_clust_10="64.21350"></scales>
<clustering>
<clus scale="   47.266">  1  9  2 -1</clus>
<clus scale="   64.214">  2 10  1 -1</clus>
<clus scale="   75.728">  5  6 -1 -1</clus>
<clus scale="   90.324">  7  8 -1 -1</clus>
<clus scale="  124.528">  1  5  2 -1</clus>
<clus scale="   64.214">  2  5  1 -1</clus>
</clustering>
</event>
<event>
10    4  0.3738096E-005  0.9585563E+02  0.7546771E-02  0.1300778E+00
         -3   -1    0    0    0  501 -0.00000000000E+00  0.00000000000E+00  0.37721258373E+03  0.37721258373E+03  0.00000000000E+00 0.  1.
         21   -1    0    0  503  502  0.00000000000E+00 -0.00000000000E+00 -0.19216552257E+03  0.19216552257E+03  0.00000000000E+00 0. -1.
         23    2    1    2    0    0 -0.44116089115E+01  0.11572117868E+02  0.16374420620E+03  0.18720136244E+03  0.89882194182E+02 0.  0.
         24    2    1    2    0    0 -0.50533794323E+01 -0.34074240007E+02 -0.10544293912E+03  0.13108827873E+03  0.69852222122E+02 0.  0.
        -13    1    4    4    0    0  0.29571293529E+02 -0.14004525914E+02 -0.24784894389E+02  0.41047279288E+02  0.00000000000E+00 0.  1.
         14    1    4    4    0    0 -0.34624672961E+02 -0.20069714093E+02 -0.80658044729E+02  0.90040999445E+02  0.00000000000E+00 0. -1.
        -11    1    3    3    0    0  0.31996143331E+02  0.17155935398E+02  0.13687763982E+03  0.14161061963E+03  0.00000000000E+00 0.  1.
         11    1    3    3    0    0 -0.36407752242E+02 -0.55838175298E+01  0.26866566375E+02  0.45590742814E+02  0.00000000000E+00 0. -1.
         21    1    1    2  503  501 -0.12501094061E+02  0.20153740939E+02  0.18617846285E+03  0.18768289921E+03  0.00000000000E+00 0.  1.
         -4    1    1    2    0  502  0.21966082405E+02  0.23483812004E+01 -0.59432668773E+02  0.63405565906E+02  0.00000000000E+00 0.  1.
<scales pt_clust_5="13000.00000" pt_clust_6="13000.00000" pt_clust_7="13000.00000" pt_clust_8="13000.00000" pt_clust_9="23.66119" pt_clust_10="22.09126"></scales>
<clustering>
<clus scale="   22.091">  2 10  1 -1</clus>
<clus scale="   23.661">  1  9  2 -1</clus>
<clus scale="   69.852">  5  6 -1 -1</clus>
<clus scale="   77.388">  2  5  1 -1</clus>
<clus scale="   89.882">  7  8 -1 -1</clus>
<clus scale="   22.091">  2  5  1 -1</clus>
</clustering>
</event>
<event>
10    4  0.3738096E-005  0.1368054E+03  0.7546771E-02  0.1220636E+00
          2   -1    0    0  503    0 -0.00000000000E+00  0.00000000000E+00  0.42903340068E+03  0.42903340068E+03  0.00000000000E+00 0. -1.
         21   -1    0    0  501  502  0.00000000000E+00 -0.00000000000E+00 -0.18105152930E+03  0.18105152930E+03  0.00000000000E+00 0.  1.
         23    2    1    2    0    0  0.11390694935E+03 -0.38171377572E+02  0.23839621741E+03  0.28233637610E+03  0.91919669378E+02 0.  0.
         24    2    1    2    0    0 -0.10061371931E+03  0.32754304503E+02 -0.88504656419E+02  0.15905983954E+03  0.79189603928E+02 0.  0.
        -13    1    4    4    0    0 -0.21190175902E+02 -0.31611125939E+01 -0.65491031800E+02  0.68906396175E+02  0.00000000000E+00 0.  1.
         14    1    4    4    0    0 -0.79423543409E+02  0.35915417096E+02 -0.23013624619E+02  0.90153443367E+02  0.00000000000E+00 0. -1.
        -11    1    3    3    0    0  0.70533936567E+02 -0.64240606186E+02  0.11803723814E+03  0.15177180660E+03  0.00000000000E+00 0.  1.
         11    1    3    3    0    0  0.43373012781E+02  0.26069228614E+02  0.12035897926E+03  0.13056456950E+03  0.00000000000E+00 0. -1.
         21    1    1    2  503  502 -0.32189009898E+02 -0.15955062626E+02  0.12464228404E+03  0.12971659629E+03  0.00000000000E+00 0. -1.
          1    1    1    2  501    0  0.18895779861E+02  0.21372135696E+02 -0.26551973655E+02  0.38972118056E+02  0.00000000000E+00 0. -1.
<scales pt_clust_5="13000.00000" pt_clust_6="13000.00000" pt_clust_7="13000.00000" pt_clust_8="13000.00000" pt_clust_9="35.47468" pt_clust_10="28.52751"></scales>
<clustering>
<clus scale="   28.528">  2 10  1 -1</clus>
<clus scale="   35.475">  1  9  2 -1</clus>
<clus scale="   79.190">  5  6 -1 -1</clus>
<clus scale="   91.920">  7  8 -1 -1</clus>
<clus scale="  128.598">  2  5  1 -1</clus>
<clus scale="   28.528">  2  5  1 -1</clus>
</clustering>
</event>
<event>
10    4  0.3738096E-005  0.1330843E+03  0.7546771E-02  0.1223202E+00
         21   -1    0    0  503  502  0.00000000000E+00  0.00000000000E+00  0.65456868328E+02  0.65456868328E+02  0.00000000000E+00 0. -1.
         -1   -1    0    0    0  501 -0.00000000000E+00 -0.00000000000E+00 -0.61745432553E+03  0.61745432553E+03  0.00000000000E+00 0.  1.
         23    2    1    2    0    0 -0.88842917670E+02  0.32382344506E+02 -0.36871250746E+03  0.39127764156E+03  0.90595802154E+02 0.  0.
         24    2    1    2    0    0  0.89779122974E+02 -0.50985133949E+02 -0.11412768214E+03  0.17910377876E+03  0.91614741877E+02 0.  0.
        -13    1    4    4    0    0  0.21378068603E+02 -0.41201113738E+01 -0.90220428671E+02  0.92810144298E+02  0.00000000000E+00 0.  1.
         14    1    4    4    0    0  0.68401054371E+02 -0.46865022575E+02 -0.23907253468E+02  0.86293634460E+02  0.00000000000E+00 0. -1.
        -11    1    3    3    0    0 -0.52848969779E+02  0.60788117499E+02 -0.18219070075E+03  0.19920256091E+03  0.00000000000E+00 0.  1.
         11    1    3    3    0    0 -0.35993947892E+02 -0.28405772993E+02 -0.18652180672E+03  0.19207508065E+03  0.00000000000E+00 0. -1.
         21    1    1    2  503  501 -0.39707269207E+02  0.16756078195E+02 -0.57777431674E+02  0.72080961392E+02  0.00000000000E+00 0. -1.
         -2    1    1    2    0  502  0.38771063903E+02  0.18467112473E+01 -0.11379835926E+02  0.40448812150E+02  0.00000000000E+00 0.  1.
<scales pt_clust_5="13000.00000" pt_clust_6="13000.00000" pt_clust_7="13000.00000" pt_clust_8="13000.00000" pt_clust_9="38.25462" pt_clust_10="38.81502"></scales>
<clustering>
<clus scale="   38.815">  1 10  2 -1</clus>
<clus scale="   38.255">  1  9  2 -1</clus>
<clus scale="   90.596">  7  8 -1 -1</clus>
<clus scale="   91.615">  5  6 -1 -1</clus>
<clus scale="  132.385">  2  7  1 -1</clus>
<clus scale="   38.815">  1  5  2 -1</clus>
</clustering>
</event>
<event>
10    4  0.3738096E-005  0.1077088E+03  0.7546771E-02  0.1277456E+00
         21   -1    0    0  501  502  0.00000000000E+00  0.00000000000E+00  0.52868154684E+02  0.52868154684E+02  0.00000000000E+00 0.  1.
          2   -1    0    0  503    0 -0.00000000000E+00 -0.00000000000E+00 -0.79095914276E+03  0.79095914276E+03  0.00000000000E+00 0. -1.
         24    2    1    2    0    0  0.55721318764E+01 -0.83949709282E+01 -0.31926044858E+03  0.32938035115E+03  0.80390655587E+02 0.  0.
         23    2    1    2    0    0 -0.64577076633E+01  0.22747347101E+02 -0.27914279261E+02  0.11074826761E+03  0.10453146897E+03 0.  0.
        -11    1    3    3    0    0 -0.23500645202E+02 -0.34158398160E+02 -0.18651818216E+03  0.19107095217E+03  0.00000000000E+00 0.  1.
         12    1    3    3    0    0  0.29072777079E+02  0.25763427232E+02 -0.13274226643E+03  0.13830939898E+03  0.00000000000E+00 0. -1.
        -13    1    4    4    0    0  0.12916914734E+02  0.40620103537E+02 -0.57207737673E+02  0.71341185490E+02  0.00000000000E+00 0. -1.
         13    1    4    4    0    0 -0.19374622397E+02 -0.17872756436E+02  0.29293458412E+02  0.39407082122E+02  0.00000000000E+00 0.  1.
         21    1    1    2  503  502  0.39318031125E+02 -0.15230608266E+02 -0.80155732358E+02  0.90569423259E+02  0.00000000000E+00 0.  1.
          1    1    1    2  501    0 -0.38432455338E+02  0.87823209348E+00 -0.31076052788E+03  0.31312925542E+03  0.00000000000E+00 0. -1.
<scales pt_clust_5="13000.00000" pt_clust_6="13000.00000" pt_clust_7="13000.00000" pt_clust_8="13000.00000" pt_clust_9="38.54499" pt_clust_10="38.44251"></scales>
<clustering>
<clus scale="   38.443">  1 10  2 -1</clus>
<clus scale="   38.545">  2  9  1 -1</clus>
<clus scale="   80.391">  5  6 -1 -1</clus>
<clus scale="   84.481">  2  5  1 -1</clus>
<clus scale="  104.531">  7  8 -1 -1</clus>
<clus scale="   38.443">  1  5  2 -1</clus>
</clustering>
</event>
<event>
10    4  0.3738096E-005  0.1153218E+03  0.7546771E-02  0.1254579E+00
          2   -1    0    0  503    0 -0.00000000000E+00  0.00000000000E+00  0.19552537375E+03  0.19552537375E+03  0.00000000000E+00 0. -1.
         21   -1    0    0  501  502  0.00000000000E+00 -0.00000000000E+00 -0.34732599152E+03  0.34732599152E+03  0.00000000000E+00 0.  1.
         24    2    1    2    0    0 -0.31163602876E+02 -0.84540825640E+02 -0.64146225674E+02  0.13634318075E+03  0.79727055161E+02 0.  0.
         23    2    1    2    0    0  0.73372856833E+02  0.71732019378E+01 -0.11586997754E+03  0.16423218040E+03  0.90062902673E+02 0.  0.
        -13    1    3    3    0    0 -0.29010316398E+02 -0.96189633494E+02 -0.70655858252E+02  0.12282627713E+03  0.00000000000E+00 0.  1.
         14    1    3    3    0    0 -0.21532864783E+01  0.11648807854E+02  0.65096325774E+01  0.13516903616E+02  0.00000000000E+00 0. -1.
        -13    1    4    4    0    0  0.53506828831E+02  0.33672244134E+02 -0.11484668081E+03  0.13109752419E+03  0.00000000000E+00 0.  1.
         13    1    4    4    0    0  0.19866028003E+02 -0.26499042197E+02 -0.10232967345E+01  0.33134656210E+02  0.00000000000E+00 0. -1.
         21    1    1    2  503  502  0.22977023253E+02 -0.34655026570E+02  0.89666122258E+02  0.98837887194E+02  0.00000000000E+00 0.  1.
          1    1    1    2  501    0 -0.65186277211E+02  0.11202265027E+03 -0.61450536812E+02  0.14343811692E+03  0.00000000000E+00 0. -1.
<scales pt_clust_5="13000.00000" pt_clust_6="13000.00000" pt_clust_7="13000.00000" pt_clust_8="13000.00000" pt_clust_9="41.58022" pt_clust_10="112.81047"></scales>
<clustering>
<clus scale="   41.580">  1  9  2 -1</clus>
<clus scale="   79.727">  5  6 -1 -1</clus>
<clus scale="   90.063">  7  8 -1 -1</clus>
<clus scale="  112.810">  2 10  1 -1</clus>
<clus scale="  107.444">  1  5  2 -1</clus>
<clus scale="  112.810">  2  5  1 -1</clus>
</clustering>
</event>
<event>
10    4  0.3738096E-005  0.1878397E+03  0.7546771E-02  0.1161746E+00
         21   -1    0    0  501  502  0.00000000000E+00  0.00000000000E+00  0.24816075990E+03  0.24816075990E+03  0.00000000000E+00 0.  1.
          4   -1    0    0  503    0 -0.00000000000E+00 -0.00000000000E+00 -0.23403826845E+03  0.23403826845E+03  0.00000000000E+00 0. -1.
         23    2    1    2    0    0 -0.10146606256E+03  0.12624281971E+03  0.18696264087E+02  0.18701764061E+03  0.91615698593E+02 0.  0.
         24    2    1    2    0    0  0.98122598710E+02 -0.13310393649E+03 -0.27961491619E+01  0.18342402281E+03  0.79321191422E+02 0.  0.
        -11    1    4    4    0    0  0.80113035016E+02 -0.57837363199E+02  0.23719735065E+02  0.10161636085E+03  0.00000000000E+00 0.  1.
         12    1    4    4    0    0  0.18009563694E+02 -0.75266573289E+02 -0.26515884227E+02  0.81807661960E+02  0.00000000000E+00 0. -1.
        -11    1    3    3    0    0 -0.83876891894E+02  0.13934710457E+03  0.85981570686E+01  0.16287073663E+03  0.00000000000E+00 0.  1.
         11    1    3    3    0    0 -0.17589170667E+02 -0.13104284859E+02  0.10098107018E+02  0.24146903979E+02  0.00000000000E+00 0. -1.
         21    1    1    2  503  502  0.36101083508E+02  0.10512438031E+02 -0.44203696415E+02  0.58032459543E+02  0.00000000000E+00 0.  1.
          3    1    1    2  501    0 -0.32757619658E+02 -0.36513212579E+01  0.42426072947E+02  0.53724905382E+02  0.00000000000E+00 0. -1.
<scales pt_clust_5="13000.00000" pt_clust_6="13000.00000" pt_clust_7="13000.00000" pt_clust_8="13000.00000" pt_clust_9="36.47890" pt_clust_10="32.96049"></scales>
<clustering>
<clus scale="   32.960">  1 10  2 -1</clus>
<clus scale="   36.479">  2  9  1 -1</clus>
<clus scale="   79.321">  5  6 -1 -1</clus>
<clus scale="   91.616">  7  8 -1 -1</clus>
<clus scale="  182.160">  1  5  2 -1</clus>
<clus scale="   32.960">  1  5  2 -1</clus>
</clustering>
</event>
<event>
10    4  0.3738096E-005  0.1824664E+03  0.7546771E-02  0.1192125E+00
          2   -1    0    0  503    0 -0.00000000000E+00  0.00000000000E+00  0.61347158953E+03  0.61347158953E+03  0.00000000000E+00 0. -1.
         21   -1    0    0  501  502  0.00000000000E+00 -0.00000000000E+00 -0.25990739000E+03  0.25990739000E+03  0.00000000000E+00 0. -1.
         24    2    1    2    0    0  0.45997194369E+02  0.43767366913E+01  0.38729727928E+03  0.39839315025E+03  0.81135823905E+02 0.  0.
         23    2    1    2    0    0  0.11244270849E+03 -0.72441993673E+02 -0.15338809217E+02  0.16454525615E+03  0.94597341987E+02 0.  0.
        -13    1    3    3    0    0 -0.11900354457E+02 -0.19682630170E+02  0.46511007987E+02  0.51887360991E+02  0.00000000000E+00 0.  1.
         14    1    3    3    0    0  0.57897548826E+02  0.24059366861E+02  0.34078627129E+03  0.34650578926E+03  0.00000000000E+00 0. -1.
        -13    1    4    4    0    0  0.30238865906E+02 -0.39682484293E+02  0.36656175397E+02  0.61909318892E+02  0.00000000000E+00 0.  1.
         13    1    4    4    0    0  0.82203842588E+02 -0.32759509380E+02 -0.51994984613E+02  0.10263593725E+03  0.00000000000E+00 0. -1.
         21    1    1    2  503  502  0.92159969663E+01  0.26437638248E+02  0.98144270241E+02  0.10205969379E+03  0.00000000000E+00 0. -1.
          1    1    1    2  501    0 -0.16765589983E+03  0.41627618734E+02 -0.11653854077E+03  0.20838087934E+03  0.00000000000E+00 0. -1.
<scales pt_clust_5="13000.00000" pt_clust_6="13000.00000" pt_clust_7="13000.00000" pt_clust_8="13000.00000" pt_clust_9="27.99792" pt_clust_10="156.02985"></scales>
<clustering>
<clus scale="   27.998">  1  9  2 -1</clus>
<clus scale="   81.136">  5  6 -1 -1</clus>
<clus scale="   94.597">  7  8 -1 -1</clus>
<clus scale="  100.014">  1  5  2 -1</clus>
<clus scale="  156.030">  2 10  1 -1</clus>
<clus scale="  156.030">  2  5  1 -1</clus>
</clustering>
</event>
<event>
10    4  0.3738096E-005  0.9924936E+02  0.7546771E-02  0.1288456E+00
          2   -1    0    0  503    0 -0.00000000000E+00  0.00000000000E+00  0.66243333572E+03  0.66243333572E+03  0.00000000000E+00 0. -1.
         21   -1    0    0  501  502  0.00000000000E+00 -0.00000000000E+00 -0.45093389906E+02  0.45093389906E+02  0.00000000000E+00 0. -1.
         24    2    1    2    0    0  0.20956373218E+02 -0.35098296876E+02  0.28563115800E+03  0.29914245070E+03  0.78930269015E+02 0.  0.
         23    2    1    2    0    0 -0.20407420711E+02  0.25813143036E+02  0.21037407010E+03  0.23180738687E+03  0.91622235645E+02 0.  0.
        -13    1    3    3    0    0 -0.68389351817E+01 -0.54087015794E+02  0.19436974182E+03  0.20187068348E+03  0.00000000000E+00 0.  1.
         14    1    3    3    0    0  0.27795308400E+02  0.18988718918E+02  0.91261416179E+02  0.97271767220E+02  0.00000000000E+00 0. -1.
        -13    1    4    4    0    0 -0.46953159489E+02 -0.14436486296E+02  0.10815838121E+03  0.11879076878E+03  0.00000000000E+00 0.  1.
         13    1    4    4    0    0  0.26545738778E+02  0.40249629332E+02  0.10221568889E+03  0.11301661809E+03  0.00000000000E+00 0. -1.
         21    1    1    2  503  502  0.30538857769E+02  0.17868949270E+02  0.13644752777E+03  0.14096045196E+03  0.00000000000E+00 0. -1.
          1    1    1    2  501    0 -0.31087810275E+02 -0.85837954296E+01 -0.15112810064E+02  0.35616436090E+02  0.00000000000E+00 0. -1.
<scales pt_clust_5="13000.00000" pt_clust_6="13000.00000" pt_clust_7="13000.00000" pt_clust_8="13000.00000" pt_clust_9="31.83192" pt_clust_10="32.25110"></scales>
<clustering>
<clus scale="   32.251">  2 10  1 -1</clus>
<clus scale="   31.832">  1  9  2 -1</clus>
<clus scale="   78.930">  5  6 -1 -1</clus>
<clus scale="   87.669">  1  5  2 -1</clus>
<clus scale="   91.622">  7  8 -1 -1</clus>
<clus scale="   32.251">  2  5  1 -1</clus>
</clustering>
</event>
<event>
10    4  0.3738096E-005  0.1625250E+03  0.7546771E-02  0.1187082E+00
         -1   -1    0    0    0  501 -0.00000000000E+00  0.00000000000E+00  0.39864654952E+03  0.39864654952E+03  0.00000000000E+00 0.  1.
         21   -1    0    0  503  502  0.00000000000E+00 -0.00000000000E+00 -0.20377794557E+03  0.20377794557E+03  0.00000000000E+00 0. -1.
         23    2    1    2    0    0  0.90055271583E+02 -0.54931779808E+02  0.76090823614E+02  0.15793326724E+03  0.89585998302E+02 0.  0.
         24    2    1    2    0    0 -0.10390205067E+03  0.13983460049E+03  0.15800546371E+03  0.24892032854E+03  0.81524547026E+02 0.  0.
        -11    1    4    4    0    0 -0.54689402243E+02  0.75004703923E+02  0.13590439991E+03  0.16458020004E+03  0.00000000000E+00 0.  1.
         12    1    4    4    0    0 -0.49212648431E+02  0.64829896567E+02  0.22101063799E+02  0.84340128501E+02  0.00000000000E+00 0. -1.
        -13    1    3    3    0    0  0.55092319736E+02  0.68702735590E+01  0.65947981888E+02  0.86206152146E+02  0.00000000000E+00 0.  1.
         13    1    3    3    0    0  0.34962951847E+02 -0.61802053367E+02  0.10142841726E+02  0.71727115099E+02  0.00000000000E+00 0. -1.
         21    1    1    2  503  501  0.34374578615E+02 -0.93131449071E+02  0.44631773483E+02  0.10884426335E+03  0.00000000000E+00 0. -1.
         -2    1    1    2    0  502 -0.20527799524E+02  0.82286283881E+01 -0.83859456865E+02  0.86726635955E+02  0.00000000000E+00 0.  1.
<scales pt_clust_5="13000.00000" pt_clust_6="13000.00000" pt_clust_7="13000.00000" pt_clust_8="13000.00000" pt_clust_9="95.35857" pt_clust_10="22.11563"></scales>
<clustering>
<clus scale="   22.116">  2 10  1 -1</clus>
<clus scale="   81.525">  5  6 -1 -1</clus>
<clus scale="   89.586">  7  8 -1 -1</clus>
<clus scale="   95.359">  2  9  1 -1</clus>
<clus scale="  158.224">  2  5  1 -1</clus>
<clus scale="   22.116">  2  5  1 -1</clus>
</clustering>
</event>
<event>
10    4  0.3738096E-005  0.9840106E+02  0.7546771E-02  0.1290950E+00
          2   -1    0    0  503    0 -0.00000000000E+00  0.00000000000E+00  0.10195355718E+04  0.10195355718E+04  0.00000000000E+00 0. -1.
         21   -1    0    0  501  502  0.00000000000E+00 -0.00000000000E+00 -0.19664388348E+02  0.19664388348E+02  0.00000000000E+00 0. -1.
         24    2    1    2    0    0  0.22329065443E+02  0.34770359051E+02  0.33938485967E+03  0.35098886279E+03  0.79394797033E+02 0.  0.
         23    2    1    2    0    0 -0.11784339008E+01 -0.28437205525E+02  0.22003576248E+03  0.24050387700E+03  0.92824106351E+02 0.  0.
        -11    1    3    3    0    0  0.22111038239E-01 -0.23963283399E+02  0.13688223999E+03  0.13896397758E+03  0.00000000000E+00 0.  1.
         12    1    3    3    0    0  0.22306954404E+02  0.58733642450E+02  0.20250261968E+03  0.21202488521E+03  0.00000000000E+00 0. -1.
        -13    1    4    4    0    0  0.26532475469E+02  0.16151380870E+02  0.29390903054E+02  0.42762887425E+02  0.00000000000E+00 0.  1.
         13    1    4    4    0    0 -0.27710909370E+02 -0.44588586395E+02  0.19064485943E+03  0.19774098958E+03  0.00000000000E+00 0. -1.
         21    1    1    2  503  502  0.17651611979E+02 -0.29701884407E+02  0.21395007708E+03  0.21672198049E+03  0.00000000000E+00 0. -1.
          1    1    1    2  501    0 -0.38802243521E+02  0.23368730881E+02  0.22650048420E+03  0.23098523984E+03  0.00000000000E+00 0. -1.
<scales pt_clust_5="13000.00000" pt_clust_6="13000.00000" pt_clust_7="13000.00000" pt_clust_8="13000.00000" pt_clust_9="34.55114" pt_clust_10="36.92982"></scales>
<clustering>
<clus scale="   34.551">  1  9  2 -1</clus>
<clus scale="   36.930">  2 10  1 -1</clus>
<clus scale="   79.395">  5  6 -1 -1</clus>
<clus scale="   85.849">  1  5  2 -1</clus>
<clus scale="   92.824">  7  8 -1 -1</clus>
<clus scale="   36.930">  2  5  1 -1</clus>
</clustering>
</event>
<event>
10    4  0.3738096E-005  0.9315161E+02  0.7546771E-02  0.1300811E+00
         21   -1    0    0  503  502  0.00000000000E+00  0.00000000000E+00  0.16304929156E+03  0.16304929156E+03  0.00000000000E+00 0.  1.
         -1   -1    0    0    0  501 -0.00000000000E+00 -0.00000000000E+00 -0.81206625606E+03  0.81206625606E+03  0.00000000000E+00 0.  1.
         24    2    1    2    0    0 -0.35224176321E+02 -0.17471337590E+02 -0.71726902665E+03  0.72285396347E+03  0.80604005328E+02 0.  0.
         23    2    1    2    0    0 -0.13640944785E+02 -0.34318997657E+02  0.11534160452E+03  0.15079715091E+03  0.89845567582E+02 0.  0.
        -13    1    3    3    0    0 -0.20954122120E+02 -0.34304072095E+02 -0.15422088800E+03  0.15937354515E+03  0.00000000000E+00 0.  1.
         14    1    3    3    0    0 -0.14270054200E+02  0.16832734505E+02 -0.56304813864E+03  0.56348041832E+03  0.00000000000E+00 0. -1.
        -13    1    4    4    0    0  0.10759967400E+02 -0.51223265687E+02  0.10830602463E+03  0.12029046021E+03  0.00000000000E+00 0.  1.
         13    1    4    4    0    0 -0.24400912185E+02  0.16904268029E+02  0.70355798898E+01  0.30506690700E+02  0.00000000000E+00 0. -1.
         21    1    1    2  503  501  0.10757278741E+02  0.25444777174E+02 -0.47711583544E+02  0.55132122539E+02  0.00000000000E+00 0.  1.
         -2    1    1    2    0  502  0.38107842365E+02  0.26345558073E+02  0.62204116955E+00  0.46332310703E+02  0.00000000000E+00 0.  1.
<scales pt_clust_5="13000.00000" pt_clust_6="13000.00000" pt_clust_7="13000.00000" pt_clust_8="13000.00000" pt_clust_9="27.62527" pt_clust_10="47.03089"></scales>
<clustering>
<clus scale="   27.625">  2  9  1 -1</clus>
<clus scale="   47.031">  1 10  2 -1</clus>
<clus scale="   80.604">  5  6 -1 -1</clus>
<clus scale="   84.273">  2  5  1 -1</clus>
<clus scale="   89.846">  7  8 -1 -1</clus>
<clus scale="   47.031">  1  5  2 -1</clus>
</clustering>
</event>
<event>
10    4  0.3738096E-005  0.1963616E+03  0.7546771E-02  0.1154182E+00
         21   -1    0    0  501  502  0.00000000000E+00  0.00000000000E+00  0.71572709635E+02  0.71572709635E+02  0.00000000000E+00 0. -1.
          2   -1    0    0  503    0 -0.00000000000E+00 -0.00000000000E+00 -0.19837662371E+04  0.19837662371E+04  0.00000000000E+00 0. -1.
         24    2    1    2    0    0  0.77968416119E+02 -0.18495805601E+03 -0.12672514127E+04  0.12855401199E+04  0.79991877129E+02 0.  0.
         23    2    1    2    0    0  0.65920727179E-01  0.13189382842E+03 -0.39955829075E+03  0.43103872574E+03  0.93549821282E+02 0.  0.
        -11    1    3    3    0    0 -0.13260797685E+02 -0.32791563941E+02 -0.13930234957E+03  0.14372292795E+03  0.00000000000E+00 0.  1.
         12    1    3    3    0    0  0.91229213804E+02 -0.15216649207E+03 -0.11279490631E+04  0.11418171919E+04  0.00000000000E+00 0. -1.
        -13    1    4    4    0    0 -0.46434105447E+02  0.72811322654E+02 -0.20405978445E+03  0.22158070874E+03  0.00000000000E+00 0.  1.
         13    1    4    4    0    0  0.46500026174E+02  0.59082505765E+02 -0.19549850630E+03  0.20945801700E+03  0.00000000000E+00 0. -1.
         21    1    1    2  503  502 -0.12563820483E+03 -0.23937222436E+02 -0.20023930948E+03  0.23759993728E+03  0.00000000000E+00 0. -1.
          1    1    1    2  501    0  0.47603867984E+02  0.77001450022E+02 -0.45144514487E+02  0.10116016380E+03  0.00000000000E+00 0. -1.
<scales pt_clust_5="13000.00000" pt_clust_6="13000.00000" pt_clust_7="13000.00000" pt_clust_8="13000.00000" pt_clust_9="105.61707" pt_clust_10="90.52818"></scales>
<clustering>
<clus scale="   79.992">  5  6 -1 -1</clus>
<clus scale="   90.528">  1 10  2 -1</clus>
<clus scale="   93.550">  7  8 -1 -1</clus>
<clus scale="  105.617">  1  9  2 -1</clus>
<clus scale="  190.276">  2  5  1 -1</clus>
<clus scale="   90.528">  1  5  2 -1</clus>
</clustering>
</event>
<event>
10    4  0.3738096E-005  0.2606392E+03  0.7546771E-02  0.1107358E+00
         21   -1    0    0  501  502  0.00000000000E+00  0.00000000000E+00  0.33652193038E+03  0.33652193038E+03  0.00000000000E+00 0. -1.
          2   -1    0    0  503    0 -0.00000000000E+00 -0.00000000000E+00 -0.50932628642E+03  0.50932628642E+03  0.00000000000E+00 0. -1.
         24    2    1    2    0    0 -0.29747768457E+03  0.58540872880E+02 -0.20089364826E+02  0.31447946302E+03  0.81078625196E+02 0.  0.
         23    2    1    2    0    0  0.21058194620E+03 -0.17140250218E+02  0.83847074750E+02  0.24554322151E+03  0.92857942272E+02 0.  0.
        -13    1    3    3    0    0 -0.90849432660E+02 -0.18117758616E+02  0.43373263731E+01  0.92739878111E+02  0.00000000000E+00 0.  1.
         14    1    3    3    0    0 -0.20662825191E+03  0.76658631496E+02 -0.24426691199E+02  0.22173958491E+03  0.00000000000E+00 0. -1.
        -11    1    4    4    0    0  0.12000455622E+02 -0.16583223676E+02 -0.13361787542E+02  0.24444868765E+02  0.00000000000E+00 0.  1.
         11    1    4    4    0    0  0.19858149058E+03 -0.55702654237E+00  0.97208862293E+02  0.22109835275E+03  0.00000000000E+00 0. -1.
         21    1    1    2  503  502  0.10297024703E+03  0.49627021401E+01 -0.19868195163E+03  0.22383480088E+03  0.00000000000E+00 0. -1.
          1    1    1    2  501    0 -0.16074508659E+02 -0.46363324802E+02 -0.37880114333E+02  0.61990731381E+02  0.00000000000E+00 0. -1.
<scales pt_clust_5="13000.00000" pt_clust_6="13000.00000" pt_clust_7="13000.00000" pt_clust_8="13000.00000" pt_clust_9="102.39614" pt_clust_10="49.07087"></scales>
<clustering>
<clus scale="   49.071">  1 10  2 -1</clus>
<clus scale="   81.079">  5  6 -1 -1</clus>
<clus scale="   92.858">  7  8 -1 -1</clus>
<clus scale="  102.396">  2  9  1 -1</clus>
<clus scale="  256.679">  2  5  1 -1</clus>
<clus scale="   49.071">  1  5  2 -1</clus>
</clustering>
</event>
<event>
10    4  0.3738096E-005  0.1079501E+03  0.7546771E-02  0.1268485E+00
          2   -1    0    0  503    0 -0.00000000000E+00  0.00000000000E+00  0.11034678619E+04  0.11034678619E+04  0.00000000000E+00 0. -1.
         21   -1    0    0  501  502  0.00000000000E+00 -0.00000000000E+00 -0.37508541561E+02  0.37508541561E+02  0.00000000000E+00 0. -1.
         23    2    1    2    0    0 -0.64223029604E+02 -0.15600849242E+02  0.31734811280E+03  0.33664856525E+03  0.90853991442E+02 0.  0.
         24    2    1    2    0    0  0.50919658380E+02  0.81294735902E+01  0.24267501212E+03  0.26095509803E+03  0.80916634434E+02 0.  0.
        -11    1    4    4    0    0  0.56866684423E+02 -0.18530936429E+02  0.21007811650E+03  0.21842625858E+03  0.00000000000E+00 0.  1.
         12    1    4    4    0    0 -0.59470260428E+01  0.26660410019E+02  0.32596895621E+02  0.42528839454E+02  0.00000000000E+00 0. -1.
        -11    1    3    3    0    0 -0.71902257829E+02 -0.41827459796E+02  0.20995627666E+03  0.22583425157E+03  0.00000000000E+00 0. -1.
         11    1    3    3    0    0  0.76792282257E+01  0.26226610554E+02  0.10739183614E+03  0.11081431368E+03  0.00000000000E+00 0.  1.
         21    1    1    2  503  502  0.24663322616E+02 -0.68408941489E+02  0.42753359976E+03  0.43367388864E+03  0.00000000000E+00 0. -1.
          1    1    1    2  501    0 -0.11359951393E+02  0.75880317140E+02  0.78402595656E+02  0.10969885155E+03  0.00000000000E+00 0. -1.
<scales pt_clust_5="13000.00000" pt_clust_6="13000.00000" pt_clust_7="13000.00000" pt_clust_8="13000.00000" pt_clust_9="72.71907" pt_clust_10="66.78871"></scales>
<clustering>
<clus scale="   72.719">  1  9  2 -1</clus>
<clus scale="   66.789">  2 10  1 -1</clus>
<clus scale="   80.917">  5  6 -1 -1</clus>
<clus scale="   90.854">  7  8 -1 -1</clus>
<clus scale="   99.731">  2  5  1 -1</clus>
<clus scale="   66.789">  2  5  1 -1</clus>
</clustering>
</event>
<event>
10    4  0.3738096E-005  0.1691068E+03  0.7546771E-02  0.1210002E+00
          2   -1    0    0  503    0 -0.00000000000E+00  0.00000000000E+00  0.81677400412E+02  0.81677400412E+02  0.00000000000E+00 0. -1.
         21   -1    0    0  501  502  0.00000000000E+00 -0.00000000000E+00 -0.10313314471E+04  0.10313314471E+04  0.00000000000E+00 0. -1.
         24    2    1    2    0    0 -0.11202386969E+02  0.20284111729E+02 -0.26126719545E+02  0.86816274437E+02  0.79482836956E+02 0.  0.
         23    2    1    2    0    0 -0.14025270290E+03 -0.15791171936E+02 -0.77807488709E+03  0.79581064758E+03  0.89408473337E+02 0.  0.
        -13    1    3    3    0    0  0.85669522977E+01  0.47106368463E+02 -0.69765455073E+01  0.48384654682E+02  0.00000000000E+00 0.  1.
         14    1    3    3    0    0 -0.19769339266E+02 -0.26822256734E+02 -0.19150174038E+02  0.38431619756E+02  0.00000000000E+00 0. -1.
        -11    1    4    4    0    0  0.59321030381E-01 -0.24393795754E+02 -0.76660597405E+02  0.80448169556E+02  0.00000000000E+00 0.  1.
         11    1    4    4    0    0 -0.14031202393E+03  0.86026238182E+01 -0.70141428969E+03  0.71536247803E+03  0.00000000000E+00 0. -1.
         21    1    1    2  503  502 -0.49899796439E+01  0.19539868041E+02 -0.20138000925E+02  0.28499919669E+02  0.00000000000E+00 0. -1.
          1    1    1    2  501    0  0.15644506951E+03 -0.24032807834E+02 -0.12531443916E+03  0.20188200585E+03  0.00000000000E+00 0. -1.
<scales pt_clust_5="13000.00000" pt_clust_6="13000.00000" pt_clust_7="13000.00000" pt_clust_8="13000.00000" pt_clust_9="20.16696" pt_clust_10="143.53835"></scales>
<clustering>
<clus scale="   20.167">  1  9  2 -1</clus>
<clus scale="   79.483">  5  6 -1 -1</clus>
<clus scale="   85.270">  1  5  2 -1</clus>
<clus scale="   89.408">  7  8 -1 -1</clus>
<clus scale="  143.538">  2 10  1 -1</clus>
<clus scale="  143.538">  2  5  1 -1</clus>
</clustering>
</event>
<event>
10    4  0.3738096E-005  0.1255813E+03  0.7546771E-02  0.1239257E+00
          2   -1    0    0  503    0 -0.00000000000E+00  0.00000000000E+00  0.30888227577E+03  0.30888227577E+03  0.00000000000E+00 0. -1.
         21   -1    0    0  501  502  0.00000000000E+00 -0.00000000000E+00 -0.22924571868E+03  0.22924571868E+03  0.00000000000E+00 0. -1.
         24    2    1    2    0    0  0.64710629066E+02 -0.13280274852E+02  0.25232984310E+03  0.27295070752E+03  0.80423303851E+02 0.  0.
         23    2    1    2    0    0 -0.44376637338E+02  0.37743129123E+02 -0.16404372894E+03  0.19933404108E+03  0.97107595954E+02 0.  0.
        -13    1    3    3    0    0  0.53640405194E+02 -0.26818773599E+02  0.81283230339E+02  0.10101239142E+03  0.00000000000E+00 0.  1.
         14    1    3    3    0    0  0.11070223872E+02  0.13538498746E+02  0.17104661276E+03  0.17193831610E+03  0.00000000000E+00 0. -1.
        -11    1    4    4    0    0 -0.15653069316E+01 -0.31639871961E+02 -0.43692575841E+02  0.53968257959E+02  0.00000000000E+00 0.  1.
         11    1    4    4    0    0 -0.42811330407E+02  0.69383001084E+02 -0.12035115310E+03  0.14536578312E+03  0.00000000000E+00 0. -1.
         21    1    1    2  503  502  0.11423100879E+02 -0.22782015793E+02  0.11747455904E+02  0.28062612093E+02  0.00000000000E+00 0. -1.
          1    1    1    2  501    0 -0.31757092606E+02 -0.16808384775E+01 -0.20397012977E+02  0.37780633758E+02  0.00000000000E+00 0. -1.
<scales pt_clust_5="13000.00000" pt_clust_6="13000.00000" pt_clust_7="13000.00000" pt_clust_8="13000.00000" pt_clust_9="25.48544" pt_clust_10="31.50249"></scales>
<clustering>
<clus scale="   25.485">  1  9  2 -1</clus>
<clus scale="   31.502">  2 10  1 -1</clus>
<clus scale="   80.423">  5  6 -1 -1</clus>
<clus scale="   97.108">  7  8 -1 -1</clus>
<clus scale="  113.175">  1  5  2 -1</clus>
<clus scale="   31.502">  2  5  1 -1</clus>
</clustering>
</event>
<event>
10    4  0.3738096E-005  0.1693600E+03  0.7546771E-02  0.1179596E+00
         -1   -1    0    0    0  501 -0.00000000000E+00  0.00000000000E+00  0.66727728101E+03  0.66727728101E+03  0.00000000000E+00 0.  1.
         21   -1    0    0  503  502  0.00000000000E+00 -0.00000000000E+00 -0.33305164696E+03  0.33305164696E+03  0.00000000000E+00 0.  1.
         23    2    1    2    0    0 -0.11468930673E+03 -0.10252878274E+03  0.47120064742E+03  0.50352702976E+03  0.88564277215E+02 0.  0.
         24    2    1    2    0    0  0.99857156362E+02  0.93314240415E+02 -0.28841323330E+03  0.32915763337E+03  0.80520527338E+02 0.  0.
        -13    1    4    4    0    0  0.70318161012E+02  0.39550620242E+02 -0.87181444710E+02  0.11878341480E+03  0.00000000000E+00 0.  1.
         14    1    4    4    0    0  0.29538995350E+02  0.53763620173E+02 -0.20123178859E+03  0.21037421858E+03  0.00000000000E+00 0. -1.
        -13    1    3    3    0    0 -0.43115928670E+02  0.94717938331E+01  0.13355405642E+03  0.14066052812E+03  0.00000000000E+00 0. -1.
         13    1    3    3    0    0 -0.71573378064E+02 -0.11200057657E+03  0.33764659100E+03  0.36286650164E+03  0.00000000000E+00 0.  1.
         21    1    1    2  503  501 -0.35552342283E+01  0.19998910347E+02  0.14344852013E+03  0.14487951557E+03  0.00000000000E+00 0.  1.
         -2    1    1    2    0  502  0.18387384601E+02 -0.10784368020E+02  0.79896998112E+01  0.22764749265E+02  0.00000000000E+00 0.  1.
<scales pt_clust_5="13000.00000" pt_clust_6="13000.00000" pt_clust_7="13000.00000" pt_clust_8="13000.00000" pt_clust_9="20.31246" pt_clust_10="20.93400"></scales>
<clustering>
<clus scale="   20.312">  1  9  2 -1</clus>
<clus scale="   20.934">  2 10  1 -1</clus>
<clus scale="   80.521">  5  6 -1 -1</clus>
<clus scale="   88.564">  7  8 -1 -1</clus>
<clus scale="  165.296">  2  5  1 -1</clus>
<clus scale="   20.934">  2  5  1 -1</clus>
</clustering>
</event>
<event>
10    4  0.3738096E-005  0.1190536E+03  0.7546771E-02  0.1248246E+00
         21   -1    0    0  503  502  0.00000000000E+00  0.00000000000E+00  0.47416446656E+02  0.47416446656E+02  0.00000000000E+00 0.  1.
         -1   -1    0    0    0  501 -0.00000000000E+00 -0.00000000000E+00 -0.72575100401E+03  0.72575100401E+03  0.00000000000E+00 0.  1.
         23    2    1    2    0    0 -0.47669272473E+02 -0.11711091441E+03 -0.28954173364E+03  0.33023592721E+03  0.96093841057E+02 0.  0.
         24    2    1    2    0    0  0.10770627434E+02  0.27757514486E+02 -0.13608309686E+03  0.16352436171E+03  0.85645324418E+02 0.  0.
        -13    1    4    4    0    0  0.27742386289E+02 -0.19760405259E+02 -0.27450345612E+02  0.43745115010E+02  0.00000000000E+00 0.  1.
         14    1    4    4    0    0 -0.16971758855E+02  0.47517919745E+02 -0.10863275125E+03  0.11977924670E+03  0.00000000000E+00 0. -1.
        -11    1    3    3    0    0 -0.29898759812E+02 -0.40298819794E+02 -0.28846259276E+02  0.57879507508E+02  0.00000000000E+00 0.  1.
         11    1    3    3    0    0 -0.17770512661E+02 -0.76812094619E+02 -0.26069547436E+03  0.27235641970E+03  0.00000000000E+00 0. -1.
         21    1    1    2  503  501 -0.10677946997E+02  0.62270960504E+02 -0.15545084595E+03  0.16779945346E+03  0.00000000000E+00 0.  1.
         -2    1    1    2    0  502  0.47576592036E+02  0.27082439423E+02 -0.97258880899E+02  0.11160770828E+03  0.00000000000E+00 0.  1.
<scales pt_clust_5="13000.00000" pt_clust_6="13000.00000" pt_clust_7="13000.00000" pt_clust_8="13000.00000" pt_clust_9="66.51205" pt_clust_10="54.74478"></scales>
<clustering>
<clus scale="   54.745">  1 10  2 -1</clus>
<clus scale="   66.512">  2  9  1 -1</clus>
<clus scale="   85.645">  5  6 -1 -1</clus>
<clus scale="   96.094">  7  8 -1 -1</clus>
<clus scale="  110.792">  1  5  2 -1</clus>
<clus scale="   54.745">  1  5  2 -1</clus>
</clustering>
</event>
<event>
10    4  0.3738096E-005  0.1881646E+03  0.7546771E-02  0.1173087E+00
         21   -1    0    0  501  502  0.00000000000E+00  0.00000000000E+00  0.44529905351E+03  0.44529905351E+03  0.00000000000E+00 0. -1.
          2   -1    0    0  503    0 -0.00000000000E+00 -0.00000000000E+00 -0.41510563421E+03  0.41510563421E+03  0.00000000000E+00 0. -1.
         23    2    1    2    0    0  0.93652354897E+02  0.40780963381E+02 -0.43666151570E+02  0.14436745038E+03  0.92202914187E+02 0.  0.
         24    2    1    2    0    0  0.11075899956E+03 -0.90309779150E+01  0.85324074232E+02  0.16377166547E+03  0.84804753540E+02 0.  0.
        -13    1    4    4    0    0  0.10894531136E+03 -0.33339112037E+02  0.78832003553E+02  0.13854624514E+03  0.00000000000E+00 0.  1.
         14    1    4    4    0    0  0.18136882045E+01  0.24308134122E+02  0.64920706788E+01  0.25225420336E+02  0.00000000000E+00 0. -1.
        -13    1    3    3    0    0  0.58720650750E+02 -0.16297220993E+02 -0.47608800313E+02  0.77332477679E+02  0.00000000000E+00 0.  1.
         13    1    3    3    0    0  0.34931704146E+02  0.57078184375E+02  0.39426487438E+01  0.67034972702E+02  0.00000000000E+00 0. -1.
         21    1    1    2  503  502 -0.24825204399E+03  0.66665376094E+02 -0.20632035292E+03  0.32960800619E+03  0.00000000000E+00 0. -1.
          1    1    1    2  501    0  0.43840689529E+02 -0.98415361560E+02  0.19485584956E+03  0.22265756568E+03  0.00000000000E+00 0. -1.
<scales pt_clust_5="13000.00000" pt_clust_6="13000.00000" pt_clust_7="13000.00000" pt_clust_8="13000.00000" pt_clust_9="167.97045" pt_clust_10="107.73852"></scales>
<clustering>
<clus scale="   84.805">  5  6 -1 -1</clus>
<clus scale="   92.203">  7  8 -1 -1</clus>
<clus scale="  107.739">  1 10  2 -1</clus>
<clus scale="  139.644">  2  7  1 -1</clus>
<clus scale="  167.970">  2  9  1 -1</clus>
<clus scale="  107.739">  1  5  2 -1</clus>
</clustering>
</event>
<event>
10    4  0.3738096E-005  0.1348258E+03  0.7546771E-02  0.1222092E+00
          2   -1    0    0  503    0 -0.00000000000E+00  0.00000000000E+00  0.33918272353E+03  0.33918272353E+03  0.00000000000E+00 0. -1.
         21   -1    0    0  501  502  0.00000000000E+00 -0.00000000000E+00 -0.25844736011E+03  0.25844736011E+03  0.00000000000E+00 0.  1.
         23    2    1    2    0    0 -0.95715236296E+02  0.10736605891E+02  0.11705945869E+03  0.17597870810E+03  0.89380689575E+02 0.  0.
         24    2    1    2    0    0  0.59331137091E+02  0.47974444908E+02 -0.19841905609E+03  0.22799864556E+03  0.82410735744E+02 0.  0.
        -13    1    4    4    0    0  0.13664983931E+02  0.45060981915E+02 -0.16431496825E+03  0.17092873564E+03  0.00000000000E+00 0.  1.
         14    1    4    4    0    0  0.45666153160E+02  0.29134629935E+01 -0.34104087842E+02  0.57069909923E+02  0.00000000000E+00 0. -1.
        -11    1    3    3    0    0 -0.38554720133E+02  0.35290737950E+02  0.11603373214E+02  0.53540086847E+02  0.00000000000E+00 0.  1.
         11    1    3    3    0    0 -0.57160516163E+02 -0.24554132059E+02  0.10545608548E+03  0.12243862125E+03  0.00000000000E+00 0. -1.
         21    1    1    2  503  502 -0.18493829459E+02 -0.46023362855E+02  0.78204932225E+02  0.92607683704E+02  0.00000000000E+00 0. -1.
          1    1    1    2  501    0  0.54877928665E+02 -0.12687687944E+02  0.83890028595E+02  0.10104504628E+03  0.00000000000E+00 0. -1.
<scales pt_clust_5="13000.00000" pt_clust_6="13000.00000" pt_clust_7="13000.00000" pt_clust_8="13000.00000" pt_clust_9="49.60012" pt_clust_10="56.43689"></scales>
<clustering>
<clus scale="   49.600">  1  9  2 -1</clus>
<clus scale="   56.437">  2 10  1 -1</clus>
<clus scale="   82.411">  5  6 -1 -1</clus>
<clus scale="   89.381">  7  8 -1 -1</clus>
<clus scale="  130.310">  2  5  1 -1</clus>
<clus scale="   56.437">  2  5  1 -1</clus>
</clustering>
</event>
<event>
10    4  0.3738096E-005  0.1803409E+03  0.7546771E-02  0.1193238E+00
         21   -1    0    0  501  502  0.00000000000E+00  0.00000000000E+00  0.52667080646E+02  0.52667080646E+02  0.00000000000E+00 0.  1.
          2   -1    0    0  503    0 -0.00000000000E+00 -0.00000000000E+00 -0.27142415207E+04  0.27142415207E+04  0.00000000000E+00 0. -1.
         24    2    1    2    0    0  0.16382045752E+00  0.60583448157E+02 -0.41656190108E+03  0.42865181722E+03  0.80920837532E+02 0.  0.
         23    2    1    2    0    0 -0.99409132546E+02 -0.11195838922E+03 -0.17955086446E+03  0.25013359035E+03  0.88946295832E+02 0.  0.
        -13    1    3    3    0    0  0.19254067396E+02  0.42812310414E+02 -0.94318073316E+02  0.10535422150E+03  0.00000000000E+00 0.  1.
         14    1    3    3    0    0 -0.19090246939E+02  0.17771137743E+02 -0.32224382777E+03  0.32329759572E+03  0.00000000000E+00 0. -1.
        -13    1    4    4    0    0 -0.76969014397E+02 -0.12475115374E+03 -0.13871554814E+03  0.20181447627E+03  0.00000000000E+00 0.  1.
         13    1    4    4    0    0 -0.22440118149E+02  0.12792764516E+02 -0.40835316323E+02  0.48319114083E+02  0.00000000000E+00 0. -1.
         21    1    1    2  503  502 -0.49932226334E+02 -0.88853013473E+02 -0.65706795837E+03  0.66492585086E+03  0.00000000000E+00 0. -1.
          1    1    1    2  501    0  0.14917753842E+03  0.14022795454E+03 -0.14083937161E+04  0.14231973429E+04  0.00000000000E+00 0. -1.
<scales pt_clust_5="13000.00000" pt_clust_6="13000.00000" pt_clust_7="13000.00000" pt_clust_8="13000.00000" pt_clust_9="87.08263" pt_clust_10="156.88033"></scales>
<clustering>
<clus scale="   80.921">  5  6 -1 -1</clus>
<clus scale="   88.946">  7  8 -1 -1</clus>
<clus scale="  101.087">  2  5  1 -1</clus>
<clus scale="   87.083">  2  9  1 -1</clus>
<clus scale="  156.880">  1 10  2 -1</clus>
<clus scale="  156.880">  1  5  2 -1</clus>
</clustering>
</event>
<event>
10    4  0.3738096E-005  0.1821340E+03  0.7546771E-02  0.1173792E+00
         21   -1    0    0  501  502  0.00000000000E+00  0.00000000000E+00  0.10219072627E+03  0.10219072627E+03  0.00000000000E+00 0. -1.
          2   -1    0    0  503    0 -0.00000000000E+00 -0.00000000000E+00 -0.12689555802E+04  0.12689555802E+04  0.00000000000E+00 0. -1.
         23    2    1    2    0    0 -0.87157028204E+02  0.78490557859E+02 -0.58937826726E+03  0.60795156614E+03  0.92093700186E+02 0.  0.
         24    2    1    2    0    0 -0.10423717889E+03 -0.11906862108E+03 -0.65980602440E+02  0.18655233213E+03  0.73522831398E+02 0.  0.
        -13    1    4    4    0    0 -0.62683709478E+02 -0.41748891362E+02  0.22920219180E+01  0.75348992882E+02  0.00000000000E+00 0.  1.
         14    1    4    4    0    0 -0.41553469417E+02 -0.77319729714E+02 -0.68272624358E+02  0.11120333925E+03  0.00000000000E+00 0. -1.
        -13    1    3    3    0    0 -0.85977810221E+02  0.20208864121E+02 -0.40743536001E+03  0.41689825453E+03  0.00000000000E+00 0.  1.
         13    1    3    3    0    0 -0.11792179828E+01  0.58281693738E+02 -0.18194290725E+03  0.19105331161E+03  0.00000000000E+00 0. -1.
         21    1    1    2  503  502 -0.18830153324E+02 -0.14430282677E+02 -0.17203092379E+03  0.17365899479E+03  0.00000000000E+00 0. -1.
          1    1    1    2  501    0  0.21022436042E+03  0.55008345893E+02 -0.33937506041E+03  0.40298341338E+03  0.00000000000E+00 0. -1.
<scales pt_clust_5="13000.00000" pt_clust_6="13000.00000" pt_clust_7="13000.00000" pt_clust_8="13000.00000" pt_clust_9="23.72357" pt_clust_10="166.63500"></scales>
<clustering>
<clus scale="   23.724">  2  9  1 -1</clus>
<clus scale="   73.523">  5  6 -1 -1</clus>
<clus scale="   92.094">  7  8 -1 -1</clus>
<clus scale="  151.531">  2  7  1 -1</clus>
<clus scale="  166.635">  1 10  2 -1</clus>
<clus scale="  166.635">  1  5  2 -1</clus>
</clustering>
</event>
<event>
10    4  0.3738096E-005  0.2043185E+03  0.7546771E-02  0.1184744E+00
         21   -1    0    0  501  502  0.00000000000E+00  0.00000000000E+00  0.56991616701E+02  0.56991616701E+02  0.00000000000E+00 0. -1.
          2   -1    0    0  503    0 -0.00000000000E+00 -0.00000000000E+00 -0.13372015517E+04  0.13372015517E+04  0.00000000000E+00 0. -1.
         24    2    1    2    0    0  0.29495391073E+02  0.12688466867E+02 -0.98209093516E+02  0.13067074441E+03  0.79992762851E+02 0.  0.
         23    2    1    2    0    0 -0.12878194424E+03  0.13287043530E+03 -0.81108223833E+03  0.83675462953E+03  0.89802956366E+02 0.  0.
        -13    1    3    3    0    0  0.11933430826E+02  0.26733684192E+02  0.65285329484E+00  0.29283491240E+02  0.00000000000E+00 0.  1.
         14    1    3    3    0    0  0.17561960247E+02 -0.14045217325E+02 -0.98861946811E+02  0.10138725317E+03  0.00000000000E+00 0. -1.
        -13    1    4    4    0    0 -0.58538739045E+02  0.90639574708E+01 -0.32094915814E+03  0.32636988435E+03  0.00000000000E+00 0.  1.
         13    1    4    4    0    0 -0.70243205193E+02  0.12380647783E+03 -0.49013308018E+03  0.51038474518E+03  0.00000000000E+00 0. -1.
         21    1    1    2  503  502 -0.23184166516E+02 -0.37068844661E+01 -0.35932482960E+02  0.42923069568E+02  0.00000000000E+00 0. -1.
          1    1    1    2  501    0  0.12247071968E+03 -0.14185201770E+03 -0.33498612015E+03  0.38384472486E+03  0.00000000000E+00 0. -1.
<scales pt_clust_5="13000.00000" pt_clust_6="13000.00000" pt_clust_7="13000.00000" pt_clust_8="13000.00000" pt_clust_9="23.47864" pt_clust_10="183.52518"></scales>
<clustering>
<clus scale="   23.479">  1  9  2 -1</clus>
<clus scale="   79.993">  5  6 -1 -1</clus>
<clus scale="   83.887">  2  5  1 -1</clus>
<clus scale="   89.803">  7  8 -1 -1</clus>
<clus scale="  183.525">  1 10  2 -1</clus>
<clus scale="   23.479">  1  5  2 -1</clus>
</clustering>
</event>
<event>
10    4  0.3738096E-005  0.1661119E+03  0.7546771E-02  0.1206489E+00
         21   -1    0    0  503  502  0.00000000000E+00  0.00000000000E+00  0.64116341068E+03  0.64116341068E+03  0.00000000000E+00 0.  1.
         -1   -1    0    0    0  501 -0.00000000000E+00 -0.00000000000E+00 -0.15148467815E+03  0.15148467815E+03  0.00000000000E+00 0.  1.
         23    2    1    2    0    0 -0.10799196426E+03  0.66606492459E+02  0.32903185722E+02  0.15985787385E+03  0.91505360599E+02 0.  0.
         24    2    1    2    0    0 -0.66377980111E+02  0.17499316420E+02  0.16116393222E+03  0.19277656181E+03  0.80478117609E+02 0.  0.
        -13    1    4    4    0    0 -0.63625506778E+02 -0.20008423057E+02  0.87026855663E+02  0.10964586500E+03  0.00000000000E+00 0.  1.
         14    1    4    4    0    0 -0.27524733331E+01  0.37507739476E+02  0.74137076560E+02  0.83130696803E+02  0.00000000000E+00 0. -1.
        -13    1    3    3    0    0 -0.11397461411E+03  0.36614518049E+02  0.72333504127E+01  0.11992980010E+03  0.00000000000E+00 0.  1.
         13    1    3    3    0    0  0.59826498553E+01  0.29991974410E+02  0.25669835309E+02  0.39928073746E+02  0.00000000000E+00 0. -1.
         21    1    1    2  503  501  0.14860499789E+03 -0.33482434706E+02  0.14272424056E+02  0.15299745396E+03  0.00000000000E+00 0.  1.
         -2    1    1    2    0  502  0.25764946478E+02 -0.50623374173E+02  0.28133919053E+03  0.28701619921E+03  0.00000000000E+00 0.  1.
<scales pt_clust_5="13000.00000" pt_clust_6="13000.00000" pt_clust_7="13000.00000" pt_clust_8="13000.00000" pt_clust_9="138.63602" pt_clust_10="56.80280"></scales>
<clustering>
<clus scale="   56.803">  1 10  2 -1</clus>
<clus scale="   80.478">  5  6 -1 -1</clus>
<clus scale="   91.505">  7  8 -1 -1</clus>
<clus scale="   96.995">  1  5  2 -1</clus>
<clus scale="  138.636">  1  9  2 -1</clus>
<clus scale="   56.803">  1  5  2 -1</clus>
</clustering>
</event>
<event>
10    4  0.3738096E-005  0.1274006E+03  0.7546771E-02  0.1247214E+00
          2   -1    0    0  503    0 -0.00000000000E+00  0.00000000000E+00  0.70211897278E+03  0.70211897278E+03  0.00000000000E+00 0. -1.
         21   -1    0    0  501  502  0.00000000000E+00 -0.00000000000E+00 -0.19226093683E+03  0.19226093683E+03  0.00000000000E+00 0. -1.
         23    2    1    2    0    0  0.20497107860E+02  0.23571045761E+01 -0.67305624270E+02  0.11392846250E+03  0.89576560202E+02 0.  0.
         24    2    1    2    0    0 -0.29014397945E+02  0.97601238091E+02 -0.37650376642E+02  0.13360423724E+03  0.77876211908E+02 0.  0.
        -11    1    4    4    0    0 -0.31387245720E+02  0.24191549010E+02 -0.44796955747E+02  0.59809342762E+02  0.00000000000E+00 0.  1.
         12    1    4    4    0    0  0.23728477747E+01  0.73409689081E+02  0.71465791054E+01  0.73794894474E+02  0.00000000000E+00 0. -1.
        -11    1    3    3    0    0  0.49914983460E+02  0.12180332345E+01 -0.68141897096E+02  0.84476667303E+02  0.00000000000E+00 0. -1.
         11    1    3    3    0    0 -0.29417875600E+02  0.11390713416E+01  0.83627282577E+00  0.29451795201E+02  0.00000000000E+00 0.  1.
         21    1    1    2  503  502  0.45794019494E+02  0.20484914733E+01  0.36982870095E+02  0.58898397425E+02  0.00000000000E+00 0. -1.
          1    1    1    2  501    0 -0.37276729409E+02 -0.10200683414E+03  0.57783116677E+03  0.58794881245E+03  0.00000000000E+00 0. -1.
<scales pt_clust_5="13000.00000" pt_clust_6="13000.00000" pt_clust_7="13000.00000" pt_clust_8="13000.00000" pt_clust_9="45.83981" pt_clust_10="100.82773"></scales>
<clustering>
<clus scale="   45.840">  1  9  2 -1</clus>
<clus scale="   77.876">  5  6 -1 -1</clus>
<clus scale="   89.577">  7  8 -1 -1</clus>
<clus scale="   92.301">  1  7  2 -1</clus>
<clus scale="  100.828">  2 10  1 -1</clus>
<clus scale="  100.828">  2  5  1 -1</clus>
</clustering>
</event>
<event>
10    4  0.3738096E-005  0.1496080E+03  0.7546771E-02  0.1225225E+00
          4   -1    0    0  503    0 -0.00000000000E+00  0.00000000000E+00  0.36207264546E+03  0.36207264546E+03  0.00000000000E+00 0. -1.
         21   -1    0    0  501  502  0.00000000000E+00 -0.00000000000E+00 -0.31251815117E+03  0.31251815117E+03  0.00000000000E+00 0. -1.
         24    2    1    2    0    0  0.18023954913E+02  0.26635703567E+02  0.26250833303E+03  0.27745571150E+03  0.83885179114E+02 0.  0.
         23    2    1    2    0    0 -0.28469325177E+02  0.79556082500E+02 -0.87969943767E+02  0.16221325905E+03  0.10693342633E+03 0.  0.
        -11    1    3    3    0    0  0.28994163029E+02 -0.20632730271E+02  0.16179170507E+03  0.16565906820E+03  0.00000000000E+00 0.  1.
         12    1    3    3    0    0 -0.10970208116E+02  0.47268433838E+02  0.10071662797E+03  0.11179664330E+03  0.00000000000E+00 0. -1.
        -13    1    4    4    0    0 -0.14965240303E+02  0.57874928306E+02 -0.11212055653E+03  0.12706094971E+03  0.00000000000E+00 0. -1.
         13    1    4    4    0    0 -0.13504084874E+02  0.21681154194E+02  0.24150612761E+02  0.35152309344E+02  0.00000000000E+00 0.  1.
         21    1    1    2  503  502 -0.71783824537E+02 -0.11810963119E+02 -0.34818453573E+02  0.80651974707E+02  0.00000000000E+00 0. -1.
          3    1    1    2  501    0  0.82229194801E+02 -0.94380822948E+02 -0.90165441406E+02  0.15426985137E+03  0.00000000000E+00 0. -1.
<scales pt_clust_5="13000.00000" pt_clust_6="13000.00000" pt_clust_7="13000.00000" pt_clust_8="13000.00000" pt_clust_9="72.74900" pt_clust_10="104.63170"></scales>
<clustering>
<clus scale="   72.749">  2  9  1 -1</clus>
<clus scale="   83.885">  5  6 -1 -1</clus>
<clus scale="   89.338">  1  5  2 -1</clus>
<clus scale="  104.632">  2 10  1 -1</clus>
<clus scale="  106.933">  7  8 -1 -1</clus>
<clus scale="   72.749">  2  5  1 -1</clus>
</clustering>
</event>
<event>
10    4  0.3738096E-005  0.2322605E+03  0.7546771E-02  0.1158770E+00
         21   -1    0    0  501  502  0.00000000000E+00  0.00000000000E+00  0.47782940493E+03  0.47782940493E+03  0.00000000000E+00 0. -1.
          2   -1    0    0  503    0 -0.00000000000E+00 -0.00000000000E+00 -0.37082420896E+03  0.37082420896E+03  0.00000000000E+00 0. -1.
         24    2    1    2    0    0  0.15305216229E+02 -0.60584178800E+02 -0.17829339335E+03  0.20570608824E+03  0.81374248152E+02 0.  0.
         23    2    1    2    0    0 -0.13061846611E+03 -0.12573666889E+03  0.88212938876E+02  0.22238044953E+03  0.93811769813E+02 0.  0.
        -11    1    3    3    0    0  0.30408004674E+02 -0.44571342269E+01 -0.11808926828E+03  0.12202289981E+03  0.00000000000E+00 0.  1.
         12    1    3    3    0    0 -0.15102788445E+02 -0.56127044573E+02 -0.60204125071E+02  0.83683188436E+02  0.00000000000E+00 0. -1.
        -13    1    4    4    0    0 -0.10245936073E+03 -0.13772862507E+03  0.85158429952E+02  0.19162216197E+03  0.00000000000E+00 0. -1.
         13    1    4    4    0    0 -0.28159105380E+02  0.11991956183E+02  0.30545089233E+01  0.30758287560E+02  0.00000000000E+00 0.  1.
         21    1    1    2  503  502  0.12893346125E+03  0.21520359216E+03  0.32565102470E+02  0.25297610442E+03  0.00000000000E+00 0. -1.
          1    1    1    2  501    0 -0.13620211367E+02 -0.28882744466E+02  0.16452054799E+03  0.16759097170E+03  0.00000000000E+00 0. -1.
<scales pt_clust_5="13000.00000" pt_clust_6="13000.00000" pt_clust_7="13000.00000" pt_clust_8="13000.00000" pt_clust_9="212.47189" pt_clust_10="31.93310"></scales>
<clustering>
<clus scale="   31.933">  1 10  2 -1</clus>
<clus scale="   81.374">  5  6 -1 -1</clus>
<clus scale="   93.812">  7  8 -1 -1</clus>
<clus scale="  103.266">  2  5  1 -1</clus>
<clus scale="  212.472">  2  9  1 -1</clus>
<clus scale="   31.933">  1  5  2 -1</clus>
</clustering>
</event>
<event>
10    4  0.3738096E-005  0.8177454E+03  0.7546771E-02  0.9535077E-01
          2   -1    0    0  503    0 -0.00000000000E+00  0.00000000000E+00  0.27874341429E+04  0.27874341429E+04  0.00000000000E+00 0. -1.
         21   -1    0    0  501  502  0.00000000000E+00 -0.00000000000E+00 -0.34125251267E+03  0.34125251267E+03  0.00000000000E+00 0. -1.
         24    2    1    2    0    0 -0.59449098915E+03 -0.57896581645E+03  0.18347295127E+04  0.20152883940E+04  0.80832997464E+02 0.  0.
         23    2    1    2    0    0  0.53167139602E+03  0.56195104621E+03  0.52636593943E+03  0.94015753399E+03  0.91496638523E+02 0.  0.
        -11    1    3    3    0    0 -0.85680675835E+02 -0.68357100280E+02  0.18648578651E+03  0.21631185807E+03  0.00000000000E+00 0.  1.
         12    1    3    3    0    0 -0.50881031332E+03 -0.51060871617E+03  0.16482437262E+04  0.17989765359E+04  0.00000000000E+00 0. -1.
        -13    1    4    4    0    0  0.52058097812E+03  0.53075695954E+03  0.48713491518E+03  0.88882390296E+03  0.00000000000E+00 0. -1.
         13    1    4    4    0    0  0.11090417900E+02  0.31194086663E+02  0.39231024245E+02  0.51333631036E+02  0.00000000000E+00 0.  1.
         21    1    1    2  503  502  0.74635796421E+02 -0.44382253950E+02  0.37114277340E+02  0.94433871866E+02  0.00000000000E+00 0. -1.
          1    1    1    2  501    0 -0.11816203287E+02  0.61397024190E+02  0.47971900728E+02  0.78806855659E+02  0.00000000000E+00 0. -1.
<scales pt_clust_5="13000.00000" pt_clust_6="13000.00000" pt_clust_7="13000.00000" pt_clust_8="13000.00000" pt_clust_9="83.28282" pt_clust_10="62.52373"></scales>
<clustering>
<clus scale="   62.524">  2 10  1 -1</clus>
<clus scale="   80.833">  5  6 -1 -1</clus>
<clus scale="   83.283">  2  9  1 -1</clus>
<clus scale="   91.497">  7  8 -1 -1</clus>
<clus scale="  816.621">  1  5  2 -1</clus>
<clus scale="   62.524">  2  5  1 -1</clus>
</clustering>
</event>
<event>
10    4  0.3738096E-005  0.2657177E+03  0.7546771E-02  0.1104353E+00
          2   -1    0    0  503    0 -0.00000000000E+00  0.00000000000E+00  0.22983139814E+03  0.22983139814E+03  0.00000000000E+00 0. -1.
         21   -1    0    0  501  502  0.00000000000E+00 -0.00000000000E+00 -0.80003284436E+03  0.80003284436E+03  0.00000000000E+00 0. -1.
         24    2    1    2    0    0 -0.56135155951E+02  0.28826669561E+03 -0.11647876182E+03  0.32592241898E+03  0.80057964678E+02 0.  0.
         23    2    1    2    0    0  0.18187168299E+03 -0.12077763873E+03 -0.35037541291E+03  0.42305643115E+03  0.92462245685E+02 0.  0.
        -11    1    3    3    0    0 -0.29561854199E+02  0.61106733152E+02 -0.59392947433E+02  0.90196775247E+02  0.00000000000E+00 0.  1.
         12    1    3    3    0    0 -0.26573301752E+02  0.22715996246E+03 -0.57085814383E+02  0.23572564373E+03  0.00000000000E+00 0. -1.
        -13    1    4    4    0    0  0.91167589530E+02 -0.89625255433E+02 -0.26678799940E+03  0.29583788198E+03  0.00000000000E+00 0. -1.
         13    1    4    4    0    0  0.90704093464E+02 -0.31152383293E+02 -0.83587413511E+02  0.12721854917E+03  0.00000000000E+00 0.  1.
         21    1    1    2  503  502  0.17906604255E+02  0.17252415345E+02 -0.21802714941E+02  0.33070389928E+02  0.00000000000E+00 0.  1.
          1    1    1    2  501    0 -0.14364313130E+03 -0.18474147223E+03 -0.81544556552E+02  0.24781500244E+03  0.00000000000E+00 0. -1.
<scales pt_clust_5="13000.00000" pt_clust_6="13000.00000" pt_clust_7="13000.00000" pt_clust_8="13000.00000" pt_clust_9="24.86548" pt_clust_10="228.76988"></scales>
<clustering>
<clus scale="   24.865">  2  9  1 -1</clus>
<clus scale="   80.058">  5  6 -1 -1</clus>
<clus scale="   92.462">  7  8 -1 -1</clus>
<clus scale="  228.770">  2 10  1 -1</clus>
<clus scale="  261.660">  1  5  2 -1</clus>
<clus scale="   24.865">  2  5  1 -1</clus>
</clustering>
</event>
<event>
10    4  0.3738096E-005  0.1218974E+03  0.7546771E-02  0.1244195E+00
          2   -1    0    0  503    0 -0.00000000000E+00  0.00000000000E+00  0.21472672686E+03  0.21472672686E+03  0.00000000000E+00 0. -1.
         21   -1    0    0  501  502  0.00000000000E+00 -0.00000000000E+00 -0.11970775787E+03  0.11970775787E+03  0.00000000000E+00 0.  1.
         24    2    1    2    0    0 -0.25037903135E+02  0.54452592617E+02  0.23448227723E+02  0.10200143084E+03  0.79135902560E+02 0.  0.
         23    2    1    2    0    0 -0.10008361353E+01 -0.10779727358E+03  0.33469724947E+02  0.14603047968E+03  0.92646773519E+02 0.  0.
        -13    1    3    3    0    0  0.18158001407E+02 -0.93020499625E+01 -0.29036098176E+01  0.20607573816E+02  0.00000000000E+00 0.  1.
         14    1    3    3    0    0 -0.43195904541E+02  0.63754642580E+02  0.26351837540E+02  0.81393857025E+02  0.00000000000E+00 0. -1.
        -13    1    4    4    0    0 -0.25352557937E+02 -0.11078314063E+03  0.40270893804E+02  0.12057114634E+03  0.00000000000E+00 0. -1.
         13    1    4    4    0    0  0.24351721802E+02  0.29858670422E+01 -0.68011688571E+01  0.25459333348E+02  0.00000000000E+00 0.  1.
         21    1    1    2  503  502  0.13837244359E+02  0.21603591172E+02  0.44910750988E+02  0.51721949280E+02  0.00000000000E+00 0.  1.
          1    1    1    2  501    0  0.12201494911E+02  0.31741089795E+02 -0.68097346657E+01  0.34680624932E+02  0.00000000000E+00 0. -1.
<scales pt_clust_5="13000.00000" pt_clust_6="13000.00000" pt_clust_7="13000.00000" pt_clust_8="13000.00000" pt_clust_9="25.65511" pt_clust_10="36.11250"></scales>
<clustering>
<clus scale="   25.655">  1  9  2 -1</clus>
<clus scale="   36.112">  2 10  1 -1</clus>
<clus scale="   79.136">  5  6 -1 -1</clus>
<clus scale="   92.647">  7  8 -1 -1</clus>
<clus scale="  111.973">  1  5  2 -1</clus>
<clus scale="   36.112">  2  5  1 -1</clus>
</clustering>
</event>
<event>
10    4  0.3738096E-005  0.3242668E+03  0.7546771E-02  0.1073702E+00
         21   -1    0    0  503  502  0.00000000000E+00  0.00000000000E+00  0.76226644248E+02  0.76226644248E+02  0.00000000000E+00 0.  1.
         -3   -1    0    0    0  501 -0.00000000000E+00 -0.00000000000E+00 -0.13643948070E+04  0.13643948070E+04  0.00000000000E+00 0.  1.
         24    2    1    2    0    0  0.95470275372E+02  0.85954305146E+02 -0.28199545236E+03  0.32067695513E+03  0.82520048122E+02 0.  0.
         23    2    1    2    0    0  0.84408245088E+02  0.10350563577E+03 -0.25896204656E+03  0.30576692814E+03  0.92703313371E+02 0.  0.
        -13    1    3    3    0    0  0.11047105745E+03  0.78043704810E+02 -0.25783028040E+03  0.29115481773E+03  0.00000000000E+00 0.  1.
         14    1    3    3    0    0 -0.15000782076E+02  0.79106003362E+01 -0.24165171964E+02  0.29522137399E+02  0.00000000000E+00 0. -1.
        -13    1    4    4    0    0  0.80983522557E+02  0.62079532530E+02 -0.10549398136E+03  0.14676913636E+03  0.00000000000E+00 0. -1.
         13    1    4    4    0    0  0.34247225308E+01  0.41426103238E+02 -0.15346806520E+03  0.15899779178E+03  0.00000000000E+00 0.  1.
         21    1    1    2  503  501 -0.29046810560E+01  0.30776297189E+02 -0.15463667308E+03  0.15769628500E+03  0.00000000000E+00 0.  1.
         -4    1    1    2    0  502 -0.17697383940E+03 -0.22023623810E+03 -0.59257399079E+03  0.65648128303E+03  0.00000000000E+00 0.  1.
<scales pt_clust_5="13000.00000" pt_clust_6="13000.00000" pt_clust_7="13000.00000" pt_clust_8="13000.00000" pt_clust_9="30.91307" pt_clust_10="271.29959"></scales>
<clustering>
<clus scale="   30.913">  2  9  1 -1</clus>
<clus scale="   82.520">  5  6 -1 -1</clus>
<clus scale="   92.703">  7  8 -1 -1</clus>
<clus scale="   96.884">  5  7 -1 -1</clus>
<clus scale="  271.300">  1 10  2 -1</clus>
<clus scale="  271.300">  1  5  2 -1</clus>
</clustering>
</event>
<event>
10    4  0.3738096E-005  0.1740535E+03  0.7546771E-02  0.1187714E+00
          2   -1    0    0  503    0 -0.00000000000E+00  0.00000000000E+00  0.52309831952E+03  0.52309831952E+03  0.00000000000E+00 0. -1.
         21   -1    0    0  501  502  0.00000000000E+00 -0.00000000000E+00 -0.14587433421E+03  0.14587433421E+03  0.00000000000E+00 0.  1.
         23    2    1    2    0    0 -0.10356284399E+03  0.72268223804E+01  0.22839718029E+03  0.26618801048E+03  0.88956704864E+02 0.  0.
         24    2    1    2    0    0  0.10497551247E+03 -0.14565496352E+03  0.53803384382E+02  0.20485223563E+03  0.82670476315E+02 0.  0.
        -13    1    4    4    0    0  0.10993389160E+03 -0.14107012659E+03  0.31565039674E+02  0.18161110337E+03  0.00000000000E+00 0.  1.
         14    1    4    4    0    0 -0.49583791306E+01 -0.45848369364E+01  0.22238344708E+02  0.23241132259E+02  0.00000000000E+00 0. -1.
        -13    1    3    3    0    0 -0.77160090624E+02  0.36270990173E+02  0.97440882731E+02  0.12947582763E+03  0.00000000000E+00 0.  1.
         13    1    3    3    0    0 -0.26402753365E+02 -0.29044167792E+02  0.13095629756E+03  0.13671218285E+03  0.00000000000E+00 0. -1.
         21    1    1    2  503  502  0.25623607545E+02  0.21164620225E+01  0.41896195396E+02  0.49156280003E+02  0.00000000000E+00 0. -1.
          1    1    1    2  501    0 -0.27036276027E+02  0.13631167912E+03  0.53127225235E+02  0.14877612761E+03  0.00000000000E+00 0. -1.
<scales pt_clust_5="13000.00000" pt_clust_6="13000.00000" pt_clust_7="13000.00000" pt_clust_8="13000.00000" pt_clust_9="25.71087" pt_clust_10="153.16731"></scales>
<clustering>
<clus scale="   25.711">  1  9  2 -1</clus>
<clus scale="   82.670">  5  6 -1 -1</clus>
<clus scale="   88.957">  7  8 -1 -1</clus>
<clus scale="  127.026">  1  7  2 -1</clus>
<clus scale="  153.167">  2 10  1 -1</clus>
<clus scale="  153.167">  2  5  1 -1</clus>
</clustering>
</event>
<event>
10    4  0.3738096E-005  0.3177755E+03  0.7546771E-02  0.1114520E+00
          2   -1    0    0  503    0 -0.00000000000E+00  0.00000000000E+00  0.32185029016E+03  0.32185029016E+03  0.00000000000E+00 0. -1.
         21   -1    0    0  501  502  0.00000000000E+00 -0.00000000000E+00 -0.14896454794E+04  0.14896454794E+04  0.00000000000E+00 0. -1.
         23    2    1    2    0    0  0.54742095396E+02  0.50017791810E+02 -0.15847149674E+03  0.19760579371E+03  0.91849648463E+02 0.  0.
         24    2    1    2    0    0  0.22576920500E+03 -0.11898353497E+03 -0.71988472791E+03  0.76799406658E+03  0.80324649467E+02 0.  0.
        -11    1    4    4    0    0  0.28570441279E+02 -0.25857672878E+02 -0.20879469542E+03  0.21232078136E+03  0.00000000000E+00 0.  1.
         12    1    4    4    0    0  0.19719876372E+03 -0.93125862090E+02 -0.51109003249E+03  0.55567328523E+03  0.00000000000E+00 0. -1.
        -11    1    3    3    0    0  0.58470693013E+02  0.11122790927E+02 -0.37183696682E+02  0.70179524923E+02  0.00000000000E+00 0. -1.
         11    1    3    3    0    0 -0.37285976171E+01  0.38895000883E+02 -0.12128780006E+03  0.12742626879E+03  0.00000000000E+00 0.  1.
         21    1    1    2  503  502  0.54728575432E+02  0.22455610287E+03  0.14705956548E+03  0.27394739660E+03  0.00000000000E+00 0. -1.
          1    1    1    2  501    0 -0.33523987583E+03 -0.15559035971E+03 -0.43649853008E+03  0.57194851267E+03  0.00000000000E+00 0. -1.
<scales pt_clust_5="13000.00000" pt_clust_6="13000.00000" pt_clust_7="13000.00000" pt_clust_8="13000.00000" pt_clust_9="317.77551" pt_clust_10="13000.00000"></scales>
<clustering>
<clus scale="   80.325">  5  6 -1 -1</clus>
<clus scale="   91.850">  7  8 -1 -1</clus>
<clus scale="  118.046">  1  7  2 -1</clus>
<clus scale="  269.510">  1  5  2 -1</clus>
<clus scale="  317.776">  1  9  2 -1</clus>
<clus scale="  317.776">  2  5  1 -1</clus>
</clustering>
</event>
<event>
10    4  0.3738096E-005  0.1543174E+03  0.7546771E-02  0.1197629E+00
         21   -1    0    0  503  502  0.00000000000E+00  0.00000000000E+00  0.14055064113E+03  0.14055064113E+03  0.00000000000E+00 0. -1.
         -1   -1    0    0    0  501 -0.00000000000E+00 -0.00000000000E+00 -0.64522860229E+03  0.64522860229E+03  0.00000000000E+00 0.  1.
         23    2    1    2    0    0  0.34566927410E+02 -0.11394797658E+03 -0.46085742086E+03  0.48501258682E+03  0.93105494877E+02 0.  0.
         24    2    1    2    0    0 -0.51112262535E+02  0.13414094617E+03 -0.48985969512E+02  0.17128185072E+03  0.79571291033E+02 0.  0.
        -13    1    4    4    0    0 -0.21006949315E+02  0.93082771152E+02  0.69111485068E+01  0.95673706830E+02  0.00000000000E+00 0.  1.
         14    1    4    4    0    0 -0.30105313220E+02  0.41058175017E+02 -0.55897118019E+02  0.75608143891E+02  0.00000000000E+00 0. -1.
        -11    1    3    3    0    0  0.15055815740E+02 -0.77146567804E+02 -0.41770541639E+03  0.42503656948E+03  0.00000000000E+00 0.  1.
         11    1    3    3    0    0  0.19511111670E+02 -0.36801408777E+02 -0.43152004464E+02  0.59976017339E+02  0.00000000000E+00 0. -1.
         21    1    1    2  503  501 -0.16926212446E+01 -0.42619068697E+02 -0.50898862565E+02  0.66407410684E+02  0.00000000000E+00 0.  1.
         -2    1    1    2    0  502  0.18237956369E+02  0.22426099109E+02  0.56064291769E+02  0.63077395200E+02  0.00000000000E+00 0.  1.
<scales pt_clust_5="13000.00000" pt_clust_6="13000.00000" pt_clust_7="13000.00000" pt_clust_8="13000.00000" pt_clust_9="40.47168" pt_clust_10="28.90593"></scales>
<clustering>
<clus scale="   28.906">  1 10  2 -1</clus>
<clus scale="   40.472">  1  9  2 -1</clus>
<clus scale="   79.571">  5  6 -1 -1</clus>
<clus scale="   93.105">  7  8 -1 -1</clus>
<clus scale="  146.550">  1  5  2 -1</clus>
<clus scale="   28.906">  1  5  2 -1</clus>
</clustering>
</event>
<event>
10    4  0.3738096E-005  0.1481074E+03  0.7546771E-02  0.1221684E+00
          2   -1    0    0  503    0 -0.00000000000E+00  0.00000000000E+00  0.71105637709E+03  0.71105637709E+03  0.00000000000E+00 0. -1.
         21   -1    0    0  501  502  0.00000000000E+00 -0.00000000000E+00 -0.10253397509E+03  0.10253397509E+03  0.00000000000E+00 0.  1.
         24    2    1    2    0    0 -0.57547500442E+02  0.28954566056E+01 -0.24399230778E+02  0.10206090871E+03  0.80628829504E+02 0.  0.
         23    2    1    2    0    0 -0.82396917060E+02 -0.13916341716E+02  0.34789423062E+03  0.36898416032E+03  0.90199769170E+02 0.  0.
        -11    1    3    3    0    0 -0.67094024504E+02 -0.22252425519E+02 -0.25480929287E+02  0.75140244363E+02  0.00000000000E+00 0.  1.
         12    1    3    3    0    0  0.95465240612E+01  0.25147882124E+02  0.10816985094E+01  0.26920664343E+02  0.00000000000E+00 0. -1.
        -11    1    4    4    0    0 -0.83593848338E+02 -0.38754579071E+02  0.31197426588E+03  0.32529646702E+03  0.00000000000E+00 0. -1.
         11    1    4    4    0    0  0.11969312778E+01  0.24838237355E+02  0.35919964736E+02  0.43687693302E+02  0.00000000000E+00 0.  1.
         21    1    1    2  503  502  0.23964494129E+01  0.47212099685E+02  0.82103066943E+02  0.94739848680E+02  0.00000000000E+00 0. -1.
          1    1    1    2  501    0  0.13754796809E+03 -0.36191214575E+02  0.20292433521E+03  0.24780543448E+03  0.00000000000E+00 0. -1.
<scales pt_clust_5="13000.00000" pt_clust_6="13000.00000" pt_clust_7="13000.00000" pt_clust_8="13000.00000" pt_clust_9="47.27288" pt_clust_10="117.47260"></scales>
<clustering>
<clus scale="   47.273">  1  9  2 -1</clus>
<clus scale="   80.629">  5  6 -1 -1</clus>
<clus scale="   90.200">  7  8 -1 -1</clus>
<clus scale="   99.145">  1  5  2 -1</clus>
<clus scale="  117.473">  2 10  1 -1</clus>
<clus scale="  117.473">  2  5  1 -1</clus>
</clustering>
</event>
<event>
10    4  0.3738096E-005  0.2423084E+03  0.7546771E-02  0.1118937E+00
          2   -1    0    0  503    0 -0.00000000000E+00  0.00000000000E+00  0.18079559057E+04  0.18079559057E+04  0.00000000000E+00 0. -1.
         21   -1    0    0  501  502  0.00000000000E+00 -0.00000000000E+00 -0.15194271764E+03  0.15194271764E+03  0.00000000000E+00 0. -1.
         23    2    1    2    0    0 -0.83030793975E+02 -0.20901535802E+03  0.97569361132E+03  0.10053365362E+04  0.90233005185E+02 0.  0.
         24    2    1    2    0    0  0.11243759806E+02  0.23255163968E+03  0.54643366061E+03  0.59915909100E+03  0.78709488770E+02 0.  0.
        -11    1    4    4    0    0 -0.20978435126E+02  0.12985995949E+03  0.23047632309E+03  0.26537339603E+03  0.00000000000E+00 0.  1.
         12    1    4    4    0    0  0.32222194932E+02  0.10269168020E+03  0.31595733753E+03  0.33378569497E+03  0.00000000000E+00 0. -1.
        -13    1    3    3    0    0 -0.66560144689E+02 -0.14821952368E+03  0.84219293799E+03  0.85772269695E+03  0.00000000000E+00 0. -1.
         13    1    3    3    0    0 -0.16470649286E+02 -0.60795834337E+02  0.13350067333E+03  0.14761383926E+03  0.00000000000E+00 0.  1.
         21    1    1    2  503  502  0.85134463822E+02  0.58881090424E+01  0.23459678955E+03  0.24963613605E+03  0.00000000000E+00 0.  1.
          1    1    1    2  501    0 -0.13347429653E+02 -0.29424390705E+02 -0.10071087347E+03  0.10576686004E+03  0.00000000000E+00 0. -1.
<scales pt_clust_5="13000.00000" pt_clust_6="13000.00000" pt_clust_7="13000.00000" pt_clust_8="13000.00000" pt_clust_9="83.08456" pt_clust_10="32.31019"></scales>
<clustering>
<clus scale="   32.310">  2 10  1 -1</clus>
<clus scale="   78.709">  5  6 -1 -1</clus>
<clus scale="   83.085">  2  9  1 -1</clus>
<clus scale="   90.233">  7  8 -1 -1</clus>
<clus scale="  238.257">  2  5  1 -1</clus>
<clus scale="   32.310">  2  5  1 -1</clus>
</clustering>
</event>
<event>
10    4  0.3738096E-005  0.1074550E+03  0.7546771E-02  0.1268792E+00
         -1   -1    0    0    0  501 -0.00000000000E+00  0.00000000000E+00  0.22347115989E+03  0.22347115989E+03  0.00000000000E+00 0.  1.
         21   -1    0    0  503  502  0.00000000000E+00 -0.00000000000E+00 -0.12274307080E+03  0.12274307080E+03  0.00000000000E+00 0.  1.
         23    2    1    2    0    0 -0.25191642932E+02  0.42557647836E+02  0.66857044572E+02  0.12227300570E+03  0.89638447399E+02 0.  0.
         24    2    1    2    0    0 -0.37715975095E+01 -0.59802904034E+02 -0.86667702824E+00  0.10091245892E+03  0.81190892083E+02 0.  0.
        -11    1    4    4    0    0 -0.30758031031E+02  0.39254140811E+01 -0.57403318216E+01  0.31534374230E+02  0.00000000000E+00 0.  1.
         12    1    4    4    0    0  0.26986433522E+02 -0.63728318115E+02  0.48736547933E+01  0.69378084688E+02  0.00000000000E+00 0. -1.
        -11    1    3    3    0    0  0.26508185754E+01 -0.22729810043E+02  0.40581738047E+02  0.46589146447E+02  0.00000000000E+00 0. -1.
         11    1    3    3    0    0 -0.27842461508E+02  0.65287457879E+02  0.26275306524E+02  0.75683859257E+02  0.00000000000E+00 0.  1.
         21    1    1    2  503  501  0.39748489833E+02  0.51847665311E+02  0.51410624514E+02  0.83133477944E+02  0.00000000000E+00 0.  1.
         -2    1    1    2    0  502 -0.10785249391E+02 -0.34602409113E+02 -0.16672902968E+02  0.39895288121E+02  0.00000000000E+00 0.  1.
<scales pt_clust_5="13000.00000" pt_clust_6="13000.00000" pt_clust_7="13000.00000" pt_clust_8="13000.00000" pt_clust_9="59.65468" pt_clust_10="36.24429"></scales>
<clustering>
<clus scale="   36.244">  2 10  1 -1</clus>
<clus scale="   59.655">  1  9  2 -1</clus>
<clus scale="   81.191">  5  6 -1 -1</clus>
<clus scale="   89.638">  7  8 -1 -1</clus>
<clus scale="  100.516">  2  5  1 -1</clus>
<clus scale="   36.244">  2  5  1 -1</clus>
</clustering>
</event>
<event>
10    4  0.3738096E-005  0.1143411E+03  0.7546771E-02  0.1256400E+00
         21   -1    0    0  501  502  0.00000000000E+00  0.00000000000E+00  0.79341285720E+02  0.79341285720E+02  0.00000000000E+00 0. -1.
          2   -1    0    0  503    0 -0.00000000000E+00 -0.00000000000E+00 -0.74200953911E+03  0.74200953911E+03  0.00000000000E+00 0. -1.
         24    2    1    2    0    0  0.79120995430E+01  0.61876709242E+02 -0.40003581928E+03  0.41283048541E+03  0.80678525706E+02 0.  0.
         23    2    1    2    0    0 -0.13610891474E+02 -0.59666200397E+02 -0.16994397142E+03  0.20224666751E+03  0.90980488358E+02 0.  0.
        -11    1    3    3    0    0 -0.11001280144E+02  0.21662780426E+02 -0.23908389130E+02  0.34086878581E+02  0.00000000000E+00 0.  1.
         12    1    3    3    0    0  0.18913379687E+02  0.40213928816E+02 -0.37612743015E+03  0.37874360683E+03  0.00000000000E+00 0. -1.
        -11    1    4    4    0    0 -0.44126202130E+02 -0.16294222055E+02 -0.39460421457E+02  0.61398275615E+02  0.00000000000E+00 0. -1.
         11    1    4    4    0    0  0.30515310656E+02 -0.43371978341E+02 -0.13048354996E+03  0.14084839190E+03  0.00000000000E+00 0.  1.
         21    1    1    2  503  502 -0.10986408363E+02  0.24079459037E+02 -0.14391363625E+03  0.14632722308E+03  0.00000000000E+00 0. -1.
          1    1    1    2  501    0  0.16685200294E+02 -0.26289967882E+02  0.51225173562E+02  0.59946448823E+02  0.00000000000E+00 0. -1.
<scales pt_clust_5="13000.00000" pt_clust_6="13000.00000" pt_clust_7="13000.00000" pt_clust_8="13000.00000" pt_clust_9="26.46737" pt_clust_10="30.94621"></scales>
<clustering>
<clus scale="   26.467">  2  9  1 -1</clus>
<clus scale="   30.946">  1 10  2 -1</clus>
<clus scale="   80.679">  5  6 -1 -1</clus>
<clus scale="   90.980">  7  8 -1 -1</clus>
<clus scale="  106.327">  2  5  1 -1</clus>
<clus scale="   30.946">  1  5  2 -1</clus>
</clustering>
</event>
<event>
10    4  0.3738096E-005  0.9969445E+02  0.7546771E-02  0.1287057E+00
         21   -1    0    0  501  502  0.00000000000E+00  0.00000000000E+00  0.39728439864E+03  0.39728439864E+03  0.00000000000E+00 0. -1.
          2   -1    0    0  503    0 -0.00000000000E+00 -0.00000000000E+00 -0.43119422040E+03  0.43119422040E+03  0.00000000000E+00 0. -1.
         23    2    1    2    0    0  0.34229186021E+02  0.80299290483E+02 -0.15641148594E+03  0.20132031830E+03  0.91900513592E+02 0.  0.
         24    2    1    2    0    0 -0.21608958373E+02 -0.58999855569E+02  0.11846305952E+03  0.15612300471E+03  0.79956025977E+02 0.  0.
        -11    1    4    4    0    0  0.23258981312E+02  0.27974957845E+01  0.41778940906E+02  0.47898706638E+02  0.00000000000E+00 0.  1.
         12    1    4    4    0    0 -0.44867939685E+02 -0.61797351354E+02  0.76684118616E+02  0.10822429807E+03  0.00000000000E+00 0. -1.
        -11    1    3    3    0    0 -0.23993136869E+02  0.56398442493E+02 -0.97187877674E+02  0.11489968886E+03  0.00000000000E+00 0.  1.
         11    1    3    3    0    0  0.58222322890E+02  0.23900847990E+02 -0.59223608269E+02  0.86420629445E+02  0.00000000000E+00 0. -1.
         21    1    1    2  503  502 -0.30114654420E+02 -0.51832936886E+02 -0.22830397722E+03  0.23604290240E+03  0.00000000000E+00 0.  1.
          1    1    1    2  501    0  0.17494426772E+02  0.30533501972E+02  0.23234258188E+03  0.23499239363E+03  0.00000000000E+00 0. -1.
<scales pt_clust_5="13000.00000" pt_clust_6="13000.00000" pt_clust_7="13000.00000" pt_clust_8="13000.00000" pt_clust_9="59.11397" pt_clust_10="35.19019"></scales>
<clustering>
<clus scale="   35.190">  1 10  2 -1</clus>
<clus scale="   59.114">  2  9  1 -1</clus>
<clus scale="   79.956">  5  6 -1 -1</clus>
<clus scale="   88.805">  1  5  2 -1</clus>
<clus scale="   91.901">  7  8 -1 -1</clus>
<clus scale="   35.190">  1  5  2 -1</clus>
</clustering>
</event>
<event>
10    4  0.3738096E-005  0.1038429E+03  0.7546771E-02  0.1273323E+00
          2   -1    0    0  502    0 -0.00000000000E+00  0.00000000000E+00  0.25542163732E+03  0.25542163732E+03  0.00000000000E+00 0. -1.
         21   -1    0    0  503  502  0.00000000000E+00 -0.00000000000E+00 -0.18661411171E+03  0.18661411171E+03  0.00000000000E+00 0.  1.
         23    2    1    2    0    0  0.66752479232E+02 -0.28959435075E+01  0.96077653223E+02  0.14374574492E+03  0.83472413180E+02 0.  0.
         24    2    1    2    0    0 -0.32698777273E+02 -0.37969697491E+01 -0.12424764680E+03  0.15204818584E+03  0.81225279742E+02 0.  0.
        -13    1    4    4    0    0 -0.27242556322E+02 -0.20315382420E+02 -0.12949332872E+03  0.13387827987E+03  0.00000000000E+00 0.  1.
         14    1    4    4    0    0 -0.54562209512E+01  0.16518412671E+02  0.52456819230E+01  0.18169905973E+02  0.00000000000E+00 0. -1.
        -11    1    3    3    0    0  0.36637344809E+02 -0.38548313644E+02  0.76424307096E+02  0.93107154583E+02  0.00000000000E+00 0.  1.
         11    1    3    3    0    0  0.30115134423E+02  0.35652370136E+02  0.19653346128E+02  0.50638590340E+02  0.00000000000E+00 0. -1.
         21    1    1    2  503  501  0.58110147491E+01 -0.23750864349E+02 -0.11280347674E+02  0.26928009459E+02  0.00000000000E+00 0. -1.
          1    1    1    2  501    0 -0.39864716708E+02  0.30443777606E+02  0.10825786686E+03  0.11931380880E+03  0.00000000000E+00 0. -1.
<scales pt_clust_5="13000.00000" pt_clust_6="13000.00000" pt_clust_7="13000.00000" pt_clust_8="13000.00000" pt_clust_9="24.45141" pt_clust_10="49.53443"></scales>
<clustering>
<clus scale="   24.451">  2  9  1 -1</clus>
<clus scale="   49.534">  2 10  1 -1</clus>
<clus scale="   81.225">  5  6 -1 -1</clus>
<clus scale="   83.472">  7  8 -1 -1</clus>
<clus scale="  102.045">  2  5  1 -1</clus>
<clus scale="   24.451">  2  5  1 -1</clus>
</clustering>
</event>
<event>
10    4  0.3738096E-005  0.2974890E+03  0.7546771E-02  0.1097306E+00
         21   -1    0    0  503  502  0.00000000000E+00  0.00000000000E+00  0.47392232864E+03  0.47392232864E+03  0.00000000000E+00 0. -1.
          2   -1    0    0  502    0 -0.00000000000E+00 -0.00000000000E+00 -0.16582578468E+04  0.16582578468E+04  0.00000000000E+00 0. -1.
         24    2    1    2    0    0  0.19426539895E+03  0.76615939746E+02  0.35400328690E+02  0.22659188845E+03  0.80508714973E+02 0.  0.
         23    2    1    2    0    0 -0.18263019876E+03  0.25232616874E+03 -0.12702434588E+04  0.13111401337E+04  0.92453884699E+02 0.  0.
        -13    1    3    3    0    0  0.63378442926E+02 -0.90515483609E+01 -0.73063508614E+01  0.64437103584E+02  0.00000000000E+00 0.  1.
         14    1    3    3    0    0  0.13088695602E+03  0.85667488107E+02  0.42706679551E+02  0.16215478486E+03  0.00000000000E+00 0. -1.
        -11    1    4    4    0    0 -0.85014819031E+01  0.77372580917E+02 -0.32643893173E+03  0.33559077404E+03  0.00000000000E+00 0.  1.
         11    1    4    4    0    0 -0.17412871685E+03  0.17495358782E+03 -0.94380452706E+03  0.97554935970E+03  0.00000000000E+00 0. -1.
         21    1    1    2  503  501 -0.25154123638E+03 -0.14992124917E+03  0.18740340297E+02  0.29342899466E+03  0.00000000000E+00 0. -1.
          1    1    1    2  501    0  0.23990603619E+03 -0.17902085931E+03  0.31767271673E+02  0.30101915856E+03  0.00000000000E+00 0. -1.
<scales pt_clust_5="13000.00000" pt_clust_6="13000.00000" pt_clust_7="13000.00000" pt_clust_8="13000.00000" pt_clust_9="274.73151" pt_clust_10="282.75784"></scales>
<clustering>
<clus scale="   80.509">  5  6 -1 -1</clus>
<clus scale="   92.454">  7  8 -1 -1</clus>
<clus scale="  223.810">  2  5  1 -1</clus>
<clus scale="  274.732">  1  9  2 -1</clus>
<clus scale="  282.758">  1 10  2 -1</clus>
<clus scale="  274.732">  1  5  2 -1</clus>
</clustering>
</event>
<event>
10    4  0.3738096E-005  0.2935317E+03  0.7546771E-02  0.1088830E+00
         21   -1    0    0  501  502  0.00000000000E+00  0.00000000000E+00  0.20438738761E+03  0.20438738761E+03  0.00000000000E+00 0. -1.
          2   -1    0    0  503    0 -0.00000000000E+00 -0.00000000000E+00 -0.15133937246E+04  0.15133937246E+04  0.00000000000E+00 0. -1.
         23    2    1    2    0    0 -0.36149515996E+03 -0.14046571540E+03 -0.45322612691E+03  0.60336002718E+03  0.90664394340E+02 0.  0.
         24    2    1    2    0    0  0.18258523850E+03  0.73558273882E+02 -0.84002000428E+02  0.22938487355E+03  0.82540263887E+02 0.  0.
        -11    1    4    4    0    0  0.12905874698E+03  0.90022355274E+02 -0.64952583764E+02  0.17023226121E+03  0.00000000000E+00 0.  1.
         12    1    4    4    0    0  0.53526491520E+02 -0.16464081392E+02 -0.19049416664E+02  0.59152612332E+02  0.00000000000E+00 0. -1.
        -13    1    3    3    0    0 -0.13021222642E+03 -0.86334912645E+02 -0.13653099167E+03  0.20748410237E+03  0.00000000000E+00 0.  1.
         13    1    3    3    0    0 -0.23128293353E+03 -0.54130802757E+02 -0.31669513524E+03  0.39587592480E+03  0.00000000000E+00 0. -1.
         21    1    1    2  503  502  0.87037878454E+02  0.43073780217E+02 -0.78341601744E+03  0.78941218588E+03  0.00000000000E+00 0. -1.
          1    1    1    2  501    0  0.91872043005E+02  0.23833661303E+02  0.11637807823E+02  0.95624025579E+02  0.00000000000E+00 0. -1.
<scales pt_clust_5="13000.00000" pt_clust_6="13000.00000" pt_clust_7="13000.00000" pt_clust_8="13000.00000" pt_clust_9="98.96152" pt_clust_10="94.91320"></scales>
<clustering>
<clus scale="   82.540">  5  6 -1 -1</clus>
<clus scale="   90.664">  7  8 -1 -1</clus>
<clus scale="   94.913">  1 10  2 -1</clus>
<clus scale="   98.962">  2  9  1 -1</clus>
<clus scale="  291.125">  1  5  2 -1</clus>
<clus scale="   94.913">  1  5  2 -1</clus>
</clustering>
</event>
<event>
10    4  0.3738096E-005  0.1095330E+03  0.7546771E-02  0.1265627E+00
         21   -1    0    0  501  502  0.00000000000E+00  0.00000000000E+00  0.10028440337E+03  0.10028440337E+03  0.00000000000E+00 0.  1.
          2   -1    0    0  503    0 -0.00000000000E+00 -0.00000000000E+00 -0.32058020193E+03  0.32058020193E+03  0.00000000000E+00 0. -1.
         23    2    1    2    0    0  0.25585583495E+02 -0.57653847536E+02 -0.20219173809E+03  0.23085355471E+03  0.91832872919E+02 0.  0.
         24    2    1    2    0    0 -0.16549578947E+02  0.38516571572E+02  0.25244043763E+02  0.94951551199E+02  0.81370267793E+02 0.  0.
        -13    1    4    4    0    0  0.14905595879E+02  0.41452308828E+02  0.40526795970E+02  0.59857262611E+02  0.00000000000E+00 0.  1.
         14    1    4    4    0    0 -0.31455174826E+02 -0.29357372557E+01 -0.15282752207E+02  0.35094288589E+02  0.00000000000E+00 0. -1.
        -11    1    3    3    0    0  0.32474431633E+02  0.16525997603E+02 -0.56729374606E+02  0.67423432498E+02  0.00000000000E+00 0.  1.
         11    1    3    3    0    0 -0.68888481372E+01 -0.74179845139E+02 -0.14546236349E+03  0.16343012221E+03  0.00000000000E+00 0. -1.
         21    1    1    2  503  502 -0.37484461198E+02 -0.13804380128E+02 -0.28503015681E+02  0.49072065831E+02  0.00000000000E+00 0. -1.
          1    1    1    2  501    0  0.28448456649E+02  0.32941656092E+02 -0.14845088549E+02  0.45987433565E+02  0.00000000000E+00 0. -1.
<scales pt_clust_5="13000.00000" pt_clust_6="13000.00000" pt_clust_7="13000.00000" pt_clust_8="13000.00000" pt_clust_9="39.94553" pt_clust_10="39.80809"></scales>
<clustering>
<clus scale="   39.946">  2  9  1 -1</clus>
<clus scale="   39.808">  1 10  2 -1</clus>
<clus scale="   81.370">  5  6 -1 -1</clus>
<clus scale="   91.833">  7  8 -1 -1</clus>
<clus scale="  100.922">  1  5  2 -1</clus>
<clus scale="   39.808">  1  5  2 -1</clus>
</clustering>
</event>
<event>
10    4  0.3738096E-005  0.2121719E+03  0.7546771E-02  0.1150062E+00
         21   -1    0    0  501  502  0.00000000000E+00  0.00000000000E+00  0.44213770316E+03  0.44213770316E+03  0.00000000000E+00 0. -1.
          2   -1    0    0  503    0 -0.00000000000E+00 -0.00000000000E+00 -0.38938740817E+03  0.38938740817E+03  0.00000000000E+00 0. -1.
         23    2    1    2    0    0 -0.16053095461E+03 -0.80361619798E+01 -0.89703879641E+02  0.21536903008E+03  0.11181353142E+03 0.  0.
         24    2    1    2    0    0  0.41717710911E+02  0.20325740276E+03  0.22159114341E+03  0.31409046494E+03  0.80599293727E+02 0.  0.
        -11    1    4    4    0    0  0.36184126493E+02  0.67607323105E+02  0.12793979080E+03  0.14915975066E+03  0.00000000000E+00 0.  1.
         12    1    4    4    0    0  0.55335844174E+01  0.13565007966E+03  0.93651352607E+02  0.16493071428E+03  0.00000000000E+00 0. -1.
        -11    1    3    3    0    0 -0.16848771178E+03  0.16879404037E+02 -0.73451365874E+02  0.18457553047E+03  0.00000000000E+00 0.  1.
         11    1    3    3    0    0  0.79567571648E+01 -0.24915566017E+02 -0.16252513767E+02  0.30793499610E+02  0.00000000000E+00 0. -1.
         21    1    1    2  503  502  0.72728748863E+02 -0.13562259192E+02 -0.87352700298E+02  0.11447226754E+03  0.00000000000E+00 0. -1.
          1    1    1    2  501    0  0.46084494840E+02 -0.18165898159E+03  0.82157315157E+01  0.18759334877E+03  0.00000000000E+00 0. -1.
<scales pt_clust_5="13000.00000" pt_clust_6="13000.00000" pt_clust_7="13000.00000" pt_clust_8="13000.00000" pt_clust_9="73.98247" pt_clust_10="196.26695"></scales>
<clustering>
<clus scale="   73.982">  2  9  1 -1</clus>
<clus scale="   80.599">  5  6 -1 -1</clus>
<clus scale="  111.814">  7  8 -1 -1</clus>
<clus scale="  166.240">  2  7  1 -1</clus>
<clus scale="  196.267">  1 10  2 -1</clus>
<clus scale="  196.267">  1  5  2 -1</clus>
</clustering>
</event>
<event>
10    4  0.3738096E-005  0.1133034E+03  0.7546771E-02  0.1259367E+00
         21   -1    0    0  503  502  0.00000000000E+00  0.00000000000E+00  0.93054827816E+03  0.93054827816E+03  0.00000000000E+00 0. -1.
         -3   -1    0    0    0  501 -0.00000000000E+00 -0.00000000000E+00 -0.49346725876E+02  0.49346725876E+02  0.00000000000E+00 0.  1.
         23    2    1    2    0    0  0.19605418632E+02 -0.43360754558E+02  0.62124926739E+02  0.12081631946E+03  0.92046450501E+02 0.  0.
         24    2    1    2    0    0  0.30888425056E+02  0.53838302412E+02  0.45865282055E+03  0.46954456069E+03  0.79101372060E+02 0.  0.
        -11    1    4    4    0    0 -0.20809765196E+02 -0.57516687641E+01  0.91697303045E+02  0.94204688880E+02  0.00000000000E+00 0.  1.
         12    1    4    4    0    0  0.51698190252E+02  0.59589971176E+02  0.36695551750E+03  0.37533987181E+03  0.00000000000E+00 0. -1.
        -11    1    3    3    0    0 -0.25462449413E+02 -0.16594638597E+02 -0.96959596499E+01  0.31901880725E+02  0.00000000000E+00 0. -1.
         11    1    3    3    0    0  0.45067868045E+02 -0.26766115961E+02  0.71820886389E+02  0.88914438735E+02  0.00000000000E+00 0.  1.
         21    1    1    2  503  501  0.29983099530E+01 -0.34879248762E+02  0.13272973238E+02  0.37439600363E+02  0.00000000000E+00 0.  1.
         -4    1    1    2    0  502 -0.53492153641E+02  0.24401700908E+02  0.34715083175E+03  0.35209452352E+03  0.00000000000E+00 0.  1.
<scales pt_clust_5="13000.00000" pt_clust_6="13000.00000" pt_clust_7="13000.00000" pt_clust_8="13000.00000" pt_clust_9="35.00788" pt_clust_10="57.68927"></scales>
<clustering>
<clus scale="   35.008">  2  9  1 -1</clus>
<clus scale="   57.689">  1 10  2 -1</clus>
<clus scale="   79.101">  5  6 -1 -1</clus>
<clus scale="   92.046">  7  8 -1 -1</clus>
<clus scale="  103.064">  1  5  2 -1</clus>
<clus scale="   57.689">  1  5  2 -1</clus>
</clustering>
</event>
<event>
10    4  0.3738096E-005  0.1229170E+03  0.7546771E-02  0.1241452E+00
         21   -1    0    0  503  502  0.00000000000E+00  0.00000000000E+00  0.11055009557E+03  0.11055009557E+03  0.00000000000E+00 0.  1.
         -3   -1    0    0    0  501 -0.00000000000E+00 -0.00000000000E+00 -0.53016727440E+03  0.53016727440E+03  0.00000000000E+00 0.  1.
         24    2    1    2    0    0  0.32999238036E+02  0.63765067855E+02 -0.12664273902E+03  0.16586891839E+03  0.79493277408E+02 0.  0.
         23    2    1    2    0    0 -0.12719968108E+03 -0.99493404976E+01 -0.75609360809E+02  0.17348685303E+03  0.90012024140E+02 0.  0.
        -13    1    3    3    0    0  0.40979250060E+02  0.74196256413E+02 -0.12705029113E+03  0.15272904071E+03  0.00000000000E+00 0.  1.
         14    1    3    3    0    0 -0.79800120235E+01 -0.10431188558E+02  0.40755211327E+00  0.13139877677E+02  0.00000000000E+00 0. -1.
        -11    1    4    4    0    0 -0.27025173516E+02  0.36750603847E+02 -0.21795946471E+02  0.50557197007E+02  0.00000000000E+00 0. -1.
         11    1    4    4    0    0 -0.10017450756E+03 -0.46699944345E+02 -0.53813414338E+02  0.12292965602E+03  0.00000000000E+00 0.  1.
         21    1    1    2  503  501  0.44609529884E+02 -0.32443529734E+02 -0.23743067537E+03  0.24375380691E+03  0.00000000000E+00 0.  1.
         -4    1    1    2    0  502  0.49590913159E+02 -0.21372197623E+02  0.20065596362E+02  0.57607791630E+02  0.00000000000E+00 0.  1.
<scales pt_clust_5="13000.00000" pt_clust_6="13000.00000" pt_clust_7="13000.00000" pt_clust_8="13000.00000" pt_clust_9="57.48439" pt_clust_10="54.00027"></scales>
<clustering>
<clus scale="   54.000">  1 10  2 -1</clus>
<clus scale="   57.484">  2  9  1 -1</clus>
<clus scale="   79.493">  5  6 -1 -1</clus>
<clus scale="   90.012">  7  8 -1 -1</clus>
<clus scale="  115.437">  2  5  1 -1</clus>
<clus scale="   54.000">  1  5  2 -1</clus>
</clustering>
</event>
<event>
10    4  0.3738096E-005  0.1331258E+03  0.7546771E-02  0.1224898E+00
          4   -1    0    0  503    0 -0.00000000000E+00  0.00000000000E+00  0.25220656595E+03  0.25220656595E+03  0.00000000000E+00 0. -1.
         21   -1    0    0  501  502  0.00000000000E+00 -0.00000000000E+00 -0.25709396833E+03  0.25709396833E+03  0.00000000000E+00 0.  1.
         24    2    1    2    0    0 -0.27134288140E+02  0.75347382684E+02  0.14419805948E+03  0.18425012971E+03  0.82106834490E+02 0.  0.
         23    2    1    2    0    0  0.99943841314E+02 -0.95146957737E+02 -0.15282491962E+03  0.22486210597E+03  0.90364792161E+02 0.  0.
        -11    1    3    3    0    0  0.31918885396E+01  0.33464693831E+02  0.28459514808E+01  0.33736824473E+02  0.00000000000E+00 0.  1.
         12    1    3    3    0    0 -0.30326176680E+02  0.41882688853E+02  0.14135210800E+03  0.15051330524E+03  0.00000000000E+00 0. -1.
        -11    1    4    4    0    0  0.11014014472E+03 -0.61902503550E+02 -0.97812842436E+02  0.15978148694E+03  0.00000000000E+00 0.  1.
         11    1    4    4    0    0 -0.10196303404E+02 -0.33244454187E+02 -0.55012077182E+02  0.65080619028E+02  0.00000000000E+00 0. -1.
         21    1    1    2  503  502 -0.10428622845E+01  0.20728088815E+02  0.17452903273E+02  0.27117246548E+02  0.00000000000E+00 0.  1.
          3    1    1    2  501    0 -0.71766690889E+02 -0.92851376220E+00 -0.13713445516E+02  0.73071052045E+02  0.00000000000E+00 0. -1.
<scales pt_clust_5="13000.00000" pt_clust_6="13000.00000" pt_clust_7="13000.00000" pt_clust_8="13000.00000" pt_clust_9="20.75431" pt_clust_10="71.92253"></scales>
<clustering>
<clus scale="   20.754">  1  9  2 -1</clus>
<clus scale="   71.923">  2 10  1 -1</clus>
<clus scale="   82.107">  5  6 -1 -1</clus>
<clus scale="   90.365">  7  8 -1 -1</clus>
<clus scale="  127.664">  1  5  2 -1</clus>
<clus scale="   71.923">  2  5  1 -1</clus>
</clustering>
</event>
<event>
10    4  0.3738096E-005  0.9464750E+02  0.7546771E-02  0.1294136E+00
         21   -1    0    0  503  502  0.00000000000E+00  0.00000000000E+00  0.63858823691E+02  0.63858823691E+02  0.00000000000E+00 0.  1.
         -1   -1    0    0    0  501 -0.00000000000E+00 -0.00000000000E+00 -0.57334595014E+03  0.57334595014E+03  0.00000000000E+00 0.  1.
         24    2    1    2    0    0  0.28940791503E+01  0.25693474440E+02 -0.10146980896E+03  0.13730689051E+03  0.88817395416E+02 0.  0.
         23    2    1    2    0    0 -0.60646765986E+01 -0.41077808463E+01 -0.22893856967E+02  0.95710213577E+02  0.92642658265E+02 0.  0.
        -11    1    3    3    0    0  0.44619007851E+02  0.28623051603E+01 -0.54018117742E+02  0.70121364054E+02  0.00000000000E+00 0.  1.
         12    1    3    3    0    0 -0.41724928701E+02  0.22831169279E+02 -0.47451691220E+02  0.67185526458E+02  0.00000000000E+00 0. -1.
        -13    1    4    4    0    0 -0.45238608366E+02  0.76926024705E+01 -0.29088967786E+02  0.54331168462E+02  0.00000000000E+00 0.  1.
         13    1    4    4    0    0  0.39173931767E+02 -0.11800383317E+02  0.61951108195E+01  0.41379045114E+02  0.00000000000E+00 0. -1.
         21    1    1    2  503  501  0.59522756865E+02 -0.27031069662E+02 -0.22744392773E+03  0.23665244045E+03  0.00000000000E+00 0. -1.
         -2    1    1    2    0  502 -0.56352159416E+02  0.54453760685E+01 -0.15767953280E+03  0.16753522929E+03  0.00000000000E+00 0.  1.
<scales pt_clust_5="13000.00000" pt_clust_6="13000.00000" pt_clust_7="13000.00000" pt_clust_8="13000.00000" pt_clust_9="61.20516" pt_clust_10="56.61467"></scales>
<clustering>
<clus scale="   56.615">  1 10  2 -1</clus>
<clus scale="   61.205">  2  9  1 -1</clus>
<clus scale="   88.817">  5  6 -1 -1</clus>
<clus scale="   90.907">  2  5  1 -1</clus>
<clus scale="   92.643">  7  8 -1 -1</clus>
<clus scale="   56.615">  1  5  2 -1</clus>
</clustering>
</event>
<event>
10    4  0.3738096E-005  0.1214679E+03  0.7546771E-02  0.1241368E+00
         21   -1    0    0  501  502  0.00000000000E+00  0.00000000000E+00  0.88436363192E+02  0.88436363192E+02  0.00000000000E+00 0.  1.
          2   -1    0    0  503    0 -0.00000000000E+00 -0.00000000000E+00 -0.80217953764E+03  0.80217953764E+03  0.00000000000E+00 0. -1.
         23    2    1    2    0    0  0.65589562334E+02 -0.26193607060E+02 -0.25071354055E+03  0.27530366643E+03  0.89144453515E+02 0.  0.
         24    2    1    2    0    0 -0.16801916964E+02  0.11740544691E+03 -0.42191603107E+02  0.15553211409E+03  0.91344204859E+02 0.  0.
        -11    1    4    4    0    0  0.30028723356E+02  0.85714511384E+02 -0.39160269065E+02  0.98905148307E+02  0.00000000000E+00 0.  1.
         12    1    4    4    0    0 -0.46830640320E+02  0.31690935529E+02 -0.30313340418E+01  0.56626965781E+02  0.00000000000E+00 0. -1.
        -13    1    3    3    0    0 -0.38484061416E+01 -0.34974613509E+02 -0.13974278046E+03  0.14410440143E+03  0.00000000000E+00 0.  1.
         13    1    3    3    0    0  0.69437968476E+02  0.87810064491E+01 -0.11097076009E+03  0.13119926499E+03  0.00000000000E+00 0. -1.
         21    1    1    2  503  502  0.46226864279E+02  0.80140850517E+01 -0.88513909541E+02  0.10017914315E+03  0.00000000000E+00 0. -1.
          1    1    1    2  501    0 -0.95014509648E+02 -0.99225924906E+02 -0.33232412124E+03  0.35960097716E+03  0.00000000000E+00 0. -1.
<scales pt_clust_5="13000.00000" pt_clust_6="13000.00000" pt_clust_7="13000.00000" pt_clust_8="13000.00000" pt_clust_9="46.91640" pt_clust_10="119.70188"></scales>
<clustering>
<clus scale="   46.916">  2  9  1 -1</clus>
<clus scale="   89.144">  7  8 -1 -1</clus>
<clus scale="   91.344">  5  6 -1 -1</clus>
<clus scale="  119.702">  1 10  2 -1</clus>
<clus scale="  119.822">  2  7  1 -1</clus>
<clus scale="  119.702">  1  5  2 -1</clus>
</clustering>
</event>
<event>
10    4  0.3738096E-005  0.8997242E+02  0.7546771E-02  0.1306236E+00
          2   -1    0    0  503    0 -0.00000000000E+00  0.00000000000E+00  0.77241479200E+02  0.77241479200E+02  0.00000000000E+00 0. -1.
         21   -1    0    0  501  502  0.00000000000E+00 -0.00000000000E+00 -0.32862644964E+03  0.32862644964E+03  0.00000000000E+00 0. -1.
         23    2    1    2    0    0 -0.30067517039E+02  0.43925168514E+02 -0.54653041384E+01  0.10167684482E+03  0.86457129337E+02 0.  0.
         24    2    1    2    0    0  0.32441405931E+02  0.64338914474E+01 -0.12148781867E+03  0.14967363996E+03  0.80926316099E+02 0.  0.
        -13    1    4    4    0    0 -0.24689385376E+02 -0.73729104972E+01 -0.20919785168E+02  0.33189802213E+02  0.00000000000E+00 0.  1.
         14    1    4    4    0    0  0.57130791306E+02  0.13806801945E+02 -0.10056803350E+03  0.11648383775E+03  0.00000000000E+00 0. -1.
        -11    1    3    3    0    0  0.98035335678E+01  0.22393023221E+02  0.33803030187E+02  0.41715723765E+02  0.00000000000E+00 0. -1.
         11    1    3    3    0    0 -0.39871050607E+02  0.21532145293E+02 -0.39268334325E+02  0.59961121054E+02  0.00000000000E+00 0.  1.
         21    1    1    2  503  502  0.30850882654E+02 -0.24415634067E+02 -0.25249188650E+02  0.46748493825E+02  0.00000000000E+00 0. -1.
          1    1    1    2  501    0 -0.33224771546E+02 -0.25943425894E+02 -0.99182658985E+02  0.10776895023E+03  0.00000000000E+00 0. -1.
<scales pt_clust_5="13000.00000" pt_clust_6="13000.00000" pt_clust_7="13000.00000" pt_clust_8="13000.00000" pt_clust_9="39.34336" pt_clust_10="41.62731"></scales>
<clustering>
<clus scale="   39.343">  1  9  2 -1</clus>
<clus scale="   41.627">  2 10  1 -1</clus>
<clus scale="   80.926">  5  6 -1 -1</clus>
<clus scale="   84.672">  2  5  1 -1</clus>
<clus scale="   86.457">  7  8 -1 -1</clus>
<clus scale="   41.627">  2  5  1 -1</clus>
</clustering>
</event>
<event>
10    4  0.3738096E-005  0.9787504E+02  0.7546771E-02  0.1290164E+00
          2   -1    0    0  503    0 -0.00000000000E+00  0.00000000000E+00  0.15949117562E+04  0.15949117562E+04  0.00000000000E+00 0. -1.
         21   -1    0    0  501  502  0.00000000000E+00 -0.00000000000E+00 -0.95962906163E+02  0.95962906163E+02  0.00000000000E+00 0. -1.
         24    2    1    2    0    0  0.26956575239E+02  0.70414845588E+02  0.13200034588E+04  0.13246642096E+04  0.81493738621E+02 0.  0.
         23    2    1    2    0    0 -0.24049563039E+02  0.81914590574E+01 -0.55184519151E+02  0.10988020381E+03  0.91557886340E+02 0.  0.
        -13    1    3    3    0    0  0.22203313832E+02  0.52683378814E+00  0.91185518749E+02  0.93851284107E+02  0.00000000000E+00 0.  1.
         14    1    3    3    0    0  0.47532614067E+01  0.69888011799E+02  0.12288179401E+04  0.12308129255E+04  0.00000000000E+00 0. -1.
        -13    1    4    4    0    0 -0.14354917772E+02 -0.18776319209E+02  0.19017810903E+02  0.30336297711E+02  0.00000000000E+00 0.  1.
         13    1    4    4    0    0 -0.96946452668E+01  0.26967778266E+02 -0.74202330055E+02  0.79543906096E+02  0.00000000000E+00 0. -1.
         21    1    1    2  503  502 -0.22068706944E+02 -0.36813570007E+02  0.18122907984E+03  0.18624243915E+03  0.00000000000E+00 0. -1.
          1    1    1    2  501    0  0.19161694744E+02 -0.41792734638E+02  0.52900830532E+02  0.70087809818E+02  0.00000000000E+00 0. -1.
<scales pt_clust_5="13000.00000" pt_clust_6="13000.00000" pt_clust_7="13000.00000" pt_clust_8="13000.00000" pt_clust_9="42.92164" pt_clust_10="47.05885"></scales>
<clustering>
<clus scale="   42.922">  1  9  2 -1</clus>
<clus scale="   47.059">  2 10  1 -1</clus>
<clus scale="   81.494">  5  6 -1 -1</clus>
<clus scale="   88.532">  1  5  2 -1</clus>
<clus scale="   91.558">  7  8 -1 -1</clus>
<clus scale="   47.059">  2  5  1 -1</clus>
</clustering>
</event>
<event>
10    4  0.3738096E-005  0.2067978E+03  0.7546771E-02  0.1145349E+00
          2   -1    0    0  503    0 -0.00000000000E+00  0.00000000000E+00  0.45554721318E+03  0.45554721318E+03  0.00000000000E+00 0. -1.
         21   -1    0    0  501  502  0.00000000000E+00 -0.00000000000E+00 -0.35403684184E+03  0.35403684184E+03  0.00000000000E+00 0. -1.
         23    2    1    2    0    0 -0.61934105922E+02  0.17502362392E+03  0.26863384909E+03  0.33903802477E+03  0.91178588246E+02 0.  0.
         24    2    1    2    0    0  0.14925242819E+03 -0.89521833476E+02 -0.19584399806E+03  0.27300307291E+03  0.76716101665E+02 0.  0.
        -13    1    4    4    0    0  0.81150187595E+02 -0.82048121115E+02 -0.87530466528E+02  0.14484070455E+03  0.00000000000E+00 0.  1.
         14    1    4    4    0    0  0.68102240595E+02 -0.74737123607E+01 -0.10831353153E+03  0.12816236836E+03  0.00000000000E+00 0. -1.
        -11    1    3    3    0    0 -0.69040794512E+02  0.13866150241E+03  0.25723807828E+03  0.30027499475E+03  0.00000000000E+00 0. -1.
         11    1    3    3    0    0  0.71066885906E+01  0.36362121510E+02  0.11395770811E+02  0.38763030014E+02  0.00000000000E+00 0.  1.
         21    1    1    2  503  502 -0.77886296655E+02 -0.40380086155E+02  0.86786000925E+02  0.12340436184E+03  0.00000000000E+00 0. -1.
          1    1    1    2  501    0 -0.94320256138E+01 -0.45121704286E+02 -0.58065480617E+02  0.74138595509E+02  0.00000000000E+00 0. -1.
<scales pt_clust_5="13000.00000" pt_clust_6="13000.00000" pt_clust_7="13000.00000" pt_clust_8="13000.00000" pt_clust_9="89.61340" pt_clust_10="46.09698"></scales>
<clustering>
<clus scale="   46.097">  2 10  1 -1</clus>
<clus scale="   76.716">  5  6 -1 -1</clus>
<clus scale="   89.613">  1  9  2 -1</clus>
<clus scale="   91.179">  7  8 -1 -1</clus>
<clus scale="  200.841">  2  5  1 -1</clus>
<clus scale="   46.097">  2  5  1 -1</clus>
</clustering>
</event>
<event>
10    4  0.3738096E-005  0.2327962E+03  0.7546771E-02  0.1141836E+00
          2   -1    0    0  503    0 -0.00000000000E+00  0.00000000000E+00  0.63117732064E+03  0.63117732064E+03  0.00000000000E+00 0. -1.
         21   -1    0    0  501  502  0.00000000000E+00 -0.00000000000E+00 -0.18109527551E+03  0.18109527551E+03  0.00000000000E+00 0. -1.
         24    2    1    2    0    0  0.12665885684E+03  0.50092418683E+02  0.58756401745E+02  0.16849106772E+03  0.79907501096E+02 0.  0.
         23    2    1    2    0    0 -0.26928686585E+03 -0.61735268102E+02  0.15761377087E+03  0.32977554554E+03  0.87081285155E+02 0.  0.
        -11    1    3    3    0    0  0.20539043459E+02  0.31957741645E+02  0.46639638437E+02  0.60153183047E+02  0.00000000000E+00 0.  1.
         12    1    3    3    0    0  0.10611981338E+03  0.18134677039E+02  0.12116763308E+02  0.10833788468E+03  0.00000000000E+00 0. -1.
        -11    1    4    4    0    0 -0.21261166019E+03 -0.80309920030E+02  0.10547055936E+03  0.25055426597E+03  0.00000000000E+00 0. -1.
         11    1    4    4    0    0 -0.56675205660E+02  0.18574651928E+02  0.52143211512E+02  0.79221279576E+02  0.00000000000E+00 0.  1.
         21    1    1    2  503  502 -0.25992787254E+02 -0.68986602245E+01  0.82448055633E+02  0.86723113296E+02  0.00000000000E+00 0.  1.
          1    1    1    2  501    0  0.16862079626E+03  0.18541509643E+02  0.15126381687E+03  0.22728286959E+03  0.00000000000E+00 0. -1.
<scales pt_clust_5="13000.00000" pt_clust_6="13000.00000" pt_clust_7="13000.00000" pt_clust_8="13000.00000" pt_clust_9="26.89268" pt_clust_10="215.89559"></scales>
<clustering>
<clus scale="   26.893">  1  9  2 -1</clus>
<clus scale="   79.908">  5  6 -1 -1</clus>
<clus scale="   87.081">  7  8 -1 -1</clus>
<clus scale="  153.153">  1  5  2 -1</clus>
<clus scale="  215.896">  2 10  1 -1</clus>
<clus scale="  215.896">  2  5  1 -1</clus>
</clustering>
</event>
<event>
10    4  0.3738096E-005  0.2367204E+03  0.7546771E-02  0.1122342E+00
         21   -1    0    0  501  502  0.00000000000E+00  0.00000000000E+00  0.13970884498E+03  0.13970884498E+03  0.00000000000E+00 0. -1.
          2   -1    0    0  503    0 -0.00000000000E+00 -0.00000000000E+00 -0.60934934999E+03  0.60934934999E+03  0.00000000000E+00 0. -1.
         23    2    1    2    0    0  0.14215525090E+03  0.12739118736E+03 -0.16208680583E+03  0.26633976481E+03  0.90708917551E+02 0.  0.
         24    2    1    2    0    0 -0.19791165252E+03 -0.15556175769E+03 -0.16989084487E+03  0.31544513172E+03  0.85289209747E+02 0.  0.
        -11    1    4    4    0    0 -0.12219932066E+03 -0.42489825967E+02 -0.74928426437E+02  0.14950695091E+03  0.00000000000E+00 0.  1.
         12    1    4    4    0    0 -0.75712331860E+02 -0.11307193172E+03 -0.94962418429E+02  0.16593818082E+03  0.00000000000E+00 0. -1.
        -13    1    3    3    0    0  0.23385293117E+02  0.51310672577E+02 -0.94240954009E+02  0.10982265006E+03  0.00000000000E+00 0.  1.
         13    1    3    3    0    0  0.11876995778E+03  0.76080514778E+02 -0.67845851816E+02  0.15651711475E+03  0.00000000000E+00 0. -1.
         21    1    1    2  503  502 -0.24673399675E+01  0.34988201511E+02 -0.65502293827E+02  0.74302170278E+02  0.00000000000E+00 0.  1.
          1    1    1    2  501    0  0.58223741594E+02 -0.68176311790E+01 -0.72160560499E+02  0.92971128161E+02  0.00000000000E+00 0. -1.
<scales pt_clust_5="13000.00000" pt_clust_6="13000.00000" pt_clust_7="13000.00000" pt_clust_8="13000.00000" pt_clust_9="35.07509" pt_clust_10="57.86461"></scales>
<clustering>
<clus scale="   35.075">  2  9  1 -1</clus>
<clus scale="   57.865">  1 10  2 -1</clus>
<clus scale="   85.289">  5  6 -1 -1</clus>
<clus scale="   90.709">  7  8 -1 -1</clus>
<clus scale="  234.697">  1  5  2 -1</clus>
<clus scale="   57.865">  1  5  2 -1</clus>
</clustering>
</event>
<event>
10    4  0.3738096E-005  0.1642376E+03  0.7546771E-02  0.1208154E+00
         21   -1    0    0  501  502  0.00000000000E+00  0.00000000000E+00  0.56116155640E+03  0.56116155640E+03  0.00000000000E+00 0. -1.
         -1   -1    0    0    0  501 -0.00000000000E+00 -0.00000000000E+00 -0.16024323794E+03  0.16024323794E+03  0.00000000000E+00 0.  1.
         23    2    1    2    0    0  0.53353789573E+01 -0.29598377105E+02 -0.66697695645E+01  0.97062809782E+02  0.92044407874E+02 0.  0.
         24    2    1    2    0    0  0.64917791040E+02  0.13345490185E+03  0.45225916721E+03  0.48217190257E+03  0.76986095393E+02 0.  0.
        -11    1    4    4    0    0  0.34506971159E+02  0.23723766347E+02  0.56302797456E+02  0.70168035099E+02  0.00000000000E+00 0.  1.
         12    1    4    4    0    0  0.30410819880E+02  0.10973113551E+03  0.39595636975E+03  0.41200386747E+03  0.00000000000E+00 0. -1.
        -13    1    3    3    0    0  0.36612520205E+02 -0.10748701906E+02 -0.34270033460E+02  0.51287877922E+02  0.00000000000E+00 0.  1.
         13    1    3    3    0    0 -0.31277141247E+02 -0.18849675199E+02  0.27600263895E+02  0.45774931860E+02  0.00000000000E+00 0. -1.
         21    1    1    2  503  502 -0.20800170832E+02 -0.20503469374E+02  0.10028381597E+02  0.30880540805E+02  0.00000000000E+00 0.  1.
         -2    1    1    2    0  503 -0.49452999165E+02 -0.83353055375E+02 -0.54699460786E+02  0.11128954118E+03  0.00000000000E+00 0.  1.
<scales pt_clust_5="13000.00000" pt_clust_6="13000.00000" pt_clust_7="13000.00000" pt_clust_8="13000.00000" pt_clust_9="27.42110" pt_clust_10="153.43494"></scales>
<clustering>
<clus scale="   27.421">  9 10 -1 -1</clus>
<clus scale="   76.986">  5  6 -1 -1</clus>
<clus scale="   92.044">  7  8 -1 -1</clus>
<clus scale="   96.833">  2  7  1 -1</clus>
<clus scale="  153.435">  1  9  2 -1</clus>
<clus scale="  153.435">  1  5  2 -1</clus>
</clustering>
</event>
<event>
10    4  0.3738096E-005  0.1175204E+03  0.7546771E-02  0.1250059E+00
         21   -1    0    0  503  502  0.00000000000E+00  0.00000000000E+00  0.17964744065E+03  0.17964744065E+03  0.00000000000E+00 0.  1.
         -1   -1    0    0    0  501 -0.00000000000E+00 -0.00000000000E+00 -0.51562044569E+03  0.51562044569E+03  0.00000000000E+00 0.  1.
         23    2    1    2    0    0 -0.38421813677E+02  0.44697182140E+02 -0.61744646918E+02  0.12374238323E+03  0.89586283141E+02 0.  0.
         24    2    1    2    0    0  0.17498796465E+02 -0.12635886919E+03  0.53793262688E+02  0.16037535305E+03  0.80955339872E+02 0.  0.
        -11    1    4    4    0    0  0.40402046158E+02 -0.30968865599E+02  0.60205693067E+01  0.51260542574E+02  0.00000000000E+00 0.  1.
         12    1    4    4    0    0 -0.22903249693E+02 -0.95390003594E+02  0.47772693382E+02  0.10911481048E+03  0.00000000000E+00 0. -1.
        -13    1    3    3    0    0 -0.23116151034E+02 -0.11614744944E+02 -0.60024561577E+02  0.65362120003E+02  0.00000000000E+00 0.  1.
         13    1    3    3    0    0 -0.15305662643E+02  0.56311927085E+02 -0.17200853408E+01  0.58380263228E+02  0.00000000000E+00 0. -1.
         21    1    1    2  503  501  0.77742879256E+02  0.29641232647E+02 -0.32344821511E+03  0.33397800198E+03  0.00000000000E+00 0.  1.
         -2    1    1    2    0  502 -0.56819862044E+02  0.52020454406E+02 -0.45734057047E+01  0.77172148078E+02  0.00000000000E+00 0.  1.
<scales pt_clust_5="13000.00000" pt_clust_6="13000.00000" pt_clust_7="13000.00000" pt_clust_8="13000.00000" pt_clust_9="81.97163" pt_clust_10="77.03651"></scales>
<clustering>
<clus scale="   77.037">  1 10  2 -1</clus>
<clus scale="   80.955">  5  6 -1 -1</clus>
<clus scale="   81.972">  2  9  1 -1</clus>
<clus scale="   89.586">  7  8 -1 -1</clus>
<clus scale="  111.082">  1  5  2 -1</clus>
<clus scale="   77.037">  1  5  2 -1</clus>
</clustering>
</event>
<event>
10    4  0.3738096E-005  0.1698484E+03  0.7546771E-02  0.1184387E+00
         21   -1    0    0  501  502  0.00000000000E+00  0.00000000000E+00  0.64780977579E+03  0.64780977579E+03  0.00000000000E+00 0.  1.
          4   -1    0    0  503    0 -0.00000000000E+00 -0.00000000000E+00 -0.13814475358E+03  0.13814475358E+03  0.00000000000E+00 0. -1.
         24    2    1    2    0    0  0.62683751040E+02  0.98653312992E+02  0.16665508481E+03  0.21896505521E+03  0.80684876546E+02 0.  0.
         23    2    1    2    0    0 -0.43452787281E+01 -0.14040301493E+03  0.25779959679E+03  0.31604456293E+03  0.11701130546E+03 0.  0.
        -11    1    3    3    0    0  0.76827137479E+02  0.97963348609E+02  0.16145609429E+03  0.20388059522E+03  0.00000000000E+00 0.  1.
         12    1    3    3    0    0 -0.14143386439E+02  0.68996438278E+00  0.51989905144E+01  0.15084459990E+02  0.00000000000E+00 0. -1.
        -11    1    4    4    0    0  0.62588957083E+01 -0.11472646599E+03  0.26370075109E+03  0.28764461041E+03  0.00000000000E+00 0.  1.
         11    1    4    4    0    0 -0.10604174436E+02 -0.25676548940E+02 -0.59011543026E+01  0.28399952518E+02  0.00000000000E+00 0. -1.
         21    1    1    2  503  502 -0.13958817528E+03  0.58691454564E+02  0.40858369618E+02  0.15684053011E+03  0.00000000000E+00 0.  1.
          3    1    1    2  501    0  0.81249702968E+02 -0.16941752624E+02  0.44351971004E+02  0.94104381122E+02  0.00000000000E+00 0. -1.
<scales pt_clust_5="13000.00000" pt_clust_6="13000.00000" pt_clust_7="13000.00000" pt_clust_8="13000.00000" pt_clust_9="137.53368" pt_clust_10="82.99725"></scales>
<clustering>
<clus scale="   80.685">  5  6 -1 -1</clus>
<clus scale="   82.997">  1 10  2 -1</clus>
<clus scale="  117.011">  7  8 -1 -1</clus>
<clus scale="  137.534">  2  9  1 -1</clus>
<clus scale="  147.197">  2  5  1 -1</clus>
<clus scale="   82.997">  1  5  2 -1</clus>
</clustering>
</event>
<event>
10    4  0.3738096E-005  0.1733142E+03  0.7546771E-02  0.1176001E+00
          2   -1    0    0  503    0 -0.00000000000E+00  0.00000000000E+00  0.24072943557E+04  0.24072943557E+04  0.00000000000E+00 0. -1.
         21   -1    0    0  501  502  0.00000000000E+00 -0.00000000000E+00 -0.46496734708E+02  0.46496734708E+02  0.00000000000E+00 0. -1.
         23    2    1    2    0    0  0.11708137960E+03  0.10473965065E+03  0.43785385530E+03  0.47409581979E+03  0.91500840864E+02 0.  0.
         24    2    1    2    0    0 -0.14718489964E+03 -0.64739281373E+02  0.38073080381E+03  0.42086149131E+03  0.79459931181E+02 0.  0.
        -11    1    4    4    0    0 -0.22817442109E+02  0.17888061853E+02  0.46555450888E+02  0.54845495974E+02  0.00000000000E+00 0.  1.
         12    1    4    4    0    0 -0.12436745753E+03 -0.82627343226E+02  0.33417535292E+03  0.36601599534E+03  0.00000000000E+00 0. -1.
        -13    1    3    3    0    0  0.84140535042E+02  0.10356885709E+03  0.40924421966E+03  0.43044972891E+03  0.00000000000E+00 0. -1.
         13    1    3    3    0    0  0.32940844559E+02  0.11707935608E+01  0.28609635637E+02  0.43646090880E+02  0.00000000000E+00 0.  1.
         21    1    1    2  503  502 -0.80402852243E+02 -0.76165439097E+02  0.74786799073E+03  0.75602402364E+03  0.00000000000E+00 0. -1.
          1    1    1    2  501    0  0.11050637229E+03  0.36165069822E+02  0.79434497120E+03  0.80280975570E+03  0.00000000000E+00 0. -1.
<scales pt_clust_5="13000.00000" pt_clust_6="13000.00000" pt_clust_7="13000.00000" pt_clust_8="13000.00000" pt_clust_9="110.75104" pt_clust_10="71.72060"></scales>
<clustering>
<clus scale="   79.460">  5  6 -1 -1</clus>
<clus scale="   91.501">  7  8 -1 -1</clus>
<clus scale="  110.751">  1  9  2 -1</clus>
<clus scale="   71.721">  2 10  1 -1</clus>
<clus scale="  167.270">  2  5  1 -1</clus>
<clus scale="   71.721">  2  5  1 -1</clus>
</clustering>
</event>
<event>
10    4  0.3738096E-005  0.3154303E+03  0.7546771E-02  0.1113281E+00
          2   -1    0    0  502    0 -0.00000000000E+00  0.00000000000E+00  0.22085559600E+03  0.22085559600E+03  0.00000000000E+00 0. -1.
         21   -1    0    0  503  502  0.00000000000E+00 -0.00000000000E+00 -0.98969425794E+03  0.98969425794E+03  0.00000000000E+00 0. -1.
         24    2    1    2    0    0  0.37401342060E+01  0.88130696347E+02 -0.68724648986E+02  0.13775007455E+03  0.80442510013E+02 0.  0.
         23    2    1    2    0    0 -0.15261044695E+03  0.18882485214E+03 -0.53127185595E+03  0.59276694160E+03  0.10088651462E+03 0.  0.
        -11    1    3    3    0    0 -0.38270727286E+02  0.37397454283E+02 -0.30291965334E+02  0.61488383599E+02  0.00000000000E+00 0.  1.
         12    1    3    3    0    0  0.42010861492E+02  0.50733242064E+02 -0.38432683652E+02  0.76261690949E+02  0.00000000000E+00 0. -1.
        -13    1    4    4    0    0 -0.77854044191E+02  0.14240570810E+03 -0.25008509082E+03  0.29813284044E+03  0.00000000000E+00 0.  1.
         13    1    4    4    0    0 -0.74756402759E+02  0.46419144034E+02 -0.28118676513E+03  0.29463410116E+03  0.00000000000E+00 0. -1.
         21    1    1    2  503  501 -0.14404421685E+02  0.61149547224E+02 -0.65165994744E+02  0.90517188206E+02  0.00000000000E+00 0. -1.
          1    1    1    2  501    0  0.16327473443E+03 -0.33810509571E+03 -0.10367616227E+03  0.38951564958E+03  0.00000000000E+00 0. -1.
<scales pt_clust_5="13000.00000" pt_clust_6="13000.00000" pt_clust_7="13000.00000" pt_clust_8="13000.00000" pt_clust_9="62.82320" pt_clust_10="298.86165"></scales>
<clustering>
<clus scale="   62.823">  2  9  1 -1</clus>
<clus scale="   80.443">  5  6 -1 -1</clus>
<clus scale="  100.887">  7  8 -1 -1</clus>
<clus scale="  124.542">  1  5  2 -1</clus>
<clus scale="  298.862">  2 10  1 -1</clus>
<clus scale="   62.823">  2  5  1 -1</clus>
</clustering>
</event>
<event>
10    4  0.3738096E-005  0.2223508E+03  0.7546771E-02  0.1159737E+00
         -1   -1    0    0    0  501 -0.00000000000E+00  0.00000000000E+00  0.14910305446E+03  0.14910305446E+03  0.00000000000E+00 0.  1.
         21   -1    0    0  503  502  0.00000000000E+00 -0.00000000000E+00 -0.73481493280E+03  0.73481493280E+03  0.00000000000E+00 0. -1.
         23    2    1    2    0    0  0.36644840067E+02  0.64963795969E+02 -0.19303089321E+03  0.22657886317E+03  0.92270886056E+02 0.  0.
         24    2    1    2    0    0 -0.15617918897E+03 -0.15137088933E+03 -0.35312611386E+03  0.42271183711E+03  0.81744478323E+02 0.  0.
        -13    1    4    4    0    0 -0.13045556661E+03 -0.81544021661E+02 -0.19874224957E+03  0.25132959255E+03  0.00000000000E+00 0.  1.
         14    1    4    4    0    0 -0.25723622362E+02 -0.69826867670E+02 -0.15438386429E+03  0.17138224456E+03  0.00000000000E+00 0. -1.
        -11    1    3    3    0    0 -0.14603006725E+02  0.55960019404E+02 -0.14360391585E+03  0.15481232582E+03  0.00000000000E+00 0. -1.
         11    1    3    3    0    0  0.51247846791E+02  0.90037765641E+01 -0.49426977352E+02  0.71766537351E+02  0.00000000000E+00 0.  1.
         21    1    1    2  503  501 -0.12649022734E+02 -0.42333458290E+02  0.59505929999E+01  0.44581711766E+02  0.00000000000E+00 0.  1.
         -2    1    1    2    0  502  0.13218337164E+03  0.12874055165E+03 -0.45505464273E+02  0.19004557521E+03  0.00000000000E+00 0.  1.
<scales pt_clust_5="13000.00000" pt_clust_6="13000.00000" pt_clust_7="13000.00000" pt_clust_8="13000.00000" pt_clust_9="44.18280" pt_clust_10="206.77954"></scales>
<clustering>
<clus scale="   44.183">  1  9  2 -1</clus>
<clus scale="   81.744">  5  6 -1 -1</clus>
<clus scale="   92.271">  7  8 -1 -1</clus>
<clus scale="  115.075">  1  7  2 -1</clus>
<clus scale="  206.780">  2 10  1 -1</clus>
<clus scale="  206.780">  2  5  1 -1</clus>
</clustering>
</event>
<event>
10    4  0.3738096E-005  0.2499287E+03  0.7546771E-02  0.1113350E+00
          2   -1    0    0  503    0 -0.00000000000E+00  0.00000000000E+00  0.22304780645E+03  0.22304780645E+03  0.00000000000E+00 0. -1.
         21   -1    0    0  501  502  0.00000000000E+00 -0.00000000000E+00 -0.25604590529E+03  0.25604590529E+03  0.00000000000E+00 0. -1.
         24    2    1    2    0    0 -0.79873568725E+02  0.15933530695E+02  0.16889050004E+01  0.11800967368E+03  0.85380128253E+02 0.  0.
         23    2    1    2    0    0 -0.96781777814E+02 -0.16490301556E+02 -0.13429269380E+02  0.13444532990E+03  0.90865608965E+02 0.  0.
        -11    1    3    3    0    0 -0.74745144715E+02 -0.23184537683E+02 -0.27591621428E+01  0.78306911712E+02  0.00000000000E+00 0.  1.
         12    1    3    3    0    0 -0.51284240098E+01  0.39118068379E+02  0.44480671433E+01  0.39702761967E+02  0.00000000000E+00 0. -1.
        -13    1    4    4    0    0 -0.70120643287E+02  0.34855718882E+01  0.32777035401E+02  0.77481532484E+02  0.00000000000E+00 0.  1.
         13    1    4    4    0    0 -0.26661134526E+02 -0.19975873444E+02 -0.46206304781E+02  0.56963797412E+02  0.00000000000E+00 0. -1.
         21    1    1    2  503  502  0.16665716940E+03  0.50897727107E+02 -0.14240823793E+02  0.17483704356E+03  0.00000000000E+00 0. -1.
          1    1    1    2  501    0  0.99981771388E+01 -0.50340956246E+02 -0.70169106678E+01  0.51801664618E+02  0.00000000000E+00 0. -1.
<scales pt_clust_5="13000.00000" pt_clust_6="13000.00000" pt_clust_7="13000.00000" pt_clust_8="13000.00000" pt_clust_9="173.42451" pt_clust_10="51.32422"></scales>
<clustering>
<clus scale="   51.324">  2 10  1 -1</clus>
<clus scale="   85.380">  5  6 -1 -1</clus>
<clus scale="   90.866">  7  8 -1 -1</clus>
<clus scale="   95.867">  5  7 -1 -1</clus>
<clus scale="  173.425">  2  9  1 -1</clus>
<clus scale="   51.324">  2  5  1 -1</clus>
</clustering>
</event>
<event>
10    4  0.3738096E-005  0.1539111E+03  0.7546771E-02  0.1198449E+00
         -1   -1    0    0    0  501 -0.00000000000E+00  0.00000000000E+00  0.42051165735E+03  0.42051165735E+03  0.00000000000E+00 0.  1.
         21   -1    0    0  503  502  0.00000000000E+00 -0.00000000000E+00 -0.28304104389E+03  0.28304104389E+03  0.00000000000E+00 0.  1.
         23    2    1    2    0    0  0.10206329257E+03  0.12022664213E+03  0.19142811073E+03  0.26385084046E+03  0.90006573473E+02 0.  0.
         24    2    1    2    0    0  0.22672859839E+02 -0.10040732369E+03 -0.82995762794E+02  0.15149216630E+03  0.73931661591E+02 0.  0.
        -13    1    4    4    0    0  0.46694717587E+02 -0.71307180430E+02 -0.39601078963E+02  0.93985935578E+02  0.00000000000E+00 0.  1.
         14    1    4    4    0    0 -0.24021857748E+02 -0.29100143258E+02 -0.43394683830E+02  0.57506230724E+02  0.00000000000E+00 0. -1.
        -11    1    3    3    0    0  0.75178790554E+02  0.96720313476E+02  0.19244280193E+03  0.22812475009E+03  0.00000000000E+00 0.  1.
         11    1    3    3    0    0  0.26884502016E+02  0.23506328650E+02 -0.10146912002E+01  0.35726090375E+02  0.00000000000E+00 0. -1.
         21    1    1    2  503  501 -0.22847409962E+02 -0.12749628439E+02  0.13706824565E+03  0.13954304401E+03  0.00000000000E+00 0. -1.
         -2    1    1    2    0  502 -0.10188874245E+03 -0.70696899989E+01 -0.10802998012E+03  0.14866665046E+03  0.00000000000E+00 0.  1.
<scales pt_clust_5="13000.00000" pt_clust_6="13000.00000" pt_clust_7="13000.00000" pt_clust_8="13000.00000" pt_clust_9="26.16404" pt_clust_10="103.84138"></scales>
<clustering>
<clus scale="   26.164">  1  9  2 -1</clus>
<clus scale="   73.932">  5  6 -1 -1</clus>
<clus scale="   90.007">  7  8 -1 -1</clus>
<clus scale="  103.841">  2 10  1 -1</clus>
<clus scale="  145.098">  2  5  1 -1</clus>
<clus scale="  103.841">  2  5  1 -1</clus>
</clustering>
</event>
<event>
10    4  0.3738096E-005  0.1759968E+03  0.7546771E-02  0.1185813E+00
         21   -1    0    0  503  502  0.00000000000E+00  0.00000000000E+00  0.37787225874E+03  0.37787225874E+03  0.00000000000E+00 0. -1.
         -3   -1    0    0    0  501 -0.00000000000E+00 -0.00000000000E+00 -0.41735612956E+03  0.41735612956E+03  0.00000000000E+00 0.  1.
         23    2    1    2    0    0  0.68526412337E+02  0.52250524734E+02 -0.11335175841E+03  0.17020960434E+03  0.93256108394E+02 0.  0.
         24    2    1    2    0    0  0.68743155487E+02 -0.12443757377E+03  0.25862942539E+03  0.31065200945E+03  0.96980204691E+02 0.  0.
        -11    1    4    4    0    0  0.51400604831E+02 -0.11241720836E+03  0.12656842607E+03  0.17691584833E+03  0.00000000000E+00 0.  1.
         12    1    4    4    0    0  0.17342550656E+02 -0.12020365408E+02  0.13206099932E+03  0.13373616111E+03  0.00000000000E+00 0. -1.
        -11    1    3    3    0    0  0.47305059979E+02  0.67766985578E+02 -0.39072541900E+02  0.91415515994E+02  0.00000000000E+00 0.  1.
         11    1    3    3    0    0  0.21221352359E+02 -0.15516460844E+02 -0.74279216514E+02  0.78794088350E+02  0.00000000000E+00 0. -1.
         21    1    1    2  503  501  0.25054538377E+02 -0.33570285691E+02 -0.88762663368E+02  0.98150417130E+02  0.00000000000E+00 0.  1.
         -4    1    1    2    0  502 -0.16232410620E+03  0.10575733473E+03 -0.95998874437E+02  0.21621635737E+03  0.00000000000E+00 0.  1.
<scales pt_clust_5="13000.00000" pt_clust_6="13000.00000" pt_clust_7="13000.00000" pt_clust_8="13000.00000" pt_clust_9="41.88907" pt_clust_10="146.86634"></scales>
<clustering>
<clus scale="   41.889">  2  9  1 -1</clus>
<clus scale="   93.256">  7  8 -1 -1</clus>
<clus scale="   96.980">  5  6 -1 -1</clus>
<clus scale="  128.165">  2  7  1 -1</clus>
<clus scale="  146.866">  1 10  2 -1</clus>
<clus scale="  146.866">  1  5  2 -1</clus>
</clustering>
</event>
<event>
10    4  0.3738096E-005  0.3570566E+03  0.7546771E-02  0.1090322E+00
          2   -1    0    0  503    0 -0.00000000000E+00  0.00000000000E+00  0.74300244322E+03  0.74300244322E+03  0.00000000000E+00 0. -1.
         21   -1    0    0  501  502  0.00000000000E+00 -0.00000000000E+00 -0.61256873065E+03  0.61256873065E+03  0.00000000000E+00 0. -1.
         24    2    1    2    0    0  0.59619560328E+02  0.12343381148E+03 -0.76231823977E+02  0.17538773099E+03  0.78480363171E+02 0.  0.
         23    2    1    2    0    0  0.21621854532E+03 -0.25010877476E+03  0.55289509261E+00  0.34217779921E+03  0.88207040682E+02 0.  0.
        -13    1    3    3    0    0 -0.12846820500E+02  0.40553036967E+02 -0.42765874723E+02  0.60320060055E+02  0.00000000000E+00 0.  1.
         14    1    3    3    0    0  0.72466380827E+02  0.82880774515E+02 -0.33465949254E+02  0.11506767093E+03  0.00000000000E+00 0. -1.
        -11    1    4    4    0    0  0.18411252638E+03 -0.18056972343E+03  0.31034883438E+02  0.25974220176E+03  0.00000000000E+00 0. -1.
         11    1    4    4    0    0  0.32106018946E+02 -0.69539051329E+02 -0.30481988346E+02  0.82435597443E+02  0.00000000000E+00 0.  1.
         21    1    1    2  503  502  0.45384226245E+02 -0.45085979335E+02  0.41378740774E+03  0.41870334645E+03  0.00000000000E+00 0. -1.
          1    1    1    2  501    0 -0.32122233190E+03  0.17176094261E+03 -0.20767476628E+03  0.41930229723E+03  0.00000000000E+00 0. -1.
<scales pt_clust_5="13000.00000" pt_clust_6="13000.00000" pt_clust_7="13000.00000" pt_clust_8="13000.00000" pt_clust_9="63.97244" pt_clust_10="345.98975"></scales>
<clustering>
<clus scale="   63.972">  1  9  2 -1</clus>
<clus scale="   78.480">  5  6 -1 -1</clus>
<clus scale="   88.207">  7  8 -1 -1</clus>
<clus scale="  155.487">  1  5  2 -1</clus>
<clus scale="  345.990">  2 10  1 -1</clus>
<clus scale="  345.990">  2  5  1 -1</clus>
</clustering>
</event>
<event>
10    4  0.3738096E-005  0.1787216E+03  0.7546771E-02  0.1186479E+00
         -3   -1    0    0    0  501 -0.00000000000E+00  0.00000000000E+00  0.61283527031E+02  0.61283527031E+02  0.00000000000E+00 0.  1.
         21   -1    0    0  503  502  0.00000000000E+00 -0.00000000000E+00 -0.14564868667E+04  0.14564868667E+04  0.00000000000E+00 0.  1.
         24    2    1    2    0    0  0.26274564008E+00 -0.80281542113E+02 -0.27466940986E+03  0.29731972985E+03  0.80687929739E+02 0.  0.
         23    2    1    2    0    0 -0.95258021911E+02 -0.28332297521E+02 -0.19578963661E+03  0.23696805923E+03  0.89126143572E+02 0.  0.
        -11    1    3    3    0    0 -0.77572944136E+01 -0.78780410976E+02 -0.27758744071E+03  0.28865431923E+03  0.00000000000E+00 0.  1.
         12    1    3    3    0    0  0.80200400536E+01 -0.15011311368E+01  0.29180308505E+01  0.86654106190E+01  0.00000000000E+00 0. -1.
        -11    1    4    4    0    0 -0.36439053406E+02  0.23956284547E+01 -0.15461850755E+03  0.15887235922E+03  0.00000000000E+00 0. -1.
         11    1    4    4    0    0 -0.58818968506E+02 -0.30727925975E+02 -0.41171129066E+02  0.78095700006E+02  0.00000000000E+00 0.  1.
         21    1    1    2  503  501 -0.97157890107E+02 -0.23264122735E+02 -0.32663853705E+03  0.34157518777E+03  0.00000000000E+00 0. -1.
         -4    1    1    2    0  502  0.19215316638E+03  0.13187796237E+03 -0.59810575610E+03  0.64190741684E+03  0.00000000000E+00 0.  1.
<scales pt_clust_5="13000.00000" pt_clust_6="13000.00000" pt_clust_7="13000.00000" pt_clust_8="13000.00000" pt_clust_9="99.90433" pt_clust_10="154.91264"></scales>
<clustering>
<clus scale="   80.688">  5  6 -1 -1</clus>
<clus scale="   89.126">  7  8 -1 -1</clus>
<clus scale="   99.904">  2  9  1 -1</clus>
<clus scale="  120.593">  1  5  2 -1</clus>
<clus scale="  154.913">  2 10  1 -1</clus>
<clus scale="   99.904">  2  5  1 -1</clus>
</clustering>
</event>
<event>
10    4  0.3738096E-005  0.1234444E+03  0.7546771E-02  0.1246068E+00
         21   -1    0    0  503  502  0.00000000000E+00  0.00000000000E+00  0.40805965155E+03  0.40805965155E+03  0.00000000000E+00 0.  1.
         -1   -1    0    0    0  501 -0.00000000000E+00 -0.00000000000E+00 -0.15411045348E+03  0.15411045348E+03  0.00000000000E+00 0.  1.
         24    2    1    2    0    0  0.38001286027E+02 -0.36971400236E+02 -0.13268306392E+02  0.96352039996E+02  0.79351657083E+02 0.  0.
         23    2    1    2    0    0  0.25852845146E+02 -0.61356565346E+02  0.23384006007E+03  0.25959638556E+03  0.90973138834E+02 0.  0.
        -13    1    3    3    0    0  0.39188260522E+02  0.13090726134E+02  0.77609083495E+01  0.42039488245E+02  0.00000000000E+00 0.  1.
         14    1    3    3    0    0 -0.11869744953E+01 -0.50062126370E+02 -0.21029214741E+02  0.54312551751E+02  0.00000000000E+00 0. -1.
        -13    1    4    4    0    0  0.50152079747E+02 -0.26980514771E+02  0.19190450030E+03  0.20017621366E+03  0.00000000000E+00 0. -1.
         13    1    4    4    0    0 -0.24299234602E+02 -0.34376050575E+02  0.41935559772E+02  0.59420171901E+02  0.00000000000E+00 0.  1.
         21    1    1    2  503  501  0.67402573238E+01 -0.34284288145E+02 -0.27156344450E+02  0.44252802469E+02  0.00000000000E+00 0.  1.
         -2    1    1    2    0  502 -0.70594388497E+02  0.13261225373E+03  0.60533788837E+02  0.16196887700E+03  0.00000000000E+00 0.  1.
<scales pt_clust_5="13000.00000" pt_clust_6="13000.00000" pt_clust_7="13000.00000" pt_clust_8="13000.00000" pt_clust_9="34.94057" pt_clust_10="83.44115"></scales>
<clustering>
<clus scale="   34.941">  2  9  1 -1</clus>
<clus scale="   79.352">  5  6 -1 -1</clus>
<clus scale="   90.973">  7  8 -1 -1</clus>
<clus scale="  103.826">  2  5  1 -1</clus>
<clus scale="   83.441">  1 10  2 -1</clus>
<clus scale="   83.441">  1  5  2 -1</clus>
</clustering>
</event>
<event>
10    4  0.3738096E-005  0.1439762E+03  0.7546771E-02  0.1217181E+00
         21   -1    0    0  503  502  0.00000000000E+00  0.00000000000E+00  0.66132162679E+02  0.66132162679E+02  0.00000000000E+00 0. -1.
          2   -1    0    0  502    0 -0.00000000000E+00 -0.00000000000E+00 -0.12822423462E+04  0.12822423462E+04  0.00000000000E+00 0. -1.
         23    2    1    2    0    0 -0.26256509168E+02  0.66568908991E+02 -0.25833779757E+02  0.12142127653E+03  0.94630430097E+02 0.  0.
         24    2    1    2    0    0 -0.72302742829E+01  0.93681881793E+02 -0.42759488527E+03  0.44526158022E+03  0.81190621828E+02 0.  0.
        -13    1    4    4    0    0  0.35301634909E+02  0.32351845146E+02 -0.13291858210E+03  0.14128056051E+03  0.00000000000E+00 0.  1.
         14    1    4    4    0    0 -0.42531909192E+02  0.61330036647E+02 -0.29467630317E+03  0.30398101971E+03  0.00000000000E+00 0. -1.
        -11    1    3    3    0    0 -0.77021731699E+01 -0.20262055152E+02  0.12146853658E+02  0.24847945675E+02  0.00000000000E+00 0.  1.
         11    1    3    3    0    0 -0.18554335998E+02  0.86830964143E+02 -0.37980633415E+02  0.96573330857E+02  0.00000000000E+00 0. -1.
         21    1    1    2  503  501  0.20378944062E+02 -0.34058983980E+02 -0.11378412128E+03  0.12050785039E+03  0.00000000000E+00 0.  1.
          1    1    1    2  501    0  0.13107839388E+02 -0.12619180680E+03 -0.64889739722E+03  0.66118380173E+03  0.00000000000E+00 0. -1.
<scales pt_clust_5="13000.00000" pt_clust_6="13000.00000" pt_clust_7="13000.00000" pt_clust_8="13000.00000" pt_clust_9="28.28340" pt_clust_10="129.20640"></scales>
<clustering>
<clus scale="   28.283">  9 10 -1 -1</clus>
<clus scale="   81.191">  5  6 -1 -1</clus>
<clus scale="   94.630">  7  8 -1 -1</clus>
<clus scale="  118.641">  2  7  1 -1</clus>
<clus scale="  129.206">  1  9  2 -1</clus>
<clus scale="  129.206">  1  5  2 -1</clus>
</clustering>
</event>
<event>
10    4  0.3738096E-005  0.1801083E+03  0.7546771E-02  0.1190358E+00
         21   -1    0    0  501  502  0.00000000000E+00  0.00000000000E+00  0.58122849620E+03  0.58122849620E+03  0.00000000000E+00 0.  1.
          2   -1    0    0  503    0 -0.00000000000E+00 -0.00000000000E+00 -0.59781612566E+03  0.59781612566E+03  0.00000000000E+00 0. -1.
         23    2    1    2    0    0 -0.11221114554E+03  0.15357979808E+03  0.15271731689E+03  0.26075001440E+03  0.92140629315E+02 0.  0.
         24    2    1    2    0    0  0.86245695037E+02  0.72543736253E+02  0.28548899415E+03  0.31766675621E+03  0.81898038074E+02 0.  0.
        -11    1    4    4    0    0  0.95438438876E+02  0.58263983592E+02  0.27692236824E+03  0.29864558499E+03  0.00000000000E+00 0.  1.
         12    1    4    4    0    0 -0.91927438385E+01  0.14279752660E+02  0.85666259035E+01  0.19021171223E+02  0.00000000000E+00 0. -1.
        -13    1    3    3    0    0 -0.29301199280E+02  0.11712874617E+03  0.84717892451E+02  0.14749516860E+03  0.00000000000E+00 0.  1.
         13    1    3    3    0    0 -0.82909946258E+02  0.36451051912E+02  0.67999424440E+02  0.11325484580E+03  0.00000000000E+00 0. -1.
         21    1    1    2  503  502  0.59673201442E+02 -0.14087253598E+03 -0.48143758922E+03  0.50516147386E+03  0.00000000000E+00 0. -1.
          1    1    1    2  501    0 -0.33707750941E+02 -0.85250998354E+02  0.26643648711E+02  0.95466377383E+02  0.00000000000E+00 0. -1.
<scales pt_clust_5="13000.00000" pt_clust_6="13000.00000" pt_clust_7="13000.00000" pt_clust_8="13000.00000" pt_clust_9="154.75494" pt_clust_10="91.67303"></scales>
<clustering>
<clus scale="   81.898">  5  6 -1 -1</clus>
<clus scale="   91.673">  1 10  2 -1</clus>
<clus scale="   92.141">  7  8 -1 -1</clus>
<clus scale="  108.125">  1  5  2 -1</clus>
<clus scale="  154.755">  2  9  1 -1</clus>
<clus scale="   91.673">  1  5  2 -1</clus>
</clustering>
</event>
<event>
10    4  0.3738096E-005  0.1570018E+03  0.7546771E-02  0.1207412E+00
         21   -1    0    0  501  502  0.00000000000E+00  0.00000000000E+00  0.54122310875E+03  0.54122310875E+03  0.00000000000E+00 0. -1.
          2   -1    0    0  503    0 -0.00000000000E+00 -0.00000000000E+00 -0.29881859761E+03  0.29881859761E+03  0.00000000000E+00 0. -1.
         24    2    1    2    0    0 -0.48534212981E+02 -0.77924469556E+02 -0.75791424142E+02  0.14187361187E+03  0.77175054174E+02 0.  0.
         23    2    1    2    0    0  0.12725478448E+03 -0.64062509280E+02 -0.49229177429E+02  0.17526636272E+03  0.89425951064E+02 0.  0.
        -11    1    3    3    0    0 -0.68608512232E+02 -0.70753372041E+02 -0.64009496481E+02  0.11751758696E+03  0.00000000000E+00 0.  1.
         12    1    3    3    0    0  0.20074299250E+02 -0.71710975142E+01 -0.11781927661E+02  0.24356024909E+02  0.00000000000E+00 0. -1.
        -13    1    4    4    0    0  0.51363297322E+02  0.18261681626E+02 -0.45126928133E+01  0.54699558719E+02  0.00000000000E+00 0.  1.
         13    1    4    4    0    0  0.75891487157E+02 -0.82324190907E+02 -0.44716484616E+02  0.12056680400E+03  0.00000000000E+00 0. -1.
         21    1    1    2  503  502 -0.95412205391E+01  0.32522984171E+02 -0.64022451514E+02  0.72440690821E+02  0.00000000000E+00 0.  1.
          1    1    1    2  501    0 -0.69179350958E+02  0.10946399467E+03  0.43144756422E+03  0.45046104094E+03  0.00000000000E+00 0. -1.
<scales pt_clust_5="13000.00000" pt_clust_6="13000.00000" pt_clust_7="13000.00000" pt_clust_8="13000.00000" pt_clust_9="33.89365" pt_clust_10="129.04487"></scales>
<clustering>
<clus scale="   33.894">  2  9  1 -1</clus>
<clus scale="   77.175">  5  6 -1 -1</clus>
<clus scale="   89.426">  7  8 -1 -1</clus>
<clus scale="  112.625">  2  5  1 -1</clus>
<clus scale="  129.045">  1 10  2 -1</clus>
<clus scale="  129.045">  1  5  2 -1</clus>
</clustering>
</event>
<event>
10    4  0.3738096E-005  0.1380635E+03  0.7546771E-02  0.1218581E+00
         21   -1    0    0  501  502  0.00000000000E+00  0.00000000000E+00  0.11799793572E+03  0.11799793572E+03  0.00000000000E+00 0.  1.
          2   -1    0    0  503    0 -0.00000000000E+00 -0.00000000000E+00 -0.56374386340E+03  0.56374386340E+03  0.00000000000E+00 0. -1.
         23    2    1    2    0    0 -0.55884956014E+02  0.23622498084E+02 -0.16661328193E+03  0.19993720853E+03  0.92378303264E+02 0.  0.
         24    2    1    2    0    0  0.77277586217E+02 -0.11047650092E+03  0.97636891637E+01  0.15751142220E+03  0.80855648600E+02 0.  0.
        -13    1    4    4    0    0  0.31311898202E+02 -0.86024736176E+02 -0.25011253075E+02  0.94901280200E+02  0.00000000000E+00 0.  1.
         14    1    4    4    0    0  0.45965688014E+02 -0.24451764746E+02  0.34774942239E+02  0.62610142002E+02  0.00000000000E+00 0. -1.
        -11    1    3    3    0    0 -0.78701777520E+02  0.18476807932E+02 -0.95748678241E+02  0.12531229629E+03  0.00000000000E+00 0. -1.
         11    1    3    3    0    0  0.22816821506E+02  0.51456901516E+01 -0.70864603687E+02  0.74624912238E+02  0.00000000000E+00 0.  1.
         21    1    1    2  503  502 -0.35053660197E+02  0.52741037042E+02 -0.27919568918E+03  0.28628763323E+03  0.00000000000E+00 0. -1.
          1    1    1    2  501    0  0.13661029994E+02  0.34112965795E+02 -0.97006457283E+01  0.38005535168E+02  0.00000000000E+00 0. -1.
<scales pt_clust_5="13000.00000" pt_clust_6="13000.00000" pt_clust_7="13000.00000" pt_clust_8="13000.00000" pt_clust_9="64.04777" pt_clust_10="36.74668"></scales>
<clustering>
<clus scale="   36.747">  1 10  2 -1</clus>
<clus scale="   64.048">  2  9  1 -1</clus>
<clus scale="   80.856">  5  6 -1 -1</clus>
<clus scale="   92.378">  7  8 -1 -1</clus>
<clus scale="  130.635">  1  5  2 -1</clus>
<clus scale="   36.747">  1  5  2 -1</clus>
</clustering>
</event>
<event>
10    4  0.3738096E-005  0.1392274E+03  0.7546771E-02  0.1245924E+00
         -3   -1    0    0    0  501 -0.00000000000E+00  0.00000000000E+00  0.88560640692E+02  0.88560640692E+02  0.00000000000E+00 0.  1.
         21   -1    0    0  503  502  0.00000000000E+00 -0.00000000000E+00 -0.39729959736E+03  0.39729959736E+03  0.00000000000E+00 0.  1.
         24    2    1    2    0    0 -0.28466073998E+02 -0.31600966791E+01 -0.98442769382E+02  0.12172781425E+03  0.65623001589E+02 0.  0.
         23    2    1    2    0    0  0.94958515992E+02 -0.56241691112E+02 -0.90915165936E+02  0.16922473221E+03  0.90505220930E+02 0.  0.
        -13    1    3    3    0    0 -0.22158691571E+02 -0.22412379583E+02 -0.96334732946E+02  0.10135927754E+03  0.00000000000E+00 0.  1.
         14    1    3    3    0    0 -0.63073824267E+01  0.19252282904E+02 -0.21080364357E+01  0.20368536710E+02  0.00000000000E+00 0. -1.
        -13    1    4    4    0    0  0.94335856507E+02 -0.76735084522E+02 -0.83085579120E+02  0.14727776640E+03  0.00000000000E+00 0.  1.
         13    1    4    4    0    0  0.62265948500E+00  0.20493393411E+02 -0.78295868168E+01  0.21946965805E+02  0.00000000000E+00 0. -1.
         21    1    1    2  503  501 -0.86238642458E+01 -0.31178958046E+02  0.24446722342E+01  0.32441869270E+02  0.00000000000E+00 0.  1.
         -4    1    1    2    0  502 -0.57868577748E+02  0.90580745837E+02 -0.12182569358E+03  0.16246582232E+03  0.00000000000E+00 0.  1.
<scales pt_clust_5="13000.00000" pt_clust_6="13000.00000" pt_clust_7="13000.00000" pt_clust_8="13000.00000" pt_clust_9="32.34963" pt_clust_10="105.79733"></scales>
<clustering>
<clus scale="   32.350">  1  9  2 -1</clus>
<clus scale="   65.623">  5  6 -1 -1</clus>
<clus scale="   72.577">  1  5  2 -1</clus>
<clus scale="   90.505">  7  8 -1 -1</clus>
<clus scale="  105.797">  2 10  1 -1</clus>
<clus scale="  105.797">  2  5  1 -1</clus>
</clustering>
</event>
<event>
10    4  0.3738096E-005  0.2245016E+03  0.7546771E-02  0.1131318E+00
          2   -1    0    0  503    0 -0.00000000000E+00  0.00000000000E+00  0.11477032223E+03  0.11477032223E+03  0.00000000000E+00 0. -1.
         21   -1    0    0  501  502  0.00000000000E+00 -0.00000000000E+00 -0.94812188599E+03  0.94812188599E+03  0.00000000000E+00 0.  1.
         23    2    1    2    0    0 -0.20006824957E+03 -0.28998273768E+02 -0.10772952787E+03  0.24691198127E+03  0.92150262921E+02 0.  0.
         24    2    1    2    0    0  0.15773670853E+03  0.10722712740E+02 -0.66248881812E+03  0.68597859035E+03  0.81727269000E+02 0.  0.
        -13    1    4    4    0    0  0.15484531766E+03 -0.10536999163E+02 -0.55086142830E+03  0.57230797123E+03  0.00000000000E+00 0.  1.
         14    1    4    4    0    0  0.28913908673E+01  0.21259711903E+02 -0.11162738983E+03  0.11367061912E+03  0.00000000000E+00 0. -1.
        -11    1    3    3    0    0 -0.83385780489E+02 -0.57812977687E+02 -0.40955313301E+02  0.10942059433E+03  0.00000000000E+00 0. -1.
         11    1    3    3    0    0 -0.11668246908E+03  0.28814703919E+02 -0.66774214567E+02  0.13749138694E+03  0.00000000000E+00 0.  1.
         21    1    1    2  503  502 -0.29218483880E+02 -0.15424459500E+02 -0.28611884734E+02  0.43706677970E+02  0.00000000000E+00 0.  1.
          1    1    1    2  501    0  0.71550024916E+02  0.33700020527E+02 -0.34521333037E+02  0.86294958622E+02  0.00000000000E+00 0. -1.
<scales pt_clust_5="13000.00000" pt_clust_6="13000.00000" pt_clust_7="13000.00000" pt_clust_8="13000.00000" pt_clust_9="33.03988" pt_clust_10="71.12159"></scales>
<clustering>
<clus scale="   33.040">  1  9  2 -1</clus>
<clus scale="   71.122">  2 10  1 -1</clus>
<clus scale="   81.727">  5  6 -1 -1</clus>
<clus scale="   92.150">  7  8 -1 -1</clus>
<clus scale="  220.428">  2  5  1 -1</clus>
<clus scale="   71.122">  2  5  1 -1</clus>
</clustering>
</event>
<event>
10    4  0.3738096E-005  0.1158254E+03  0.7546771E-02  0.1254406E+00
         21   -1    0    0  501  502  0.00000000000E+00  0.00000000000E+00  0.41500612909E+02  0.41500612909E+02  0.00000000000E+00 0.  1.
          2   -1    0    0  503    0 -0.00000000000E+00 -0.00000000000E+00 -0.90665770239E+03  0.90665770239E+03  0.00000000000E+00 0. -1.
         23    2    1    2    0    0  0.54059152821E+02  0.22255989094E+02 -0.25781582263E+03  0.27985421818E+03  0.91824092605E+02 0.  0.
         24    2    1    2    0    0 -0.44192727534E+02 -0.87090231074E+02 -0.12936095661E+03  0.18058617491E+03  0.79620374012E+02 0.  0.
        -13    1    4    4    0    0 -0.47416125079E+02 -0.92910557945E+02 -0.81791799986E+02  0.13255398613E+03  0.00000000000E+00 0.  1.
         14    1    4    4    0    0  0.32233975449E+01  0.58203268712E+01 -0.47569156621E+02  0.48032188773E+02  0.00000000000E+00 0. -1.
        -13    1    3    3    0    0  0.18358637817E+02  0.42541968703E+02 -0.50599766340E+02  0.68609001139E+02  0.00000000000E+00 0.  1.
         13    1    3    3    0    0  0.35700515004E+02 -0.20285979609E+02 -0.20721605629E+03  0.21124521704E+03  0.00000000000E+00 0. -1.
         21    1    1    2  503  502  0.23398071672E+02  0.31417547432E+01 -0.18345536070E+03  0.18496813172E+03  0.00000000000E+00 0. -1.
          1    1    1    2  501    0 -0.33264496960E+02  0.61692487237E+02 -0.29452494954E+03  0.30274979049E+03  0.00000000000E+00 0. -1.
<scales pt_clust_5="13000.00000" pt_clust_6="13000.00000" pt_clust_7="13000.00000" pt_clust_8="13000.00000" pt_clust_9="23.60806" pt_clust_10="67.26439"></scales>
<clustering>
<clus scale="   23.608">  2  9  1 -1</clus>
<clus scale="   67.264">  1 10  2 -1</clus>
<clus scale="   79.620">  5  6 -1 -1</clus>
<clus scale="   91.824">  7  8 -1 -1</clus>
<clus scale="  106.411">  1  5  2 -1</clus>
<clus scale="   67.264">  1  5  2 -1</clus>
</clustering>
</event>
<event>
10    4  0.3738096E-005  0.1157754E+03  0.7546771E-02  0.1252737E+00
         21   -1    0    0  501  502  0.00000000000E+00  0.00000000000E+00  0.19635608479E+03  0.19635608479E+03  0.00000000000E+00 0. -1.
          2   -1    0    0  503    0 -0.00000000000E+00 -0.00000000000E+00 -0.22934917674E+03  0.22934917674E+03  0.00000000000E+00 0. -1.
         24    2    1    2    0    0 -0.70313269086E+02 -0.35915158429E+01 -0.11504349633E+03  0.15728141808E+03  0.80904781250E+02 0.  0.
         23    2    1    2    0    0  0.71511885648E+02  0.15741932424E+02 -0.11660813620E+02  0.11539643259E+03  0.88422869527E+02 0.  0.
        -11    1    3    3    0    0  0.69702845944E+01  0.22017078018E+02 -0.12219553641E+02  0.26127649779E+02  0.00000000000E+00 0.  1.
         12    1    3    3    0    0 -0.77283553681E+02 -0.25608593861E+02 -0.10282394269E+03  0.13115376830E+03  0.00000000000E+00 0. -1.
        -11    1    4    4    0    0  0.28378525168E+02 -0.23236720995E+02  0.27030186756E+02  0.45562230952E+02  0.00000000000E+00 0.  1.
         11    1    4    4    0    0  0.43133360480E+02  0.38978653419E+02 -0.38691000375E+02  0.69834201640E+02  0.00000000000E+00 0. -1.
         21    1    1    2  503  502 -0.11714799885E+02  0.18101082117E+02 -0.23280431459E+02  0.31731123507E+02  0.00000000000E+00 0. -1.
          1    1    1    2  501    0  0.10516183323E+02 -0.30251498698E+02  0.11699164945E+03  0.12129628736E+03  0.00000000000E+00 0. -1.
<scales pt_clust_5="13000.00000" pt_clust_6="13000.00000" pt_clust_7="13000.00000" pt_clust_8="13000.00000" pt_clust_9="21.56121" pt_clust_10="31.80394"></scales>
<clustering>
<clus scale="   21.561">  2  9  1 -1</clus>
<clus scale="   31.804">  1 10  2 -1</clus>
<clus scale="   80.905">  5  6 -1 -1</clus>
<clus scale="   88.423">  7  8 -1 -1</clus>
<clus scale="  110.140">  2  5  1 -1</clus>
<clus scale="   31.804">  1  5  2 -1</clus>
</clustering>
</event>
<event>
10    4  0.3738096E-005  0.1472515E+03  0.7546771E-02  0.1223986E+00
         -1   -1    0    0    0  501 -0.00000000000E+00  0.00000000000E+00  0.35624544169E+03  0.35624544169E+03  0.00000000000E+00 0.  1.
         21   -1    0    0  503  502  0.00000000000E+00 -0.00000000000E+00 -0.18678835237E+03  0.18678835237E+03  0.00000000000E+00 0.  1.
         24    2    1    2    0    0 -0.53174651507E+02 -0.44452078359E+02  0.38814585947E+02  0.11268077356E+03  0.79917794100E+02 0.  0.
         23    2    1    2    0    0 -0.39101390349E+02  0.71556575550E+02  0.12837973485E+03  0.17667774176E+03  0.89913324275E+02 0.  0.
        -13    1    3    3    0    0 -0.49931220402E+02 -0.52102622105E+01  0.50900371820E+02  0.71492107638E+02  0.00000000000E+00 0.  1.
         14    1    3    3    0    0 -0.32434311050E+01 -0.39241816149E+02 -0.12085785873E+02  0.41188665919E+02  0.00000000000E+00 0. -1.
        -13    1    4    4    0    0 -0.91512864110E+01  0.50709177723E+02  0.95948253058E+01  0.52414000238E+02  0.00000000000E+00 0.  1.
         13    1    4    4    0    0 -0.29950103938E+02  0.20847397827E+02  0.11878490954E+03  0.12426374152E+03  0.00000000000E+00 0. -1.
         21    1    1    2  503  501  0.40117558905E+02  0.87376794130E+02  0.62006154958E+02  0.11440666911E+03  0.00000000000E+00 0.  1.
         -2    1    1    2    0  502  0.52158482951E+02 -0.11448129132E+03 -0.59743386434E+02  0.13926860963E+03  0.00000000000E+00 0.  1.
<scales pt_clust_5="13000.00000" pt_clust_6="13000.00000" pt_clust_7="13000.00000" pt_clust_8="13000.00000" pt_clust_9="96.14636" pt_clust_10="116.61302"></scales>
<clustering>
<clus scale="   79.918">  5  6 -1 -1</clus>
<clus scale="   89.913">  7  8 -1 -1</clus>
<clus scale="   96.146">  1  9  2 -1</clus>
<clus scale="   96.146">  1  5  2 -1</clus>
<clus scale="  116.613">  2 10  1 -1</clus>
<clus scale="  116.613">  2  5  1 -1</clus>
</clustering>
</event>
<event>
10    4  0.3738096E-005  0.1852211E+03  0.7546771E-02  0.1164004E+00
         -3   -1    0    0    0  501 -0.00000000000E+00  0.00000000000E+00  0.53492278562E+03  0.53492278562E+03  0.00000000000E+00 0.  1.
         21   -1    0    0  503  502  0.00000000000E+00 -0.00000000000E+00 -0.14457036832E+03  0.14457036832E+03  0.00000000000E+00 0. -1.
         23    2    1    2    0    0 -0.37670347220E+02  0.15431315777E+03  0.35323723154E+03  0.39785812340E+03  0.91010652635E+02 0.  0.
         24    2    1    2    0    0 -0.19075528902E+02 -0.14207640779E+03  0.90110873777E+01  0.16468326577E+03  0.80559275532E+02 0.  0.
        -13    1    4    4    0    0 -0.39860023442E+02 -0.44563061676E+02  0.22884943885E+02  0.64018814354E+02  0.00000000000E+00 0.  1.
         14    1    4    4    0    0  0.20784494539E+02 -0.97513346116E+02 -0.13873856507E+02  0.10066445141E+03  0.00000000000E+00 0. -1.
        -13    1    3    3    0    0 -0.50800730853E+02  0.59349043056E+02  0.22192935960E+03  0.23527784388E+03  0.00000000000E+00 0. -1.
         13    1    3    3    0    0  0.13130383632E+02  0.94964114717E+02  0.13130787193E+03  0.16258027952E+03  0.00000000000E+00 0.  1.
         21    1    1    2  503  501  0.45103609525E+02  0.21483316967E+02  0.53471693057E+02  0.73178483577E+02  0.00000000000E+00 0.  1.
         -4    1    1    2    0  502  0.11642266597E+02 -0.33720066949E+02 -0.25367594672E+02  0.43773281188E+02  0.00000000000E+00 0.  1.
<scales pt_clust_5="13000.00000" pt_clust_6="13000.00000" pt_clust_7="13000.00000" pt_clust_8="13000.00000" pt_clust_9="49.70284" pt_clust_10="35.67331"></scales>
<clustering>
<clus scale="   35.673">  2 10  1 -1</clus>
<clus scale="   49.703">  1  9  2 -1</clus>
<clus scale="   80.559">  5  6 -1 -1</clus>
<clus scale="   91.011">  7  8 -1 -1</clus>
<clus scale="  180.316">  2  5  1 -1</clus>
<clus scale="   35.673">  2  5  1 -1</clus>
</clustering>
</event>
<event>
10    4  0.3738096E-005  0.3337242E+03  0.7546771E-02  0.1070111E+00
          2   -1    0    0  503    0 -0.00000000000E+00  0.00000000000E+00  0.10237894722E+04  0.10237894722E+04  0.00000000000E+00 0. -1.
         21   -1    0    0  501  502  0.00000000000E+00 -0.00000000000E+00 -0.40378431783E+03  0.40378431783E+03  0.00000000000E+00 0. -1.
         24    2    1    2    0    0  0.21120342249E+03 -0.17825201642E+03  0.10737364118E+03  0.30587510153E+03  0.75165230568E+02 0.  0.
         23    2    1    2    0    0 -0.30831368561E+03  0.23668516277E+03 -0.14170903766E+03  0.42482878638E+03  0.96544556440E+02 0.  0.
        -13    1    3    3    0    0  0.37945346393E+02 -0.75602677754E+02  0.24130279289E+02  0.87965246404E+02  0.00000000000E+00 0.  1.
         14    1    3    3    0    0  0.17325807610E+03 -0.10264933866E+03  0.83243361895E+02  0.21790985513E+03  0.00000000000E+00 0. -1.
        -11    1    4    4    0    0 -0.25557402008E+03  0.15666127832E+03 -0.78013314540E+02  0.30975298725E+03  0.00000000000E+00 0. -1.
         11    1    4    4    0    0 -0.52739665521E+02  0.80023884450E+02 -0.63695723116E+02  0.11507579913E+03  0.00000000000E+00 0.  1.
         21    1    1    2  503  502  0.20948408307E+02 -0.97912333537E+02  0.12278047019E+03  0.15843201927E+03  0.00000000000E+00 0. -1.
          1    1    1    2  501    0  0.76161854805E+02  0.39479187187E+02  0.53156008066E+03  0.53843788286E+03  0.00000000000E+00 0. -1.
<scales pt_clust_5="13000.00000" pt_clust_6="13000.00000" pt_clust_7="13000.00000" pt_clust_8="13000.00000" pt_clust_9="99.18720" pt_clust_10="85.78602"></scales>
<clustering>
<clus scale="   75.165">  5  6 -1 -1</clus>
<clus scale="   85.786">  2 10  1 -1</clus>
<clus scale="   96.545">  7  8 -1 -1</clus>
<clus scale="   99.187">  1  9  2 -1</clus>
<clus scale="  328.178">  1  5  2 -1</clus>
<clus scale="   85.786">  2  5  1 -1</clus>
</clustering>
</event>
<event>
10    4  0.3738096E-005  0.3344164E+03  0.7546771E-02  0.1069526E+00
          2   -1    0    0  503    0 -0.00000000000E+00  0.00000000000E+00  0.14693198009E+04  0.14693198009E+04  0.00000000000E+00 0. -1.
         21   -1    0    0  501  502  0.00000000000E+00 -0.00000000000E+00 -0.52762236486E+03  0.52762236486E+03  0.00000000000E+00 0. -1.
         24    2    1    2    0    0 -0.31566847245E+03 -0.26133962113E+03  0.85081391353E+03  0.94774315979E+03  0.79923709849E+02 0.  0.
         23    2    1    2    0    0  0.54061072927E+02  0.20211077246E+03 -0.53566809117E+02  0.23456250889E+03  0.91535804943E+02 0.  0.
        -13    1    3    3    0    0 -0.13124523070E+02 -0.24720266293E+02  0.10721233743E+03  0.11080536977E+03  0.00000000000E+00 0.  1.
         14    1    3    3    0    0 -0.30254394938E+03 -0.23661935484E+03  0.74360157610E+03  0.83693779002E+03  0.00000000000E+00 0. -1.
        -13    1    4    4    0    0 -0.84626624469E+01  0.91322287020E+02  0.10169042041E+02  0.92275599041E+02  0.00000000000E+00 0.  1.
         13    1    4    4    0    0  0.62523735374E+02  0.11078848544E+03 -0.63735851158E+02  0.14228690985E+03  0.00000000000E+00 0. -1.
         21    1    1    2  503  502  0.19481986557E+03 -0.97416390507E+02  0.43008227360E+03  0.48209490272E+03  0.00000000000E+00 0. -1.
          1    1    1    2  501    0  0.66787533946E+02  0.15664523918E+03 -0.28563194203E+03  0.33254159432E+03  0.00000000000E+00 0. -1.
<scales pt_clust_5="13000.00000" pt_clust_6="13000.00000" pt_clust_7="13000.00000" pt_clust_8="13000.00000" pt_clust_9="217.53228" pt_clust_10="170.28889"></scales>
<clustering>
<clus scale="   79.924">  5  6 -1 -1</clus>
<clus scale="   91.536">  7  8 -1 -1</clus>
<clus scale="  170.289">  2 10  1 -1</clus>
<clus scale="  217.532">  1  9  2 -1</clus>
<clus scale="  331.426">  1  5  2 -1</clus>
<clus scale="  170.289">  2  5  1 -1</clus>
</clustering>
</event>
<event>
10    4  0.3738096E-005  0.4620377E+03  0.7546771E-02  0.1024192E+00
         21   -1    0    0  501  502  0.00000000000E+00  0.00000000000E+00  0.10140030560E+03  0.10140030560E+03  0.00000000000E+00 0. -1.
          2   -1    0    0  503    0 -0.00000000000E+00 -0.00000000000E+00 -0.26889701980E+04  0.26889701980E+04  0.00000000000E+00 0. -1.
         24    2    1    2    0    0 -0.17801422388E+03  0.31887810048E+03 -0.54556972447E+03  0.66403743765E+03  0.99634770356E+02 0.  0.
         23    2    1    2    0    0 -0.17420695597E+02  0.44306219493E+02 -0.20488352834E+03  0.22946989570E+03  0.91720505483E+02 0.  0.
        -13    1    3    3    0    0 -0.82573334682E+02  0.60005647034E+02 -0.13153263512E+03  0.16649284482E+03  0.00000000000E+00 0.  1.
         14    1    3    3    0    0 -0.95440889194E+02  0.25887245345E+03 -0.41403708936E+03  0.49754459282E+03  0.00000000000E+00 0. -1.
        -13    1    4    4    0    0  0.12788760108E+02  0.65180900942E+02 -0.12505996957E+03  0.14160543146E+03  0.00000000000E+00 0.  1.
         13    1    4    4    0    0 -0.30209455706E+02 -0.20874681449E+02 -0.79823558779E+02  0.87864464237E+02  0.00000000000E+00 0. -1.
         21    1    1    2  503  502 -0.27373086323E+02 -0.91889256332E+02 -0.70708512989E+03  0.71355609604E+03  0.00000000000E+00 0.  1.
          1    1    1    2  501    0  0.22280800580E+03 -0.27129506364E+03 -0.11300315097E+04  0.11833070743E+04  0.00000000000E+00 0. -1.
<scales pt_clust_5="13000.00000" pt_clust_6="13000.00000" pt_clust_7="13000.00000" pt_clust_8="13000.00000" pt_clust_9="95.87972" pt_clust_10="385.22893"></scales>
<clustering>
<clus scale="   91.721">  7  8 -1 -1</clus>
<clus scale="   95.880">  2  9  1 -1</clus>
<clus scale="   99.635">  5  6 -1 -1</clus>
<clus scale="   99.988">  5  7 -1 -1</clus>
<clus scale="  385.229">  1 10  2 -1</clus>
<clus scale="  385.229">  1  5  2 -1</clus>
</clustering>
</event>
<event>
10    4  0.3738096E-005  0.9678460E+02  0.7546771E-02  0.1293282E+00
         21   -1    0    0  501  502  0.00000000000E+00  0.00000000000E+00  0.14834997265E+03  0.14834997265E+03  0.00000000000E+00 0. -1.
          2   -1    0    0  503    0 -0.00000000000E+00 -0.00000000000E+00 -0.16296066411E+03  0.16296066411E+03  0.00000000000E+00 0. -1.
         24    2    1    2    0    0  0.87802856132E+00 -0.47016481282E+02 -0.52510288643E+02  0.10803722869E+03  0.81874244569E+02 0.  0.
         23    2    1    2    0    0 -0.12398127100E+02 -0.81331060707E+01  0.84568750993E+01  0.94343979580E+02  0.92786889034E+02 0.  0.
        -13    1    3    3    0    0  0.28449313445E+02 -0.33484477218E+02  0.35850347611E+01  0.44084307007E+02  0.00000000000E+00 0.  1.
         14    1    3    3    0    0 -0.27571284884E+02 -0.13532004064E+02 -0.56095323404E+02  0.63952921684E+02  0.00000000000E+00 0. -1.
        -11    1    4    4    0    0 -0.79042248932E+00 -0.48487148989E+02  0.17199104183E+02  0.51453256160E+02  0.00000000000E+00 0. -1.
         11    1    4    4    0    0 -0.11607704611E+02  0.40354042918E+02 -0.87422290836E+01  0.42890723420E+02  0.00000000000E+00 0.  1.
         21    1    1    2  503  502  0.27079748474E+02  0.65839385498E+01 -0.22737270650E+02  0.35967269856E+02  0.00000000000E+00 0. -1.
          1    1    1    2  501    0 -0.15559649935E+02  0.48565648803E+02  0.52179992734E+02  0.72962158627E+02  0.00000000000E+00 0. -1.
<scales pt_clust_5="13000.00000" pt_clust_6="13000.00000" pt_clust_7="13000.00000" pt_clust_8="13000.00000" pt_clust_9="27.86864" pt_clust_10="50.88830"></scales>
<clustering>
<clus scale="   27.869">  2  9  1 -1</clus>
<clus scale="   50.888">  1 10  2 -1</clus>
<clus scale="   81.874">  5  6 -1 -1</clus>
<clus scale="   86.378">  2  5  1 -1</clus>
<clus scale="   92.787">  7  8 -1 -1</clus>
<clus scale="   50.888">  1  5  2 -1</clus>
</clustering>
</event>
<event>
10    4  0.3738096E-005  0.2078640E+03  0.7546771E-02  0.1170504E+00
         21   -1    0    0  503  502  0.00000000000E+00  0.00000000000E+00  0.35900139867E+03  0.35900139867E+03  0.00000000000E+00 0. -1.
          4   -1    0    0  502    0 -0.00000000000E+00 -0.00000000000E+00 -0.29989647589E+03  0.29989647589E+03  0.00000000000E+00 0. -1.
         23    2    1    2    0    0  0.11967582332E+02 -0.55050368067E+02  0.17405303392E+03  0.20583014981E+03  0.94328287921E+02 0.  0.
         24    2    1    2    0    0 -0.66272461467E+02  0.21167685078E+03 -0.11399083609E+03  0.26183386876E+03  0.79774280384E+02 0.  0.
        -13    1    4    4    0    0 -0.64444259856E+02  0.77509150013E+02 -0.38705381252E+02  0.10797609690E+03  0.00000000000E+00 0.  1.
         14    1    4    4    0    0 -0.18282016110E+01  0.13416770077E+03 -0.75285454842E+02  0.15385777186E+03  0.00000000000E+00 0. -1.
        -13    1    3    3    0    0 -0.10261416798E+02 -0.75047612921E+02  0.96257597697E+02  0.12248659516E+03  0.00000000000E+00 0. -1.
         13    1    3    3    0    0  0.22228999129E+02  0.19997244854E+02  0.77795436220E+02  0.83343554644E+02  0.00000000000E+00 0.  1.
         21    1    1    2  503  501 -0.18448210833E+02 -0.90888220264E+02  0.59862327094E+01  0.92934600918E+02  0.00000000000E+00 0. -1.
          3    1    1    2  501    0  0.72753089969E+02 -0.65738262447E+02 -0.69435077499E+01  0.98299255081E+02  0.00000000000E+00 0. -1.
<scales pt_clust_5="13000.00000" pt_clust_6="13000.00000" pt_clust_7="13000.00000" pt_clust_8="13000.00000" pt_clust_9="92.71578" pt_clust_10="92.71578"></scales>
<clustering>
<clus scale="   79.774">  5  6 -1 -1</clus>
<clus scale="   92.716">  9 10 -1 -1</clus>
<clus scale="   94.328">  7  8 -1 -1</clus>
<clus scale="  109.871">  2  7  1 -1</clus>
<clus scale="  201.203">  2  5  1 -1</clus>
<clus scale="  207.864">  1  5  2 -1</clus>
</clustering>
</event>
<event>
10    4  0.3738096E-005  0.3684704E+03  0.7546771E-02  0.1055279E+00
          2   -1    0    0  503    0 -0.00000000000E+00  0.00000000000E+00  0.14500537776E+04  0.14500537776E+04  0.00000000000E+00 0. -1.
         21   -1    0    0  501  502  0.00000000000E+00 -0.00000000000E+00 -0.30049872090E+03  0.30049872090E+03  0.00000000000E+00 0. -1.
         24    2    1    2    0    0  0.47989486202E+02 -0.84751205447E+02  0.41860904408E+03  0.43717079328E+03  0.79993831673E+02 0.  0.
         23    2    1    2    0    0  0.28109358047E+02 -0.18645305102E+03  0.65966228974E+03  0.69214752579E+03  0.91427483356E+02 0.  0.
        -11    1    3    3    0    0  0.56291640250E+02 -0.22359440596E+02  0.24895724548E+03  0.25621944388E+03  0.00000000000E+00 0.  1.
         12    1    3    3    0    0 -0.83021540484E+01 -0.62391764850E+02  0.16965179860E+03  0.18095134940E+03  0.00000000000E+00 0. -1.
        -11    1    4    4    0    0  0.24922915362E+02 -0.14478079697E+03  0.60900938967E+03  0.62647830576E+03  0.00000000000E+00 0. -1.
         11    1    4    4    0    0  0.31864426850E+01 -0.41672254047E+02  0.50652900072E+02  0.65669220036E+02  0.00000000000E+00 0.  1.
         21    1    1    2  503  502 -0.38717632652E+02 -0.50309211468E+02  0.24555058390E+03  0.25362405464E+03  0.00000000000E+00 0. -1.
          1    1    1    2  501    0 -0.37381211597E+02  0.32151346794E+03 -0.17426686097E+03  0.36761012483E+03  0.00000000000E+00 0. -1.
<scales pt_clust_5="13000.00000" pt_clust_6="13000.00000" pt_clust_7="13000.00000" pt_clust_8="13000.00000" pt_clust_9="63.48285" pt_clust_10="320.03498"></scales>
<clustering>
<clus scale="   63.483">  1  9  2 -1</clus>
<clus scale="   79.994">  5  6 -1 -1</clus>
<clus scale="   91.427">  7  8 -1 -1</clus>
<clus scale="   99.389">  5  7 -1 -1</clus>
<clus scale="  320.035">  2 10  1 -1</clus>
<clus scale="  320.035">  2  5  1 -1</clus>
</clustering>
</event>
<event>
10    4  0.3738096E-005  0.9590848E+02  0.7546771E-02  0.1295809E+00
         21   -1    0    0  503  502  0.00000000000E+00  0.00000000000E+00  0.34849919568E+03  0.34849919568E+03  0.00000000000E+00 0. -1.
         -1   -1    0    0    0  501 -0.00000000000E+00 -0.00000000000E+00 -0.86304362362E+02  0.86304362362E+02  0.00000000000E+00 0.  1.
         23    2    1    2    0    0  0.36020743852E+02  0.64019379184E+01 -0.57512956556E+01  0.98767257987E+02  0.91560990885E+02 0.  0.
         24    2    1    2    0    0 -0.34368214472E+02 -0.27733233222E+01  0.23904627429E+03  0.25434171426E+03  0.79735317593E+02 0.  0.
        -11    1    4    4    0    0 -0.22256603419E+02  0.90545662127E+01  0.12353294504E+02  0.27017502664E+02  0.00000000000E+00 0.  1.
         12    1    4    4    0    0 -0.12111611053E+02 -0.11827889535E+02  0.22669297978E+03  0.22732421159E+03  0.00000000000E+00 0. -1.
        -11    1    3    3    0    0 -0.28323087815E+02 -0.44035617590E+01  0.12117947586E+02  0.31119661201E+02  0.00000000000E+00 0. -1.
         11    1    3    3    0    0  0.64343831667E+02  0.10805499677E+02 -0.17869243241E+02  0.67647596786E+02  0.00000000000E+00 0.  1.
         21    1    1    2  503  501 -0.26599837530E+02  0.24453034586E+02  0.24984148791E+02  0.43928463983E+02  0.00000000000E+00 0. -1.
         -2    1    1    2    0  502  0.24947308150E+02 -0.28081649183E+02  0.39157058997E+01  0.37766121821E+02  0.00000000000E+00 0.  1.
<scales pt_clust_5="13000.00000" pt_clust_6="13000.00000" pt_clust_7="13000.00000" pt_clust_8="13000.00000" pt_clust_9="36.13173" pt_clust_10="29.65469"></scales>
<clustering>
<clus scale="   36.132">  2  9  1 -1</clus>
<clus scale="   29.655">  1 10  2 -1</clus>
<clus scale="   79.735">  5  6 -1 -1</clus>
<clus scale="   84.692">  1  5  2 -1</clus>
<clus scale="   91.561">  7  8 -1 -1</clus>
<clus scale="   29.655">  1  5  2 -1</clus>
</clustering>
</event>
<event>
10    4  0.3738096E-005  0.3571767E+03  0.7546771E-02  0.1102052E+00
          2   -1    0    0  503    0 -0.00000000000E+00  0.00000000000E+00  0.15749543318E+04  0.15749543318E+04  0.00000000000E+00 0. -1.
         21   -1    0    0  501  502  0.00000000000E+00 -0.00000000000E+00 -0.14109410606E+03  0.14109410606E+03  0.00000000000E+00 0. -1.
         24    2    1    2    0    0 -0.29749026995E+03 -0.98377337034E+01  0.30814444015E+03  0.43603340246E+03  0.81085697552E+02 0.  0.
         23    2    1    2    0    0  0.10493668787E+02 -0.64541069708E+02  0.10894921497E+03  0.15657755139E+03  0.91492794210E+02 0.  0.
        -13    1    3    3    0    0 -0.49889547983E+02  0.24254376661E+02  0.81820309844E+02  0.98852439971E+02  0.00000000000E+00 0.  1.
         14    1    3    3    0    0 -0.24760072196E+03 -0.34092110364E+02  0.22632413030E+03  0.33718096249E+03  0.00000000000E+00 0. -1.
        -11    1    4    4    0    0 -0.38348404080E+01 -0.28386905885E+02  0.11383335039E+03  0.11738208588E+03  0.00000000000E+00 0.  1.
         11    1    4    4    0    0  0.14328509195E+02 -0.36154163823E+02 -0.48841354117E+01  0.39195465505E+02  0.00000000000E+00 0. -1.
         21    1    1    2  503  502  0.37428049763E+03  0.95598613393E+02  0.78578520965E+03  0.87560458056E+03  0.00000000000E+00 0. -1.
          1    1    1    2  501    0 -0.87283896472E+02 -0.21219809982E+02  0.23098136094E+03  0.24783290343E+03  0.00000000000E+00 0. -1.
<scales pt_clust_5="13000.00000" pt_clust_6="13000.00000" pt_clust_7="13000.00000" pt_clust_8="13000.00000" pt_clust_9="347.85103" pt_clust_10="89.82632"></scales>
<clustering>
<clus scale="   81.086">  5  6 -1 -1</clus>
<clus scale="   89.826">  2 10  1 -1</clus>
<clus scale="   91.493">  7  8 -1 -1</clus>
<clus scale="  114.322">  2  7  1 -1</clus>
<clus scale="  347.851">  1  9  2 -1</clus>
<clus scale="   89.826">  2  5  1 -1</clus>
</clustering>
</event>
<event>
10    4  0.3738096E-005  0.1511850E+03  0.7546771E-02  0.1209866E+00
         21   -1    0    0  501  502  0.00000000000E+00  0.00000000000E+00  0.55553521492E+03  0.55553521492E+03  0.00000000000E+00 0. -1.
          2   -1    0    0  503    0 -0.00000000000E+00 -0.00000000000E+00 -0.13149171351E+03  0.13149171351E+03  0.00000000000E+00 0. -1.
         23    2    1    2    0    0  0.98321501718E+02  0.67362782358E+02  0.77508119173E+02  0.18619174656E+03  0.12022893080E+03 0.  0.
         24    2    1    2    0    0 -0.94362184515E+02  0.20044420012E+02  0.32873352391E+03  0.35113013850E+03  0.76945719704E+02 0.  0.
        -13    1    4    4    0    0 -0.72468052299E+02  0.35400694515E+02  0.14909086974E+03  0.16950786181E+03  0.00000000000E+00 0.  1.
         14    1    4    4    0    0 -0.21894132215E+02 -0.15356274503E+02  0.17964265417E+03  0.18162227669E+03  0.00000000000E+00 0. -1.
        -11    1    3    3    0    0  0.93039995356E+02  0.24053692417E+02 -0.13051521325E+01  0.96107878329E+02  0.00000000000E+00 0. -1.
         11    1    3    3    0    0  0.52815063616E+01  0.43309089941E+02  0.78813271306E+02  0.90083868228E+02  0.00000000000E+00 0.  1.
         21    1    1    2  503  502 -0.36071307318E+02 -0.10363395173E+02 -0.34686783815E+02  0.51104913096E+02  0.00000000000E+00 0. -1.
          1    1    1    2  501    0  0.32111990115E+02 -0.77043807197E+02  0.52488642153E+02  0.98600130282E+02  0.00000000000E+00 0. -1.
<scales pt_clust_5="13000.00000" pt_clust_6="13000.00000" pt_clust_7="13000.00000" pt_clust_8="13000.00000" pt_clust_9="37.53051" pt_clust_10="82.91571"></scales>
<clustering>
<clus scale="   37.531">  2  9  1 -1</clus>
<clus scale="   76.946">  5  6 -1 -1</clus>
<clus scale="   82.916">  1 10  2 -1</clus>
<clus scale="  119.677">  1  5  2 -1</clus>
<clus scale="  120.229">  7  8 -1 -1</clus>
<clus scale="   82.916">  1  5  2 -1</clus>
</clustering>
</event>
<event>
10    4  0.3738096E-005  0.1758645E+03  0.7546771E-02  0.1175755E+00
          2   -1    0    0  503    0 -0.00000000000E+00  0.00000000000E+00  0.52763874302E+03  0.52763874302E+03  0.00000000000E+00 0. -1.
         21   -1    0    0  501  502  0.00000000000E+00 -0.00000000000E+00 -0.14608565473E+03  0.14608565473E+03  0.00000000000E+00 0. -1.
         23    2    1    2    0    0  0.99602210756E+02 -0.45391423588E+02  0.12746733424E+03  0.19931916832E+03  0.10723445267E+03 0.  0.
         24    2    1    2    0    0 -0.20355069678E+03 -0.86612063800E+01  0.65277314449E+02  0.22860161220E+03  0.80558467349E+02 0.  0.
        -11    1    4    4    0    0 -0.14899117310E+03 -0.51674329188E+01  0.78132407969E+01  0.14928536016E+03  0.00000000000E+00 0.  1.
         12    1    4    4    0    0 -0.54559523678E+02 -0.34937734611E+01  0.57464073652E+02  0.79316252040E+02  0.00000000000E+00 0. -1.
        -13    1    3    3    0    0  0.68447628491E+02  0.11386656312E+02  0.17278749330E+02  0.71507265130E+02  0.00000000000E+00 0.  1.
         13    1    3    3    0    0  0.31154582265E+02 -0.56778079900E+02  0.11018858491E+03  0.12781190319E+03  0.00000000000E+00 0. -1.
         21    1    1    2  503  502  0.18986383620E+02  0.15132693015E+02  0.13663177415E+03  0.13877219775E+03  0.00000000000E+00 0. -1.
          1    1    1    2  501    0  0.84962102406E+02  0.38919936953E+02  0.52176665457E+02  0.10703141948E+03  0.00000000000E+00 0. -1.
<scales pt_clust_5="13000.00000" pt_clust_6="13000.00000" pt_clust_7="13000.00000" pt_clust_8="13000.00000" pt_clust_9="24.27923" pt_clust_10="98.26994"></scales>
<clustering>
<clus scale="   24.279">  1  9  2 -1</clus>
<clus scale="   80.558">  5  6 -1 -1</clus>
<clus scale="   98.270">  2 10  1 -1</clus>
<clus scale="  107.234">  7  8 -1 -1</clus>
<clus scale="  160.993">  2  5  1 -1</clus>
<clus scale="   98.270">  2  5  1 -1</clus>
</clustering>
</event>
<event>
10    4  0.3738096E-005  0.1342281E+03  0.7546771E-02  0.1223350E+00
          2   -1    0    0  503    0 -0.00000000000E+00  0.00000000000E+00  0.16880552472E+03  0.16880552472E+03  0.00000000000E+00 0. -1.
         21   -1    0    0  501  502  0.00000000000E+00 -0.00000000000E+00 -0.22876655405E+03  0.22876655405E+03  0.00000000000E+00 0. -1.
         23    2    1    2    0    0  0.62346021862E+02  0.56269258687E+02  0.67320794574E+01  0.12255744000E+03  0.89004209391E+02 0.  0.
         24    2    1    2    0    0 -0.77693090998E+02 -0.11158701744E+03 -0.64750995590E+02  0.17067728843E+03  0.80312928624E+02 0.  0.
        -11    1    4    4    0    0 -0.36434682572E+02 -0.41651512626E+02 -0.70090827092E+02  0.89303183821E+02  0.00000000000E+00 0.  1.
         12    1    4    4    0    0 -0.41258408426E+02 -0.69935504818E+02  0.53398315016E+01  0.81374104606E+02  0.00000000000E+00 0. -1.
        -13    1    3    3    0    0 -0.16883765013E+02  0.22006416400E+02  0.21356644073E+02  0.35006429836E+02  0.00000000000E+00 0.  1.
         13    1    3    3    0    0  0.79229786874E+02  0.34262842287E+02 -0.14624564616E+02  0.87551010160E+02  0.00000000000E+00 0. -1.
         21    1    1    2  503  502  0.30777592151E+02 -0.50861180436E+01 -0.22753833997E+02  0.38611730561E+02  0.00000000000E+00 0.  1.
          1    1    1    2  501    0 -0.15430523014E+02  0.60403876800E+02  0.20811720797E+02  0.65725619780E+02  0.00000000000E+00 0. -1.
<scales pt_clust_5="13000.00000" pt_clust_6="13000.00000" pt_clust_7="13000.00000" pt_clust_8="13000.00000" pt_clust_9="31.19501" pt_clust_10="61.00736"></scales>
<clustering>
<clus scale="   31.195">  2  9  1 -1</clus>
<clus scale="   61.007">  2 10  1 -1</clus>
<clus scale="   80.313">  5  6 -1 -1</clus>
<clus scale="   89.004">  7  8 -1 -1</clus>
<clus scale="  128.630">  2  5  1 -1</clus>
<clus scale="   31.195">  2  5  1 -1</clus>
</clustering>
</event>
<event>
10    4  0.3738096E-005  0.1916300E+03  0.7546771E-02  0.1158123E+00
         21   -1    0    0  501  502  0.00000000000E+00  0.00000000000E+00  0.49937965652E+03  0.49937965652E+03  0.00000000000E+00 0. -1.
          2   -1    0    0  503    0 -0.00000000000E+00 -0.00000000000E+00 -0.87592027627E+03  0.87592027627E+03  0.00000000000E+00 0. -1.
         24    2    1    2    0    0  0.11449346504E+03 -0.68876967002E+02 -0.65722150699E+03  0.67535977548E+03  0.79485388344E+02 0.  0.
         23    2    1    2    0    0 -0.23266282918E+03 -0.93011043994E+02  0.12490162151E+02  0.26671372157E+03  0.90538161763E+02 0.  0.
        -11    1    3    3    0    0  0.23842817104E+02 -0.59309724176E+02 -0.24759084753E+03  0.25570950528E+03  0.00000000000E+00 0.  1.
         12    1    3    3    0    0  0.90650647941E+02 -0.95672428257E+01 -0.40963065946E+03  0.41965027020E+03  0.00000000000E+00 0. -1.
        -11    1    4    4    0    0 -0.10290690972E+03 -0.89871816719E+02  0.67336210560E+01  0.13679224087E+03  0.00000000000E+00 0. -1.
         11    1    4    4    0    0 -0.12975591946E+03 -0.31392272749E+01  0.57565410946E+01  0.12992148070E+03  0.00000000000E+00 0.  1.
         21    1    1    2  503  502  0.50427361278E+02  0.21183164151E+02 -0.52951474434E+02  0.76128206688E+02  0.00000000000E+00 0.  1.
          1    1    1    2  501    0  0.67742002859E+02  0.14070484685E+03  0.32114219952E+03  0.35709822905E+03  0.00000000000E+00 0. -1.
<scales pt_clust_5="13000.00000" pt_clust_6="13000.00000" pt_clust_7="13000.00000" pt_clust_8="13000.00000" pt_clust_9="54.69593" pt_clust_10="157.07249"></scales>
<clustering>
<clus scale="   54.696">  2  9  1 -1</clus>
<clus scale="   79.485">  5  6 -1 -1</clus>
<clus scale="   90.538">  7  8 -1 -1</clus>
<clus scale="  157.072">  1 10  2 -1</clus>
<clus scale="  186.662">  2  5  1 -1</clus>
<clus scale="  157.072">  1  5  2 -1</clus>
</clustering>
</event>
<event>
10    4  0.3738096E-005  0.1298006E+03  0.7546771E-02  0.1228121E+00
         21   -1    0    0  501  502  0.00000000000E+00  0.00000000000E+00  0.55139113978E+02  0.55139113978E+02  0.00000000000E+00 0. -1.
          2   -1    0    0  503    0 -0.00000000000E+00 -0.00000000000E+00 -0.11814691192E+04  0.11814691192E+04  0.00000000000E+00 0. -1.
         23    2    1    2    0    0 -0.50889285271E+02  0.14385632502E+03 -0.67816537533E+03  0.69928963019E+03  0.76245321129E+02 0.  0.
         24    2    1    2    0    0  0.23541088743E+02 -0.55332091334E+02 -0.23717891757E+03  0.25678487852E+03  0.77902578287E+02 0.  0.
        -13    1    4    4    0    0 -0.24708028927E+02 -0.41317040820E+02 -0.11311519297E+03  0.12293344311E+03  0.00000000000E+00 0.  1.
         14    1    4    4    0    0  0.48249117671E+02 -0.14015050514E+02 -0.12406372460E+03  0.13385143540E+03  0.00000000000E+00 0. -1.
        -13    1    3    3    0    0  0.16893244119E+01  0.87699766064E+02 -0.26853103792E+03  0.28249428509E+03  0.00000000000E+00 0.  1.
         13    1    3    3    0    0 -0.52578609683E+02  0.56156558961E+02 -0.40963433741E+03  0.41679534510E+03  0.00000000000E+00 0. -1.
         21    1    1    2  503  502  0.28334392170E+02 -0.13745613773E+02 -0.20288102885E+03  0.20531071950E+03  0.00000000000E+00 0.  1.
          1    1    1    2  501    0 -0.98619564211E+00 -0.74778619919E+02 -0.81046834525E+01  0.75223004943E+02  0.00000000000E+00 0. -1.
<scales pt_clust_5="13000.00000" pt_clust_6="13000.00000" pt_clust_7="13000.00000" pt_clust_8="13000.00000" pt_clust_9="31.49253" pt_clust_10="75.36490"></scales>
<clustering>
<clus scale="   31.493">  2  9  1 -1</clus>
<clus scale="   75.365">  1 10  2 -1</clus>
<clus scale="   76.245">  7  8 -1 -1</clus>
<clus scale="   77.903">  5  6 -1 -1</clus>
<clus scale="  128.813">  2  7  1 -1</clus>
<clus scale="   75.365">  1  5  2 -1</clus>
</clustering>
</event>
<event>
10    4  0.3738096E-005  0.2219327E+03  0.7546771E-02  0.1132822E+00
         21   -1    0    0  501  502  0.00000000000E+00  0.00000000000E+00  0.96402051558E+02  0.96402051558E+02  0.00000000000E+00 0.  1.
          2   -1    0    0  503    0 -0.00000000000E+00 -0.00000000000E+00 -0.97977734049E+03  0.97977734049E+03  0.00000000000E+00 0. -1.
         23    2    1    2    0    0  0.23797318306E+03 -0.29824454619E+02 -0.43005059707E+03  0.50044368986E+03  0.89328812451E+02 0.  0.
         24    2    1    2    0    0 -0.15655343973E+03 -0.20862288865E+02 -0.10626899197E+03  0.21237397640E+03  0.94156213856E+02 0.  0.
        -13    1    4    4    0    0 -0.41264504126E+01 -0.30832173675E+02 -0.18971521794E+02  0.36435822561E+02  0.00000000000E+00 0.  1.
         14    1    4    4    0    0 -0.15242698932E+03  0.99698848102E+01 -0.87297470180E+02  0.17593815384E+03  0.00000000000E+00 0. -1.
        -11    1    3    3    0    0  0.18393109754E+03 -0.60701104657E+02 -0.32607143742E+03  0.37925961432E+03  0.00000000000E+00 0. -1.
         11    1    3    3    0    0  0.54042085522E+02  0.30876650038E+02 -0.10397915965E+03  0.12118407555E+03  0.00000000000E+00 0.  1.
         21    1    1    2  503  502 -0.27620658585E+02  0.54396176322E+01 -0.43812138724E+02  0.52076805972E+02  0.00000000000E+00 0. -1.
          1    1    1    2  501    0 -0.53799084751E+02  0.45247125852E+02 -0.30324356116E+03  0.31128491981E+03  0.00000000000E+00 0. -1.
<scales pt_clust_5="13000.00000" pt_clust_6="13000.00000" pt_clust_7="13000.00000" pt_clust_8="13000.00000" pt_clust_9="28.15120" pt_clust_10="78.55001"></scales>
<clustering>
<clus scale="   28.151">  2  9  1 -1</clus>
<clus scale="   78.550">  1 10  2 -1</clus>
<clus scale="   89.329">  7  8 -1 -1</clus>
<clus scale="   94.156">  5  6 -1 -1</clus>
<clus scale="  219.928">  2  7  1 -1</clus>
<clus scale="   78.550">  1  5  2 -1</clus>
</clustering>
</event>
<event>
10    4  0.3738096E-005  0.2526463E+03  0.7546771E-02  0.1137043E+00
         21   -1    0    0  501  502  0.00000000000E+00  0.00000000000E+00  0.10456669356E+03  0.10456669356E+03  0.00000000000E+00 0. -1.
          2   -1    0    0  503    0 -0.00000000000E+00 -0.00000000000E+00 -0.10397992748E+04  0.10397992748E+04  0.00000000000E+00 0. -1.
         24    2    1    2    0    0  0.31306677600E+02 -0.10844565142E+03 -0.29484132193E+03  0.32569075035E+03  0.80015575814E+02 0.  0.
         23    2    1    2    0    0  0.68007405671E+02  0.26609097154E+03 -0.33942025210E+03  0.45222865553E+03  0.11779319584E+03 0.  0.
        -13    1    3    3    0    0 -0.26612727995E+02 -0.24247514753E+02 -0.83851714855E+02  0.91253982637E+02  0.00000000000E+00 0.  1.
         14    1    3    3    0    0  0.57919405594E+02 -0.84198136671E+02 -0.21098960707E+03  0.23443676771E+03  0.00000000000E+00 0. -1.
        -13    1    4    4    0    0 -0.11550593806E+02  0.10671719630E+03 -0.19628420801E+03  0.22371738090E+03  0.00000000000E+00 0.  1.
         13    1    4    4    0    0  0.79557999477E+02  0.15937377524E+03 -0.14313604409E+03  0.22851127463E+03  0.00000000000E+00 0. -1.
         21    1    1    2  503  502 -0.16974117018E+02  0.11234763313E+02 -0.39959567473E+02  0.44845374208E+02  0.00000000000E+00 0. -1.
          1    1    1    2  501    0 -0.82339966252E+02 -0.16888008343E+03 -0.26101143971E+03  0.32160118824E+03  0.00000000000E+00 0. -1.
<scales pt_clust_5="13000.00000" pt_clust_6="13000.00000" pt_clust_7="13000.00000" pt_clust_8="13000.00000" pt_clust_9="20.35536" pt_clust_10="223.50595"></scales>
<clustering>
<clus scale="   20.355">  2  9  1 -1</clus>
<clus scale="   80.016">  5  6 -1 -1</clus>
<clus scale="  117.793">  7  8 -1 -1</clus>
<clus scale="  134.516">  2  5  1 -1</clus>
<clus scale="  223.506">  1 10  2 -1</clus>
<clus scale="  223.506">  1  5  2 -1</clus>
</clustering>
</event>
<event>
10    4  0.3738096E-005  0.2251591E+03  0.7546771E-02  0.1153811E+00
         21   -1    0    0  501  502  0.00000000000E+00  0.00000000000E+00  0.16518919466E+03  0.16518919466E+03  0.00000000000E+00 0. -1.
          2   -1    0    0  503    0 -0.00000000000E+00 -0.00000000000E+00 -0.96825973762E+03  0.96825973762E+03  0.00000000000E+00 0. -1.
         24    2    1    2    0    0  0.79918112647E+02 -0.54842611964E+02  0.53831628905E+02  0.13730135131E+03  0.80988888034E+02 0.  0.
         23    2    1    2    0    0 -0.24194364679E+03  0.11526000748E+03 -0.35726116748E+03  0.45875422695E+03  0.10487278676E+03 0.  0.
        -13    1    3    3    0    0  0.79006536778E+02 -0.87876004860E+01  0.41204062090E+02  0.89537866340E+02  0.00000000000E+00 0.  1.
         14    1    3    3    0    0  0.91157586849E+00 -0.46055011478E+02  0.12627566815E+02  0.47763484970E+02  0.00000000000E+00 0. -1.
        -11    1    4    4    0    0 -0.11816416882E+03  0.51284486480E+01 -0.18637363868E+03  0.22073559969E+03  0.00000000000E+00 0.  1.
         11    1    4    4    0    0 -0.12377947798E+03  0.11013155884E+03 -0.17088752881E+03  0.23801862726E+03  0.00000000000E+00 0. -1.
         21    1    1    2  503  502  0.45317435183E+02  0.23403461765E+02 -0.17700505665E+03  0.18420690007E+03  0.00000000000E+00 0. -1.
          1    1    1    2  501    0  0.11670809896E+03 -0.83820857286E+02 -0.32263594773E+03  0.35318645394E+03  0.00000000000E+00 0. -1.
<scales pt_clust_5="13000.00000" pt_clust_6="13000.00000" pt_clust_7="13000.00000" pt_clust_8="13000.00000" pt_clust_9="51.00384" pt_clust_10="199.24442"></scales>
<clustering>
<clus scale="   51.004">  2  9  1 -1</clus>
<clus scale="   80.989">  5  6 -1 -1</clus>
<clus scale="  104.873">  7  8 -1 -1</clus>
<clus scale="  127.314">  2  5  1 -1</clus>
<clus scale="  199.244">  1 10  2 -1</clus>
<clus scale="  199.244">  1  5  2 -1</clus>
</clustering>
</event>
<event>
10    4  0.3738096E-005  0.2141681E+03  0.7546771E-02  0.1171362E+00
         -1   -1    0    0    0  501 -0.00000000000E+00  0.00000000000E+00  0.63726014650E+03  0.63726014650E+03  0.00000000000E+00 0.  1.
         21   -1    0    0  503  502  0.00000000000E+00 -0.00000000000E+00 -0.20278091028E+03  0.20278091028E+03  0.00000000000E+00 0.  1.
         24    2    1    2    0    0  0.24665406589E+02 -0.56549976916E+02  0.39017688220E+01  0.10087194809E+03  0.79709748085E+02 0.  0.
         23    2    1    2    0    0 -0.18248410667E+03  0.25177273148E+02  0.41177333348E+03  0.45982773442E+03  0.89162340211E+02 0.  0.
        -13    1    3    3    0    0 -0.12520436095E+02 -0.51130830568E+02 -0.20026110121E+02  0.56322004947E+02  0.00000000000E+00 0.  1.
         14    1    3    3    0    0  0.37185842684E+02 -0.54191463477E+01  0.23927878943E+02  0.44549943142E+02  0.00000000000E+00 0. -1.
        -11    1    4    4    0    0 -0.10325208665E+03  0.25231794679E+02  0.32677834179E+03  0.34363021043E+03  0.00000000000E+00 0.  1.
         11    1    4    4    0    0 -0.79232020024E+02 -0.54521531111E-01  0.84994991690E+02  0.11619752399E+03  0.00000000000E+00 0. -1.
         21    1    1    2  503  501 -0.39135989520E+02  0.28682172878E+02  0.60954841484E+02  0.77908827594E+02  0.00000000000E+00 0. -1.
         -2    1    1    2    0  502  0.19695468960E+03  0.26905308903E+01 -0.42150707570E+02  0.20143254668E+03  0.00000000000E+00 0.  1.
<scales pt_clust_5="13000.00000" pt_clust_6="13000.00000" pt_clust_7="13000.00000" pt_clust_8="13000.00000" pt_clust_9="48.52105" pt_clust_10="194.72554"></scales>
<clustering>
<clus scale="   48.521">  1  9  2 -1</clus>
<clus scale="   79.710">  5  6 -1 -1</clus>
<clus scale="   89.162">  7  8 -1 -1</clus>
<clus scale="   98.502">  1  5  2 -1</clus>
<clus scale="  194.726">  2 10  1 -1</clus>
<clus scale="  194.726">  2  5  1 -1</clus>
</clustering>
</event>
<event>
10    4  0.3738096E-005  0.1022802E+03  0.7546771E-02  0.1280812E+00
         21   -1    0    0  501  502  0.00000000000E+00  0.00000000000E+00  0.30224666504E+03  0.30224666504E+03  0.00000000000E+00 0.  1.
          4   -1    0    0  503    0 -0.00000000000E+00 -0.00000000000E+00 -0.22459338926E+03  0.22459338926E+03  0.00000000000E+00 0. -1.
         24    2    1    2    0    0 -0.22703431431E+02  0.43572544462E+01 -0.13033139255E+03  0.15448363920E+03  0.79652315914E+02 0.  0.
         23    2    1    2    0    0  0.17033127325E+02  0.23730818945E+02  0.98859516224E+02  0.13735815735E+03  0.90778743366E+02 0.  0.
        -13    1    3    3    0    0 -0.28779940440E+02  0.32223501680E+02 -0.36970752994E+02  0.56863658071E+02  0.00000000000E+00 0.  1.
         14    1    3    3    0    0  0.60765090095E+01 -0.27866247234E+02 -0.93360639560E+02  0.97619981130E+02  0.00000000000E+00 0. -1.
        -11    1    4    4    0    0  0.26608018105E+02 -0.25209462399E+02  0.14614420623E+02  0.39459915256E+02  0.00000000000E+00 0. -1.
         11    1    4    4    0    0 -0.95748907799E+01  0.48940281344E+02  0.84245095601E+02  0.97898242090E+02  0.00000000000E+00 0.  1.
         21    1    1    2  503  502 -0.33603238889E+02 -0.16815326766E+02 -0.54583978250E+02  0.66267213308E+02  0.00000000000E+00 0. -1.
          3    1    1    2  501    0  0.39273542995E+02 -0.11272746626E+02  0.16370913036E+03  0.16873104445E+03  0.00000000000E+00 0. -1.
<scales pt_clust_5="13000.00000" pt_clust_6="13000.00000" pt_clust_7="13000.00000" pt_clust_8="13000.00000" pt_clust_9="37.57570" pt_clust_10="40.43816"></scales>
<clustering>
<clus scale="   37.576">  2  9  1 -1</clus>
<clus scale="   40.438">  1 10  2 -1</clus>
<clus scale="   79.652">  5  6 -1 -1</clus>
<clus scale="   90.779">  7  8 -1 -1</clus>
<clus scale="   92.547">  2  5  1 -1</clus>
<clus scale="   40.438">  1  5  2 -1</clus>
</clustering>
</event>
<event>
10    4  0.5153549E-005  0.9785526E+02  0.7546771E-02  0.1291499E+00
         -3   -1    0    0    0  501 -0.00000000000E+00  0.00000000000E+00  0.44451783942E+03  0.44451783942E+03  0.00000000000E+00 0.  1.
         21   -1    0    0  503  502  0.00000000000E+00 -0.00000000000E+00 -0.34118456859E+03  0.34118456859E+03  0.00000000000E+00 0.  1.
         23    2    1    2    0    0 -0.25848264543E+02 -0.42772984010E+02  0.39548066031E+03  0.40894700260E+03  0.91296425555E+02 0.  0.
         24    2    1    2    0    0  0.21491980467E+02 -0.15063728079E+02 -0.28363755152E+03  0.29557357448E+03  0.78896490200E+02 0.  0.
        -13    1    4    4    0    0 -0.97112273100E+01 -0.40828111522E+02 -0.12502441328E+03  0.13188004603E+03  0.00000000000E+00 0.  1.
         14    1    4    4    0    0  0.31203207777E+02  0.25764383442E+02 -0.15861313824E+03  0.16369352844E+03  0.00000000000E+00 0. -1.
        -11    1    3    3    0    0 -0.58581320369E+02 -0.19442100773E+02  0.19724314769E+03  0.20667516950E+03  0.00000000000E+00 0.  1.
         11    1    3    3    0    0  0.32733055826E+02 -0.23330883237E+02  0.19823751262E+03  0.20227183310E+03  0.00000000000E+00 0. -1.
         21    1    1    2  503  501 -0.26473518802E+01  0.21099130161E+02  0.23687728103E+02  0.31832219970E+02  0.00000000000E+00 0.  1.
         -4    1    1    2    0  502  0.70036359563E+01  0.36737581928E+02 -0.32197566053E+02  0.49349610963E+02  0.00000000000E+00 0.  1.
<scales pt_clust_5="13000.00000" pt_clust_6="13000.00000" pt_clust_7="13000.00000" pt_clust_8="13000.00000" pt_clust_9="21.26457" pt_clust_10="37.81574"></scales>
<clustering>
<clus scale="   21.265">  1  9  2 -1</clus>
<clus scale="   37.816">  2 10  1 -1</clus>
<clus scale="   78.896">  5  6 -1 -1</clus>
<clus scale="   86.402">  2  5  1 -1</clus>
<clus scale="   91.296">  7  8 -1 -1</clus>
<clus scale="   37.816">  2  5  1 -1</clus>
</clustering>
</event>
<event>
10    4  0.3738096E-005  0.1155697E+03  0.7546771E-02  0.1251800E+00
         21   -1    0    0  503  502  0.00000000000E+00  0.00000000000E+00  0.28145729834E+03  0.28145729834E+03  0.00000000000E+00 0.  1.
         -3   -1    0    0    0  501 -0.00000000000E+00 -0.00000000000E+00 -0.11811122462E+03  0.11811122462E+03  0.00000000000E+00 0.  1.
         23    2    1    2    0    0  0.59406457522E+02 -0.40033557451E+02  0.27624105826E+02  0.11406523348E+03  0.84356228864E+02 0.  0.
         24    2    1    2    0    0 -0.11130689563E+03 -0.18593564029E+02  0.11713731673E+03  0.18150114611E+03  0.80539241551E+02 0.  0.
        -11    1    4    4    0    0 -0.31659914188E+02  0.29639366309E+02  0.22987826439E+02  0.49084441180E+02  0.00000000000E+00 0.  1.
         12    1    4    4    0    0 -0.79646981439E+02 -0.48232930337E+02  0.94149490293E+02  0.13241670493E+03  0.00000000000E+00 0. -1.
        -11    1    3    3    0    0  0.89807734632E+01 -0.35436578219E+02 -0.22411021596E+02  0.42879590213E+02  0.00000000000E+00 0. -1.
         11    1    3    3    0    0  0.50425684059E+02 -0.45969792322E+01  0.50035127422E+02  0.71185643265E+02  0.00000000000E+00 0.  1.
         21    1    1    2  503  501  0.47650068191E+02  0.37417209244E+02  0.40762619304E+02  0.73021693207E+02  0.00000000000E+00 0.  1.
         -4    1    1    2    0  502  0.42503699138E+01  0.21209912236E+02 -0.22177968142E+02  0.30980450164E+02  0.00000000000E+00 0.  1.
<scales pt_clust_5="13000.00000" pt_clust_6="13000.00000" pt_clust_7="13000.00000" pt_clust_8="13000.00000" pt_clust_9="64.02668" pt_clust_10="21.63161"></scales>
<clustering>
<clus scale="   21.632">  1 10  2 -1</clus>
<clus scale="   64.027">  1  9  2 -1</clus>
<clus scale="   80.539">  5  6 -1 -1</clus>
<clus scale="   84.356">  7  8 -1 -1</clus>
<clus scale="  112.814">  1  5  2 -1</clus>
<clus scale="   21.632">  1  5  2 -1</clus>
</clustering>
</event>
<event>
10    4  0.3738096E-005  0.1127157E+03  0.7546771E-02  0.1260931E+00
          2   -1    0    0  503    0 -0.00000000000E+00  0.00000000000E+00  0.91563340273E+03  0.91563340273E+03  0.00000000000E+00 0. -1.
         21   -1    0    0  501  502  0.00000000000E+00 -0.00000000000E+00 -0.37733236463E+02  0.37733236463E+02  0.00000000000E+00 0.  1.
         24    2    1    2    0    0 -0.85420175463E+02 -0.23701812274E+02  0.48033062609E+03  0.49490305899E+03  0.79706619317E+02 0.  0.
         23    2    1    2    0    0  0.16468970046E+02  0.25604194946E+02  0.22297294673E+03  0.24371326851E+03  0.93554371885E+02 0.  0.
        -13    1    3    3    0    0 -0.99872653646E+02 -0.20327773288E+02  0.37789880421E+03  0.39140167544E+03  0.00000000000E+00 0.  1.
         14    1    3    3    0    0  0.14452478182E+02 -0.33740389855E+01  0.10243182188E+03  0.10350138356E+03  0.00000000000E+00 0. -1.
        -11    1    4    4    0    0 -0.81621617164E+01 -0.30103282886E+02  0.12080621113E+03  0.12476766076E+03  0.00000000000E+00 0.  1.
         11    1    4    4    0    0  0.24631131762E+02  0.55707477833E+02  0.10216673561E+03  0.11894560775E+03  0.00000000000E+00 0. -1.
         21    1    1    2  503  502 -0.74053384282E+01 -0.21585317606E+02  0.11135695437E+03  0.11367117603E+03  0.00000000000E+00 0. -1.
          1    1    1    2  501    0  0.76356543845E+02  0.19682934933E+02  0.63239639078E+02  0.10107913566E+03  0.00000000000E+00 0. -1.
<scales pt_clust_5="13000.00000" pt_clust_6="13000.00000" pt_clust_7="13000.00000" pt_clust_8="13000.00000" pt_clust_9="22.82028" pt_clust_10="77.59234"></scales>
<clustering>
<clus scale="   22.820">  1  9  2 -1</clus>
<clus scale="   77.592">  2 10  1 -1</clus>
<clus scale="   79.707">  5  6 -1 -1</clus>
<clus scale="   93.554">  7  8 -1 -1</clus>
<clus scale="  101.516">  1  5  2 -1</clus>
<clus scale="   77.592">  2  5  1 -1</clus>
</clustering>
</event>
<event>
10    4  0.3738096E-005  0.1726856E+03  0.7546771E-02  0.1176277E+00
         21   -1    0    0  501  502  0.00000000000E+00  0.00000000000E+00  0.40878104488E+02  0.40878104488E+02  0.00000000000E+00 0. -1.
          2   -1    0    0  503    0 -0.00000000000E+00 -0.00000000000E+00 -0.19819327890E+04  0.19819327890E+04  0.00000000000E+00 0. -1.
         24    2    1    2    0    0  0.44290201132E+02 -0.16306235097E+03 -0.99586322569E+03  0.10134234813E+04  0.82052641669E+02 0.  0.
         23    2    1    2    0    0  0.46193019966E+02  0.12695496820E+03 -0.63328188102E+03  0.65391873114E+03  0.91172403019E+02 0.  0.
        -11    1    3    3    0    0  0.20160388078E+02 -0.22881880768E+01 -0.55117573473E+02  0.58733499450E+02  0.00000000000E+00 0.  1.
         12    1    3    3    0    0  0.24129813054E+02 -0.16077416290E+03 -0.94074565222E+03  0.95468998188E+03  0.00000000000E+00 0. -1.
        -11    1    4    4    0    0  0.25265590478E+02  0.12727770760E+03 -0.60485764333E+03  0.61862002360E+03  0.00000000000E+00 0. -1.
         11    1    4    4    0    0  0.20927429489E+02 -0.32273939599E+00 -0.28424237690E+02  0.35298707540E+02  0.00000000000E+00 0.  1.
         21    1    1    2  503  502  0.22870122046E+02 -0.47946988032E+01 -0.15935761900E+03  0.16106173460E+03  0.00000000000E+00 0. -1.
          1    1    1    2  501    0 -0.11335334314E+03  0.40902081574E+02 -0.15255195881E+03  0.19440694641E+03  0.00000000000E+00 0. -1.
<scales pt_clust_5="13000.00000" pt_clust_6="13000.00000" pt_clust_7="13000.00000" pt_clust_8="13000.00000" pt_clust_9="23.36732" pt_clust_10="118.30394"></scales>
<clustering>
<clus scale="   23.367">  2  9  1 -1</clus>
<clus scale="   82.053">  5  6 -1 -1</clus>
<clus scale="   91.172">  7  8 -1 -1</clus>
<clus scale="  118.304">  1 10  2 -1</clus>
<clus scale="  168.049">  2  5  1 -1</clus>
<clus scale="  118.304">  1  5  2 -1</clus>
</clustering>
</event>
<event>
10    4  0.6530474E-005  0.1392951E+03  0.7546771E-02  0.1225985E+00
         21   -1    0    0  501  502  0.00000000000E+00  0.00000000000E+00  0.20569704866E+03  0.20569704866E+03  0.00000000000E+00 0. -1.
          2   -1    0    0  503    0 -0.00000000000E+00 -0.00000000000E+00 -0.65245347886E+03  0.65245347886E+03  0.00000000000E+00 0. -1.
         24    2    1    2    0    0 -0.61098261242E+02 -0.46021390215E+02 -0.43513156023E+03  0.44895873750E+03  0.79834249445E+02 0.  0.
         23    2    1    2    0    0  0.47752895002E+02 -0.50166567261E+02 -0.10854397108E+03  0.15738303184E+03  0.90501942535E+02 0.  0.
        -11    1    3    3    0    0 -0.91019501512E+01 -0.23415193305E+02 -0.26892010477E+02  0.36800774470E+02  0.00000000000E+00 0.  1.
         12    1    3    3    0    0 -0.51996311091E+02 -0.22606196909E+02 -0.40823954976E+03  0.41215796303E+03  0.00000000000E+00 0. -1.
        -13    1    4    4    0    0 -0.19733124960E+02  0.58949194470E+01 -0.41333422496E+01  0.21005494855E+02  0.00000000000E+00 0.  1.
         13    1    4    4    0    0  0.67486019962E+02 -0.56061486708E+02 -0.10441062883E+03  0.13637753699E+03  0.00000000000E+00 0. -1.
         21    1    1    2  503  502  0.20801544679E+02 -0.16693620968E+02 -0.55745374430E+02  0.61797475777E+02  0.00000000000E+00 0. -1.
          1    1    1    2  501    0 -0.74561784393E+01  0.11288157844E+03  0.15266447554E+03  0.19001128240E+03  0.00000000000E+00 0. -1.
<scales pt_clust_5="13000.00000" pt_clust_6="13000.00000" pt_clust_7="13000.00000" pt_clust_8="13000.00000" pt_clust_9="26.67173" pt_clust_10="105.88924"></scales>
<clustering>
<clus scale="   26.672">  2  9  1 -1</clus>
<clus scale="   79.834">  5  6 -1 -1</clus>
<clus scale="   90.502">  7  8 -1 -1</clus>
<clus scale="  108.951">  2  5  1 -1</clus>
<clus scale="  105.889">  1 10  2 -1</clus>
<clus scale="  105.889">  1  5  2 -1</clus>
</clustering>
</event>
<event>
10    4  0.3738096E-005  0.3690326E+03  0.7546771E-02  0.1055332E+00
          4   -1    0    0  503    0 -0.00000000000E+00  0.00000000000E+00  0.51351291081E+03  0.51351291081E+03  0.00000000000E+00 0. -1.
         21   -1    0    0  501  502  0.00000000000E+00 -0.00000000000E+00 -0.68318075018E+03  0.68318075018E+03  0.00000000000E+00 0. -1.
         24    2    1    2    0    0  0.80715303124E+02  0.41990297989E+03  0.90203653231E+02  0.44487434338E+03  0.83324724172E+02 0.  0.
         23    2    1    2    0    0 -0.11738191721E+03 -0.27544066336E+03  0.36161980792E+02  0.31614344458E+03  0.94830982154E+02 0.  0.
        -11    1    3    3    0    0  0.79149189326E+02  0.19432935578E+03  0.50610725663E+02  0.21584702509E+03  0.00000000000E+00 0.  1.
         12    1    3    3    0    0  0.15661137980E+01  0.22557362411E+03  0.39592927568E+02  0.22902731829E+03  0.00000000000E+00 0. -1.
        -11    1    4    4    0    0  0.93210505382E+01 -0.49070786699E+02  0.26510009251E+02  0.56547366702E+02  0.00000000000E+00 0. -1.
         11    1    4    4    0    0 -0.12670296774E+03 -0.22636987666E+03  0.96519715409E+01  0.25959607788E+03  0.00000000000E+00 0.  1.
         21    1    1    2  503  502  0.43257815552E+02 -0.66259271925E+02  0.41351656708E+02  0.89283196823E+02  0.00000000000E+00 0.  1.
          3    1    1    2  501    0 -0.65912014704E+01 -0.78203044603E+02 -0.33738513010E+03  0.34639267622E+03  0.00000000000E+00 0. -1.
<scales pt_clust_5="13000.00000" pt_clust_6="13000.00000" pt_clust_7="13000.00000" pt_clust_8="13000.00000" pt_clust_9="83.54388" pt_clust_10="78.48032"></scales>
<clustering>
<clus scale="   78.480">  2 10  1 -1</clus>
<clus scale="   83.325">  5  6 -1 -1</clus>
<clus scale="   83.544">  1  9  2 -1</clus>
<clus scale="   94.831">  7  8 -1 -1</clus>
<clus scale="  366.245">  1  5  2 -1</clus>
<clus scale="   78.480">  2  5  1 -1</clus>
</clustering>
</event>
<event>
10    4  0.3738096E-005  0.1768048E+03  0.7546771E-02  0.1203539E+00
         21   -1    0    0  503  502  0.00000000000E+00  0.00000000000E+00  0.81177779580E+03  0.81177779580E+03  0.00000000000E+00 0.  1.
         -1   -1    0    0    0  501 -0.00000000000E+00 -0.00000000000E+00 -0.10822417590E+03  0.10822417590E+03  0.00000000000E+00 0.  1.
         24    2    1    2    0    0  0.14024038867E+02  0.14674057522E+02  0.27785718448E+03  0.29073368894E+03  0.83123169369E+02 0.  0.
         23    2    1    2    0    0 -0.16779335678E+03  0.99016749459E+02  0.13420936007E+03  0.24985640736E+03  0.80356360763E+02 0.  0.
        -11    1    3    3    0    0 -0.22686644476E+02 -0.81443647916E+00  0.21393717358E+02  0.31193561624E+02  0.00000000000E+00 0.  1.
         12    1    3    3    0    0  0.36710683344E+02  0.15488494001E+02  0.25646346713E+03  0.25954012732E+03  0.00000000000E+00 0. -1.
        -13    1    4    4    0    0 -0.18378857004E+02  0.45395361655E+02  0.50679258820E+02  0.70476297569E+02  0.00000000000E+00 0.  1.
         13    1    4    4    0    0 -0.14941449977E+03  0.53621387803E+02  0.83530101251E+02  0.17938010979E+03  0.00000000000E+00 0. -1.
         21    1    1    2  503  501  0.34951459032E+02 -0.27632046899E+02 -0.86042468549E+01  0.45378051614E+02  0.00000000000E+00 0. -1.
         -2    1    1    2    0  502  0.11881785888E+03 -0.86058760081E+02  0.30009132220E+03  0.33403382379E+03  0.00000000000E+00 0.  1.
<scales pt_clust_5="13000.00000" pt_clust_6="13000.00000" pt_clust_7="13000.00000" pt_clust_8="13000.00000" pt_clust_9="44.55485" pt_clust_10="157.48899"></scales>
<clustering>
<clus scale="   44.555">  2  9  1 -1</clus>
<clus scale="   80.356">  7  8 -1 -1</clus>
<clus scale="   83.123">  5  6 -1 -1</clus>
<clus scale="   85.717">  2  5  1 -1</clus>
<clus scale="  157.489">  1 10  2 -1</clus>
<clus scale="  157.489">  1  5  2 -1</clus>
</clustering>
</event>
<event>
10    4  0.3738096E-005  0.1228067E+03  0.7546771E-02  0.1241566E+00
         21   -1    0    0  503  502  0.00000000000E+00  0.00000000000E+00  0.29092510697E+03  0.29092510697E+03  0.00000000000E+00 0. -1.
         -1   -1    0    0    0  501 -0.00000000000E+00 -0.00000000000E+00 -0.21996525643E+03  0.21996525643E+03  0.00000000000E+00 0.  1.
         24    2    1    2    0    0 -0.22936512750E+02 -0.10146451610E+03 -0.10760371276E+03  0.17039407368E+03  0.81452131349E+02 0.  0.
         23    2    1    2    0    0  0.66300655463E+02  0.69851339291E+02  0.77523632687E+02  0.15383465844E+03  0.91543443217E+02 0.  0.
        -11    1    3    3    0    0 -0.34064787725E+02 -0.10542116448E+03 -0.11223798154E+03  0.15770667767E+03  0.00000000000E+00 0.  1.
         12    1    3    3    0    0  0.11128274975E+02  0.39566483736E+01  0.46342687847E+01  0.12687396007E+02  0.00000000000E+00 0. -1.
        -13    1    4    4    0    0  0.36024259855E+02  0.24237698469E+02  0.87968154678E+02  0.98099997770E+02  0.00000000000E+00 0. -1.
         13    1    4    4    0    0  0.30276395608E+02  0.45613640822E+02 -0.10444521991E+02  0.55734660667E+02  0.00000000000E+00 0.  1.
         21    1    1    2  503  501 -0.23528273504E+02  0.48536281659E+02 -0.23924347982E+02  0.59006141356E+02  0.00000000000E+00 0.  1.
         -2    1    1    2    0  502 -0.19835869209E+02 -0.16923104848E+02  0.12496427859E+03  0.12765548993E+03  0.00000000000E+00 0.  1.
<scales pt_clust_5="13000.00000" pt_clust_6="13000.00000" pt_clust_7="13000.00000" pt_clust_8="13000.00000" pt_clust_9="53.30555" pt_clust_10="26.07399"></scales>
<clustering>
<clus scale="   26.074">  1 10  2 -1</clus>
<clus scale="   53.306">  2  9  1 -1</clus>
<clus scale="   81.452">  5  6 -1 -1</clus>
<clus scale="   91.543">  7  8 -1 -1</clus>
<clus scale="  115.480">  2  5  1 -1</clus>
<clus scale="   26.074">  1  5  2 -1</clus>
</clustering>
</event>
<event>
10    4  0.3738096E-005  0.9622894E+02  0.7546771E-02  0.1296290E+00
         21   -1    0    0  501  502  0.00000000000E+00  0.00000000000E+00  0.47957914864E+03  0.47957914864E+03  0.00000000000E+00 0.  1.
          2   -1    0    0  503    0 -0.00000000000E+00 -0.00000000000E+00 -0.61188332606E+02  0.61188332606E+02  0.00000000000E+00 0. -1.
         23    2    1    2    0    0 -0.16962600784E+02 -0.11835068240E+02  0.30669201479E+02  0.10057775401E+03  0.93527995903E+02 0.  0.
         24    2    1    2    0    0 -0.24771838130E+01 -0.24682043740E+01  0.17548397696E+03  0.19287514652E+03  0.79962288021E+02 0.  0.
        -11    1    4    4    0    0  0.28444182147E+02 -0.16960763318E+02  0.13904957385E+03  0.14293887847E+03  0.00000000000E+00 0.  1.
         12    1    4    4    0    0 -0.30921365960E+02  0.14492558944E+02  0.36434403112E+02  0.49936268059E+02  0.00000000000E+00 0. -1.
        -13    1    3    3    0    0  0.15815421105E+02 -0.45460690774E+02  0.21573192685E+02  0.52746607407E+02  0.00000000000E+00 0.  1.
         13    1    3    3    0    0 -0.32778021889E+02  0.33625622534E+02  0.90960087943E+01  0.47831146607E+02  0.00000000000E+00 0. -1.
         21    1    1    2  503  502 -0.23190212426E+02  0.65505419925E+01 -0.59867751745E+01  0.24830163708E+02  0.00000000000E+00 0. -1.
          1    1    1    2  501    0  0.42629997023E+02  0.77527306211E+01  0.21822441277E+03  0.22248441700E+03  0.00000000000E+00 0. -1.
<scales pt_clust_5="13000.00000" pt_clust_6="13000.00000" pt_clust_7="13000.00000" pt_clust_8="13000.00000" pt_clust_9="24.09763" pt_clust_10="42.32506"></scales>
<clustering>
<clus scale="   24.098">  2  9  1 -1</clus>
<clus scale="   42.325">  1 10  2 -1</clus>
<clus scale="   79.962">  5  6 -1 -1</clus>
<clus scale="   83.105">  1  5  2 -1</clus>
<clus scale="   93.528">  7  8 -1 -1</clus>
<clus scale="   42.325">  1  5  2 -1</clus>
</clustering>
</event>
<event>
10    4  0.3738096E-005  0.1639038E+03  0.7546771E-02  0.1197619E+00
         -3   -1    0    0    0  501 -0.00000000000E+00  0.00000000000E+00  0.43787451904E+03  0.43787451904E+03  0.00000000000E+00 0.  1.
         21   -1    0    0  503  502  0.00000000000E+00 -0.00000000000E+00 -0.36648869158E+03  0.36648869158E+03  0.00000000000E+00 0.  1.
         24    2    1    2    0    0 -0.44510979469E+02  0.78049831033E+02 -0.11496749018E+03  0.16742552815E+03  0.82102254903E+02 0.  0.
         23    2    1    2    0    0  0.15007859782E+03 -0.13839972709E+03  0.30978287818E+03  0.38380233138E+03  0.98289002318E+02 0.  0.
        -11    1    3    3    0    0 -0.38790136141E+02 -0.16922762151E+01 -0.21325108638E+02  0.44297841021E+02  0.00000000000E+00 0.  1.
         12    1    3    3    0    0 -0.57208433276E+01  0.79742107248E+02 -0.93642381544E+02  0.12312768713E+03  0.00000000000E+00 0. -1.
        -13    1    4    4    0    0  0.48847861105E+02 -0.71068169224E+02  0.20826542640E+03  0.22541358886E+03  0.00000000000E+00 0. -1.
         13    1    4    4    0    0  0.10123073671E+03 -0.67331557863E+02  0.10151745179E+03  0.15838874252E+03  0.00000000000E+00 0.  1.
         21    1    1    2  503  501  0.16843975585E+02  0.23980277764E+02  0.37565476143E+02  0.47643868787E+02  0.00000000000E+00 0.  1.
         -4    1    1    2    0  502 -0.12241159393E+03  0.36369618290E+02 -0.16099503669E+03  0.20549148231E+03  0.00000000000E+00 0.  1.
<scales pt_clust_5="13000.00000" pt_clust_6="13000.00000" pt_clust_7="13000.00000" pt_clust_8="13000.00000" pt_clust_9="29.30483" pt_clust_10="131.16303"></scales>
<clustering>
<clus scale="   29.305">  1  9  2 -1</clus>
<clus scale="   82.102">  5  6 -1 -1</clus>
<clus scale="   98.289">  7  8 -1 -1</clus>
<clus scale="  122.338">  1  5  2 -1</clus>
<clus scale="  131.163">  2 10  1 -1</clus>
<clus scale="  131.163">  2  5  1 -1</clus>
</clustering>
</event>
<event>
10    4  0.3738096E-005  0.1249312E+03  0.7546771E-02  0.1240765E+00
          2   -1    0    0  503    0 -0.00000000000E+00  0.00000000000E+00  0.37967528142E+03  0.37967528142E+03  0.00000000000E+00 0. -1.
         21   -1    0    0  501  502  0.00000000000E+00 -0.00000000000E+00 -0.15039135490E+03  0.15039135490E+03  0.00000000000E+00 0.  1.
         23    2    1    2    0    0  0.36263359649E+02 -0.38140005045E+02  0.24681323234E+03  0.26845087378E+03  0.91539110423E+02 0.  0.
         24    2    1    2    0    0 -0.74096430981E+02  0.31632916361E+02 -0.98314023394E+02  0.14614107758E+03  0.72115496804E+02 0.  0.
        -13    1    4    4    0    0 -0.79569131164E+02  0.79413254961E+01 -0.56991784768E+02  0.98195594687E+02  0.00000000000E+00 0.  1.
         14    1    4    4    0    0  0.54727001833E+01  0.23691590864E+02 -0.41322238626E+02  0.47945482895E+02  0.00000000000E+00 0. -1.
        -11    1    3    3    0    0  0.12328215560E+02  0.30438778527E+02  0.82697645874E+02  0.88979799787E+02  0.00000000000E+00 0.  1.
         11    1    3    3    0    0  0.23935144089E+02 -0.68578783573E+02  0.16411558646E+03  0.17947107399E+03  0.00000000000E+00 0. -1.
         21    1    1    2  503  502  0.30417005513E+02 -0.30781402107E+02  0.52793594706E+02  0.68263112895E+02  0.00000000000E+00 0. -1.
          1    1    1    2  501    0  0.74160658190E+01  0.37288490792E+02  0.27991122871E+02  0.47211572071E+02  0.00000000000E+00 0. -1.
<scales pt_clust_5="13000.00000" pt_clust_6="13000.00000" pt_clust_7="13000.00000" pt_clust_8="13000.00000" pt_clust_9="42.13924" pt_clust_10="38.01882"></scales>
<clustering>
<clus scale="   38.019">  2 10  1 -1</clus>
<clus scale="   42.139">  1  9  2 -1</clus>
<clus scale="   72.115">  5  6 -1 -1</clus>
<clus scale="   91.539">  7  8 -1 -1</clus>
<clus scale="  111.486">  2  5  1 -1</clus>
<clus scale="   38.019">  2  5  1 -1</clus>
</clustering>
</event>
<event>
10    4  0.3738096E-005  0.9943668E+02  0.7546771E-02  0.1286104E+00
         21   -1    0    0  503  502  0.00000000000E+00  0.00000000000E+00  0.38603618885E+02  0.38603618885E+02  0.00000000000E+00 0. -1.
          2   -1    0    0  502    0 -0.00000000000E+00 -0.00000000000E+00 -0.48071756100E+03  0.48071756100E+03  0.00000000000E+00 0. -1.
         23    2    1    2    0    0  0.20527190341E+02 -0.16359746570E+02 -0.17704850767E+03  0.20068960364E+03  0.90780703307E+02 0.  0.
         24    2    1    2    0    0 -0.11932397860E+02  0.61431353266E+02 -0.17551020995E+03  0.20341069672E+03  0.81583604103E+02 0.  0.
        -11    1    4    4    0    0 -0.41213408578E+02  0.32046594975E+02 -0.13776624704E+03  0.14732639994E+03  0.00000000000E+00 0.  1.
         12    1    4    4    0    0  0.29281010718E+02  0.29384758292E+02 -0.37743962913E+02  0.56084296777E+02  0.00000000000E+00 0. -1.
        -11    1    3    3    0    0  0.34502087144E+02 -0.47045948745E+02 -0.89124215437E+02  0.10652155222E+03  0.00000000000E+00 0.  1.
         11    1    3    3    0    0 -0.13974896803E+02  0.30686202175E+02 -0.87924292229E+02  0.94168051421E+02  0.00000000000E+00 0. -1.
         21    1    1    2  503  501  0.21811296752E+02 -0.75583731074E+01 -0.19976026190E+02  0.30527091122E+02  0.00000000000E+00 0. -1.
          1    1    1    2  501    0 -0.30406089233E+02 -0.37513233589E+02 -0.69579198305E+02  0.84693788400E+02  0.00000000000E+00 0. -1.
<scales pt_clust_5="13000.00000" pt_clust_6="13000.00000" pt_clust_7="13000.00000" pt_clust_8="13000.00000" pt_clust_9="23.08380" pt_clust_10="46.76530"></scales>
<clustering>
<clus scale="   23.084">  1  9  2 -1</clus>
<clus scale="   46.765">  1 10  2 -1</clus>
<clus scale="   81.584">  5  6 -1 -1</clus>
<clus scale="   90.781">  7  8 -1 -1</clus>
<clus scale="   91.118">  1  5  2 -1</clus>
<clus scale="   23.084">  1  5  2 -1</clus>
</clustering>
</event>
<event>
10    4  0.3738096E-005  0.1508472E+03  0.7546771E-02  0.1217770E+00
          4   -1    0    0  503    0 -0.00000000000E+00  0.00000000000E+00  0.34166937045E+03  0.34166937045E+03  0.00000000000E+00 0. -1.
         21   -1    0    0  501  502  0.00000000000E+00 -0.00000000000E+00 -0.22044634708E+03  0.22044634708E+03  0.00000000000E+00 0.  1.
         24    2    1    2    0    0  0.54297699068E+02 -0.30299036003E+02  0.10490428873E+03  0.14422571300E+03  0.77005680241E+02 0.  0.
         23    2    1    2    0    0  0.89374809219E+02 -0.97236580057E+00 -0.35855103124E+02  0.13546225754E+03  0.95266115592E+02 0.  0.
        -13    1    3    3    0    0  0.10242451211E+02 -0.49710629946E+02  0.50966882713E+02  0.71928281433E+02  0.00000000000E+00 0.  1.
         14    1    3    3    0    0  0.44055247857E+02  0.19411593944E+02  0.53937406012E+02  0.72297431563E+02  0.00000000000E+00 0. -1.
        -11    1    4    4    0    0  0.10274736844E+03 -0.19188660670E+02 -0.16722850583E+02  0.10585310648E+03  0.00000000000E+00 0.  1.
         11    1    4    4    0    0 -0.13372559226E+02  0.18216294870E+02 -0.19132252541E+02  0.29609151057E+02  0.00000000000E+00 0. -1.
         21    1    1    2  503  502  0.25389238039E+02  0.93404000351E+02  0.27530019323E+02  0.10063211542E+03  0.00000000000E+00 0. -1.
          3    1    1    2  501    0 -0.16906174633E+03 -0.62132598548E+02  0.24643818442E+02  0.18179563158E+03  0.00000000000E+00 0. -1.
<scales pt_clust_5="13000.00000" pt_clust_6="13000.00000" pt_clust_7="13000.00000" pt_clust_8="13000.00000" pt_clust_9="96.79319" pt_clust_10="116.95832"></scales>
<clustering>
<clus scale="   77.006">  5  6 -1 -1</clus>
<clus scale="   95.266">  7  8 -1 -1</clus>
<clus scale="   96.793">  1  9  2 -1</clus>
<clus scale="  101.883">  1  5  2 -1</clus>
<clus scale="  116.958">  2 10  1 -1</clus>
<clus scale="  116.958">  2  5  1 -1</clus>
</clustering>
</event>
<event>
10    4  0.3738096E-005  0.9658683E+02  0.7546771E-02  0.1294797E+00
         21   -1    0    0  501  502  0.00000000000E+00  0.00000000000E+00  0.25887846987E+03  0.25887846987E+03  0.00000000000E+00 0. -1.
          2   -1    0    0  503    0 -0.00000000000E+00 -0.00000000000E+00 -0.38052118720E+03  0.38052118720E+03  0.00000000000E+00 0. -1.
         23    2    1    2    0    0  0.31308292769E+02 -0.21000798838E+02 -0.24001890344E+03  0.26048201860E+03  0.93917864426E+02 0.  0.
         24    2    1    2    0    0  0.84498137399E+02  0.34321939484E+01 -0.69739127961E+01  0.11760646554E+03  0.81430523136E+02 0.  0.
        -13    1    4    4    0    0 -0.91609759172E+01 -0.18979539163E+02 -0.38933875491E+00  0.21078376865E+02  0.00000000000E+00 0.  1.
         14    1    4    4    0    0  0.93659113316E+02  0.22411733111E+02 -0.65845740412E+01  0.96528088677E+02  0.00000000000E+00 0. -1.
        -13    1    3    3    0    0  0.35434319504E+02  0.21220163650E+02 -0.45751583096E+02  0.61636788526E+02  0.00000000000E+00 0.  1.
         13    1    3    3    0    0 -0.41260267351E+01 -0.42220962488E+02 -0.19426732034E+03  0.19884523007E+03  0.00000000000E+00 0. -1.
         21    1    1    2  503  502 -0.87149107388E+02 -0.11652377376E+02 -0.35882684059E+02  0.94964792593E+02  0.00000000000E+00 0.  1.
          1    1    1    2  501    0 -0.28657322780E+02  0.29220982266E+02  0.16123278295E+03  0.16634638034E+03  0.00000000000E+00 0. -1.
<scales pt_clust_5="13000.00000" pt_clust_6="13000.00000" pt_clust_7="13000.00000" pt_clust_8="13000.00000" pt_clust_9="96.08651" pt_clust_10="40.92808"></scales>
<clustering>
<clus scale="   40.928">  1 10  2 -1</clus>
<clus scale="   81.431">  5  6 -1 -1</clus>
<clus scale="   93.918">  7  8 -1 -1</clus>
<clus scale="   96.087">  1  9  2 -1</clus>
<clus scale="   84.495">  1  5  2 -1</clus>
<clus scale="   40.928">  1  5  2 -1</clus>
</clustering>
</event>
<event>
10    4  0.3738096E-005  0.1031002E+03  0.7546771E-02  0.1274853E+00
         21   -1    0    0  503  502  0.00000000000E+00  0.00000000000E+00  0.11745834914E+03  0.11745834914E+03  0.00000000000E+00 0.  1.
         -1   -1    0    0    0  501 -0.00000000000E+00 -0.00000000000E+00 -0.37766812293E+03  0.37766812293E+03  0.00000000000E+00 0.  1.
         24    2    1    2    0    0 -0.18887823844E+02  0.67742264765E+02 -0.20463315677E+03  0.23375411633E+03  0.88433555452E+02 0.  0.
         23    2    1    2    0    0  0.32976392050E+02  0.47537040273E+01  0.13964296741E+02  0.97489161464E+02  0.90548853581E+02 0.  0.
        -11    1    3    3    0    0 -0.33008296846E+02  0.84707740200E+02 -0.16534441633E+03  0.18868949340E+03  0.00000000000E+00 0.  1.
         12    1    3    3    0    0  0.14120473001E+02 -0.16965475435E+02 -0.39288740439E+02  0.45064622930E+02  0.00000000000E+00 0. -1.
        -13    1    4    4    0    0  0.44346976268E+02 -0.33604369257E+02  0.17888696786E+01  0.55669632584E+02  0.00000000000E+00 0. -1.
         13    1    4    4    0    0 -0.11370584218E+02  0.38358073285E+02  0.12175427062E+02  0.41819528880E+02  0.00000000000E+00 0.  1.
         21    1    1    2  503  501  0.27315029692E+02 -0.64636585976E+01 -0.80429700720E+02  0.85187008913E+02  0.00000000000E+00 0. -1.
         -2    1    1    2    0  502 -0.41403597898E+02 -0.66032310194E+02  0.10888786958E+02  0.78696185358E+02  0.00000000000E+00 0.  1.
<scales pt_clust_5="13000.00000" pt_clust_6="13000.00000" pt_clust_7="13000.00000" pt_clust_8="13000.00000" pt_clust_9="28.06937" pt_clust_10="76.96113"></scales>
<clustering>
<clus scale="   28.069">  2  9  1 -1</clus>
<clus scale="   76.961">  1 10  2 -1</clus>
<clus scale="   88.434">  5  6 -1 -1</clus>
<clus scale="   90.549">  7  8 -1 -1</clus>
<clus scale="  101.247">  2  5  1 -1</clus>
<clus scale="   76.961">  1  5  2 -1</clus>
</clustering>
</event>
<event>
10    4  0.3738096E-005  0.2023463E+03  0.7546771E-02  0.1150099E+00
         21   -1    0    0  501  502  0.00000000000E+00  0.00000000000E+00  0.13443534646E+03  0.13443534646E+03  0.00000000000E+00 0.  1.
          4   -1    0    0  503    0 -0.00000000000E+00 -0.00000000000E+00 -0.88308431057E+03  0.88308431057E+03  0.00000000000E+00 0. -1.
         23    2    1    2    0    0 -0.16544148661E+03 -0.82689768216E+02 -0.60828327597E+03  0.64436941018E+03  0.10485661490E+03 0.  0.
         24    2    1    2    0    0  0.11915960442E+03  0.10868078154E+03 -0.69413641622E+02  0.19376824283E+03  0.81959469779E+02 0.  0.
        -13    1    4    4    0    0  0.11772094341E+03  0.12011662978E+03 -0.58996962425E+02  0.17823262003E+03  0.00000000000E+00 0.  1.
         14    1    4    4    0    0  0.14386610068E+01 -0.11435848239E+02 -0.10416679196E+02  0.15535622804E+02  0.00000000000E+00 0. -1.
        -11    1    3    3    0    0 -0.13932324080E+03 -0.16282590642E+02 -0.37302720454E+03  0.39852902468E+03  0.00000000000E+00 0. -1.
         11    1    3    3    0    0 -0.26118245809E+02 -0.66407177573E+02 -0.23525607143E+03  0.24584038550E+03  0.00000000000E+00 0.  1.
         21    1    1    2  503  502  0.43720618235E+02 -0.47235048116E+02 -0.11422329829E+03  0.13110913050E+03  0.00000000000E+00 0. -1.
          3    1    1    2  501    0  0.25612639516E+01  0.21244034793E+02  0.43271251775E+02  0.48272873516E+02  0.00000000000E+00 0. -1.
<scales pt_clust_5="13000.00000" pt_clust_6="13000.00000" pt_clust_7="13000.00000" pt_clust_8="13000.00000" pt_clust_9="63.06356" pt_clust_10="21.39788"></scales>
<clustering>
<clus scale="   21.398">  1 10  2 -1</clus>
<clus scale="   63.064">  2  9  1 -1</clus>
<clus scale="   81.959">  5  6 -1 -1</clus>
<clus scale="  104.857">  7  8 -1 -1</clus>
<clus scale="  191.485">  1  5  2 -1</clus>
<clus scale="   21.398">  1  5  2 -1</clus>
</clustering>
</event>
<event>
10    4  0.3738096E-005  0.1063380E+03  0.7546771E-02  0.1273419E+00
         21   -1    0    0  501  502  0.00000000000E+00  0.00000000000E+00  0.32294424117E+03  0.32294424117E+03  0.00000000000E+00 0. -1.
          2   -1    0    0  503    0 -0.00000000000E+00 -0.00000000000E+00 -0.45209707347E+03  0.45209707347E+03  0.00000000000E+00 0. -1.
         23    2    1    2    0    0  0.64346456903E+01  0.30462082200E+02 -0.15866926324E+03  0.18549323370E+03  0.90898083233E+02 0.  0.
         24    2    1    2    0    0 -0.49618051071E+02 -0.78669147413E+01 -0.15929917649E+02  0.93432653668E+02  0.77149589470E+02 0.  0.
        -13    1    4    4    0    0 -0.61887751112E+02 -0.25108216269E+02  0.26114441167E+00  0.66787607071E+02  0.00000000000E+00 0.  1.
         14    1    4    4    0    0  0.12269700041E+02  0.17241301528E+02 -0.16191062061E+02  0.26645046596E+02  0.00000000000E+00 0. -1.
        -11    1    3    3    0    0  0.22751205841E+02  0.58592817341E+02 -0.11485451165E+03  0.13092858534E+03  0.00000000000E+00 0. -1.
         11    1    3    3    0    0 -0.16316560151E+02 -0.28130735141E+02 -0.43814751584E+02  0.54564648364E+02  0.00000000000E+00 0.  1.
         21    1    1    2  503  502  0.66614321820E+02  0.29523026813E+02 -0.21627991634E+03  0.22822374810E+03  0.00000000000E+00 0. -1.
          1    1    1    2  501    0 -0.23430916439E+02 -0.52118194272E+02  0.26172626493E+03  0.26789167918E+03  0.00000000000E+00 0. -1.
<scales pt_clust_5="13000.00000" pt_clust_6="13000.00000" pt_clust_7="13000.00000" pt_clust_8="13000.00000" pt_clust_9="68.60569" pt_clust_10="57.14293"></scales>
<clustering>
<clus scale="   57.143">  1 10  2 -1</clus>
<clus scale="   68.606">  2  9  1 -1</clus>
<clus scale="   77.150">  5  6 -1 -1</clus>
<clus scale="   90.898">  7  8 -1 -1</clus>
<clus scale="   94.854">  1  5  2 -1</clus>
<clus scale="   57.143">  1  5  2 -1</clus>
</clustering>
</event>
<event>
10    4  0.3738096E-005  0.1399339E+03  0.7546771E-02  0.1216164E+00
          2   -1    0    0  503    0 -0.00000000000E+00  0.00000000000E+00  0.41222524071E+03  0.41222524071E+03  0.00000000000E+00 0. -1.
         21   -1    0    0  501  502  0.00000000000E+00 -0.00000000000E+00 -0.22083591160E+03  0.22083591160E+03  0.00000000000E+00 0. -1.
         23    2    1    2    0    0 -0.62560322741E+02  0.14656744849E+02  0.25547347437E+03  0.27911760273E+03  0.92256847410E+02 0.  0.
         24    2    1    2    0    0  0.85746600498E+02 -0.51080877740E+01 -0.72652918063E+02  0.13790419739E+03  0.79753050700E+02 0.  0.
        -13    1    4    4    0    0  0.98187086149E+02  0.55620558434E+01 -0.51101468060E+02  0.11082869840E+03  0.00000000000E+00 0.  1.
         14    1    4    4    0    0 -0.12440485650E+02 -0.10670143617E+02 -0.21551450003E+02  0.27075498984E+02  0.00000000000E+00 0. -1.
        -13    1    3    3    0    0 -0.49713351341E+02  0.52377654270E+02  0.15362807858E+03  0.16975400584E+03  0.00000000000E+00 0. -1.
         13    1    3    3    0    0 -0.12846971400E+02 -0.37720909421E+02  0.10184539579E+03  0.10936359689E+03  0.00000000000E+00 0.  1.
         21    1    1    2  503  502 -0.56461077376E+02 -0.11632865465E+02  0.10182051597E+03  0.11700681301E+03  0.00000000000E+00 0. -1.
          1    1    1    2  501    0  0.33274799619E+02  0.20842083900E+01 -0.93251743168E+02  0.99032539189E+02  0.00000000000E+00 0. -1.
<scales pt_clust_5="13000.00000" pt_clust_6="13000.00000" pt_clust_7="13000.00000" pt_clust_8="13000.00000" pt_clust_9="55.63755" pt_clust_10="33.34001"></scales>
<clustering>
<clus scale="   33.340">  2 10  1 -1</clus>
<clus scale="   55.638">  1  9  2 -1</clus>
<clus scale="   79.753">  5  6 -1 -1</clus>
<clus scale="   92.257">  7  8 -1 -1</clus>
<clus scale="  132.025">  2  5  1 -1</clus>
<clus scale="   33.340">  2  5  1 -1</clus>
</clustering>
</event>
<event>
10    4  0.3738096E-005  0.1677949E+03  0.7546771E-02  0.1181936E+00
          2   -1    0    0  503    0 -0.00000000000E+00  0.00000000000E+00  0.42341490092E+03  0.42341490092E+03  0.00000000000E+00 0. -1.
         21   -1    0    0  501  502  0.00000000000E+00 -0.00000000000E+00 -0.27051103810E+03  0.27051103810E+03  0.00000000000E+00 0. -1.
         24    2    1    2    0    0  0.15837017527E+03  0.10395882682E+02  0.29529850578E+03  0.34434875958E+03  0.78649055426E+02 0.  0.
         23    2    1    2    0    0 -0.13217396339E+03  0.82409923389E+02 -0.10595029340E+03  0.20933531285E+03  0.91293244363E+02 0.  0.
        -13    1    3    3    0    0  0.21008332788E+02 -0.26494553811E+02  0.42768702791E+02  0.54520394043E+02  0.00000000000E+00 0.  1.
         14    1    3    3    0    0  0.13736184248E+03  0.36890436493E+02  0.25252980299E+03  0.28982836554E+03  0.00000000000E+00 0. -1.
        -13    1    4    4    0    0 -0.55920800380E+02  0.82822222134E+02 -0.37100869242E+02  0.10659798728E+03  0.00000000000E+00 0. -1.
         13    1    4    4    0    0 -0.76253163007E+02 -0.41229874524E+00 -0.68849424157E+02  0.10273732557E+03  0.00000000000E+00 0.  1.
         21    1    1    2  503  502 -0.20754437761E+02 -0.65219066103E+01  0.25772422574E+02  0.33726839726E+02  0.00000000000E+00 0.  1.
          1    1    1    2  501    0 -0.54417741204E+01 -0.86283899461E+02 -0.62216772137E+02  0.10651502686E+03  0.00000000000E+00 0. -1.
<scales pt_clust_5="13000.00000" pt_clust_6="13000.00000" pt_clust_7="13000.00000" pt_clust_8="13000.00000" pt_clust_9="21.75504" pt_clust_10="86.90256"></scales>
<clustering>
<clus scale="   21.755">  1  9  2 -1</clus>
<clus scale="   78.649">  5  6 -1 -1</clus>
<clus scale="   86.903">  2 10  1 -1</clus>
<clus scale="   91.293">  7  8 -1 -1</clus>
<clus scale="  161.265">  1  5  2 -1</clus>
<clus scale="   86.903">  2  5  1 -1</clus>
</clustering>
</event>
<event>
10    4  0.3738096E-005  0.1985333E+03  0.7546771E-02  0.1156089E+00
          2   -1    0    0  503    0 -0.00000000000E+00  0.00000000000E+00  0.73852129953E+03  0.73852129953E+03  0.00000000000E+00 0. -1.
         21   -1    0    0  501  502  0.00000000000E+00 -0.00000000000E+00 -0.17784483224E+03  0.17784483224E+03  0.00000000000E+00 0. -1.
         23    2    1    2    0    0  0.16306269021E+03  0.24429429624E+02  0.61768156330E+02  0.19657949730E+03  0.87418279843E+02 0.  0.
         24    2    1    2    0    0 -0.30187214698E+02 -0.19362404096E+03  0.36367502098E+03  0.42141269825E+03  0.83232230470E+02 0.  0.
        -11    1    4    4    0    0 -0.50942572648E+02 -0.74817532252E+02  0.12938790877E+03  0.15790516070E+03  0.00000000000E+00 0.  1.
         12    1    4    4    0    0  0.20755357950E+02 -0.11880650871E+03  0.23428711221E+03  0.26350753754E+03  0.00000000000E+00 0. -1.
        -11    1    3    3    0    0  0.11535854642E+03  0.30383900557E+02  0.81646281930E+02  0.14455756984E+03  0.00000000000E+00 0.  1.
         11    1    3    3    0    0  0.47704143792E+02 -0.59544709334E+01 -0.19878125600E+02  0.52021927458E+02  0.00000000000E+00 0. -1.
         21    1    1    2  503  502 -0.60515416244E+02  0.16951781914E+01  0.93196423213E+02  0.11113308478E+03  0.00000000000E+00 0. -1.
          1    1    1    2  501    0 -0.72360059270E+02  0.16749943314E+03  0.42036866765E+02  0.18724085144E+03  0.00000000000E+00 0. -1.
<scales pt_clust_5="13000.00000" pt_clust_6="13000.00000" pt_clust_7="13000.00000" pt_clust_8="13000.00000" pt_clust_9="60.53915" pt_clust_10="180.24394"></scales>
<clustering>
<clus scale="   60.539">  1  9  2 -1</clus>
<clus scale="   83.232">  5  6 -1 -1</clus>
<clus scale="   87.418">  7  8 -1 -1</clus>
<clus scale="  176.040">  1  7  2 -1</clus>
<clus scale="  180.244">  2 10  1 -1</clus>
<clus scale="  180.244">  2  5  1 -1</clus>
</clustering>
</event>
<event>
10    4  0.3738096E-005  0.1057565E+03  0.7546771E-02  0.1272905E+00
         21   -1    0    0  503  502  0.00000000000E+00  0.00000000000E+00  0.87152666361E+02  0.87152666361E+02  0.00000000000E+00 0. -1.
         -1   -1    0    0    0  501 -0.00000000000E+00 -0.00000000000E+00 -0.38360445020E+03  0.38360445020E+03  0.00000000000E+00 0.  1.
         23    2    1    2    0    0 -0.47425713291E+02  0.17083942985E+02 -0.16152420459E+03  0.19243812100E+03  0.91658618565E+02 0.  0.
         24    2    1    2    0    0  0.41542540826E+02 -0.48955607320E+02 -0.33545917764E+02  0.10931063027E+03  0.81859948110E+02 0.  0.
        -11    1    4    4    0    0  0.50960755212E+02 -0.72596416191E+01 -0.41139393451E+02  0.65894997243E+02  0.00000000000E+00 0.  1.
         12    1    4    4    0    0 -0.94182143852E+01 -0.41695965701E+02  0.75934756870E+01  0.43415633025E+02  0.00000000000E+00 0. -1.
        -13    1    3    3    0    0 -0.70887185805E+02  0.27122097970E+02 -0.97812331517E+02  0.12380570870E+03  0.00000000000E+00 0.  1.
         13    1    3    3    0    0  0.23461472514E+02 -0.10038154985E+02 -0.63711873071E+02  0.68632412301E+02  0.00000000000E+00 0. -1.
         21    1    1    2  503  501 -0.24442897423E+02  0.54572480801E+02  0.10403892061E+01  0.59805462166E+02  0.00000000000E+00 0. -1.
         -2    1    1    2    0  502  0.30326069888E+02 -0.22700816466E+02 -0.10242205069E+03  0.10920290313E+03  0.00000000000E+00 0.  1.
<scales pt_clust_5="13000.00000" pt_clust_6="13000.00000" pt_clust_7="13000.00000" pt_clust_8="13000.00000" pt_clust_9="48.23431" pt_clust_10="37.88138"></scales>
<clustering>
<clus scale="   37.881">  1 10  2 -1</clus>
<clus scale="   48.234">  1  9  2 -1</clus>
<clus scale="   81.860">  5  6 -1 -1</clus>
<clus scale="   91.659">  7  8 -1 -1</clus>
<clus scale="   97.387">  1  5  2 -1</clus>
<clus scale="   37.881">  1  5  2 -1</clus>
</clustering>
</event>
<event>
10    4  0.3738096E-005  0.2551213E+03  0.7546771E-02  0.1151152E+00
          4   -1    0    0  503    0 -0.00000000000E+00  0.00000000000E+00  0.14997462209E+04  0.14997462209E+04  0.00000000000E+00 0. -1.
         21   -1    0    0  501  502  0.00000000000E+00 -0.00000000000E+00 -0.28651464844E+03  0.28651464844E+03  0.00000000000E+00 0. -1.
         24    2    1    2    0    0  0.51943032425E+02  0.14452120414E+01  0.21402034708E+03  0.23342747678E+03  0.77353155702E+02 0.  0.
         23    2    1    2    0    0 -0.12831353866E+03  0.80523889343E+02  0.13574860291E+02  0.17698998218E+03  0.90513623285E+02 0.  0.
        -13    1    3    3    0    0  0.72053702339E+02 -0.42130757505E+01  0.17073081744E+03  0.18536045439E+03  0.00000000000E+00 0.  1.
         14    1    3    3    0    0 -0.20110669914E+02  0.56582877919E+01  0.43289529638E+02  0.48067022390E+02  0.00000000000E+00 0. -1.
        -13    1    4    4    0    0 -0.24817377554E+02 -0.19122239870E+02  0.11292104906E+02  0.33302761440E+02  0.00000000000E+00 0.  1.
         13    1    4    4    0    0 -0.10349616111E+03  0.99646129213E+02  0.22827553846E+01  0.14368722074E+03  0.00000000000E+00 0. -1.
         21    1    1    2  503  502  0.21548886071E+03 -0.52843758561E+02  0.11426850932E+04  0.11640262601E+04  0.00000000000E+00 0. -1.
          3    1    1    2  501    0 -0.13911835447E+03 -0.29125342823E+02 -0.15704872813E+03  0.21181715028E+03  0.00000000000E+00 0. -1.
<scales pt_clust_5="13000.00000" pt_clust_6="13000.00000" pt_clust_7="13000.00000" pt_clust_8="13000.00000" pt_clust_9="238.52499" pt_clust_10="141.03716"></scales>
<clustering>
<clus scale="   77.353">  5  6 -1 -1</clus>
<clus scale="   90.514">  7  8 -1 -1</clus>
<clus scale="   93.186">  1  5  2 -1</clus>
<clus scale="  141.037">  2 10  1 -1</clus>
<clus scale="  238.525">  1  9  2 -1</clus>
<clus scale="  141.037">  2  5  1 -1</clus>
</clustering>
</event>
<event>
10    4  0.3738096E-005  0.1472910E+03  0.7546771E-02  0.1226691E+00
         21   -1    0    0  501  502  0.00000000000E+00  0.00000000000E+00  0.82175094128E+03  0.82175094128E+03  0.00000000000E+00 0. -1.
          2   -1    0    0  503    0 -0.00000000000E+00 -0.00000000000E+00 -0.14776339699E+03  0.14776339699E+03  0.00000000000E+00 0. -1.
         24    2    1    2    0    0 -0.60462681837E+02  0.49403711117E+02 -0.31559788805E+02  0.11607696950E+03  0.79883540311E+02 0.  0.
         23    2    1    2    0    0  0.61887197335E+02 -0.10251085527E+03  0.30671635948E+03  0.34162891961E+03  0.91087281755E+02 0.  0.
        -11    1    3    3    0    0  0.13628479403E+02  0.33111292651E+02 -0.11510077886E+02  0.37610836800E+02  0.00000000000E+00 0.  1.
         12    1    3    3    0    0 -0.74091161241E+02  0.16292418467E+02 -0.20049710919E+02  0.78466132704E+02  0.00000000000E+00 0. -1.
        -13    1    4    4    0    0  0.33783274154E+02 -0.10869679516E+03  0.19061432427E+03  0.22201379125E+03  0.00000000000E+00 0. -1.
         13    1    4    4    0    0  0.28103923181E+02  0.61859398923E+01  0.11610203522E+03  0.11961512836E+03  0.00000000000E+00 0.  1.
         21    1    1    2  503  502  0.88509212111E+02 -0.20310015189E+02 -0.56607115290E+01  0.90985828570E+02  0.00000000000E+00 0. -1.
          1    1    1    2  501    0 -0.89933727609E+02  0.73417159340E+02  0.40449168514E+03  0.42082262058E+03  0.00000000000E+00 0. -1.
<scales pt_clust_5="13000.00000" pt_clust_6="13000.00000" pt_clust_7="13000.00000" pt_clust_8="13000.00000" pt_clust_9="90.80957" pt_clust_10="115.74869"></scales>
<clustering>
<clus scale="   79.884">  5  6 -1 -1</clus>
<clus scale="   90.810">  2  9  1 -1</clus>
<clus scale="   90.810">  2  5  1 -1</clus>
<clus scale="   91.087">  7  8 -1 -1</clus>
<clus scale="  115.749">  1 10  2 -1</clus>
<clus scale="  115.749">  1  5  2 -1</clus>
</clustering>
</event>
<event>
10    4  0.3738096E-005  0.1095404E+03  0.7546771E-02  0.1261512E+00
          2   -1    0    0  503    0 -0.00000000000E+00  0.00000000000E+00  0.43800543711E+03  0.43800543711E+03  0.00000000000E+00 0. -1.
         21   -1    0    0  501  502  0.00000000000E+00 -0.00000000000E+00 -0.13559241727E+03  0.13559241727E+03  0.00000000000E+00 0. -1.
         24    2    1    2    0    0 -0.27993741712E+02 -0.30527509900E+02  0.28427253021E+03  0.30114232530E+03  0.90334103302E+02 0.  0.
         23    2    1    2    0    0  0.71699889728E+02  0.21032393152E+02  0.56018520981E+02  0.13008988094E+03  0.90565261999E+02 0.  0.
        -13    1    3    3    0    0 -0.16142300447E+01 -0.58089213372E+02  0.20642690314E+03  0.21445052761E+03  0.00000000000E+00 0.  1.
         14    1    3    3    0    0 -0.26379511668E+02  0.27561703472E+02  0.77845627065E+02  0.86691797693E+02  0.00000000000E+00 0. -1.
        -13    1    4    4    0    0  0.21009160244E+02 -0.14084283056E+02 -0.19970872707E+02  0.32227125221E+02  0.00000000000E+00 0.  1.
         13    1    4    4    0    0  0.50690729484E+02  0.35116676207E+02  0.75989393688E+02  0.97862755717E+02  0.00000000000E+00 0. -1.
         21    1    1    2  503  502 -0.91983422465E+01 -0.31527893387E+02  0.37513480945E+02  0.49858588168E+02  0.00000000000E+00 0.  1.
          1    1    1    2  501    0 -0.34507805769E+02  0.41023010135E+02 -0.75391512289E+02  0.92507059973E+02  0.00000000000E+00 0. -1.
<scales pt_clust_5="13000.00000" pt_clust_6="13000.00000" pt_clust_7="13000.00000" pt_clust_8="13000.00000" pt_clust_9="32.84231" pt_clust_10="53.21487"></scales>
<clustering>
<clus scale="   32.842">  1  9  2 -1</clus>
<clus scale="   53.215">  2 10  1 -1</clus>
<clus scale="   90.334">  5  6 -1 -1</clus>
<clus scale="   90.565">  7  8 -1 -1</clus>
<clus scale="  109.349">  1  5  2 -1</clus>
<clus scale="   53.215">  2  5  1 -1</clus>
</clustering>
</event>
<event>
10    4  0.3738096E-005  0.1102823E+03  0.7546771E-02  0.1273175E+00
         21   -1    0    0  501  502  0.00000000000E+00  0.00000000000E+00  0.15956703847E+03  0.15956703847E+03  0.00000000000E+00 0.  1.
          2   -1    0    0  503    0 -0.00000000000E+00 -0.00000000000E+00 -0.48660543383E+03  0.48660543383E+03  0.00000000000E+00 0. -1.
         23    2    1    2    0    0 -0.71704781934E+02 -0.25687411876E+02 -0.35396629963E+03  0.37752202250E+03  0.10690798528E+03 0.  0.
         24    2    1    2    0    0  0.10622165393E+02  0.22042605281E+01  0.10963841389E+03  0.13676603346E+03  0.81035035297E+02 0.  0.
        -13    1    4    4    0    0  0.23287295382E+02 -0.35121970092E+02  0.51855318642E+02  0.66819345857E+02  0.00000000000E+00 0.  1.
         14    1    4    4    0    0 -0.12665129989E+02  0.37326230620E+02  0.57783095252E+02  0.69946687604E+02  0.00000000000E+00 0. -1.
        -13    1    3    3    0    0 -0.87502034636E+02 -0.78730110545E+01 -0.33705680657E+03  0.34831864898E+03  0.00000000000E+00 0. -1.
         13    1    3    3    0    0  0.15797252702E+02 -0.17814400822E+02 -0.16909493060E+02  0.29203373523E+02  0.00000000000E+00 0.  1.
         21    1    1    2  503  502  0.54894686364E+02  0.39712982184E+01 -0.93687056830E+02  0.10865754653E+03  0.00000000000E+00 0.  1.
          1    1    1    2  501    0  0.61879301772E+01  0.19511853130E+02  0.10976547205E+02  0.23226869806E+02  0.00000000000E+00 0. -1.
<scales pt_clust_5="13000.00000" pt_clust_6="13000.00000" pt_clust_7="13000.00000" pt_clust_8="13000.00000" pt_clust_9="55.44539" pt_clust_10="20.46956"></scales>
<clustering>
<clus scale="   20.470">  1 10  2 -1</clus>
<clus scale="   55.445">  2  9  1 -1</clus>
<clus scale="   81.035">  5  6 -1 -1</clus>
<clus scale="   85.437">  1  5  2 -1</clus>
<clus scale="  106.908">  7  8 -1 -1</clus>
<clus scale="   20.470">  1  5  2 -1</clus>
</clustering>
</event>
<event>
10    4  0.3738096E-005  0.1004325E+03  0.7546771E-02  0.1286568E+00
         21   -1    0    0  501  502  0.00000000000E+00  0.00000000000E+00  0.39475911856E+02  0.39475911856E+02  0.00000000000E+00 0.  1.
          2   -1    0    0  503    0 -0.00000000000E+00 -0.00000000000E+00 -0.85728381939E+03  0.85728381939E+03  0.00000000000E+00 0. -1.
         24    2    1    2    0    0 -0.13125655000E+02 -0.27708160147E+02 -0.36022439897E+03  0.36972003536E+03  0.77403242681E+02 0.  0.
         23    2    1    2    0    0  0.56870386187E+02  0.15896725089E+01 -0.79999450647E+02  0.13427393742E+03  0.91612282382E+02 0.  0.
        -13    1    3    3    0    0 -0.32141019342E+02 -0.46386181339E+02 -0.25532547943E+03  0.26148771173E+03  0.00000000000E+00 0.  1.
         14    1    3    3    0    0  0.19015364341E+02  0.18678021192E+02 -0.10489891954E+03  0.10823232363E+03  0.00000000000E+00 0. -1.
        -13    1    4    4    0    0  0.47033835186E+02 -0.21400830193E+02 -0.12924018547E+01  0.51689916694E+02  0.00000000000E+00 0.  1.
         13    1    4    4    0    0  0.98365510012E+01  0.22990502702E+02 -0.78707048792E+02  0.82584020728E+02  0.00000000000E+00 0. -1.
         21    1    1    2  503  502 -0.25584357008E+01 -0.33678488935E+02 -0.89166914191E+02  0.95349487658E+02  0.00000000000E+00 0. -1.
          1    1    1    2  501    0 -0.41186295486E+02  0.59796976573E+02 -0.28841714373E+03  0.29741627081E+03  0.00000000000E+00 0. -1.
<scales pt_clust_5="13000.00000" pt_clust_6="13000.00000" pt_clust_7="13000.00000" pt_clust_8="13000.00000" pt_clust_9="33.77553" pt_clust_10="63.06951"></scales>
<clustering>
<clus scale="   33.776">  2  9  1 -1</clus>
<clus scale="   63.070">  1 10  2 -1</clus>
<clus scale="   77.403">  5  6 -1 -1</clus>
<clus scale="   87.665">  2  5  1 -1</clus>
<clus scale="   91.612">  7  8 -1 -1</clus>
<clus scale="   63.070">  1  5  2 -1</clus>
</clustering>
</event>
<event>
10    4  0.3738096E-005  0.1827056E+03  0.7546771E-02  0.1166478E+00
          2   -1    0    0  503    0 -0.00000000000E+00  0.00000000000E+00  0.22196426822E+03  0.22196426822E+03  0.00000000000E+00 0. -1.
         21   -1    0    0  501  502  0.00000000000E+00 -0.00000000000E+00 -0.36301579391E+03  0.36301579391E+03  0.00000000000E+00 0.  1.
         23    2    1    2    0    0  0.14374760729E+03 -0.45631036529E+02  0.11922381691E+03  0.21314470423E+03  0.92036842241E+02 0.  0.
         24    2    1    2    0    0 -0.14942096814E+03  0.54153331607E+02 -0.26004203193E+03  0.31536898108E+03  0.81095787869E+02 0.  0.
        -11    1    4    4    0    0 -0.70751787160E+02  0.47189636560E+02 -0.19611808615E+03  0.21376384376E+03  0.00000000000E+00 0.  1.
         12    1    4    4    0    0 -0.78669180978E+02  0.69636950462E+01 -0.63923945789E+02  0.10160513732E+03  0.00000000000E+00 0. -1.
        -11    1    3    3    0    0  0.24280585480E+02  0.16552832188E+02 -0.51332560079E+01  0.29831081140E+02  0.00000000000E+00 0.  1.
         11    1    3    3    0    0  0.11946702181E+03 -0.62183868717E+02  0.12435707291E+03  0.18331362309E+03  0.00000000000E+00 0. -1.
         21    1    1    2  503  502 -0.31518658505E+01 -0.31454391427E+02  0.26667034134E+01  0.31724191171E+02  0.00000000000E+00 0. -1.
          1    1    1    2  501    0  0.88252266998E+01  0.22932096349E+02 -0.29000140784E+01  0.24742185654E+02  0.00000000000E+00 0. -1.
<scales pt_clust_5="13000.00000" pt_clust_6="13000.00000" pt_clust_7="13000.00000" pt_clust_8="13000.00000" pt_clust_9="30.62713" pt_clust_10="24.57166"></scales>
<clustering>
<clus scale="   24.572">  2 10  1 -1</clus>
<clus scale="   30.627">  1  9  2 -1</clus>
<clus scale="   81.096">  5  6 -1 -1</clus>
<clus scale="   92.037">  7  8 -1 -1</clus>
<clus scale="  177.446">  2  5  1 -1</clus>
<clus scale="   24.572">  2  5  1 -1</clus>
</clustering>
</event>
<event>
10    4  0.3738096E-005  0.1642257E+03  0.7546771E-02  0.1186379E+00
         21   -1    0    0  501  502  0.00000000000E+00  0.00000000000E+00  0.80858486653E+02  0.80858486653E+02  0.00000000000E+00 0.  1.
          2   -1    0    0  503    0 -0.00000000000E+00 -0.00000000000E+00 -0.57851094490E+03  0.57851094490E+03  0.00000000000E+00 0. -1.
         24    2    1    2    0    0  0.12313482853E+03  0.17914198891E+02 -0.19506080786E+03  0.24498407338E+03  0.80531813151E+02 0.  0.
         23    2    1    2    0    0 -0.12967166724E+03 -0.72792086838E+02 -0.14821887577E+03  0.23080766824E+03  0.95864046418E+02 0.  0.
        -13    1    3    3    0    0  0.33007295923E+02 -0.26058786103E+02 -0.92150845914E+02  0.10129323926E+03  0.00000000000E+00 0.  1.
         14    1    3    3    0    0  0.90127532603E+02  0.43972984993E+02 -0.10290996194E+03  0.14369083412E+03  0.00000000000E+00 0. -1.
        -11    1    4    4    0    0  0.29778008250E+01 -0.29807020008E+02 -0.56370634980E+02  0.63835524809E+02  0.00000000000E+00 0. -1.
         11    1    4    4    0    0 -0.13264946806E+03 -0.42985066830E+02 -0.91848240790E+02  0.16697214344E+03  0.00000000000E+00 0.  1.
         21    1    1    2  503  502  0.44184762367E+01  0.20425202258E+02 -0.14674714586E+03  0.14822765139E+03  0.00000000000E+00 0. -1.
          1    1    1    2  501    0  0.21183624720E+01  0.34452685690E+02 -0.76256287629E+01  0.35350038541E+02  0.00000000000E+00 0. -1.
<scales pt_clust_5="13000.00000" pt_clust_6="13000.00000" pt_clust_7="13000.00000" pt_clust_8="13000.00000" pt_clust_9="20.89765" pt_clust_10="35.54795"></scales>
<clustering>
<clus scale="   20.898">  2  9  1 -1</clus>
<clus scale="   35.548">  1 10  2 -1</clus>
<clus scale="   80.532">  5  6 -1 -1</clus>
<clus scale="   95.864">  7  8 -1 -1</clus>
<clus scale="  155.774">  2  5  1 -1</clus>
<clus scale="   35.548">  1  5  2 -1</clus>
</clustering>
</event>
<event>
10    4  0.3738096E-005  0.1177344E+03  0.7546771E-02  0.1250890E+00
         21   -1    0    0  501  502  0.00000000000E+00  0.00000000000E+00  0.40726388139E+03  0.40726388139E+03  0.00000000000E+00 0. -1.
          2   -1    0    0  503    0 -0.00000000000E+00 -0.00000000000E+00 -0.23856370699E+03  0.23856370699E+03  0.00000000000E+00 0. -1.
         23    2    1    2    0    0 -0.63137528978E+02 -0.23311632199E+02 -0.15597849072E+03  0.19176820719E+03  0.88971770589E+02 0.  0.
         24    2    1    2    0    0  0.33940275827E+02 -0.69162603157E+02  0.39046337601E+02  0.12573098209E+03  0.91368787770E+02 0.  0.
        -11    1    4    4    0    0  0.52228906572E+02 -0.37638104351E+02 -0.94490167784E+01  0.65067422716E+02  0.00000000000E+00 0.  1.
         12    1    4    4    0    0 -0.18288630745E+02 -0.31524498806E+02  0.48495354379E+02  0.60663559373E+02  0.00000000000E+00 0. -1.
        -13    1    3    3    0    0 -0.84057049698E+02 -0.30102813342E+02 -0.13034174615E+03  0.15798967614E+03  0.00000000000E+00 0. -1.
         13    1    3    3    0    0  0.20919520720E+02  0.67911811435E+01 -0.25636744568E+02  0.33778531060E+02  0.00000000000E+00 0.  1.
         21    1    1    2  503  502 -0.11893828304E+02 -0.19090352425E+02  0.42917464488E+01  0.22898117718E+02  0.00000000000E+00 0.  1.
          1    1    1    2  501    0  0.41091081455E+02  0.11156458778E+03  0.28134058108E+03  0.30543028138E+03  0.00000000000E+00 0. -1.
<scales pt_clust_5="13000.00000" pt_clust_6="13000.00000" pt_clust_7="13000.00000" pt_clust_8="13000.00000" pt_clust_9="22.49233" pt_clust_10="117.73439"></scales>
<clustering>
<clus scale="   22.492">  2  9  1 -1</clus>
<clus scale="   88.972">  7  8 -1 -1</clus>
<clus scale="   91.369">  5  6 -1 -1</clus>
<clus scale="  117.734">  1 10  2 -1</clus>
<clus scale="  108.659">  2  7  1 -1</clus>
<clus scale="  117.734">  1  5  2 -1</clus>
</clustering>
</event>
<event>
10    4  0.3738096E-005  0.1858372E+03  0.7546771E-02  0.1185325E+00
         21   -1    0    0  503  502  0.00000000000E+00  0.00000000000E+00  0.18347661340E+03  0.18347661340E+03  0.00000000000E+00 0.  1.
          2   -1    0    0  502    0 -0.00000000000E+00 -0.00000000000E+00 -0.11023625549E+04  0.11023625549E+04  0.00000000000E+00 0. -1.
         24    2    1    2    0    0 -0.68417992070E+01 -0.73513147062E+02  0.69333459630E+02  0.13007252039E+03  0.81613350194E+02 0.  0.
         23    2    1    2    0    0 -0.13891240684E+03 -0.75274106020E+02 -0.43847808558E+02  0.18707770165E+03  0.90069908004E+02 0.  0.
        -13    1    3    3    0    0 -0.29539826385E+02 -0.38160044344E+02  0.73422532580E+02  0.87861587839E+02  0.00000000000E+00 0.  1.
         14    1    3    3    0    0  0.22698027178E+02 -0.35353102718E+02 -0.40890729498E+01  0.42210932554E+02  0.00000000000E+00 0. -1.
        -13    1    4    4    0    0 -0.97533726307E+02 -0.94283497981E+02 -0.25750991390E+02  0.13807722229E+03  0.00000000000E+00 0.  1.
         13    1    4    4    0    0 -0.41378680533E+02  0.19009391962E+02 -0.18096817167E+02  0.49000479355E+02  0.00000000000E+00 0. -1.
         21    1    1    2  503  501  0.35664311471E+02  0.23186114367E+02 -0.30103039057E+03  0.30402110956E+03  0.00000000000E+00 0.  1.
          1    1    1    2  501    0  0.11008989458E+03  0.12560113871E+03 -0.64334120196E+03  0.66466783665E+03  0.00000000000E+00 0. -1.
<scales pt_clust_5="13000.00000" pt_clust_6="13000.00000" pt_clust_7="13000.00000" pt_clust_8="13000.00000" pt_clust_9="28.27347" pt_clust_10="171.93465"></scales>
<clustering>
<clus scale="   28.273">  9 10 -1 -1</clus>
<clus scale="   81.613">  5  6 -1 -1</clus>
<clus scale="   90.070">  7  8 -1 -1</clus>
<clus scale="  110.053">  2  5  1 -1</clus>
<clus scale="  171.935">  1  9  2 -1</clus>
<clus scale="  171.935">  1  5  2 -1</clus>
</clustering>
</event>
<event>
10    4  0.3738096E-005  0.1955343E+03  0.7546771E-02  0.1160703E+00
         21   -1    0    0  501  502  0.00000000000E+00  0.00000000000E+00  0.47317657826E+03  0.47317657826E+03  0.00000000000E+00 0. -1.
          2   -1    0    0  503    0 -0.00000000000E+00 -0.00000000000E+00 -0.32800786040E+03  0.32800786040E+03  0.00000000000E+00 0. -1.
         24    2    1    2    0    0 -0.14195166572E+03  0.71305601613E+02  0.16718684597E+03  0.24508036334E+03  0.82934786472E+02 0.  0.
         23    2    1    2    0    0 -0.71069782471E+02 -0.16579586536E+03  0.93381534327E+02  0.22289578218E+03  0.91778188090E+02 0.  0.
        -13    1    3    3    0    0 -0.38310300272E+02  0.58129622718E+02  0.39305735236E+02  0.79947939103E+02  0.00000000000E+00 0.  1.
         14    1    3    3    0    0 -0.10364136544E+03  0.13175978895E+02  0.12788111074E+03  0.16513242424E+03  0.00000000000E+00 0. -1.
        -13    1    4    4    0    0 -0.42408717608E+02 -0.16823483659E+03  0.82843605540E+02  0.19226159927E+03  0.00000000000E+00 0. -1.
         13    1    4    4    0    0 -0.28661064863E+02  0.24389712335E+01  0.10537928787E+02  0.30634182915E+02  0.00000000000E+00 0.  1.
         21    1    1    2  503  502  0.75180047480E+02 -0.13957689043E+02 -0.13659761851E+03  0.15654317617E+03  0.00000000000E+00 0. -1.
          1    1    1    2  501    0  0.13784140071E+03  0.10844795279E+03  0.21197956066E+02  0.17666511697E+03  0.00000000000E+00 0. -1.
<scales pt_clust_5="13000.00000" pt_clust_6="13000.00000" pt_clust_7="13000.00000" pt_clust_8="13000.00000" pt_clust_9="76.46474" pt_clust_10="172.65700"></scales>
<clustering>
<clus scale="   76.465">  2  9  1 -1</clus>
<clus scale="   82.935">  5  6 -1 -1</clus>
<clus scale="   91.778">  7  8 -1 -1</clus>
<clus scale="  165.449">  2  5  1 -1</clus>
<clus scale="  172.657">  1 10  2 -1</clus>
<clus scale="  172.657">  1  5  2 -1</clus>
</clustering>
</event>
<event>
10    4  0.3738096E-005  0.1277753E+03  0.7546771E-02  0.1247084E+00
         21   -1    0    0  501  502  0.00000000000E+00  0.00000000000E+00  0.14046405174E+03  0.14046405174E+03  0.00000000000E+00 0.  1.
          2   -1    0    0  503    0 -0.00000000000E+00 -0.00000000000E+00 -0.77215698107E+03  0.77215698107E+03  0.00000000000E+00 0. -1.
         23    2    1    2    0    0  0.13945776992E+02  0.51082260766E+01 -0.71727071615E+02  0.11644314597E+03  0.90518808931E+02 0.  0.
         24    2    1    2    0    0 -0.55249064430E+02  0.21775761411E+02  0.50718393082E+02  0.11171402609E+03  0.79881320238E+02 0.  0.
        -13    1    4    4    0    0 -0.12307188222E+02  0.47453459200E+02  0.19622447953E+02  0.52804716983E+02  0.00000000000E+00 0.  1.
         14    1    4    4    0    0 -0.42941876207E+02 -0.25677697789E+02  0.31095945129E+02  0.58909309107E+02  0.00000000000E+00 0. -1.
        -13    1    3    3    0    0  0.52741433166E+02  0.40471544571E+01 -0.40095911086E+02  0.66375600317E+02  0.00000000000E+00 0. -1.
         13    1    3    3    0    0 -0.38795656173E+02  0.10610716195E+01 -0.31631160529E+02  0.50067545649E+02  0.00000000000E+00 0.  1.
         21    1    1    2  503  502  0.91403544635E+02  0.50254212878E+02 -0.57724575305E+03  0.58659419814E+03  0.00000000000E+00 0. -1.
          1    1    1    2  501    0 -0.50100257198E+02 -0.77138200366E+02 -0.33438497750E+02  0.97869662606E+02  0.00000000000E+00 0. -1.
<scales pt_clust_5="13000.00000" pt_clust_6="13000.00000" pt_clust_7="13000.00000" pt_clust_8="13000.00000" pt_clust_9="99.72718" pt_clust_10="90.83391"></scales>
<clustering>
<clus scale="   79.881">  5  6 -1 -1</clus>
<clus scale="   90.519">  7  8 -1 -1</clus>
<clus scale="   91.729">  2  7  1 -1</clus>
<clus scale="   90.834">  1 10  2 -1</clus>
<clus scale="   99.727">  2  9  1 -1</clus>
<clus scale="   90.834">  1  5  2 -1</clus>
</clustering>
</event>
<event>
10    4  0.3738096E-005  0.1249428E+03  0.7546771E-02  0.1238403E+00
         21   -1    0    0  501  502  0.00000000000E+00  0.00000000000E+00  0.42993684681E+03  0.42993684681E+03  0.00000000000E+00 0.  1.
          2   -1    0    0  503    0 -0.00000000000E+00 -0.00000000000E+00 -0.99563106673E+02  0.99563106673E+02  0.00000000000E+00 0. -1.
         24    2    1    2    0    0 -0.89883693678E+02  0.30958920722E+02  0.32630748360E+02  0.12829434918E+03  0.79731682109E+02 0.  0.
         23    2    1    2    0    0  0.99256493239E+02 -0.12383250054E+02  0.29869741081E+03  0.32790141965E+03  0.91071408534E+02 0.  0.
        -11    1    3    3    0    0  0.11232355763E+02  0.16951737791E+02  0.13573030108E+02  0.24449015858E+02  0.00000000000E+00 0.  1.
         12    1    3    3    0    0 -0.10111604944E+03  0.14007182932E+02  0.19057718252E+02  0.10384533332E+03  0.00000000000E+00 0. -1.
        -13    1    4    4    0    0  0.46521262084E+02  0.32634300794E+02  0.19536637803E+03  0.20346313445E+03  0.00000000000E+00 0.  1.
         13    1    4    4    0    0  0.52735231155E+02 -0.45017550847E+02  0.10333103278E+03  0.12443828521E+03  0.00000000000E+00 0. -1.
         21    1    1    2  503  502  0.26797523178E+02 -0.21109681625E+01  0.14644707190E+02  0.30610960190E+02  0.00000000000E+00 0. -1.
          1    1    1    2  501    0 -0.36170322738E+02 -0.16464702506E+02 -0.15599126225E+02  0.42693224458E+02  0.00000000000E+00 0. -1.
<scales pt_clust_5="13000.00000" pt_clust_6="13000.00000" pt_clust_7="13000.00000" pt_clust_8="13000.00000" pt_clust_9="26.88054" pt_clust_10="32.52275"></scales>
<clustering>
<clus scale="   26.881">  2  9  1 -1</clus>
<clus scale="   32.523">  1 10  2 -1</clus>
<clus scale="   79.732">  5  6 -1 -1</clus>
<clus scale="   91.071">  7  8 -1 -1</clus>
<clus scale="  116.935">  2  5  1 -1</clus>
<clus scale="   32.523">  1  5  2 -1</clus>
</clustering>
</event>
<event>
10    4  0.3738096E-005  0.1004945E+03  0.7546771E-02  0.1284539E+00
         21   -1    0    0  501  502  0.00000000000E+00  0.00000000000E+00  0.18357925516E+03  0.18357925516E+03  0.00000000000E+00 0.  1.
          2   -1    0    0  503    0 -0.00000000000E+00 -0.00000000000E+00 -0.17696132038E+03  0.17696132038E+03  0.00000000000E+00 0. -1.
         24    2    1    2    0    0  0.18008392821E+02  0.39369142704E+02 -0.47776129371E+02  0.10316203536E+03  0.80533318530E+02 0.  0.
         23    2    1    2    0    0  0.27019702652E+02 -0.25300449225E+02  0.11437288146E+03  0.15089859704E+03  0.91208845585E+02 0.  0.
        -13    1    3    3    0    0  0.49174715932E+02  0.32212421407E+02 -0.24887520550E+02  0.63837147955E+02  0.00000000000E+00 0.  1.
         14    1    3    3    0    0 -0.31166323111E+02  0.71567212970E+01 -0.22888608821E+02  0.39324887409E+02  0.00000000000E+00 0. -1.
        -11    1    4    4    0    0  0.29423784586E+02 -0.54620411192E+02  0.48479158360E+02  0.78736123942E+02  0.00000000000E+00 0.  1.
         11    1    4    4    0    0 -0.24040819334E+01  0.29319961967E+02  0.65893723100E+02  0.72162473098E+02  0.00000000000E+00 0. -1.
         21    1    1    2  503  502 -0.25007686429E+02  0.98966471216E+01 -0.68933203980E+02  0.73994017432E+02  0.00000000000E+00 0. -1.
          1    1    1    2  501    0 -0.20020409044E+02 -0.23965340600E+02  0.89543866632E+01  0.32485925705E+02  0.00000000000E+00 0. -1.
<scales pt_clust_5="13000.00000" pt_clust_6="13000.00000" pt_clust_7="13000.00000" pt_clust_8="13000.00000" pt_clust_9="26.89476" pt_clust_10="32.29431"></scales>
<clustering>
<clus scale="   26.895">  2  9  1 -1</clus>
<clus scale="   32.294">  1 10  2 -1</clus>
<clus scale="   80.533">  5  6 -1 -1</clus>
<clus scale="   90.916">  2  5  1 -1</clus>
<clus scale="   91.209">  7  8 -1 -1</clus>
<clus scale="   32.294">  1  5  2 -1</clus>
</clustering>
</event>
<event>
10    4  0.3738096E-005  0.1015930E+03  0.7546771E-02  0.1282300E+00
         21   -1    0    0  501  502  0.00000000000E+00  0.00000000000E+00  0.60977167072E+02  0.60977167072E+02  0.00000000000E+00 0. -1.
          2   -1    0    0  503    0 -0.00000000000E+00 -0.00000000000E+00 -0.62389421036E+03  0.62389421036E+03  0.00000000000E+00 0. -1.
         24    2    1    2    0    0 -0.43006642984E+02 -0.40635427560E+02 -0.25850578685E+03  0.27708573008E+03  0.80314697714E+02 0.  0.
         23    2    1    2    0    0  0.28191616000E+01  0.20893516628E+02 -0.14435897638E+03  0.17212489319E+03  0.91339904123E+02 0.  0.
        -13    1    3    3    0    0 -0.47585010559E+02  0.84227755766E+01 -0.99380324735E+02  0.11050667547E+03  0.00000000000E+00 0.  1.
         14    1    3    3    0    0  0.45783675748E+01 -0.49058203137E+02 -0.15912546211E+03  0.16657905462E+03  0.00000000000E+00 0. -1.
        -13    1    4    4    0    0  0.28764584679E+02  0.46563520563E+02 -0.10525333233E+03  0.11863316039E+03  0.00000000000E+00 0.  1.
         13    1    4    4    0    0 -0.25945423079E+02 -0.25670003935E+02 -0.39105644053E+02  0.53491732797E+02  0.00000000000E+00 0. -1.
         21    1    1    2  503  502 -0.25984108864E+02 -0.19706448961E+02 -0.15506974171E+03  0.15846180246E+03  0.00000000000E+00 0.  1.
          1    1    1    2  501    0  0.66171590248E+02  0.39448359894E+02 -0.49825383438E+01  0.77198951694E+02  0.00000000000E+00 0. -1.
<scales pt_clust_5="13000.00000" pt_clust_6="13000.00000" pt_clust_7="13000.00000" pt_clust_8="13000.00000" pt_clust_9="32.61162" pt_clust_10="74.18775"></scales>
<clustering>
<clus scale="   32.612">  2  9  1 -1</clus>
<clus scale="   74.188">  1 10  2 -1</clus>
<clus scale="   80.315">  5  6 -1 -1</clus>
<clus scale="   91.340">  7  8 -1 -1</clus>
<clus scale="   91.807">  2  5  1 -1</clus>
<clus scale="   74.188">  1  5  2 -1</clus>
</clustering>
</event>
<event>
10    4  0.3738096E-005  0.1027700E+03  0.7546771E-02  0.1282676E+00
         21   -1    0    0  501  502  0.00000000000E+00  0.00000000000E+00  0.27111198450E+03  0.27111198450E+03  0.00000000000E+00 0.  1.
          2   -1    0    0  503    0 -0.00000000000E+00 -0.00000000000E+00 -0.51433909516E+03  0.51433909516E+03  0.00000000000E+00 0. -1.
         23    2    1    2    0    0 -0.57326109725E+02 -0.10306349894E+01 -0.94740981871E+02  0.14606597311E+03  0.95247413555E+02 0.  0.
         24    2    1    2    0    0 -0.28403136384E+02  0.24622730630E+02  0.18422489606E+03  0.20400179639E+03  0.79151143925E+02 0.  0.
        -11    1    4    4    0    0 -0.41289359569E+02  0.46276380799E+02  0.13955195978E+03  0.15271235743E+03  0.00000000000E+00 0.  1.
         12    1    4    4    0    0  0.12886223186E+02 -0.21653650168E+02  0.44672936274E+02  0.51289438962E+02  0.00000000000E+00 0. -1.
        -11    1    3    3    0    0 -0.27651068040E+02 -0.23619029750E+02 -0.10180837452E+03  0.10810821085E+03  0.00000000000E+00 0.  1.
         11    1    3    3    0    0 -0.29675041685E+02  0.22588394761E+02  0.70673926493E+01  0.37957762260E+02  0.00000000000E+00 0. -1.
         21    1    1    2  503  502  0.29639594661E+02 -0.35099984863E+02 -0.36618696240E+03  0.36905745615E+03  0.00000000000E+00 0. -1.
          1    1    1    2  501    0  0.56089651448E+02  0.11507889222E+02  0.33475937562E+02  0.66325854006E+02  0.00000000000E+00 0. -1.
<scales pt_clust_5="13000.00000" pt_clust_6="13000.00000" pt_clust_7="13000.00000" pt_clust_8="13000.00000" pt_clust_9="45.94034" pt_clust_10="59.88923"></scales>
<clustering>
<clus scale="   45.940">  2  9  1 -1</clus>
<clus scale="   59.889">  1 10  2 -1</clus>
<clus scale="   79.151">  5  6 -1 -1</clus>
<clus scale="   88.060">  1  5  2 -1</clus>
<clus scale="   95.247">  7  8 -1 -1</clus>
<clus scale="   59.889">  1  5  2 -1</clus>
</clustering>
</event>
<event>
10    4  0.3738096E-005  0.2580701E+03  0.7546771E-02  0.1108671E+00
          2   -1    0    0  503    0 -0.00000000000E+00  0.00000000000E+00  0.26761624609E+04  0.26761624609E+04  0.00000000000E+00 0. -1.
         21   -1    0    0  501  502  0.00000000000E+00 -0.00000000000E+00 -0.92766594827E+02  0.92766594827E+02  0.00000000000E+00 0. -1.
         24    2    1    2    0    0 -0.23910305826E+03 -0.87310860395E+02  0.14351320726E+04  0.14597321810E+04  0.80128119222E+02 0.  0.
         23    2    1    2    0    0  0.18689746880E+03  0.42073091920E+02  0.45782193669E+03  0.50392887091E+03  0.87421806873E+02 0.  0.
        -11    1    3    3    0    0 -0.78926585615E+02 -0.55736299260E+02  0.38250953118E+03  0.39452437493E+03  0.00000000000E+00 0.  1.
         12    1    3    3    0    0 -0.16017647264E+03 -0.31574561136E+02  0.10526225415E+04  0.10652078061E+04  0.00000000000E+00 0. -1.
        -11    1    4    4    0    0  0.35940814392E+02  0.40944397886E+02  0.17575611806E+03  0.18400651861E+03  0.00000000000E+00 0.  1.
         11    1    4    4    0    0  0.15095665440E+03  0.11286940338E+01  0.28206581863E+03  0.31992235230E+03  0.00000000000E+00 0. -1.
         21    1    1    2  503  502 -0.53259838190E+02 -0.13591618083E+03  0.50405852073E+03  0.52477119862E+03  0.00000000000E+00 0. -1.
          1    1    1    2  501    0  0.10546542765E+03  0.18115394931E+03  0.18638333596E+03  0.28049680516E+03  0.00000000000E+00 0. -1.
<scales pt_clust_5="13000.00000" pt_clust_6="13000.00000" pt_clust_7="13000.00000" pt_clust_8="13000.00000" pt_clust_9="145.97883" pt_clust_10="194.05520"></scales>
<clustering>
<clus scale="   80.128">  5  6 -1 -1</clus>
<clus scale="   87.422">  7  8 -1 -1</clus>
<clus scale="  145.979">  1  9  2 -1</clus>
<clus scale="  194.055">  2 10  1 -1</clus>
<clus scale="  255.691">  1  5  2 -1</clus>
<clus scale="  194.055">  2  5  1 -1</clus>
</clustering>
</event>
<event>
10    4  0.3738096E-005  0.9500165E+02  0.7546771E-02  0.1296470E+00
         21   -1    0    0  501  502  0.00000000000E+00  0.00000000000E+00  0.15524506051E+03  0.15524506051E+03  0.00000000000E+00 0. -1.
          2   -1    0    0  503    0 -0.00000000000E+00 -0.00000000000E+00 -0.68847322003E+03  0.68847322003E+03  0.00000000000E+00 0. -1.
         24    2    1    2    0    0  0.33963555653E+01  0.49671231754E+02 -0.35938001482E+03  0.37166927658E+03  0.80655375585E+02 0.  0.
         23    2    1    2    0    0  0.65628855291E+01  0.19283952605E+01 -0.12712037020E+03  0.15597237780E+03  0.90116613021E+02 0.  0.
        -13    1    3    3    0    0  0.12967025873E+02  0.64530524665E+02 -0.33585760572E+03  0.34224649552E+03  0.00000000000E+00 0.  1.
         14    1    3    3    0    0 -0.95706703076E+01 -0.14859292911E+02 -0.23522409097E+02  0.29422781067E+02  0.00000000000E+00 0. -1.
        -13    1    4    4    0    0 -0.12408786917E+02  0.35111332488E+02 -0.10589286168E+03  0.11225008604E+03  0.00000000000E+00 0. -1.
         13    1    4    4    0    0  0.18971672446E+02 -0.33182937228E+02 -0.21227508514E+02  0.43722291753E+02  0.00000000000E+00 0.  1.
         21    1    1    2  503  502 -0.19389306160E+02 -0.12131770898E+02 -0.17759539123E+03  0.17906213460E+03  0.00000000000E+00 0.  1.
          1    1    1    2  501    0  0.94300650656E+01 -0.39467856116E+02  0.13086761672E+03  0.13701449157E+03  0.00000000000E+00 0. -1.
<scales pt_clust_5="13000.00000" pt_clust_6="13000.00000" pt_clust_7="13000.00000" pt_clust_8="13000.00000" pt_clust_9="22.87193" pt_clust_10="40.62294"></scales>
<clustering>
<clus scale="   22.872">  2  9  1 -1</clus>
<clus scale="   40.623">  1 10  2 -1</clus>
<clus scale="   80.655">  5  6 -1 -1</clus>
<clus scale="   86.079">  2  5  1 -1</clus>
<clus scale="   90.117">  7  8 -1 -1</clus>
<clus scale="   40.623">  1  5  2 -1</clus>
</clustering>
</event>
<event>
10    4  0.3738096E-005  0.4449561E+03  0.7546771E-02  0.1029237E+00
          2   -1    0    0  503    0 -0.00000000000E+00  0.00000000000E+00  0.60592046970E+03  0.60592046970E+03  0.00000000000E+00 0. -1.
         21   -1    0    0  501  502  0.00000000000E+00 -0.00000000000E+00 -0.37238080553E+03  0.37238080553E+03  0.00000000000E+00 0. -1.
         24    2    1    2    0    0 -0.36716861520E+02  0.45367134400E+02  0.80902868950E+02  0.12971688726E+03  0.82914967478E+02 0.  0.
         23    2    1    2    0    0 -0.65797510279E+02  0.30442845033E+03  0.17234538715E+03  0.36683746150E+03  0.88661135545E+02 0.  0.
        -13    1    3    3    0    0  0.17374589179E+02  0.28719266932E+02  0.33832566883E+01  0.33736020335E+02  0.00000000000E+00 0.  1.
         14    1    3    3    0    0 -0.54091450698E+02  0.16647867468E+02  0.77519612262E+02  0.95980866922E+02  0.00000000000E+00 0. -1.
        -13    1    4    4    0    0 -0.54592684959E+02  0.11211604936E+03  0.10418555564E+03  0.16249615312E+03  0.00000000000E+00 0. -1.
         13    1    4    4    0    0 -0.11204825320E+02  0.19231240097E+03  0.68159831509E+02  0.20434130838E+03  0.00000000000E+00 0.  1.
         21    1    1    2  503  502  0.36285680853E+02  0.39619324497E+02  0.58118736289E+02  0.79146250804E+02  0.00000000000E+00 0.  1.
          1    1    1    2  501    0  0.66228690946E+02 -0.38941490923E+03 -0.77827328211E+02  0.40260067567E+03  0.00000000000E+00 0. -1.
<scales pt_clust_5="13000.00000" pt_clust_6="13000.00000" pt_clust_7="13000.00000" pt_clust_8="13000.00000" pt_clust_9="53.72468" pt_clust_10="385.25387"></scales>
<clustering>
<clus scale="   53.725">  1  9  2 -1</clus>
<clus scale="   82.915">  5  6 -1 -1</clus>
<clus scale="   88.661">  7  8 -1 -1</clus>
<clus scale="   97.358">  5  7 -1 -1</clus>
<clus scale="  385.254">  2 10  1 -1</clus>
<clus scale="  385.254">  2  5  1 -1</clus>
</clustering>
</event>
<event>
10    4  0.3738096E-005  0.1080317E+03  0.7546771E-02  0.1272323E+00
         21   -1    0    0  501  502  0.00000000000E+00  0.00000000000E+00  0.90840229814E+03  0.90840229814E+03  0.00000000000E+00 0. -1.
          2   -1    0    0  503    0 -0.00000000000E+00 -0.00000000000E+00 -0.40686131374E+02  0.40686131374E+02  0.00000000000E+00 0. -1.
         24    2    1    2    0    0  0.12116476221E+02 -0.21208911853E+00  0.86037725611E+02  0.11213043483E+03  0.70879406102E+02 0.  0.
         23    2    1    2    0    0 -0.10290328505E+03 -0.29784026657E+02  0.56570602073E+03  0.58280188358E+03  0.90324743536E+02 0.  0.
        -11    1    3    3    0    0  0.48109705832E+01  0.28759623242E+02  0.74671504787E+02  0.80162927804E+02  0.00000000000E+00 0.  1.
         12    1    3    3    0    0  0.73055056381E+01 -0.28971712360E+02  0.11366220824E+02  0.31967507027E+02  0.00000000000E+00 0. -1.
        -13    1    4    4    0    0 -0.11316270746E+03 -0.55502799795E+01  0.47725798161E+03  0.49052195158E+03  0.00000000000E+00 0. -1.
         13    1    4    4    0    0  0.10259422411E+02 -0.24233746678E+02  0.88448039123E+02  0.92279932005E+02  0.00000000000E+00 0.  1.
         21    1    1    2  503  502  0.65125592846E+02  0.99058101878E+01  0.44222888490E+02  0.79341866536E+02  0.00000000000E+00 0. -1.
          1    1    1    2  501    0  0.25661215978E+02  0.20090305588E+02  0.17174953193E+03  0.17481424457E+03  0.00000000000E+00 0. -1.
<scales pt_clust_5="13000.00000" pt_clust_6="13000.00000" pt_clust_7="13000.00000" pt_clust_8="13000.00000" pt_clust_9="68.27393" pt_clust_10="32.59016"></scales>
<clustering>
<clus scale="   32.590">  1 10  2 -1</clus>
<clus scale="   68.274">  2  9  1 -1</clus>
<clus scale="   70.879">  5  6 -1 -1</clus>
<clus scale="   90.325">  7  8 -1 -1</clus>
<clus scale="   92.391">  2  5  1 -1</clus>
<clus scale="   32.590">  1  5  2 -1</clus>
</clustering>
</event>
<event>
10    4  0.3738096E-005  0.1256599E+03  0.7546771E-02  0.1237820E+00
          2   -1    0    0  503    0 -0.00000000000E+00  0.00000000000E+00  0.58483011815E+03  0.58483011815E+03  0.00000000000E+00 0. -1.
         21   -1    0    0  501  502  0.00000000000E+00 -0.00000000000E+00 -0.60861042354E+02  0.60861042354E+02  0.00000000000E+00 0. -1.
         24    2    1    2    0    0  0.49912363753E+02  0.72692290862E+02  0.29289511883E+03  0.31569508186E+03  0.78105191068E+02 0.  0.
         23    2    1    2    0    0 -0.89204444513E+01 -0.62404988860E+02  0.35178931321E+02  0.11650199244E+03  0.91439597925E+02 0.  0.
        -11    1    3    3    0    0  0.40928112877E+02  0.16585555522E+02  0.52153812783E+02  0.68338943973E+02  0.00000000000E+00 0.  1.
         12    1    3    3    0    0  0.89842508762E+01  0.56106735341E+02  0.24074130605E+03  0.24735613789E+03  0.00000000000E+00 0. -1.
        -11    1    4    4    0    0 -0.43980117902E+02 -0.50216357995E+02  0.41853577030E+02  0.78788674891E+02  0.00000000000E+00 0.  1.
         11    1    4    4    0    0  0.35059673451E+02 -0.12188630865E+02 -0.66746457086E+01  0.37713317544E+02  0.00000000000E+00 0. -1.
         21    1    1    2  503  502 -0.20454640146E+02  0.22924040365E+02  0.15055097616E+03  0.15365383286E+03  0.00000000000E+00 0. -1.
          1    1    1    2  501    0 -0.20537279155E+02 -0.33211342368E+02  0.45344049494E+02  0.59840253354E+02  0.00000000000E+00 0. -1.
<scales pt_clust_5="13000.00000" pt_clust_6="13000.00000" pt_clust_7="13000.00000" pt_clust_8="13000.00000" pt_clust_9="30.72302" pt_clust_10="38.15452"></scales>
<clustering>
<clus scale="   30.723">  1  9  2 -1</clus>
<clus scale="   38.155">  2 10  1 -1</clus>
<clus scale="   78.105">  5  6 -1 -1</clus>
<clus scale="   91.440">  7  8 -1 -1</clus>
<clus scale="  116.317">  1  5  2 -1</clus>
<clus scale="   38.155">  2  5  1 -1</clus>
</clustering>
</event>
<event>
10    4  0.3738096E-005  0.1134744E+03  0.7546771E-02  0.1258641E+00
         -1   -1    0    0    0  501 -0.00000000000E+00  0.00000000000E+00  0.51697740679E+03  0.51697740679E+03  0.00000000000E+00 0.  1.
         21   -1    0    0  503  502  0.00000000000E+00 -0.00000000000E+00 -0.37433393942E+03  0.37433393942E+03  0.00000000000E+00 0. -1.
         24    2    1    2    0    0  0.28037201965E+02  0.79658931677E+02  0.38295329087E+03  0.40002317586E+03  0.78953708882E+02 0.  0.
         23    2    1    2    0    0  0.27311014497E+01 -0.12875346119E+03 -0.32491659787E+03  0.36115646734E+03  0.90985084748E+02 0.  0.
        -11    1    3    3    0    0  0.46604160206E+02  0.69387453251E+02  0.21403120421E+03  0.22977363381E+03  0.00000000000E+00 0.  1.
         12    1    3    3    0    0 -0.18566958241E+02  0.10271478426E+02  0.16892208666E+03  0.17024954205E+03  0.00000000000E+00 0. -1.
        -13    1    4    4    0    0  0.20429192113E+02 -0.11517542349E+03 -0.31631216325E+03  0.33724785349E+03  0.00000000000E+00 0. -1.
         13    1    4    4    0    0 -0.17698090664E+02 -0.13578037698E+02 -0.86044346202E+01  0.23908613845E+02  0.00000000000E+00 0.  1.
         21    1    1    2  503  501 -0.75650330503E+01 -0.22197769512E+02  0.15074678557E+02  0.27878605237E+02  0.00000000000E+00 0. -1.
         -2    1    1    2    0  502 -0.23203270364E+02  0.71292299023E+02  0.69532095820E+02  0.10225309778E+03  0.00000000000E+00 0.  1.
<scales pt_clust_5="13000.00000" pt_clust_6="13000.00000" pt_clust_7="13000.00000" pt_clust_8="13000.00000" pt_clust_9="23.45145" pt_clust_10="71.76157"></scales>
<clustering>
<clus scale="   23.451">  1  9  2 -1</clus>
<clus scale="   71.762">  2 10  1 -1</clus>
<clus scale="   78.954">  5  6 -1 -1</clus>
<clus scale="   90.985">  7  8 -1 -1</clus>
<clus scale="  104.076">  1  5  2 -1</clus>
<clus scale="   71.762">  2  5  1 -1</clus>
</clustering>
</event>
<event>
10    4  0.3738096E-005  0.9116826E+02  0.7546771E-02  0.1306064E+00
         -1   -1    0    0    0  501 -0.00000000000E+00  0.00000000000E+00  0.95984027585E+02  0.95984027585E+02  0.00000000000E+00 0.  1.
         21   -1    0    0  503  502  0.00000000000E+00 -0.00000000000E+00 -0.24191727684E+03  0.24191727684E+03  0.00000000000E+00 0.  1.
         24    2    1    2    0    0 -0.29180432223E+02  0.17914296404E+02  0.34785001121E+02  0.93968673242E+02  0.80297544218E+02 0.  0.
         23    2    1    2    0    0 -0.98429221309E+01 -0.18783918115E+02 -0.16761018091E+03  0.19140876208E+03  0.89969009995E+02 0.  0.
        -11    1    3    3    0    0 -0.37183369437E+02  0.45162821767E+02  0.27545817545E+02  0.64661081779E+02  0.00000000000E+00 0.  1.
         12    1    3    3    0    0  0.80029372142E+01 -0.27248525363E+02  0.72391835761E+01  0.29307591463E+02  0.00000000000E+00 0. -1.
        -13    1    4    4    0    0 -0.33980567718E+01 -0.53362427884E+02 -0.73126074800E+02  0.90589835606E+02  0.00000000000E+00 0. -1.
         13    1    4    4    0    0 -0.64448653591E+01  0.34578509769E+02 -0.94484106110E+02  0.10081892647E+03  0.00000000000E+00 0.  1.
         21    1    1    2  503  501  0.18102653655E+02 -0.14579936776E+02  0.33832959285E+00  0.23246399563E+02  0.00000000000E+00 0.  1.
         -2    1    1    2    0  502  0.20920700699E+02  0.15449558487E+02 -0.13446399059E+02  0.29277469542E+02  0.00000000000E+00 0.  1.
<scales pt_clust_5="13000.00000" pt_clust_6="13000.00000" pt_clust_7="13000.00000" pt_clust_8="13000.00000" pt_clust_9="23.24394" pt_clust_10="26.64578"></scales>
<clustering>
<clus scale="   23.244">  1  9  2 -1</clus>
<clus scale="   26.646">  2 10  1 -1</clus>
<clus scale="   80.298">  5  6 -1 -1</clus>
<clus scale="   81.639">  1  5  2 -1</clus>
<clus scale="   89.969">  7  8 -1 -1</clus>
<clus scale="   26.646">  2  5  1 -1</clus>
</clustering>
</event>
<event>
10    4  0.3738096E-005  0.1035002E+03  0.7546771E-02  0.1274691E+00
          2   -1    0    0  503    0 -0.00000000000E+00  0.00000000000E+00  0.31602979910E+03  0.31602979910E+03  0.00000000000E+00 0. -1.
         21   -1    0    0  501  502  0.00000000000E+00 -0.00000000000E+00 -0.11098190213E+03  0.11098190213E+03  0.00000000000E+00 0.  1.
         23    2    1    2    0    0 -0.43258548083E+02  0.20772835067E+01  0.22935289530E+03  0.25097397263E+03  0.92247315757E+02 0.  0.
         24    2    1    2    0    0  0.75749605875E+02  0.14265772744E+02 -0.44051711682E+02  0.12552805191E+03  0.88742455743E+02 0.  0.
        -13    1    4    4    0    0  0.92833488840E+02  0.25755053210E+02 -0.41055980573E+02  0.10472331620E+03  0.00000000000E+00 0.  1.
         14    1    4    4    0    0 -0.17083882965E+02 -0.11489280466E+02 -0.29957311089E+01  0.20804735703E+02  0.00000000000E+00 0. -1.
        -11    1    3    3    0    0  0.11663329510E+01  0.30570234958E+02  0.23817629586E+02  0.38770853447E+02  0.00000000000E+00 0.  1.
         11    1    3    3    0    0 -0.44424881034E+02 -0.28492951451E+02  0.20553526572E+03  0.21220311918E+03  0.00000000000E+00 0. -1.
         21    1    1    2  503  502 -0.25660360412E+02  0.30700774652E+01  0.12331886021E+02  0.28634854373E+02  0.00000000000E+00 0.  1.
          1    1    1    2  501    0 -0.68306973797E+01 -0.19413133716E+02  0.74148273257E+01  0.21874822322E+02  0.00000000000E+00 0. -1.
<scales pt_clust_5="13000.00000" pt_clust_6="13000.00000" pt_clust_7="13000.00000" pt_clust_8="13000.00000" pt_clust_9="26.24254" pt_clust_10="20.57980"></scales>
<clustering>
<clus scale="   20.580">  2 10  1 -1</clus>
<clus scale="   26.243">  2  9  1 -1</clus>
<clus scale="   88.742">  5  6 -1 -1</clus>
<clus scale="   92.247">  7  8 -1 -1</clus>
<clus scale="  100.389">  2  5  1 -1</clus>
<clus scale="   20.580">  2  5  1 -1</clus>
</clustering>
</event>
<event>
10    4  0.3738096E-005  0.1346465E+03  0.7546771E-02  0.1240225E+00
         21   -1    0    0  501  502  0.00000000000E+00  0.00000000000E+00  0.10012792185E+03  0.10012792185E+03  0.00000000000E+00 0.  1.
          2   -1    0    0  503    0 -0.00000000000E+00 -0.00000000000E+00 -0.60926466602E+03  0.60926466602E+03  0.00000000000E+00 0. -1.
         24    2    1    2    0    0  0.23925040271E+02  0.16220582112E+02 -0.24076406526E+03  0.25543792365E+03  0.80285010317E+02 0.  0.
         23    2    1    2    0    0 -0.95113877093E+02  0.38136937382E+02  0.27097284284E+01  0.13770972862E+03  0.91954070706E+02 0.  0.
        -13    1    3    3    0    0 -0.26103314705E+02 -0.60289639218E+01 -0.11823053961E+03  0.12122785134E+03  0.00000000000E+00 0.  1.
         14    1    3    3    0    0  0.50028354976E+02  0.22249546034E+02 -0.12253352565E+03  0.13421007230E+03  0.00000000000E+00 0. -1.
        -11    1    4    4    0    0 -0.77708415708E+02 -0.46372426121E+01 -0.27460368943E+02  0.82548008779E+02  0.00000000000E+00 0.  1.
         11    1    4    4    0    0 -0.17405461385E+02  0.42774179994E+02  0.30170097372E+02  0.55161719839E+02  0.00000000000E+00 0. -1.
         21    1    1    2  503  502  0.80005788073E+01  0.22187692000E+02 -0.17997454373E+03  0.18151346872E+03  0.00000000000E+00 0. -1.
          1    1    1    2  501    0  0.63188258014E+02 -0.76545211494E+02 -0.91107863611E+02  0.13473146687E+03  0.00000000000E+00 0. -1.
<scales pt_clust_5="13000.00000" pt_clust_6="13000.00000" pt_clust_7="13000.00000" pt_clust_8="13000.00000" pt_clust_9="23.58608" pt_clust_10="98.35716"></scales>
<clustering>
<clus scale="   23.586">  2  9  1 -1</clus>
<clus scale="   80.285">  5  6 -1 -1</clus>
<clus scale="   90.034">  2  5  1 -1</clus>
<clus scale="   91.954">  7  8 -1 -1</clus>
<clus scale="   98.357">  1 10  2 -1</clus>
<clus scale="   98.357">  1  5  2 -1</clus>
</clustering>
</event>
<event>
10    4  0.3738096E-005  0.3689836E+03  0.7546771E-02  0.1055378E+00
          2   -1    0    0  502    0 -0.00000000000E+00  0.00000000000E+00  0.29790012959E+04  0.29790012959E+04  0.00000000000E+00 0. -1.
         21   -1    0    0  503  502  0.00000000000E+00 -0.00000000000E+00 -0.80026086283E+02  0.80026086283E+02  0.00000000000E+00 0. -1.
         23    2    1    2    0    0  0.20207029525E+03 -0.17210492720E+03  0.55595827555E+03  0.62308182381E+03  0.93213973311E+02 0.  0.
         24    2    1    2    0    0 -0.37038937810E+03  0.26179519896E+03  0.14748953163E+04  0.15451456853E+04  0.80212075641E+02 0.  0.
        -13    1    4    4    0    0 -0.14709501432E+03  0.95094388398E+02  0.70300615576E+03  0.72449813042E+03  0.00000000000E+00 0.  1.
         14    1    4    4    0    0 -0.22329436377E+03  0.16670081056E+03  0.77188916055E+03  0.82064755487E+03  0.00000000000E+00 0. -1.
        -13    1    3    3    0    0  0.12352233535E+03 -0.68930794499E+02  0.20616158938E+03  0.25002364427E+03  0.00000000000E+00 0. -1.
         13    1    3    3    0    0  0.78547959906E+02 -0.10317413270E+03  0.34979668617E+03  0.37305817954E+03  0.00000000000E+00 0.  1.
         21    1    1    2  503  501  0.47237868564E+02 -0.57531117918E+02  0.32075752597E+03  0.32928200106E+03  0.00000000000E+00 0. -1.
          1    1    1    2  501    0  0.12108121428E+03 -0.32159153836E+02  0.54736409176E+03  0.56151787200E+03  0.00000000000E+00 0. -1.
<scales pt_clust_5="13000.00000" pt_clust_6="13000.00000" pt_clust_7="13000.00000" pt_clust_8="13000.00000" pt_clust_9="45.69191" pt_clust_10="199.72308"></scales>
<clustering>
<clus scale="   45.692">  9 10 -1 -1</clus>
<clus scale="   80.212">  5  6 -1 -1</clus>
<clus scale="   93.214">  7  8 -1 -1</clus>
<clus scale="  199.723">  2  9  1 -1</clus>
<clus scale="  365.915">  2  5  1 -1</clus>
<clus scale="  199.723">  2  5  1 -1</clus>
</clustering>
</event>
<event>
10    4  0.3738096E-005  0.1916389E+03  0.7546771E-02  0.1184733E+00
         21   -1    0    0  501  502  0.00000000000E+00  0.00000000000E+00  0.14076091732E+04  0.14076091732E+04  0.00000000000E+00 0.  1.
          2   -1    0    0  503    0 -0.00000000000E+00 -0.00000000000E+00 -0.88726895473E+02  0.88726895473E+02  0.00000000000E+00 0. -1.
         24    2    1    2    0    0 -0.59340982437E+02 -0.13286323487E+02  0.13667648839E+03  0.16932294207E+03  0.79321608942E+02 0.  0.
         23    2    1    2    0    0 -0.11219658853E+03  0.36852785632E+02  0.36304992728E+02  0.15346025152E+03  0.91026336919E+02 0.  0.
        -11    1    3    3    0    0 -0.33523435506E+02 -0.34569631499E+02  0.12488372072E+03  0.13384626947E+03  0.00000000000E+00 0.  1.
         12    1    3    3    0    0 -0.25817546931E+02  0.21283308012E+02  0.11792767666E+02  0.35476672599E+02  0.00000000000E+00 0. -1.
        -13    1    4    4    0    0 -0.66739019996E+02 -0.17552716826E+01  0.59538781134E+02  0.89454145950E+02  0.00000000000E+00 0.  1.
         13    1    4    4    0    0 -0.45457568539E+02  0.38608057314E+02 -0.23233788405E+02  0.64006105574E+02  0.00000000000E+00 0. -1.
         21    1    1    2  503  502  0.19764266137E+03 -0.24464906890E+02  0.11169286986E+04  0.11345443451E+04  0.00000000000E+00 0.  1.
          1    1    1    2  501    0 -0.26105090397E+02  0.89844474552E+00  0.28972098026E+02  0.39008529985E+02  0.00000000000E+00 0. -1.
<scales pt_clust_5="13000.00000" pt_clust_6="13000.00000" pt_clust_7="13000.00000" pt_clust_8="13000.00000" pt_clust_9="168.64071" pt_clust_10="26.12056"></scales>
<clustering>
<clus scale="   26.121">  1 10  2 -1</clus>
<clus scale="   79.322">  5  6 -1 -1</clus>
<clus scale="   91.026">  7  8 -1 -1</clus>
<clus scale="  101.689">  2  5  1 -1</clus>
<clus scale="  168.641">  1  9  2 -1</clus>
<clus scale="   26.121">  1  5  2 -1</clus>
</clustering>
</event>
<event>
10    4  0.3738096E-005  0.4461369E+03  0.7546771E-02  0.1046705E+00
         21   -1    0    0  501  502  0.00000000000E+00  0.00000000000E+00  0.45991013437E+03  0.45991013437E+03  0.00000000000E+00 0. -1.
          2   -1    0    0  503    0 -0.00000000000E+00 -0.00000000000E+00 -0.96806634415E+03  0.96806634415E+03  0.00000000000E+00 0. -1.
         23    2    1    2    0    0  0.96959877857E+02 -0.23054780286E+03 -0.59176078689E+02  0.27305132816E+03  0.92204729852E+02 0.  0.
         24    2    1    2    0    0  0.59065298007E+02 -0.26944496286E+03 -0.44034079269E+03  0.52619938688E+03  0.83045069771E+02 0.  0.
        -13    1    4    4    0    0 -0.14263453706E+02 -0.11206283028E+03 -0.14801860101E+03  0.18620158509E+03  0.00000000000E+00 0.  1.
         14    1    4    4    0    0  0.73328751712E+02 -0.15738213258E+03 -0.29232219167E+03  0.33999780180E+03  0.00000000000E+00 0. -1.
        -13    1    3    3    0    0  0.80361882712E+00 -0.49092766544E+02  0.19921403399E+02  0.52986864821E+02  0.00000000000E+00 0.  1.
         13    1    3    3    0    0  0.96156259030E+02 -0.18145503631E+03 -0.79097482088E+02  0.22006446334E+03  0.00000000000E+00 0. -1.
         21    1    1    2  503  502  0.37082359208E+02  0.25804197289E+02 -0.98991873674E+02  0.10881336782E+03  0.00000000000E+00 0. -1.
          1    1    1    2  501    0 -0.19310753507E+03  0.47418856843E+03  0.90352535264E+02  0.51991239566E+03  0.00000000000E+00 0. -1.
<scales pt_clust_5="13000.00000" pt_clust_6="13000.00000" pt_clust_7="13000.00000" pt_clust_8="13000.00000" pt_clust_9="45.17696" pt_clust_10="438.33967"></scales>
<clustering>
<clus scale="   45.177">  2  9  1 -1</clus>
<clus scale="   83.045">  5  6 -1 -1</clus>
<clus scale="   92.205">  7  8 -1 -1</clus>
<clus scale="  265.002">  2  7  1 -1</clus>
<clus scale="  438.340">  1 10  2 -1</clus>
<clus scale="  438.340">  1  5  2 -1</clus>
</clustering>
</event>
<event>
10    4  0.3738096E-005  0.1642483E+03  0.7546771E-02  0.1192826E+00
          4   -1    0    0  503    0 -0.00000000000E+00  0.00000000000E+00  0.93214587474E+03  0.93214587474E+03  0.00000000000E+00 0. -1.
         21   -1    0    0  501  502  0.00000000000E+00 -0.00000000000E+00 -0.13889169937E+03  0.13889169937E+03  0.00000000000E+00 0. -1.
         23    2    1    2    0    0 -0.30341057472E+02  0.83673608202E+02  0.49504760798E+03  0.51258948671E+03  0.98762316907E+02 0.  0.
         24    2    1    2    0    0 -0.77440975618E+02  0.92406849345E+02  0.76417494439E+01  0.14528995533E+03  0.80713346327E+02 0.  0.
        -13    1    4    4    0    0 -0.78505029955E+01  0.18806068516E+02 -0.30815018597E+02  0.36944065578E+02  0.00000000000E+00 0.  1.
         14    1    4    4    0    0 -0.69590472622E+02  0.73600780829E+02  0.38456768041E+02  0.10834588975E+03  0.00000000000E+00 0. -1.
        -13    1    3    3    0    0  0.10887601123E+02  0.90403121446E+02  0.34930063110E+03  0.36097395351E+03  0.00000000000E+00 0. -1.
         13    1    3    3    0    0 -0.41228658594E+02 -0.67295132439E+01  0.14574697688E+03  0.15161553320E+03  0.00000000000E+00 0.  1.
         21    1    1    2  503  502  0.40164396457E+02  0.12418953636E+02  0.17909796486E+03  0.18396600275E+03  0.00000000000E+00 0. -1.
          3    1    1    2  501    0  0.67617636632E+02 -0.18849941118E+03  0.11146685309E+03  0.22919212931E+03  0.00000000000E+00 0. -1.
<scales pt_clust_5="13000.00000" pt_clust_6="13000.00000" pt_clust_7="13000.00000" pt_clust_8="13000.00000" pt_clust_9="42.04057" pt_clust_10="143.04847"></scales>
<clustering>
<clus scale="   42.041">  1  9  2 -1</clus>
<clus scale="   80.713">  5  6 -1 -1</clus>
<clus scale="   98.762">  7  8 -1 -1</clus>
<clus scale="  135.023">  1  7  2 -1</clus>
<clus scale="  143.048">  2 10  1 -1</clus>
<clus scale="  143.048">  2  5  1 -1</clus>
</clustering>
</event>
<event>
10    4  0.3738096E-005  0.2444142E+03  0.7546771E-02  0.1141712E+00
         21   -1    0    0  501  502  0.00000000000E+00  0.00000000000E+00  0.18225885242E+03  0.18225885242E+03  0.00000000000E+00 0.  1.
          2   -1    0    0  503    0 -0.00000000000E+00 -0.00000000000E+00 -0.83569343166E+03  0.83569343166E+03  0.00000000000E+00 0. -1.
         23    2    1    2    0    0  0.95453831015E+02 -0.10771927724E+02 -0.30681840451E+02  0.13411390326E+03  0.88417732564E+02 0.  0.
         24    2    1    2    0    0  0.13008369572E+03 -0.30017692549E+02 -0.51541643596E+03  0.53847076080E+03  0.80460102067E+02 0.  0.
        -11    1    4    4    0    0  0.13509992154E+03 -0.42767480815E+02 -0.48057136243E+03  0.50102882213E+03  0.00000000000E+00 0.  1.
         12    1    4    4    0    0 -0.50162258245E+01  0.12749788267E+02 -0.34845073529E+02  0.37441938674E+02  0.00000000000E+00 0. -1.
        -11    1    3    3    0    0  0.27303667720E+02 -0.33678766113E+01  0.31317366055E+02  0.41684652817E+02  0.00000000000E+00 0.  1.
         11    1    3    3    0    0  0.68150163295E+02 -0.74040511128E+01 -0.61999206506E+02  0.92429250443E+02  0.00000000000E+00 0. -1.
         21    1    1    2  503  502  0.24887220085E+02 -0.16960340984E+02 -0.81724587413E+02  0.87097273652E+02  0.00000000000E+00 0.  1.
          1    1    1    2  501    0 -0.25042474682E+03  0.57749961256E+02 -0.25611715419E+02  0.25827034636E+03  0.00000000000E+00 0. -1.
<scales pt_clust_5="13000.00000" pt_clust_6="13000.00000" pt_clust_7="13000.00000" pt_clust_8="13000.00000" pt_clust_9="30.11689" pt_clust_10="230.79095"></scales>
<clustering>
<clus scale="   30.117">  2  9  1 -1</clus>
<clus scale="   80.460">  5  6 -1 -1</clus>
<clus scale="   88.418">  7  8 -1 -1</clus>
<clus scale="  132.730">  2  7  1 -1</clus>
<clus scale="  230.791">  1 10  2 -1</clus>
<clus scale="  230.791">  1  5  2 -1</clus>
</clustering>
</event>
<event>
10    4  0.3738096E-005  0.2791377E+03  0.7546771E-02  0.1119642E+00
         -1   -1    0    0    0  501 -0.00000000000E+00  0.00000000000E+00  0.86661965980E+03  0.86661965980E+03  0.00000000000E+00 0.  1.
         21   -1    0    0  503  502  0.00000000000E+00 -0.00000000000E+00 -0.59537355002E+03  0.59537355002E+03  0.00000000000E+00 0.  1.
         24    2    1    2    0    0  0.10530728043E+03 -0.74220265383E+02 -0.13890319825E+03  0.20602664426E+03  0.80960537029E+02 0.  0.
         23    2    1    2    0    0 -0.35377156533E+03  0.17823237700E+03  0.63889964111E+03  0.75670984897E+03  0.86579116835E+02 0.  0.
        -13    1    3    3    0    0  0.34234300780E+02  0.34697310233E+01 -0.36260026833E+01  0.34600206339E+02  0.00000000000E+00 0.  1.
         14    1    3    3    0    0  0.71072979646E+02 -0.77689996406E+02 -0.13527719556E+03  0.17142643792E+03  0.00000000000E+00 0. -1.
        -13    1    4    4    0    0 -0.23249501834E+03  0.16114232644E+03  0.45456140626E+03  0.53539411183E+03  0.00000000000E+00 0.  1.
         13    1    4    4    0    0 -0.12127654699E+03  0.17090050561E+02  0.18433823485E+03  0.22131573714E+03  0.00000000000E+00 0. -1.
         21    1    1    2  503  501 -0.30718428648E+01 -0.49216971327E+02  0.82023524556E+02  0.95705825663E+02  0.00000000000E+00 0. -1.
         -2    1    1    2    0  502  0.25153612777E+03 -0.54795140290E+02 -0.31077385764E+03  0.40355089093E+03  0.00000000000E+00 0.  1.
<scales pt_clust_5="13000.00000" pt_clust_6="13000.00000" pt_clust_7="13000.00000" pt_clust_8="13000.00000" pt_clust_9="49.31274" pt_clust_10="265.37128"></scales>
<clustering>
<clus scale="   49.313">  1  9  2 -1</clus>
<clus scale="   80.961">  5  6 -1 -1</clus>
<clus scale="   86.579">  7  8 -1 -1</clus>
<clus scale="  153.117">  1  5  2 -1</clus>
<clus scale="  265.371">  2 10  1 -1</clus>
<clus scale="  265.371">  2  5  1 -1</clus>
</clustering>
</event>
<event>
10    4  0.3738096E-005  0.9627906E+02  0.7546771E-02  0.1294060E+00
         21   -1    0    0  501  502  0.00000000000E+00  0.00000000000E+00  0.55755620229E+03  0.55755620229E+03  0.00000000000E+00 0. -1.
          2   -1    0    0  503    0 -0.00000000000E+00 -0.00000000000E+00 -0.13229931051E+03  0.13229931051E+03  0.00000000000E+00 0. -1.
         24    2    1    2    0    0  0.95641658528E+01  0.46192782843E+02 -0.74244161313E+02  0.11977809626E+03  0.81297911404E+02 0.  0.
         23    2    1    2    0    0  0.10007555937E+02  0.44687154554E+02  0.15173386135E+03  0.18308415806E+03  0.91649065976E+02 0.  0.
        -11    1    3    3    0    0  0.18379981840E+02  0.48470553562E+02 -0.74556742559E+01  0.52371799412E+02  0.00000000000E+00 0.  1.
         12    1    3    3    0    0 -0.88158159870E+01 -0.22777707194E+01 -0.66788487057E+02  0.67406296845E+02  0.00000000000E+00 0. -1.
        -11    1    4    4    0    0  0.40692310335E+02 -0.59456064317E+01  0.44504407577E+02  0.60595846805E+02  0.00000000000E+00 0.  1.
         11    1    4    4    0    0 -0.30684754398E+02  0.50632760986E+02  0.10722945378E+03  0.12248831126E+03  0.00000000000E+00 0. -1.
         21    1    1    2  503  502  0.44819012065E+02 -0.25175874949E+02  0.38198689285E+02  0.64044581231E+02  0.00000000000E+00 0. -1.
          1    1    1    2  501    0 -0.64390733855E+02 -0.65704062447E+02  0.30956850245E+03  0.32294867725E+03  0.00000000000E+00 0. -1.
<scales pt_clust_5="13000.00000" pt_clust_6="13000.00000" pt_clust_7="13000.00000" pt_clust_8="13000.00000" pt_clust_9="51.40592" pt_clust_10="91.28761"></scales>
<clustering>
<clus scale="   51.406">  2  9  1 -1</clus>
<clus scale="   81.298">  5  6 -1 -1</clus>
<clus scale="   91.288">  1 10  2 -1</clus>
<clus scale="   86.484">  2  5  1 -1</clus>
<clus scale="   91.649">  7  8 -1 -1</clus>
<clus scale="   91.288">  1  5  2 -1</clus>
</clustering>
</event>
<event>
10    4  0.3738096E-005  0.9481549E+02  0.7546771E-02  0.1296926E+00
         21   -1    0    0  503  502  0.00000000000E+00  0.00000000000E+00  0.57183017144E+03  0.57183017144E+03  0.00000000000E+00 0.  1.
         -3   -1    0    0    0  501 -0.00000000000E+00 -0.00000000000E+00 -0.53926696162E+02  0.53926696162E+02  0.00000000000E+00 0.  1.
         23    2    1    2    0    0  0.30318926648E+02 -0.11540476179E+02  0.17796993324E+03  0.20164813890E+03  0.89085660336E+02 0.  0.
         24    2    1    2    0    0 -0.30108860180E+02 -0.41904089899E+02  0.25595659825E+03  0.27293638149E+03  0.79485797115E+02 0.  0.
        -13    1    4    4    0    0 -0.55096428622E+01 -0.61989041978E+02  0.18528812406E+03  0.19546019136E+03  0.00000000000E+00 0.  1.
         14    1    4    4    0    0 -0.24599217318E+02  0.20084952080E+02  0.70668474189E+02  0.77476190129E+02  0.00000000000E+00 0. -1.
        -11    1    3    3    0    0  0.30196237315E+02  0.14723662600E+02  0.17128214949E+03  0.17454562075E+03  0.00000000000E+00 0. -1.
         11    1    3    3    0    0  0.12268933226E+00 -0.26264138779E+02  0.66877837569E+01  0.27102518150E+02  0.00000000000E+00 0.  1.
         21    1    1    2  503  501  0.98026661089E+01 -0.21296670823E+02 -0.14175419372E+02  0.27396769250E+02  0.00000000000E+00 0.  1.
         -4    1    1    2    0  502 -0.10012732576E+02  0.74741236900E+02  0.98152363156E+02  0.12377557796E+03  0.00000000000E+00 0.  1.
<scales pt_clust_5="13000.00000" pt_clust_6="13000.00000" pt_clust_7="13000.00000" pt_clust_8="13000.00000" pt_clust_9="23.44441" pt_clust_10="66.79885"></scales>
<clustering>
<clus scale="   23.444">  2  9  1 -1</clus>
<clus scale="   66.799">  1 10  2 -1</clus>
<clus scale="   79.486">  5  6 -1 -1</clus>
<clus scale="   85.859">  1  5  2 -1</clus>
<clus scale="   89.086">  7  8 -1 -1</clus>
<clus scale="   66.799">  1  5  2 -1</clus>
</clustering>
</event>
<event>
10    4  0.3738096E-005  0.1859183E+03  0.7546771E-02  0.1163122E+00
         21   -1    0    0  501  502  0.00000000000E+00  0.00000000000E+00  0.14553498258E+03  0.14553498258E+03  0.00000000000E+00 0.  1.
          2   -1    0    0  503    0 -0.00000000000E+00 -0.00000000000E+00 -0.61380937368E+03  0.61380937368E+03  0.00000000000E+00 0. -1.
         24    2    1    2    0    0  0.13070157639E+03  0.13441275272E+03 -0.44669009194E+03  0.49113150343E+03  0.80798671176E+02 0.  0.
         23    2    1    2    0    0 -0.80383663326E+02 -0.11613158457E+03  0.31229304456E+02  0.17001320785E+03  0.89337243768E+02 0.  0.
        -13    1    3    3    0    0  0.59483498556E+01  0.22616497392E+02 -0.13753145018E+03  0.13950551462E+03  0.00000000000E+00 0.  1.
         14    1    3    3    0    0  0.12475322653E+03  0.11179625533E+03 -0.30915864176E+03  0.35162598881E+03  0.00000000000E+00 0. -1.
        -11    1    4    4    0    0 -0.87513598881E+02 -0.82298344192E+02 -0.46015544688E+01  0.12021988916E+03  0.00000000000E+00 0.  1.
         11    1    4    4    0    0  0.71299355557E+01 -0.33833240376E+02  0.35830858924E+02  0.49793318695E+02  0.00000000000E+00 0. -1.
         21    1    1    2  503  502 -0.60559532176E+01 -0.28063241041E+02 -0.43186839114E+02  0.51858684324E+02  0.00000000000E+00 0. -1.
          1    1    1    2  501    0 -0.44261959843E+02  0.97820728915E+01 -0.96267645082E+01  0.46340960651E+02  0.00000000000E+00 0. -1.
<scales pt_clust_5="13000.00000" pt_clust_6="13000.00000" pt_clust_7="13000.00000" pt_clust_8="13000.00000" pt_clust_9="28.70923" pt_clust_10="45.34516"></scales>
<clustering>
<clus scale="   28.709">  2  9  1 -1</clus>
<clus scale="   45.345">  1 10  2 -1</clus>
<clus scale="   80.799">  5  6 -1 -1</clus>
<clus scale="   89.337">  7  8 -1 -1</clus>
<clus scale="  181.969">  2  5  1 -1</clus>
<clus scale="   45.345">  1  5  2 -1</clus>
</clustering>
</event>
<event>
10    4  0.3738096E-005  0.1206599E+03  0.7546771E-02  0.1260858E+00
          2   -1    0    0  503    0 -0.00000000000E+00  0.00000000000E+00  0.54326685549E+03  0.54326685549E+03  0.00000000000E+00 0. -1.
         21   -1    0    0  501  502  0.00000000000E+00 -0.00000000000E+00 -0.22763439728E+03  0.22763439728E+03  0.00000000000E+00 0.  1.
         24    2    1    2    0    0 -0.40677860021E+01 -0.13803290203E+02  0.29092223422E+03  0.30246439388E+03  0.81497763766E+02 0.  0.
         23    2    1    2    0    0  0.73466995676E+02 -0.45688623701E+02 -0.69536800637E+02  0.14462453837E+03  0.92714835205E+02 0.  0.
        -13    1    3    3    0    0  0.11586284781E+02 -0.45655864577E+02  0.17525288617E+03  0.18147251603E+03  0.00000000000E+00 0.  1.
         14    1    3    3    0    0 -0.15654070783E+02  0.31852574373E+02  0.11566934805E+03  0.12099187785E+03  0.00000000000E+00 0. -1.
        -11    1    4    4    0    0  0.69593934421E+02  0.10446851109E+02 -0.34934073632E+02  0.78567435409E+02  0.00000000000E+00 0.  1.
         11    1    4    4    0    0  0.38730612551E+01 -0.56135474810E+02 -0.34602727006E+02  0.66057102963E+02  0.00000000000E+00 0. -1.
         21    1    1    2  503  502 -0.48853776686E+02  0.67281502133E+02  0.19958238557E+03  0.21620966828E+03  0.00000000000E+00 0. -1.
          1    1    1    2  501    0 -0.20545432987E+02 -0.77895882291E+01 -0.10533536095E+03  0.10760265223E+03  0.00000000000E+00 0. -1.
<scales pt_clust_5="13000.00000" pt_clust_6="13000.00000" pt_clust_7="13000.00000" pt_clust_8="13000.00000" pt_clust_9="77.21900" pt_clust_10="21.97254"></scales>
<clustering>
<clus scale="   21.973">  2 10  1 -1</clus>
<clus scale="   81.498">  5  6 -1 -1</clus>
<clus scale="   82.875">  1  5  2 -1</clus>
<clus scale="   77.219">  1  9  2 -1</clus>
<clus scale="   92.715">  7  8 -1 -1</clus>
<clus scale="   21.973">  2  5  1 -1</clus>
</clustering>
</event>
<event>
10    4  0.3738096E-005  0.1553228E+03  0.7546771E-02  0.1219914E+00
         -1   -1    0    0    0  501 -0.00000000000E+00  0.00000000000E+00  0.10433837983E+03  0.10433837983E+03  0.00000000000E+00 0.  1.
         21   -1    0    0  503  502  0.00000000000E+00 -0.00000000000E+00 -0.72562794886E+03  0.72562794886E+03  0.00000000000E+00 0. -1.
         23    2    1    2    0    0 -0.10311427219E+03  0.96096956970E+02 -0.99391370188E+02  0.20437205752E+03  0.10964540647E+03 0.  0.
         24    2    1    2    0    0 -0.44574060967E+00 -0.36011671964E+02 -0.42966100027E+03  0.43855538873E+03  0.80157436488E+02 0.  0.
        -11    1    4    4    0    0  0.27753000598E+02  0.13169077573E+02 -0.13012770499E+03  0.13370442496E+03  0.00000000000E+00 0.  1.
         12    1    4    4    0    0 -0.28198741208E+02 -0.49180749537E+02 -0.29953329528E+03  0.30485096377E+03  0.00000000000E+00 0. -1.
        -13    1    3    3    0    0 -0.10630689800E+02  0.76373158262E+02 -0.73028048415E+02  0.10620247984E+03  0.00000000000E+00 0.  1.
         13    1    3    3    0    0 -0.92483582390E+02  0.19723798708E+02 -0.26363321773E+02  0.98169577681E+02  0.00000000000E+00 0. -1.
         21    1    1    2  503  501  0.78130167256E+02 -0.61031179140E+02 -0.84831300320E+01  0.99504227839E+02  0.00000000000E+00 0.  1.
         -2    1    1    2    0  502  0.25429845544E+02  0.94589413450E+00 -0.83754068537E+02  0.87534654604E+02  0.00000000000E+00 0.  1.
<scales pt_clust_5="13000.00000" pt_clust_6="13000.00000" pt_clust_7="13000.00000" pt_clust_8="13000.00000" pt_clust_9="110.01394" pt_clust_10="25.44743"></scales>
<clustering>
<clus scale="   25.447">  2 10  1 -1</clus>
<clus scale="   80.157">  5  6 -1 -1</clus>
<clus scale="   89.211">  2  5  1 -1</clus>
<clus scale="  109.645">  7  8 -1 -1</clus>
<clus scale="  110.014">  1  9  2 -1</clus>
<clus scale="   25.447">  2  5  1 -1</clus>
</clustering>
</event>
<event>
10    4  0.3738096E-005  0.1152173E+03  0.7546771E-02  0.1252389E+00
          2   -1    0    0  503    0 -0.00000000000E+00  0.00000000000E+00  0.10162015373E+04  0.10162015373E+04  0.00000000000E+00 0. -1.
         21   -1    0    0  501  502  0.00000000000E+00 -0.00000000000E+00 -0.30209863831E+02  0.30209863831E+02  0.00000000000E+00 0.  1.
         24    2    1    2    0    0 -0.14508333779E+01 -0.68890030353E+02  0.56765140761E+03  0.57832907128E+03  0.86535847635E+02 0.  0.
         23    2    1    2    0    0  0.55304024253E+02  0.68514406915E+02  0.16519671423E+03  0.20771158476E+03  0.90007716322E+02 0.  0.
        -11    1    3    3    0    0  0.36511196546E+02 -0.56136928236E+02  0.27961953990E+03  0.28752653665E+03  0.00000000000E+00 0.  1.
         12    1    3    3    0    0 -0.37962029924E+02 -0.12753102116E+02  0.28803186771E+03  0.29080253463E+03  0.00000000000E+00 0. -1.
        -11    1    4    4    0    0 -0.53803220452E+01  0.41361124876E+02  0.12072325362E+03  0.12772546528E+03  0.00000000000E+00 0. -1.
         11    1    4    4    0    0  0.60684346298E+02  0.27153282039E+02  0.44473460616E+02  0.79986119485E+02  0.00000000000E+00 0.  1.
         21    1    1    2  503  502 -0.24513125353E+02  0.31308359654E+01  0.17711583722E+03  0.17883152754E+03  0.00000000000E+00 0. -1.
          1    1    1    2  501    0 -0.29340065523E+02 -0.27552125278E+01  0.76027714424E+02  0.81539217567E+02  0.00000000000E+00 0. -1.
<scales pt_clust_5="13000.00000" pt_clust_6="13000.00000" pt_clust_7="13000.00000" pt_clust_8="13000.00000" pt_clust_9="24.71225" pt_clust_10="31.73956"></scales>
<clustering>
<clus scale="   24.712">  1  9  2 -1</clus>
<clus scale="   31.740">  2 10  1 -1</clus>
<clus scale="   86.536">  5  6 -1 -1</clus>
<clus scale="   90.008">  7  8 -1 -1</clus>
<clus scale="  112.526">  1  5  2 -1</clus>
<clus scale="   31.740">  2  5  1 -1</clus>
</clustering>
</event>
<event>
10    4  0.3738096E-005  0.1749765E+03  0.7546771E-02  0.1202514E+00
          2   -1    0    0  503    0 -0.00000000000E+00  0.00000000000E+00  0.48998385406E+03  0.48998385406E+03  0.00000000000E+00 0. -1.
         21   -1    0    0  501  502  0.00000000000E+00 -0.00000000000E+00 -0.12698853534E+03  0.12698853534E+03  0.00000000000E+00 0. -1.
         24    2    1    2    0    0 -0.35639604217E+02 -0.30030349395E+02 -0.63475508164E+01  0.91540834758E+02  0.78532985129E+02 0.  0.
         23    2    1    2    0    0  0.34461715411E+02  0.16748048666E+03  0.23136818745E+03  0.30245324718E+03  0.93324194746E+02 0.  0.
        -13    1    3    3    0    0 -0.37424594932E+02  0.10543055941E+02  0.19401778330E+02  0.43453254616E+02  0.00000000000E+00 0.  1.
         14    1    3    3    0    0  0.17849907146E+01 -0.40573405335E+02 -0.25749329146E+02  0.48087580141E+02  0.00000000000E+00 0. -1.
        -11    1    4    4    0    0  0.44699011345E+02  0.11391673098E+03  0.92921789009E+02  0.15365377342E+03  0.00000000000E+00 0.  1.
         11    1    4    4    0    0 -0.10237295934E+02  0.53563755675E+02  0.13844639844E+03  0.14879947376E+03  0.00000000000E+00 0. -1.
         21    1    1    2  503  502  0.25901299230E+02 -0.19387523520E+01  0.58356288342E+02  0.63875601380E+02  0.00000000000E+00 0. -1.
          1    1    1    2  501    0 -0.24723410424E+02 -0.13551138491E+03  0.79618393739E+02  0.15910270609E+03  0.00000000000E+00 0. -1.
<scales pt_clust_5="13000.00000" pt_clust_6="13000.00000" pt_clust_7="13000.00000" pt_clust_8="13000.00000" pt_clust_9="25.97376" pt_clust_10="148.01138"></scales>
<clustering>
<clus scale="   25.974">  1  9  2 -1</clus>
<clus scale="   78.533">  5  6 -1 -1</clus>
<clus scale="   90.412">  1  5  2 -1</clus>
<clus scale="   93.324">  7  8 -1 -1</clus>
<clus scale="  148.011">  2 10  1 -1</clus>
<clus scale="  148.011">  2  5  1 -1</clus>
</clustering>
</event>
<event>
10    4  0.3738096E-005  0.1296142E+03  0.7546771E-02  0.1229773E+00
         -1   -1    0    0    0  501 -0.00000000000E+00  0.00000000000E+00  0.92854000759E+03  0.92854000759E+03  0.00000000000E+00 0.  1.
         21   -1    0    0  503  502  0.00000000000E+00 -0.00000000000E+00 -0.32519072044E+03  0.32519072044E+03  0.00000000000E+00 0.  1.
         23    2    1    2    0    0 -0.88059106223E+02 -0.82033841503E+02  0.50854509536E+03  0.53007624073E+03  0.88762321013E+02 0.  0.
         24    2    1    2    0    0  0.51812290072E+02  0.25903608303E+02  0.13687485364E+03  0.16970453311E+03  0.81910882509E+02 0.  0.
        -11    1    4    4    0    0  0.14035997171E+02 -0.29366146744E+02  0.55396257027E+02  0.64250487031E+02  0.00000000000E+00 0.  1.
         12    1    4    4    0    0  0.37776292901E+02  0.55269755047E+02  0.81478596615E+02  0.10545404608E+03  0.00000000000E+00 0. -1.
        -13    1    3    3    0    0 -0.61909166425E+02 -0.86644567869E+02  0.47747254487E+03  0.48920349256E+03  0.00000000000E+00 0.  1.
         13    1    3    3    0    0 -0.26149939798E+02  0.46107263659E+01  0.31072550493E+02  0.40872748173E+02  0.00000000000E+00 0. -1.
         21    1    1    2  503  501 -0.22832971229E+02  0.29158384978E+02  0.25102646061E+03  0.25374365001E+03  0.00000000000E+00 0. -1.
         -2    1    1    2    0  502  0.59079787380E+02  0.26971848221E+02 -0.29309712246E+03  0.30020630418E+03  0.00000000000E+00 0.  1.
<scales pt_clust_5="13000.00000" pt_clust_6="13000.00000" pt_clust_7="13000.00000" pt_clust_8="13000.00000" pt_clust_9="37.03452" pt_clust_10="64.90012"></scales>
<clustering>
<clus scale="   37.035">  1  9  2 -1</clus>
<clus scale="   64.900">  2 10  1 -1</clus>
<clus scale="   81.911">  5  6 -1 -1</clus>
<clus scale="   88.762">  7  8 -1 -1</clus>
<clus scale="  125.022">  2  5  1 -1</clus>
<clus scale="   64.900">  2  5  1 -1</clus>
</clustering>
</event>
<event>
10    4  0.3738096E-005  0.1727309E+03  0.7546771E-02  0.1176146E+00
         21   -1    0    0  501  502  0.00000000000E+00  0.00000000000E+00  0.86376446232E+03  0.86376446232E+03  0.00000000000E+00 0. -1.
          2   -1    0    0  503    0 -0.00000000000E+00 -0.00000000000E+00 -0.94957704043E+02  0.94957704043E+02  0.00000000000E+00 0. -1.
         23    2    1    2    0    0  0.10610165157E+03  0.30387764323E+02  0.16418302254E+03  0.21695832038E+03  0.89072280789E+02 0.  0.
         24    2    1    2    0    0 -0.21127816196E+03 -0.56637160640E+02  0.32033190592E+03  0.39613191283E+03  0.80384903576E+02 0.  0.
        -13    1    4    4    0    0 -0.24968775065E+02 -0.30633432632E+02  0.93077982161E+02  0.10112051071E+03  0.00000000000E+00 0.  1.
         14    1    4    4    0    0 -0.18630938689E+03 -0.26003728008E+02  0.22725392376E+03  0.29501140212E+03  0.00000000000E+00 0. -1.
        -11    1    3    3    0    0  0.11085668462E+03  0.25931266283E+00  0.12118967854E+03  0.16424436049E+03  0.00000000000E+00 0. -1.
         11    1    3    3    0    0 -0.47550330538E+01  0.30128451660E+02  0.42993344002E+02  0.52713959889E+02  0.00000000000E+00 0.  1.
         21    1    1    2  503  502  0.10290195224E+03 -0.15578286124E+02  0.28534188047E+03  0.30372929315E+03  0.00000000000E+00 0. -1.
          1    1    1    2  501    0  0.22745581551E+01  0.41827682441E+02 -0.10500506480E+01  0.41902640007E+02  0.00000000000E+00 0. -1.
<scales pt_clust_5="13000.00000" pt_clust_6="13000.00000" pt_clust_7="13000.00000" pt_clust_8="13000.00000" pt_clust_9="103.70088" pt_clust_10="41.88950"></scales>
<clustering>
<clus scale="   41.890">  1 10  2 -1</clus>
<clus scale="   80.385">  5  6 -1 -1</clus>
<clus scale="   89.072">  7  8 -1 -1</clus>
<clus scale="  103.701">  1  9  2 -1</clus>
<clus scale="  168.416">  1  5  2 -1</clus>
<clus scale="   41.890">  1  5  2 -1</clus>
</clustering>
</event>
<event>
10    4  0.3971115E-005  0.1803576E+03  0.7546771E-02  0.1188832E+00
         21   -1    0    0  501  502  0.00000000000E+00  0.00000000000E+00  0.30054949665E+03  0.30054949665E+03  0.00000000000E+00 0. -1.
          2   -1    0    0  503    0 -0.00000000000E+00 -0.00000000000E+00 -0.71734174957E+03  0.71734174957E+03  0.00000000000E+00 0. -1.
         23    2    1    2    0    0 -0.26625012389E+02 -0.50819725363E+02 -0.75714144414E+02  0.13315358018E+03  0.93304386181E+02 0.  0.
         24    2    1    2    0    0 -0.17507615425E+02  0.23045431567E+03 -0.49415707955E+03  0.55155344748E+03  0.81266708745E+02 0.  0.
        -11    1    4    4    0    0 -0.19333660993E+02  0.20357192959E+02 -0.25384656466E+02  0.37849524917E+02  0.00000000000E+00 0.  1.
         12    1    4    4    0    0  0.18260455675E+01  0.21009712272E+03 -0.46877242308E+03  0.51370392256E+03  0.00000000000E+00 0. -1.
        -13    1    3    3    0    0  0.32420515368E+02 -0.32369360314E+02 -0.20327306841E+02  0.50120501866E+02  0.00000000000E+00 0.  1.
         13    1    3    3    0    0 -0.59045527757E+02 -0.18450365049E+02 -0.55386837573E+02  0.83033078318E+02  0.00000000000E+00 0. -1.
         21    1    1    2  503  502  0.55204674130E+01 -0.26737068815E+02 -0.61268774654E+02  0.67076144470E+02  0.00000000000E+00 0.  1.
          1    1    1    2  501    0  0.38612160401E+02 -0.15289752150E+03  0.21434774570E+03  0.26610807409E+03  0.00000000000E+00 0. -1.
<scales pt_clust_5="13000.00000" pt_clust_6="13000.00000" pt_clust_7="13000.00000" pt_clust_8="13000.00000" pt_clust_9="27.30103" pt_clust_10="161.01119"></scales>
<clustering>
<clus scale="   27.301">  2  9  1 -1</clus>
<clus scale="   81.267">  5  6 -1 -1</clus>
<clus scale="   93.304">  7  8 -1 -1</clus>
<clus scale="  111.372">  2  7  1 -1</clus>
<clus scale="  161.011">  1 10  2 -1</clus>
<clus scale="  161.011">  1  5  2 -1</clus>
</clustering>
</event>
<event>
10    4  0.3738096E-005  0.1585248E+03  0.7546771E-02  0.1192286E+00
         21   -1    0    0  501  502  0.00000000000E+00  0.00000000000E+00  0.77169193271E+02  0.77169193271E+02  0.00000000000E+00 0. -1.
          2   -1    0    0  503    0 -0.00000000000E+00 -0.00000000000E+00 -0.16529799266E+04  0.16529799266E+04  0.00000000000E+00 0. -1.
         24    2    1    2    0    0  0.17266456532E+03 -0.25603696658E+02 -0.11147449929E+04  0.11311165526E+04  0.79370364786E+02 0.  0.
         23    2    1    2    0    0 -0.46277573678E+02  0.45626572441E+02  0.62194818835E+00  0.11205847234E+03  0.91287000530E+02 0.  0.
        -11    1    3    3    0    0  0.46179870950E+02  0.29816647670E+00 -0.13030716533E+03  0.13824842394E+03  0.00000000000E+00 0.  1.
         12    1    3    3    0    0  0.12648469437E+03 -0.25901863135E+02 -0.98443782759E+03  0.99286812861E+03  0.00000000000E+00 0. -1.
        -13    1    4    4    0    0  0.23900070169E+02 -0.26739680799E+01 -0.10311846767E+02  0.26166727787E+02  0.00000000000E+00 0.  1.
         13    1    4    4    0    0 -0.70177643846E+02  0.48300540521E+02  0.10933794955E+02  0.85891744554E+02  0.00000000000E+00 0. -1.
         21    1    1    2  503  502 -0.40067747925E+02  0.34301148230E+02 -0.14749084102E+03  0.15663825005E+03  0.00000000000E+00 0.  1.
          1    1    1    2  501    0 -0.86319243719E+02 -0.54324024013E+02 -0.31419684760E+03  0.33033584496E+03  0.00000000000E+00 0. -1.
<scales pt_clust_5="13000.00000" pt_clust_6="13000.00000" pt_clust_7="13000.00000" pt_clust_8="13000.00000" pt_clust_9="52.74460" pt_clust_10="105.90286"></scales>
<clustering>
<clus scale="   52.745">  2  9  1 -1</clus>
<clus scale="   79.370">  5  6 -1 -1</clus>
<clus scale="   91.287">  7  8 -1 -1</clus>
<clus scale="  105.903">  1 10  2 -1</clus>
<clus scale="  151.975">  2  5  1 -1</clus>
<clus scale="  105.903">  1  5  2 -1</clus>
</clustering>
</event>
<event>
10    4  0.3738096E-005  0.2132183E+03  0.7546771E-02  0.1172544E+00
          2   -1    0    0  502    0 -0.00000000000E+00  0.00000000000E+00  0.24149498199E+03  0.24149498199E+03  0.00000000000E+00 0. -1.
         21   -1    0    0  503  502  0.00000000000E+00 -0.00000000000E+00 -0.28403726693E+03  0.28403726693E+03  0.00000000000E+00 0. -1.
         24    2    1    2    0    0  0.49546399526E+02 -0.97991846530E+00  0.58313788226E+01  0.97344981311E+02  0.83583697341E+02 0.  0.
         23    2    1    2    0    0 -0.12620687005E+03  0.16790260944E+03 -0.21439472852E+02  0.22844626670E+03  0.87227205997E+02 0.  0.
        -13    1    3    3    0    0  0.38496491834E+02  0.13349041801E+02  0.40994650339E+02  0.57799118998E+02  0.00000000000E+00 0.  1.
         14    1    3    3    0    0  0.11049907692E+02 -0.14328960267E+02 -0.35163271516E+02  0.39545862313E+02  0.00000000000E+00 0. -1.
        -11    1    4    4    0    0  0.72622882555E+00  0.60468225073E+02  0.20083325915E+01  0.60505925756E+02  0.00000000000E+00 0. -1.
         11    1    4    4    0    0 -0.12693309888E+03  0.10743438437E+03 -0.23447805444E+02  0.16794034094E+03  0.00000000000E+00 0.  1.
         21    1    1    2  503  501 -0.13319930374E+01 -0.66765379217E+02  0.10027285098E+02  0.67527301989E+02  0.00000000000E+00 0.  1.
          1    1    1    2  501    0  0.77992463565E+02 -0.10015731176E+03 -0.36961476007E+02  0.13221369892E+03  0.00000000000E+00 0. -1.
<scales pt_clust_5="13000.00000" pt_clust_6="13000.00000" pt_clust_7="13000.00000" pt_clust_8="13000.00000" pt_clust_9="53.45102" pt_clust_10="208.04918"></scales>
<clustering>
<clus scale="   53.451">  9 10 -1 -1</clus>
<clus scale="   83.584">  5  6 -1 -1</clus>
<clus scale="   87.227">  7  8 -1 -1</clus>
<clus scale="   97.170">  1  5  2 -1</clus>
<clus scale="  208.049">  2  9  1 -1</clus>
<clus scale="  208.049">  2  5  1 -1</clus>
</clustering>
</event>
<event>
10    4  0.3738096E-005  0.1639297E+03  0.7546771E-02  0.1187434E+00
          2   -1    0    0  503    0 -0.00000000000E+00  0.00000000000E+00  0.63655355052E+03  0.63655355052E+03  0.00000000000E+00 0. -1.
         21   -1    0    0  501  502  0.00000000000E+00 -0.00000000000E+00 -0.22793427603E+03  0.22793427603E+03  0.00000000000E+00 0.  1.
         23    2    1    2    0    0 -0.18214802341E+03 -0.36247681541E+02  0.28732185180E+03  0.35429228634E+03  0.92072692985E+02 0.  0.
         24    2    1    2    0    0  0.87838226802E+02  0.10752945985E+03 -0.12541259892E+03  0.20004293682E+03  0.70786423694E+02 0.  0.
        -11    1    4    4    0    0  0.72208831971E+02  0.75984602441E+02 -0.12715995146E+03  0.16479511060E+03  0.00000000000E+00 0.  1.
         12    1    4    4    0    0  0.15629394830E+02  0.31544857414E+02  0.17473525444E+01  0.35247826216E+02  0.00000000000E+00 0. -1.
        -11    1    3    3    0    0 -0.99598988064E+02 -0.45033011165E+02  0.95006584858E+02  0.14482465841E+03  0.00000000000E+00 0. -1.
         11    1    3    3    0    0 -0.82549035344E+02  0.87853296235E+01  0.19231526694E+03  0.20946762793E+03  0.00000000000E+00 0.  1.
         21    1    1    2  503  502  0.62349012500E+02  0.12749869705E+02  0.19784152890E+03  0.20782499632E+03  0.00000000000E+00 0. -1.
          1    1    1    2  501    0  0.31960784107E+02 -0.84031648018E+02  0.48868492716E+02  0.10232760707E+03  0.00000000000E+00 0. -1.
<scales pt_clust_5="13000.00000" pt_clust_6="13000.00000" pt_clust_7="13000.00000" pt_clust_8="13000.00000" pt_clust_9="63.63928" pt_clust_10="92.34196"></scales>
<clustering>
<clus scale="   63.639">  1  9  2 -1</clus>
<clus scale="   70.786">  5  6 -1 -1</clus>
<clus scale="   92.073">  7  8 -1 -1</clus>
<clus scale="   92.342">  2 10  1 -1</clus>
<clus scale="  152.991">  2  5  1 -1</clus>
<clus scale="   92.342">  2  5  1 -1</clus>
</clustering>
</event>
<event>
10    4  0.3738096E-005  0.1848339E+03  0.7546771E-02  0.1191600E+00
         21   -1    0    0  501  502  0.00000000000E+00  0.00000000000E+00  0.18248485757E+03  0.18248485757E+03  0.00000000000E+00 0. -1.
          2   -1    0    0  503    0 -0.00000000000E+00 -0.00000000000E+00 -0.18054223717E+04  0.18054223717E+04  0.00000000000E+00 0. -1.
         24    2    1    2    0    0  0.28108790872E+02  0.88939973704E+02 -0.70915759459E+03  0.72000031350E+03  0.82435031548E+02 0.  0.
         23    2    1    2    0    0 -0.15464726604E+03 -0.18679279845E+02 -0.65324143774E+03  0.67758796990E+03  0.90201932212E+02 0.  0.
        -13    1    3    3    0    0  0.44752027132E+02  0.65980172380E+02 -0.31893231355E+03  0.32874602310E+03  0.00000000000E+00 0.  1.
         14    1    3    3    0    0 -0.16643236260E+02  0.22959801325E+02 -0.39022528104E+03  0.39125429039E+03  0.00000000000E+00 0. -1.
        -11    1    4    4    0    0 -0.92941703129E+02 -0.55392065431E+02 -0.39526300806E+03  0.40980396122E+03  0.00000000000E+00 0.  1.
         11    1    4    4    0    0 -0.61705562915E+02  0.36712785586E+02 -0.25797842968E+03  0.26778400867E+03  0.00000000000E+00 0. -1.
         21    1    1    2  503  502 -0.35059962190E+02 -0.76047570146E+02 -0.38010036643E+03  0.38921552183E+03  0.00000000000E+00 0. -1.
          1    1    1    2  501    0  0.16159843736E+03  0.57868762865E+01  0.11956188464E+03  0.20110342402E+03  0.00000000000E+00 0. -1.
<scales pt_clust_5="13000.00000" pt_clust_6="13000.00000" pt_clust_7="13000.00000" pt_clust_8="13000.00000" pt_clust_9="83.74028" pt_clust_10="161.32938"></scales>
<clustering>
<clus scale="   82.435">  5  6 -1 -1</clus>
<clus scale="   83.740">  2  9  1 -1</clus>
<clus scale="   90.202">  7  8 -1 -1</clus>
<clus scale="   97.339">  2  5  1 -1</clus>
<clus scale="  161.329">  1 10  2 -1</clus>
<clus scale="  161.329">  1  5  2 -1</clus>
</clustering>
</event>
<event>
10    4  0.3738096E-005  0.1126617E+03  0.7546771E-02  0.1261177E+00
          2   -1    0    0  503    0 -0.00000000000E+00  0.00000000000E+00  0.20795710260E+03  0.20795710260E+03  0.00000000000E+00 0. -1.
         21   -1    0    0  501  502  0.00000000000E+00 -0.00000000000E+00 -0.18822170595E+03  0.18822170595E+03  0.00000000000E+00 0. -1.
         24    2    1    2    0    0  0.61623845688E+02  0.48510655376E+01  0.14063315773E+03  0.17313126130E+03  0.79848089472E+02 0.  0.
         23    2    1    2    0    0 -0.34547096103E+02  0.45988656965E+01 -0.49676580881E+02  0.11186877654E+03  0.93979833274E+02 0.  0.
        -13    1    3    3    0    0  0.31899150430E+02 -0.18357052663E+02  0.11431682510E+02  0.38538559205E+02  0.00000000000E+00 0.  1.
         14    1    3    3    0    0  0.29724695258E+02  0.23208118200E+02  0.12920147522E+03  0.13459270209E+03  0.00000000000E+00 0. -1.
        -11    1    4    4    0    0 -0.67042527573E+02 -0.12219650909E+01 -0.30217505362E+02  0.73547884622E+02  0.00000000000E+00 0.  1.
         11    1    4    4    0    0  0.32495431470E+02  0.58208307875E+01 -0.19459075519E+02  0.38320891920E+02  0.00000000000E+00 0. -1.
         21    1    1    2  503  502  0.89414057878E+01  0.18465388898E+02  0.61212703203E+01  0.21410027440E+02  0.00000000000E+00 0. -1.
          1    1    1    2  501    0 -0.36018155372E+02 -0.27915320133E+02 -0.77342450522E+02  0.89768743265E+02  0.00000000000E+00 0. -1.
<scales pt_clust_5="13000.00000" pt_clust_6="13000.00000" pt_clust_7="13000.00000" pt_clust_8="13000.00000" pt_clust_9="20.51632" pt_clust_10="44.98234"></scales>
<clustering>
<clus scale="   20.516">  1  9  2 -1</clus>
<clus scale="   44.982">  2 10  1 -1</clus>
<clus scale="   79.848">  5  6 -1 -1</clus>
<clus scale="   93.980">  7  8 -1 -1</clus>
<clus scale="  101.174">  1  5  2 -1</clus>
<clus scale="   44.982">  2  5  1 -1</clus>
</clustering>
</event>
<event>
10    4  0.3738096E-005  0.1080772E+03  0.7546771E-02  0.1269523E+00
          2   -1    0    0  503    0 -0.00000000000E+00  0.00000000000E+00  0.93638533594E+03  0.93638533594E+03  0.00000000000E+00 0. -1.
         21   -1    0    0  501  502  0.00000000000E+00 -0.00000000000E+00 -0.32691931289E+02  0.32691931289E+02  0.00000000000E+00 0.  1.
         23    2    1    2    0    0  0.81788958149E+02 -0.61598885885E+02  0.35736240635E+03  0.38263533358E+03  0.90653475451E+02 0.  0.
         24    2    1    2    0    0 -0.30019884207E+02 -0.65280839386E+01  0.15322552636E+03  0.17448893764E+03  0.77617769251E+02 0.  0.
        -11    1    4    4    0    0 -0.45339339792E+02  0.11644197558E+02  0.49715838151E+02  0.68285486251E+02  0.00000000000E+00 0.  1.
         12    1    4    4    0    0  0.15319455585E+02 -0.18172281497E+02  0.10350968821E+03  0.10620345139E+03  0.00000000000E+00 0. -1.
        -11    1    3    3    0    0  0.31447516696E+02 -0.76919396469E+02  0.24109691432E+03  0.25501619939E+03  0.00000000000E+00 0.  1.
         11    1    3    3    0    0  0.50341441453E+02  0.15320510584E+02  0.11626549203E+03  0.12761913418E+03  0.00000000000E+00 0. -1.
         21    1    1    2  503  502 -0.28433674391E+02 -0.66720267682E+01  0.22012275999E+03  0.22205183909E+03  0.00000000000E+00 0.  1.
          1    1    1    2  501    0 -0.23335399550E+02  0.74798996592E+02  0.17298271196E+03  0.18990115692E+03  0.00000000000E+00 0. -1.
<scales pt_clust_5="13000.00000" pt_clust_6="13000.00000" pt_clust_7="13000.00000" pt_clust_8="13000.00000" pt_clust_9="29.20599" pt_clust_10="79.23221"></scales>
<clustering>
<clus scale="   29.206">  1  9  2 -1</clus>
<clus scale="   77.618">  5  6 -1 -1</clus>
<clus scale="   79.232">  2 10  1 -1</clus>
<clus scale="   90.653">  7  8 -1 -1</clus>
<clus scale="   97.402">  2  5  1 -1</clus>
<clus scale="   79.232">  2  5  1 -1</clus>
</clustering>
</event>
<event>
10    4  0.3738096E-005  0.1079886E+03  0.7546771E-02  0.1268068E+00
         -3   -1    0    0    0  501 -0.00000000000E+00  0.00000000000E+00  0.97604555182E+02  0.97604555182E+02  0.00000000000E+00 0.  1.
         21   -1    0    0  503  502  0.00000000000E+00 -0.00000000000E+00 -0.37818519468E+03  0.37818519468E+03  0.00000000000E+00 0.  1.
         23    2    1    2    0    0 -0.56822421554E+01  0.40450390085E+02  0.42328508459E+02  0.10939868025E+03  0.92237989348E+02 0.  0.
         24    2    1    2    0    0  0.28432024584E+01 -0.38577355030E+02 -0.26776774868E+03  0.28307073375E+03  0.83265700934E+02 0.  0.
        -13    1    4    4    0    0  0.28171394487E+02 -0.51300192805E+02 -0.21879007000E+03  0.22648274102E+03  0.00000000000E+00 0.  1.
         14    1    4    4    0    0 -0.25328192029E+02  0.12722837775E+02 -0.48977678678E+02  0.56587992730E+02  0.00000000000E+00 0. -1.
        -13    1    3    3    0    0  0.11557928528E+02  0.62998694366E+02  0.48512939214E+02  0.80348780170E+02  0.00000000000E+00 0.  1.
         13    1    3    3    0    0 -0.17240170683E+02 -0.22548304281E+02 -0.61844307546E+01  0.29049900084E+02  0.00000000000E+00 0. -1.
         21    1    1    2  503  501 -0.10893372783E+02  0.19894546109E+02 -0.23702934639E+00  0.22682916884E+02  0.00000000000E+00 0.  1.
         -4    1    1    2    0  502  0.13732412480E+02 -0.21767581164E+02 -0.54904369932E+02  0.60637418974E+02  0.00000000000E+00 0.  1.
<scales pt_clust_5="13000.00000" pt_clust_6="13000.00000" pt_clust_7="13000.00000" pt_clust_8="13000.00000" pt_clust_9="22.68168" pt_clust_10="24.98607"></scales>
<clustering>
<clus scale="   22.682">  1  9  2 -1</clus>
<clus scale="   24.986">  2 10  1 -1</clus>
<clus scale="   83.266">  5  6 -1 -1</clus>
<clus scale="   92.238">  7  8 -1 -1</clus>
<clus scale="  100.433">  2  5  1 -1</clus>
<clus scale="   24.986">  2  5  1 -1</clus>
</clustering>
</event>
<event>
10    4  0.3738096E-005  0.1250231E+03  0.7546771E-02  0.1267575E+00
          2   -1    0    0  503    0 -0.00000000000E+00  0.00000000000E+00  0.32169781411E+03  0.32169781411E+03  0.00000000000E+00 0. -1.
         21   -1    0    0  501  502  0.00000000000E+00 -0.00000000000E+00 -0.17542982924E+03  0.17542982924E+03  0.00000000000E+00 0. -1.
         24    2    1    2    0    0 -0.27967995175E+02 -0.37330435385E+02  0.60737368225E+02  0.91615541308E+02  0.50285279656E+02 0.  0.
         23    2    1    2    0    0  0.42870472688E+02 -0.48194413222E+02 -0.89717078939E+02  0.15037780068E+03  0.10199877347E+03 0.  0.
        -13    1    3    3    0    0  0.13548397917E+02 -0.15268875905E+02  0.26526612626E+02  0.33471761755E+02  0.00000000000E+00 0.  1.
         14    1    3    3    0    0 -0.41516393092E+02 -0.22061559480E+02  0.34210755599E+02  0.58143779553E+02  0.00000000000E+00 0. -1.
        -13    1    4    4    0    0  0.62164685169E+01  0.31346694244E+02 -0.33550443670E+02  0.46334565837E+02  0.00000000000E+00 0.  1.
         13    1    4    4    0    0  0.36654004171E+02 -0.79541107465E+02 -0.56166635269E+02  0.10404323484E+03  0.00000000000E+00 0. -1.
         21    1    1    2  503  502  0.65185474765E+02  0.45303002725E+01  0.33929454593E+02  0.73626609524E+02  0.00000000000E+00 0.  1.
          1    1    1    2  501    0 -0.80087952278E+02  0.80994548334E+02  0.14131824099E+03  0.18150769184E+03  0.00000000000E+00 0. -1.
<scales pt_clust_5="13000.00000" pt_clust_6="13000.00000" pt_clust_7="13000.00000" pt_clust_8="13000.00000" pt_clust_9="65.34271" pt_clust_10="72.29823"></scales>
<clustering>
<clus scale="   50.285">  5  6 -1 -1</clus>
<clus scale="   65.343">  1  9  2 -1</clus>
<clus scale="   65.343">  1  5  2 -1</clus>
<clus scale="   72.298">  2 10  1 -1</clus>
<clus scale="  101.999">  7  8 -1 -1</clus>
<clus scale="   72.298">  2  5  1 -1</clus>
</clustering>
</event>
<event>
10    4  0.3738096E-005  0.1757534E+03  0.7546771E-02  0.1173408E+00
          2   -1    0    0  503    0 -0.00000000000E+00  0.00000000000E+00  0.10737702799E+04  0.10737702799E+04  0.00000000000E+00 0. -1.
         21   -1    0    0  501  502  0.00000000000E+00 -0.00000000000E+00 -0.70765252024E+02  0.70765252024E+02  0.00000000000E+00 0. -1.
         23    2    1    2    0    0  0.11176744103E+03  0.34427719166E+02  0.45923687965E+03  0.48236063018E+03  0.89977981717E+02 0.  0.
         24    2    1    2    0    0 -0.13221748739E+03 -0.11076653194E+03  0.27289476741E+03  0.33222007702E+03  0.78408780927E+02 0.  0.
        -11    1    4    4    0    0 -0.81037232138E+02 -0.58357653002E+02  0.22079514447E+03  0.24232858783E+03  0.00000000000E+00 0.  1.
         12    1    4    4    0    0 -0.51180255248E+02 -0.52408878940E+02  0.52099622942E+02  0.89891489195E+02  0.00000000000E+00 0. -1.
        -13    1    3    3    0    0  0.28914531015E+02 -0.23414041941E+02  0.60543263729E+02  0.71061622883E+02  0.00000000000E+00 0.  1.
         13    1    3    3    0    0  0.82852910019E+02  0.57841761107E+02  0.39869361592E+03  0.41129900730E+03  0.00000000000E+00 0. -1.
         21    1    1    2  503  502  0.44220746440E+02  0.80327371870E+02  0.28677574126E+03  0.30107853935E+03  0.00000000000E+00 0. -1.
          1    1    1    2  501    0 -0.23770700087E+02 -0.39885590943E+01 -0.15902360473E+02  0.28876285337E+02  0.00000000000E+00 0. -1.
<scales pt_clust_5="13000.00000" pt_clust_6="13000.00000" pt_clust_7="13000.00000" pt_clust_8="13000.00000" pt_clust_9="89.52735" pt_clust_10="24.10300"></scales>
<clustering>
<clus scale="   24.103">  2 10  1 -1</clus>
<clus scale="   78.409">  5  6 -1 -1</clus>
<clus scale="   89.527">  1  9  2 -1</clus>
<clus scale="   89.978">  7  8 -1 -1</clus>
<clus scale="  170.121">  2  5  1 -1</clus>
<clus scale="   24.103">  2  5  1 -1</clus>
</clustering>
</event>
<event>
10    4  0.3738096E-005  0.1291996E+03  0.7546771E-02  0.1244228E+00
          4   -1    0    0  503    0 -0.00000000000E+00  0.00000000000E+00  0.25730900951E+03  0.25730900951E+03  0.00000000000E+00 0. -1.
         21   -1    0    0  501  502  0.00000000000E+00 -0.00000000000E+00 -0.25806865075E+03  0.25806865075E+03  0.00000000000E+00 0. -1.
         23    2    1    2    0    0  0.15450478747E+02 -0.59035339056E+01  0.66511018435E+02  0.11372548434E+03  0.90753518989E+02 0.  0.
         24    2    1    2    0    0 -0.58289794575E+02 -0.70182954863E+02 -0.10420266507E+03  0.15980875213E+03  0.79732644159E+02 0.  0.
        -13    1    4    4    0    0 -0.39273855470E+02  0.28563472921E+01 -0.13090241219E+02  0.41496371631E+02  0.00000000000E+00 0.  1.
         14    1    4    4    0    0 -0.19015939105E+02 -0.73039302155E+02 -0.91112423850E+02  0.11831238050E+03  0.00000000000E+00 0. -1.
        -11    1    3    3    0    0  0.50290113178E+02 -0.37584229893E+01  0.59721453468E+02  0.78165678089E+02  0.00000000000E+00 0.  1.
         11    1    3    3    0    0 -0.34839634430E+02 -0.21451109162E+01  0.67895649669E+01  0.35559806250E+02  0.00000000000E+00 0. -1.
         21    1    1    2  503  502 -0.88606047060E+01 -0.27318318947E+02  0.10420205298E+03  0.10808731984E+03  0.00000000000E+00 0.  1.
          3    1    1    2  501    0  0.51699920534E+02  0.10340480772E+03 -0.67270047585E+02  0.13375610395E+03  0.00000000000E+00 0. -1.
<scales pt_clust_5="13000.00000" pt_clust_6="13000.00000" pt_clust_7="13000.00000" pt_clust_8="13000.00000" pt_clust_9="28.71935" pt_clust_10="101.66240"></scales>
<clustering>
<clus scale="   28.719">  1  9  2 -1</clus>
<clus scale="   79.733">  5  6 -1 -1</clus>
<clus scale="   90.754">  7  8 -1 -1</clus>
<clus scale="   93.979">  1  7  2 -1</clus>
<clus scale="  101.662">  2 10  1 -1</clus>
<clus scale="  101.662">  2  5  1 -1</clus>
</clustering>
</event>
<event>
10    4  0.3738096E-005  0.1520427E+03  0.7546771E-02  0.1202798E+00
          2   -1    0    0  503    0 -0.00000000000E+00  0.00000000000E+00  0.14564683401E+03  0.14564683401E+03  0.00000000000E+00 0. -1.
         21   -1    0    0  501  502  0.00000000000E+00 -0.00000000000E+00 -0.76063703719E+03  0.76063703719E+03  0.00000000000E+00 0.  1.
         23    2    1    2    0    0  0.83063164993E+02 -0.53058975921E+02  0.17188593688E+00  0.14186862723E+03  0.10203888250E+03 0.  0.
         24    2    1    2    0    0 -0.93890778072E+02  0.36817440800E+02 -0.52430185202E+03  0.53955239488E+03  0.77803294492E+02 0.  0.
        -11    1    4    4    0    0 -0.99127933532E+02  0.22415357870E+02 -0.50384100355E+03  0.51398886402E+03  0.00000000000E+00 0.  1.
         12    1    4    4    0    0  0.52371554603E+01  0.14402082930E+02 -0.20460848470E+02  0.25563530862E+02  0.00000000000E+00 0. -1.
        -11    1    3    3    0    0  0.77457122481E+01 -0.31402132596E+02 -0.41891575070E+02  0.52924418293E+02  0.00000000000E+00 0.  1.
         11    1    3    3    0    0  0.75317452745E+02 -0.21656843325E+02  0.42063461007E+02  0.88944208933E+02  0.00000000000E+00 0. -1.
         21    1    1    2  503  502  0.20490520130E+02 -0.14808195436E+01  0.64759199083E+02  0.67939738795E+02  0.00000000000E+00 0. -1.
          1    1    1    2  501    0 -0.96629070511E+01  0.17722354665E+02 -0.15561943618E+03  0.15692311029E+03  0.00000000000E+00 0. -1.
<scales pt_clust_5="13000.00000" pt_clust_6="13000.00000" pt_clust_7="13000.00000" pt_clust_8="13000.00000" pt_clust_9="20.51529" pt_clust_10="20.18548"></scales>
<clustering>
<clus scale="   20.185">  2 10  1 -1</clus>
<clus scale="   20.515">  1  9  2 -1</clus>
<clus scale="   77.803">  5  6 -1 -1</clus>
<clus scale="  102.039">  7  8 -1 -1</clus>
<clus scale="  136.961">  2  5  1 -1</clus>
<clus scale="   20.185">  2  5  1 -1</clus>
</clustering>
</event>
<event>
10    4  0.8920414E-005  0.9322443E+02  0.7546771E-02  0.1301435E+00
          2   -1    0    0  503    0 -0.00000000000E+00  0.00000000000E+00  0.51134524021E+03  0.51134524021E+03  0.00000000000E+00 0. -1.
         21   -1    0    0  501  502  0.00000000000E+00 -0.00000000000E+00 -0.35794527071E+03  0.35794527071E+03  0.00000000000E+00 0. -1.
         24    2    1    2    0    0  0.22404311237E+02 -0.47608893728E+00  0.44904938357E+03  0.45645199063E+03  0.78745736656E+02 0.  0.
         23    2    1    2    0    0 -0.19067816338E+02  0.95585170346E+02 -0.19421127724E+03  0.23495002221E+03  0.89349797526E+02 0.  0.
        -11    1    3    3    0    0 -0.13026172365E+02  0.26875507930E+02  0.94986629037E+02  0.99571249811E+02  0.00000000000E+00 0.  1.
         12    1    3    3    0    0  0.35430483602E+02 -0.27351596868E+02  0.35406275453E+03  0.35688074082E+03  0.00000000000E+00 0. -1.
        -11    1    4    4    0    0 -0.27295074521E+02 -0.78857595711E+01 -0.40234626267E+02  0.49254760663E+02  0.00000000000E+00 0.  1.
         11    1    4    4    0    0  0.82272581828E+01  0.10347092992E+03 -0.15397665097E+03  0.18569526154E+03  0.00000000000E+00 0. -1.
         21    1    1    2  503  502 -0.72906212062E+01 -0.19588775324E+02  0.23746409996E+02  0.31634874174E+02  0.00000000000E+00 0. -1.
          1    1    1    2  501    0  0.39541263074E+01 -0.75520306084E+02 -0.12518454682E+03  0.14625362391E+03  0.00000000000E+00 0. -1.
<scales pt_clust_5="13000.00000" pt_clust_6="13000.00000" pt_clust_7="13000.00000" pt_clust_8="13000.00000" pt_clust_9="20.90151" pt_clust_10="76.04175"></scales>
<clustering>
<clus scale="   20.902">  1  9  2 -1</clus>
<clus scale="   76.042">  2 10  1 -1</clus>
<clus scale="   78.746">  5  6 -1 -1</clus>
<clus scale="   83.116">  1  5  2 -1</clus>
<clus scale="   89.350">  7  8 -1 -1</clus>
<clus scale="   76.042">  2  5  1 -1</clus>
</clustering>
</event>
<event>
10    4  0.3738096E-005  0.1243152E+03  0.7546771E-02  0.1244509E+00
         21   -1    0    0  503  502  0.00000000000E+00  0.00000000000E+00  0.41323416265E+03  0.41323416265E+03  0.00000000000E+00 0. -1.
         -3   -1    0    0    0  501 -0.00000000000E+00 -0.00000000000E+00 -0.16970790824E+03  0.16970790824E+03  0.00000000000E+00 0.  1.
         23    2    1    2    0    0  0.58195522254E+02 -0.71503099777E+02  0.64784837862E+02  0.14534942166E+03  0.91814852125E+02 0.  0.
         24    2    1    2    0    0  0.16995611980E+02  0.10198000843E+03  0.26671605420E+03  0.29292639371E+03  0.63084432481E+02 0.  0.
        -11    1    4    4    0    0  0.34579132410E+02  0.33457082337E+02  0.81271605797E+02  0.94446633956E+02  0.00000000000E+00 0.  1.
         12    1    4    4    0    0 -0.17583520430E+02  0.68522926094E+02  0.18544444840E+03  0.19847975976E+03  0.00000000000E+00 0. -1.
        -13    1    3    3    0    0  0.72908801523E+02 -0.20630972154E+02  0.48420856026E+02  0.89921686205E+02  0.00000000000E+00 0. -1.
         13    1    3    3    0    0 -0.14713279269E+02 -0.50872127623E+02  0.16363981836E+02  0.55427735451E+02  0.00000000000E+00 0.  1.
         21    1    1    2  503  501 -0.59665876651E+01  0.21072580264E+02 -0.40797511275E+02  0.46304327374E+02  0.00000000000E+00 0.  1.
         -4    1    1    2    0  502 -0.69224546568E+02 -0.51549488918E+02 -0.47177126377E+02  0.98361928146E+02  0.00000000000E+00 0.  1.
<scales pt_clust_5="13000.00000" pt_clust_6="13000.00000" pt_clust_7="13000.00000" pt_clust_8="13000.00000" pt_clust_9="21.90100" pt_clust_10="82.65775"></scales>
<clustering>
<clus scale="   21.901">  2  9  1 -1</clus>
<clus scale="   63.084">  5  6 -1 -1</clus>
<clus scale="   82.658">  1 10  2 -1</clus>
<clus scale="   91.815">  7  8 -1 -1</clus>
<clus scale="  104.900">  1  5  2 -1</clus>
<clus scale="   82.658">  1  5  2 -1</clus>
</clustering>
</event>
<event>
10    4  0.3738096E-005  0.1010922E+03  0.7546771E-02  0.1281821E+00
         21   -1    0    0  501  502  0.00000000000E+00  0.00000000000E+00  0.34340724817E+03  0.34340724817E+03  0.00000000000E+00 0.  1.
          2   -1    0    0  503    0 -0.00000000000E+00 -0.00000000000E+00 -0.30173216803E+03  0.30173216803E+03  0.00000000000E+00 0. -1.
         24    2    1    2    0    0  0.11414437239E+02 -0.60140980102E+01 -0.76147388741E+02  0.11217863620E+03  0.81358237786E+02 0.  0.
         23    2    1    2    0    0  0.52002124112E+02 -0.80178872531E+02  0.11355599679E+03  0.17327744353E+03  0.89427263832E+02 0.  0.
        -11    1    3    3    0    0 -0.16895898564E+02 -0.14742193224E+02  0.73374327839E+01  0.23593252620E+02  0.00000000000E+00 0.  1.
         12    1    3    3    0    0  0.28310335803E+02  0.87280952133E+01 -0.83484821525E+02  0.88585383582E+02  0.00000000000E+00 0. -1.
        -13    1    4    4    0    0  0.31984481980E+02 -0.98580181914E+02  0.91922903471E+02  0.13853115006E+03  0.00000000000E+00 0.  1.
         13    1    4    4    0    0  0.20017642132E+02  0.18401309382E+02  0.21633093321E+02  0.34746293474E+02  0.00000000000E+00 0. -1.
         21    1    1    2  503  502 -0.47336627266E+01  0.66238097713E+02 -0.16583710468E+03  0.17863884919E+03  0.00000000000E+00 0. -1.
          1    1    1    2  501    0 -0.58682898624E+02  0.19954872828E+02  0.17010357677E+03  0.18104448727E+03  0.00000000000E+00 0. -1.
<scales pt_clust_5="13000.00000" pt_clust_6="13000.00000" pt_clust_7="13000.00000" pt_clust_8="13000.00000" pt_clust_9="67.36089" pt_clust_10="61.98290"></scales>
<clustering>
<clus scale="   61.983">  1 10  2 -1</clus>
<clus scale="   67.361">  2  9  1 -1</clus>
<clus scale="   81.358">  5  6 -1 -1</clus>
<clus scale="   89.427">  7  8 -1 -1</clus>
<clus scale="   94.030">  2  5  1 -1</clus>
<clus scale="   61.983">  1  5  2 -1</clus>
</clustering>
</event>
<event>
10    4  0.3738096E-005  0.1030203E+03  0.7546771E-02  0.1276068E+00
         21   -1    0    0  501  502  0.00000000000E+00  0.00000000000E+00  0.14470051893E+03  0.14470051893E+03  0.00000000000E+00 0.  1.
          2   -1    0    0  503    0 -0.00000000000E+00 -0.00000000000E+00 -0.33062964280E+03  0.33062964280E+03  0.00000000000E+00 0. -1.
         24    2    1    2    0    0 -0.39992537213E+02  0.48874186616E+02 -0.11993105336E+03  0.16008695588E+03  0.85183840805E+02 0.  0.
         23    2    1    2    0    0 -0.19982911164E+02 -0.33243769146E+02  0.86173048914E+02  0.13026750741E+03  0.89662501644E+02 0.  0.
        -13    1    3    3    0    0 -0.48308197307E+02  0.56923206703E+02 -0.51533811114E+02  0.90717512512E+02  0.00000000000E+00 0.  1.
         14    1    3    3    0    0  0.83156600935E+01 -0.80490200868E+01 -0.68397242243E+02  0.69369443371E+02  0.00000000000E+00 0. -1.
        -13    1    4    4    0    0 -0.30386159677E+02  0.55138550152E+01  0.84651842592E+02  0.90109132453E+02  0.00000000000E+00 0.  1.
         13    1    4    4    0    0  0.10403248513E+02 -0.38757624161E+02  0.15212063221E+01  0.40158374954E+02  0.00000000000E+00 0. -1.
         21    1    1    2  503  502 -0.73556040579E+01 -0.18891478556E+02 -0.93301389121E+02  0.95478490169E+02  0.00000000000E+00 0. -1.
          1    1    1    2  501    0  0.67331052435E+02  0.32610610852E+01 -0.58869730305E+02  0.89497208267E+02  0.00000000000E+00 0. -1.
<scales pt_clust_5="13000.00000" pt_clust_6="13000.00000" pt_clust_7="13000.00000" pt_clust_8="13000.00000" pt_clust_9="20.27296" pt_clust_10="65.07614"></scales>
<clustering>
<clus scale="   20.273">  2  9  1 -1</clus>
<clus scale="   65.076">  1 10  2 -1</clus>
<clus scale="   85.184">  5  6 -1 -1</clus>
<clus scale="   89.663">  7  8 -1 -1</clus>
<clus scale="   99.147">  2  5  1 -1</clus>
<clus scale="   65.076">  1  5  2 -1</clus>
</clustering>
</event>
<event>
10    4  0.3738096E-005  0.2007230E+03  0.7546771E-02  0.1163956E+00
          2   -1    0    0  503    0 -0.00000000000E+00  0.00000000000E+00  0.18946188588E+03  0.18946188588E+03  0.00000000000E+00 0. -1.
         21   -1    0    0  501  502  0.00000000000E+00 -0.00000000000E+00 -0.12468671248E+04  0.12468671248E+04  0.00000000000E+00 0. -1.
         24    2    1    2    0    0 -0.93622659762E+02  0.56736589228E+02 -0.47847045787E+03  0.49812092960E+03  0.84889566338E+02 0.  0.
         23    2    1    2    0    0  0.72557145552E+02  0.14190225888E+03 -0.74926977840E+02  0.19862171212E+03  0.91846295919E+02 0.  0.
        -11    1    3    3    0    0 -0.19267839779E+02 -0.21387412297E+02 -0.13823579258E+03  0.14120129392E+03  0.00000000000E+00 0.  1.
         12    1    3    3    0    0 -0.74354819982E+02  0.78124001524E+02 -0.34023466529E+03  0.35691963568E+03  0.00000000000E+00 0. -1.
        -13    1    4    4    0    0  0.67745996958E+02  0.11605699635E+03 -0.95816011312E+02  0.16504379579E+03  0.00000000000E+00 0.  1.
         13    1    4    4    0    0  0.48111485942E+01  0.25845262530E+02  0.20889033472E+02  0.33577916336E+02  0.00000000000E+00 0. -1.
         21    1    1    2  503  502 -0.53031860120E+02 -0.18110248338E+02  0.94611706830E+02  0.10996242245E+03  0.00000000000E+00 0. -1.
          1    1    1    2  501    0  0.74097374329E+02 -0.18052859977E+03 -0.59861950999E+03  0.62962394646E+03  0.00000000000E+00 0. -1.
<scales pt_clust_5="13000.00000" pt_clust_6="13000.00000" pt_clust_7="13000.00000" pt_clust_8="13000.00000" pt_clust_9="56.03891" pt_clust_10="178.47682"></scales>
<clustering>
<clus scale="   56.039">  1  9  2 -1</clus>
<clus scale="   84.890">  5  6 -1 -1</clus>
<clus scale="   91.846">  7  8 -1 -1</clus>
<clus scale="  141.838">  1  5  2 -1</clus>
<clus scale="  178.477">  2 10  1 -1</clus>
<clus scale="  178.477">  2  5  1 -1</clus>
</clustering>
</event>
<event>
10    4  0.3738096E-005  0.1732014E+03  0.7546771E-02  0.1176386E+00
          2   -1    0    0  503    0 -0.00000000000E+00  0.00000000000E+00  0.29882961251E+03  0.29882961251E+03  0.00000000000E+00 0. -1.
         21   -1    0    0  501  502  0.00000000000E+00 -0.00000000000E+00 -0.40195669054E+03  0.40195669054E+03  0.00000000000E+00 0. -1.
         23    2    1    2    0    0 -0.11074736258E+03 -0.24222235140E+02 -0.10673159572E+03  0.18007153918E+03  0.90456789150E+02 0.  0.
         24    2    1    2    0    0  0.15640265077E+03  0.14070522994E+03 -0.14745044423E+03  0.26793430728E+03  0.76075019620E+02 0.  0.
        -13    1    4    4    0    0  0.87568163814E+02  0.58889429273E+02 -0.11526178137E+03  0.15627356283E+03  0.00000000000E+00 0.  1.
         14    1    4    4    0    0  0.68834486961E+02  0.81815800670E+02 -0.32188662855E+02  0.11166074445E+03  0.00000000000E+00 0. -1.
        -13    1    3    3    0    0 -0.60405554113E+02  0.32854913658E+02 -0.46402635643E+02  0.82954691934E+02  0.00000000000E+00 0.  1.
         13    1    3    3    0    0 -0.50341808466E+02 -0.57077148798E+02 -0.60328960081E+02  0.97116847246E+02  0.00000000000E+00 0. -1.
         21    1    1    2  503  502  0.18813732241E+02 -0.26899076186E+02  0.13775502645E+03  0.14161201974E+03  0.00000000000E+00 0. -1.
          1    1    1    2  501    0 -0.64469020436E+02 -0.89583918618E+02  0.13299935459E+02  0.11116843686E+03  0.00000000000E+00 0. -1.
<scales pt_clust_5="13000.00000" pt_clust_6="13000.00000" pt_clust_7="13000.00000" pt_clust_8="13000.00000" pt_clust_9="32.82555" pt_clust_10="115.24911"></scales>
<clustering>
<clus scale="   32.826">  1  9  2 -1</clus>
<clus scale="   76.075">  5  6 -1 -1</clus>
<clus scale="   90.457">  7  8 -1 -1</clus>
<clus scale="  115.249">  2 10  1 -1</clus>
<clus scale="  166.144">  2  5  1 -1</clus>
<clus scale="  115.249">  2  5  1 -1</clus>
</clustering>
</event>
<event>
10    4  0.3738096E-005  0.1131117E+03  0.7546771E-02  0.1258789E+00
         21   -1    0    0  501  502  0.00000000000E+00  0.00000000000E+00  0.34374182438E+02  0.34374182438E+02  0.00000000000E+00 0. -1.
          2   -1    0    0  503    0 -0.00000000000E+00 -0.00000000000E+00 -0.59393803650E+03  0.59393803650E+03  0.00000000000E+00 0. -1.
         24    2    1    2    0    0  0.72058368750E+00 -0.60433505071E+02 -0.26029383270E+03  0.27901939441E+03  0.80288326283E+02 0.  0.
         23    2    1    2    0    0 -0.54350457913E+01  0.72704999743E+02 -0.15554498375E+03  0.19435166846E+03  0.90899792932E+02 0.  0.
        -13    1    3    3    0    0  0.36874803019E+02 -0.17890351225E+02 -0.14860966057E+03  0.15415786383E+03  0.00000000000E+00 0.  1.
         14    1    3    3    0    0 -0.36154219331E+02 -0.42543153846E+02 -0.11168417213E+03  0.12486153058E+03  0.00000000000E+00 0. -1.
        -13    1    4    4    0    0 -0.17978351724E+02 -0.14017402280E+02 -0.62563632148E+02  0.66587662258E+02  0.00000000000E+00 0.  1.
         13    1    4    4    0    0  0.12543305933E+02  0.86722402023E+02 -0.92981351598E+02  0.12776400620E+03  0.00000000000E+00 0. -1.
         21    1    1    2  503  502  0.30406515016E+02 -0.84131958859E+01 -0.87190340986E+02  0.92722670268E+02  0.00000000000E+00 0.  1.
          1    1    1    2  501    0 -0.25692052912E+02 -0.38582987862E+01 -0.56534696630E+02  0.62218485801E+02  0.00000000000E+00 0. -1.
<scales pt_clust_5="13000.00000" pt_clust_6="13000.00000" pt_clust_7="13000.00000" pt_clust_8="13000.00000" pt_clust_9="29.48161" pt_clust_10="25.98016"></scales>
<clustering>
<clus scale="   25.980">  1 10  2 -1</clus>
<clus scale="   29.482">  2  9  1 -1</clus>
<clus scale="   80.288">  5  6 -1 -1</clus>
<clus scale="   90.900">  7  8 -1 -1</clus>
<clus scale="  104.775">  2  5  1 -1</clus>
<clus scale="   25.980">  1  5  2 -1</clus>
</clustering>
</event>
<event>
10    4  0.3738096E-005  0.9943559E+02  0.7546771E-02  0.1290920E+00
         -3   -1    0    0    0  501 -0.00000000000E+00  0.00000000000E+00  0.10817356313E+03  0.10817356313E+03  0.00000000000E+00 0.  1.
         21   -1    0    0  503  502  0.00000000000E+00 -0.00000000000E+00 -0.29313350163E+03  0.29313350163E+03  0.00000000000E+00 0.  1.
         23    2    1    2    0    0 -0.19549102650E+02  0.52672457019E+02  0.15364181198E+02  0.11065206530E+03  0.94081168942E+02 0.  0.
         24    2    1    2    0    0  0.30523803024E+02  0.78994191245E+01 -0.11481748140E+03  0.14166980756E+03  0.76767030471E+02 0.  0.
        -11    1    4    4    0    0  0.46823592449E+02 -0.15108607111E+02 -0.46229500882E+02  0.67512114250E+02  0.00000000000E+00 0.  1.
         12    1    4    4    0    0 -0.16299789425E+02  0.23008026235E+02 -0.68587980514E+02  0.74157693313E+02  0.00000000000E+00 0. -1.
        -13    1    3    3    0    0 -0.57814213578E+02  0.32282861459E+02  0.87701017391E+01  0.66795068083E+02  0.00000000000E+00 0. -1.
         13    1    3    3    0    0  0.38265110928E+02  0.20389595560E+02  0.65940794587E+01  0.43856997222E+02  0.00000000000E+00 0.  1.
         21    1    1    2  503  501  0.23041578068E+02 -0.12154604953E+02  0.16658266146E+02  0.30921619822E+02  0.00000000000E+00 0.  1.
         -4    1    1    2    0  502 -0.34016278442E+02 -0.48417271190E+02 -0.10216490445E+03  0.11806357207E+03  0.00000000000E+00 0.  1.
<scales pt_clust_5="13000.00000" pt_clust_6="13000.00000" pt_clust_7="13000.00000" pt_clust_8="13000.00000" pt_clust_9="26.05089" pt_clust_10="58.91151"></scales>
<clustering>
<clus scale="   26.051">  1  9  2 -1</clus>
<clus scale="   58.912">  2 10  1 -1</clus>
<clus scale="   76.767">  5  6 -1 -1</clus>
<clus scale="   83.243">  2  5  1 -1</clus>
<clus scale="   94.081">  7  8 -1 -1</clus>
<clus scale="   58.912">  2  5  1 -1</clus>
</clustering>
</event>
<event>
10    4  0.3738096E-005  0.1518039E+03  0.7546771E-02  0.1211775E+00
          2   -1    0    0  503    0 -0.00000000000E+00  0.00000000000E+00  0.52650587455E+03  0.52650587455E+03  0.00000000000E+00 0. -1.
         21   -1    0    0  501  502  0.00000000000E+00 -0.00000000000E+00 -0.11963164065E+03  0.11963164065E+03  0.00000000000E+00 0.  1.
         24    2    1    2    0    0 -0.67206979202E+02 -0.31485101108E+02  0.64591230091E+02  0.12980597643E+03  0.84672751624E+02 0.  0.
         23    2    1    2    0    0 -0.74111791037E+02  0.94427750070E+02  0.18358629068E+02  0.15202722962E+03  0.91466287406E+02 0.  0.
        -13    1    3    3    0    0 -0.38343896973E+02 -0.47582085800E+02  0.45598004311E+01  0.61278879755E+02  0.00000000000E+00 0.  1.
         14    1    3    3    0    0 -0.28863082230E+02  0.16096984691E+02  0.60031429660E+02  0.68527096677E+02  0.00000000000E+00 0. -1.
        -11    1    4    4    0    0  0.16462615192E+02  0.42580349192E+02 -0.20005689330E+01  0.45695799723E+02  0.00000000000E+00 0.  1.
         11    1    4    4    0    0 -0.90574406229E+02  0.51847400878E+02  0.20359198001E+02  0.10633142990E+03  0.00000000000E+00 0. -1.
         21    1    1    2  503  502  0.24676695248E+01 -0.20536785179E+02  0.29480742760E+02  0.36013374350E+02  0.00000000000E+00 0. -1.
          1    1    1    2  501    0  0.13885110071E+03 -0.42405863782E+02  0.29444363199E+03  0.32829093480E+03  0.00000000000E+00 0. -1.
<scales pt_clust_5="13000.00000" pt_clust_6="13000.00000" pt_clust_7="13000.00000" pt_clust_8="13000.00000" pt_clust_9="20.68451" pt_clust_10="121.15430"></scales>
<clustering>
<clus scale="   20.685">  1  9  2 -1</clus>
<clus scale="   84.673">  5  6 -1 -1</clus>
<clus scale="   91.466">  7  8 -1 -1</clus>
<clus scale="  113.505">  1  5  2 -1</clus>
<clus scale="  121.154">  2 10  1 -1</clus>
<clus scale="  121.154">  2  5  1 -1</clus>
</clustering>
</event>
<event>
10    4  0.3738096E-005  0.1079474E+03  0.7546771E-02  0.1267310E+00
         21   -1    0    0  503  502  0.00000000000E+00  0.00000000000E+00  0.34878955664E+02  0.34878955664E+02  0.00000000000E+00 0. -1.
         -1   -1    0    0    0  501 -0.00000000000E+00 -0.00000000000E+00 -0.74237987744E+03  0.74237987744E+03  0.00000000000E+00 0.  1.
         24    2    1    2    0    0 -0.38126304620E+02 -0.33507697890E+01 -0.31319791556E+03  0.32676234916E+03  0.84946193293E+02 0.  0.
         23    2    1    2    0    0  0.75338222539E+02  0.21110477563E+02 -0.31066078451E+03  0.33329901985E+03  0.91959847547E+02 0.  0.
        -13    1    3    3    0    0 -0.37345993477E+02  0.33994794466E+02 -0.23128723389E+03  0.23673646495E+03  0.00000000000E+00 0.  1.
         14    1    3    3    0    0 -0.78031114259E+00 -0.37345564255E+02 -0.81910681673E+02  0.90025884206E+02  0.00000000000E+00 0. -1.
        -11    1    4    4    0    0 -0.21338809800E+02  0.77481268276E+00 -0.68866063596E+02  0.72100484419E+02  0.00000000000E+00 0.  1.
         11    1    4    4    0    0  0.96677032339E+02  0.20335664881E+02 -0.24179472092E+03  0.26119853543E+03  0.00000000000E+00 0. -1.
         21    1    1    2  503  501 -0.15782982834E+02 -0.17353231659E+02 -0.91431936257E+02  0.94392987895E+02  0.00000000000E+00 0.  1.
         -2    1    1    2    0  502 -0.21428935086E+02 -0.40647611577E+00  0.77897145552E+01  0.22804476196E+02  0.00000000000E+00 0.  1.
<scales pt_clust_5="13000.00000" pt_clust_6="13000.00000" pt_clust_7="13000.00000" pt_clust_8="13000.00000" pt_clust_9="24.59822" pt_clust_10="21.43279"></scales>
<clustering>
<clus scale="   21.433">  1 10  2 -1</clus>
<clus scale="   24.598">  2  9  1 -1</clus>
<clus scale="   84.946">  5  6 -1 -1</clus>
<clus scale="   91.960">  7  8 -1 -1</clus>
<clus scale="  102.039">  2  5  1 -1</clus>
<clus scale="   21.433">  1  5  2 -1</clus>
</clustering>
</event>
<event>
10    4  0.3738096E-005  0.1070163E+03  0.7546771E-02  0.1271456E+00
         21   -1    0    0  501  502  0.00000000000E+00  0.00000000000E+00  0.10836102995E+03  0.10836102995E+03  0.00000000000E+00 0. -1.
          2   -1    0    0  503    0 -0.00000000000E+00 -0.00000000000E+00 -0.40356104918E+03  0.40356104918E+03  0.00000000000E+00 0. -1.
         23    2    1    2    0    0  0.47075732830E+02  0.40909519330E+02 -0.96885031909E+02  0.14596258538E+03  0.89602754025E+02 0.  0.
         24    2    1    2    0    0 -0.41780911881E+02 -0.35281156845E+02  0.28165495987E+02  0.98492910944E+02  0.76923037616E+02 0.  0.
        -11    1    4    4    0    0  0.38947081282E+01  0.20753929158E+02  0.12446067560E+02  0.24511199983E+02  0.00000000000E+00 0.  1.
         12    1    4    4    0    0 -0.45675620009E+02 -0.56035086004E+02  0.15719428428E+02  0.73981710961E+02  0.00000000000E+00 0. -1.
        -13    1    3    3    0    0 -0.12464035747E+02  0.17055020587E+02  0.83555061364E+01  0.22716522558E+02  0.00000000000E+00 0.  1.
         13    1    3    3    0    0  0.59539768577E+02  0.23854498742E+02 -0.10524053805E+03  0.12324606282E+03  0.00000000000E+00 0. -1.
         21    1    1    2  503  502  0.14512888435E+02 -0.28157205282E+02 -0.23432755511E+03  0.23645899269E+03  0.00000000000E+00 0.  1.
          1    1    1    2  501    0 -0.19807709384E+02  0.22528842797E+02  0.78470718023E+01  0.31007590114E+02  0.00000000000E+00 0. -1.
<scales pt_clust_5="13000.00000" pt_clust_6="13000.00000" pt_clust_7="13000.00000" pt_clust_8="13000.00000" pt_clust_9="31.32872" pt_clust_10="29.99824"></scales>
<clustering>
<clus scale="   29.998">  1 10  2 -1</clus>
<clus scale="   31.329">  2  9  1 -1</clus>
<clus scale="   76.923">  5  6 -1 -1</clus>
<clus scale="   89.603">  7  8 -1 -1</clus>
<clus scale="   96.649">  1  5  2 -1</clus>
<clus scale="   29.998">  1  5  2 -1</clus>
</clustering>
</event>
<event>
10    4  0.3738096E-005  0.1481108E+03  0.7546771E-02  0.1218417E+00
          2   -1    0    0  503    0 -0.00000000000E+00  0.00000000000E+00  0.22413476691E+04  0.22413476691E+04  0.00000000000E+00 0. -1.
         21   -1    0    0  501  502  0.00000000000E+00 -0.00000000000E+00 -0.45065303807E+02  0.45065303807E+02  0.00000000000E+00 0.  1.
         24    2    1    2    0    0  0.31475015640E+02 -0.60969448896E+02  0.10847370455E+03  0.15178919357E+03  0.81027553321E+02 0.  0.
         23    2    1    2    0    0 -0.48595470325E+02 -0.38992575062E+02  0.54258372495E+03  0.55343961447E+03  0.89534170198E+02 0.  0.
        -13    1    3    3    0    0  0.80637723776E+01 -0.31209600388E+02 -0.45843965395E+01  0.32558873951E+02  0.00000000000E+00 0.  1.
         14    1    3    3    0    0  0.23411243263E+02 -0.29759848508E+02  0.11305810109E+03  0.11923031962E+03  0.00000000000E+00 0. -1.
        -13    1    4    4    0    0  0.18061347844E+02  0.13431414717E+02  0.78127675718E+02  0.81305282119E+02  0.00000000000E+00 0. -1.
         13    1    4    4    0    0 -0.66656818169E+02 -0.52423989780E+02  0.46445604924E+03  0.47213433235E+03  0.00000000000E+00 0.  1.
         21    1    1    2  503  502  0.17479237681E+01  0.21651284789E+03  0.10640802431E+04  0.10858856442E+04  0.00000000000E+00 0.  1.
          1    1    1    2  501    0  0.15372530917E+02 -0.11655082393E+03  0.48114469266E+03  0.49529852063E+03  0.00000000000E+00 0. -1.
<scales pt_clust_5="13000.00000" pt_clust_6="13000.00000" pt_clust_7="13000.00000" pt_clust_8="13000.00000" pt_clust_9="13000.00000" pt_clust_10="148.11076"></scales>
<clustering>
<clus scale="   81.028">  5  6 -1 -1</clus>
<clus scale="   89.534">  7  8 -1 -1</clus>
<clus scale="  106.176">  1  5  2 -1</clus>
<clus scale="  112.497">  1  7  2 -1</clus>
<clus scale="  148.111">  2 10  1 -1</clus>
<clus scale="  148.111">  2  5  1 -1</clus>
</clustering>
</event>
<event>
10    4  0.3738096E-005  0.2381478E+03  0.7546771E-02  0.1145160E+00
         21   -1    0    0  501  502  0.00000000000E+00  0.00000000000E+00  0.20079402063E+03  0.20079402063E+03  0.00000000000E+00 0.  1.
          2   -1    0    0  503    0 -0.00000000000E+00 -0.00000000000E+00 -0.68027538237E+03  0.68027538237E+03  0.00000000000E+00 0. -1.
         24    2    1    2    0    0 -0.72950212975E+02 -0.89669044953E+02 -0.16951064783E+03  0.22175354510E+03  0.84133844799E+02 0.  0.
         23    2    1    2    0    0  0.23294265518E+03  0.11495983219E+03 -0.19387128101E+03  0.34387150674E+03  0.11481940571E+03 0.  0.
        -13    1    3    3    0    0 -0.13395903704E+02 -0.80534424494E+02 -0.83893519390E+02  0.11706137860E+03  0.00000000000E+00 0.  1.
         14    1    3    3    0    0 -0.59554309271E+02 -0.91346204593E+01 -0.85617128438E+02  0.10469216650E+03  0.00000000000E+00 0. -1.
        -11    1    4    4    0    0  0.49544815283E+02 -0.24667107751E+01  0.38201464612E+01  0.49753059227E+02  0.00000000000E+00 0.  1.
         11    1    4    4    0    0  0.18339783990E+03  0.11742654296E+03 -0.19769142747E+03  0.29411844751E+03  0.00000000000E+00 0. -1.
         21    1    1    2  503  502  0.22392835530E+02  0.32475341010E+02 -0.11768791743E+03  0.12412305493E+03  0.00000000000E+00 0.  1.
          1    1    1    2  501    0 -0.18238527774E+03 -0.57766128243E+02  0.15884845264E+01  0.19132129623E+03  0.00000000000E+00 0. -1.
<scales pt_clust_5="13000.00000" pt_clust_6="13000.00000" pt_clust_7="13000.00000" pt_clust_8="13000.00000" pt_clust_9="39.44727" pt_clust_10="208.64051"></scales>
<clustering>
<clus scale="   39.447">  2  9  1 -1</clus>
<clus scale="   84.134">  5  6 -1 -1</clus>
<clus scale="  114.819">  7  8 -1 -1</clus>
<clus scale="  132.104">  2  5  1 -1</clus>
<clus scale="  208.641">  1 10  2 -1</clus>
<clus scale="  208.641">  1  5  2 -1</clus>
</clustering>
</event>
<event>
10    4  0.3738096E-005  0.1974539E+03  0.7546771E-02  0.1177633E+00
          4   -1    0    0  503    0 -0.00000000000E+00  0.00000000000E+00  0.11003940368E+04  0.11003940368E+04  0.00000000000E+00 0. -1.
         21   -1    0    0  501  502  0.00000000000E+00 -0.00000000000E+00 -0.39844770629E+03  0.39844770629E+03  0.00000000000E+00 0. -1.
         24    2    1    2    0    0  0.14200936157E+02  0.16486137897E+02  0.41950221934E+03  0.43356844998E+03  0.10735934732E+03 0.  0.
         23    2    1    2    0    0  0.43639298255E+02 -0.11790172333E+03  0.39370320015E+02  0.16033042737E+03  0.91381722068E+02 0.  0.
        -11    1    3    3    0    0  0.17627261347E+01  0.57575707782E+02  0.15021794065E+03  0.16088349518E+03  0.00000000000E+00 0.  1.
         12    1    3    3    0    0  0.12438210023E+02 -0.41089569886E+02  0.26928427869E+03  0.27268495480E+03  0.00000000000E+00 0. -1.
        -13    1    4    4    0    0 -0.19172793381E+02 -0.72764842200E+02  0.42100091990E+01  0.75366056311E+02  0.00000000000E+00 0.  1.
         13    1    4    4    0    0  0.62812091635E+02 -0.45136881128E+02  0.35160310815E+02  0.84964371063E+02  0.00000000000E+00 0. -1.
         21    1    1    2  503  502 -0.74380676356E+02  0.16871598684E+03  0.55530313586E+03  0.58511463999E+03  0.00000000000E+00 0. -1.
          3    1    1    2  501    0  0.16540441944E+02 -0.67300401410E+02 -0.31222934474E+03  0.31982822571E+03  0.00000000000E+00 0. -1.
<scales pt_clust_5="13000.00000" pt_clust_6="13000.00000" pt_clust_7="13000.00000" pt_clust_8="13000.00000" pt_clust_9="175.03548" pt_clust_10="69.30318"></scales>
<clustering>
<clus scale="   69.303">  2 10  1 -1</clus>
<clus scale="   91.382">  7  8 -1 -1</clus>
<clus scale="  107.359">  5  6 -1 -1</clus>
<clus scale="  109.019">  1  5  2 -1</clus>
<clus scale="  175.035">  1  9  2 -1</clus>
<clus scale="   69.303">  2  5  1 -1</clus>
</clustering>
</event>
<event>
10    4  0.3738096E-005  0.1018588E+03  0.7546771E-02  0.1281874E+00
         -1   -1    0    0    0  501 -0.00000000000E+00  0.00000000000E+00  0.32137676872E+03  0.32137676872E+03  0.00000000000E+00 0.  1.
         21   -1    0    0  503  502  0.00000000000E+00 -0.00000000000E+00 -0.15864668301E+03  0.15864668301E+03  0.00000000000E+00 0. -1.
         23    2    1    2    0    0 -0.99012241488E+01 -0.36148514220E+02  0.21051256344E+03  0.23274297181E+03  0.91918454297E+02 0.  0.
         24    2    1    2    0    0  0.48146987697E+02  0.41989284453E+02 -0.76139719874E+01  0.10317843204E+03  0.80663398370E+02 0.  0.
        -11    1    4    4    0    0  0.47549320153E+02  0.58741920570E+02  0.12919594845E+02  0.76671161529E+02  0.00000000000E+00 0.  1.
         12    1    4    4    0    0  0.59766754371E+00 -0.16752636117E+02 -0.20533566832E+02  0.26507270516E+02  0.00000000000E+00 0. -1.
        -11    1    3    3    0    0 -0.27810796944E+02  0.28962522803E+01  0.13404148230E+02  0.31008061753E+02  0.00000000000E+00 0. -1.
         11    1    3    3    0    0  0.17909572795E+02 -0.39044766501E+02  0.19710841521E+03  0.20173491005E+03  0.00000000000E+00 0.  1.
         21    1    1    2  503  501 -0.19065326954E+02  0.73925460577E+01  0.48387831464E+02  0.52531120899E+02  0.00000000000E+00 0. -1.
         -2    1    1    2    0  502 -0.19180436594E+02 -0.13233316291E+02 -0.88556337210E+02  0.91570926980E+02  0.00000000000E+00 0.  1.
<scales pt_clust_5="13000.00000" pt_clust_6="13000.00000" pt_clust_7="13000.00000" pt_clust_8="13000.00000" pt_clust_9="20.44838" pt_clust_10="23.36671"></scales>
<clustering>
<clus scale="   20.448">  1  9  2 -1</clus>
<clus scale="   23.367">  2 10  1 -1</clus>
<clus scale="   80.663">  5  6 -1 -1</clus>
<clus scale="   91.830">  2  5  1 -1</clus>
<clus scale="   91.918">  7  8 -1 -1</clus>
<clus scale="   23.367">  2  5  1 -1</clus>
</clustering>
</event>
<event>
10    4  0.3738096E-005  0.1141647E+03  0.7546771E-02  0.1254816E+00
         -3   -1    0    0    0  501 -0.00000000000E+00  0.00000000000E+00  0.11667432077E+03  0.11667432077E+03  0.00000000000E+00 0.  1.
         21   -1    0    0  503  502  0.00000000000E+00 -0.00000000000E+00 -0.57036755316E+03  0.57036755316E+03  0.00000000000E+00 0.  1.
         23    2    1    2    0    0  0.46380069164E+02  0.53959991405E+02  0.69107162481E+02  0.13426329906E+03  0.90487800728E+02 0.  0.
         24    2    1    2    0    0 -0.44003143832E+02 -0.28548527444E+02 -0.39823722406E+03  0.41066769846E+03  0.85462136890E+02 0.  0.
        -11    1    4    4    0    0 -0.47545816516E+02  0.15927357190E+02 -0.14242873612E+03  0.15099745113E+03  0.00000000000E+00 0.  1.
         12    1    4    4    0    0  0.35426726841E+01 -0.44475884634E+02 -0.25580848794E+03  0.25967024733E+03  0.00000000000E+00 0. -1.
        -11    1    3    3    0    0 -0.22669793808E+02  0.12933650897E+02  0.42084858679E+02  0.49521048120E+02  0.00000000000E+00 0.  1.
         11    1    3    3    0    0  0.69049862972E+02  0.41026340508E+02  0.27022303802E+02  0.84742250942E+02  0.00000000000E+00 0. -1.
         21    1    1    2  503  501 -0.31779355637E+02 -0.92020981472E+01 -0.45888741251E+02  0.56571924385E+02  0.00000000000E+00 0. -1.
         -4    1    1    2    0  502  0.29402430305E+02 -0.16209365814E+02 -0.78674429554E+02  0.85538952025E+02  0.00000000000E+00 0.  1.
<scales pt_clust_5="13000.00000" pt_clust_6="13000.00000" pt_clust_7="13000.00000" pt_clust_8="13000.00000" pt_clust_9="33.08483" pt_clust_10="30.10388"></scales>
<clustering>
<clus scale="   33.085">  2  9  1 -1</clus>
<clus scale="   30.104">  2 10  1 -1</clus>
<clus scale="   85.462">  5  6 -1 -1</clus>
<clus scale="   90.488">  7  8 -1 -1</clus>
<clus scale="  110.224">  2  5  1 -1</clus>
<clus scale="   33.085">  2  5  1 -1</clus>
</clustering>
</event>
<event>
10    4  0.3738096E-005  0.1007529E+03  0.7546771E-02  0.1282221E+00
         21   -1    0    0  501  502  0.00000000000E+00  0.00000000000E+00  0.48601545385E+03  0.48601545385E+03  0.00000000000E+00 0.  1.
          4   -1    0    0  503    0 -0.00000000000E+00 -0.00000000000E+00 -0.83566356295E+02  0.83566356295E+02  0.00000000000E+00 0. -1.
         24    2    1    2    0    0  0.33625776086E+02  0.47759263508E+02  0.66964239768E+01  0.10103065427E+03  0.82162710149E+02 0.  0.
         23    2    1    2    0    0 -0.68114187179E+02 -0.31317424601E+02  0.36351908572E+03  0.38181479627E+03  0.89532616354E+02 0.  0.
        -13    1    3    3    0    0 -0.23871480403E+02  0.10522859544E+02 -0.13820243104E+02  0.29522487515E+02  0.00000000000E+00 0.  1.
         14    1    3    3    0    0  0.57497256489E+02  0.37236403963E+02  0.20516667081E+02  0.71508166750E+02  0.00000000000E+00 0. -1.
        -13    1    4    4    0    0 -0.63153053725E+02  0.18836471408E+02  0.22282471635E+03  0.23236603682E+03  0.00000000000E+00 0.  1.
         13    1    4    4    0    0 -0.49611334539E+01 -0.50153896010E+02  0.14069436937E+03  0.14944875945E+03  0.00000000000E+00 0. -1.
         21    1    1    2  503  502 -0.15165316162E+02 -0.16339249299E+02 -0.70947070028E+01  0.23394288820E+02  0.00000000000E+00 0. -1.
          3    1    1    2  501    0  0.49653727256E+02 -0.10258960729E+00  0.39328294865E+02  0.63342070790E+02  0.00000000000E+00 0. -1.
<scales pt_clust_5="13000.00000" pt_clust_6="13000.00000" pt_clust_7="13000.00000" pt_clust_8="13000.00000" pt_clust_9="22.29255" pt_clust_10="47.08262"></scales>
<clustering>
<clus scale="   22.293">  2  9  1 -1</clus>
<clus scale="   47.083">  1 10  2 -1</clus>
<clus scale="   82.163">  5  6 -1 -1</clus>
<clus scale="   89.533">  7  8 -1 -1</clus>
<clus scale="   94.264">  2  5  1 -1</clus>
<clus scale="   47.083">  1  5  2 -1</clus>
</clustering>
</event>
<event>
10    4  0.3738096E-005  0.1340970E+03  0.7546771E-02  0.1242080E+00
         21   -1    0    0  501  502  0.00000000000E+00  0.00000000000E+00  0.58360673406E+02  0.58360673406E+02  0.00000000000E+00 0. -1.
          2   -1    0    0  503    0 -0.00000000000E+00 -0.00000000000E+00 -0.10597039834E+04  0.10597039834E+04  0.00000000000E+00 0. -1.
         24    2    1    2    0    0 -0.12270181050E+02  0.53316757165E+02 -0.55074214068E+02  0.10391325568E+03  0.69076491752E+02 0.  0.
         23    2    1    2    0    0 -0.44323641447E+02  0.58893107785E+02 -0.19597301030E+03  0.22839727105E+03  0.91251900388E+02 0.  0.
        -11    1    3    3    0    0 -0.21486326764E+02  0.15498568536E+02  0.98083722124E+01  0.28250168671E+02  0.00000000000E+00 0.  1.
         12    1    3    3    0    0  0.92161457141E+01  0.37818188629E+02 -0.64882586280E+02  0.75663087007E+02  0.00000000000E+00 0. -1.
        -13    1    4    4    0    0  0.21958372836E+02  0.43216911918E+02 -0.94110139902E+02  0.10586118290E+03  0.00000000000E+00 0.  1.
         13    1    4    4    0    0 -0.66282014283E+02  0.15676195866E+02 -0.10186287040E+03  0.12253608815E+03  0.00000000000E+00 0. -1.
         21    1    1    2  503  502 -0.70571930058E+02 -0.27194080130E+02 -0.32802683207E+03  0.33663261557E+03  0.00000000000E+00 0. -1.
          1    1    1    2  501    0  0.12716575255E+03 -0.85015784820E+02 -0.42226925357E+03  0.44912151452E+03  0.00000000000E+00 0. -1.
<scales pt_clust_5="13000.00000" pt_clust_6="13000.00000" pt_clust_7="13000.00000" pt_clust_8="13000.00000" pt_clust_9="75.63012" pt_clust_10="98.26046"></scales>
<clustering>
<clus scale="   69.076">  5  6 -1 -1</clus>
<clus scale="   75.630">  2  9  1 -1</clus>
<clus scale="   87.781">  2  5  1 -1</clus>
<clus scale="   91.252">  7  8 -1 -1</clus>
<clus scale="   98.260">  1 10  2 -1</clus>
<clus scale="   98.260">  1  5  2 -1</clus>
</clustering>
</event>
<event>
10    4  0.3738096E-005  0.2340334E+03  0.7546771E-02  0.1163101E+00
         -1   -1    0    0    0  501 -0.00000000000E+00  0.00000000000E+00  0.19702847082E+03  0.19702847082E+03  0.00000000000E+00 0.  1.
         21   -1    0    0  503  502  0.00000000000E+00 -0.00000000000E+00 -0.77579105808E+03  0.77579105808E+03  0.00000000000E+00 0. -1.
         23    2    1    2    0    0  0.17703280155E+02 -0.81438566858E+01  0.81565502058E+01  0.91650650763E+02  0.89182867996E+02 0.  0.
         24    2    1    2    0    0  0.19072153664E+03 -0.99378177136E+02 -0.38267667594E+03  0.44629502231E+03  0.80542423611E+02 0.  0.
        -13    1    4    4    0    0  0.13046994687E+03 -0.10342009896E+03 -0.24801327262E+03  0.29871174617E+03  0.00000000000E+00 0.  1.
         14    1    4    4    0    0  0.60251589768E+02  0.40419218248E+01 -0.13466340333E+03  0.14758327614E+03  0.00000000000E+00 0. -1.
        -11    1    3    3    0    0 -0.16642132930E+02  0.24992869402E+02 -0.20151495984E+02  0.36161953761E+02  0.00000000000E+00 0.  1.
         11    1    3    3    0    0  0.34345413085E+02 -0.33136726088E+02  0.28308046190E+02  0.55488697001E+02  0.00000000000E+00 0. -1.
         21    1    1    2  503  501 -0.19230084441E+03  0.13557785616E+03 -0.74168578211E+01  0.23540598893E+03  0.00000000000E+00 0.  1.
         -2    1    1    2    0  502 -0.16123972384E+02 -0.28055822340E+02 -0.19682560370E+03  0.19946786690E+03  0.00000000000E+00 0.  1.
<scales pt_clust_5="13000.00000" pt_clust_6="13000.00000" pt_clust_7="13000.00000" pt_clust_8="13000.00000" pt_clust_9="219.73747" pt_clust_10="32.35910"></scales>
<clustering>
<clus scale="   32.359">  2 10  1 -1</clus>
<clus scale="   80.542">  5  6 -1 -1</clus>
<clus scale="   89.183">  7  8 -1 -1</clus>
<clus scale="   91.272">  1  7  2 -1</clus>
<clus scale="  219.737">  1  9  2 -1</clus>
<clus scale="   32.359">  2  5  1 -1</clus>
</clustering>
</event>
<event>
10    4  0.3738096E-005  0.1037618E+03  0.7546771E-02  0.1277264E+00
         21   -1    0    0  501  502  0.00000000000E+00  0.00000000000E+00  0.55376171139E+02  0.55376171139E+02  0.00000000000E+00 0. -1.
          2   -1    0    0  503    0 -0.00000000000E+00 -0.00000000000E+00 -0.78375527239E+03  0.78375527239E+03  0.00000000000E+00 0. -1.
         24    2    1    2    0    0 -0.18096329744E+02  0.21230220750E+02 -0.49116439380E+03  0.49843034265E+03  0.80075872183E+02 0.  0.
         23    2    1    2    0    0  0.60485221359E+02 -0.59076337906E+02 -0.19970123334E+03  0.23497441367E+03  0.90465003069E+02 0.  0.
        -11    1    3    3    0    0 -0.16760012442E+01  0.38850391536E+02 -0.11307794421E+03  0.11957752034E+03  0.00000000000E+00 0.  1.
         12    1    3    3    0    0 -0.16420328499E+02 -0.17620170786E+02 -0.37808644959E+03  0.37885282231E+03  0.00000000000E+00 0. -1.
        -11    1    4    4    0    0 -0.21965146336E+02 -0.28283216169E+02 -0.57497173212E+02  0.67737234206E+02  0.00000000000E+00 0.  1.
         11    1    4    4    0    0  0.82450367695E+02 -0.30793121737E+02 -0.14220406012E+03  0.16723717947E+03  0.00000000000E+00 0. -1.
         21    1    1    2  503  502 -0.15677115949E+02  0.13303835826E+02 -0.59743314329E+02  0.63182494563E+02  0.00000000000E+00 0.  1.
          1    1    1    2  501    0 -0.26711775666E+02  0.24542281330E+02  0.22229840218E+02  0.42544192650E+02  0.00000000000E+00 0. -1.
<scales pt_clust_5="13000.00000" pt_clust_6="13000.00000" pt_clust_7="13000.00000" pt_clust_8="13000.00000" pt_clust_9="20.56123" pt_clust_10="36.56346"></scales>
<clustering>
<clus scale="   20.561">  2  9  1 -1</clus>
<clus scale="   36.563">  1 10  2 -1</clus>
<clus scale="   80.076">  5  6 -1 -1</clus>
<clus scale="   90.465">  7  8 -1 -1</clus>
<clus scale="   94.841">  2  5  1 -1</clus>
<clus scale="   36.563">  1  5  2 -1</clus>
</clustering>
</event>
<event>
10    4  0.3738096E-005  0.1571338E+03  0.7546771E-02  0.1195284E+00
         21   -1    0    0  501  502  0.00000000000E+00  0.00000000000E+00  0.19177171579E+03  0.19177171579E+03  0.00000000000E+00 0.  1.
          2   -1    0    0  503    0 -0.00000000000E+00 -0.00000000000E+00 -0.38404915747E+03  0.38404915747E+03  0.00000000000E+00 0. -1.
         24    2    1    2    0    0 -0.14416332722E+03 -0.19881762650E+02 -0.15888070188E+03  0.22978630280E+03  0.79876893574E+02 0.  0.
         23    2    1    2    0    0  0.11280651431E+03 -0.30596448154E+02 -0.85246375729E+02  0.17507638020E+03  0.98607007953E+02 0.  0.
        -11    1    3    3    0    0 -0.14694669077E+03 -0.18550886294E+02 -0.11956665478E+03  0.19035138624E+03  0.00000000000E+00 0.  1.
         12    1    3    3    0    0  0.27833635548E+01 -0.13308763555E+01 -0.39314047101E+02  0.39434916559E+02  0.00000000000E+00 0. -1.
        -13    1    4    4    0    0  0.69628890707E+02 -0.46291611609E+02 -0.64451396734E+01  0.83860810585E+02  0.00000000000E+00 0.  1.
         13    1    4    4    0    0  0.43177623606E+02  0.15695163455E+02 -0.78801236055E+02  0.91215569614E+02  0.00000000000E+00 0. -1.
         21    1    1    2  503  502  0.45775540307E+02 -0.45550629583E+01 -0.41292490473E+02  0.61816004872E+02  0.00000000000E+00 0.  1.
          1    1    1    2  501    0 -0.14418727403E+02  0.55033273762E+02  0.93142126398E+02  0.10914218539E+03  0.00000000000E+00 0. -1.
<scales pt_clust_5="13000.00000" pt_clust_6="13000.00000" pt_clust_7="13000.00000" pt_clust_8="13000.00000" pt_clust_9="46.00162" pt_clust_10="56.51515"></scales>
<clustering>
<clus scale="   46.002">  2  9  1 -1</clus>
<clus scale="   56.515">  1 10  2 -1</clus>
<clus scale="   79.877">  5  6 -1 -1</clus>
<clus scale="   98.607">  7  8 -1 -1</clus>
<clus scale="  146.110">  2  5  1 -1</clus>
<clus scale="   56.515">  1  5  2 -1</clus>
</clustering>
</event>
<event>
10    4  0.3738096E-005  0.1236014E+03  0.7546771E-02  0.1244571E+00
          2   -1    0    0  503    0 -0.00000000000E+00  0.00000000000E+00  0.75775130746E+03  0.75775130746E+03  0.00000000000E+00 0. -1.
         21   -1    0    0  501  502  0.00000000000E+00 -0.00000000000E+00 -0.58020339789E+02  0.58020339789E+02  0.00000000000E+00 0. -1.
         24    2    1    2    0    0 -0.10200202294E+02  0.52007419310E+02  0.22211238842E+03  0.24248028465E+03  0.81571806175E+02 0.  0.
         23    2    1    2    0    0 -0.86735418863E+02 -0.50853799963E+02  0.13225502322E+03  0.19536936167E+03  0.10280396129E+03 0.  0.
        -13    1    3    3    0    0 -0.22562336641E+01  0.73160273582E+02  0.14990847632E+03  0.16682346206E+03  0.00000000000E+00 0.  1.
         14    1    3    3    0    0 -0.79439686299E+01 -0.21152854272E+02  0.72203912096E+02  0.75656822584E+02  0.00000000000E+00 0. -1.
        -11    1    4    4    0    0 -0.34233199103E+02 -0.18401007063E+02  0.12769511451E+03  0.13347865466E+03  0.00000000000E+00 0.  1.
         11    1    4    4    0    0 -0.52502219760E+02 -0.32452792900E+02  0.45599087167E+01  0.61890707010E+02  0.00000000000E+00 0. -1.
         21    1    1    2  503  502  0.74937096486E+02  0.47328679122E+02  0.13941518918E+03  0.16520341180E+03  0.00000000000E+00 0. -1.
          1    1    1    2  501    0  0.21998524671E+02 -0.48482298469E+02  0.20594836685E+03  0.21271858913E+03  0.00000000000E+00 0. -1.
<scales pt_clust_5="13000.00000" pt_clust_6="13000.00000" pt_clust_7="13000.00000" pt_clust_8="13000.00000" pt_clust_9="87.79797" pt_clust_10="53.23975"></scales>
<clustering>
<clus scale="   53.240">  2 10  1 -1</clus>
<clus scale="   81.572">  5  6 -1 -1</clus>
<clus scale="   87.798">  1  9  2 -1</clus>
<clus scale="  102.804">  7  8 -1 -1</clus>
<clus scale="  106.596">  1  5  2 -1</clus>
<clus scale="   53.240">  2  5  1 -1</clus>
</clustering>
</event>
<event>
10    4  0.3738096E-005  0.1720570E+03  0.7546771E-02  0.1193155E+00
         21   -1    0    0  501  502  0.00000000000E+00  0.00000000000E+00  0.15697948828E+03  0.15697948828E+03  0.00000000000E+00 0.  1.
          2   -1    0    0  503    0 -0.00000000000E+00 -0.00000000000E+00 -0.63646021806E+03  0.63646021806E+03  0.00000000000E+00 0. -1.
         24    2    1    2    0    0  0.21292926269E+00 -0.97404372496E+02 -0.36808999012E+03  0.38896939781E+03  0.79493990246E+02 0.  0.
         23    2    1    2    0    0  0.53126955928E+02  0.19972671963E+03 -0.92984329631E+02  0.24161273411E+03  0.83769873733E+02 0.  0.
        -11    1    3    3    0    0  0.14850420615E+02 -0.67631145943E+02 -0.33511145623E+03  0.34219029062E+03  0.00000000000E+00 0.  1.
         12    1    3    3    0    0 -0.14637491353E+02 -0.29773226553E+02 -0.32978533893E+02  0.46779107197E+02  0.00000000000E+00 0. -1.
        -13    1    4    4    0    0  0.15388343881E+02  0.96983723234E+02 -0.88298465332E+02  0.13205780053E+03  0.00000000000E+00 0. -1.
         13    1    4    4    0    0  0.37738612047E+02  0.10274299640E+03 -0.46858642989E+01  0.10955493358E+03  0.00000000000E+00 0.  1.
         21    1    1    2  503  502 -0.95188979875E+01  0.19703495102E+02 -0.24763159856E+02  0.33046198332E+02  0.00000000000E+00 0.  1.
          1    1    1    2  501    0 -0.43820987203E+02 -0.12202584223E+03  0.63567498336E+01  0.12981137608E+03  0.00000000000E+00 0. -1.
<scales pt_clust_5="13000.00000" pt_clust_6="13000.00000" pt_clust_7="13000.00000" pt_clust_8="13000.00000" pt_clust_9="21.88235" pt_clust_10="150.28707"></scales>
<clustering>
<clus scale="   21.882">  2  9  1 -1</clus>
<clus scale="   79.494">  5  6 -1 -1</clus>
<clus scale="   83.770">  7  8 -1 -1</clus>
<clus scale="  116.614">  2  5  1 -1</clus>
<clus scale="  150.287">  1 10  2 -1</clus>
<clus scale="  150.287">  1  5  2 -1</clus>
</clustering>
</event>
<event>
10    4  0.3738096E-005  0.2539235E+03  0.7546771E-02  0.1120542E+00
         21   -1    0    0  501  502  0.00000000000E+00  0.00000000000E+00  0.74574553696E+03  0.74574553696E+03  0.00000000000E+00 0. -1.
          2   -1    0    0  503    0 -0.00000000000E+00 -0.00000000000E+00 -0.94593353244E+03  0.94593353244E+03  0.00000000000E+00 0. -1.
         24    2    1    2    0    0 -0.65714440102E+02 -0.16728196676E+03 -0.48876797312E+03  0.52687980089E+03  0.80040920765E+02 0.  0.
         23    2    1    2    0    0 -0.17138964516E+03  0.98306829010E+02  0.29581083215E+03  0.36807429048E+03  0.94530375000E+02 0.  0.
        -13    1    3    3    0    0  0.12059425237E+02 -0.47109625968E+02 -0.78337142695E+02  0.92203332486E+02  0.00000000000E+00 0.  1.
         14    1    3    3    0    0 -0.77773865339E+02 -0.12017234080E+03 -0.41043083042E+03  0.43467646840E+03  0.00000000000E+00 0. -1.
        -11    1    4    4    0    0 -0.91417567898E+02  0.94252484902E+02  0.13440617525E+03  0.18789817076E+03  0.00000000000E+00 0.  1.
         11    1    4    4    0    0 -0.79972077258E+02  0.40543441085E+01  0.16140465690E+03  0.18017611971E+03  0.00000000000E+00 0. -1.
         21    1    1    2  503  502  0.29892360560E+03  0.98916626623E+02 -0.33622445911E+03  0.46063728454E+03  0.00000000000E+00 0. -1.
          1    1    1    2  501    0 -0.61819520342E+02 -0.29941488868E+02  0.32899360460E+03  0.33608769349E+03  0.00000000000E+00 0. -1.
<scales pt_clust_5="13000.00000" pt_clust_6="13000.00000" pt_clust_7="13000.00000" pt_clust_8="13000.00000" pt_clust_9="235.67174" pt_clust_10="68.68876"></scales>
<clustering>
<clus scale="   68.689">  1 10  2 -1</clus>
<clus scale="   80.041">  5  6 -1 -1</clus>
<clus scale="   94.530">  7  8 -1 -1</clus>
<clus scale="  198.884">  2  5  1 -1</clus>
<clus scale="  235.672">  2  9  1 -1</clus>
<clus scale="   68.689">  1  5  2 -1</clus>
</clustering>
</event>
<event>
10    4  0.3738096E-005  0.2039133E+03  0.7546771E-02  0.1152310E+00
         21   -1    0    0  501  502  0.00000000000E+00  0.00000000000E+00  0.24398366732E+03  0.24398366732E+03  0.00000000000E+00 0. -1.
          2   -1    0    0  503    0 -0.00000000000E+00 -0.00000000000E+00 -0.17361297050E+04  0.17361297050E+04  0.00000000000E+00 0. -1.
         23    2    1    2    0    0  0.11857398557E+02 -0.14652098574E+03 -0.36919254058E+02  0.17550710528E+03  0.88491330200E+02 0.  0.
         24    2    1    2    0    0 -0.14057254142E+03  0.29383290724E+03 -0.12200624549E+04  0.12654009813E+04  0.81171625798E+02 0.  0.
        -11    1    4    4    0    0 -0.79270950418E+02  0.82996395561E+02 -0.36648144743E+03  0.38403246811E+03  0.00000000000E+00 0.  1.
         12    1    4    4    0    0 -0.61301591004E+02  0.21083651168E+03 -0.85358100748E+03  0.88136851319E+03  0.00000000000E+00 0. -1.
        -11    1    3    3    0    0 -0.31271268549E+02 -0.23637401664E+02  0.29448044503E+01  0.39310187831E+02  0.00000000000E+00 0. -1.
         11    1    3    3    0    0  0.43128667105E+02 -0.12288358407E+03 -0.39864058509E+02  0.13619691745E+03  0.00000000000E+00 0.  1.
         21    1    1    2  503  502 -0.49225863932E+02 -0.95705803894E+02 -0.31839730262E+03  0.33609467252E+03  0.00000000000E+00 0. -1.
          1    1    1    2  501    0  0.17794100680E+03 -0.51606117604E+02  0.83232973879E+02  0.20311061325E+03  0.00000000000E+00 0. -1.
<scales pt_clust_5="13000.00000" pt_clust_6="13000.00000" pt_clust_7="13000.00000" pt_clust_8="13000.00000" pt_clust_9="107.62336" pt_clust_10="187.06097"></scales>
<clustering>
<clus scale="   81.172">  5  6 -1 -1</clus>
<clus scale="   88.491">  7  8 -1 -1</clus>
<clus scale="  107.623">  2  9  1 -1</clus>
<clus scale="  177.572">  2  7  1 -1</clus>
<clus scale="  187.061">  1 10  2 -1</clus>
<clus scale="  187.061">  1  5  2 -1</clus>
</clustering>
</event>
<event>
10    4  0.3738096E-005  0.2452305E+03  0.7546771E-02  0.1117113E+00
         21   -1    0    0  501  502  0.00000000000E+00  0.00000000000E+00  0.57279720490E+03  0.57279720490E+03  0.00000000000E+00 0. -1.
          2   -1    0    0  503    0 -0.00000000000E+00 -0.00000000000E+00 -0.27223356691E+03  0.27223356691E+03  0.00000000000E+00 0. -1.
         23    2    1    2    0    0  0.10849812574E+03  0.20232274356E+03  0.13677292172E+02  0.24794351997E+03  0.92642241553E+02 0.  0.
         24    2    1    2    0    0  0.88128903265E+01 -0.26103428109E+03  0.71157502125E+02  0.28216513697E+03  0.79606604437E+02 0.  0.
        -11    1    4    4    0    0 -0.14351224550E+02 -0.20912770696E+03  0.80531502108E+02  0.22455662604E+03  0.00000000000E+00 0.  1.
         12    1    4    4    0    0  0.23164114877E+02 -0.51906574131E+02 -0.93739999831E+01  0.57608510932E+02  0.00000000000E+00 0. -1.
        -11    1    3    3    0    0  0.26356341879E+02  0.86960737786E+01 -0.20962086437E+02  0.34780562447E+02  0.00000000000E+00 0.  1.
         11    1    3    3    0    0  0.82141783866E+02  0.19362666978E+03  0.34639378609E+02  0.21316295752E+03  0.00000000000E+00 0. -1.
         21    1    1    2  503  502 -0.31123165731E+01 -0.47387638425E+02 -0.15457507481E+01  0.47514883303E+02  0.00000000000E+00 0.  1.
          1    1    1    2  501    0 -0.11419869950E+03  0.10609917596E+03  0.21727459444E+03  0.26740723157E+03  0.00000000000E+00 0. -1.
<scales pt_clust_5="13000.00000" pt_clust_6="13000.00000" pt_clust_7="13000.00000" pt_clust_8="13000.00000" pt_clust_9="47.48973" pt_clust_10="152.89157"></scales>
<clustering>
<clus scale="   47.490">  2  9  1 -1</clus>
<clus scale="   79.607">  5  6 -1 -1</clus>
<clus scale="   92.642">  7  8 -1 -1</clus>
<clus scale="  152.892">  1 10  2 -1</clus>
<clus scale="  240.609">  1  5  2 -1</clus>
<clus scale="  152.892">  1  5  2 -1</clus>
</clustering>
</event>
<event>
10    4  0.3738096E-005  0.9389836E+02  0.7546771E-02  0.1310651E+00
          2   -1    0    0  503    0 -0.00000000000E+00  0.00000000000E+00  0.21204717473E+03  0.21204717473E+03  0.00000000000E+00 0. -1.
         21   -1    0    0  501  502  0.00000000000E+00 -0.00000000000E+00 -0.16989309785E+03  0.16989309785E+03  0.00000000000E+00 0.  1.
         24    2    1    2    0    0 -0.82749570566E+01 -0.25927927101E+02  0.48780896635E+02  0.85017379477E+02  0.64090924620E+02 0.  0.
         23    2    1    2    0    0 -0.38985855381E+02 -0.17656362610E+02 -0.11546713765E+03  0.15285198964E+03  0.90550686361E+02 0.  0.
        -13    1    3    3    0    0  0.12798263407E+02 -0.41493212666E+02  0.29734885271E+02  0.52627422943E+02  0.00000000000E+00 0.  1.
         14    1    3    3    0    0 -0.21073220464E+02  0.15565285564E+02  0.19046011365E+02  0.32389956534E+02  0.00000000000E+00 0. -1.
        -11    1    4    4    0    0 -0.18893461662E+01 -0.27843368364E+02  0.32138175446E+01  0.28091838922E+02  0.00000000000E+00 0. -1.
         11    1    4    4    0    0 -0.37096509215E+02  0.10187005754E+02 -0.11868095520E+03  0.12476015072E+03  0.00000000000E+00 0.  1.
         21    1    1    2  503  502  0.25561818613E+02 -0.14721050320E+02  0.20097202529E+02  0.35693324906E+02  0.00000000000E+00 0. -1.
          1    1    1    2  501    0  0.21698993824E+02  0.58305340032E+02  0.88743115369E+02  0.10837757856E+03  0.00000000000E+00 0. -1.
<scales pt_clust_5="13000.00000" pt_clust_6="13000.00000" pt_clust_7="13000.00000" pt_clust_8="13000.00000" pt_clust_9="29.49773" pt_clust_10="61.60012"></scales>
<clustering>
<clus scale="   29.498">  1  9  2 -1</clus>
<clus scale="   61.600">  2 10  1 -1</clus>
<clus scale="   64.091">  5  6 -1 -1</clus>
<clus scale="   68.740">  1  5  2 -1</clus>
<clus scale="   90.551">  7  8 -1 -1</clus>
<clus scale="   61.600">  2  5  1 -1</clus>
</clustering>
</event>
<event>
10    4  0.3738096E-005  0.2252646E+03  0.7546771E-02  0.1152029E+00
          2   -1    0    0  502    0 -0.00000000000E+00  0.00000000000E+00  0.14441907375E+04  0.14441907375E+04  0.00000000000E+00 0. -1.
         21   -1    0    0  503  502  0.00000000000E+00 -0.00000000000E+00 -0.72238120652E+02  0.72238120652E+02  0.00000000000E+00 0. -1.
         24    2    1    2    0    0  0.50683408022E+02 -0.93675408396E+02  0.65322494620E+03  0.66654578572E+03  0.78971919963E+02 0.  0.
         23    2    1    2    0    0  0.17310983956E+03 -0.10271598485E+02  0.35390571260E+03  0.40487028392E+03  0.92726323669E+02 0.  0.
        -11    1    3    3    0    0 -0.68423704569E+01 -0.62091424707E+02  0.23304935627E+03  0.24127611882E+03  0.00000000000E+00 0.  1.
         12    1    3    3    0    0  0.57525778479E+02 -0.31583983689E+02  0.42017558993E+03  0.42526966690E+03  0.00000000000E+00 0. -1.
        -13    1    4    4    0    0  0.59870259239E+02  0.25157186339E+02  0.62057637549E+02  0.89824731249E+02  0.00000000000E+00 0.  1.
         13    1    4    4    0    0  0.11323958032E+03 -0.35428784824E+02  0.29184807506E+03  0.31504555267E+03  0.00000000000E+00 0. -1.
         21    1    1    2  503  501 -0.24971419629E+02 -0.69547671194E+01  0.52184647221E+02  0.58268155879E+02  0.00000000000E+00 0. -1.
          1    1    1    2  501    0 -0.19882182796E+03  0.11090177400E+03  0.31263731084E+03  0.38674463264E+03  0.00000000000E+00 0. -1.
<scales pt_clust_5="13000.00000" pt_clust_6="13000.00000" pt_clust_7="13000.00000" pt_clust_8="13000.00000" pt_clust_9="21.48192" pt_clust_10="214.93936"></scales>
<clustering>
<clus scale="   21.482">  9 10 -1 -1</clus>
<clus scale="   78.972">  5  6 -1 -1</clus>
<clus scale="   92.726">  7  8 -1 -1</clus>
<clus scale="  132.591">  1  5  2 -1</clus>
<clus scale="  214.939">  2  9  1 -1</clus>
<clus scale="  214.939">  2  5  1 -1</clus>
</clustering>
</event>
<event>
10    4  0.3738096E-005  0.1606988E+03  0.7546771E-02  0.1191156E+00
         21   -1    0    0  501  502  0.00000000000E+00  0.00000000000E+00  0.11927796180E+03  0.11927796180E+03  0.00000000000E+00 0. -1.
          2   -1    0    0  503    0 -0.00000000000E+00 -0.00000000000E+00 -0.55683091046E+03  0.55683091046E+03  0.00000000000E+00 0. -1.
         23    2    1    2    0    0  0.41804593715E+02 -0.11023227781E+03 -0.29583407253E+03  0.33381296918E+03  0.10007257766E+03 0.  0.
         24    2    1    2    0    0 -0.16349813244E+02  0.14122159268E+03 -0.16605022217E+03  0.23312065503E+03  0.81004375736E+02 0.  0.
        -11    1    4    4    0    0 -0.11611773151E+02  0.12677509268E+03 -0.90848847341E+02  0.15639779558E+03  0.00000000000E+00 0.  1.
         12    1    4    4    0    0 -0.47380400935E+01  0.14446499998E+02 -0.75201374825E+02  0.76722859447E+02  0.00000000000E+00 0. -1.
        -11    1    3    3    0    0  0.31482782509E+01 -0.86456269762E+02 -0.97482728395E+02  0.13033602945E+03  0.00000000000E+00 0.  1.
         11    1    3    3    0    0  0.38656315464E+02 -0.23776008043E+02 -0.19835134413E+03  0.20347693973E+03  0.00000000000E+00 0. -1.
         21    1    1    2  503  502 -0.16813786195E+02  0.23627882059E+02 -0.22506080476E+02  0.36708362470E+02  0.00000000000E+00 0. -1.
          1    1    1    2  501    0 -0.86409942750E+01 -0.54617196936E+02  0.46837426515E+02  0.72466885580E+02  0.00000000000E+00 0. -1.
<scales pt_clust_5="13000.00000" pt_clust_6="13000.00000" pt_clust_7="13000.00000" pt_clust_8="13000.00000" pt_clust_9="28.99966" pt_clust_10="45.58016"></scales>
<clustering>
<clus scale="   29.000">  1  9  2 -1</clus>
<clus scale="   45.580">  1 10  2 -1</clus>
<clus scale="   81.004">  5  6 -1 -1</clus>
<clus scale="  100.073">  7  8 -1 -1</clus>
<clus scale="  149.570">  1  5  2 -1</clus>
<clus scale="   29.000">  1  5  2 -1</clus>
</clustering>
</event>
<event>
10    4  0.3738096E-005  0.3769792E+03  0.7546771E-02  0.1052178E+00
         21   -1    0    0  501  502  0.00000000000E+00  0.00000000000E+00  0.55520468060E+03  0.55520468060E+03  0.00000000000E+00 0. -1.
          2   -1    0    0  503    0 -0.00000000000E+00 -0.00000000000E+00 -0.73915051814E+03  0.73915051814E+03  0.00000000000E+00 0. -1.
         24    2    1    2    0    0 -0.45504678267E+02  0.40553012113E+03 -0.39077307265E+03  0.57034556534E+03  0.77878846315E+02 0.  0.
         23    2    1    2    0    0  0.19128082476E+03 -0.23770561465E+03  0.27301957537E+03  0.41794251970E+03  0.83928231732E+02 0.  0.
        -11    1    3    3    0    0 -0.15103989261E+02  0.16415112875E+02 -0.80662016868E+01  0.23720245192E+02  0.00000000000E+00 0.  1.
         12    1    3    3    0    0 -0.30400689005E+02  0.38911500826E+03 -0.38270687096E+03  0.54662532015E+03  0.00000000000E+00 0. -1.
        -11    1    4    4    0    0  0.10184626032E+03 -0.17179015932E+03  0.13637731183E+03  0.24183318788E+03  0.00000000000E+00 0. -1.
         11    1    4    4    0    0  0.89434564442E+02 -0.65915455334E+02  0.13664226354E+03  0.17610933182E+03  0.00000000000E+00 0.  1.
         21    1    1    2  503  502  0.34871593114E+01 -0.21791875856E+02 -0.92956796899E+02  0.95540631269E+02  0.00000000000E+00 0. -1.
          1    1    1    2  501    0 -0.14926330580E+03 -0.14603263063E+03  0.26764456642E+02  0.21052648244E+03  0.00000000000E+00 0. -1.
<scales pt_clust_5="13000.00000" pt_clust_6="13000.00000" pt_clust_7="13000.00000" pt_clust_8="13000.00000" pt_clust_9="22.06912" pt_clust_10="210.65000"></scales>
<clustering>
<clus scale="   22.069">  2  9  1 -1</clus>
<clus scale="   77.879">  5  6 -1 -1</clus>
<clus scale="   83.928">  7  8 -1 -1</clus>
<clus scale="  210.650">  1 10  2 -1</clus>
<clus scale="  375.679">  2  5  1 -1</clus>
<clus scale="  210.650">  1  5  2 -1</clus>
</clustering>
</event>
<event>
10    4  0.3738096E-005  0.1100984E+03  0.7546771E-02  0.1265417E+00
          4   -1    0    0  503    0 -0.00000000000E+00  0.00000000000E+00  0.33004861644E+03  0.33004861644E+03  0.00000000000E+00 0. -1.
         21   -1    0    0  501  502  0.00000000000E+00 -0.00000000000E+00 -0.11692975325E+03  0.11692975325E+03  0.00000000000E+00 0.  1.
         23    2    1    2    0    0  0.33728922962E+02  0.49999466718E+01  0.19096306413E+03  0.21524380346E+03  0.93275738290E+02 0.  0.
         24    2    1    2    0    0 -0.35541249784E+02  0.67065475859E+02 -0.17205647026E+02  0.11221446203E+03  0.80839920274E+02 0.  0.
        -13    1    4    4    0    0  0.20658963167E+01  0.45974835680E+02 -0.42145698778E+02  0.62403632658E+02  0.00000000000E+00 0.  1.
         14    1    4    4    0    0 -0.37607146101E+02  0.21090640179E+02  0.24940051752E+02  0.49810829369E+02  0.00000000000E+00 0. -1.
        -11    1    3    3    0    0 -0.20676680616E+01  0.25532729405E+02  0.67857252664E+01  0.26499841310E+02  0.00000000000E+00 0.  1.
         11    1    3    3    0    0  0.35796591024E+02 -0.20532782733E+02  0.18417733886E+03  0.18874396215E+03  0.00000000000E+00 0. -1.
         21    1    1    2  503  502  0.31575647297E+02 -0.31660945765E+02  0.51181836086E+02  0.67963352876E+02  0.00000000000E+00 0. -1.
          3    1    1    2  501    0 -0.29763320475E+02 -0.40404476766E+02 -0.11820389996E+02  0.51556751334E+02  0.00000000000E+00 0. -1.
<scales pt_clust_5="13000.00000" pt_clust_6="13000.00000" pt_clust_7="13000.00000" pt_clust_8="13000.00000" pt_clust_9="44.71506" pt_clust_10="50.78420"></scales>
<clustering>
<clus scale="   44.715">  1  9  2 -1</clus>
<clus scale="   50.784">  2 10  1 -1</clus>
<clus scale="   80.840">  5  6 -1 -1</clus>
<clus scale="   93.276">  7  8 -1 -1</clus>
<clus scale="   99.782">  2  5  1 -1</clus>
<clus scale="   50.784">  2  5  1 -1</clus>
</clustering>
</event>
<event>
10    4  0.3738096E-005  0.1004092E+03  0.7546771E-02  0.1284106E+00
          2   -1    0    0  503    0 -0.00000000000E+00  0.00000000000E+00  0.93860180120E+03  0.93860180120E+03  0.00000000000E+00 0. -1.
         21   -1    0    0  501  502  0.00000000000E+00 -0.00000000000E+00 -0.26310039538E+02  0.26310039538E+02  0.00000000000E+00 0. -1.
         23    2    1    2    0    0  0.43910555256E+02  0.23360631459E+02  0.34101394323E+03  0.35663136077E+03  0.91769069121E+02 0.  0.
         24    2    1    2    0    0 -0.16558874590E+02 -0.32073731703E+02  0.27213178675E+03  0.28660618350E+03  0.82367921357E+02 0.  0.
        -13    1    4    4    0    0  0.20661269339E+02  0.17390910561E+02  0.10369849367E+03  0.10715740483E+03  0.00000000000E+00 0.  1.
         14    1    4    4    0    0 -0.37220143929E+02 -0.49464642264E+02  0.16843329307E+03  0.17944877866E+03  0.00000000000E+00 0. -1.
        -11    1    3    3    0    0 -0.55283962747E+01  0.46580939513E+02  0.11696188596E+03  0.12601757757E+03  0.00000000000E+00 0.  1.
         11    1    3    3    0    0  0.49438951531E+02 -0.23220308054E+02  0.22405205727E+03  0.23061378320E+03  0.00000000000E+00 0. -1.
         21    1    1    2  503  502  0.42037417677E+02  0.22004725592E+02  0.12855533640E+03  0.13703221136E+03  0.00000000000E+00 0. -1.
          1    1    1    2  501    0 -0.69389098343E+02 -0.13291625347E+02  0.17059069528E+03  0.18464208510E+03  0.00000000000E+00 0. -1.
<scales pt_clust_5="13000.00000" pt_clust_6="13000.00000" pt_clust_7="13000.00000" pt_clust_8="13000.00000" pt_clust_9="47.44842" pt_clust_10="56.35979"></scales>
<clustering>
<clus scale="   47.448">  2  9  1 -1</clus>
<clus scale="   56.360">  2 10  1 -1</clus>
<clus scale="   82.368">  5  6 -1 -1</clus>
<clus scale="   91.769">  7  8 -1 -1</clus>
<clus scale="   91.896">  2  5  1 -1</clus>
<clus scale="   47.448">  2  5  1 -1</clus>
</clustering>
</event>
<event>
10    4  0.3738096E-005  0.2539709E+03  0.7546771E-02  0.1145126E+00
         21   -1    0    0  501  502  0.00000000000E+00  0.00000000000E+00  0.29887619089E+03  0.29887619089E+03  0.00000000000E+00 0. -1.
          2   -1    0    0  503    0 -0.00000000000E+00 -0.00000000000E+00 -0.83567925449E+03  0.83567925449E+03  0.00000000000E+00 0. -1.
         24    2    1    2    0    0 -0.40379619696E+02  0.61260629701E+02 -0.13029657221E+03  0.16988167035E+03  0.80617657822E+02 0.  0.
         23    2    1    2    0    0 -0.15217543852E+03 -0.14705033001E+03 -0.26740514199E+03  0.35240051062E+03  0.88878829216E+02 0.  0.
        -13    1    3    3    0    0 -0.18399264708E+02  0.51805260647E+02 -0.22400322535E+02  0.59364066759E+02  0.00000000000E+00 0.  1.
         14    1    3    3    0    0 -0.21980354988E+02  0.94553690535E+01 -0.10789624967E+03  0.11051760359E+03  0.00000000000E+00 0. -1.
        -13    1    4    4    0    0 -0.92204334422E+02 -0.62612489274E+02 -0.76406252419E+02  0.13512911791E+03  0.00000000000E+00 0. -1.
         13    1    4    4    0    0 -0.59971104098E+02 -0.84437840739E+02 -0.19099888957E+03  0.21727139271E+03  0.00000000000E+00 0.  1.
         21    1    1    2  503  502  0.39275531984E+02 -0.10374118040E+03 -0.30023634146E+03  0.32007289897E+03  0.00000000000E+00 0. -1.
          1    1    1    2  501    0  0.15327952623E+03  0.18953088071E+03  0.16113499205E+03  0.29220036545E+03  0.00000000000E+00 0. -1.
<scales pt_clust_5="13000.00000" pt_clust_6="13000.00000" pt_clust_7="13000.00000" pt_clust_8="13000.00000" pt_clust_9="78.87658" pt_clust_10="237.91123"></scales>
<clustering>
<clus scale="   80.618">  5  6 -1 -1</clus>
<clus scale="   88.879">  7  8 -1 -1</clus>
<clus scale="  109.007">  2  5  1 -1</clus>
<clus scale="   78.877">  2  9  1 -1</clus>
<clus scale="  237.911">  1 10  2 -1</clus>
<clus scale="  237.911">  1  5  2 -1</clus>
</clustering>
</event>
<event>
10    4  0.3738096E-005  0.9653899E+02  0.7546771E-02  0.1292399E+00
         -3   -1    0    0    0  501 -0.00000000000E+00  0.00000000000E+00  0.13952334886E+03  0.13952334886E+03  0.00000000000E+00 0.  1.
         21   -1    0    0  503  502  0.00000000000E+00 -0.00000000000E+00 -0.13216381374E+03  0.13216381374E+03  0.00000000000E+00 0.  1.
         23    2    1    2    0    0 -0.16271122438E+02 -0.23925103354E+02  0.49682454394E+02  0.10631539127E+03  0.89428497419E+02 0.  0.
         24    2    1    2    0    0  0.32235281559E+02  0.12132873405E+01 -0.46844214047E+02  0.98702255887E+02  0.80667028483E+02 0.  0.
        -11    1    4    4    0    0 -0.25545303715E+02 -0.97132684906E+01 -0.90040446525E+01  0.28774692818E+02  0.00000000000E+00 0.  1.
         12    1    4    4    0    0  0.57780585274E+02  0.10926555831E+02 -0.37840169394E+02  0.69927563069E+02  0.00000000000E+00 0. -1.
        -13    1    3    3    0    0 -0.50194715027E+02 -0.28313814785E+02  0.19925060368E+02  0.60976959214E+02  0.00000000000E+00 0.  1.
         13    1    3    3    0    0  0.33923592589E+02  0.43887114307E+01  0.29757394026E+02  0.45338432057E+02  0.00000000000E+00 0. -1.
         21    1    1    2  503  501 -0.35519989817E+02  0.15438140718E+02  0.17066805497E+02  0.42323536186E+02  0.00000000000E+00 0.  1.
         -4    1    1    2    0  502  0.19555830696E+02  0.72736752954E+01 -0.12545510721E+02  0.24345979253E+02  0.00000000000E+00 0.  1.
<scales pt_clust_5="13000.00000" pt_clust_6="13000.00000" pt_clust_7="13000.00000" pt_clust_8="13000.00000" pt_clust_9="37.09500" pt_clust_10="20.86473"></scales>
<clustering>
<clus scale="   20.865">  2 10  1 -1</clus>
<clus scale="   37.095">  1  9  2 -1</clus>
<clus scale="   80.667">  5  6 -1 -1</clus>
<clus scale="   88.484">  2  5  1 -1</clus>
<clus scale="   89.428">  7  8 -1 -1</clus>
<clus scale="   20.865">  2  5  1 -1</clus>
</clustering>
</event>
<event>
10    4  0.3738096E-005  0.1349935E+03  0.7546771E-02  0.1223576E+00
         21   -1    0    0  503  502  0.00000000000E+00  0.00000000000E+00  0.22472694892E+03  0.22472694892E+03  0.00000000000E+00 0. -1.
         -1   -1    0    0    0  501 -0.00000000000E+00 -0.00000000000E+00 -0.43899032963E+03  0.43899032963E+03  0.00000000000E+00 0.  1.
         23    2    1    2    0    0 -0.13148529579E+02  0.52820981949E+02 -0.32234057162E+03  0.33998839436E+03  0.93411585067E+02 0.  0.
         24    2    1    2    0    0  0.70549835190E+02 -0.42319594174E+02  0.16102494858E+03  0.19758665385E+03  0.79644362133E+02 0.  0.
        -11    1    4    4    0    0  0.29664629220E+02  0.22777191798E+02  0.58736177295E+02  0.69632817092E+02  0.00000000000E+00 0.  1.
         12    1    4    4    0    0  0.40885205969E+02 -0.65096785972E+02  0.10228877129E+03  0.12795383676E+03  0.00000000000E+00 0. -1.
        -13    1    3    3    0    0 -0.32202947970E+02  0.69313651414E+02 -0.18189482589E+03  0.19729961940E+03  0.00000000000E+00 0.  1.
         13    1    3    3    0    0  0.19054418391E+02 -0.16492669465E+02 -0.14044574573E+03  0.14268877496E+03  0.00000000000E+00 0. -1.
         21    1    1    2  503  501 -0.82134770803E+02 -0.34809637809E+01 -0.57107374825E+02  0.10009740228E+03  0.00000000000E+00 0.  1.
         -2    1    1    2    0  502  0.24733465193E+02 -0.70204239942E+01  0.41596171577E+01  0.26044828055E+02  0.00000000000E+00 0.  1.
<scales pt_clust_5="13000.00000" pt_clust_6="13000.00000" pt_clust_7="13000.00000" pt_clust_8="13000.00000" pt_clust_9="79.70936" pt_clust_10="25.71052"></scales>
<clustering>
<clus scale="   25.711">  1 10  2 -1</clus>
<clus scale="   79.644">  5  6 -1 -1</clus>
<clus scale="   79.709">  2  9  1 -1</clus>
<clus scale="   93.412">  7  8 -1 -1</clus>
<clus scale="  125.860">  1  5  2 -1</clus>
<clus scale="   25.711">  1  5  2 -1</clus>
</clustering>
</event>
<event>
10    4  0.3738096E-005  0.1078295E+03  0.7546771E-02  0.1271364E+00
          4   -1    0    0  503    0 -0.00000000000E+00  0.00000000000E+00  0.22981475024E+03  0.22981475024E+03  0.00000000000E+00 0. -1.
         21   -1    0    0  501  502  0.00000000000E+00 -0.00000000000E+00 -0.19438158566E+03  0.19438158566E+03  0.00000000000E+00 0. -1.
         23    2    1    2    0    0  0.15877838223E+02  0.58056985291E+02  0.16591532012E+03  0.20114500908E+03  0.96481614512E+02 0.  0.
         24    2    1    2    0    0  0.12793956547E+02 -0.22243753547E+02 -0.70513999418E+02  0.11077150020E+03  0.81483932447E+02 0.  0.
        -11    1    4    4    0    0  0.15573005023E+01 -0.52474255913E+02 -0.36769177138E+02  0.64093253201E+02  0.00000000000E+00 0.  1.
         12    1    4    4    0    0  0.11236656045E+02  0.30230502366E+02 -0.33744822279E+02  0.46678247000E+02  0.00000000000E+00 0. -1.
        -11    1    3    3    0    0  0.18485112706E+02 -0.24725835339E+02  0.46774453111E+02  0.56043873785E+02  0.00000000000E+00 0.  1.
         11    1    3    3    0    0 -0.26072744823E+01  0.82782820631E+02  0.11914086701E+03  0.14510113529E+03  0.00000000000E+00 0. -1.
         21    1    1    2  503  502 -0.25053799548E+02 -0.45570420137E+01  0.15985626936E+02  0.30066588969E+02  0.00000000000E+00 0. -1.
          3    1    1    2  501    0 -0.36179952226E+01 -0.31256189730E+02 -0.75953783055E+02  0.82213237658E+02  0.00000000000E+00 0. -1.
<scales pt_clust_5="13000.00000" pt_clust_6="13000.00000" pt_clust_7="13000.00000" pt_clust_8="13000.00000" pt_clust_9="25.46487" pt_clust_10="31.57916"></scales>
<clustering>
<clus scale="   25.465">  1  9  2 -1</clus>
<clus scale="   31.579">  2 10  1 -1</clus>
<clus scale="   81.484">  5  6 -1 -1</clus>
<clus scale="   94.647">  2  5  1 -1</clus>
<clus scale="   96.482">  7  8 -1 -1</clus>
<clus scale="   31.579">  2  5  1 -1</clus>
</clustering>
</event>
<event>
10    4  0.3738096E-005  0.1482880E+03  0.7546771E-02  0.1205815E+00
         21   -1    0    0  501  502  0.00000000000E+00  0.00000000000E+00  0.56907847472E+03  0.56907847472E+03  0.00000000000E+00 0. -1.
          2   -1    0    0  503    0 -0.00000000000E+00 -0.00000000000E+00 -0.39893460633E+03  0.39893460633E+03  0.00000000000E+00 0. -1.
         24    2    1    2    0    0 -0.12340257787E+03  0.71910073973E+02 -0.17253640903E+03  0.23900355065E+03  0.83394423187E+02 0.  0.
         23    2    1    2    0    0  0.23495221229E+02 -0.70809201626E+02  0.12216975485E+02  0.12459138462E+03  0.99034287882E+02 0.  0.
        -11    1    3    3    0    0 -0.10405312945E+03  0.15382036577E+02 -0.11844919548E+03  0.15841045643E+03  0.00000000000E+00 0.  1.
         12    1    3    3    0    0 -0.19349448423E+02  0.56528037396E+02 -0.54087213549E+02  0.80593094218E+02  0.00000000000E+00 0. -1.
        -13    1    4    4    0    0 -0.24998647561E+02 -0.41162089009E+02 -0.27306949293E+02  0.55361714489E+02  0.00000000000E+00 0. -1.
         13    1    4    4    0    0  0.48493868790E+02 -0.29647112617E+02  0.39523924778E+02  0.69229670132E+02  0.00000000000E+00 0.  1.
         21    1    1    2  503  502  0.28196507138E+01 -0.22728722635E+02 -0.13067874661E+03  0.13267056975E+03  0.00000000000E+00 0.  1.
          1    1    1    2  501    0  0.97087705928E+02  0.21627850288E+02  0.46114204855E+03  0.47174757603E+03  0.00000000000E+00 0. -1.
<scales pt_clust_5="13000.00000" pt_clust_6="13000.00000" pt_clust_7="13000.00000" pt_clust_8="13000.00000" pt_clust_9="22.90295" pt_clust_10="99.42509"></scales>
<clustering>
<clus scale="   22.903">  2  9  1 -1</clus>
<clus scale="   83.394">  5  6 -1 -1</clus>
<clus scale="   99.034">  7  8 -1 -1</clus>
<clus scale="   99.425">  1 10  2 -1</clus>
<clus scale="  138.334">  2  5  1 -1</clus>
<clus scale="   99.425">  1  5  2 -1</clus>
</clustering>
</event>
<event>
10    4  0.3738096E-005  0.1097795E+03  0.7546771E-02  0.1264745E+00
          2   -1    0    0  503    0 -0.00000000000E+00  0.00000000000E+00  0.24083872685E+03  0.24083872685E+03  0.00000000000E+00 0. -1.
         21   -1    0    0  501  502  0.00000000000E+00 -0.00000000000E+00 -0.18544951267E+03  0.18544951267E+03  0.00000000000E+00 0.  1.
         23    2    1    2    0    0  0.13932115180E+02 -0.59582254937E+02  0.98472324112E+02  0.14729192567E+03  0.90851328079E+02 0.  0.
         24    2    1    2    0    0 -0.27049671825E+02  0.46929692417E+02 -0.27305280868E+02  0.10140262375E+03  0.81257817867E+02 0.  0.
        -13    1    4    4    0    0 -0.53034583895E+02  0.31959271278E+02 -0.34050345022E+02  0.70664617070E+02  0.00000000000E+00 0.  1.
         14    1    4    4    0    0  0.25984912070E+02  0.14970421139E+02  0.67450641539E+01  0.30738006682E+02  0.00000000000E+00 0. -1.
        -13    1    3    3    0    0  0.18326633620E+02 -0.28955796147E+02  0.10927341678E+03  0.11452066733E+03  0.00000000000E+00 0. -1.
         13    1    3    3    0    0 -0.43945184405E+01 -0.30626458790E+02 -0.10801092667E+02  0.32771258340E+02  0.00000000000E+00 0.  1.
         21    1    1    2  503  502 -0.72782799989E+02 -0.23866509216E+02  0.17371591011E+02  0.78541189262E+02  0.00000000000E+00 0.  1.
          1    1    1    2  501    0  0.85900356635E+02  0.36519071736E+02 -0.33149420084E+02  0.99052500838E+02  0.00000000000E+00 0. -1.
<scales pt_clust_5="13000.00000" pt_clust_6="13000.00000" pt_clust_7="13000.00000" pt_clust_8="13000.00000" pt_clust_9="76.59599" pt_clust_10="80.31046"></scales>
<clustering>
<clus scale="   76.596">  1  9  2 -1</clus>
<clus scale="   80.310">  2 10  1 -1</clus>
<clus scale="   81.258">  5  6 -1 -1</clus>
<clus scale="   90.851">  7  8 -1 -1</clus>
<clus scale="  101.982">  2  5  1 -1</clus>
<clus scale="   80.310">  2  5  1 -1</clus>
</clustering>
</event>
<event>
10    4  0.3738096E-005  0.2616485E+03  0.7546771E-02  0.1151665E+00
         -3   -1    0    0    0  501 -0.00000000000E+00  0.00000000000E+00  0.21118842143E+03  0.21118842143E+03  0.00000000000E+00 0.  1.
         21   -1    0    0  503  502  0.00000000000E+00 -0.00000000000E+00 -0.10145816409E+04  0.10145816409E+04  0.00000000000E+00 0.  1.
         24    2    1    2    0    0 -0.15400152787E+02 -0.15711947230E+02  0.10966404701E+02  0.83425379301E+02  0.79721401693E+02 0.  0.
         23    2    1    2    0    0  0.52614466817E+02 -0.20550966526E+03 -0.44768365158E+02  0.23534024772E+03  0.91533169090E+02 0.  0.
        -13    1    3    3    0    0 -0.21832275246E+02 -0.24675795241E+02  0.40318389078E+02  0.52068374384E+02  0.00000000000E+00 0.  1.
         14    1    3    3    0    0  0.64321224585E+01  0.89638480107E+01 -0.29351984377E+02  0.31357004917E+02  0.00000000000E+00 0. -1.
        -13    1    4    4    0    0  0.52249467590E+02 -0.12119294561E+03  0.13772446718E+02  0.13269294336E+03  0.00000000000E+00 0. -1.
         13    1    4    4    0    0  0.36499922709E+00 -0.84316719657E+02 -0.58540811876E+02  0.10264730436E+03  0.00000000000E+00 0.  1.
         21    1    1    2  503  501 -0.10167456243E+02 -0.29407523961E+02  0.44769127946E+02  0.54520220552E+02  0.00000000000E+00 0.  1.
         -4    1    1    2    0  502 -0.27046857787E+02  0.25062913646E+03 -0.81436038695E+03  0.85248421474E+03  0.00000000000E+00 0.  1.
<scales pt_clust_5="13000.00000" pt_clust_6="13000.00000" pt_clust_7="13000.00000" pt_clust_8="13000.00000" pt_clust_9="31.11559" pt_clust_10="245.11547"></scales>
<clustering>
<clus scale="   31.116">  1  9  2 -1</clus>
<clus scale="   79.721">  5  6 -1 -1</clus>
<clus scale="   85.344">  1  5  2 -1</clus>
<clus scale="   91.533">  7  8 -1 -1</clus>
<clus scale="  245.115">  2 10  1 -1</clus>
<clus scale="  245.115">  2  5  1 -1</clus>
</clustering>
</event>
<event>
10    4  0.3738096E-005  0.1975089E+03  0.7546771E-02  0.1157223E+00
         21   -1    0    0  501  502  0.00000000000E+00  0.00000000000E+00  0.16436840142E+03  0.16436840142E+03  0.00000000000E+00 0.  1.
          2   -1    0    0  503    0 -0.00000000000E+00 -0.00000000000E+00 -0.74135040379E+03  0.74135040379E+03  0.00000000000E+00 0. -1.
         23    2    1    2    0    0 -0.96853911152E+02 -0.11321575085E+03  0.83217933513E+01  0.17450787569E+03  0.90472427222E+02 0.  0.
         24    2    1    2    0    0 -0.10226370597E+03  0.13455375910E+03 -0.25559933585E+03  0.31675312312E+03  0.80243011346E+02 0.  0.
        -13    1    4    4    0    0 -0.60240508785E+02  0.45985516597E+02 -0.17184637572E+03  0.18781577006E+03  0.00000000000E+00 0.  1.
         14    1    4    4    0    0 -0.42023197189E+02  0.88568242507E+02 -0.83752960126E+02  0.12893735305E+03  0.00000000000E+00 0. -1.
        -13    1    3    3    0    0 -0.11250169737E+03 -0.81903620112E+02  0.95219522427E+01  0.13948298274E+03  0.00000000000E+00 0.  1.
         13    1    3    3    0    0  0.15647786221E+02 -0.31312130737E+02 -0.12001588915E+01  0.35024892951E+02  0.00000000000E+00 0. -1.
         21    1    1    2  503  502 -0.16514455267E+02  0.16885742759E+02 -0.74595105658E+02  0.78245033896E+02  0.00000000000E+00 0. -1.
          1    1    1    2  501    0  0.21563207239E+03 -0.38223751014E+02 -0.25510935421E+03  0.33621277250E+03  0.00000000000E+00 0. -1.
<scales pt_clust_5="13000.00000" pt_clust_6="13000.00000" pt_clust_7="13000.00000" pt_clust_8="13000.00000" pt_clust_9="23.61897" pt_clust_10="180.47399"></scales>
<clustering>
<clus scale="   23.619">  2  9  1 -1</clus>
<clus scale="   80.243">  5  6 -1 -1</clus>
<clus scale="   90.472">  7  8 -1 -1</clus>
<clus scale="  174.110">  2  7  1 -1</clus>
<clus scale="  180.474">  1 10  2 -1</clus>
<clus scale="  180.474">  1  5  2 -1</clus>
</clustering>
</event>
<event>
10    4  0.3738096E-005  0.1142699E+03  0.7546771E-02  0.1256810E+00
          2   -1    0    0  503    0 -0.00000000000E+00  0.00000000000E+00  0.19396932857E+03  0.19396932857E+03  0.00000000000E+00 0. -1.
         21   -1    0    0  501  502  0.00000000000E+00 -0.00000000000E+00 -0.19316262909E+03  0.19316262909E+03  0.00000000000E+00 0. -1.
         24    2    1    2    0    0 -0.34746290034E+02 -0.51518740710E+02  0.99466630881E+01  0.10187810836E+03  0.80116961636E+02 0.  0.
         23    2    1    2    0    0  0.64404661154E+02  0.37272492037E+02 -0.11456896911E+03  0.16423757302E+03  0.91163219920E+02 0.  0.
        -13    1    3    3    0    0 -0.54330740483E+02 -0.10673988227E+02 -0.58581723381E+00  0.55372435092E+02  0.00000000000E+00 0.  1.
         14    1    3    3    0    0  0.19584450449E+02 -0.40844752483E+02  0.10532480322E+02  0.46505673273E+02  0.00000000000E+00 0. -1.
        -11    1    4    4    0    0 -0.19909316131E+02  0.25708930783E+02 -0.33991942582E+02  0.47040218445E+02  0.00000000000E+00 0.  1.
         11    1    4    4    0    0  0.84313977285E+02  0.11563561254E+02 -0.80577026532E+02  0.11719735457E+03  0.00000000000E+00 0. -1.
         21    1    1    2  503  502 -0.23092083728E+02 -0.10947116613E+02  0.22338669297E+02  0.33942596233E+02  0.00000000000E+00 0. -1.
          1    1    1    2  501    0 -0.65662873916E+01  0.25193365286E+02  0.83090336207E+02  0.87073680040E+02  0.00000000000E+00 0. -1.
<scales pt_clust_5="13000.00000" pt_clust_6="13000.00000" pt_clust_7="13000.00000" pt_clust_8="13000.00000" pt_clust_9="25.55550" pt_clust_10="26.87620"></scales>
<clustering>
<clus scale="   25.556">  1  9  2 -1</clus>
<clus scale="   26.876">  2 10  1 -1</clus>
<clus scale="   80.117">  5  6 -1 -1</clus>
<clus scale="   91.163">  7  8 -1 -1</clus>
<clus scale="  105.667">  1  5  2 -1</clus>
<clus scale="   26.876">  2  5  1 -1</clus>
</clustering>
</event>
<event>
10    4  0.3738096E-005  0.1162802E+03  0.7546771E-02  0.1255864E+00
          2   -1    0    0  503    0 -0.00000000000E+00  0.00000000000E+00  0.49435166681E+03  0.49435166681E+03  0.00000000000E+00 0. -1.
         21   -1    0    0  501  502  0.00000000000E+00 -0.00000000000E+00 -0.76043402593E+02  0.76043402593E+02  0.00000000000E+00 0.  1.
         23    2    1    2    0    0 -0.12729083030E+02  0.51825986005E+02  0.19613425392E+03  0.22475583149E+03  0.95909206291E+02 0.  0.
         24    2    1    2    0    0  0.42406562536E+02 -0.47775802046E+02  0.45345579682E+02  0.11069691907E+03  0.78209606111E+02 0.  0.
        -13    1    4    4    0    0  0.15020997158E+02 -0.61356156486E+02  0.99799238219E+01  0.63951600245E+02  0.00000000000E+00 0.  1.
         14    1    4    4    0    0  0.27385565377E+02  0.13580354441E+02  0.35365655860E+02  0.46745318826E+02  0.00000000000E+00 0. -1.
        -11    1    3    3    0    0 -0.29345284765E+02  0.22601520506E+02  0.14083737323E+02  0.39627340614E+02  0.00000000000E+00 0.  1.
         11    1    3    3    0    0  0.16616201735E+02  0.29224465499E+02  0.18205051659E+03  0.18512849088E+03  0.00000000000E+00 0. -1.
         21    1    1    2  503  502 -0.15830765446E+02  0.25262426280E+02  0.19534601313E+03  0.19760786462E+03  0.00000000000E+00 0. -1.
          1    1    1    2  501    0 -0.13846714060E+02 -0.29312610240E+02 -0.18517582510E+02  0.37334454212E+02  0.00000000000E+00 0. -1.
<scales pt_clust_5="13000.00000" pt_clust_6="13000.00000" pt_clust_7="13000.00000" pt_clust_8="13000.00000" pt_clust_9="29.81280" pt_clust_10="31.92047"></scales>
<clustering>
<clus scale="   29.813">  1  9  2 -1</clus>
<clus scale="   31.920">  2 10  1 -1</clus>
<clus scale="   78.210">  5  6 -1 -1</clus>
<clus scale="   95.909">  7  8 -1 -1</clus>
<clus scale="  102.173">  2  5  1 -1</clus>
<clus scale="   31.920">  2  5  1 -1</clus>
</clustering>
</event>
<event>
10    4  0.3738096E-005  0.1300547E+03  0.7546771E-02  0.1241062E+00
         21   -1    0    0  503  502  0.00000000000E+00  0.00000000000E+00  0.46176270111E+03  0.46176270111E+03  0.00000000000E+00 0.  1.
         -3   -1    0    0    0  501 -0.00000000000E+00 -0.00000000000E+00 -0.26891875318E+03  0.26891875318E+03  0.00000000000E+00 0.  1.
         23    2    1    2    0    0 -0.20514228725E+02  0.31805170099E+02  0.18599929422E+03  0.21059247865E+03  0.91219801519E+02 0.  0.
         24    2    1    2    0    0 -0.10231320765E+03  0.17273770491E+02 -0.19210643437E+03  0.23275760732E+03  0.80652625712E+02 0.  0.
        -11    1    4    4    0    0 -0.10910561465E+03  0.33189444141E+02 -0.16935283252E+03  0.20417138936E+03  0.00000000000E+00 0.  1.
         12    1    4    4    0    0  0.67924069950E+01 -0.15915673649E+02 -0.22753601847E+02  0.28586217964E+02  0.00000000000E+00 0. -1.
        -13    1    3    3    0    0  0.22705313581E+02 -0.16342021487E+02  0.94326386095E+02  0.98387296156E+02  0.00000000000E+00 0. -1.
         13    1    3    3    0    0 -0.43219542306E+02  0.48147191587E+02  0.91672908122E+02  0.11220518249E+03  0.00000000000E+00 0.  1.
         21    1    1    2  503  501  0.26618774763E+02 -0.15163593204E+02 -0.26096178760E+02  0.40243064926E+02  0.00000000000E+00 0.  1.
         -4    1    1    2    0  502  0.96208661614E+02 -0.33915347386E+02  0.22504726685E+03  0.24708830339E+03  0.00000000000E+00 0.  1.
<scales pt_clust_5="13000.00000" pt_clust_6="13000.00000" pt_clust_7="13000.00000" pt_clust_8="13000.00000" pt_clust_9="30.63485" pt_clust_10="102.02637"></scales>
<clustering>
<clus scale="   30.635">  2  9  1 -1</clus>
<clus scale="   80.653">  5  6 -1 -1</clus>
<clus scale="   91.220">  7  8 -1 -1</clus>
<clus scale="   98.228">  2  7  1 -1</clus>
<clus scale="  102.026">  1 10  2 -1</clus>
<clus scale="  102.026">  1  5  2 -1</clus>
</clustering>
</event>
<event>
10    4  0.3738096E-005  0.1148195E+03  0.7546771E-02  0.1254328E+00
          2   -1    0    0  503    0 -0.00000000000E+00  0.00000000000E+00  0.37519632242E+03  0.37519632242E+03  0.00000000000E+00 0. -1.
         21   -1    0    0  501  502  0.00000000000E+00 -0.00000000000E+00 -0.13453585229E+03  0.13453585229E+03  0.00000000000E+00 0.  1.
         23    2    1    2    0    0 -0.52491539461E+02 -0.70082053693E+02  0.14185140006E+03  0.19056504735E+03  0.92338299795E+02 0.  0.
         24    2    1    2    0    0  0.48675045066E+02 -0.17874611528E+02 -0.60257344094E+02  0.11675279949E+03  0.85507350105E+02 0.  0.
        -11    1    4    4    0    0  0.54648319386E+02 -0.45700742459E+02 -0.38878597308E+02  0.81157513525E+02  0.00000000000E+00 0.  1.
         12    1    4    4    0    0 -0.59732743201E+01  0.27826130931E+02 -0.21378746787E+02  0.35595285964E+02  0.00000000000E+00 0. -1.
        -11    1    3    3    0    0 -0.19416331273E+02 -0.77104546556E+02  0.53156626175E+02  0.95643776201E+02  0.00000000000E+00 0. -1.
         11    1    3    3    0    0 -0.33075208188E+02  0.70224928627E+01  0.88694773884E+02  0.94921271151E+02  0.00000000000E+00 0.  1.
         21    1    1    2  503  502 -0.19288028640E+02  0.39650529451E+02  0.13799861202E+03  0.14487169998E+03  0.00000000000E+00 0. -1.
          1    1    1    2  501    0  0.23104523035E+02  0.48306135770E+02  0.21067802138E+02  0.57542627891E+02  0.00000000000E+00 0. -1.
<scales pt_clust_5="13000.00000" pt_clust_6="13000.00000" pt_clust_7="13000.00000" pt_clust_8="13000.00000" pt_clust_9="44.09300" pt_clust_10="58.45095"></scales>
<clustering>
<clus scale="   44.093">  1  9  2 -1</clus>
<clus scale="   58.451">  2 10  1 -1</clus>
<clus scale="   85.507">  5  6 -1 -1</clus>
<clus scale="   92.338">  7  8 -1 -1</clus>
<clus scale="  109.401">  2  5  1 -1</clus>
<clus scale="   58.451">  2  5  1 -1</clus>
</clustering>
</event>
<event>
10    4  0.3738096E-005  0.1012408E+03  0.7546771E-02  0.1283986E+00
         21   -1    0    0  503  502  0.00000000000E+00  0.00000000000E+00  0.17356850590E+03  0.17356850590E+03  0.00000000000E+00 0.  1.
         -3   -1    0    0    0  501 -0.00000000000E+00 -0.00000000000E+00 -0.16956941119E+03  0.16956941119E+03  0.00000000000E+00 0.  1.
         24    2    1    2    0    0 -0.43700692213E+02  0.13158456204E+02 -0.73594290875E+02  0.11692371991E+03  0.78562975751E+02 0.  0.
         23    2    1    2    0    0  0.33323174071E+01 -0.40302921784E+02  0.22223899106E+02  0.10235815945E+03  0.91366631062E+02 0.  0.
        -11    1    3    3    0    0 -0.60862832934E+02  0.23167490944E+02 -0.71862854367E+02  0.96980858458E+02  0.00000000000E+00 0.  1.
         12    1    3    3    0    0  0.17162140722E+02 -0.10009034739E+02 -0.17314365084E+01  0.19942861453E+02  0.00000000000E+00 0. -1.
        -11    1    4    4    0    0 -0.12363922755E+02 -0.64137088489E+02  0.31274364165E+02  0.72419048320E+02  0.00000000000E+00 0.  1.
         11    1    4    4    0    0  0.15696240162E+02  0.23834166705E+02 -0.90504650583E+01  0.29939111134E+02  0.00000000000E+00 0. -1.
         21    1    1    2  503  501 -0.23288114515E+02 -0.66940199122E+01 -0.10308551919E+02  0.26332725323E+02  0.00000000000E+00 0.  1.
         -4    1    1    2    0  502  0.63656489321E+02  0.33838485492E+02  0.65678038404E+02  0.97523312401E+02  0.00000000000E+00 0.  1.
<scales pt_clust_5="13000.00000" pt_clust_6="13000.00000" pt_clust_7="13000.00000" pt_clust_8="13000.00000" pt_clust_9="24.23110" pt_clust_10="69.59799"></scales>
<clustering>
<clus scale="   24.231">  2  9  1 -1</clus>
<clus scale="   69.598">  1 10  2 -1</clus>
<clus scale="   78.563">  5  6 -1 -1</clus>
<clus scale="   89.855">  2  5  1 -1</clus>
<clus scale="   91.367">  7  8 -1 -1</clus>
<clus scale="   69.598">  1  5  2 -1</clus>
</clustering>
</event>
<event>
10    4  0.3738096E-005  0.1401910E+03  0.7546771E-02  0.1215023E+00
         21   -1    0    0  501  502  0.00000000000E+00  0.00000000000E+00  0.92299608029E+02  0.92299608029E+02  0.00000000000E+00 0. -1.
          2   -1    0    0  503    0 -0.00000000000E+00 -0.00000000000E+00 -0.88646842964E+03  0.88646842964E+03  0.00000000000E+00 0. -1.
         24    2    1    2    0    0  0.16654904053E+02  0.10032366469E+03 -0.62582921018E+03  0.63893374360E+03  0.78942414952E+02 0.  0.
         23    2    1    2    0    0 -0.14379975518E+02 -0.10682466286E+03  0.19445721140E+02  0.14067485749E+03  0.88277897387E+02 0.  0.
        -11    1    3    3    0    0 -0.18743650571E+02  0.69320059253E+02 -0.24805003508E+03  0.25823519310E+03  0.00000000000E+00 0.  1.
         12    1    3    3    0    0  0.35398554624E+02  0.31003605439E+02 -0.37777917510E+03  0.38069855050E+03  0.00000000000E+00 0. -1.
        -13    1    4    4    0    0 -0.39119622026E+02 -0.79679765396E+02  0.41337191508E+02  0.97918196688E+02  0.00000000000E+00 0. -1.
         13    1    4    4    0    0  0.24739646508E+02 -0.27144897467E+02 -0.21891470368E+02  0.42756660799E+02  0.00000000000E+00 0.  1.
         21    1    1    2  503  502 -0.32844616283E+02  0.11050283325E+02 -0.83921919077E+02  0.90795187548E+02  0.00000000000E+00 0. -1.
          1    1    1    2  501    0  0.30569687748E+02 -0.45492851548E+01 -0.10386341349E+03  0.10836424903E+03  0.00000000000E+00 0. -1.
<scales pt_clust_5="13000.00000" pt_clust_6="13000.00000" pt_clust_7="13000.00000" pt_clust_8="13000.00000" pt_clust_9="33.49320" pt_clust_10="30.90635"></scales>
<clustering>
<clus scale="   30.906">  1 10  2 -1</clus>
<clus scale="   33.493">  2  9  1 -1</clus>
<clus scale="   78.942">  5  6 -1 -1</clus>
<clus scale="   88.278">  7  8 -1 -1</clus>
<clus scale="  134.508">  2  5  1 -1</clus>
<clus scale="   30.906">  1  5  2 -1</clus>
</clustering>
</event>
<event>
10    4  0.3738096E-005  0.2302435E+03  0.7546771E-02  0.1127296E+00
         21   -1    0    0  501  502  0.00000000000E+00  0.00000000000E+00  0.79304672121E+02  0.79304672121E+02  0.00000000000E+00 0.  1.
          2   -1    0    0  503    0 -0.00000000000E+00 -0.00000000000E+00 -0.14892180345E+04  0.14892180345E+04  0.00000000000E+00 0. -1.
         24    2    1    2    0    0 -0.21002222470E+03 -0.10637404045E+03 -0.99584181173E+03  0.10263762390E+04  0.79514141016E+02 0.  0.
         23    2    1    2    0    0  0.16354362709E+03  0.88274990669E+02 -0.26484362235E+03  0.33634474226E+03  0.91905654921E+02 0.  0.
        -13    1    3    3    0    0 -0.16800515996E+03 -0.46803917732E+02 -0.65455933116E+03  0.67739520112E+03  0.00000000000E+00 0.  1.
         14    1    3    3    0    0 -0.42017064745E+02 -0.59570122722E+02 -0.34128248057E+03  0.34898103787E+03  0.00000000000E+00 0. -1.
        -13    1    4    4    0    0  0.10157783392E+03  0.10025838113E+03 -0.16429973968E+03  0.21763318632E+03  0.00000000000E+00 0. -1.
         13    1    4    4    0    0  0.61965793166E+02 -0.11983390461E+02 -0.10054388267E+03  0.11871155593E+03  0.00000000000E+00 0.  1.
         21    1    1    2  503  502  0.15037368508E+02  0.18673843553E+02 -0.16765053070E+03  0.16935623793E+03  0.00000000000E+00 0.  1.
          1    1    1    2  501    0  0.31441229108E+02 -0.57479376942E+00  0.18422602397E+02  0.36445487440E+02  0.00000000000E+00 0. -1.
<scales pt_clust_5="13000.00000" pt_clust_6="13000.00000" pt_clust_7="13000.00000" pt_clust_8="13000.00000" pt_clust_9="23.97571" pt_clust_10="31.54700"></scales>
<clustering>
<clus scale="   23.976">  2  9  1 -1</clus>
<clus scale="   31.547">  1 10  2 -1</clus>
<clus scale="   79.514">  5  6 -1 -1</clus>
<clus scale="   91.906">  7  8 -1 -1</clus>
<clus scale="  225.584">  2  5  1 -1</clus>
<clus scale="   31.547">  1  5  2 -1</clus>
</clustering>
</event>
<event>
10    4  0.3738096E-005  0.2445388E+03  0.7546771E-02  0.1117517E+00
          2   -1    0    0  502    0 -0.00000000000E+00  0.00000000000E+00  0.19095501318E+04  0.19095501318E+04  0.00000000000E+00 0. -1.
         21   -1    0    0  503  502  0.00000000000E+00 -0.00000000000E+00 -0.10290958686E+03  0.10290958686E+03  0.00000000000E+00 0. -1.
         24    2    1    2    0    0 -0.21788600815E+03 -0.92989190080E+01  0.11373632199E+04  0.11608142858E+04  0.79585988577E+02 0.  0.
         23    2    1    2    0    0  0.28729769764E+03 -0.26945200849E+02  0.19847702523E+03  0.36206810984E+03  0.91837768368E+02 0.  0.
        -11    1    3    3    0    0 -0.75386923734E+01 -0.20055256002E+02  0.95325569388E+02  0.97703681380E+02  0.00000000000E+00 0.  1.
         12    1    3    3    0    0 -0.21034731577E+03  0.10756336994E+02  0.10420376505E+04  0.10631106044E+04  0.00000000000E+00 0. -1.
        -11    1    4    4    0    0  0.14114837336E+03  0.13083107260E+02  0.14118275740E+03  0.20006649391E+03  0.00000000000E+00 0.  1.
         11    1    4    4    0    0  0.14614932427E+03 -0.40028308109E+02  0.57294267830E+02  0.16200161592E+03  0.00000000000E+00 0. -1.
         21    1    1    2  503  501  0.62476334281E+01 -0.27431941535E+02  0.50578858800E+02  0.57877156957E+02  0.00000000000E+00 0. -1.
          1    1    1    2  501    0 -0.75659322920E+02  0.63676061392E+02  0.42022144104E+03  0.43170016615E+03  0.00000000000E+00 0. -1.
<scales pt_clust_5="13000.00000" pt_clust_6="13000.00000" pt_clust_7="13000.00000" pt_clust_8="13000.00000" pt_clust_9="28.13440" pt_clust_10="97.59594"></scales>
<clustering>
<clus scale="   28.134">  2  9  1 -1</clus>
<clus scale="   79.586">  5  6 -1 -1</clus>
<clus scale="   91.838">  7  8 -1 -1</clus>
<clus scale="   97.596">  2 10  1 -1</clus>
<clus scale="  240.206">  1  5  2 -1</clus>
<clus scale="   28.134">  2  5  1 -1</clus>
</clustering>
</event>
<event>
10    4  0.3738096E-005  0.1888331E+03  0.7546771E-02  0.1160501E+00
          2   -1    0    0  503    0 -0.00000000000E+00  0.00000000000E+00  0.16028320741E+04  0.16028320741E+04  0.00000000000E+00 0. -1.
         21   -1    0    0  501  502  0.00000000000E+00 -0.00000000000E+00 -0.10999525908E+03  0.10999525908E+03  0.00000000000E+00 0.  1.
         24    2    1    2    0    0 -0.64971238968E+02  0.15161138404E+03  0.14420839438E+04  0.14538212009E+04  0.82357205605E+02 0.  0.
         23    2    1    2    0    0  0.39668248903E+02 -0.16622356357E+03  0.13379629497E+02  0.19432127362E+03  0.91530868225E+02 0.  0.
        -11    1    3    3    0    0 -0.38060654873E+02  0.31603588947E+02  0.21642652851E+03  0.22200865417E+03  0.00000000000E+00 0.  1.
         12    1    3    3    0    0 -0.26910584094E+02  0.12000779509E+03  0.12256574153E+04  0.12318125467E+04  0.00000000000E+00 0. -1.
        -13    1    4    4    0    0  0.11199718508E+02 -0.79462465170E+02 -0.38817169433E+02  0.89143085589E+02  0.00000000000E+00 0.  1.
         13    1    4    4    0    0  0.28468530395E+02 -0.86761098404E+02  0.52196798931E+02  0.10517818803E+03  0.00000000000E+00 0. -1.
         21    1    1    2  503  502  0.16870795236E+02 -0.13717338737E+02  0.23554723516E+02  0.32056420790E+02  0.00000000000E+00 0.  1.
          1    1    1    2  501    0  0.84321948285E+01  0.28329518272E+02  0.13818518121E+02  0.32628437875E+02  0.00000000000E+00 0. -1.
<scales pt_clust_5="13000.00000" pt_clust_6="13000.00000" pt_clust_7="13000.00000" pt_clust_8="13000.00000" pt_clust_9="21.74371" pt_clust_10="28.87184"></scales>
<clustering>
<clus scale="   21.744">  2  9  1 -1</clus>
<clus scale="   28.872">  2 10  1 -1</clus>
<clus scale="   82.357">  5  6 -1 -1</clus>
<clus scale="   91.531">  7  8 -1 -1</clus>
<clus scale="  184.561">  1  5  2 -1</clus>
<clus scale="   21.744">  2  5  1 -1</clus>
</clustering>
</event>
<event>
10    4  0.3738096E-005  0.5162134E+03  0.7546771E-02  0.1054560E+00
          2   -1    0    0  503    0 -0.00000000000E+00  0.00000000000E+00  0.19757076281E+04  0.19757076281E+04  0.00000000000E+00 0. -1.
         21   -1    0    0  501  502  0.00000000000E+00 -0.00000000000E+00 -0.21406887385E+03  0.21406887385E+03  0.00000000000E+00 0. -1.
         23    2    1    2    0    0  0.54031951952E+02 -0.96910641107E+02  0.22652312998E+03  0.26763547889E+03  0.89470089726E+02 0.  0.
         24    2    1    2    0    0 -0.40514379460E+02  0.53273204359E+03  0.57737265070E+03  0.79077399366E+03  0.80743334416E+02 0.  0.
        -13    1    4    4    0    0 -0.22170728474E+02  0.33884322338E+02  0.33599220741E+02  0.52617450867E+02  0.00000000000E+00 0.  1.
         14    1    4    4    0    0 -0.18343650987E+02  0.49884772126E+03  0.54377342996E+03  0.73815654279E+03  0.00000000000E+00 0. -1.
        -13    1    3    3    0    0  0.10324352128E+02 -0.76464554661E+02  0.71200645026E+02  0.10499024821E+03  0.00000000000E+00 0.  1.
         13    1    3    3    0    0  0.43707599824E+02 -0.20446086446E+02  0.15532248495E+03  0.16264523068E+03  0.00000000000E+00 0. -1.
         21    1    1    2  503  502 -0.12245007545E+02  0.50027404140E+02  0.34769679282E+03  0.35149074115E+03  0.00000000000E+00 0. -1.
          1    1    1    2  501    0 -0.12725649466E+01 -0.48584880663E+03  0.61004618074E+03  0.77987628824E+03  0.00000000000E+00 0. -1.
<scales pt_clust_5="13000.00000" pt_clust_6="13000.00000" pt_clust_7="13000.00000" pt_clust_8="13000.00000" pt_clust_9="51.50419" pt_clust_10="509.85981"></scales>
<clustering>
<clus scale="   51.504">  1  9  2 -1</clus>
<clus scale="   80.743">  5  6 -1 -1</clus>
<clus scale="   89.470">  7  8 -1 -1</clus>
<clus scale="  136.759">  1  7  2 -1</clus>
<clus scale="  509.860">  2 10  1 -1</clus>
<clus scale="  509.860">  2  5  1 -1</clus>
</clustering>
</event>
<event>
10    4  0.3738096E-005  0.2559642E+03  0.7546771E-02  0.1146387E+00
          2   -1    0    0  503    0 -0.00000000000E+00  0.00000000000E+00  0.16485457262E+04  0.16485457262E+04  0.00000000000E+00 0. -1.
         21   -1    0    0  501  502  0.00000000000E+00 -0.00000000000E+00 -0.10500020203E+03  0.10500020203E+03  0.00000000000E+00 0. -1.
         23    2    1    2    0    0  0.33868769026E+01  0.49197180342E+02  0.18659048514E+03  0.21328794019E+03  0.90795940409E+02 0.  0.
         24    2    1    2    0    0  0.25529993338E+03 -0.54985609799E+02  0.25871773001E+03  0.37608951958E+03  0.79416557751E+02 0.  0.
        -11    1    4    4    0    0  0.13923091541E+03 -0.50264954219E+02  0.97010266042E+02  0.17698249955E+03  0.00000000000E+00 0.  1.
         12    1    4    4    0    0  0.11606901797E+03 -0.47206555803E+01  0.16170746397E+03  0.19910702003E+03  0.00000000000E+00 0. -1.
        -13    1    3    3    0    0  0.23853592537E+02  0.17602934518E+02  0.16927676708E+03  0.17185307985E+03  0.00000000000E+00 0.  1.
         13    1    3    3    0    0 -0.20466715634E+02  0.31594245824E+02  0.17313718061E+02  0.41434860336E+02  0.00000000000E+00 0. -1.
         21    1    1    2  503  502 -0.61106871579E+02 -0.98788126942E+02  0.68082499656E+03  0.69066331864E+03  0.00000000000E+00 0.  1.
          1    1    1    2  501    0 -0.19757993870E+03  0.10457655640E+03  0.41741231245E+03  0.47350514982E+03  0.00000000000E+00 0. -1.
<scales pt_clust_5="13000.00000" pt_clust_6="13000.00000" pt_clust_7="13000.00000" pt_clust_8="13000.00000" pt_clust_9="96.12901" pt_clust_10="243.33260"></scales>
<clustering>
<clus scale="   79.417">  5  6 -1 -1</clus>
<clus scale="   90.796">  7  8 -1 -1</clus>
<clus scale="  103.324">  1  7  2 -1</clus>
<clus scale="   96.129">  1  9  2 -1</clus>
<clus scale="  243.333">  2 10  1 -1</clus>
<clus scale="  243.333">  2  5  1 -1</clus>
</clustering>
</event>
<event>
10    4  0.3738096E-005  0.8909130E+02  0.7546771E-02  0.1309933E+00
          2   -1    0    0  503    0 -0.00000000000E+00  0.00000000000E+00  0.69910444031E+03  0.69910444031E+03  0.00000000000E+00 0. -1.
         21   -1    0    0  501  502  0.00000000000E+00 -0.00000000000E+00 -0.45043346994E+02  0.45043346994E+02  0.00000000000E+00 0. -1.
         24    2    1    2    0    0 -0.43095016647E+02  0.19551195422E+02  0.24017393093E+03  0.25719987742E+03  0.78922937999E+02 0.  0.
         23    2    1    2    0    0 -0.16809192379E+02 -0.19174796102E+02  0.19130287149E+03  0.21157861365E+03  0.86709280699E+02 0.  0.
        -13    1    3    3    0    0 -0.32080677788E+02 -0.95882181085E+01  0.30714403845E+02  0.45436531749E+02  0.00000000000E+00 0.  1.
         14    1    3    3    0    0 -0.11014338859E+02  0.29139413531E+02  0.20945952708E+03  0.21176334567E+03  0.00000000000E+00 0. -1.
        -11    1    4    4    0    0 -0.40322764907E+02 -0.37693689360E+02  0.15496088398E+03  0.16449807036E+03  0.00000000000E+00 0. -1.
         11    1    4    4    0    0  0.23513572528E+02  0.18518893258E+02  0.36341987509E+02  0.47080543291E+02  0.00000000000E+00 0.  1.
         21    1    1    2  503  502  0.35306180662E+02 -0.30758577098E+02  0.23073394142E+03  0.23543739759E+03  0.00000000000E+00 0.  1.
          1    1    1    2  501    0  0.24598028364E+02  0.30382177778E+02 -0.81496505292E+01  0.39931898649E+02  0.00000000000E+00 0. -1.
<scales pt_clust_5="13000.00000" pt_clust_6="13000.00000" pt_clust_7="13000.00000" pt_clust_8="13000.00000" pt_clust_9="46.87200" pt_clust_10="39.09143"></scales>
<clustering>
<clus scale="   39.091">  2 10  1 -1</clus>
<clus scale="   46.872">  1  9  2 -1</clus>
<clus scale="   78.923">  5  6 -1 -1</clus>
<clus scale="   81.533">  1  5  2 -1</clus>
<clus scale="   86.709">  7  8 -1 -1</clus>
<clus scale="   39.091">  2  5  1 -1</clus>
</clustering>
</event>
<event>
10    4  0.3738096E-005  0.2210445E+03  0.7546771E-02  0.1176051E+00
         21   -1    0    0  501  502  0.00000000000E+00  0.00000000000E+00  0.16219641498E+03  0.16219641498E+03  0.00000000000E+00 0. -1.
          2   -1    0    0  503    0 -0.00000000000E+00 -0.00000000000E+00 -0.45907440129E+03  0.45907440129E+03  0.00000000000E+00 0. -1.
         23    2    1    2    0    0 -0.24508751522E+02  0.24531342202E+02 -0.69613987487E+02  0.10506647661E+03  0.70642703812E+02 0.  0.
         24    2    1    2    0    0 -0.17619616698E+03  0.55988067366E+02 -0.86494002901E+02  0.21979851139E+03  0.81550108070E+02 0.  0.
        -11    1    4    4    0    0 -0.73221425380E+02  0.29702459286E+02 -0.81333784550E+02  0.11339663898E+03  0.00000000000E+00 0.  1.
         12    1    4    4    0    0 -0.10297474160E+03  0.26285608080E+02 -0.51602183509E+01  0.10640187241E+03  0.00000000000E+00 0. -1.
        -11    1    3    3    0    0  0.18285590986E+00  0.33223928845E+02 -0.71478810463E+02  0.78823113548E+02  0.00000000000E+00 0. -1.
         11    1    3    3    0    0 -0.24691607431E+02 -0.86925866425E+01  0.18648229755E+01  0.26243363062E+02  0.00000000000E+00 0.  1.
         21    1    1    2  503  502 -0.64282934606E+01  0.20188496234E+02 -0.39465923158E+02  0.44793497605E+02  0.00000000000E+00 0. -1.
          1    1    1    2  501    0  0.20713321196E+03 -0.10070790580E+03 -0.10130407277E+03  0.25161233067E+03  0.00000000000E+00 0. -1.
<scales pt_clust_5="13000.00000" pt_clust_6="13000.00000" pt_clust_7="13000.00000" pt_clust_8="13000.00000" pt_clust_9="21.18722" pt_clust_10="205.45149"></scales>
<clustering>
<clus scale="   21.187">  2  9  1 -1</clus>
<clus scale="   70.643">  7  8 -1 -1</clus>
<clus scale="   80.536">  2  7  1 -1</clus>
<clus scale="   81.550">  5  6 -1 -1</clus>
<clus scale="  205.451">  1 10  2 -1</clus>
<clus scale="  205.451">  1  5  2 -1</clus>
</clustering>
</event>
<event>
10    4  0.3738096E-005  0.1245808E+03  0.7546771E-02  0.1239183E+00
         21   -1    0    0  501  502  0.00000000000E+00  0.00000000000E+00  0.25957606558E+03  0.25957606558E+03  0.00000000000E+00 0.  1.
          2   -1    0    0  503    0 -0.00000000000E+00 -0.00000000000E+00 -0.25933620021E+03  0.25933620021E+03  0.00000000000E+00 0. -1.
         24    2    1    2    0    0 -0.78640881244E+02  0.41393263961E+02 -0.18475626818E+03  0.21991463975E+03  0.79559912267E+02 0.  0.
         23    2    1    2    0    0  0.64689892966E+02 -0.36852563178E+02  0.10563204069E+03  0.15834170265E+03  0.91493568698E+02 0.  0.
        -11    1    3    3    0    0 -0.50488800721E+01  0.32303640700E+02 -0.17787814900E+02  0.37221267460E+02  0.00000000000E+00 0.  1.
         12    1    3    3    0    0 -0.73592001172E+02  0.90896232618E+01 -0.16696845328E+03  0.18269337229E+03  0.00000000000E+00 0. -1.
        -11    1    4    4    0    0  0.21717808927E+01 -0.51984219086E+02  0.34442746077E+02  0.62396942422E+02  0.00000000000E+00 0. -1.
         11    1    4    4    0    0  0.62518112073E+02  0.15131655909E+02  0.71189294613E+02  0.95944760228E+02  0.00000000000E+00 0.  1.
         21    1    1    2  503  502  0.20702337289E+02  0.24134344483E+02 -0.19632161961E+02  0.37369441206E+02  0.00000000000E+00 0.  1.
          1    1    1    2  501    0 -0.67513490100E+01 -0.28675045266E+02  0.98996254822E+02  0.10328648219E+03  0.00000000000E+00 0. -1.
<scales pt_clust_5="13000.00000" pt_clust_6="13000.00000" pt_clust_7="13000.00000" pt_clust_8="13000.00000" pt_clust_9="30.34217" pt_clust_10="29.45911"></scales>
<clustering>
<clus scale="   29.459">  1 10  2 -1</clus>
<clus scale="   30.342">  2  9  1 -1</clus>
<clus scale="   79.560">  5  6 -1 -1</clus>
<clus scale="   91.494">  7  8 -1 -1</clus>
<clus scale="  116.099">  2  5  1 -1</clus>
<clus scale="   29.459">  1  5  2 -1</clus>
</clustering>
</event>
<event>
10    4  0.3738096E-005  0.1028264E+03  0.7546771E-02  0.1281446E+00
         21   -1    0    0  501  502  0.00000000000E+00  0.00000000000E+00  0.17105581181E+03  0.17105581181E+03  0.00000000000E+00 0.  1.
          2   -1    0    0  503    0 -0.00000000000E+00 -0.00000000000E+00 -0.18033814259E+03  0.18033814259E+03  0.00000000000E+00 0. -1.
         24    2    1    2    0    0  0.24031162584E+02  0.23002756377E+02 -0.38362680005E+02  0.93179800486E+02  0.78129101015E+02 0.  0.
         23    2    1    2    0    0 -0.52205808439E+02  0.50920576041E+02  0.55484892873E+02  0.13029312808E+03  0.92624912354E+02 0.  0.
        -11    1    3    3    0    0  0.39661698673E+01 -0.28179309984E+02 -0.50559896839E+01  0.28902716936E+02  0.00000000000E+00 0.  1.
         12    1    3    3    0    0  0.20064992716E+02  0.51182066361E+02 -0.33306690321E+02  0.64277083551E+02  0.00000000000E+00 0. -1.
        -11    1    4    4    0    0 -0.33067499195E+02  0.40367185924E+02 -0.16765769375E+02  0.54809307833E+02  0.00000000000E+00 0. -1.
         11    1    4    4    0    0 -0.19138309244E+02  0.10553390117E+02  0.72250662248E+02  0.75483820246E+02  0.00000000000E+00 0.  1.
         21    1    1    2  503  502  0.30235092039E+02 -0.45245474906E+02 -0.61783844125E+02  0.82331993690E+02  0.00000000000E+00 0. -1.
          1    1    1    2  501    0 -0.20604461835E+01 -0.28677857511E+02  0.35379300474E+02  0.45589032145E+02  0.00000000000E+00 0. -1.
<scales pt_clust_5="13000.00000" pt_clust_6="13000.00000" pt_clust_7="13000.00000" pt_clust_8="13000.00000" pt_clust_9="56.22120" pt_clust_10="28.75178"></scales>
<clustering>
<clus scale="   28.752">  1 10  2 -1</clus>
<clus scale="   56.221">  2  9  1 -1</clus>
<clus scale="   78.129">  5  6 -1 -1</clus>
<clus scale="   89.989">  2  5  1 -1</clus>
<clus scale="   92.625">  7  8 -1 -1</clus>
<clus scale="   28.752">  1  5  2 -1</clus>
</clustering>
</event>
<event>
10    4  0.3738096E-005  0.2271773E+03  0.7546771E-02  0.1129286E+00
         -1   -1    0    0    0  501 -0.00000000000E+00  0.00000000000E+00  0.59851935883E+03  0.59851935883E+03  0.00000000000E+00 0.  1.
         21   -1    0    0  503  502  0.00000000000E+00 -0.00000000000E+00 -0.22543400777E+03  0.22543400777E+03  0.00000000000E+00 0. -1.
         23    2    1    2    0    0  0.80179696079E+02 -0.19178147877E+03  0.90561679317E+02  0.24406256049E+03  0.90311662653E+02 0.  0.
         24    2    1    2    0    0 -0.50372653556E+02  0.21105772900E+03  0.71671216191E+02  0.24241876088E+03  0.80915531277E+02 0.  0.
        -11    1    4    4    0    0 -0.26338148557E+01  0.74792146316E+02  0.62909662443E+02  0.97767212090E+02  0.00000000000E+00 0.  1.
         12    1    4    4    0    0 -0.47738838700E+02  0.13626558268E+03  0.87615537478E+01  0.14465154879E+03  0.00000000000E+00 0. -1.
        -13    1    3    3    0    0  0.42786376018E+02 -0.12449510646E+03  0.10160902037E+03  0.16629521498E+03  0.00000000000E+00 0.  1.
         13    1    3    3    0    0  0.37393320061E+02 -0.67286372308E+02 -0.11047341051E+02  0.77767345512E+02  0.00000000000E+00 0. -1.
         21    1    1    2  503  501 -0.36211677068E+02  0.17318627385E+02  0.26708004626E+03  0.27007956517E+03  0.00000000000E+00 0.  1.
         -2    1    1    2    0  502  0.64046345446E+01 -0.36594877618E+02 -0.56227590710E+02  0.67392480059E+02  0.00000000000E+00 0.  1.
<scales pt_clust_5="13000.00000" pt_clust_6="13000.00000" pt_clust_7="13000.00000" pt_clust_8="13000.00000" pt_clust_9="39.94329" pt_clust_10="37.15110"></scales>
<clustering>
<clus scale="   37.151">  2 10  1 -1</clus>
<clus scale="   39.943">  1  9  2 -1</clus>
<clus scale="   80.916">  5  6 -1 -1</clus>
<clus scale="   90.312">  7  8 -1 -1</clus>
<clus scale="  223.608">  2  5  1 -1</clus>
<clus scale="   37.151">  2  5  1 -1</clus>
</clustering>
</event>
<event>
10    4  0.3738096E-005  0.2430358E+03  0.7546771E-02  0.1119442E+00
         21   -1    0    0  503  502  0.00000000000E+00  0.00000000000E+00  0.66660246676E+03  0.66660246676E+03  0.00000000000E+00 0.  1.
         -3   -1    0    0    0  501 -0.00000000000E+00 -0.00000000000E+00 -0.23599318873E+03  0.23599318873E+03  0.00000000000E+00 0.  1.
         24    2    1    2    0    0 -0.13707069694E+03  0.19458651994E+03  0.20010812124E+03  0.32115883226E+03  0.80295987795E+02 0.  0.
         23    2    1    2    0    0  0.95095276558E+02 -0.16837755924E+03  0.36837282691E+03  0.42923827761E+03  0.10560703234E+03 0.  0.
        -11    1    3    3    0    0 -0.13498251816E+03  0.13563285234E+03  0.14136973178E+03  0.23791164727E+03  0.00000000000E+00 0.  1.
         12    1    3    3    0    0 -0.20881787794E+01  0.58953667595E+02  0.58738389463E+02  0.83247184998E+02  0.00000000000E+00 0. -1.
        -11    1    4    4    0    0  0.39118571463E+02 -0.38074586330E+02  0.20850679141E+03  0.21553426368E+03  0.00000000000E+00 0.  1.
         11    1    4    4    0    0  0.55976705095E+02 -0.13030297291E+03  0.15986603551E+03  0.21370401393E+03  0.00000000000E+00 0. -1.
         21    1    1    2  503  501  0.22572944085E+02  0.29933579280E+01 -0.90154845575E+02  0.92985989144E+02  0.00000000000E+00 0.  1.
         -4    1    1    2    0  502  0.19402476292E+02 -0.29202318629E+02 -0.47716824547E+02  0.59212556476E+02  0.00000000000E+00 0.  1.
<scales pt_clust_5="13000.00000" pt_clust_6="13000.00000" pt_clust_7="13000.00000" pt_clust_8="13000.00000" pt_clust_9="22.77055" pt_clust_10="39.49482"></scales>
<clustering>
<clus scale="   22.771">  2  9  1 -1</clus>
<clus scale="   39.495">  1 10  2 -1</clus>
<clus scale="   80.296">  5  6 -1 -1</clus>
<clus scale="  105.607">  7  8 -1 -1</clus>
<clus scale="  233.154">  2  5  1 -1</clus>
<clus scale="   39.495">  1  5  2 -1</clus>
</clustering>
</event>
<event>
10    4  0.3738096E-005  0.1610783E+03  0.7546771E-02  0.1188868E+00
          2   -1    0    0  503    0 -0.00000000000E+00  0.00000000000E+00  0.86324158918E+03  0.86324158918E+03  0.00000000000E+00 0. -1.
         21   -1    0    0  501  502  0.00000000000E+00 -0.00000000000E+00 -0.96922461954E+02  0.96922461954E+02  0.00000000000E+00 0. -1.
         24    2    1    2    0    0  0.11842381178E+03  0.59245382635E+02  0.42188770695E+03  0.45004356317E+03  0.83760115284E+02 0.  0.
         23    2    1    2    0    0 -0.14393738698E+03 -0.63735905354E+02  0.23129185840E+03  0.29467854490E+03  0.92516398881E+02 0.  0.
        -13    1    3    3    0    0  0.10858969907E+03  0.20514726871E+02  0.35818230081E+03  0.37484281689E+03  0.00000000000E+00 0.  1.
         14    1    3    3    0    0  0.98341127096E+01  0.38730655764E+02  0.63705406141E+02  0.75200746274E+02  0.00000000000E+00 0. -1.
        -13    1    4    4    0    0 -0.10571358117E+03 -0.36366857635E+02  0.83347403136E+02  0.13944425118E+03  0.00000000000E+00 0. -1.
         13    1    4    4    0    0 -0.38223805809E+02 -0.27369047718E+02  0.14794445526E+03  0.15523429372E+03  0.00000000000E+00 0.  1.
         21    1    1    2  503  502 -0.19387000035E+02 -0.84642590820E+01  0.15273373787E+03  0.15419174470E+03  0.00000000000E+00 0.  1.
          1    1    1    2  501    0  0.44900575233E+02  0.12954781801E+02 -0.39594175984E+02  0.61250198364E+02  0.00000000000E+00 0. -1.
<scales pt_clust_5="13000.00000" pt_clust_6="13000.00000" pt_clust_7="13000.00000" pt_clust_8="13000.00000" pt_clust_9="21.15418" pt_clust_10="46.41214"></scales>
<clustering>
<clus scale="   21.154">  1  9  2 -1</clus>
<clus scale="   46.412">  2 10  1 -1</clus>
<clus scale="   83.760">  5  6 -1 -1</clus>
<clus scale="   92.516">  7  8 -1 -1</clus>
<clus scale="  156.214">  1  5  2 -1</clus>
<clus scale="   46.412">  2  5  1 -1</clus>
</clustering>
</event>
<event>
10    4  0.3738096E-005  0.2571319E+03  0.7546771E-02  0.1109483E+00
          4   -1    0    0  503    0 -0.00000000000E+00  0.00000000000E+00  0.17475506783E+03  0.17475506783E+03  0.00000000000E+00 0. -1.
         21   -1    0    0  501  502  0.00000000000E+00 -0.00000000000E+00 -0.65700783873E+03  0.65700783873E+03  0.00000000000E+00 0. -1.
         23    2    1    2    0    0 -0.27883287048E+02  0.25029465384E+03 -0.77578369312E+02  0.27929671046E+03  0.92538411768E+02 0.  0.
         24    2    1    2    0    0 -0.49428454621E+02 -0.21789979165E+03 -0.38495890611E+03  0.45240928140E+03  0.80977201581E+02 0.  0.
        -13    1    4    4    0    0 -0.23393991303E+02 -0.42265339322E+02 -0.33936265530E+02  0.59036495960E+02  0.00000000000E+00 0.  1.
         14    1    4    4    0    0 -0.26034463318E+02 -0.17563445233E+03 -0.35102264058E+03  0.39337278544E+03  0.00000000000E+00 0. -1.
        -11    1    3    3    0    0 -0.19645219615E+02  0.37707289251E+02  0.17868510443E+02  0.46120038832E+02  0.00000000000E+00 0.  1.
         11    1    3    3    0    0 -0.82380674334E+01  0.21258736458E+03 -0.95446879755E+02  0.23317667163E+03  0.00000000000E+00 0. -1.
         21    1    1    2  503  502  0.59832900783E+02 -0.22815964501E+01  0.33644234835E+00  0.59877332037E+02  0.00000000000E+00 0. -1.
          3    1    1    2  501    0  0.17478840886E+02 -0.30113265735E+02 -0.20051937832E+02  0.40179582661E+02  0.00000000000E+00 0. -1.
<scales pt_clust_5="13000.00000" pt_clust_6="13000.00000" pt_clust_7="13000.00000" pt_clust_8="13000.00000" pt_clust_9="60.77639" pt_clust_10="34.81838"></scales>
<clustering>
<clus scale="   34.818">  2 10  1 -1</clus>
<clus scale="   60.776">  1  9  2 -1</clus>
<clus scale="   80.977">  5  6 -1 -1</clus>
<clus scale="   92.538">  7  8 -1 -1</clus>
<clus scale="  253.201">  2  5  1 -1</clus>
<clus scale="   34.818">  2  5  1 -1</clus>
</clustering>
</event>
<event>
10    4  0.3738096E-005  0.2561797E+03  0.7546771E-02  0.1109849E+00
          2   -1    0    0  503    0 -0.00000000000E+00  0.00000000000E+00  0.26424855829E+03  0.26424855829E+03  0.00000000000E+00 0. -1.
         21   -1    0    0  501  502  0.00000000000E+00 -0.00000000000E+00 -0.70270096882E+03  0.70270096882E+03  0.00000000000E+00 0. -1.
         24    2    1    2    0    0 -0.11277665911E+03  0.19278737280E+03  0.56736576002E+02  0.24416482483E+03  0.80696199895E+02 0.  0.
         23    2    1    2    0    0 -0.72601989768E+02 -0.22791997933E+03 -0.35298393013E+03  0.43544910557E+03  0.88315925632E+02 0.  0.
        -13    1    3    3    0    0 -0.19856217824E+02  0.34105438911E+02  0.45073779618E+02  0.59909064077E+02  0.00000000000E+00 0.  1.
         14    1    3    3    0    0 -0.92920441284E+02  0.15868193389E+03  0.11662796383E+02  0.18425576075E+03  0.00000000000E+00 0. -1.
        -13    1    4    4    0    0 -0.18321027154E+02 -0.13487790053E+03 -0.25857711531E+03  0.29221538743E+03  0.00000000000E+00 0.  1.
         13    1    4    4    0    0 -0.54280962614E+02 -0.93042078803E+02 -0.94406814818E+02  0.14323371815E+03  0.00000000000E+00 0. -1.
         21    1    1    2  503  502  0.15627047614E+03  0.91843846842E+02 -0.79535240099E+02  0.19794344731E+03  0.00000000000E+00 0.  1.
          1    1    1    2  501    0  0.29108172733E+02 -0.56711240312E+02 -0.62669816305E+02  0.89392149394E+02  0.00000000000E+00 0. -1.
<scales pt_clust_5="13000.00000" pt_clust_6="13000.00000" pt_clust_7="13000.00000" pt_clust_8="13000.00000" pt_clust_9="181.00486" pt_clust_10="63.74520"></scales>
<clustering>
<clus scale="   63.745">  2 10  1 -1</clus>
<clus scale="   80.696">  5  6 -1 -1</clus>
<clus scale="   88.316">  7  8 -1 -1</clus>
<clus scale="  181.005">  1  9  2 -1</clus>
<clus scale="  253.654">  1  5  2 -1</clus>
<clus scale="   63.745">  2  5  1 -1</clus>
</clustering>
</event>
<event>
10    4  0.3738096E-005  0.8526179E+02  0.7546771E-02  0.1316670E+00
          2   -1    0    0  503    0 -0.00000000000E+00  0.00000000000E+00  0.87186167786E+02  0.87186167786E+02  0.00000000000E+00 0. -1.
         21   -1    0    0  501  502  0.00000000000E+00 -0.00000000000E+00 -0.31432450839E+03  0.31432450839E+03  0.00000000000E+00 0. -1.
         24    2    1    2    0    0  0.43363855059E+01 -0.27096143301E+02  0.17567423650E+02  0.86820756198E+02  0.80474990599E+02 0.  0.
         23    2    1    2    0    0 -0.24221081281E+02 -0.41324418289E+02 -0.11323179494E+03  0.14858459178E+03  0.83436042587E+02 0.  0.
        -13    1    3    3    0    0  0.22912956602E+02  0.21461536806E+02 -0.15372418946E+01  0.31431898685E+02  0.00000000000E+00 0.  1.
         14    1    3    3    0    0 -0.18576571096E+02 -0.48557680106E+02  0.19104665545E+02  0.55388857513E+02  0.00000000000E+00 0. -1.
        -13    1    4    4    0    0  0.47989146261E+01 -0.60953520510E+02 -0.70173590553E+02  0.93073594834E+02  0.00000000000E+00 0. -1.
         13    1    4    4    0    0 -0.29019995908E+02  0.19629102221E+02 -0.43058204392E+02  0.55510996946E+02  0.00000000000E+00 0.  1.
         21    1    1    2  503  502 -0.41867989996E+01  0.47739314529E+02 -0.23136513274E+02  0.53215314375E+02  0.00000000000E+00 0.  1.
          1    1    1    2  501    0  0.24071494775E+02  0.20681247061E+02 -0.10833745603E+03  0.11289001382E+03  0.00000000000E+00 0. -1.
<scales pt_clust_5="13000.00000" pt_clust_6="13000.00000" pt_clust_7="13000.00000" pt_clust_8="13000.00000" pt_clust_9="51.61605" pt_clust_10="31.73564"></scales>
<clustering>
<clus scale="   31.736">  2 10  1 -1</clus>
<clus scale="   51.616">  1  9  2 -1</clus>
<clus scale="   80.475">  5  6 -1 -1</clus>
<clus scale="   82.366">  1  5  2 -1</clus>
<clus scale="   83.436">  7  8 -1 -1</clus>
<clus scale="   31.736">  2  5  1 -1</clus>
</clustering>
</event>
<event>
10    4  0.3738096E-005  0.1469726E+03  0.7546771E-02  0.1221534E+00
         21   -1    0    0  501  502  0.00000000000E+00  0.00000000000E+00  0.25185370322E+03  0.25185370322E+03  0.00000000000E+00 0.  1.
          2   -1    0    0  503    0 -0.00000000000E+00 -0.00000000000E+00 -0.43568405216E+03  0.43568405216E+03  0.00000000000E+00 0. -1.
         23    2    1    2    0    0  0.34145738508E+02 -0.28865387341E+02 -0.55333999141E+01  0.10294553801E+03  0.92563617243E+02 0.  0.
         24    2    1    2    0    0  0.79451956044E+02 -0.36754369606E+02 -0.20462227310E+03  0.23840784376E+03  0.85466533309E+02 0.  0.
        -13    1    4    4    0    0  0.97869418961E+02 -0.33083058820E+02 -0.17840631024E+03  0.20615946129E+03  0.00000000000E+00 0.  1.
         14    1    4    4    0    0 -0.18417462917E+02 -0.36713107866E+01 -0.26215962858E+02  0.32248382467E+02  0.00000000000E+00 0. -1.
        -11    1    3    3    0    0  0.11321717004E+02 -0.20972406617E+02 -0.48283640217E+02  0.53845455034E+02  0.00000000000E+00 0. -1.
         11    1    3    3    0    0  0.22824021504E+02 -0.78929807240E+01  0.42750240303E+02  0.49100082977E+02  0.00000000000E+00 0.  1.
         21    1    1    2  503  502  0.11281914765E+01  0.22630161777E+02 -0.13876346569E+03  0.14060119647E+03  0.00000000000E+00 0.  1.
          1    1    1    2  501    0 -0.11472588603E+03  0.42989595170E+02  0.16508878976E+03  0.20558317714E+03  0.00000000000E+00 0. -1.
<scales pt_clust_5="13000.00000" pt_clust_6="13000.00000" pt_clust_7="13000.00000" pt_clust_8="13000.00000" pt_clust_9="22.65827" pt_clust_10="119.56758"></scales>
<clustering>
<clus scale="   22.658">  2  9  1 -1</clus>
<clus scale="   85.467">  5  6 -1 -1</clus>
<clus scale="   92.564">  7  8 -1 -1</clus>
<clus scale="  101.780">  2  7  1 -1</clus>
<clus scale="  119.568">  1 10  2 -1</clus>
<clus scale="  119.568">  1  5  2 -1</clus>
</clustering>
</event>
<event>
10    4  0.3738096E-005  0.2335747E+03  0.7546771E-02  0.1125352E+00
          2   -1    0    0  503    0 -0.00000000000E+00  0.00000000000E+00  0.23464065517E+04  0.23464065517E+04  0.00000000000E+00 0. -1.
         21   -1    0    0  501  502  0.00000000000E+00 -0.00000000000E+00 -0.95608292530E+02  0.95608292530E+02  0.00000000000E+00 0. -1.
         24    2    1    2    0    0  0.10413107031E+03  0.18957511127E+03  0.12524566853E+04  0.12729756205E+04  0.70973087323E+02 0.  0.
         23    2    1    2    0    0 -0.11785150659E+03 -0.19014884004E+03  0.10436313816E+03  0.26293252334E+03  0.90533354336E+02 0.  0.
        -11    1    3    3    0    0  0.33567752194E+02  0.13303320699E+02  0.14974214350E+03  0.15403402828E+03  0.00000000000E+00 0.  1.
         12    1    3    3    0    0  0.70563318116E+02  0.17627179057E+03  0.11027145418E+04  0.11189415922E+04  0.00000000000E+00 0. -1.
        -13    1    4    4    0    0 -0.10966629512E+03 -0.10127324063E+03  0.45644432514E+02  0.15609734069E+03  0.00000000000E+00 0. -1.
         13    1    4    4    0    0 -0.81852114718E+01 -0.88875599407E+02  0.58718705648E+02  0.10683518264E+03  0.00000000000E+00 0.  1.
         21    1    1    2  503  502 -0.62690923517E+02  0.24481286249E+02  0.37568184600E+03  0.38166259272E+03  0.00000000000E+00 0. -1.
          1    1    1    2  501    0  0.76411359794E+02 -0.23907557481E+02  0.51829658965E+03  0.52444410765E+03  0.00000000000E+00 0. -1.
<scales pt_clust_5="13000.00000" pt_clust_6="13000.00000" pt_clust_7="13000.00000" pt_clust_8="13000.00000" pt_clust_9="67.30145" pt_clust_10="62.28667"></scales>
<clustering>
<clus scale="   67.301">  1  9  2 -1</clus>
<clus scale="   62.287">  2 10  1 -1</clus>
<clus scale="   70.973">  5  6 -1 -1</clus>
<clus scale="   90.533">  7  8 -1 -1</clus>
<clus scale="  226.711">  1  5  2 -1</clus>
<clus scale="   62.287">  2  5  1 -1</clus>
</clustering>
</event>
<event>
10    4  0.3738096E-005  0.9403465E+02  0.7546771E-02  0.1298814E+00
         21   -1    0    0  503  502  0.00000000000E+00  0.00000000000E+00  0.66945517059E+02  0.66945517059E+02  0.00000000000E+00 0.  1.
         -1   -1    0    0    0  501 -0.00000000000E+00 -0.00000000000E+00 -0.39233106831E+03  0.39233106831E+03  0.00000000000E+00 0.  1.
         23    2    1    2    0    0  0.14825209268E+02  0.13846390646E+02 -0.14153699758E+03  0.16940449870E+03  0.90849618233E+02 0.  0.
         24    2    1    2    0    0  0.63344686069E+02  0.25000803136E+01 -0.46622127962E+02  0.11325936756E+03  0.81457116748E+02 0.  0.
        -13    1    4    4    0    0  0.49205837775E+02  0.35660848521E+02 -0.47606986672E+02  0.77196734182E+02  0.00000000000E+00 0.  1.
         14    1    4    4    0    0  0.14138848294E+02 -0.33160768208E+02  0.98485871052E+00  0.36062633375E+02  0.00000000000E+00 0. -1.
        -13    1    3    3    0    0  0.32596631716E+02 -0.30856035202E+02 -0.64463881069E+02  0.78550794204E+02  0.00000000000E+00 0. -1.
         13    1    3    3    0    0 -0.17771422448E+02  0.44702425847E+02 -0.77073116510E+02  0.90853704498E+02  0.00000000000E+00 0.  1.
         21    1    1    2  503  501 -0.39810990928E+02 -0.27163616846E+02 -0.12645491712E+03  0.13532783580E+03  0.00000000000E+00 0. -1.
         -2    1    1    2    0  502 -0.38358904409E+02  0.10817145887E+02 -0.10771508593E+02  0.41284883311E+02  0.00000000000E+00 0.  1.
<scales pt_clust_5="13000.00000" pt_clust_6="13000.00000" pt_clust_7="13000.00000" pt_clust_8="13000.00000" pt_clust_9="50.45971" pt_clust_10="39.85494"></scales>
<clustering>
<clus scale="   39.855">  1 10  2 -1</clus>
<clus scale="   50.460">  2  9  1 -1</clus>
<clus scale="   81.457">  5  6 -1 -1</clus>
<clus scale="   84.995">  1  5  2 -1</clus>
<clus scale="   90.850">  7  8 -1 -1</clus>
<clus scale="   39.855">  1  5  2 -1</clus>
</clustering>
</event>
<event>
10    4  0.3738096E-005  0.8948420E+02  0.7546771E-02  0.1308602E+00
         -1   -1    0    0    0  501 -0.00000000000E+00  0.00000000000E+00  0.28476596624E+03  0.28476596624E+03  0.00000000000E+00 0.  1.
         21   -1    0    0  503  502  0.00000000000E+00 -0.00000000000E+00 -0.17329647176E+03  0.17329647176E+03  0.00000000000E+00 0.  1.
         23    2    1    2    0    0  0.27991287594E+02  0.10796794846E+02  0.17292607464E+03  0.19641046727E+03  0.88167802518E+02 0.  0.
         24    2    1    2    0    0  0.49993333691E+01  0.36096858692E+02 -0.21530040769E+02  0.91394320860E+02  0.81002485693E+02 0.  0.
        -13    1    4    4    0    0 -0.93133472085E+01  0.59420680116E+02 -0.74095920521E+01  0.60600806233E+02  0.00000000000E+00 0.  1.
         14    1    4    4    0    0  0.14312680578E+02 -0.23323821424E+02 -0.14120448716E+02  0.30793514627E+02  0.00000000000E+00 0. -1.
        -11    1    3    3    0    0  0.13987030203E+02  0.38168488177E+02  0.15621271623E+03  0.16141525088E+03  0.00000000000E+00 0.  1.
         11    1    3    3    0    0  0.14004257391E+02 -0.27371693331E+02  0.16713358413E+02  0.34995216392E+02  0.00000000000E+00 0. -1.
         21    1    1    2  503  501 -0.17503461023E+02  0.14481329008E+02  0.53090000851E+02  0.57746239947E+02  0.00000000000E+00 0.  1.
         -2    1    1    2    0  502 -0.15487159940E+02 -0.61374982546E+02 -0.93016540247E+02  0.11251140993E+03  0.00000000000E+00 0.  1.
<scales pt_clust_5="13000.00000" pt_clust_6="13000.00000" pt_clust_7="13000.00000" pt_clust_8="13000.00000" pt_clust_9="22.71740" pt_clust_10="62.89011"></scales>
<clustering>
<clus scale="   22.717">  1  9  2 -1</clus>
<clus scale="   62.890">  2 10  1 -1</clus>
<clus scale="   81.002">  5  6 -1 -1</clus>
<clus scale="   82.433">  2  5  1 -1</clus>
<clus scale="   88.168">  7  8 -1 -1</clus>
<clus scale="   62.890">  2  5  1 -1</clus>
</clustering>
</event>
<event>
10    4  0.3738096E-005  0.1863110E+03  0.7546771E-02  0.1162276E+00
          2   -1    0    0  503    0 -0.00000000000E+00  0.00000000000E+00  0.10438113835E+04  0.10438113835E+04  0.00000000000E+00 0. -1.
         21   -1    0    0  501  502  0.00000000000E+00 -0.00000000000E+00 -0.11852148664E+03  0.11852148664E+03  0.00000000000E+00 0. -1.
         24    2    1    2    0    0  0.85333423873E+02 -0.14679097517E+03  0.63650625599E+03  0.66365489636E+03  0.80425269239E+02 0.  0.
         23    2    1    2    0    0 -0.15920609884E+03  0.37435081630E+02  0.21328240987E+03  0.28180529245E+03  0.84716404830E+02 0.  0.
        -13    1    3    3    0    0  0.89434647021E+02 -0.11153898490E+03  0.40608523903E+03  0.43051680873E+03  0.00000000000E+00 0.  1.
         14    1    3    3    0    0 -0.41012231482E+01 -0.35251990275E+02  0.23042101696E+03  0.23313808764E+03  0.00000000000E+00 0. -1.
        -11    1    4    4    0    0  0.23770362343E+01  0.21697612760E+02  0.24255309856E+02  0.32630610735E+02  0.00000000000E+00 0.  1.
         11    1    4    4    0    0 -0.16158313508E+03  0.15737468870E+02  0.18902710002E+03  0.24917468172E+03  0.00000000000E+00 0. -1.
         21    1    1    2  503  502  0.27797081680E+02 -0.16442490317E+02  0.76349408167E+02  0.82899127650E+02  0.00000000000E+00 0.  1.
          1    1    1    2  501    0  0.46075593291E+02  0.12579838386E+03 -0.84817717721E+00  0.13397355367E+03  0.00000000000E+00 0. -1.
<scales pt_clust_5="13000.00000" pt_clust_6="13000.00000" pt_clust_7="13000.00000" pt_clust_8="13000.00000" pt_clust_9="32.29603" pt_clust_10="133.58297"></scales>
<clustering>
<clus scale="   32.296">  1  9  2 -1</clus>
<clus scale="   80.425">  5  6 -1 -1</clus>
<clus scale="   84.716">  7  8 -1 -1</clus>
<clus scale="  133.583">  2 10  1 -1</clus>
<clus scale="  184.399">  1  5  2 -1</clus>
<clus scale="  133.583">  2  5  1 -1</clus>
</clustering>
</event>
<event>
10    4  0.3738096E-005  0.1433067E+03  0.7546771E-02  0.1210250E+00
         21   -1    0    0  503  502  0.00000000000E+00  0.00000000000E+00  0.84751960302E+02  0.84751960302E+02  0.00000000000E+00 0.  1.
          2   -1    0    0  502    0 -0.00000000000E+00 -0.00000000000E+00 -0.61468919060E+03  0.61468919060E+03  0.00000000000E+00 0. -1.
         23    2    1    2    0    0 -0.90218417033E+02 -0.10406466808E+03 -0.24050647588E+03  0.29055768873E+03  0.87244413173E+02 0.  0.
         24    2    1    2    0    0 -0.25132944728E+02  0.10124577883E+03 -0.56602571067E+02  0.14347858481E+03  0.80621837035E+02 0.  0.
        -11    1    4    4    0    0  0.13653130654E+02  0.61158469404E+02  0.18380266897E+01  0.62690866150E+02  0.00000000000E+00 0.  1.
         12    1    4    4    0    0 -0.38786075382E+02  0.40087309426E+02 -0.58440597757E+02  0.80787718663E+02  0.00000000000E+00 0. -1.
        -11    1    3    3    0    0 -0.33371789250E+02  0.93530326820E+01 -0.69143791353E+02  0.77343515699E+02  0.00000000000E+00 0. -1.
         11    1    3    3    0    0 -0.56846627784E+02 -0.11341770076E+03 -0.17136268453E+03  0.21321417304E+03  0.00000000000E+00 0.  1.
         21    1    1    2  503  501  0.29554707471E+02 -0.18014115588E+02 -0.10079491286E+03  0.10657205803E+03  0.00000000000E+00 0. -1.
          1    1    1    2  501    0  0.85796654290E+02  0.20833004833E+02 -0.13203327049E+03  0.15883281932E+03  0.00000000000E+00 0. -1.
<scales pt_clust_5="13000.00000" pt_clust_6="13000.00000" pt_clust_7="13000.00000" pt_clust_8="13000.00000" pt_clust_9="33.81575" pt_clust_10="127.40017"></scales>
<clustering>
<clus scale="   33.816">  9 10 -1 -1</clus>
<clus scale="   80.622">  5  6 -1 -1</clus>
<clus scale="   87.244">  7  8 -1 -1</clus>
<clus scale="  127.400">  1  9  2 -1</clus>
<clus scale="  139.374">  1  5  2 -1</clus>
<clus scale="  127.400">  1  5  2 -1</clus>
</clustering>
</event>
<event>
10    4  0.3738096E-005  0.1419366E+03  0.7546771E-02  0.1224234E+00
         21   -1    0    0  503  502  0.00000000000E+00  0.00000000000E+00  0.95700644062E+02  0.95700644062E+02  0.00000000000E+00 0.  1.
          2   -1    0    0  502    0 -0.00000000000E+00 -0.00000000000E+00 -0.40524785626E+03  0.40524785626E+03  0.00000000000E+00 0. -1.
         23    2    1    2    0    0 -0.13126742588E+02 -0.52130343159E+02 -0.11614679282E+03  0.15778705404E+03  0.92286471871E+02 0.  0.
         24    2    1    2    0    0  0.12374090748E+03  0.64181625393E+02 -0.14166322263E+03  0.21336933177E+03  0.77633175068E+02 0.  0.
        -11    1    4    4    0    0  0.93215857232E+02  0.65008833691E+02 -0.65168531037E+02  0.13100489279E+03  0.00000000000E+00 0.  1.
         12    1    4    4    0    0  0.30525050248E+02 -0.82720829790E+00 -0.76494691595E+02  0.82364438980E+02  0.00000000000E+00 0. -1.
        -13    1    3    3    0    0 -0.33819445778E+02 -0.31066497968E+02 -0.91949715091E+01  0.46834065698E+02  0.00000000000E+00 0. -1.
         13    1    3    3    0    0  0.20692703190E+02 -0.21063845191E+02 -0.10695182131E+03  0.11095298834E+03  0.00000000000E+00 0.  1.
         21    1    1    2  503  501 -0.87860972616E+02 -0.91668832712E+01 -0.58414192199E+02  0.10590467463E+03  0.00000000000E+00 0. -1.
          1    1    1    2  501    0 -0.22753192276E+02 -0.28843989631E+01  0.66769954538E+01  0.23887439888E+02  0.00000000000E+00 0. -1.
<scales pt_clust_5="13000.00000" pt_clust_6="13000.00000" pt_clust_7="13000.00000" pt_clust_8="13000.00000" pt_clust_9="21.54897" pt_clust_10="126.12535"></scales>
<clustering>
<clus scale="   21.549">  9 10 -1 -1</clus>
<clus scale="   77.633">  5  6 -1 -1</clus>
<clus scale="   92.286">  7  8 -1 -1</clus>
<clus scale="  106.802">  2  7  1 -1</clus>
<clus scale="  126.125">  1  9  2 -1</clus>
<clus scale="  126.125">  1  5  2 -1</clus>
</clustering>
</event>
<event>
10    4  0.3738096E-005  0.3267030E+03  0.7546771E-02  0.1106420E+00
         21   -1    0    0  501  502  0.00000000000E+00  0.00000000000E+00  0.54777384275E+03  0.54777384275E+03  0.00000000000E+00 0. -1.
          2   -1    0    0  503    0 -0.00000000000E+00 -0.00000000000E+00 -0.41285604349E+03  0.41285604349E+03  0.00000000000E+00 0. -1.
         24    2    1    2    0    0 -0.96731908310E+02 -0.41328002114E+02  0.43131038470E+02  0.13934784954E+03  0.80575870128E+02 0.  0.
         23    2    1    2    0    0  0.54948750855E+02 -0.31011990027E+03  0.25560353738E+03  0.41558680814E+03  0.90473802927E+02 0.  0.
        -13    1    3    3    0    0 -0.39190598937E+02 -0.46068153013E+02  0.53426960490E+02  0.80700792278E+02  0.00000000000E+00 0.  1.
         14    1    3    3    0    0 -0.57541309373E+02  0.47401508988E+01 -0.10295922020E+02  0.58647057259E+02  0.00000000000E+00 0. -1.
        -11    1    4    4    0    0  0.61210189191E+02 -0.20115020746E+03  0.21039276669E+03  0.29744446456E+03  0.00000000000E+00 0. -1.
         11    1    4    4    0    0 -0.62614383366E+01 -0.10896969280E+03  0.45210770694E+02  0.11814234358E+03  0.00000000000E+00 0.  1.
         21    1    1    2  503  502 -0.22302381738E+02  0.30175064289E+02 -0.41640252371E+02  0.56052130678E+02  0.00000000000E+00 0. -1.
          1    1    1    2  501    0  0.64085539194E+02  0.32127283809E+03 -0.12217652422E+03  0.34964309788E+03  0.00000000000E+00 0. -1.
<scales pt_clust_5="13000.00000" pt_clust_6="13000.00000" pt_clust_7="13000.00000" pt_clust_8="13000.00000" pt_clust_9="37.52240" pt_clust_10="313.92587"></scales>
<clustering>
<clus scale="   37.522">  2  9  1 -1</clus>
<clus scale="   80.576">  5  6 -1 -1</clus>
<clus scale="   90.474">  7  8 -1 -1</clus>
<clus scale="  133.502">  2  5  1 -1</clus>
<clus scale="  313.926">  1 10  2 -1</clus>
<clus scale="  313.926">  1  5  2 -1</clus>
</clustering>
</event>
<event>
10    4  0.3738096E-005  0.9739783E+02  0.7546771E-02  0.1291488E+00
          2   -1    0    0  503    0 -0.00000000000E+00  0.00000000000E+00  0.28072244147E+03  0.28072244147E+03  0.00000000000E+00 0. -1.
         21   -1    0    0  501  502  0.00000000000E+00 -0.00000000000E+00 -0.20329450085E+03  0.20329450085E+03  0.00000000000E+00 0. -1.
         24    2    1    2    0    0 -0.12162380127E+02 -0.40674685557E+02  0.86227649300E+02  0.12559506918E+03  0.80848997299E+02 0.  0.
         23    2    1    2    0    0  0.22017806535E+02 -0.20762112639E+02 -0.42857470575E+02  0.10533012171E+03  0.91333578867E+02 0.  0.
        -11    1    3    3    0    0  0.25240990801E+02 -0.13377235170E+01  0.60414707708E+02  0.65489190164E+02  0.00000000000E+00 0.  1.
         12    1    3    3    0    0 -0.37403370928E+02 -0.39336962040E+02  0.25812941592E+02  0.60105879021E+02  0.00000000000E+00 0. -1.
        -11    1    4    4    0    0 -0.39414593085E+01 -0.53134126617E+02 -0.14999668947E+02  0.55351247333E+02  0.00000000000E+00 0. -1.
         11    1    4    4    0    0  0.25959265843E+02  0.32372013977E+02 -0.27857801628E+02  0.49978874373E+02  0.00000000000E+00 0.  1.
         21    1    1    2  503  502 -0.26074217229E+02  0.13934411963E+02  0.13615237518E+03  0.13932516610E+03  0.00000000000E+00 0. -1.
          1    1    1    2  501    0  0.16218790821E+02  0.47502386233E+02 -0.10209461329E+03  0.11376658532E+03  0.00000000000E+00 0. -1.
<scales pt_clust_5="13000.00000" pt_clust_6="13000.00000" pt_clust_7="13000.00000" pt_clust_8="13000.00000" pt_clust_9="29.56404" pt_clust_10="50.40331"></scales>
<clustering>
<clus scale="   29.564">  1  9  2 -1</clus>
<clus scale="   50.403">  2 10  1 -1</clus>
<clus scale="   80.849">  5  6 -1 -1</clus>
<clus scale="   87.642">  1  5  2 -1</clus>
<clus scale="   91.334">  7  8 -1 -1</clus>
<clus scale="   50.403">  2  5  1 -1</clus>
</clustering>
</event>
<event>
10    4  0.3738096E-005  0.1000902E+03  0.7546771E-02  0.1288545E+00
         -3   -1    0    0    0  501 -0.00000000000E+00  0.00000000000E+00  0.56482456421E+02  0.56482456421E+02  0.00000000000E+00 0.  1.
         21   -1    0    0  503  502  0.00000000000E+00 -0.00000000000E+00 -0.60573806214E+03  0.60573806214E+03  0.00000000000E+00 0. -1.
         23    2    1    2    0    0  0.22571988561E+02  0.13305890926E+00 -0.28087006922E+02  0.10502837632E+03  0.98653775913E+02 0.  0.
         24    2    1    2    0    0  0.20417795919E+02 -0.15750121393E+02 -0.42002926570E+03  0.42905258638E+03  0.83645592380E+02 0.  0.
        -11    1    4    4    0    0  0.18526238444E+02  0.18276279823E+02 -0.41448116826E+02  0.48940681478E+02  0.00000000000E+00 0.  1.
         12    1    4    4    0    0  0.18915574748E+01 -0.34026401216E+02 -0.37858114887E+03  0.38011190491E+03  0.00000000000E+00 0. -1.
        -11    1    3    3    0    0  0.41382627131E+02  0.35244456361E+02 -0.34929156377E+02  0.64612224057E+02  0.00000000000E+00 0.  1.
         11    1    3    3    0    0 -0.18810638570E+02 -0.35111397452E+02  0.68421494547E+01  0.40416152261E+02  0.00000000000E+00 0. -1.
         21    1    1    2  503  501 -0.31035460840E+02  0.39485312098E+02 -0.78223594127E+02  0.92958164672E+02  0.00000000000E+00 0. -1.
         -4    1    1    2    0  502 -0.11954323640E+02 -0.23868249614E+02 -0.22915738971E+02  0.35181391188E+02  0.00000000000E+00 0.  1.
<scales pt_clust_5="13000.00000" pt_clust_6="13000.00000" pt_clust_7="13000.00000" pt_clust_8="13000.00000" pt_clust_9="48.66584" pt_clust_10="26.69457"></scales>
<clustering>
<clus scale="   26.695">  2 10  1 -1</clus>
<clus scale="   48.666">  2  9  1 -1</clus>
<clus scale="   83.646">  5  6 -1 -1</clus>
<clus scale="   85.335">  2  5  1 -1</clus>
<clus scale="   98.654">  7  8 -1 -1</clus>
<clus scale="   26.695">  2  5  1 -1</clus>
</clustering>
</event>
<event>
10    4  0.3738096E-005  0.1652820E+03  0.7546771E-02  0.1195193E+00
         -1   -1    0    0    0  501 -0.00000000000E+00  0.00000000000E+00  0.20160522009E+03  0.20160522009E+03  0.00000000000E+00 0.  1.
         21   -1    0    0  503  502  0.00000000000E+00 -0.00000000000E+00 -0.49656577452E+03  0.49656577452E+03  0.00000000000E+00 0.  1.
         23    2    1    2    0    0 -0.49674178358E+02  0.66947076332E+02 -0.35847665636E+02  0.13641315422E+03  0.10185312213E+03 0.  0.
         24    2    1    2    0    0 -0.91900143945E+02 -0.88470607585E+02 -0.30455244192E+03  0.33944101214E+03  0.78710393109E+02 0.  0.
        -11    1    4    4    0    0 -0.48309268562E+02 -0.67368180315E+02 -0.26257535553E+03  0.27535082073E+03  0.00000000000E+00 0.  1.
         12    1    4    4    0    0 -0.43590875382E+02 -0.21102427270E+02 -0.41977086393E+02  0.64090191413E+02  0.00000000000E+00 0. -1.
        -13    1    3    3    0    0  0.24143432931E+01  0.69212170505E+02 -0.46209853522E+02  0.83255655436E+02  0.00000000000E+00 0.  1.
         13    1    3    3    0    0 -0.52088521651E+02 -0.22650941730E+01  0.10362187886E+02  0.53157498786E+02  0.00000000000E+00 0. -1.
         21    1    1    2  503  501  0.12682793752E+03  0.73768101387E+02  0.70200710748E+02  0.16265054044E+03  0.00000000000E+00 0.  1.
         -2    1    1    2    0  502  0.14746384786E+02 -0.52244570134E+02 -0.24761157623E+02  0.59666287798E+02  0.00000000000E+00 0.  1.
<scales pt_clust_5="13000.00000" pt_clust_6="13000.00000" pt_clust_7="13000.00000" pt_clust_8="13000.00000" pt_clust_9="145.33694" pt_clust_10="54.28585"></scales>
<clustering>
<clus scale="   54.286">  2 10  1 -1</clus>
<clus scale="   78.710">  5  6 -1 -1</clus>
<clus scale="  101.853">  7  8 -1 -1</clus>
<clus scale="  125.800">  1  7  2 -1</clus>
<clus scale="  145.337">  1  9  2 -1</clus>
<clus scale="   54.286">  2  5  1 -1</clus>
</clustering>
</event>
<event>
10    4  0.3738096E-005  0.1600291E+03  0.7546771E-02  0.1224087E+00
         21   -1    0    0  501  502  0.00000000000E+00  0.00000000000E+00  0.11863236058E+03  0.11863236058E+03  0.00000000000E+00 0. -1.
          2   -1    0    0  503    0 -0.00000000000E+00 -0.00000000000E+00 -0.88343025376E+03  0.88343025376E+03  0.00000000000E+00 0. -1.
         24    2    1    2    0    0 -0.83860136153E+01 -0.29287950389E+01  0.27556931020E+02  0.79363228907E+02  0.73893400183E+02 0.  0.
         23    2    1    2    0    0  0.15333671691E+03 -0.62209663265E+02 -0.48132840426E+03  0.51693163997E+03  0.90327718342E+02 0.  0.
        -11    1    3    3    0    0  0.32874266028E+02 -0.23413169400E+01  0.93314954666E+01  0.34253115764E+02  0.00000000000E+00 0.  1.
         12    1    3    3    0    0 -0.41260279643E+02 -0.58747809896E+00  0.18225435553E+02  0.45110113144E+02  0.00000000000E+00 0. -1.
        -11    1    4    4    0    0  0.78118969883E+02 -0.21431985593E+02 -0.11450138569E+03  0.14025858543E+03  0.00000000000E+00 0.  1.
         11    1    4    4    0    0  0.75217747022E+02 -0.40777677672E+02 -0.36682701857E+03  0.37667305454E+03  0.00000000000E+00 0. -1.
         21    1    1    2  503  502 -0.52233680583E+02 -0.22599640896E+02 -0.26347046660E+03  0.26954737603E+03  0.00000000000E+00 0. -1.
          1    1    1    2  501    0 -0.92717022706E+02  0.87738099200E+02 -0.47555953340E+02  0.13622036943E+03  0.00000000000E+00 0. -1.
<scales pt_clust_5="13000.00000" pt_clust_6="13000.00000" pt_clust_7="13000.00000" pt_clust_8="13000.00000" pt_clust_9="56.91310" pt_clust_10="132.09925"></scales>
<clustering>
<clus scale="   56.913">  2  9  1 -1</clus>
<clus scale="   73.893">  5  6 -1 -1</clus>
<clus scale="   74.748">  2  5  1 -1</clus>
<clus scale="   90.328">  7  8 -1 -1</clus>
<clus scale="  132.099">  1 10  2 -1</clus>
<clus scale="  132.099">  1  5  2 -1</clus>
</clustering>
</event>
<event>
10    4  0.3738096E-005  0.1987227E+03  0.7546771E-02  0.1158705E+00
         21   -1    0    0  501  502  0.00000000000E+00  0.00000000000E+00  0.17654277640E+03  0.17654277640E+03  0.00000000000E+00 0. -1.
          2   -1    0    0  503    0 -0.00000000000E+00 -0.00000000000E+00 -0.85462227603E+03  0.85462227603E+03  0.00000000000E+00 0. -1.
         24    2    1    2    0    0 -0.99187405653E+02 -0.46387255007E+02 -0.39747060502E+03  0.41957788464E+03  0.77928175622E+02 0.  0.
         23    2    1    2    0    0  0.64730138232E+02  0.20620159470E+03 -0.12093702849E+03  0.26414467055E+03  0.91856157479E+02 0.  0.
        -13    1    3    3    0    0 -0.59428050951E+02  0.12444621273E+02 -0.22533643135E+03  0.23337323996E+03  0.00000000000E+00 0.  1.
         14    1    3    3    0    0 -0.39759354702E+02 -0.58831876280E+02 -0.17213417367E+03  0.18620464468E+03  0.00000000000E+00 0. -1.
        -13    1    4    4    0    0 -0.13404207323E+02  0.57262625597E+02 -0.63176475076E+02  0.86313081669E+02  0.00000000000E+00 0.  1.
         13    1    4    4    0    0  0.78134345555E+02  0.14893896910E+03 -0.57760553417E+02  0.17783158888E+03  0.00000000000E+00 0. -1.
         21    1    1    2  503  502 -0.63648912376E+02 -0.68216211245E+01 -0.15268651445E+03  0.16556234552E+03  0.00000000000E+00 0.  1.
          1    1    1    2  501    0  0.98106179797E+02 -0.15299271857E+03 -0.69853516698E+01  0.18188015171E+03  0.00000000000E+00 0. -1.
<scales pt_clust_5="13000.00000" pt_clust_6="13000.00000" pt_clust_7="13000.00000" pt_clust_8="13000.00000" pt_clust_9="64.01342" pt_clust_10="176.21902"></scales>
<clustering>
<clus scale="   64.013">  2  9  1 -1</clus>
<clus scale="   77.928">  5  6 -1 -1</clus>
<clus scale="   91.856">  7  8 -1 -1</clus>
<clus scale="  165.120">  2  5  1 -1</clus>
<clus scale="  176.219">  1 10  2 -1</clus>
<clus scale="  176.219">  1  5  2 -1</clus>
</clustering>
</event>
<event>
10    4  0.3738096E-005  0.9307208E+02  0.7546771E-02  0.1299386E+00
         -3   -1    0    0    0  501 -0.00000000000E+00  0.00000000000E+00  0.59865940379E+03  0.59865940379E+03  0.00000000000E+00 0.  1.
         21   -1    0    0  501  502  0.00000000000E+00 -0.00000000000E+00 -0.35934794416E+02  0.35934794416E+02  0.00000000000E+00 0. -1.
         24    2    1    2    0    0 -0.14287662568E+02 -0.89332889977E+01  0.28565544442E+03  0.29799138137E+03  0.83161827115E+02 0.  0.
         23    2    1    2    0    0  0.11855310547E+02  0.65868680763E+02  0.10417092877E+03  0.15292309174E+03  0.89747747006E+02 0.  0.
        -13    1    3    3    0    0 -0.39672574639E+02  0.20345473846E+02  0.12450525705E+03  0.13224753501E+03  0.00000000000E+00 0.  1.
         14    1    3    3    0    0  0.25384912071E+02 -0.29278762844E+02  0.16115018737E+03  0.16574384636E+03  0.00000000000E+00 0. -1.
        -11    1    4    4    0    0  0.29452622657E+02  0.89183238584E+01  0.84857582073E+02  0.90265179982E+02  0.00000000000E+00 0.  1.
         11    1    4    4    0    0 -0.17597312110E+02  0.56950356904E+02  0.19313346693E+02  0.62657911755E+02  0.00000000000E+00 0. -1.
         21    1    1    2  503  502 -0.10538400109E+02 -0.28031759708E+02  0.94138125916E+02  0.98786761158E+02  0.00000000000E+00 0. -1.
         -4    1    1    2    0  503  0.12970752130E+02 -0.28903632057E+02  0.78760110269E+02  0.84892963940E+02  0.00000000000E+00 0.  1.
<scales pt_clust_5="13000.00000" pt_clust_6="13000.00000" pt_clust_7="13000.00000" pt_clust_8="13000.00000" pt_clust_9="23.75349" pt_clust_10="62.00359"></scales>
<clustering>
<clus scale="   23.753">  9 10 -1 -1</clus>
<clus scale="   62.004">  2  9  1 -1</clus>
<clus scale="   83.162">  5  6 -1 -1</clus>
<clus scale="   86.739">  1  5  2 -1</clus>
<clus scale="   89.748">  7  8 -1 -1</clus>
<clus scale="   62.004">  2  5  1 -1</clus>
</clustering>
</event>
<event>
10    4  0.3738096E-005  0.1256899E+03  0.7546771E-02  0.1236793E+00
         21   -1    0    0  503  502  0.00000000000E+00  0.00000000000E+00  0.97094842833E+03  0.97094842833E+03  0.00000000000E+00 0. -1.
         -3   -1    0    0    0  501 -0.00000000000E+00 -0.00000000000E+00 -0.40609906812E+02  0.40609906812E+02  0.00000000000E+00 0.  1.
         23    2    1    2    0    0 -0.31650602237E+02 -0.80637671991E+02  0.93268884611E+02  0.15662815437E+03  0.91263898326E+02 0.  0.
         24    2    1    2    0    0  0.32499476346E+02  0.78805239521E+02  0.72291958687E+03  0.73246094011E+03  0.81362263798E+02 0.  0.
        -11    1    4    4    0    0  0.52986957583E+02  0.56979243795E+02  0.36020079533E+03  0.36850897527E+03  0.00000000000E+00 0.  1.
         12    1    4    4    0    0 -0.20487481236E+02  0.21825995725E+02  0.36271879154E+03  0.36395196484E+03  0.00000000000E+00 0. -1.
        -13    1    3    3    0    0  0.29181866896E+02 -0.22336567280E+02  0.49584211530E+02  0.61717887411E+02  0.00000000000E+00 0. -1.
         13    1    3    3    0    0 -0.60832469134E+02 -0.58301104711E+02  0.43684673081E+02  0.94910266956E+02  0.00000000000E+00 0.  1.
         21    1    1    2  503  501  0.20437900755E+02  0.82499019202E+01  0.52836949831E+02  0.57249558395E+02  0.00000000000E+00 0. -1.
         -4    1    1    2    0  502 -0.21286774864E+02 -0.64174694496E+01  0.61313100209E+02  0.65219682271E+02  0.00000000000E+00 0.  1.
<scales pt_clust_5="13000.00000" pt_clust_6="13000.00000" pt_clust_7="13000.00000" pt_clust_8="13000.00000" pt_clust_9="22.04016" pt_clust_10="20.71741"></scales>
<clustering>
<clus scale="   22.040">  1  9  2 -1</clus>
<clus scale="   20.717">  1 10  2 -1</clus>
<clus scale="   81.362">  5  6 -1 -1</clus>
<clus scale="   91.264">  7  8 -1 -1</clus>
<clus scale="  118.696">  1  5  2 -1</clus>
<clus scale="   22.040">  1  5  2 -1</clus>
</clustering>
</event>
<event>
10    4  0.3738096E-005  0.1057012E+03  0.7546771E-02  0.1270980E+00
         21   -1    0    0  501  502  0.00000000000E+00  0.00000000000E+00  0.34621854101E+03  0.34621854101E+03  0.00000000000E+00 0.  1.
          2   -1    0    0  503    0 -0.00000000000E+00 -0.00000000000E+00 -0.14279738050E+03  0.14279738050E+03  0.00000000000E+00 0. -1.
         24    2    1    2    0    0  0.23779431958E+02  0.28184503207E+02  0.85906234687E+02  0.12482020861E+03  0.82706563915E+02 0.  0.
         23    2    1    2    0    0 -0.42951601842E+02 -0.88488892122E+02  0.16764501094E+03  0.21341531345E+03  0.88125604634E+02 0.  0.
        -11    1    3    3    0    0 -0.41228573302E+01 -0.20175001578E+02 -0.19931275612E+01  0.20688189837E+02  0.00000000000E+00 0.  1.
         12    1    3    3    0    0  0.27902289288E+02  0.48359504785E+02  0.87899362248E+02  0.10413201878E+03  0.00000000000E+00 0. -1.
        -13    1    4    4    0    0 -0.18032131501E+02 -0.91685684865E+02  0.82530839886E+02  0.12467061445E+03  0.00000000000E+00 0.  1.
         13    1    4    4    0    0 -0.24919470341E+02  0.31967927435E+01  0.85114171054E+02  0.88744698998E+02  0.00000000000E+00 0. -1.
         21    1    1    2  503  502  0.38994598343E+02 -0.30248281368E+02 -0.14081840213E+02  0.51320906553E+02  0.00000000000E+00 0.  1.
          1    1    1    2  501    0 -0.19822428459E+02  0.90552670283E+02 -0.36048244907E+02  0.99459492891E+02  0.00000000000E+00 0. -1.
<scales pt_clust_5="13000.00000" pt_clust_6="13000.00000" pt_clust_7="13000.00000" pt_clust_8="13000.00000" pt_clust_9="49.35116" pt_clust_10="72.05875"></scales>
<clustering>
<clus scale="   49.351">  2  9  1 -1</clus>
<clus scale="   72.059">  1 10  2 -1</clus>
<clus scale="   82.707">  5  6 -1 -1</clus>
<clus scale="   88.126">  7  8 -1 -1</clus>
<clus scale="  101.228">  2  5  1 -1</clus>
<clus scale="   72.059">  1  5  2 -1</clus>
</clustering>
</event>
<event>
10    4  0.3738096E-005  0.2940250E+03  0.7546771E-02  0.1088550E+00
         -3   -1    0    0    0  501 -0.00000000000E+00  0.00000000000E+00  0.57681080057E+03  0.57681080057E+03  0.00000000000E+00 0.  1.
         21   -1    0    0  503  502  0.00000000000E+00 -0.00000000000E+00 -0.77706406361E+03  0.77706406361E+03  0.00000000000E+00 0. -1.
         24    2    1    2    0    0 -0.14556932579E+03  0.13725589424E+03  0.29370890011E+03  0.36444052501E+03  0.80761185924E+02 0.  0.
         23    2    1    2    0    0  0.41280151336E+03 -0.10282899306E+03 -0.40422364006E+03  0.59345626325E+03  0.88400757696E+02 0.  0.
        -11    1    3    3    0    0 -0.79401330540E+02  0.11867982853E+03  0.16250763886E+03  0.21632892936E+03  0.00000000000E+00 0.  1.
         12    1    3    3    0    0 -0.66167995248E+02  0.18576065715E+02  0.13120126124E+03  0.14811159565E+03  0.00000000000E+00 0. -1.
        -11    1    4    4    0    0  0.16994395028E+03 -0.72550748222E+02 -0.21892715159E+03  0.28648499962E+03  0.00000000000E+00 0.  1.
         11    1    4    4    0    0  0.24285756307E+03 -0.30278244840E+02 -0.18529648847E+03  0.30697126362E+03  0.00000000000E+00 0. -1.
         21    1    1    2  503  501 -0.13354103619E+03 -0.10153732193E+03  0.65778770875E+02  0.18019401430E+03  0.00000000000E+00 0.  1.
         -4    1    1    2    0  502 -0.13369115138E+03  0.67110420752E+02 -0.15551729397E+03  0.21578406163E+03  0.00000000000E+00 0.  1.
<scales pt_clust_5="13000.00000" pt_clust_6="13000.00000" pt_clust_7="13000.00000" pt_clust_8="13000.00000" pt_clust_9="174.60823" pt_clust_10="149.58988"></scales>
<clustering>
<clus scale="   80.761">  5  6 -1 -1</clus>
<clus scale="   88.401">  7  8 -1 -1</clus>
<clus scale="  149.590">  2 10  1 -1</clus>
<clus scale="  174.608">  1  9  2 -1</clus>
<clus scale="  291.819">  1  5  2 -1</clus>
<clus scale="  149.590">  2  5  1 -1</clus>
</clustering>
</event>
<event>
10    4  0.3738096E-005  0.1181200E+03  0.7546771E-02  0.1249676E+00
          4   -1    0    0  503    0 -0.00000000000E+00  0.00000000000E+00  0.19251286625E+04  0.19251286625E+04  0.00000000000E+00 0. -1.
         21   -1    0    0  501  502  0.00000000000E+00 -0.00000000000E+00 -0.43022728628E+02  0.43022728628E+02  0.00000000000E+00 0. -1.
         24    2    1    2    0    0  0.40578647976E+02  0.96005484821E+02  0.15284641161E+04  0.15341201526E+04  0.80364225026E+02 0.  0.
         23    2    1    2    0    0 -0.56322645829E+02 -0.15799528545E+02  0.14017594106E+03  0.17700052598E+03  0.90873682703E+02 0.  0.
        -13    1    3    3    0    0 -0.33660045652E+01  0.30215816480E+02  0.13366594537E+03  0.13707994202E+03  0.00000000000E+00 0.  1.
         14    1    3    3    0    0  0.43944652541E+02  0.65789668340E+02  0.13947981707E+04  0.13970402106E+04  0.00000000000E+00 0. -1.
        -11    1    4    4    0    0 -0.42266766621E+02  0.34532609212E+02  0.58235668371E+02  0.79814621031E+02  0.00000000000E+00 0.  1.
         11    1    4    4    0    0 -0.14055879208E+02 -0.50332137758E+02  0.81940272693E+02  0.97185904948E+02  0.00000000000E+00 0. -1.
         21    1    1    2  503  502  0.47975707829E+01 -0.32821823812E+02  0.20500117566E+03  0.20766745250E+03  0.00000000000E+00 0. -1.
          3    1    1    2  501    0  0.10946427071E+02 -0.47384132463E+02  0.84647010088E+01  0.49363260003E+02  0.00000000000E+00 0. -1.
<scales pt_clust_5="13000.00000" pt_clust_6="13000.00000" pt_clust_7="13000.00000" pt_clust_8="13000.00000" pt_clust_9="33.17060" pt_clust_10="49.18825"></scales>
<clustering>
<clus scale="   33.171">  1  9  2 -1</clus>
<clus scale="   49.188">  2 10  1 -1</clus>
<clus scale="   80.364">  5  6 -1 -1</clus>
<clus scale="   90.874">  7  8 -1 -1</clus>
<clus scale="  110.239">  1  5  2 -1</clus>
<clus scale="   49.188">  2  5  1 -1</clus>
</clustering>
</event>
<event>
10    4  0.3738096E-005  0.1035298E+03  0.7546771E-02  0.1275995E+00
          2   -1    0    0  503    0 -0.00000000000E+00  0.00000000000E+00  0.35370467214E+03  0.35370467214E+03  0.00000000000E+00 0. -1.
         21   -1    0    0  501  502  0.00000000000E+00 -0.00000000000E+00 -0.14496443897E+03  0.14496443897E+03  0.00000000000E+00 0. -1.
         24    2    1    2    0    0 -0.14666410773E+01  0.18957185500E+02  0.18995716652E+03  0.20750951159E+03  0.81332320597E+02 0.  0.
         23    2    1    2    0    0  0.31358195735E+02 -0.43344042781E+02  0.12743272132E+02  0.10386387998E+03  0.88109432500E+02 0.  0.
        -11    1    3    3    0    0 -0.44569338273E+01 -0.31019378405E+02  0.96867197735E+02  0.10181021605E+03  0.00000000000E+00 0.  1.
         12    1    3    3    0    0  0.29902927501E+01  0.49976563905E+02  0.93089968781E+02  0.10569929554E+03  0.00000000000E+00 0. -1.
        -13    1    4    4    0    0 -0.72869361880E+01 -0.59867692963E+02  0.13797674265E+01  0.60325316890E+02  0.00000000000E+00 0.  1.
         13    1    4    4    0    0  0.38645131924E+02  0.16523650182E+02  0.11363504705E+02  0.43538563090E+02  0.00000000000E+00 0. -1.
         21    1    1    2  503  502 -0.53685002289E+02  0.34863665343E+02  0.83715788659E+02  0.10538447657E+03  0.00000000000E+00 0. -1.
          1    1    1    2  501    0  0.23793447630E+02 -0.10476808062E+02 -0.77675994142E+02  0.81911242960E+02  0.00000000000E+00 0. -1.
<scales pt_clust_5="13000.00000" pt_clust_6="13000.00000" pt_clust_7="13000.00000" pt_clust_8="13000.00000" pt_clust_9="59.75016" pt_clust_10="25.99792"></scales>
<clustering>
<clus scale="   25.998">  2 10  1 -1</clus>
<clus scale="   59.750">  1  9  2 -1</clus>
<clus scale="   81.332">  5  6 -1 -1</clus>
<clus scale="   88.109">  7  8 -1 -1</clus>
<clus scale="   97.827">  1  5  2 -1</clus>
<clus scale="   25.998">  2  5  1 -1</clus>
</clustering>
</event>
<event>
10    4  0.3738096E-005  0.1250529E+03  0.7546771E-02  0.1241924E+00
          2   -1    0    0  503    0 -0.00000000000E+00  0.00000000000E+00  0.50519968311E+03  0.50519968311E+03  0.00000000000E+00 0. -1.
         21   -1    0    0  501  502  0.00000000000E+00 -0.00000000000E+00 -0.60778529577E+02  0.60778529577E+02  0.00000000000E+00 0.  1.
         23    2    1    2    0    0 -0.10302689585E+03  0.24829333680E+02  0.27926328050E+03  0.31406402329E+03  0.97042226957E+02 0.  0.
         24    2    1    2    0    0  0.67005095595E+02  0.17698451778E+02  0.54989873604E+02  0.11573863520E+03  0.74623236643E+02 0.  0.
        -11    1    4    4    0    0  0.40299989268E+02  0.46695794809E+02  0.26672773792E+02  0.67201363451E+02  0.00000000000E+00 0.  1.
         12    1    4    4    0    0  0.26705106327E+02 -0.28997343031E+02  0.28317099811E+02  0.48537271745E+02  0.00000000000E+00 0. -1.
        -11    1    3    3    0    0 -0.19325152552E+02 -0.35465313011E+02  0.72272246731E+02  0.82792074474E+02  0.00000000000E+00 0. -1.
         11    1    3    3    0    0 -0.83701743293E+02  0.60294646691E+02  0.20699103376E+03  0.23127194882E+03  0.00000000000E+00 0.  1.
         21    1    1    2  503  502  0.29670504382E+02 -0.12688309314E+02  0.98264751279E+02  0.10342772050E+03  0.00000000000E+00 0. -1.
          1    1    1    2  501    0  0.63512958687E+01 -0.29839476144E+02  0.11903248158E+02  0.32747833707E+02  0.00000000000E+00 0. -1.
<scales pt_clust_5="13000.00000" pt_clust_6="13000.00000" pt_clust_7="13000.00000" pt_clust_8="13000.00000" pt_clust_9="33.19515" pt_clust_10="30.50792"></scales>
<clustering>
<clus scale="   30.508">  2 10  1 -1</clus>
<clus scale="   33.195">  1  9  2 -1</clus>
<clus scale="   74.623">  5  6 -1 -1</clus>
<clus scale="   97.042">  7  8 -1 -1</clus>
<clus scale="  108.580">  2  5  1 -1</clus>
<clus scale="   30.508">  2  5  1 -1</clus>
</clustering>
</event>
<event>
10    4  0.3738096E-005  0.2978462E+03  0.7546771E-02  0.1126050E+00
         -1   -1    0    0    0  501 -0.00000000000E+00  0.00000000000E+00  0.41248472989E+03  0.41248472989E+03  0.00000000000E+00 0.  1.
         21   -1    0    0  503  502  0.00000000000E+00 -0.00000000000E+00 -0.36247674836E+03  0.36247674836E+03  0.00000000000E+00 0.  1.
         24    2    1    2    0    0  0.39259749319E+02  0.48035011476E+02  0.63351665455E+02  0.12348754414E+03  0.85947948194E+02 0.  0.
         23    2    1    2    0    0  0.20240186448E+03  0.16104388183E+03 -0.79093043804E+02  0.28438240021E+03  0.87840727186E+02 0.  0.
        -13    1    3    3    0    0  0.27722581884E+02  0.73221699615E+02  0.46517696175E+02  0.91070603919E+02  0.00000000000E+00 0.  1.
         14    1    3    3    0    0  0.11537167436E+02 -0.25186688139E+02  0.16833969280E+02  0.32416940225E+02  0.00000000000E+00 0. -1.
        -13    1    4    4    0    0  0.16849417301E+03  0.95656212289E+02 -0.30496101164E+02  0.19613875056E+03  0.00000000000E+00 0. -1.
         13    1    4    4    0    0  0.33907691470E+02  0.65387669543E+02 -0.48596942640E+02  0.88243649647E+02  0.00000000000E+00 0.  1.
         21    1    1    2  503  501  0.23645913538E+02 -0.73183349038E+01  0.17485334862E+02  0.30305514152E+02  0.00000000000E+00 0.  1.
         -2    1    1    2    0  502 -0.26530752733E+03 -0.20176055840E+03  0.48264025017E+02  0.33678601975E+03  0.00000000000E+00 0.  1.
<scales pt_clust_5="13000.00000" pt_clust_6="13000.00000" pt_clust_7="13000.00000" pt_clust_8="13000.00000" pt_clust_9="24.75252" pt_clust_10="284.59873"></scales>
<clustering>
<clus scale="   24.753">  1  9  2 -1</clus>
<clus scale="   85.948">  5  6 -1 -1</clus>
<clus scale="   87.841">  7  8 -1 -1</clus>
<clus scale="  107.464">  1  5  2 -1</clus>
<clus scale="  284.599">  2 10  1 -1</clus>
<clus scale="  284.599">  2  5  1 -1</clus>
</clustering>
</event>
<event>
10    4  0.3738096E-005  0.2962259E+03  0.7546771E-02  0.1100477E+00
          2   -1    0    0  503    0 -0.00000000000E+00  0.00000000000E+00  0.27912727133E+04  0.27912727133E+04  0.00000000000E+00 0. -1.
         21   -1    0    0  501  502  0.00000000000E+00 -0.00000000000E+00 -0.94255780803E+02  0.94255780803E+02  0.00000000000E+00 0. -1.
         23    2    1    2    0    0  0.10816489578E+03 -0.16459457605E+03  0.76688084129E+03  0.79698193092E+03  0.91010737440E+02 0.  0.
         24    2    1    2    0    0  0.20253768274E+03  0.10516920714E+03  0.14507803520E+04  0.14708272419E+04  0.80542354402E+02 0.  0.
        -13    1    4    4    0    0  0.82953997548E+02  0.71510626876E+02  0.49268939928E+03  0.50471574141E+03  0.00000000000E+00 0.  1.
         14    1    4    4    0    0  0.11958368519E+03  0.33658580267E+02  0.95809095271E+03  0.96611150053E+03  0.00000000000E+00 0. -1.
        -13    1    3    3    0    0  0.58313240934E+01 -0.90082745364E+02  0.33165619039E+03  0.34372188464E+03  0.00000000000E+00 0. -1.
         13    1    3    3    0    0  0.10233357169E+03 -0.74511830691E+02  0.43522465090E+03  0.45326004628E+03  0.00000000000E+00 0.  1.
         21    1    1    2  503  502 -0.61953406069E+01  0.32087927636E+02  0.20294830745E+03  0.20556272240E+03  0.00000000000E+00 0. -1.
          1    1    1    2  501    0 -0.30450723791E+03  0.27337441276E+02  0.27640743179E+03  0.41215659886E+03  0.00000000000E+00 0. -1.
<scales pt_clust_5="13000.00000" pt_clust_6="13000.00000" pt_clust_7="13000.00000" pt_clust_8="13000.00000" pt_clust_9="32.68053" pt_clust_10="285.06617"></scales>
<clustering>
<clus scale="   32.681">  1  9  2 -1</clus>
<clus scale="   80.542">  5  6 -1 -1</clus>
<clus scale="   91.011">  7  8 -1 -1</clus>
<clus scale="  208.743">  1  7  2 -1</clus>
<clus scale="  285.066">  2 10  1 -1</clus>
<clus scale="  285.066">  2  5  1 -1</clus>
</clustering>
</event>
<event>
10    4  0.3738096E-005  0.1071715E+03  0.7546771E-02  0.1270522E+00
         21   -1    0    0  501  502  0.00000000000E+00  0.00000000000E+00  0.11883636121E+03  0.11883636121E+03  0.00000000000E+00 0. -1.
          2   -1    0    0  503    0 -0.00000000000E+00 -0.00000000000E+00 -0.81250213528E+03  0.81250213528E+03  0.00000000000E+00 0. -1.
         24    2    1    2    0    0 -0.30769939132E+02  0.42162029400E+02 -0.67037289718E+03  0.67713781697E+03  0.79946081947E+02 0.  0.
         23    2    1    2    0    0  0.86577102815E+02  0.14005531140E+02 -0.18762715210E+01  0.12638150835E+03  0.90978105193E+02 0.  0.
        -13    1    3    3    0    0 -0.92126090286E+01  0.56979558362E+02 -0.27988178132E+03  0.28577150619E+03  0.00000000000E+00 0.  1.
         14    1    3    3    0    0 -0.21557330104E+02 -0.14817528962E+02 -0.39049111586E+03  0.39136631078E+03  0.00000000000E+00 0. -1.
        -11    1    4    4    0    0  0.92776481862E+02  0.38811700601E+02 -0.45675152165E+01  0.10067117703E+03  0.00000000000E+00 0. -1.
         11    1    4    4    0    0 -0.61993790467E+01 -0.24806169461E+02  0.26912436956E+01  0.25710331319E+02  0.00000000000E+00 0.  1.
         21    1    1    2  503  502 -0.22949428710E+02 -0.35502472970E+02 -0.59797809962E+02  0.73231686730E+02  0.00000000000E+00 0.  1.
          1    1    1    2  501    0 -0.32857734973E+02 -0.20665087570E+02  0.38381204594E+02  0.54587484444E+02  0.00000000000E+00 0. -1.
<scales pt_clust_5="13000.00000" pt_clust_6="13000.00000" pt_clust_7="13000.00000" pt_clust_8="13000.00000" pt_clust_9="45.56665" pt_clust_10="38.81593"></scales>
<clustering>
<clus scale="   38.816">  1 10  2 -1</clus>
<clus scale="   45.567">  2  9  1 -1</clus>
<clus scale="   79.946">  5  6 -1 -1</clus>
<clus scale="   90.978">  7  8 -1 -1</clus>
<clus scale="   97.980">  2  5  1 -1</clus>
<clus scale="   38.816">  1  5  2 -1</clus>
</clustering>
</event>
<event>
10    4  0.3738096E-005  0.1186786E+03  0.7546771E-02  0.1248494E+00
          2   -1    0    0  503    0 -0.00000000000E+00  0.00000000000E+00  0.65064032235E+03  0.65064032235E+03  0.00000000000E+00 0. -1.
         21   -1    0    0  501  502  0.00000000000E+00 -0.00000000000E+00 -0.10298198673E+03  0.10298198673E+03  0.00000000000E+00 0.  1.
         23    2    1    2    0    0 -0.74538210704E+02  0.23577093971E+02  0.55130442131E+03  0.56434261856E+03  0.91837911301E+02 0.  0.
         24    2    1    2    0    0  0.41416081450E+02 -0.37818955429E+02 -0.39210646031E+01  0.99478170553E+02  0.82066841517E+02 0.  0.
        -13    1    4    4    0    0 -0.12003330011E+02 -0.22164134918E+02 -0.29000498439E+02  0.38423400653E+02  0.00000000000E+00 0.  1.
         14    1    4    4    0    0  0.53419411461E+02 -0.15654820510E+02  0.25079433836E+02  0.61054769900E+02  0.00000000000E+00 0. -1.
        -13    1    3    3    0    0 -0.63622460601E+02  0.56583493379E+02  0.41767787415E+03  0.42626789203E+03  0.00000000000E+00 0. -1.
         13    1    3    3    0    0 -0.10915750103E+02 -0.33006399407E+02  0.13362654715E+03  0.13807472653E+03  0.00000000000E+00 0.  1.
         21    1    1    2  503  502  0.23790905443E+02 -0.95058440646E+01  0.37047961867E+02  0.45043531518E+02  0.00000000000E+00 0.  1.
          1    1    1    2  501    0  0.93312238116E+01  0.23747705522E+02 -0.36772982952E+02  0.44757988455E+02  0.00000000000E+00 0. -1.
<scales pt_clust_5="13000.00000" pt_clust_6="13000.00000" pt_clust_7="13000.00000" pt_clust_8="13000.00000" pt_clust_9="25.66272" pt_clust_10="25.51520"></scales>
<clustering>
<clus scale="   25.515">  2 10  1 -1</clus>
<clus scale="   25.663">  2  9  1 -1</clus>
<clus scale="   82.067">  5  6 -1 -1</clus>
<clus scale="   91.838">  7  8 -1 -1</clus>
<clus scale="  111.290">  2  5  1 -1</clus>
<clus scale="   25.515">  2  5  1 -1</clus>
</clustering>
</event>
<event>
10    4  0.3738096E-005  0.1441623E+03  0.7546771E-02  0.1244290E+00
         21   -1    0    0  503  502  0.00000000000E+00  0.00000000000E+00  0.96340748779E+02  0.96340748779E+02  0.00000000000E+00 0. -1.
          2   -1    0    0  502    0 -0.00000000000E+00 -0.00000000000E+00 -0.45323932068E+03  0.45323932068E+03  0.00000000000E+00 0. -1.
         24    2    1    2    0    0 -0.34834842933E+02  0.23048833890E+02 -0.56890827795E+02  0.88325782924E+02  0.53105203287E+02 0.  0.
         23    2    1    2    0    0  0.16138942354E+02 -0.11678243284E+03 -0.41161622120E+01  0.14843780904E+03  0.90101266813E+02 0.  0.
        -13    1    3    3    0    0 -0.41592576619E+02 -0.17380071819E+01 -0.38771283229E+02  0.56887393173E+02  0.00000000000E+00 0.  1.
         14    1    3    3    0    0  0.67577336859E+01  0.24786841072E+02 -0.18119544565E+02  0.31438389751E+02  0.00000000000E+00 0. -1.
        -11    1    4    4    0    0  0.49536041937E+02 -0.42586401773E+02  0.92638249472E+01  0.65979083954E+02  0.00000000000E+00 0.  1.
         11    1    4    4    0    0 -0.33397099584E+02 -0.74196031064E+02 -0.13379987159E+02  0.82458725085E+02  0.00000000000E+00 0. -1.
         21    1    1    2  503  501 -0.69728429140E+01  0.34718168912E+02 -0.13405930472E+03  0.13865737980E+03  0.00000000000E+00 0. -1.
          1    1    1    2  501    0  0.25668743494E+02  0.59015430034E+02 -0.16183227717E+03  0.17415909770E+03  0.00000000000E+00 0. -1.
<scales pt_clust_5="13000.00000" pt_clust_6="13000.00000" pt_clust_7="13000.00000" pt_clust_8="13000.00000" pt_clust_9="25.33813" pt_clust_10="117.60672"></scales>
<clustering>
<clus scale="   25.338">  9 10 -1 -1</clus>
<clus scale="   53.105">  5  6 -1 -1</clus>
<clus scale="   67.564">  2  5  1 -1</clus>
<clus scale="   90.101">  7  8 -1 -1</clus>
<clus scale="  117.607">  1  9  2 -1</clus>
<clus scale="  117.607">  1  5  2 -1</clus>
</clustering>
</event>
<event>
10    4  0.3738096E-005  0.2031034E+03  0.7546771E-02  0.1149099E+00
         21   -1    0    0  503  502  0.00000000000E+00  0.00000000000E+00  0.18554948294E+03  0.18554948294E+03  0.00000000000E+00 0. -1.
          2   -1    0    0  502    0 -0.00000000000E+00 -0.00000000000E+00 -0.57478624284E+03  0.57478624284E+03  0.00000000000E+00 0. -1.
         23    2    1    2    0    0  0.39547473850E+02  0.18796982321E+03 -0.19778897426E+03  0.29280911926E+03  0.98590287847E+02 0.  0.
         24    2    1    2    0    0 -0.12261339506E+03 -0.10946597526E+03  0.56536930520E+02  0.19046239762E+03  0.77863059334E+02 0.  0.
        -13    1    4    4    0    0 -0.49221367781E+00 -0.28285138608E+02  0.30368906715E+02  0.41503756884E+02  0.00000000000E+00 0.  1.
         14    1    4    4    0    0 -0.12212118138E+03 -0.81180836648E+02  0.26168023804E+02  0.14895864074E+03  0.00000000000E+00 0. -1.
        -11    1    3    3    0    0 -0.26876793017E+02  0.10509683573E+03 -0.11548287162E+03  0.15844242021E+03  0.00000000000E+00 0.  1.
         11    1    3    3    0    0  0.66424266867E+02  0.82872987476E+02 -0.82306102641E+02  0.13436669905E+03  0.00000000000E+00 0. -1.
         21    1    1    2  503  501  0.18980076788E+01 -0.22859688482E+02 -0.28936498766E+02  0.36925448562E+02  0.00000000000E+00 0.  1.
          1    1    1    2  501    0  0.81167913532E+02 -0.55644159471E+02 -0.21904821740E+03  0.24013876033E+03  0.00000000000E+00 0. -1.
<scales pt_clust_5="13000.00000" pt_clust_6="13000.00000" pt_clust_7="13000.00000" pt_clust_8="13000.00000" pt_clust_9="22.67258" pt_clust_10="123.56444"></scales>
<clustering>
<clus scale="   22.673">  9 10 -1 -1</clus>
<clus scale="   77.863">  5  6 -1 -1</clus>
<clus scale="   98.590">  7  8 -1 -1</clus>
<clus scale="  123.564">  1  9  2 -1</clus>
<clus scale="  193.891">  1  5  2 -1</clus>
<clus scale="  123.564">  1  5  2 -1</clus>
</clustering>
</event>
<event>
10    4  0.3738096E-005  0.1699178E+03  0.7546771E-02  0.1179303E+00
         21   -1    0    0  501  502  0.00000000000E+00  0.00000000000E+00  0.22512014142E+03  0.22512014142E+03  0.00000000000E+00 0. -1.
          2   -1    0    0  503    0 -0.00000000000E+00 -0.00000000000E+00 -0.42455485746E+03  0.42455485746E+03  0.00000000000E+00 0. -1.
         24    2    1    2    0    0  0.18606852060E+02  0.13512964807E+03 -0.21327791346E+03  0.26571807766E+03  0.80699390891E+02 0.  0.
         23    2    1    2    0    0  0.10055966405E+03 -0.13284668562E+03  0.85456841587E+02  0.20809658095E+03  0.90779002596E+02 0.  0.
        -11    1    3    3    0    0  0.25363280897E+02  0.54817660229E+01 -0.56441232214E+02  0.62120515696E+02  0.00000000000E+00 0.  1.
         12    1    3    3    0    0 -0.67564288367E+01  0.12964788205E+03 -0.15683668125E+03  0.20359756196E+03  0.00000000000E+00 0. -1.
        -11    1    4    4    0    0 -0.14551177812E+02 -0.23462231831E+02  0.27744615763E+02  0.39140475240E+02  0.00000000000E+00 0.  1.
         11    1    4    4    0    0  0.11511084186E+03 -0.10938445379E+03  0.57712225823E+02  0.16895610571E+03  0.00000000000E+00 0. -1.
         21    1    1    2  503  502 -0.14717069580E+02  0.16376290478E+02 -0.66037083767E+02  0.69610857338E+02  0.00000000000E+00 0.  1.
          1    1    1    2  501    0 -0.10444944653E+03 -0.18659252927E+02 -0.55765603942E+01  0.10624948294E+03  0.00000000000E+00 0. -1.
<scales pt_clust_5="13000.00000" pt_clust_6="13000.00000" pt_clust_7="13000.00000" pt_clust_8="13000.00000" pt_clust_9="22.01761" pt_clust_10="107.96224"></scales>
<clustering>
<clus scale="   22.018">  2  9  1 -1</clus>
<clus scale="   80.699">  5  6 -1 -1</clus>
<clus scale="   90.779">  7  8 -1 -1</clus>
<clus scale="  107.962">  1 10  2 -1</clus>
<clus scale="  164.753">  2  5  1 -1</clus>
<clus scale="  107.962">  1  5  2 -1</clus>
</clustering>
</event>
<event>
10    4  0.3738096E-005  0.1676803E+03  0.7546771E-02  0.1182218E+00
          2   -1    0    0  503    0 -0.00000000000E+00  0.00000000000E+00  0.92443516910E+03  0.92443516910E+03  0.00000000000E+00 0. -1.
         21   -1    0    0  501  502  0.00000000000E+00 -0.00000000000E+00 -0.82895390706E+02  0.82895390706E+02  0.00000000000E+00 0.  1.
         23    2    1    2    0    0  0.12285599098E+03  0.47340234060E+02  0.36906879048E+03  0.40267662267E+03  0.92746957163E+02 0.  0.
         24    2    1    2    0    0 -0.12848484180E+03 -0.95861968313E+02  0.19177285919E+03  0.26219439053E+03  0.79190891912E+02 0.  0.
        -11    1    4    4    0    0 -0.13191478829E+03 -0.10242993323E+03  0.16638966473E+03  0.23575182527E+03  0.00000000000E+00 0.  1.
         12    1    4    4    0    0  0.34299464890E+01  0.65679649222E+01  0.25383194463E+02  0.26442565255E+02  0.00000000000E+00 0. -1.
        -11    1    3    3    0    0  0.88977952158E+02  0.22464056784E+02  0.12530548009E+03  0.15531636474E+03  0.00000000000E+00 0.  1.
         11    1    3    3    0    0  0.33878038820E+02  0.24876177276E+02  0.24376331039E+03  0.24736025793E+03  0.00000000000E+00 0. -1.
         21    1    1    2  503  502 -0.31271104922E+02 -0.61689232222E+02  0.54153061580E+02  0.87840750529E+02  0.00000000000E+00 0.  1.
          1    1    1    2  501    0  0.36899955746E+02  0.11021096647E+03  0.22654506715E+03  0.25461879608E+03  0.00000000000E+00 0. -1.
<scales pt_clust_5="13000.00000" pt_clust_6="13000.00000" pt_clust_7="13000.00000" pt_clust_8="13000.00000" pt_clust_9="69.16244" pt_clust_10="101.70533"></scales>
<clustering>
<clus scale="   69.162">  2  9  1 -1</clus>
<clus scale="   79.191">  5  6 -1 -1</clus>
<clus scale="   92.747">  7  8 -1 -1</clus>
<clus scale="  101.705">  2 10  1 -1</clus>
<clus scale="  160.580">  2  5  1 -1</clus>
<clus scale="   69.162">  2  5  1 -1</clus>
</clustering>
</event>
<event>
10    4  0.3738096E-005  0.1092907E+03  0.7546771E-02  0.1263181E+00
          2   -1    0    0  503    0 -0.00000000000E+00  0.00000000000E+00  0.41560075350E+03  0.41560075350E+03  0.00000000000E+00 0. -1.
         21   -1    0    0  501  502  0.00000000000E+00 -0.00000000000E+00 -0.83208326425E+02  0.83208326425E+02  0.00000000000E+00 0.  1.
         24    2    1    2    0    0 -0.75723664667E+02  0.21053210659E+01  0.29581327787E+03  0.31435924652E+03  0.74684233555E+02 0.  0.
         23    2    1    2    0    0  0.77453968628E+02 -0.92315591309E+01 -0.11871604631E+02  0.11131971455E+03  0.78529006805E+02 0.  0.
        -11    1    3    3    0    0 -0.14105489519E+02  0.33320228982E+02  0.81011954099E+02  0.88725076506E+02  0.00000000000E+00 0.  1.
         12    1    3    3    0    0 -0.61618175147E+02 -0.31214907916E+02  0.21480132377E+03  0.22563417001E+03  0.00000000000E+00 0. -1.
        -11    1    4    4    0    0  0.18734332767E+02 -0.81054579950E+01 -0.40971846195E+02  0.45775166348E+02  0.00000000000E+00 0.  1.
         11    1    4    4    0    0  0.58719635861E+02 -0.11261011358E+01  0.29100241564E+02  0.65544548198E+02  0.00000000000E+00 0. -1.
         21    1    1    2  503  502  0.12275735166E+02 -0.20439558842E+02  0.20257799742E+02  0.31286541674E+02  0.00000000000E+00 0.  1.
          1    1    1    2  501    0 -0.14006039128E+02  0.27565796907E+02  0.28192954096E+02  0.41843577187E+02  0.00000000000E+00 0. -1.
<scales pt_clust_5="13000.00000" pt_clust_6="13000.00000" pt_clust_7="13000.00000" pt_clust_8="13000.00000" pt_clust_9="23.84259" pt_clust_10="28.83101"></scales>
<clustering>
<clus scale="   23.843">  2  9  1 -1</clus>
<clus scale="   28.831">  2 10  1 -1</clus>
<clus scale="   74.684">  5  6 -1 -1</clus>
<clus scale="   78.529">  7  8 -1 -1</clus>
<clus scale="  106.562">  1  5  2 -1</clus>
<clus scale="   23.843">  2  5  1 -1</clus>
</clustering>
</event>
<event>
10    4  0.3738096E-005  0.1761598E+03  0.7546771E-02  0.1172496E+00
          2   -1    0    0  503    0 -0.00000000000E+00  0.00000000000E+00  0.74489423999E+03  0.74489423999E+03  0.00000000000E+00 0. -1.
         21   -1    0    0  501  502  0.00000000000E+00 -0.00000000000E+00 -0.25897429788E+03  0.25897429788E+03  0.00000000000E+00 0. -1.
         24    2    1    2    0    0  0.48397490444E+01 -0.16665538787E+03  0.50153031307E+03  0.53514699737E+03  0.83977451694E+02 0.  0.
         23    2    1    2    0    0 -0.40878824374E+02  0.10981066757E+03  0.50600495344E+02  0.15691342407E+03  0.91279524159E+02 0.  0.
        -11    1    3    3    0    0  0.40383128632E+02 -0.12577259917E+03  0.37132835206E+03  0.39412471228E+03  0.00000000000E+00 0.  1.
         12    1    3    3    0    0 -0.35543379587E+02 -0.40882788705E+02  0.13020196101E+03  0.14102228510E+03  0.00000000000E+00 0. -1.
        -13    1    4    4    0    0  0.24987252834E+02  0.53954643688E+02  0.35473514356E+02  0.69237537510E+02  0.00000000000E+00 0. -1.
         13    1    4    4    0    0 -0.65866077208E+02  0.55856023882E+02  0.15126980988E+02  0.87675886563E+02  0.00000000000E+00 0.  1.
         21    1    1    2  503  502 -0.40177879818E+02  0.21773672137E+01  0.10728460034E+03  0.11458179797E+03  0.00000000000E+00 0.  1.
          1    1    1    2  501    0  0.76216955148E+02  0.54667353087E+02 -0.17349546664E+03  0.19722631846E+03  0.00000000000E+00 0. -1.
<scales pt_clust_5="13000.00000" pt_clust_6="13000.00000" pt_clust_7="13000.00000" pt_clust_8="13000.00000" pt_clust_9="40.23684" pt_clust_10="93.20911"></scales>
<clustering>
<clus scale="   40.237">  1  9  2 -1</clus>
<clus scale="   83.977">  5  6 -1 -1</clus>
<clus scale="   91.280">  7  8 -1 -1</clus>
<clus scale="   93.209">  2 10  1 -1</clus>
<clus scale="  172.489">  1  5  2 -1</clus>
<clus scale="   93.209">  2  5  1 -1</clus>
</clustering>
</event>
<event>
10    4  0.3738096E-005  0.2181331E+03  0.7546771E-02  0.1160136E+00
         -1   -1    0    0    0  501 -0.00000000000E+00  0.00000000000E+00  0.82760444698E+03  0.82760444698E+03  0.00000000000E+00 0.  1.
         21   -1    0    0  503  502  0.00000000000E+00 -0.00000000000E+00 -0.16740891889E+03  0.16740891889E+03  0.00000000000E+00 0.  1.
         24    2    1    2    0    0 -0.68808734842E+02  0.79783929409E+02  0.40258819094E+03  0.42275453693E+03  0.74458240838E+02 0.  0.
         23    2    1    2    0    0 -0.60040812901E+02 -0.19877322088E+03 -0.14989762608E+02  0.22653597628E+03  0.89320563215E+02 0.  0.
        -11    1    3    3    0    0 -0.81201988465E+02  0.52125192453E+02  0.26933915058E+03  0.28610203889E+03  0.00000000000E+00 0.  1.
         12    1    3    3    0    0  0.12393253623E+02  0.27658736956E+02  0.13324904035E+03  0.13665249804E+03  0.00000000000E+00 0. -1.
        -11    1    4    4    0    0 -0.70219450576E+02 -0.78665473589E+02 -0.45147405134E+01  0.10554340745E+03  0.00000000000E+00 0.  1.
         11    1    4    4    0    0  0.10178637675E+02 -0.12010774729E+03 -0.10475022095E+02  0.12099256883E+03  0.00000000000E+00 0. -1.
         21    1    1    2  503  501  0.44668443865E+01 -0.22969171870E+02  0.23132085049E+02  0.32903326790E+02  0.00000000000E+00 0.  1.
         -2    1    1    2    0  502  0.12438270336E+03  0.14195846334E+03  0.24946501471E+03  0.31281952588E+03  0.00000000000E+00 0.  1.
<scales pt_clust_5="13000.00000" pt_clust_6="13000.00000" pt_clust_7="13000.00000" pt_clust_8="13000.00000" pt_clust_9="23.39948" pt_clust_10="199.00738"></scales>
<clustering>
<clus scale="   23.399">  1  9  2 -1</clus>
<clus scale="   74.458">  5  6 -1 -1</clus>
<clus scale="   89.321">  7  8 -1 -1</clus>
<clus scale="  120.752">  1  5  2 -1</clus>
<clus scale="  199.007">  2 10  1 -1</clus>
<clus scale="  199.007">  2  5  1 -1</clus>
</clustering>
</event>
<event>
10    4  0.3738096E-005  0.1375403E+03  0.7546771E-02  0.1218929E+00
          2   -1    0    0  503    0 -0.00000000000E+00  0.00000000000E+00  0.66448125151E+03  0.66448125151E+03  0.00000000000E+00 0. -1.
         21   -1    0    0  501  502  0.00000000000E+00 -0.00000000000E+00 -0.90162809837E+02  0.90162809837E+02  0.00000000000E+00 0. -1.
         24    2    1    2    0    0  0.57257931160E+02  0.86495461498E+02  0.18458078755E+03  0.22594917703E+03  0.78886170696E+02 0.  0.
         23    2    1    2    0    0 -0.23996390013E+02 -0.14770976146E+03  0.73182882868E+02  0.18890609908E+03  0.89082992532E+02 0.  0.
        -11    1    3    3    0    0  0.75301518797E+02  0.59283476127E+02  0.11990790586E+03  0.15350164547E+03  0.00000000000E+00 0.  1.
         12    1    3    3    0    0 -0.18043587637E+02  0.27211985371E+02  0.64672881688E+02  0.72447531555E+02  0.00000000000E+00 0. -1.
        -11    1    4    4    0    0  0.94030355118E+01 -0.10429510683E+03  0.82540258213E+02  0.13333709391E+03  0.00000000000E+00 0. -1.
         11    1    4    4    0    0 -0.33399425524E+02 -0.43414654629E+02 -0.93573753452E+01  0.55569005167E+02  0.00000000000E+00 0.  1.
         21    1    1    2  503  502 -0.37503314416E+02 -0.19653444930E+02  0.11726096773E+03  0.12467113156E+03  0.00000000000E+00 0. -1.
          1    1    1    2  501    0  0.42417732689E+01  0.80867744895E+02  0.19929380352E+03  0.21511765369E+03  0.00000000000E+00 0. -1.
<scales pt_clust_5="13000.00000" pt_clust_6="13000.00000" pt_clust_7="13000.00000" pt_clust_8="13000.00000" pt_clust_9="42.34096" pt_clust_10="74.06109"></scales>
<clustering>
<clus scale="   42.341">  1  9  2 -1</clus>
<clus scale="   74.061">  2 10  1 -1</clus>
<clus scale="   78.886">  5  6 -1 -1</clus>
<clus scale="   89.083">  7  8 -1 -1</clus>
<clus scale="  131.166">  1  5  2 -1</clus>
<clus scale="   74.061">  2  5  1 -1</clus>
</clustering>
</event>
<event>
10    4  0.3738096E-005  0.1852241E+03  0.7546771E-02  0.1164087E+00
          2   -1    0    0  503    0 -0.00000000000E+00  0.00000000000E+00  0.49769516578E+03  0.49769516578E+03  0.00000000000E+00 0. -1.
         21   -1    0    0  501  502  0.00000000000E+00 -0.00000000000E+00 -0.20988767421E+03  0.20988767421E+03  0.00000000000E+00 0.  1.
         24    2    1    2    0    0 -0.12859961633E+03  0.17579425703E+03  0.30902712147E+03  0.38637450110E+03  0.79661855182E+02 0.  0.
         23    2    1    2    0    0  0.42641738023E+02 -0.12068198072E+03 -0.53291151894E+02  0.16580599016E+03  0.90935258348E+02 0.  0.
        -13    1    3    3    0    0 -0.93331026234E+02  0.13285558902E+03  0.16270519155E+03  0.22985705851E+03  0.00000000000E+00 0.  1.
         14    1    3    3    0    0 -0.35268590093E+02  0.42938668013E+02  0.14632192992E+03  0.15651744259E+03  0.00000000000E+00 0. -1.
        -11    1    4    4    0    0  0.80290146978E+01 -0.10469902247E+03 -0.67823424568E+02  0.12500546909E+03  0.00000000000E+00 0. -1.
         11    1    4    4    0    0  0.34612723325E+02 -0.15982958254E+02  0.14532272673E+02  0.40800521070E+02  0.00000000000E+00 0.  1.
         21    1    1    2  503  502  0.28064092945E+02 -0.50474744846E+02  0.66348577633E+02  0.87962645106E+02  0.00000000000E+00 0.  1.
          1    1    1    2  501    0  0.57893785359E+02 -0.46375314574E+01 -0.34277055644E+02  0.67439703624E+02  0.00000000000E+00 0. -1.
<scales pt_clust_5="13000.00000" pt_clust_6="13000.00000" pt_clust_7="13000.00000" pt_clust_8="13000.00000" pt_clust_9="57.75200" pt_clust_10="59.37140"></scales>
<clustering>
<clus scale="   57.752">  1  9  2 -1</clus>
<clus scale="   59.371">  2 10  1 -1</clus>
<clus scale="   79.662">  5  6 -1 -1</clus>
<clus scale="   90.935">  7  8 -1 -1</clus>
<clus scale="  179.958">  1  5  2 -1</clus>
<clus scale="   59.371">  2  5  1 -1</clus>
</clustering>
</event>
<event>
10    4  0.3738096E-005  0.2123250E+03  0.7546771E-02  0.1140419E+00
          2   -1    0    0  503    0 -0.00000000000E+00  0.00000000000E+00  0.62256157696E+03  0.62256157696E+03  0.00000000000E+00 0. -1.
         21   -1    0    0  501  502  0.00000000000E+00 -0.00000000000E+00 -0.10855529543E+03  0.10855529543E+03  0.00000000000E+00 0. -1.
         24    2    1    2    0    0 -0.77944900395E+02 -0.15946120852E+03  0.24130555512E+03  0.31013381526E+03  0.80320158841E+02 0.  0.
         23    2    1    2    0    0  0.11280624927E+03  0.18442891419E+03  0.21456569354E+03  0.31731054434E+03  0.88928456902E+02 0.  0.
        -11    1    3    3    0    0  0.89558715906E+01 -0.67455649454E+02  0.77518484653E+02  0.10314837731E+03  0.00000000000E+00 0.  1.
         12    1    3    3    0    0 -0.86900771985E+02 -0.92005559066E+02  0.16378707047E+03  0.20698543795E+03  0.00000000000E+00 0. -1.
        -11    1    4    4    0    0  0.55456365959E+02  0.14846058615E+03  0.18455088296E+03  0.24325908527E+03  0.00000000000E+00 0.  1.
         11    1    4    4    0    0  0.57349883306E+02  0.35968328040E+02  0.30014810580E+02  0.74051459077E+02  0.00000000000E+00 0. -1.
         21    1    1    2  503  502 -0.31939440444E+02 -0.47551102161E+02  0.22836944327E+02  0.61666532242E+02  0.00000000000E+00 0.  1.
          1    1    1    2  501    0 -0.29219084264E+01  0.22583396493E+02  0.35298088540E+02  0.42005980534E+02  0.00000000000E+00 0. -1.
<scales pt_clust_5="13000.00000" pt_clust_6="13000.00000" pt_clust_7="13000.00000" pt_clust_8="13000.00000" pt_clust_9="54.19391" pt_clust_10="22.77165"></scales>
<clustering>
<clus scale="   22.772">  2 10  1 -1</clus>
<clus scale="   54.194">  2  9  1 -1</clus>
<clus scale="   80.320">  5  6 -1 -1</clus>
<clus scale="   88.928">  7  8 -1 -1</clus>
<clus scale="  208.866">  1  5  2 -1</clus>
<clus scale="   22.772">  2  5  1 -1</clus>
</clustering>
</event>
<event>
10    4  0.3738096E-005  0.1116406E+03  0.7546771E-02  0.1261790E+00
         21   -1    0    0  501  502  0.00000000000E+00  0.00000000000E+00  0.22350744601E+03  0.22350744601E+03  0.00000000000E+00 0.  1.
          2   -1    0    0  503    0 -0.00000000000E+00 -0.00000000000E+00 -0.32078765991E+03  0.32078765991E+03  0.00000000000E+00 0. -1.
         24    2    1    2    0    0 -0.36478602207E+02 -0.10914599379E+03  0.19457256064E+02  0.14119997381E+03  0.79468933616E+02 0.  0.
         23    2    1    2    0    0 -0.14697715468E+02  0.13914192196E+02  0.93828751236E+02  0.13205471896E+03  0.90691712176E+02 0.  0.
        -11    1    3    3    0    0 -0.57652077919E+02 -0.71469206564E+02  0.30206462260E+02  0.96664574367E+02  0.00000000000E+00 0.  1.
         12    1    3    3    0    0  0.21173475712E+02 -0.37676787224E+02 -0.10749206196E+02  0.44535399438E+02  0.00000000000E+00 0. -1.
        -11    1    4    4    0    0 -0.32836373044E+02  0.40643443750E+02  0.82825431295E+02  0.97929408166E+02  0.00000000000E+00 0.  1.
         11    1    4    4    0    0  0.18138657576E+02 -0.26729251554E+02  0.11003319941E+02  0.34125310797E+02  0.00000000000E+00 0. -1.
         21    1    1    2  503  502 -0.83368995768E+01  0.91366216627E+02 -0.61405517101E+02  0.11039894459E+03  0.00000000000E+00 0.  1.
          1    1    1    2  501    0  0.59513217253E+02  0.38655849650E+01 -0.14916070410E+03  0.16064146856E+03  0.00000000000E+00 0. -1.
<scales pt_clust_5="13000.00000" pt_clust_6="13000.00000" pt_clust_7="13000.00000" pt_clust_8="13000.00000" pt_clust_9="91.81575" pt_clust_10="59.63866"></scales>
<clustering>
<clus scale="   59.639">  1 10  2 -1</clus>
<clus scale="   79.469">  5  6 -1 -1</clus>
<clus scale="   90.692">  7  8 -1 -1</clus>
<clus scale="   91.816">  2  9  1 -1</clus>
<clus scale="  102.732">  2  5  1 -1</clus>
<clus scale="   59.639">  1  5  2 -1</clus>
</clustering>
</event>
<event>
10    4  0.3738096E-005  0.1130624E+03  0.7546771E-02  0.1259365E+00
         21   -1    0    0  501  502  0.00000000000E+00  0.00000000000E+00  0.14906995573E+03  0.14906995573E+03  0.00000000000E+00 0.  1.
         -3   -1    0    0    0  501 -0.00000000000E+00 -0.00000000000E+00 -0.26151233343E+03  0.26151233343E+03  0.00000000000E+00 0.  1.
         24    2    1    2    0    0  0.76447407204E+02  0.27728828033E+02 -0.22853299114E+02  0.11584451101E+03  0.79275364883E+02 0.  0.
         23    2    1    2    0    0 -0.47401867407E+02  0.17901176149E+02  0.49019296167E+02  0.11523067221E+03  0.91147283454E+02 0.  0.
        -13    1    3    3    0    0  0.87137464949E+02  0.85272010632E+01 -0.52927773144E+01  0.87713536284E+02  0.00000000000E+00 0.  1.
         14    1    3    3    0    0 -0.10690057746E+02  0.19201626969E+02 -0.17560521800E+02  0.28130974721E+02  0.00000000000E+00 0. -1.
        -13    1    4    4    0    0 -0.60808501258E+02  0.33520789701E+02  0.60118029777E+02  0.91844949081E+02  0.00000000000E+00 0.  1.
         13    1    4    4    0    0  0.13406633851E+02 -0.15619613552E+02 -0.11098733610E+02  0.23385723133E+02  0.00000000000E+00 0. -1.
         21    1    1    2  503  502  0.16706342201E+02  0.13864705111E+02  0.19628886915E+00  0.21711067382E+02  0.00000000000E+00 0.  1.
         -4    1    1    2    0  503 -0.45751881997E+02 -0.59494709293E+02 -0.13880466363E+03  0.15779603856E+03  0.00000000000E+00 0.  1.
<scales pt_clust_5="13000.00000" pt_clust_6="13000.00000" pt_clust_7="13000.00000" pt_clust_8="13000.00000" pt_clust_9="21.71018" pt_clust_10="73.59732"></scales>
<clustering>
<clus scale="   21.710">  1  9  2 -1</clus>
<clus scale="   73.597">  1 10  2 -1</clus>
<clus scale="   79.275">  5  6 -1 -1</clus>
<clus scale="   91.147">  7  8 -1 -1</clus>
<clus scale="  103.730">  2  5  1 -1</clus>
<clus scale="   21.710">  1  5  2 -1</clus>
</clustering>
</event>
<event>
10    4  0.3738096E-005  0.1555489E+03  0.7546771E-02  0.1227077E+00
         -1   -1    0    0    0  501 -0.00000000000E+00  0.00000000000E+00  0.14161384716E+03  0.14161384716E+03  0.00000000000E+00 0.  1.
         21   -1    0    0  503  502  0.00000000000E+00 -0.00000000000E+00 -0.36614040293E+03  0.36614040293E+03  0.00000000000E+00 0.  1.
         24    2    1    2    0    0 -0.60207748351E+01 -0.12408084865E+02 -0.91079105340E+01  0.77680794748E+02  0.75902184019E+02 0.  0.
         23    2    1    2    0    0 -0.79150795157E+02  0.91035435410E+02 -0.15579816560E+03  0.21518895773E+03  0.86492313234E+02 0.  0.
        -13    1    3    3    0    0  0.24056863095E+02 -0.21820687208E+02 -0.26289711172E+02  0.41785451603E+02  0.00000000000E+00 0.  1.
         14    1    3    3    0    0 -0.30077637930E+02  0.94126023429E+01  0.17181800638E+02  0.35895343145E+02  0.00000000000E+00 0. -1.
        -13    1    4    4    0    0 -0.37551089873E+02 -0.34129334432E+01 -0.14913987565E+02  0.40548236589E+02  0.00000000000E+00 0. -1.
         13    1    4    4    0    0 -0.41599705284E+02  0.94448368853E+02 -0.14088417804E+03  0.17464072114E+03  0.00000000000E+00 0.  1.
         21    1    1    2  503  501 -0.79564544904E+01  0.25979530094E+02  0.36145291458E+02  0.45218616150E+02  0.00000000000E+00 0.  1.
         -2    1    1    2    0  502  0.93128024483E+02 -0.10460688064E+03 -0.95765771093E+02  0.16966588147E+03  0.00000000000E+00 0.  1.
<scales pt_clust_5="13000.00000" pt_clust_6="13000.00000" pt_clust_7="13000.00000" pt_clust_8="13000.00000" pt_clust_9="27.17059" pt_clust_10="129.28475"></scales>
<clustering>
<clus scale="   27.171">  1  9  2 -1</clus>
<clus scale="   75.902">  5  6 -1 -1</clus>
<clus scale="   76.486">  1  5  2 -1</clus>
<clus scale="   86.492">  7  8 -1 -1</clus>
<clus scale="  129.285">  2 10  1 -1</clus>
<clus scale="  129.285">  2  5  1 -1</clus>
</clustering>
</event>
<event>
10    4  0.3738096E-005  0.1211736E+03  0.7546771E-02  0.1244566E+00
         21   -1    0    0  501  502  0.00000000000E+00  0.00000000000E+00  0.16439823915E+03  0.16439823915E+03  0.00000000000E+00 0. -1.
          2   -1    0    0  503    0 -0.00000000000E+00 -0.00000000000E+00 -0.87537425210E+03  0.87537425210E+03  0.00000000000E+00 0. -1.
         23    2    1    2    0    0  0.21197063464E+02  0.67052982197E+02 -0.57734253440E+03  0.58887983167E+03  0.92247689344E+02 0.  0.
         24    2    1    2    0    0 -0.59802179114E+02 -0.29489578496E+02  0.11721079691E+03  0.15751817531E+03  0.81410495484E+02 0.  0.
        -11    1    4    4    0    0 -0.15738879459E+02  0.28388412070E+02  0.34454261923E+02  0.47336142969E+02  0.00000000000E+00 0.  1.
         12    1    4    4    0    0 -0.44063299655E+02 -0.57877990566E+02  0.82756534988E+02  0.11018203235E+03  0.00000000000E+00 0. -1.
        -11    1    3    3    0    0  0.30001710349E+01 -0.22420522098E+02 -0.76161719592E+02  0.79449911068E+02  0.00000000000E+00 0.  1.
         11    1    3    3    0    0  0.18196892429E+02  0.89473504295E+02 -0.50118081481E+03  0.50942992060E+03  0.00000000000E+00 0. -1.
         21    1    1    2  503  502 -0.18589085258E+02  0.15939278375E+02 -0.19656815688E+03  0.19808749326E+03  0.00000000000E+00 0.  1.
          1    1    1    2  501    0  0.57194200908E+02 -0.53502682076E+02 -0.54276118581E+02  0.95286991006E+02  0.00000000000E+00 0. -1.
<scales pt_clust_5="13000.00000" pt_clust_6="13000.00000" pt_clust_7="13000.00000" pt_clust_8="13000.00000" pt_clust_9="24.48703" pt_clust_10="75.61998"></scales>
<clustering>
<clus scale="   24.487">  2  9  1 -1</clus>
<clus scale="   75.620">  1 10  2 -1</clus>
<clus scale="   81.410">  5  6 -1 -1</clus>
<clus scale="   92.248">  7  8 -1 -1</clus>
<clus scale="  113.142">  1  5  2 -1</clus>
<clus scale="   75.620">  1  5  2 -1</clus>
</clustering>
</event>
<event>
10    4  0.3738096E-005  0.1173543E+03  0.7546771E-02  0.1250425E+00
         -3   -1    0    0    0  501 -0.00000000000E+00  0.00000000000E+00  0.55418886740E+03  0.55418886740E+03  0.00000000000E+00 0.  1.
         21   -1    0    0  503  502  0.00000000000E+00 -0.00000000000E+00 -0.28005639314E+03  0.28005639314E+03  0.00000000000E+00 0.  1.
         24    2    1    2    0    0 -0.72323708901E+02 -0.34032879640E+02  0.14081429853E+03  0.18078096286E+03  0.80399838899E+02 0.  0.
         23    2    1    2    0    0  0.79227601836E+02 -0.81842689801E+00  0.18070856310E+03  0.21657717035E+03  0.89288315164E+02 0.  0.
        -11    1    3    3    0    0 -0.42114210613E+02 -0.58936882658E+02  0.10601733251E+03  0.12840108125E+03  0.00000000000E+00 0.  1.
         12    1    3    3    0    0 -0.30209498289E+02  0.24904003017E+02  0.34796966018E+02  0.52379881607E+02  0.00000000000E+00 0. -1.
        -13    1    4    4    0    0  0.41392252681E+02  0.92782617395E+01  0.17106756474E+03  0.17624845085E+03  0.00000000000E+00 0.  1.
         13    1    4    4    0    0  0.37835349155E+02 -0.10096688638E+02  0.96409983640E+01  0.40328719501E+02  0.00000000000E+00 0. -1.
         21    1    1    2  503  501  0.63406153266E+02 -0.33863171822E+02  0.17746973690E+03  0.19147470380E+03  0.00000000000E+00 0.  1.
         -4    1    1    2    0  502 -0.70310046201E+02  0.68714478360E+02 -0.22486012428E+03  0.24541242353E+03  0.00000000000E+00 0.  1.
<scales pt_clust_5="13000.00000" pt_clust_6="13000.00000" pt_clust_7="13000.00000" pt_clust_8="13000.00000" pt_clust_9="71.88223" pt_clust_10="96.39503"></scales>
<clustering>
<clus scale="   71.882">  1  9  2 -1</clus>
<clus scale="   80.400">  5  6 -1 -1</clus>
<clus scale="   89.288">  7  8 -1 -1</clus>
<clus scale="   96.395">  2 10  1 -1</clus>
<clus scale="  110.742">  1  5  2 -1</clus>
<clus scale="   96.395">  2  5  1 -1</clus>
</clustering>
</event>
<event>
10    4  0.3738096E-005  0.1582753E+03  0.7546771E-02  0.1192793E+00
         21   -1    0    0  501  502  0.00000000000E+00  0.00000000000E+00  0.16072174093E+04  0.16072174093E+04  0.00000000000E+00 0. -1.
          2   -1    0    0  503    0 -0.00000000000E+00 -0.00000000000E+00 -0.27477143634E+02  0.27477143634E+02  0.00000000000E+00 0. -1.
         24    2    1    2    0    0  0.29226491689E+02 -0.93287462408E+02  0.42730622328E+03  0.44541979125E+03  0.79066070638E+02 0.  0.
         23    2    1    2    0    0 -0.42867155467E+02  0.16415536194E+03  0.94649993561E+03  0.96599532880E+03  0.92196915799E+02 0.  0.
        -11    1    3    3    0    0 -0.27101575388E+02 -0.23250304338E+02  0.11207744037E+03  0.11762833281E+03  0.00000000000E+00 0.  1.
         12    1    3    3    0    0  0.56328067076E+02 -0.70037158070E+02  0.31522878291E+03  0.32779145844E+03  0.00000000000E+00 0. -1.
        -11    1    4    4    0    0  0.42444863692E+00  0.13917100783E+03  0.77345184782E+03  0.78587308802E+03  0.00000000000E+00 0.  1.
         11    1    4    4    0    0 -0.43291604104E+02  0.24984354112E+02  0.17304808779E+03  0.18012224078E+03  0.00000000000E+00 0. -1.
         21    1    1    2  503  502 -0.12755136565E+02 -0.38742144414E+02  0.68812698990E+02  0.79992717199E+02  0.00000000000E+00 0. -1.
          1    1    1    2  501    0  0.26395800343E+02 -0.32125755119E+02  0.13712140778E+03  0.14328671568E+03  0.00000000000E+00 0. -1.
<scales pt_clust_5="13000.00000" pt_clust_6="13000.00000" pt_clust_7="13000.00000" pt_clust_8="13000.00000" pt_clust_9="40.78783" pt_clust_10="44.91726"></scales>
<clustering>
<clus scale="   40.788">  2  9  1 -1</clus>
<clus scale="   44.917">  1 10  2 -1</clus>
<clus scale="   79.066">  5  6 -1 -1</clus>
<clus scale="   92.197">  7  8 -1 -1</clus>
<clus scale="  151.004">  2  5  1 -1</clus>
<clus scale="   44.917">  1  5  2 -1</clus>
</clustering>
</event>
<event>
10    4  0.3738096E-005  0.9200056E+02  0.7546771E-02  0.1304355E+00
          2   -1    0    0  503    0 -0.00000000000E+00  0.00000000000E+00  0.30180812307E+03  0.30180812307E+03  0.00000000000E+00 0. -1.
         21   -1    0    0  501  502  0.00000000000E+00 -0.00000000000E+00 -0.15080128452E+03  0.15080128452E+03  0.00000000000E+00 0.  1.
         24    2    1    2    0    0  0.11871005515E+02  0.24345408844E+02  0.97425383433E+02  0.12978029555E+03  0.81348632888E+02 0.  0.
         23    2    1    2    0    0  0.23143292467E+02  0.37857650797E+01 -0.22231750355E+02  0.96992316872E+02  0.91451160762E+02 0.  0.
        -13    1    3    3    0    0 -0.29863021289E+02  0.15014467808E+02  0.14412938869E+02  0.36400097403E+02  0.00000000000E+00 0.  1.
         14    1    3    3    0    0  0.41734026804E+02  0.93309410363E+01  0.83012444564E+02  0.93380198149E+02  0.00000000000E+00 0. -1.
        -13    1    4    4    0    0  0.23373883420E+02 -0.27212799721E+02  0.22665094572E+02  0.42433258262E+02  0.00000000000E+00 0. -1.
         13    1    4    4    0    0 -0.23059095280E+00  0.30998564801E+02 -0.44896844927E+02  0.54559058609E+02  0.00000000000E+00 0.  1.
         21    1    1    2  503  502  0.43638013315E+01 -0.20845882661E+02  0.14464421692E+03  0.14620377243E+03  0.00000000000E+00 0. -1.
          1    1    1    2  501    0 -0.39378099314E+02 -0.72852912626E+01 -0.68831011445E+02  0.79633022742E+02  0.00000000000E+00 0. -1.
<scales pt_clust_5="13000.00000" pt_clust_6="13000.00000" pt_clust_7="13000.00000" pt_clust_8="13000.00000" pt_clust_9="21.29774" pt_clust_10="40.03588"></scales>
<clustering>
<clus scale="   21.298">  1  9  2 -1</clus>
<clus scale="   40.036">  2 10  1 -1</clus>
<clus scale="   81.349">  5  6 -1 -1</clus>
<clus scale="   81.966">  1  5  2 -1</clus>
<clus scale="   91.451">  7  8 -1 -1</clus>
<clus scale="   40.036">  2  5  1 -1</clus>
</clustering>
</event>
<event>
10    4  0.3738096E-005  0.1221449E+03  0.7546771E-02  0.1243303E+00
         -1   -1    0    0    0  501 -0.00000000000E+00  0.00000000000E+00  0.28802160580E+03  0.28802160580E+03  0.00000000000E+00 0.  1.
         21   -1    0    0  503  502  0.00000000000E+00 -0.00000000000E+00 -0.67181893876E+03  0.67181893876E+03  0.00000000000E+00 0.  1.
         24    2    1    2    0    0  0.55650435517E+02 -0.42379518404E+02  0.95974433576E+02  0.14252609904E+03  0.78801030799E+02 0.  0.
         23    2    1    2    0    0 -0.65996818020E+02  0.79232770764E+02 -0.47657236301E+03  0.49602737855E+03  0.91041370458E+02 0.  0.
        -11    1    3    3    0    0  0.72799552177E+02 -0.32661152178E+02  0.93087738283E+02  0.12260445619E+03  0.00000000000E+00 0.  1.
         12    1    3    3    0    0 -0.17149116660E+02 -0.97183662251E+01  0.28866952936E+01  0.19921642855E+02  0.00000000000E+00 0. -1.
        -13    1    4    4    0    0 -0.37771710115E+02  0.95023021472E+02 -0.31271470266E+03  0.32900845271E+03  0.00000000000E+00 0.  1.
         13    1    4    4    0    0 -0.28225107905E+02 -0.15790250708E+02 -0.16385766034E+03  0.16701892584E+03  0.00000000000E+00 0. -1.
         21    1    1    2  503  501 -0.53749972294E+01 -0.21519136305E+02  0.15752012329E+03  0.15907404900E+03  0.00000000000E+00 0.  1.
         -2    1    1    2    0  502  0.15721379732E+02 -0.15334116055E+02 -0.16071952683E+03  0.16221301797E+03  0.00000000000E+00 0.  1.
<scales pt_clust_5="13000.00000" pt_clust_6="13000.00000" pt_clust_7="13000.00000" pt_clust_8="13000.00000" pt_clust_9="22.19713" pt_clust_10="21.96126"></scales>
<clustering>
<clus scale="   21.961">  2 10  1 -1</clus>
<clus scale="   22.197">  1  9  2 -1</clus>
<clus scale="   78.801">  5  6 -1 -1</clus>
<clus scale="   91.041">  7  8 -1 -1</clus>
<clus scale="  113.316">  1  5  2 -1</clus>
<clus scale="   21.961">  2  5  1 -1</clus>
</clustering>
</event>
<event>
10    4  0.3738096E-005  0.1490403E+03  0.7546771E-02  0.1207388E+00
         21   -1    0    0  501  502  0.00000000000E+00  0.00000000000E+00  0.18628616258E+03  0.18628616258E+03  0.00000000000E+00 0. -1.
          2   -1    0    0  503    0 -0.00000000000E+00 -0.00000000000E+00 -0.38466497586E+03  0.38466497586E+03  0.00000000000E+00 0. -1.
         23    2    1    2    0    0 -0.94158952790E+02 -0.28903312365E+02 -0.17714648575E+03  0.22516158983E+03  0.98058932627E+02 0.  0.
         24    2    1    2    0    0  0.13606704332E+03  0.67214056285E+02 -0.85284020357E+02  0.18723977139E+03  0.68944892645E+02 0.  0.
        -11    1    4    4    0    0  0.94433492779E+02  0.49406496274E+02 -0.92825726754E+02  0.14133400858E+03  0.00000000000E+00 0.  1.
         12    1    4    4    0    0  0.41633550541E+02  0.17807560011E+02  0.75417063975E+01  0.45905762815E+02  0.00000000000E+00 0. -1.
        -11    1    3    3    0    0 -0.47147093094E+02 -0.56386923395E+02 -0.14328274175E+03  0.16103501980E+03  0.00000000000E+00 0.  1.
         11    1    3    3    0    0 -0.47011859695E+02  0.27483611030E+02 -0.33863743994E+02  0.64126570036E+02  0.00000000000E+00 0. -1.
         21    1    1    2  503  502  0.30709094485E+02 -0.25967136814E+02 -0.21544534942E+02  0.45623542873E+02  0.00000000000E+00 0. -1.
          1    1    1    2  501    0 -0.72617185016E+02 -0.12343607106E+02  0.85596227758E+02  0.11292623434E+03  0.00000000000E+00 0. -1.
<scales pt_clust_5="13000.00000" pt_clust_6="13000.00000" pt_clust_7="13000.00000" pt_clust_8="13000.00000" pt_clust_9="40.21617" pt_clust_10="72.65966"></scales>
<clustering>
<clus scale="   40.216">  2  9  1 -1</clus>
<clus scale="   68.945">  5  6 -1 -1</clus>
<clus scale="   72.660">  1 10  2 -1</clus>
<clus scale="   98.059">  7  8 -1 -1</clus>
<clus scale="  131.723">  1  5  2 -1</clus>
<clus scale="   72.660">  1  5  2 -1</clus>
</clustering>
</event>
<event>
10    4  0.3738096E-005  0.1476764E+03  0.7546771E-02  0.1205909E+00
          2   -1    0    0  503    0 -0.00000000000E+00  0.00000000000E+00  0.68860656772E+03  0.68860656772E+03  0.00000000000E+00 0. -1.
         21   -1    0    0  501  502  0.00000000000E+00 -0.00000000000E+00 -0.15135176775E+03  0.15135176775E+03  0.00000000000E+00 0. -1.
         23    2    1    2    0    0  0.14351513793E+03  0.47075203212E+02  0.39419267075E+03  0.43190406310E+03  0.91326822338E+02 0.  0.
         24    2    1    2    0    0 -0.60041449901E+02 -0.71358069686E+02  0.17103983138E+03  0.20981199272E+03  0.77906986556E+02 0.  0.
        -13    1    4    4    0    0 -0.74279213755E+02 -0.40469146552E+02  0.99485120734E+02  0.13058500169E+03  0.00000000000E+00 0.  1.
         14    1    4    4    0    0  0.14237763853E+02 -0.30888923134E+02  0.71554710643E+02  0.79226991027E+02  0.00000000000E+00 0. -1.
        -11    1    3    3    0    0  0.15040083454E+02  0.45114370027E+02  0.93144254732E+02  0.10458184681E+03  0.00000000000E+00 0.  1.
         11    1    3    3    0    0  0.12847505448E+03  0.19608331846E+01  0.30104841601E+03  0.32732221628E+03  0.00000000000E+00 0. -1.
         21    1    1    2  503  502 -0.24449235178E+02  0.98761689429E+00  0.74107493688E+02  0.78042687733E+02  0.00000000000E+00 0.  1.
          1    1    1    2  501    0 -0.59024452850E+02  0.23295249580E+02 -0.10208519584E+03  0.12019959192E+03  0.00000000000E+00 0. -1.
<scales pt_clust_5="13000.00000" pt_clust_6="13000.00000" pt_clust_7="13000.00000" pt_clust_8="13000.00000" pt_clust_9="24.46917" pt_clust_10="63.79689"></scales>
<clustering>
<clus scale="   24.469">  1  9  2 -1</clus>
<clus scale="   63.797">  2 10  1 -1</clus>
<clus scale="   77.907">  5  6 -1 -1</clus>
<clus scale="   91.327">  7  8 -1 -1</clus>
<clus scale="  139.776">  2  5  1 -1</clus>
<clus scale="   63.797">  2  5  1 -1</clus>
</clustering>
</event>
<event>
10    4  0.3738096E-005  0.1240972E+03  0.7546771E-02  0.1239812E+00
         21   -1    0    0  501  502  0.00000000000E+00  0.00000000000E+00  0.37922292796E+02  0.37922292796E+02  0.00000000000E+00 0.  1.
          2   -1    0    0  503    0 -0.00000000000E+00 -0.00000000000E+00 -0.73168979814E+03  0.73168979814E+03  0.00000000000E+00 0. -1.
         23    2    1    2    0    0  0.56329861452E+02  0.30815867739E+02 -0.37364588765E+03  0.38991617622E+03  0.91108200066E+02 0.  0.
         24    2    1    2    0    0 -0.10596471312E+03  0.14318457642E+01 -0.19141089662E+03  0.23284793080E+03  0.79683479625E+02 0.  0.
        -13    1    4    4    0    0 -0.10368483630E+03  0.25744229206E+02 -0.16751487251E+03  0.19868201511E+03  0.00000000000E+00 0.  1.
         14    1    4    4    0    0 -0.22798768229E+01 -0.24312383441E+02 -0.23896024108E+02  0.34165915692E+02  0.00000000000E+00 0. -1.
        -13    1    3    3    0    0  0.54398143630E+02 -0.16877780341E+02 -0.13465718205E+03  0.14620729865E+03  0.00000000000E+00 0.  1.
         13    1    3    3    0    0  0.19317178220E+01  0.47693648080E+02 -0.23898870560E+03  0.24370887757E+03  0.00000000000E+00 0. -1.
         21    1    1    2  503  502  0.30017119661E+02 -0.39132454970E+01 -0.90320232151E+02  0.95257993360E+02  0.00000000000E+00 0. -1.
          1    1    1    2  501    0  0.19617732006E+02 -0.28334468006E+02 -0.38390488912E+02  0.51589990552E+02  0.00000000000E+00 0. -1.
<scales pt_clust_5="13000.00000" pt_clust_6="13000.00000" pt_clust_7="13000.00000" pt_clust_8="13000.00000" pt_clust_9="30.27112" pt_clust_10="35.92758"></scales>
<clustering>
<clus scale="   30.271">  2  9  1 -1</clus>
<clus scale="   35.928">  1 10  2 -1</clus>
<clus scale="   79.683">  5  6 -1 -1</clus>
<clus scale="   91.108">  7  8 -1 -1</clus>
<clus scale="  115.969">  1  5  2 -1</clus>
<clus scale="   35.928">  1  5  2 -1</clus>
</clustering>
</event>
<event>
10    4  0.3738096E-005  0.1880903E+03  0.7546771E-02  0.1161053E+00
          2   -1    0    0  503    0 -0.00000000000E+00  0.00000000000E+00  0.76708300696E+03  0.76708300696E+03  0.00000000000E+00 0. -1.
         21   -1    0    0  501  502  0.00000000000E+00 -0.00000000000E+00 -0.97156915844E+02  0.97156915844E+02  0.00000000000E+00 0. -1.
         24    2    1    2    0    0 -0.52372234794E+01 -0.14859493936E+03  0.44956396563E+03  0.48029102566E+03  0.80397920489E+02 0.  0.
         23    2    1    2    0    0 -0.97372621226E+00  0.19748478352E+03  0.16888628104E+03  0.27453953716E+03  0.88590031476E+02 0.  0.
        -11    1    3    3    0    0  0.16160489905E+02 -0.39782204570E+02  0.23365116753E+03  0.23756399838E+03  0.00000000000E+00 0.  1.
         12    1    3    3    0    0 -0.21397713384E+02 -0.10881273479E+03  0.21591279810E+03  0.24272702728E+03  0.00000000000E+00 0. -1.
        -13    1    4    4    0    0 -0.28970484173E+02  0.38862236127E+02  0.12548298406E+02  0.50070172187E+02  0.00000000000E+00 0.  1.
         13    1    4    4    0    0  0.27996757961E+02  0.15862254739E+03  0.15633798263E+03  0.22446936497E+03  0.00000000000E+00 0. -1.
         21    1    1    2  503  502  0.22699980374E+02 -0.10855792270E+02  0.61767826238E+02  0.66696339427E+02  0.00000000000E+00 0. -1.
          1    1    1    2  501    0 -0.16489030683E+02 -0.38034051889E+02 -0.10291981797E+02  0.42713020559E+02  0.00000000000E+00 0. -1.
<scales pt_clust_5="13000.00000" pt_clust_6="13000.00000" pt_clust_7="13000.00000" pt_clust_8="13000.00000" pt_clust_9="25.16222" pt_clust_10="41.48004"></scales>
<clustering>
<clus scale="   25.162">  1  9  2 -1</clus>
<clus scale="   41.480">  2 10  1 -1</clus>
<clus scale="   80.398">  5  6 -1 -1</clus>
<clus scale="   88.590">  7  8 -1 -1</clus>
<clus scale="  184.374">  1  5  2 -1</clus>
<clus scale="   41.480">  2  5  1 -1</clus>
</clustering>
</event>
<event>
10    4  0.3738096E-005  0.1035959E+03  0.7546771E-02  0.1276165E+00
         21   -1    0    0  501  502  0.00000000000E+00  0.00000000000E+00  0.12811586340E+03  0.12811586340E+03  0.00000000000E+00 0.  1.
          2   -1    0    0  503    0 -0.00000000000E+00 -0.00000000000E+00 -0.52637892882E+03  0.52637892882E+03  0.00000000000E+00 0. -1.
         23    2    1    2    0    0 -0.33906991037E+02  0.64828308153E+02 -0.15823597098E+03  0.19586306937E+03  0.89282281852E+02 0.  0.
         24    2    1    2    0    0  0.55306068064E+02  0.19244830683E+02  0.50091631963E+02  0.11246778831E+03  0.81918905885E+02 0.  0.
        -11    1    4    4    0    0  0.63991987443E+02 -0.14459713249E+02  0.36714500210E+02  0.75179866253E+02  0.00000000000E+00 0.  1.
         12    1    4    4    0    0 -0.86859193793E+01  0.33704543933E+02  0.13377131753E+02  0.37287922054E+02  0.00000000000E+00 0. -1.
        -13    1    3    3    0    0  0.29259110049E+02  0.22131660531E+02 -0.71632550083E+02  0.80480607293E+02  0.00000000000E+00 0.  1.
         13    1    3    3    0    0 -0.63166101086E+02  0.42696647622E+02 -0.86603420894E+02  0.11538246208E+03  0.00000000000E+00 0. -1.
         21    1    1    2  503  502  0.32279599725E+02 -0.50221897424E+01 -0.23207432734E+03  0.23436230149E+03  0.00000000000E+00 0. -1.
          1    1    1    2  501    0 -0.53678676752E+02 -0.79050949094E+02 -0.58044399069E+02  0.11180163306E+03  0.00000000000E+00 0. -1.
<scales pt_clust_5="13000.00000" pt_clust_6="13000.00000" pt_clust_7="13000.00000" pt_clust_8="13000.00000" pt_clust_9="32.66795" pt_clust_10="91.90295"></scales>
<clustering>
<clus scale="   32.668">  2  9  1 -1</clus>
<clus scale="   81.919">  5  6 -1 -1</clus>
<clus scale="   89.282">  7  8 -1 -1</clus>
<clus scale="   91.903">  1 10  2 -1</clus>
<clus scale="   97.322">  1  5  2 -1</clus>
<clus scale="   91.903">  1  5  2 -1</clus>
</clustering>
</event>
<event>
10    4  0.3738096E-005  0.2171972E+03  0.7546771E-02  0.1136995E+00
         -1   -1    0    0    0  501 -0.00000000000E+00  0.00000000000E+00  0.13154385171E+04  0.13154385171E+04  0.00000000000E+00 0.  1.
         21   -1    0    0  503  502  0.00000000000E+00 -0.00000000000E+00 -0.14692004939E+03  0.14692004939E+03  0.00000000000E+00 0.  1.
         24    2    1    2    0    0  0.15867822726E+03 -0.11051666227E+03  0.11253385029E+04  0.11446728688E+04  0.80600979283E+02 0.  0.
         23    2    1    2    0    0 -0.14491247717E+03  0.12313150715E+03 -0.28212275676E+02  0.21377530529E+03  0.93503767630E+02 0.  0.
        -11    1    3    3    0    0  0.93421549855E+02 -0.10983737179E+03  0.78544251897E+03  0.79856858492E+03  0.00000000000E+00 0.  1.
         12    1    3    3    0    0  0.65256677410E+02 -0.67929048601E+00  0.33989598395E+03  0.34610428383E+03  0.00000000000E+00 0. -1.
        -13    1    4    4    0    0 -0.29274374623E+02  0.24727125453E+02  0.32500691180E+02  0.50246538885E+02  0.00000000000E+00 0. -1.
         13    1    4    4    0    0 -0.11563810254E+03  0.98404381699E+02 -0.60712966856E+02  0.16352876640E+03  0.00000000000E+00 0.  1.
         21    1    1    2  503  501  0.13979738818E+02  0.14833431880E+02  0.59827801068E+02  0.63204664222E+02  0.00000000000E+00 0.  1.
         -2    1    1    2    0  502 -0.27745488916E+02 -0.27448276759E+02  0.11564439400E+02  0.40705728231E+02  0.00000000000E+00 0.  1.
<scales pt_clust_5="13000.00000" pt_clust_6="13000.00000" pt_clust_7="13000.00000" pt_clust_8="13000.00000" pt_clust_9="20.38293" pt_clust_10="38.60388"></scales>
<clustering>
<clus scale="   20.383">  1  9  2 -1</clus>
<clus scale="   38.604">  2 10  1 -1</clus>
<clus scale="   80.601">  5  6 -1 -1</clus>
<clus scale="   93.504">  7  8 -1 -1</clus>
<clus scale="  211.963">  1  5  2 -1</clus>
<clus scale="   38.604">  2  5  1 -1</clus>
</clustering>
</event>
<event>
10    4  0.3738096E-005  0.1189919E+03  0.7546771E-02  0.1249642E+00
         21   -1    0    0  503  502  0.00000000000E+00  0.00000000000E+00  0.11205766861E+04  0.11205766861E+04  0.00000000000E+00 0.  1.
         -3   -1    0    0    0  501 -0.00000000000E+00 -0.00000000000E+00 -0.24421571777E+02  0.24421571777E+02  0.00000000000E+00 0.  1.
         24    2    1    2    0    0  0.59737107419E+02 -0.20251468996E+02  0.39032188327E+03  0.40370199968E+03  0.81519862520E+02 0.  0.
         23    2    1    2    0    0 -0.85805979846E+02 -0.23458259875E+01  0.47862160771E+03  0.49558820712E+03  0.95712374273E+02 0.  0.
        -13    1    3    3    0    0  0.64707222545E+02 -0.44359585820E+02  0.29891920970E+03  0.30904286342E+03  0.00000000000E+00 0.  1.
         14    1    3    3    0    0 -0.49701151268E+01  0.24108116825E+02  0.91402673578E+02  0.94659136265E+02  0.00000000000E+00 0. -1.
        -13    1    4    4    0    0 -0.13300976222E+02 -0.41090936829E+02  0.22055648603E+03  0.22474551072E+03  0.00000000000E+00 0.  1.
         13    1    4    4    0    0 -0.72505003623E+02  0.38745110842E+02  0.25806512168E+03  0.27084269640E+03  0.00000000000E+00 0. -1.
         21    1    1    2  503  501 -0.22028465045E+02 -0.61765295954E+01  0.17974478098E+02  0.29094409308E+02  0.00000000000E+00 0.  1.
         -4    1    1    2    0  502  0.48097337472E+02  0.28773824579E+02  0.20923714522E+03  0.21661364175E+03  0.00000000000E+00 0.  1.
<scales pt_clust_5="13000.00000" pt_clust_6="13000.00000" pt_clust_7="13000.00000" pt_clust_8="13000.00000" pt_clust_9="22.87800" pt_clust_10="51.74398"></scales>
<clustering>
<clus scale="   22.878">  2  9  1 -1</clus>
<clus scale="   51.744">  1 10  2 -1</clus>
<clus scale="   81.520">  5  6 -1 -1</clus>
<clus scale="   95.712">  7  8 -1 -1</clus>
<clus scale="  107.906">  2  5  1 -1</clus>
<clus scale="   51.744">  1  5  2 -1</clus>
</clustering>
</event>
<event>
10    4  0.3738096E-005  0.1979866E+03  0.7546771E-02  0.1152932E+00
          2   -1    0    0  503    0 -0.00000000000E+00  0.00000000000E+00  0.66371240644E+03  0.66371240644E+03  0.00000000000E+00 0. -1.
         21   -1    0    0  501  502  0.00000000000E+00 -0.00000000000E+00 -0.20225763920E+03  0.20225763920E+03  0.00000000000E+00 0.  1.
         23    2    1    2    0    0  0.19542482508E+03 -0.37246898907E+02  0.42636743188E+03  0.47961167436E+03  0.93058999972E+02 0.  0.
         24    2    1    2    0    0 -0.15644967249E+03  0.44769287316E+02 -0.99512481677E+02  0.20589642348E+03  0.77522990687E+02 0.  0.
        -11    1    4    4    0    0 -0.78323658723E+02 -0.10511438589E+02 -0.70465784551E+02  0.10587970839E+03  0.00000000000E+00 0.  1.
         12    1    4    4    0    0 -0.78126013762E+02  0.55280725906E+02 -0.29046697126E+02  0.10001671509E+03  0.00000000000E+00 0. -1.
        -13    1    3    3    0    0  0.40078381249E+02 -0.19181024677E+02  0.30285945523E+02  0.53771989432E+02  0.00000000000E+00 0.  1.
         13    1    3    3    0    0  0.15534644383E+03 -0.18065874230E+02  0.39608148636E+03  0.42583968493E+03  0.00000000000E+00 0. -1.
         21    1    1    2  503  502 -0.24721601245E+02  0.71227173595E+01  0.15166859880E+03  0.15383515376E+03  0.00000000000E+00 0. -1.
          1    1    1    2  501    0 -0.14253551353E+02 -0.14645105768E+02 -0.17068781778E+02  0.26626794034E+02  0.00000000000E+00 0. -1.
<scales pt_clust_5="13000.00000" pt_clust_6="13000.00000" pt_clust_7="13000.00000" pt_clust_8="13000.00000" pt_clust_9="25.78536" pt_clust_10="20.43631"></scales>
<clustering>
<clus scale="   20.436">  2 10  1 -1</clus>
<clus scale="   25.785">  1  9  2 -1</clus>
<clus scale="   77.523">  5  6 -1 -1</clus>
<clus scale="   93.059">  7  8 -1 -1</clus>
<clus scale="  191.177">  2  5  1 -1</clus>
<clus scale="   20.436">  2  5  1 -1</clus>
</clustering>
</event>
<event>
10    4  0.3738096E-005  0.4577749E+03  0.7546771E-02  0.1025584E+00
         21   -1    0    0  503  502  0.00000000000E+00  0.00000000000E+00  0.46122025263E+03  0.46122025263E+03  0.00000000000E+00 0.  1.
         -3   -1    0    0    0  501 -0.00000000000E+00 -0.00000000000E+00 -0.79758247918E+03  0.79758247918E+03  0.00000000000E+00 0.  1.
         24    2    1    2    0    0 -0.22627796924E+02  0.52636931397E+03 -0.33655305648E+03  0.63041639965E+03  0.81118464230E+02 0.  0.
         23    2    1    2    0    0  0.49698527217E+02 -0.35382818837E+03 -0.31460769092E+02  0.37037701375E+03  0.92331044808E+02 0.  0.
        -11    1    3    3    0    0 -0.43731949622E+02  0.15523122529E+03 -0.10590112683E+03  0.19293591005E+03  0.00000000000E+00 0.  1.
         12    1    3    3    0    0  0.21104152697E+02  0.37113808868E+03 -0.23065192965E+03  0.43748048960E+03  0.00000000000E+00 0. -1.
        -11    1    4    4    0    0 -0.15841850673E+02 -0.26321761766E+02 -0.19046286804E+02  0.36146374870E+02  0.00000000000E+00 0.  1.
         11    1    4    4    0    0  0.65540377890E+02 -0.32750642660E+03 -0.12414482288E+02  0.33423063888E+03  0.00000000000E+00 0. -1.
         21    1    1    2  503  501  0.10928815983E+02  0.17867015372E+02 -0.44708043582E+02  0.49370825576E+02  0.00000000000E+00 0.  1.
         -4    1    1    2    0  502 -0.37999546275E+02 -0.19040814098E+03  0.76359642610E+02  0.20863849282E+03  0.00000000000E+00 0.  1.
<scales pt_clust_5="13000.00000" pt_clust_6="13000.00000" pt_clust_7="13000.00000" pt_clust_8="13000.00000" pt_clust_9="20.94443" pt_clust_10="192.43142"></scales>
<clustering>
<clus scale="   20.944">  2  9  1 -1</clus>
<clus scale="   81.118">  5  6 -1 -1</clus>
<clus scale="   92.331">  7  8 -1 -1</clus>
<clus scale="  192.431">  1 10  2 -1</clus>
<clus scale="  455.646">  2  5  1 -1</clus>
<clus scale="  192.431">  1  5  2 -1</clus>
</clustering>
</event>
<event>
10    4  0.3738096E-005  0.1327070E+03  0.7546771E-02  0.1229881E+00
          2   -1    0    0  503    0 -0.00000000000E+00  0.00000000000E+00  0.45118003958E+03  0.45118003958E+03  0.00000000000E+00 0. -1.
         21   -1    0    0  501  502  0.00000000000E+00 -0.00000000000E+00 -0.61593992469E+02  0.61593992469E+02  0.00000000000E+00 0.  1.
         23    2    1    2    0    0 -0.89438826302E+02 -0.18206496308E+02  0.21775800590E+03  0.25717759941E+03  0.10193619743E+03 0.  0.
         24    2    1    2    0    0  0.93385420976E+02 -0.33716418781E+00  0.77243655888E+02  0.14482879033E+03  0.79295936855E+02 0.  0.
        -13    1    4    4    0    0  0.69650786690E+02  0.31101243276E+02  0.26851590016E+02  0.80867343880E+02  0.00000000000E+00 0.  1.
         14    1    4    4    0    0  0.23734634286E+02 -0.31438407464E+02  0.50392065872E+02  0.63961446445E+02  0.00000000000E+00 0. -1.
        -11    1    3    3    0    0 -0.67351333373E+02  0.10197696245E+01  0.21771217774E+03  0.22789434915E+03  0.00000000000E+00 0. -1.
         11    1    3    3    0    0 -0.22087492929E+02 -0.19226265932E+02  0.45828160545E-01  0.29283250260E+02  0.00000000000E+00 0.  1.
         21    1    1    2  503  502  0.23566949386E+02 -0.13817809394E+01  0.36126295846E+02  0.43155760606E+02  0.00000000000E+00 0.  1.
          1    1    1    2  501    0 -0.27513544060E+02  0.19925441435E+02  0.58458089477E+02  0.67611881710E+02  0.00000000000E+00 0. -1.
<scales pt_clust_5="13000.00000" pt_clust_6="13000.00000" pt_clust_7="13000.00000" pt_clust_8="13000.00000" pt_clust_9="23.60742" pt_clust_10="30.98431"></scales>
<clustering>
<clus scale="   23.607">  1  9  2 -1</clus>
<clus scale="   30.984">  2 10  1 -1</clus>
<clus scale="   79.296">  5  6 -1 -1</clus>
<clus scale="  101.936">  7  8 -1 -1</clus>
<clus scale="  116.224">  2  5  1 -1</clus>
<clus scale="   30.984">  2  5  1 -1</clus>
</clustering>
</event>
<event>
10    4  0.3738096E-005  0.1897721E+03  0.7546771E-02  0.1195435E+00
          4   -1    0    0  503    0 -0.00000000000E+00  0.00000000000E+00  0.28135752560E+03  0.28135752560E+03  0.00000000000E+00 0. -1.
         21   -1    0    0  501  502  0.00000000000E+00 -0.00000000000E+00 -0.21606196735E+03  0.21606196735E+03  0.00000000000E+00 0. -1.
         24    2    1    2    0    0 -0.12992437779E+02 -0.84203229955E+01  0.27989094900E+02  0.86251847413E+02  0.80101725762E+02 0.  0.
         23    2    1    2    0    0  0.17259696617E+03  0.32300409009E+02 -0.48836010400E+02  0.20413525157E+03  0.91941371915E+02 0.  0.
        -11    1    3    3    0    0 -0.37804207254E+02  0.93537244693E+01 -0.72707841698E+01  0.39617099212E+02  0.00000000000E+00 0.  1.
         12    1    3    3    0    0  0.24811769475E+02 -0.17774047465E+02  0.35259879070E+02  0.46634748201E+02  0.00000000000E+00 0. -1.
        -13    1    4    4    0    0  0.10678280243E+03 -0.89332514941E+01  0.86589203220E+01  0.10750510118E+03  0.00000000000E+00 0.  1.
         13    1    4    4    0    0  0.65814163735E+02  0.41233660503E+02 -0.57494930722E+02  0.96630150395E+02  0.00000000000E+00 0. -1.
         21    1    1    2  503  502 -0.49122562481E+01 -0.26930079720E+02  0.34237786364E+02  0.43835892489E+02  0.00000000000E+00 0. -1.
          3    1    1    2  501    0 -0.15469227214E+03  0.30499937068E+01  0.51904687385E+02  0.16319650148E+03  0.00000000000E+00 0. -1.
<scales pt_clust_5="13000.00000" pt_clust_6="13000.00000" pt_clust_7="13000.00000" pt_clust_8="13000.00000" pt_clust_9="27.37443" pt_clust_10="166.01279"></scales>
<clustering>
<clus scale="   27.374">  1  9  2 -1</clus>
<clus scale="   80.102">  5  6 -1 -1</clus>
<clus scale="   82.672">  1  5  2 -1</clus>
<clus scale="   91.941">  7  8 -1 -1</clus>
<clus scale="  166.013">  2 10  1 -1</clus>
<clus scale="  166.013">  2  5  1 -1</clus>
</clustering>
</event>
<event>
10    4  0.3738096E-005  0.1113679E+03  0.7546771E-02  0.1263025E+00
         -1   -1    0    0    0  501 -0.00000000000E+00  0.00000000000E+00  0.30008149297E+03  0.30008149297E+03  0.00000000000E+00 0.  1.
         21   -1    0    0  503  502  0.00000000000E+00 -0.00000000000E+00 -0.34390188584E+03  0.34390188584E+03  0.00000000000E+00 0.  1.
         23    2    1    2    0    0 -0.29867523055E+02  0.46734210613E+02  0.77368330467E+02  0.13243249163E+03  0.92067100017E+02 0.  0.
         24    2    1    2    0    0  0.12607110674E+02 -0.67208797830E+02 -0.17026475451E+03  0.19986002347E+03  0.79233708763E+02 0.  0.
        -11    1    4    4    0    0  0.36622384737E+02 -0.16981797845E+02 -0.34421714301E+02  0.53051248216E+02  0.00000000000E+00 0.  1.
         12    1    4    4    0    0 -0.24015274062E+02 -0.50226999985E+02 -0.13584304021E+03  0.14680877525E+03  0.00000000000E+00 0. -1.
        -13    1    3    3    0    0 -0.12446288481E+02  0.72703735395E+02  0.66539332318E+02  0.99338944944E+02  0.00000000000E+00 0.  1.
         13    1    3    3    0    0 -0.17421234574E+02 -0.25969524782E+02  0.10828998149E+02  0.33093546688E+02  0.00000000000E+00 0. -1.
         21    1    1    2  503  501  0.40762699186E+02  0.17777274456E+02  0.17653758407E+03  0.18205259603E+03  0.00000000000E+00 0. -1.
         -2    1    1    2    0  502 -0.23502286806E+02  0.26973127611E+01 -0.12746155290E+03  0.12963826768E+03  0.00000000000E+00 0.  1.
<scales pt_clust_5="13000.00000" pt_clust_6="13000.00000" pt_clust_7="13000.00000" pt_clust_8="13000.00000" pt_clust_9="44.20876" pt_clust_10="23.65656"></scales>
<clustering>
<clus scale="   23.657">  2 10  1 -1</clus>
<clus scale="   44.209">  1  9  2 -1</clus>
<clus scale="   79.234">  5  6 -1 -1</clus>
<clus scale="   92.067">  7  8 -1 -1</clus>
<clus scale="  101.017">  2  5  1 -1</clus>
<clus scale="   23.657">  2  5  1 -1</clus>
</clustering>
</event>
<event>
10    4  0.3738096E-005  0.5025065E+03  0.7546771E-02  0.1013127E+00
          2   -1    0    0  503    0 -0.00000000000E+00  0.00000000000E+00  0.15199161250E+04  0.15199161250E+04  0.00000000000E+00 0. -1.
         21   -1    0    0  501  502  0.00000000000E+00 -0.00000000000E+00 -0.23026059411E+03  0.23026059411E+03  0.00000000000E+00 0.  1.
         24    2    1    2    0    0 -0.20989591895E+03  0.15911285146E+03  0.88319871288E+03  0.92527950522E+03  0.82030482494E+02 0.  0.
         23    2    1    2    0    0 -0.10506594993E+03  0.14369922807E+03  0.29017694569E+03  0.35263858149E+03  0.91994496359E+02 0.  0.
        -11    1    3    3    0    0 -0.20655843372E+03  0.12615715259E+03  0.75358389345E+03  0.79149901968E+03  0.00000000000E+00 0.  1.
         12    1    3    3    0    0 -0.33374852344E+01  0.32955698863E+02  0.12961481943E+03  0.13378048554E+03  0.00000000000E+00 0. -1.
        -13    1    4    4    0    0 -0.89222888812E+02  0.57315440549E+02  0.11346958536E+03  0.15530978853E+03  0.00000000000E+00 0. -1.
         13    1    4    4    0    0 -0.15843061113E+02  0.86383787522E+02  0.17670736033E+03  0.19732879295E+03  0.00000000000E+00 0.  1.
         21    1    1    2  503  502  0.29117645298E+03 -0.30299340714E+03  0.13565734452E+03  0.44157858493E+03  0.00000000000E+00 0. -1.
          1    1    1    2  501    0  0.23785415893E+02  0.18132761113E+00 -0.19377472150E+02  0.30680047520E+02  0.00000000000E+00 0. -1.
<scales pt_clust_5="13000.00000" pt_clust_6="13000.00000" pt_clust_7="13000.00000" pt_clust_8="13000.00000" pt_clust_9="432.60228" pt_clust_10="23.78611"></scales>
<clustering>
<clus scale="   23.786">  2 10  1 -1</clus>
<clus scale="   82.030">  5  6 -1 -1</clus>
<clus scale="   91.994">  7  8 -1 -1</clus>
<clus scale="  168.918">  5  7 -1 -1</clus>
<clus scale="  432.602">  2  9  1 -1</clus>
<clus scale="   23.786">  2  5  1 -1</clus>
</clustering>
</event>
<event>
10    4  0.3738096E-005  0.1640166E+03  0.7546771E-02  0.1186107E+00
         21   -1    0    0  501  502  0.00000000000E+00  0.00000000000E+00  0.49847651203E+03  0.49847651203E+03  0.00000000000E+00 0. -1.
          4   -1    0    0  503    0 -0.00000000000E+00 -0.00000000000E+00 -0.26386031375E+03  0.26386031375E+03  0.00000000000E+00 0. -1.
         23    2    1    2    0    0 -0.67636900177E+02 -0.67990461433E+02 -0.78855665827E+02  0.15503255495E+03  0.92840852811E+02 0.  0.
         24    2    1    2    0    0  0.43881846866E+02  0.10713619242E+03  0.16248120071E+03  0.21510687692E+03  0.80417956354E+02 0.  0.
        -11    1    4    4    0    0 -0.12894119525E+02  0.73333782725E+02  0.94422870152E+02  0.12024882708E+03  0.00000000000E+00 0.  1.
         12    1    4    4    0    0  0.56775966391E+02  0.33802409695E+02  0.68058330556E+02  0.94858049837E+02  0.00000000000E+00 0. -1.
        -13    1    3    3    0    0 -0.80511473661E+02 -0.46475693646E+02 -0.25997851558E+02  0.96529662677E+02  0.00000000000E+00 0.  1.
         13    1    3    3    0    0  0.12874573483E+02 -0.21514767787E+02 -0.52857814269E+02  0.58502892276E+02  0.00000000000E+00 0. -1.
         21    1    1    2  503  502 -0.25699558128E+02 -0.71086922452E+02 -0.10508150903E+03  0.12944474254E+03  0.00000000000E+00 0. -1.
          3    1    1    2  501    0  0.49454611440E+02  0.31941191464E+02  0.25607217243E+03  0.26275265136E+03  0.00000000000E+00 0. -1.
<scales pt_clust_5="13000.00000" pt_clust_6="13000.00000" pt_clust_7="13000.00000" pt_clust_8="13000.00000" pt_clust_9="73.22495" pt_clust_10="58.87273"></scales>
<clustering>
<clus scale="   58.873">  1 10  2 -1</clus>
<clus scale="   73.225">  2  9  1 -1</clus>
<clus scale="   80.418">  5  6 -1 -1</clus>
<clus scale="   92.841">  7  8 -1 -1</clus>
<clus scale="  157.318">  1  5  2 -1</clus>
<clus scale="   58.873">  1  5  2 -1</clus>
</clustering>
</event>
<event>
10    4  0.3738096E-005  0.2126226E+03  0.7546771E-02  0.1141566E+00
          2   -1    0    0  503    0 -0.00000000000E+00  0.00000000000E+00  0.10329193912E+04  0.10329193912E+04  0.00000000000E+00 0. -1.
         21   -1    0    0  501  502  0.00000000000E+00 -0.00000000000E+00 -0.12861623170E+03  0.12861623170E+03  0.00000000000E+00 0.  1.
         23    2    1    2    0    0 -0.11443678816E+03  0.74433746238E+02  0.32664019035E+03  0.36560833357E+03  0.91320745526E+02 0.  0.
         24    2    1    2    0    0  0.26947047625E+03 -0.12631418427E+03  0.18707698126E+03  0.35725872285E+03  0.63768232030E+02 0.  0.
        -11    1    4    4    0    0  0.19158772099E+03 -0.62297998086E+02  0.14395220116E+03  0.24760680851E+03  0.00000000000E+00 0.  1.
         12    1    4    4    0    0  0.77882755259E+02 -0.64016186182E+02  0.43124780098E+02  0.10965191434E+03  0.00000000000E+00 0. -1.
        -13    1    3    3    0    0 -0.72848723278E+02 -0.62017976290E+01  0.13313870883E+03  0.15189244407E+03  0.00000000000E+00 0. -1.
         13    1    3    3    0    0 -0.41588064880E+02  0.80635543867E+02  0.19350148151E+03  0.21371588950E+03  0.00000000000E+00 0.  1.
         21    1    1    2  503  502 -0.71670580635E+02 -0.22035504382E+02  0.23938205002E+03  0.25085055601E+03  0.00000000000E+00 0.  1.
          1    1    1    2  501    0 -0.83363107457E+02  0.73915942412E+02  0.15120393785E+03  0.18781801045E+03  0.00000000000E+00 0. -1.
<scales pt_clust_5="13000.00000" pt_clust_6="13000.00000" pt_clust_7="13000.00000" pt_clust_8="13000.00000" pt_clust_9="74.98157" pt_clust_10="120.59642"></scales>
<clustering>
<clus scale="   63.768">  5  6 -1 -1</clus>
<clus scale="   74.982">  1  9  2 -1</clus>
<clus scale="   91.321">  7  8 -1 -1</clus>
<clus scale="  120.596">  2 10  1 -1</clus>
<clus scale="  202.325">  2  5  1 -1</clus>
<clus scale="  120.596">  2  5  1 -1</clus>
</clustering>
</event>
<event>
10    4  0.3738096E-005  0.1259469E+03  0.7546771E-02  0.1245413E+00
          2   -1    0    0  503    0 -0.00000000000E+00  0.00000000000E+00  0.10575901388E+04  0.10575901388E+04  0.00000000000E+00 0. -1.
         21   -1    0    0  501  502  0.00000000000E+00 -0.00000000000E+00 -0.65720322066E+02  0.65720322066E+02  0.00000000000E+00 0. -1.
         23    2    1    2    0    0  0.59416366494E+02  0.50629238034E+02  0.18794168229E+03  0.23182561091E+03  0.11102888625E+03 0.  0.
         24    2    1    2    0    0 -0.29977004367E+02  0.12847964964E+01  0.18332054096E+02  0.86676975835E+02  0.79224759007E+02 0.  0.
        -13    1    4    4    0    0  0.38921207464E+01 -0.34778734413E+02  0.43512351764E+01  0.35265311835E+02  0.00000000000E+00 0.  1.
         14    1    4    4    0    0 -0.33869125113E+02  0.36063530909E+02  0.13980818920E+02  0.51411664000E+02  0.00000000000E+00 0. -1.
        -11    1    3    3    0    0 -0.15869524418E+02 -0.24045311023E+02  0.30037967399E+02  0.41620887459E+02  0.00000000000E+00 0.  1.
         11    1    3    3    0    0  0.75285890911E+02  0.74674549058E+02  0.15790371489E+03  0.19020472345E+03  0.00000000000E+00 0. -1.
         21    1    1    2  503  502  0.54994236576E+02 -0.58226830387E+02  0.51745375900E+03  0.52361543382E+03  0.00000000000E+00 0. -1.
          1    1    1    2  501    0 -0.84433598703E+02  0.63127958565E+01  0.26814232132E+03  0.28119244027E+03  0.00000000000E+00 0. -1.
<scales pt_clust_5="13000.00000" pt_clust_6="13000.00000" pt_clust_7="13000.00000" pt_clust_8="13000.00000" pt_clust_9="80.09201" pt_clust_10="61.00194"></scales>
<clustering>
<clus scale="   79.225">  5  6 -1 -1</clus>
<clus scale="   80.092">  1  9  2 -1</clus>
<clus scale="   61.002">  2 10  1 -1</clus>
<clus scale="   99.054">  2  5  1 -1</clus>
<clus scale="  111.029">  7  8 -1 -1</clus>
<clus scale="   61.002">  2  5  1 -1</clus>
</clustering>
</event>
<event>
10    4  0.3738096E-005  0.9710980E+02  0.7546771E-02  0.1293656E+00
          4   -1    0    0  503    0 -0.00000000000E+00  0.00000000000E+00  0.64809916214E+03  0.64809916214E+03  0.00000000000E+00 0. -1.
         21   -1    0    0  501  502  0.00000000000E+00 -0.00000000000E+00 -0.55581582863E+02  0.55581582863E+02  0.00000000000E+00 0. -1.
         23    2    1    2    0    0  0.40192069664E+02  0.76222034241E+01  0.19774334012E+03  0.22176164116E+03  0.91664041355E+02 0.  0.
         24    2    1    2    0    0 -0.25658354889E+02 -0.29562885052E+02  0.25859290982E+02  0.91565999500E+02  0.78634051060E+02 0.  0.
        -13    1    4    4    0    0 -0.20807696338E+02  0.24542585188E+02  0.17428953863E+02  0.36593266421E+02  0.00000000000E+00 0.  1.
         14    1    4    4    0    0 -0.48506585508E+01 -0.54105470240E+02  0.84303371192E+01  0.54972733079E+02  0.00000000000E+00 0. -1.
        -11    1    3    3    0    0  0.42205964729E+02 -0.34232382639E+02  0.14186369363E+03  0.15191611847E+03  0.00000000000E+00 0.  1.
         11    1    3    3    0    0 -0.20138950651E+01  0.41854586063E+02  0.55879646493E+02  0.69845522691E+02  0.00000000000E+00 0. -1.
         21    1    1    2  503  502 -0.53015368265E+02  0.35754613157E+02  0.32126138103E+03  0.32756357639E+03  0.00000000000E+00 0. -1.
          3    1    1    2  501    0  0.38481653490E+02 -0.13813931530E+02  0.47653567138E+02  0.62789527953E+02  0.00000000000E+00 0. -1.
<scales pt_clust_5="13000.00000" pt_clust_6="13000.00000" pt_clust_7="13000.00000" pt_clust_8="13000.00000" pt_clust_9="61.34826" pt_clust_10="40.88597"></scales>
<clustering>
<clus scale="   40.886">  2 10  1 -1</clus>
<clus scale="   61.348">  1  9  2 -1</clus>
<clus scale="   78.634">  5  6 -1 -1</clus>
<clus scale="   84.920">  2  5  1 -1</clus>
<clus scale="   91.664">  7  8 -1 -1</clus>
<clus scale="   40.886">  2  5  1 -1</clus>
</clustering>
</event>
<event>
10    4  0.3738096E-005  0.1499902E+03  0.7546771E-02  0.1202183E+00
         21   -1    0    0  501  502  0.00000000000E+00  0.00000000000E+00  0.37333705058E+03  0.37333705058E+03  0.00000000000E+00 0.  1.
          2   -1    0    0  503    0 -0.00000000000E+00 -0.00000000000E+00 -0.14183825199E+04  0.14183825199E+04  0.00000000000E+00 0. -1.
         24    2    1    2    0    0  0.94906439167E+02 -0.51305398297E+02 -0.11454861411E+04  0.11535139429E+04  0.82561741187E+02 0.  0.
         23    2    1    2    0    0 -0.54277384236E+02  0.17464280197E+01  0.24883042857E+03  0.27069900331E+03  0.91718502824E+02 0.  0.
        -13    1    3    3    0    0  0.50246053871E+02 -0.33544162079E+01 -0.21907743534E+03  0.22479065976E+03  0.00000000000E+00 0.  1.
         14    1    3    3    0    0  0.44660385296E+02 -0.47950982089E+02 -0.92640870572E+03  0.92872328318E+03  0.00000000000E+00 0. -1.
        -13    1    4    4    0    0 -0.44156714587E+02  0.33144292152E+02  0.22020813186E+03  0.22702418568E+03  0.00000000000E+00 0.  1.
         13    1    4    4    0    0 -0.10120669649E+02 -0.31397864132E+02  0.28622296708E+02  0.43674817631E+02  0.00000000000E+00 0. -1.
         21    1    1    2  503  502  0.23971388507E+02  0.30819008517E+02 -0.24593684213E+03  0.24901680479E+03  0.00000000000E+00 0.  1.
          1    1    1    2  501    0 -0.64600443438E+02  0.18739961760E+02  0.97547085298E+02  0.11848981943E+03  0.00000000000E+00 0. -1.
<scales pt_clust_5="13000.00000" pt_clust_6="13000.00000" pt_clust_7="13000.00000" pt_clust_8="13000.00000" pt_clust_9="39.04406" pt_clust_10="67.13537"></scales>
<clustering>
<clus scale="   39.044">  2  9  1 -1</clus>
<clus scale="   67.135">  1 10  2 -1</clus>
<clus scale="   82.562">  5  6 -1 -1</clus>
<clus scale="   91.719">  7  8 -1 -1</clus>
<clus scale="  144.573">  2  5  1 -1</clus>
<clus scale="   67.135">  1  5  2 -1</clus>
</clustering>
</event>
<event>
10    4  0.3738096E-005  0.2013607E+03  0.7546771E-02  0.1153220E+00
         -3   -1    0    0    0  501 -0.00000000000E+00  0.00000000000E+00  0.19458535711E+03  0.19458535711E+03  0.00000000000E+00 0.  1.
         21   -1    0    0  503  502  0.00000000000E+00 -0.00000000000E+00 -0.13600196241E+04  0.13600196241E+04  0.00000000000E+00 0.  1.
         24    2    1    2    0    0  0.16798087161E+03 -0.35913057184E+02 -0.32470614878E+03  0.37841576829E+03  0.90868529962E+02 0.  0.
         23    2    1    2    0    0 -0.13150451157E+03  0.66632641760E+02 -0.82230238114E+03  0.84506714458E+03  0.12737318125E+03 0.  0.
        -13    1    3    3    0    0  0.17181975611E+03 -0.37538469405E+02 -0.26190529655E+03  0.31547670221E+03  0.00000000000E+00 0.  1.
         14    1    3    3    0    0 -0.38388845049E+01  0.16254122207E+01 -0.62800852229E+02  0.62939066087E+02  0.00000000000E+00 0. -1.
        -11    1    4    4    0    0 -0.74568819555E+02  0.99087872704E+02 -0.62439341779E+03  0.63658939321E+03  0.00000000000E+00 0.  1.
         11    1    4    4    0    0 -0.56935692016E+02 -0.32455230944E+02 -0.19790896335E+03  0.20847775137E+03  0.00000000000E+00 0. -1.
         21    1    1    2  503  501 -0.19699822431E+02  0.48673689155E+01  0.15345762869E+03  0.15479346913E+03  0.00000000000E+00 0.  1.
         -4    1    1    2    0  502 -0.16776537605E+02 -0.35586953492E+02 -0.17188336572E+03  0.17632859916E+03  0.00000000000E+00 0.  1.
<scales pt_clust_5="13000.00000" pt_clust_6="13000.00000" pt_clust_7="13000.00000" pt_clust_8="13000.00000" pt_clust_9="20.29222" pt_clust_10="39.57785"></scales>
<clustering>
<clus scale="   20.292">  1  9  2 -1</clus>
<clus scale="   39.578">  2 10  1 -1</clus>
<clus scale="   90.869">  5  6 -1 -1</clus>
<clus scale="  127.373">  7  8 -1 -1</clus>
<clus scale="  180.497">  1  5  2 -1</clus>
<clus scale="   39.578">  2  5  1 -1</clus>
</clustering>
</event>
<event>
10    4  0.3738096E-005  0.1196144E+03  0.7546771E-02  0.1254155E+00
         -1   -1    0    0    0  501 -0.00000000000E+00  0.00000000000E+00  0.28720988914E+03  0.28720988914E+03  0.00000000000E+00 0.  1.
         21   -1    0    0  503  502  0.00000000000E+00 -0.00000000000E+00 -0.10945781754E+03  0.10945781754E+03  0.00000000000E+00 0. -1.
         24    2    1    2    0    0  0.14101262318E+02 -0.81619487254E+02  0.96209501738E+02  0.15088963246E+03  0.81552600582E+02 0.  0.
         23    2    1    2    0    0 -0.50419051985E+02 -0.60639798586E+01  0.21541524867E+02  0.12071971089E+03  0.10737950759E+03 0.  0.
        -13    1    3    3    0    0  0.26905489532E+02 -0.21399124924E+02  0.80227146356E+02  0.87282431949E+02  0.00000000000E+00 0.  1.
         14    1    3    3    0    0 -0.12804227214E+02 -0.60220362330E+02  0.15982355382E+02  0.63607200515E+02  0.00000000000E+00 0. -1.
        -11    1    4    4    0    0 -0.30282950307E+01  0.32169618654E+02 -0.27582701514E+02  0.42483648124E+02  0.00000000000E+00 0. -1.
         11    1    4    4    0    0 -0.47390756954E+02 -0.38233598513E+02  0.49124226381E+02  0.78236062768E+02  0.00000000000E+00 0.  1.
         21    1    1    2  503  501  0.45872273140E+01  0.29514600670E+02  0.49724338328E+02  0.58005724971E+02  0.00000000000E+00 0. -1.
         -2    1    1    2    0  502  0.31730562353E+02  0.58168866442E+02  0.10276706660E+02  0.67052638354E+02  0.00000000000E+00 0.  1.
<scales pt_clust_5="13000.00000" pt_clust_6="13000.00000" pt_clust_7="13000.00000" pt_clust_8="13000.00000" pt_clust_9="29.86895" pt_clust_10="70.93748"></scales>
<clustering>
<clus scale="   29.869">  1  9  2 -1</clus>
<clus scale="   70.937">  2 10  1 -1</clus>
<clus scale="   81.553">  5  6 -1 -1</clus>
<clus scale="   97.098">  1  5  2 -1</clus>
<clus scale="  107.380">  7  8 -1 -1</clus>
<clus scale="   70.937">  2  5  1 -1</clus>
</clustering>
</event>
<event>
10    4  0.3738096E-005  0.1062181E+03  0.7546771E-02  0.1271976E+00
          2   -1    0    0  502    0 -0.00000000000E+00  0.00000000000E+00  0.36056383445E+03  0.36056383445E+03  0.00000000000E+00 0. -1.
         21   -1    0    0  503  502  0.00000000000E+00 -0.00000000000E+00 -0.82320811328E+02  0.82320811328E+02  0.00000000000E+00 0. -1.
         24    2    1    2    0    0  0.68378578388E+02  0.30499027024E+02  0.12560332493E+03  0.16678289617E+03  0.80215451065E+02 0.  0.
         23    2    1    2    0    0 -0.10153616142E+02 -0.12598770115E+02  0.89314913688E+00  0.91669933559E+02  0.90226127448E+02 0.  0.
        -13    1    3    3    0    0  0.19668979850E+01 -0.23026937411E+02  0.17010052231E+02  0.28695825674E+02  0.00000000000E+00 0.  1.
         14    1    3    3    0    0  0.66411680403E+02  0.53525964435E+02  0.10859327269E+03  0.13808707049E+03  0.00000000000E+00 0. -1.
        -13    1    4    4    0    0 -0.22413828168E+02  0.35372367597E+02 -0.31368468168E+01  0.41993140994E+02  0.00000000000E+00 0.  1.
         13    1    4    4    0    0  0.12260212026E+02 -0.47971137711E+02  0.40299959537E+01  0.49676792566E+02  0.00000000000E+00 0. -1.
         21    1    1    2  503  501 -0.17832324897E+02 -0.41991452155E+02  0.31845011715E+02  0.55636127080E+02  0.00000000000E+00 0. -1.
          1    1    1    2  501    0 -0.40392637349E+02  0.24091195246E+02  0.11990153734E+03  0.12879568897E+03  0.00000000000E+00 0. -1.
<scales pt_clust_5="13000.00000" pt_clust_6="13000.00000" pt_clust_7="13000.00000" pt_clust_8="13000.00000" pt_clust_9="45.62098" pt_clust_10="46.72750"></scales>
<clustering>
<clus scale="   45.621">  2  9  1 -1</clus>
<clus scale="   46.728">  2 10  1 -1</clus>
<clus scale="   80.215">  5  6 -1 -1</clus>
<clus scale="   90.226">  7  8 -1 -1</clus>
<clus scale="   97.857">  1  5  2 -1</clus>
<clus scale="   45.621">  2  5  1 -1</clus>
</clustering>
</event>
<event>
10    4  0.3738096E-005  0.2937765E+03  0.7546771E-02  0.1088394E+00
         -3   -1    0    0    0  501 -0.00000000000E+00  0.00000000000E+00  0.10881284825E+04  0.10881284825E+04  0.00000000000E+00 0.  1.
         21   -1    0    0  503  502  0.00000000000E+00 -0.00000000000E+00 -0.10594922781E+03  0.10594922781E+03  0.00000000000E+00 0.  1.
         24    2    1    2    0    0  0.85970005065E+02 -0.13996759693E+03  0.41937079455E+03  0.45752862966E+03  0.80491078223E+02 0.  0.
         23    2    1    2    0    0  0.16015965665E+02 -0.21776385632E+02  0.24253667925E+03  0.25941724077E+03  0.87991714954E+02 0.  0.
        -11    1    3    3    0    0  0.32631386975E+02 -0.22016213828E+01  0.50398358044E+02  0.60080354910E+02  0.00000000000E+00 0.  1.
         12    1    3    3    0    0  0.53338618090E+02 -0.13776597555E+03  0.36897243651E+03  0.39744827475E+03  0.00000000000E+00 0. -1.
        -11    1    4    4    0    0  0.25741870190E+02 -0.53214685959E+02  0.15885513347E+03  0.16949749294E+03  0.00000000000E+00 0.  1.
         11    1    4    4    0    0 -0.97259045250E+01  0.31438300327E+02  0.83681545777E+02  0.89919747831E+02  0.00000000000E+00 0. -1.
         21    1    1    2  503  501 -0.11637440747E+03  0.24092800279E+03  0.27946157089E+03  0.38689543141E+03  0.00000000000E+00 0.  1.
         -4    1    1    2    0  502  0.14388436743E+02 -0.79184020224E+02  0.40810209988E+02  0.90236408450E+02  0.00000000000E+00 0.  1.
<scales pt_clust_5="13000.00000" pt_clust_6="13000.00000" pt_clust_7="13000.00000" pt_clust_8="13000.00000" pt_clust_9="216.74175" pt_clust_10="80.48066"></scales>
<clustering>
<clus scale="   80.481">  2 10  1 -1</clus>
<clus scale="   80.491">  5  6 -1 -1</clus>
<clus scale="   87.992">  7  8 -1 -1</clus>
<clus scale="   91.034">  5  7 -1 -1</clus>
<clus scale="  216.742">  2  9  1 -1</clus>
<clus scale="   80.481">  2  5  1 -1</clus>
</clustering>
</event>
<event>
10    4  0.3738096E-005  0.3520637E+03  0.7546771E-02  0.1062060E+00
          2   -1    0    0  503    0 -0.00000000000E+00  0.00000000000E+00  0.81827531980E+03  0.81827531980E+03  0.00000000000E+00 0. -1.
         21   -1    0    0  501  502  0.00000000000E+00 -0.00000000000E+00 -0.62037502414E+03  0.62037502414E+03  0.00000000000E+00 0. -1.
         24    2    1    2    0    0 -0.13196552223E+03  0.32443563919E+03  0.60851385205E+03  0.70653925457E+03  0.78963454025E+02 0.  0.
         23    2    1    2    0    0  0.13030692304E+03 -0.30630683840E+03 -0.24361386804E+03  0.42233712634E+03  0.90648541891E+02 0.  0.
        -13    1    3    3    0    0 -0.16592864753E+02  0.12761774002E+03  0.18292946141E+03  0.22366224218E+03  0.00000000000E+00 0.  1.
         14    1    3    3    0    0 -0.11537265748E+03  0.19681789917E+03  0.42558439065E+03  0.48287701239E+03  0.00000000000E+00 0. -1.
        -13    1    4    4    0    0  0.37049379723E+02 -0.23750322656E+02 -0.53346037031E+02  0.69155867654E+02  0.00000000000E+00 0. -1.
         13    1    4    4    0    0  0.93257543319E+02 -0.28255651574E+03 -0.19026783101E+03  0.35318125869E+03  0.00000000000E+00 0.  1.
         21    1    1    2  503  502  0.45459770378E+02  0.51457561116E+01  0.61107634212E+02  0.76336180725E+02  0.00000000000E+00 0. -1.
          1    1    1    2  501    0 -0.43801171187E+02 -0.23274556909E+02 -0.22810732256E+03  0.23343778230E+03  0.00000000000E+00 0. -1.
<scales pt_clust_5="13000.00000" pt_clust_6="13000.00000" pt_clust_7="13000.00000" pt_clust_8="13000.00000" pt_clust_9="45.75008" pt_clust_10="49.44959"></scales>
<clustering>
<clus scale="   45.750">  1  9  2 -1</clus>
<clus scale="   49.450">  2 10  1 -1</clus>
<clus scale="   78.963">  5  6 -1 -1</clus>
<clus scale="   90.649">  7  8 -1 -1</clus>
<clus scale="  349.238">  1  5  2 -1</clus>
<clus scale="   49.450">  2  5  1 -1</clus>
</clustering>
</event>
<event>
10    4  0.3738096E-005  0.2314964E+03  0.7546771E-02  0.1126372E+00
          2   -1    0    0  503    0 -0.00000000000E+00  0.00000000000E+00  0.37264843024E+03  0.37264843024E+03  0.00000000000E+00 0. -1.
         21   -1    0    0  501  502  0.00000000000E+00 -0.00000000000E+00 -0.19655030641E+03  0.19655030641E+03  0.00000000000E+00 0. -1.
         24    2    1    2    0    0 -0.20312157665E+03  0.57142875968E+02  0.80675166836E+02  0.24007174546E+03  0.81254398325E+02 0.  0.
         23    2    1    2    0    0  0.21219664290E+03 -0.60512443507E+02  0.49570403660E+02  0.24450056093E+03  0.92920010217E+02 0.  0.
        -11    1    3    3    0    0 -0.16058625620E+03  0.76956291035E+01  0.60844717266E+02  0.17189894708E+03  0.00000000000E+00 0.  1.
         12    1    3    3    0    0 -0.42535320449E+02  0.49447246864E+02  0.19830449570E+02  0.68172798375E+02  0.00000000000E+00 0. -1.
        -11    1    4    4    0    0  0.54312600712E+01 -0.29693834863E+02  0.30736577864E+01  0.30342540880E+02  0.00000000000E+00 0.  1.
         11    1    4    4    0    0  0.20676538282E+03 -0.30818608644E+02  0.46496745874E+02  0.21415802005E+03  0.00000000000E+00 0. -1.
         21    1    1    2  503  502  0.24131918397E+02 -0.19213995300E+02  0.22389440626E+02  0.38115799250E+02  0.00000000000E+00 0. -1.
          1    1    1    2  501    0 -0.33206984642E+02  0.22583562840E+02  0.23463112704E+02  0.46510631014E+02  0.00000000000E+00 0. -1.
<scales pt_clust_5="13000.00000" pt_clust_6="13000.00000" pt_clust_7="13000.00000" pt_clust_8="13000.00000" pt_clust_9="30.84683" pt_clust_10="37.01637"></scales>
<clustering>
<clus scale="   30.847">  1  9  2 -1</clus>
<clus scale="   37.016">  2 10  1 -1</clus>
<clus scale="   81.254">  5  6 -1 -1</clus>
<clus scale="   92.920">  7  8 -1 -1</clus>
<clus scale="  227.065">  1  5  2 -1</clus>
<clus scale="   37.016">  2  5  1 -1</clus>
</clustering>
</event>
<event>
10    4  0.3738096E-005  0.2160533E+03  0.7546771E-02  0.1174313E+00
          2   -1    0    0  503    0 -0.00000000000E+00  0.00000000000E+00  0.65309928377E+03  0.65309928377E+03  0.00000000000E+00 0. -1.
         21   -1    0    0  501  502  0.00000000000E+00 -0.00000000000E+00 -0.12697744411E+03  0.12697744411E+03  0.00000000000E+00 0. -1.
         24    2    1    2    0    0 -0.58538411972E+00 -0.32672417584E+02  0.71828675469E+02  0.11685395856E+03  0.86183870100E+02 0.  0.
         23    2    1    2    0    0  0.39692008692E+02  0.18399756351E+03  0.15689439325E+03  0.26136591555E+03  0.90916072556E+02 0.  0.
        -13    1    3    3    0    0 -0.42294851937E+02 -0.22211649412E+02  0.47866424333E+02  0.67626965394E+02  0.00000000000E+00 0.  1.
         14    1    3    3    0    0  0.41709467817E+02 -0.10460768172E+02  0.23962251136E+02  0.49226993163E+02  0.00000000000E+00 0. -1.
        -11    1    4    4    0    0 -0.23074868855E+02  0.21477978164E+02  0.88546553358E+01  0.32743824453E+02  0.00000000000E+00 0.  1.
         11    1    4    4    0    0  0.62766877547E+02  0.16251958535E+03  0.14803973791E+03  0.22862209110E+03  0.00000000000E+00 0. -1.
         21    1    1    2  503  502  0.21041395636E+02  0.44143626692E+02  0.12551694619E+03  0.13470673290E+03  0.00000000000E+00 0.  1.
          1    1    1    2  501    0 -0.60148020209E+02 -0.19546877262E+03  0.17188182475E+03  0.26715012087E+03  0.00000000000E+00 0. -1.
<scales pt_clust_5="13000.00000" pt_clust_6="13000.00000" pt_clust_7="13000.00000" pt_clust_8="13000.00000" pt_clust_9="48.90194" pt_clust_10="195.99318"></scales>
<clustering>
<clus scale="   48.902">  1  9  2 -1</clus>
<clus scale="   86.184">  5  6 -1 -1</clus>
<clus scale="   89.714">  1  5  2 -1</clus>
<clus scale="   90.916">  7  8 -1 -1</clus>
<clus scale="  195.993">  2 10  1 -1</clus>
<clus scale="  195.993">  2  5  1 -1</clus>
</clustering>
</event>
<event>
10    4  0.3738096E-005  0.9402144E+02  0.7546771E-02  0.1303480E+00
         21   -1    0    0  501  502  0.00000000000E+00  0.00000000000E+00  0.81382677607E+02  0.81382677607E+02  0.00000000000E+00 0.  1.
          2   -1    0    0  503    0 -0.00000000000E+00 -0.00000000000E+00 -0.28973999185E+03  0.28973999185E+03  0.00000000000E+00 0. -1.
         23    2    1    2    0    0  0.10959645066E+02  0.23684120235E+01 -0.17062378507E+03  0.19372431200E+03  0.91054433351E+02 0.  0.
         24    2    1    2    0    0 -0.87759423749E+01 -0.10780817446E+02  0.14392573098E+02  0.77074611275E+02  0.74431890702E+02 0.  0.
        -11    1    4    4    0    0 -0.35504861703E+02 -0.11832610160E+02  0.28305242967E+02  0.46923263390E+02  0.00000000000E+00 0.  1.
         12    1    4    4    0    0  0.26728919329E+02  0.10517927144E+01 -0.13912669869E+02  0.30151347885E+02  0.00000000000E+00 0. -1.
        -13    1    3    3    0    0 -0.32623464151E+02  0.18208011960E+02 -0.38273695130E+02  0.53485491974E+02  0.00000000000E+00 0.  1.
         13    1    3    3    0    0  0.43583109217E+02 -0.15839599937E+02 -0.13235008994E+03  0.14023882003E+03  0.00000000000E+00 0. -1.
         21    1    1    2  503  502  0.18471649873E+02  0.77343631707E+01 -0.70118758365E+02  0.72922304525E+02  0.00000000000E+00 0. -1.
          1    1    1    2  501    0 -0.20655352563E+02  0.67804225145E+00  0.17992656103E+02  0.27401441649E+02  0.00000000000E+00 0. -1.
<scales pt_clust_5="13000.00000" pt_clust_6="13000.00000" pt_clust_7="13000.00000" pt_clust_8="13000.00000" pt_clust_9="20.02554" pt_clust_10="20.27475"></scales>
<clustering>
<clus scale="   20.026">  2  9  1 -1</clus>
<clus scale="   20.275">  1 10  2 -1</clus>
<clus scale="   74.432">  5  6 -1 -1</clus>
<clus scale="   78.034">  1  5  2 -1</clus>
<clus scale="   91.054">  7  8 -1 -1</clus>
<clus scale="   20.275">  1  5  2 -1</clus>
</clustering>
</event>
<event>
10    4  0.3738096E-005  0.1655651E+03  0.7546771E-02  0.1184576E+00
         21   -1    0    0  501  502  0.00000000000E+00  0.00000000000E+00  0.54763175335E+02  0.54763175335E+02  0.00000000000E+00 0. -1.
          2   -1    0    0  503    0 -0.00000000000E+00 -0.00000000000E+00 -0.11581097425E+04  0.11581097425E+04  0.00000000000E+00 0. -1.
         24    2    1    2    0    0  0.11414016895E+03  0.34549194423E+01 -0.75472522201E+03  0.76766542247E+03  0.81609591784E+02 0.  0.
         23    2    1    2    0    0 -0.13468413257E+03 -0.66591341800E+02 -0.17778686062E+03  0.25141829925E+03  0.95019845401E+02 0.  0.
        -13    1    3    3    0    0  0.45437367537E+02  0.41726132048E+02 -0.33881141102E+03  0.34438176012E+03  0.00000000000E+00 0.  1.
         14    1    3    3    0    0  0.68702801410E+02 -0.38271212606E+02 -0.41591381099E+03  0.42328366235E+03  0.00000000000E+00 0. -1.
        -11    1    4    4    0    0 -0.16459064252E+02 -0.30536750323E+02 -0.98853751956E+02  0.10476382101E+03  0.00000000000E+00 0.  1.
         11    1    4    4    0    0 -0.11822506832E+03 -0.36054591477E+02 -0.78933108665E+02  0.14665447824E+03  0.00000000000E+00 0. -1.
         21    1    1    2  503  502  0.27182460247E+02  0.16763845134E+02 -0.12203258070E+03  0.12614223481E+03  0.00000000000E+00 0. -1.
          1    1    1    2  501    0 -0.66384966253E+01  0.46372577224E+02 -0.48801903781E+02  0.67646961266E+02  0.00000000000E+00 0. -1.
<scales pt_clust_5="13000.00000" pt_clust_6="13000.00000" pt_clust_7="13000.00000" pt_clust_8="13000.00000" pt_clust_9="31.93607" pt_clust_10="47.59143"></scales>
<clustering>
<clus scale="   31.936">  2  9  1 -1</clus>
<clus scale="   47.591">  1 10  2 -1</clus>
<clus scale="   81.610">  5  6 -1 -1</clus>
<clus scale="   95.020">  7  8 -1 -1</clus>
<clus scale="  158.250">  2  5  1 -1</clus>
<clus scale="   47.591">  1  5  2 -1</clus>
</clustering>
</event>
<event>
10    4  0.3738096E-005  0.3408650E+03  0.7546771E-02  0.1066689E+00
         21   -1    0    0  501  502  0.00000000000E+00  0.00000000000E+00  0.46577670213E+03  0.46577670213E+03  0.00000000000E+00 0. -1.
          2   -1    0    0  503    0 -0.00000000000E+00 -0.00000000000E+00 -0.13747716067E+04  0.13747716067E+04  0.00000000000E+00 0. -1.
         24    2    1    2    0    0  0.24127174032E+03  0.17272010318E+03 -0.91457257525E+03  0.96484345786E+03  0.80222291521E+02 0.  0.
         23    2    1    2    0    0 -0.24297950615E+03 -0.29964975188E+03  0.31358007128E+03  0.50523381912E+03  0.89998537065E+02 0.  0.
        -11    1    3    3    0    0  0.18119408349E+03  0.83479836692E+02 -0.61415286691E+03  0.64574292327E+03  0.00000000000E+00 0.  1.
         12    1    3    3    0    0  0.60077656821E+02  0.89240266489E+02 -0.30041970834E+03  0.31910053459E+03  0.00000000000E+00 0. -1.
        -13    1    4    4    0    0 -0.17604615823E+03 -0.26870444200E+03  0.26956298802E+03  0.41935489920E+03  0.00000000000E+00 0. -1.
         13    1    4    4    0    0 -0.66933347926E+02 -0.30945309876E+02  0.44017083264E+02  0.85878919922E+02  0.00000000000E+00 0.  1.
         21    1    1    2  503  502  0.34010023465E+02  0.13421283745E+02 -0.22061364527E+03  0.22362288129E+03  0.00000000000E+00 0. -1.
          1    1    1    2  501    0 -0.32302257629E+02  0.11350836495E+03 -0.87388755288E+02  0.14684815052E+03  0.00000000000E+00 0. -1.
<scales pt_clust_5="13000.00000" pt_clust_6="13000.00000" pt_clust_7="13000.00000" pt_clust_8="13000.00000" pt_clust_9="36.56245" pt_clust_10="118.43873"></scales>
<clustering>
<clus scale="   36.562">  2  9  1 -1</clus>
<clus scale="   80.222">  5  6 -1 -1</clus>
<clus scale="   89.999">  7  8 -1 -1</clus>
<clus scale="  118.439">  1 10  2 -1</clus>
<clus scale="  338.415">  2  5  1 -1</clus>
<clus scale="  118.439">  1  5  2 -1</clus>
</clustering>
</event>
<event>
10    4  0.3738096E-005  0.1518560E+03  0.7546771E-02  0.1199431E+00
          4   -1    0    0  503    0 -0.00000000000E+00  0.00000000000E+00  0.24847883108E+03  0.24847883108E+03  0.00000000000E+00 0. -1.
         21   -1    0    0  501  502  0.00000000000E+00 -0.00000000000E+00 -0.21596860655E+03  0.21596860655E+03  0.00000000000E+00 0. -1.
         24    2    1    2    0    0  0.10325753557E+03  0.55051885844E+02  0.31289755902E+02  0.14725700816E+03  0.83742156895E+02 0.  0.
         23    2    1    2    0    0 -0.13830336183E+03 -0.52826371244E+02 -0.91035232853E+02  0.19598732583E+03  0.90582409302E+02 0.  0.
        -13    1    3    3    0    0  0.19120451257E+02  0.49571617322E+02 -0.88688699926E+01  0.53866443684E+02  0.00000000000E+00 0.  1.
         14    1    3    3    0    0  0.84137084314E+02  0.54802685221E+01  0.40158625895E+02  0.93390564479E+02  0.00000000000E+00 0. -1.
        -11    1    4    4    0    0 -0.90016223739E+02  0.98893926333E+01 -0.27954864375E+02  0.94774443101E+02  0.00000000000E+00 0. -1.
         11    1    4    4    0    0 -0.48287138087E+02 -0.62715763877E+02 -0.63080368478E+02  0.10121288273E+03  0.00000000000E+00 0.  1.
         21    1    1    2  503  502 -0.19839941124E+02  0.42114249699E+01  0.11398523330E+02  0.23265547451E+02  0.00000000000E+00 0. -1.
          3    1    1    2  501    0  0.54885767379E+02 -0.64369395699E+01  0.80857178156E+02  0.97937556183E+02  0.00000000000E+00 0. -1.
<scales pt_clust_5="13000.00000" pt_clust_6="13000.00000" pt_clust_7="13000.00000" pt_clust_8="13000.00000" pt_clust_9="20.28200" pt_clust_10="47.45678"></scales>
<clustering>
<clus scale="   20.282">  1  9  2 -1</clus>
<clus scale="   47.457">  2 10  1 -1</clus>
<clus scale="   83.742">  5  6 -1 -1</clus>
<clus scale="   90.582">  7  8 -1 -1</clus>
<clus scale="  147.878">  1  5  2 -1</clus>
<clus scale="   47.457">  2  5  1 -1</clus>
</clustering>
</event>
<event>
10    4  0.3738096E-005  0.1144987E+03  0.7546771E-02  0.1253435E+00
          2   -1    0    0  503    0 -0.00000000000E+00  0.00000000000E+00  0.42725665924E+03  0.42725665924E+03  0.00000000000E+00 0. -1.
         21   -1    0    0  501  502  0.00000000000E+00 -0.00000000000E+00 -0.10506185181E+03  0.10506185181E+03  0.00000000000E+00 0. -1.
         23    2    1    2    0    0 -0.75992371110E+02  0.67843341177E+02  0.31623466952E+03  0.34407896912E+03  0.89489727783E+02 0.  0.
         24    2    1    2    0    0  0.22533215140E+02 -0.18725502383E+02  0.11886873007E+02  0.92244102975E+02  0.86656139769E+02 0.  0.
        -13    1    4    4    0    0  0.66942492722E+01 -0.39689834804E+02 -0.24681356160E+02  0.47215096124E+02  0.00000000000E+00 0.  1.
         14    1    4    4    0    0  0.15838965868E+02  0.20964332421E+02  0.36568229167E+02  0.45029006851E+02  0.00000000000E+00 0. -1.
        -11    1    3    3    0    0 -0.40884224779E+02  0.10402820495E+02  0.34750408015E+02  0.54656466838E+02  0.00000000000E+00 0.  1.
         11    1    3    3    0    0 -0.35108146331E+02  0.57440520682E+02  0.28148426150E+03  0.28942250228E+03  0.00000000000E+00 0. -1.
         21    1    1    2  503  502  0.18662039971E+02 -0.95462304583E+01  0.26754922671E+02  0.33988647207E+02  0.00000000000E+00 0.  1.
          1    1    1    2  501    0  0.34797115999E+02 -0.39571608336E+02 -0.32681657764E+02  0.62006791743E+02  0.00000000000E+00 0. -1.
<scales pt_clust_5="13000.00000" pt_clust_6="13000.00000" pt_clust_7="13000.00000" pt_clust_8="13000.00000" pt_clust_9="20.96192" pt_clust_10="53.41578"></scales>
<clustering>
<clus scale="   20.962">  1  9  2 -1</clus>
<clus scale="   53.416">  2 10  1 -1</clus>
<clus scale="   86.656">  5  6 -1 -1</clus>
<clus scale="   89.490">  7  8 -1 -1</clus>
<clus scale="  112.298">  2  5  1 -1</clus>
<clus scale="   53.416">  2  5  1 -1</clus>
</clustering>
</event>
<event>
10    4  0.3738096E-005  0.8824319E+03  0.7546771E-02  0.9447813E-01
         21   -1    0    0  501  502  0.00000000000E+00  0.00000000000E+00  0.34601638877E+03  0.34601638877E+03  0.00000000000E+00 0.  1.
          2   -1    0    0  503    0 -0.00000000000E+00 -0.00000000000E+00 -0.27038637591E+04  0.27038637591E+04  0.00000000000E+00 0. -1.
         24    2    1    2    0    0 -0.37633260579E+03  0.58961449207E+03 -0.14846120337E+04  0.16431172870E+04  0.80560838314E+02 0.  0.
         23    2    1    2    0    0 -0.43111905736E+02  0.12908684583E+03 -0.28508404616E+03  0.32774472027E+03  0.87301993697E+02 0.  0.
        -11    1    3    3    0    0 -0.18958626749E+03  0.37025526179E+03 -0.88653831080E+03  0.97927630842E+03  0.00000000000E+00 0.  1.
         12    1    3    3    0    0 -0.18674633830E+03  0.21935923027E+03 -0.59807372291E+03  0.66384097856E+03  0.00000000000E+00 0. -1.
        -11    1    4    4    0    0 -0.32331099310E+02  0.29779042730E+02 -0.28460080239E+02  0.52364754709E+02  0.00000000000E+00 0.  1.
         11    1    4    4    0    0 -0.10780806425E+02  0.99307803099E+02 -0.25662396592E+03  0.27537996556E+03  0.00000000000E+00 0. -1.
         21    1    1    2  503  502 -0.11546555386E+02  0.18544869982E+02 -0.85154819235E+02  0.87912333508E+02  0.00000000000E+00 0. -1.
          1    1    1    2  501    0  0.43099106692E+03 -0.73724620788E+03 -0.50299647117E+03  0.99110580707E+03  0.00000000000E+00 0. -1.
<scales pt_clust_5="13000.00000" pt_clust_6="13000.00000" pt_clust_7="13000.00000" pt_clust_8="13000.00000" pt_clust_9="21.84571" pt_clust_10="847.74914"></scales>
<clustering>
<clus scale="   21.846">  2  9  1 -1</clus>
<clus scale="   80.561">  5  6 -1 -1</clus>
<clus scale="   87.302">  7  8 -1 -1</clus>
<clus scale="   94.534">  5  7 -1 -1</clus>
<clus scale="  847.749">  1 10  2 -1</clus>
<clus scale="  847.749">  1  5  2 -1</clus>
</clustering>
</event>
<event>
10    4  0.3738096E-005  0.1404802E+03  0.7546771E-02  0.1214476E+00
         21   -1    0    0  501  502  0.00000000000E+00  0.00000000000E+00  0.98883151487E+03  0.98883151487E+03  0.00000000000E+00 0. -1.
          2   -1    0    0  503    0 -0.00000000000E+00 -0.00000000000E+00 -0.40296104698E+02  0.40296104698E+02  0.00000000000E+00 0. -1.
         24    2    1    2    0    0  0.39822031283E+02  0.11540623483E+03  0.43973176868E+03  0.46344675239E+03  0.80712271069E+02 0.  0.
         23    2    1    2    0    0 -0.51940281180E+02 -0.80283971316E+02  0.48118019915E+03  0.49863577364E+03  0.89218506107E+02 0.  0.
        -11    1    3    3    0    0 -0.56975050401E+01  0.92507494854E+02  0.23881368381E+03  0.25616805761E+03  0.00000000000E+00 0.  1.
         12    1    3    3    0    0  0.45519536323E+02  0.22898739980E+02  0.20091808487E+03  0.20727869477E+03  0.00000000000E+00 0. -1.
        -11    1    4    4    0    0 -0.48141288471E+02  0.16610292821E+01  0.20115350367E+03  0.20684069888E+03  0.00000000000E+00 0. -1.
         11    1    4    4    0    0 -0.37989927088E+01 -0.81945000598E+02  0.28002669549E+03  0.29179507476E+03  0.00000000000E+00 0.  1.
         21    1    1    2  503  502  0.20104203549E+02 -0.14649684510E+02  0.35803612238E+02  0.43596913949E+02  0.00000000000E+00 0. -1.
          1    1    1    2  501    0 -0.79859536514E+01 -0.20472579009E+02 -0.81801698937E+01  0.23448179598E+02  0.00000000000E+00 0. -1.
<scales pt_clust_5="13000.00000" pt_clust_6="13000.00000" pt_clust_7="13000.00000" pt_clust_8="13000.00000" pt_clust_9="25.11694" pt_clust_10="21.97504"></scales>
<clustering>
<clus scale="   21.975">  1 10  2 -1</clus>
<clus scale="   25.117">  2  9  1 -1</clus>
<clus scale="   80.712">  5  6 -1 -1</clus>
<clus scale="   89.219">  7  8 -1 -1</clus>
<clus scale="  135.238">  2  5  1 -1</clus>
<clus scale="   21.975">  1  5  2 -1</clus>
</clustering>
</event>
<event>
10    4  0.3738096E-005  0.1211385E+03  0.7546771E-02  0.1243979E+00
         21   -1    0    0  501  502  0.00000000000E+00  0.00000000000E+00  0.31746271869E+03  0.31746271869E+03  0.00000000000E+00 0.  1.
          2   -1    0    0  503    0 -0.00000000000E+00 -0.00000000000E+00 -0.17981462875E+03  0.17981462875E+03  0.00000000000E+00 0. -1.
         23    2    1    2    0    0  0.41777870238E+02  0.22036866250E+02 -0.63349056306E+02  0.12098349027E+03  0.91612706904E+02 0.  0.
         24    2    1    2    0    0  0.54676412311E+02 -0.87083481863E+02  0.20525051196E+03  0.24402855528E+03  0.82759411871E+02 0.  0.
        -13    1    4    4    0    0  0.28778271323E+02 -0.97929859915E+02  0.17618399864E+03  0.20361544082E+03  0.00000000000E+00 0.  1.
         14    1    4    4    0    0  0.25898140988E+02  0.10846378051E+02  0.29066513322E+02  0.40413114458E+02  0.00000000000E+00 0. -1.
        -11    1    3    3    0    0  0.16100874100E+02 -0.26407243043E+02 -0.58207974937E+02  0.65914709877E+02  0.00000000000E+00 0.  1.
         11    1    3    3    0    0  0.25676996138E+02  0.48444109293E+02 -0.51410813688E+01  0.55068780388E+02  0.00000000000E+00 0. -1.
         21    1    1    2  503  502 -0.69149895546E+02  0.71376906593E+02 -0.18081095907E+02  0.10101137004E+03  0.00000000000E+00 0. -1.
          1    1    1    2  501    0 -0.27304387003E+02 -0.63302909794E+01  0.13827730190E+02  0.31253931844E+02  0.00000000000E+00 0. -1.
<scales pt_clust_5="13000.00000" pt_clust_6="13000.00000" pt_clust_7="13000.00000" pt_clust_8="13000.00000" pt_clust_9="101.46806" pt_clust_10="28.02859"></scales>
<clustering>
<clus scale="   28.029">  1 10  2 -1</clus>
<clus scale="   82.759">  5  6 -1 -1</clus>
<clus scale="   91.613">  7  8 -1 -1</clus>
<clus scale="  101.468">  2  9  1 -1</clus>
<clus scale="  114.590">  1  5  2 -1</clus>
<clus scale="   28.029">  1  5  2 -1</clus>
</clustering>
</event>
<event>
10    4  0.3738096E-005  0.1142358E+03  0.7546771E-02  0.1258447E+00
          2   -1    0    0  503    0 -0.00000000000E+00  0.00000000000E+00  0.10403717478E+03  0.10403717478E+03  0.00000000000E+00 0. -1.
         21   -1    0    0  501  502  0.00000000000E+00 -0.00000000000E+00 -0.33994626757E+03  0.33994626757E+03  0.00000000000E+00 0.  1.
         24    2    1    2    0    0  0.73954562465E+02  0.81421565048E+01 -0.74461784454E+02  0.13234445188E+03  0.80217981632E+02 0.  0.
         23    2    1    2    0    0 -0.86873062992E+01 -0.89612018036E+02 -0.10720409055E+03  0.16910746061E+03  0.94862179686E+02 0.  0.
        -11    1    3    3    0    0  0.64831562223E+02 -0.24514833103E+02 -0.69359555315E+02  0.98055374233E+02  0.00000000000E+00 0.  1.
         12    1    3    3    0    0  0.91230002420E+01  0.32656989608E+02 -0.51022291390E+01  0.34289077647E+02  0.00000000000E+00 0. -1.
        -13    1    4    4    0    0  0.78326772442E+01 -0.31036082349E+02 -0.10327286365E+03  0.10811971887E+03  0.00000000000E+00 0.  1.
         13    1    4    4    0    0 -0.16519983543E+02 -0.58575935686E+02 -0.39312268990E+01  0.60987741741E+02  0.00000000000E+00 0. -1.
         21    1    1    2  503  502  0.16172276914E+02  0.13083700871E+02  0.41475632516E+01  0.21211507489E+02  0.00000000000E+00 0.  1.
          1    1    1    2  501    0 -0.81439533079E+02  0.68386160660E+02 -0.58390781041E+02  0.12132002237E+03  0.00000000000E+00 0. -1.
<scales pt_clust_5="13000.00000" pt_clust_6="13000.00000" pt_clust_7="13000.00000" pt_clust_8="13000.00000" pt_clust_9="20.80206" pt_clust_10="105.21170"></scales>
<clustering>
<clus scale="   20.802">  1  9  2 -1</clus>
<clus scale="   80.218">  5  6 -1 -1</clus>
<clus scale="   94.862">  7  8 -1 -1</clus>
<clus scale="  105.212">  2 10  1 -1</clus>
<clus scale="  102.401">  1  5  2 -1</clus>
<clus scale="  105.212">  2  5  1 -1</clus>
</clustering>
</event>
<event>
10    4  0.3738096E-005  0.1164359E+03  0.7546771E-02  0.1260693E+00
          2   -1    0    0  503    0 -0.00000000000E+00  0.00000000000E+00  0.67712549226E+03  0.67712549226E+03  0.00000000000E+00 0. -1.
         21   -1    0    0  501  502  0.00000000000E+00 -0.00000000000E+00 -0.13286443243E+03  0.13286443243E+03  0.00000000000E+00 0. -1.
         23    2    1    2    0    0 -0.51181319850E+02  0.59064483929E+01  0.10048443241E+02  0.93069972940E+02  0.76854635627E+02 0.  0.
         24    2    1    2    0    0  0.73617530126E+02 -0.37454907628E+02  0.35370682993E+03  0.37205713483E+03  0.80595156106E+02 0.  0.
        -13    1    4    4    0    0 -0.10212051931E+01 -0.32274201121E+02  0.51984922559E+02  0.61197214737E+02  0.00000000000E+00 0.  1.
         14    1    4    4    0    0  0.74638735319E+02 -0.51807065077E+01  0.30172190737E+03  0.31085992009E+03  0.00000000000E+00 0. -1.
        -11    1    3    3    0    0 -0.48157491041E+02 -0.26647336353E+02 -0.81718676557E+01  0.55641746010E+02  0.00000000000E+00 0.  1.
         11    1    3    3    0    0 -0.30238288090E+01  0.32553784746E+02  0.18220310897E+02  0.37428226930E+02  0.00000000000E+00 0. -1.
         21    1    1    2  503  502  0.14753933936E+02  0.11640173030E+03  0.21587038639E+03  0.24569710032E+03  0.00000000000E+00 0. -1.
          1    1    1    2  501    0 -0.37190144212E+02 -0.84853271065E+02 -0.35364599735E+02  0.99165716613E+02  0.00000000000E+00 0. -1.
<scales pt_clust_5="13000.00000" pt_clust_6="13000.00000" pt_clust_7="13000.00000" pt_clust_8="13000.00000" pt_clust_9="84.03417" pt_clust_10="93.45107"></scales>
<clustering>
<clus scale="   76.855">  7  8 -1 -1</clus>
<clus scale="   80.595">  5  6 -1 -1</clus>
<clus scale="   92.526">  1  7  2 -1</clus>
<clus scale="   93.451">  2 10  1 -1</clus>
<clus scale="   84.034">  2  9  1 -1</clus>
<clus scale="   93.451">  2  5  1 -1</clus>
</clustering>
</event>
<event>
10    4  0.3738096E-005  0.2479686E+03  0.7546771E-02  0.1114595E+00
         21   -1    0    0  503  502  0.00000000000E+00  0.00000000000E+00  0.50210557182E+03  0.50210557182E+03  0.00000000000E+00 0.  1.
          2   -1    0    0  502    0 -0.00000000000E+00 -0.00000000000E+00 -0.13793896832E+03  0.13793896832E+03  0.00000000000E+00 0. -1.
         24    2    1    2    0    0  0.51491276772E+02  0.10723929035E+03  0.23229888361E+03  0.27349978816E+03  0.81778639139E+02 0.  0.
         23    2    1    2    0    0 -0.57656650100E+01  0.47392902729E+02  0.16164035030E+03  0.19198549027E+03  0.91932015665E+02 0.  0.
        -13    1    3    3    0    0  0.46437914647E+02  0.83532142349E+02  0.23010205057E+03  0.24916069593E+03  0.00000000000E+00 0.  1.
         14    1    3    3    0    0  0.50533621250E+01  0.23707147996E+02  0.21968330389E+01  0.24339092224E+02  0.00000000000E+00 0. -1.
        -11    1    4    4    0    0 -0.32215028114E+02  0.46378292616E+02  0.15460910676E+03  0.16459869367E+03  0.00000000000E+00 0.  1.
         11    1    4    4    0    0  0.26449363104E+02  0.10146101124E+01  0.70312435413E+01  0.27386796601E+02  0.00000000000E+00 0. -1.
         21    1    1    2  503  501 -0.35232693927E+02 -0.34817023967E+02 -0.21509180434E+02  0.54001969614E+02  0.00000000000E+00 0. -1.
          1    1    1    2  501    0 -0.10492917835E+02 -0.11981516911E+03 -0.82634499727E+01  0.12055729210E+03  0.00000000000E+00 0. -1.
<scales pt_clust_5="13000.00000" pt_clust_6="13000.00000" pt_clust_7="13000.00000" pt_clust_8="13000.00000" pt_clust_9="38.41157" pt_clust_10="172.00162"></scales>
<clustering>
<clus scale="   38.412">  9 10 -1 -1</clus>
<clus scale="   81.779">  5  6 -1 -1</clus>
<clus scale="   91.932">  7  8 -1 -1</clus>
<clus scale="   97.474">  5  7 -1 -1</clus>
<clus scale="  172.002">  1  9  2 -1</clus>
<clus scale="  172.002">  1  5  2 -1</clus>
</clustering>
</event>
<event>
10    4  0.3738096E-005  0.2553360E+03  0.7546771E-02  0.1130982E+00
         21   -1    0    0  503  502  0.00000000000E+00  0.00000000000E+00  0.26534928517E+03  0.26534928517E+03  0.00000000000E+00 0.  1.
         -1   -1    0    0    0  501 -0.00000000000E+00 -0.00000000000E+00 -0.54588333422E+03  0.54588333422E+03  0.00000000000E+00 0.  1.
         23    2    1    2    0    0  0.11312303180E+03  0.41758802477E+02 -0.17184473490E+03  0.22956073972E+03  0.92881119728E+02 0.  0.
         24    2    1    2    0    0 -0.31258276861E+03 -0.32948318598E+02 -0.10343367230E+03  0.34046561023E+03  0.80154402581E+02 0.  0.
        -13    1    4    4    0    0 -0.27898465774E+03 -0.51949577827E+01 -0.10124148175E+03  0.29683204758E+03  0.00000000000E+00 0.  1.
         14    1    4    4    0    0 -0.33598110869E+02 -0.27753360815E+02 -0.21921905536E+01  0.43633562655E+02  0.00000000000E+00 0. -1.
        -13    1    3    3    0    0  0.65293578121E+02  0.69430090261E+02 -0.92062631799E+02  0.13251157290E+03  0.00000000000E+00 0.  1.
         13    1    3    3    0    0  0.47829453677E+02 -0.27671287784E+02 -0.79782103103E+02  0.97049166829E+02  0.00000000000E+00 0. -1.
         21    1    1    2  503  501 -0.11299744655E+02  0.17744348754E+02 -0.18985580613E+02  0.28337226631E+02  0.00000000000E+00 0.  1.
         -2    1    1    2    0  502  0.21075948147E+03 -0.26554832633E+02  0.13729938762E+02  0.21286904280E+03  0.00000000000E+00 0.  1.
<scales pt_clust_5="13000.00000" pt_clust_6="13000.00000" pt_clust_7="13000.00000" pt_clust_8="13000.00000" pt_clust_9="21.03678" pt_clust_10="242.42887"></scales>
<clustering>
<clus scale="   21.037">  2  9  1 -1</clus>
<clus scale="   80.154">  5  6 -1 -1</clus>
<clus scale="   92.881">  7  8 -1 -1</clus>
<clus scale="  151.063">  2  7  1 -1</clus>
<clus scale="  242.429">  1 10  2 -1</clus>
<clus scale="  242.429">  1  5  2 -1</clus>
</clustering>
</event>
<event>
10    4  0.3738096E-005  0.1258982E+03  0.7546771E-02  0.1240735E+00
          2   -1    0    0  503    0 -0.00000000000E+00  0.00000000000E+00  0.20468535629E+03  0.20468535629E+03  0.00000000000E+00 0. -1.
         21   -1    0    0  501  502  0.00000000000E+00 -0.00000000000E+00 -0.34484094841E+03  0.34484094841E+03  0.00000000000E+00 0. -1.
         24    2    1    2    0    0 -0.22303724185E+02 -0.44942467078E+02  0.95598921825E+02  0.13318719564E+03  0.77989702968E+02 0.  0.
         23    2    1    2    0    0  0.13466329390E+01  0.82707086329E+02 -0.14470987923E+03  0.19451108849E+03  0.10025636565E+03 0.  0.
        -13    1    3    3    0    0 -0.18651356942E+02  0.19001998348E+02  0.16168327162E+02  0.31150663881E+02  0.00000000000E+00 0.  1.
         14    1    3    3    0    0 -0.36523672429E+01 -0.63944465427E+02  0.79430594663E+02  0.10203653176E+03  0.00000000000E+00 0. -1.
        -13    1    4    4    0    0  0.36026856458E+02  0.17401598954E+02 -0.10636043000E+02  0.41398978769E+02  0.00000000000E+00 0. -1.
         13    1    4    4    0    0 -0.34680223519E+02  0.65305487375E+02 -0.13407383623E+03  0.15311210973E+03  0.00000000000E+00 0.  1.
         21    1    1    2  503  502 -0.21147797950E+01 -0.34107562432E+02  0.59966854775E+02  0.69020444654E+02  0.00000000000E+00 0. -1.
          1    1    1    2  501    0  0.23071871041E+02 -0.36570568191E+01 -0.15101148949E+03  0.15280757591E+03  0.00000000000E+00 0. -1.
<scales pt_clust_5="13000.00000" pt_clust_6="13000.00000" pt_clust_7="13000.00000" pt_clust_8="13000.00000" pt_clust_9="34.22955" pt_clust_10="23.35991"></scales>
<clustering>
<clus scale="   23.360">  2 10  1 -1</clus>
<clus scale="   34.230">  1  9  2 -1</clus>
<clus scale="   77.990">  5  6 -1 -1</clus>
<clus scale="  100.256">  7  8 -1 -1</clus>
<clus scale="  109.002">  1  5  2 -1</clus>
<clus scale="   23.360">  2  5  1 -1</clus>
</clustering>
</event>
<event>
10    4  0.3738096E-005  0.9596205E+02  0.7546771E-02  0.1296808E+00
         -1   -1    0    0    0  501 -0.00000000000E+00  0.00000000000E+00  0.56151001952E+03  0.56151001952E+03  0.00000000000E+00 0.  1.
         21   -1    0    0  503  502  0.00000000000E+00 -0.00000000000E+00 -0.46681609036E+02  0.46681609036E+02  0.00000000000E+00 0.  1.
         24    2    1    2    0    0 -0.20057920377E+02 -0.42482387417E+02  0.28082013271E+03  0.29572112687E+03  0.79899715485E+02 0.  0.
         23    2    1    2    0    0 -0.10129083450E+02  0.19350387700E+02  0.45723249225E+02  0.10616733958E+03  0.93294440550E+02 0.  0.
        -11    1    3    3    0    0 -0.20659045312E+02 -0.63341754426E+02  0.24828352570E+03  0.25706746807E+03  0.00000000000E+00 0.  1.
         12    1    3    3    0    0  0.60112493489E+00  0.20859367008E+02  0.32536607013E+02  0.38653658807E+02  0.00000000000E+00 0. -1.
        -11    1    4    4    0    0 -0.42596253689E+02 -0.11590855624E+02  0.30339580676E+01  0.44249222186E+02  0.00000000000E+00 0.  1.
         11    1    4    4    0    0  0.32467170239E+02  0.30941243324E+02  0.42689291157E+02  0.61918117391E+02  0.00000000000E+00 0. -1.
         21    1    1    2  503  501  0.72289902000E+01  0.31632180739E+02  0.17589968458E+03  0.17886741512E+03  0.00000000000E+00 0.  1.
         -2    1    1    2    0  502  0.22958013627E+02 -0.85001810208E+01  0.12385343968E+02  0.27435746979E+02  0.00000000000E+00 0.  1.
<scales pt_clust_5="13000.00000" pt_clust_6="13000.00000" pt_clust_7="13000.00000" pt_clust_8="13000.00000" pt_clust_9="32.34059" pt_clust_10="24.48108"></scales>
<clustering>
<clus scale="   24.481">  2 10  1 -1</clus>
<clus scale="   32.341">  1  9  2 -1</clus>
<clus scale="   79.900">  5  6 -1 -1</clus>
<clus scale="   82.999">  1  5  2 -1</clus>
<clus scale="   93.294">  7  8 -1 -1</clus>
<clus scale="   24.481">  2  5  1 -1</clus>
</clustering>
</event>
<event>
10    4  0.3738096E-005  0.1198673E+03  0.7546771E-02  0.1246308E+00
          2   -1    0    0  503    0 -0.00000000000E+00  0.00000000000E+00  0.89895376116E+03  0.89895376116E+03  0.00000000000E+00 0. -1.
         21   -1    0    0  501  502  0.00000000000E+00 -0.00000000000E+00 -0.85238436241E+02  0.85238436241E+02  0.00000000000E+00 0. -1.
         24    2    1    2    0    0 -0.30693044994E+02 -0.70359108776E+00  0.50305648094E+03  0.51060970939E+03  0.81938356492E+02 0.  0.
         23    2    1    2    0    0  0.86145351597E+02 -0.75572658561E+01  0.12432845152E+03  0.17686547389E+03  0.91354792585E+02 0.  0.
        -13    1    3    3    0    0 -0.59051237107E+02 -0.23213706880E+01  0.33986166574E+03  0.34496143147E+03  0.00000000000E+00 0.  1.
         14    1    3    3    0    0  0.28358192113E+02  0.16177796003E+01  0.16319481520E+03  0.16564827792E+03  0.00000000000E+00 0. -1.
        -13    1    4    4    0    0  0.75606006979E+02  0.34013192994E+02  0.82477805588E+02  0.11694337948E+03  0.00000000000E+00 0.  1.
         13    1    4    4    0    0  0.10539344617E+02 -0.41570458850E+02  0.41850645931E+02  0.59922094412E+02  0.00000000000E+00 0. -1.
         21    1    1    2  503  502 -0.64429903286E+02 -0.20307829035E+02  0.23226131666E+03  0.24188621204E+03  0.00000000000E+00 0. -1.
          1    1    1    2  501    0  0.89775966836E+01  0.28568685979E+02 -0.45930924187E+02  0.54830802086E+02  0.00000000000E+00 0. -1.
<scales pt_clust_5="13000.00000" pt_clust_6="13000.00000" pt_clust_7="13000.00000" pt_clust_8="13000.00000" pt_clust_9="65.27482" pt_clust_10="29.94607"></scales>
<clustering>
<clus scale="   29.946">  2 10  1 -1</clus>
<clus scale="   65.275">  1  9  2 -1</clus>
<clus scale="   81.938">  5  6 -1 -1</clus>
<clus scale="   91.355">  7  8 -1 -1</clus>
<clus scale="  112.856">  1  5  2 -1</clus>
<clus scale="   29.946">  2  5  1 -1</clus>
</clustering>
</event>
<event>
10    4  0.3738096E-005  0.8712177E+02  0.7546771E-02  0.1310825E+00
         21   -1    0    0  503  502  0.00000000000E+00  0.00000000000E+00  0.14696630680E+03  0.14696630680E+03  0.00000000000E+00 0.  1.
         -1   -1    0    0    0  501 -0.00000000000E+00 -0.00000000000E+00 -0.24376044314E+03  0.24376044314E+03  0.00000000000E+00 0.  1.
         23    2    1    2    0    0  0.36742773362E+02  0.36819693052E+01 -0.17821609206E+03  0.19850195760E+03  0.79236755428E+02 0.  0.
         24    2    1    2    0    0 -0.13016571710E+01 -0.34252442439E+02  0.35050313710E+02  0.94404392017E+02  0.80676766275E+02 0.  0.
        -11    1    4    4    0    0 -0.32515988813E+02  0.81002058350E+01  0.51914691039E+01  0.33909500358E+02  0.00000000000E+00 0.  1.
         12    1    4    4    0    0  0.31214331642E+02 -0.42352648274E+02  0.29858844606E+02  0.60494891660E+02  0.00000000000E+00 0. -1.
        -13    1    3    3    0    0 -0.82209729041E+01 -0.22420141326E+02 -0.11092222837E+03  0.11346359715E+03  0.00000000000E+00 0. -1.
         13    1    3    3    0    0  0.44963746266E+02  0.26102110631E+02 -0.67293863696E+02  0.85038360454E+02  0.00000000000E+00 0.  1.
         21    1    1    2  503  501 -0.12942508691E+02 -0.20551223629E+02 -0.13949925945E+01  0.24327090418E+02  0.00000000000E+00 0.  1.
         -2    1    1    2    0  502 -0.22498607500E+02  0.51121696763E+02  0.47766634605E+02  0.73493309906E+02  0.00000000000E+00 0.  1.
<scales pt_clust_5="13000.00000" pt_clust_6="13000.00000" pt_clust_7="13000.00000" pt_clust_8="13000.00000" pt_clust_9="24.28706" pt_clust_10="50.57766"></scales>
<clustering>
<clus scale="   24.287">  1  9  2 -1</clus>
<clus scale="   50.578">  1 10  2 -1</clus>
<clus scale="   79.237">  7  8 -1 -1</clus>
<clus scale="   80.677">  5  6 -1 -1</clus>
<clus scale="   85.790">  2  7  1 -1</clus>
<clus scale="   24.287">  1  5  2 -1</clus>
</clustering>
</event>
<event>
10    4  0.3738096E-005  0.1893942E+03  0.7546771E-02  0.1160166E+00
         21   -1    0    0  503  502  0.00000000000E+00  0.00000000000E+00  0.51306641518E+03  0.51306641518E+03  0.00000000000E+00 0. -1.
         -1   -1    0    0    0  501 -0.00000000000E+00 -0.00000000000E+00 -0.11202929602E+03  0.11202929602E+03  0.00000000000E+00 0.  1.
         23    2    1    2    0    0  0.11064715370E+03 -0.12292489187E+03  0.13202012994E+03  0.23079504061E+03  0.92107081136E+02 0.  0.
         24    2    1    2    0    0 -0.77772374469E+02  0.14878083064E+03  0.15380214950E+03  0.24174582745E+03  0.81250637544E+02 0.  0.
        -11    1    4    4    0    0 -0.75162994442E+02  0.82149688225E+02  0.12946612920E+03  0.17076160464E+03  0.00000000000E+00 0.  1.
         12    1    4    4    0    0 -0.26093800274E+01  0.66631142415E+02  0.24336020299E+02  0.70984222808E+02  0.00000000000E+00 0. -1.
        -11    1    3    3    0    0  0.96790283201E+02 -0.40298076830E+02  0.63603263292E+02  0.12262817384E+03  0.00000000000E+00 0.  1.
         11    1    3    3    0    0  0.13856870503E+02 -0.82626815044E+02  0.68416866650E+02  0.10816686677E+03  0.00000000000E+00 0. -1.
         21    1    1    2  503  501 -0.13436953858E+02 -0.15373290998E+02 -0.11834976701E+02  0.23599925394E+02  0.00000000000E+00 0. -1.
         -2    1    1    2    0  502 -0.19437825377E+02 -0.10482647769E+02  0.12704981642E+03  0.12895491775E+03  0.00000000000E+00 0.  1.
<scales pt_clust_5="13000.00000" pt_clust_6="13000.00000" pt_clust_7="13000.00000" pt_clust_8="13000.00000" pt_clust_9="20.41788" pt_clust_10="22.27754"></scales>
<clustering>
<clus scale="   20.418">  2  9  1 -1</clus>
<clus scale="   22.278">  1 10  2 -1</clus>
<clus scale="   81.251">  5  6 -1 -1</clus>
<clus scale="   92.107">  7  8 -1 -1</clus>
<clus scale="  184.359">  1  5  2 -1</clus>
<clus scale="   22.278">  1  5  2 -1</clus>
</clustering>
</event>
<event>
10    4  0.3738096E-005  0.1243738E+03  0.7546771E-02  0.1239991E+00
         21   -1    0    0  503  502  0.00000000000E+00  0.00000000000E+00  0.30803503680E+03  0.30803503680E+03  0.00000000000E+00 0.  1.
         -3   -1    0    0    0  501 -0.00000000000E+00 -0.00000000000E+00 -0.63800675128E+03  0.63800675128E+03  0.00000000000E+00 0.  1.
         24    2    1    2    0    0 -0.31649437332E+01 -0.88160794935E+02 -0.21934005800E+03  0.24950762041E+03  0.79759945882E+02 0.  0.
         23    2    1    2    0    0  0.11257151262E+03  0.37598469008E+02 -0.22698140675E+03  0.27251221092E+03  0.93039538727E+02 0.  0.
        -13    1    3    3    0    0 -0.36931748319E+02 -0.60220193764E+02 -0.16643536618E+03  0.18080696028E+03  0.00000000000E+00 0.  1.
         14    1    3    3    0    0  0.33766804586E+02 -0.27940601171E+02 -0.52904691829E+02  0.68700660137E+02  0.00000000000E+00 0. -1.
        -13    1    4    4    0    0  0.11963821971E+03  0.85770958604E+01 -0.16832542084E+03  0.20668893897E+03  0.00000000000E+00 0. -1.
         13    1    4    4    0    0 -0.70667070888E+01  0.29021373148E+02 -0.58655985903E+02  0.65823271954E+02  0.00000000000E+00 0.  1.
         21    1    1    2  503  501 -0.73156164704E+02  0.71944079540E+02 -0.13477926422E+03  0.16939074673E+03  0.00000000000E+00 0.  1.
         -4    1    1    2    0  502 -0.36250404188E+02 -0.21381753613E+02  0.25112901449E+03  0.25463121001E+03  0.00000000000E+00 0.  1.
<scales pt_clust_5="13000.00000" pt_clust_6="13000.00000" pt_clust_7="13000.00000" pt_clust_8="13000.00000" pt_clust_9="106.77549" pt_clust_10="42.08647"></scales>
<clustering>
<clus scale="   42.086">  1 10  2 -1</clus>
<clus scale="   79.760">  5  6 -1 -1</clus>
<clus scale="   93.040">  7  8 -1 -1</clus>
<clus scale="  106.775">  1  9  2 -1</clus>
<clus scale="  114.779">  2  5  1 -1</clus>
<clus scale="   42.086">  1  5  2 -1</clus>
</clustering>
</event>
<event>
10    4  0.3738096E-005  0.1073199E+03  0.7546771E-02  0.1269189E+00
         21   -1    0    0  501  502  0.00000000000E+00  0.00000000000E+00  0.48813388106E+03  0.48813388106E+03  0.00000000000E+00 0.  1.
          2   -1    0    0  503    0 -0.00000000000E+00 -0.00000000000E+00 -0.17909604053E+03  0.17909604053E+03  0.00000000000E+00 0. -1.
         23    2    1    2    0    0 -0.13459535016E+02  0.18203478138E+02 -0.11787159035E+03  0.14965928387E+03  0.89396105821E+02 0.  0.
         24    2    1    2    0    0  0.73228201867E+02 -0.14741634637E+02  0.37515154151E+03  0.39471850413E+03  0.97387540623E+02 0.  0.
        -11    1    4    4    0    0  0.34649377504E+02 -0.53680195945E+02  0.15097127107E+03  0.16393433895E+03  0.00000000000E+00 0.  1.
         12    1    4    4    0    0  0.38578824363E+02  0.38938561309E+02  0.22418027044E+03  0.23078416518E+03  0.00000000000E+00 0. -1.
        -11    1    3    3    0    0 -0.27695629051E+02 -0.25724236649E+02 -0.23266028097E+02  0.44385721613E+02  0.00000000000E+00 0.  1.
         11    1    3    3    0    0  0.14236094035E+02  0.43927714787E+02 -0.94605562256E+02  0.10527356225E+03  0.00000000000E+00 0. -1.
         21    1    1    2  503  502 -0.31244743179E+02 -0.96671795794E+01 -0.24717017830E+02  0.40995357148E+02  0.00000000000E+00 0. -1.
          1    1    1    2  501    0 -0.28523923672E+02  0.62053360774E+01  0.76474907208E+02  0.81856776445E+02  0.00000000000E+00 0. -1.
<scales pt_clust_5="13000.00000" pt_clust_6="13000.00000" pt_clust_7="13000.00000" pt_clust_8="13000.00000" pt_clust_9="33.21313" pt_clust_10="29.19110"></scales>
<clustering>
<clus scale="   29.191">  1 10  2 -1</clus>
<clus scale="   33.213">  2  9  1 -1</clus>
<clus scale="   89.396">  7  8 -1 -1</clus>
<clus scale="   97.388">  5  6 -1 -1</clus>
<clus scale="  100.124">  2  7  1 -1</clus>
<clus scale="   29.191">  1  5  2 -1</clus>
</clustering>
</event>
<event>
10    4  0.3738096E-005  0.1934226E+03  0.7546771E-02  0.1156403E+00
          4   -1    0    0  503    0 -0.00000000000E+00  0.00000000000E+00  0.41847635308E+03  0.41847635308E+03  0.00000000000E+00 0. -1.
         21   -1    0    0  501  502  0.00000000000E+00 -0.00000000000E+00 -0.21606379783E+03  0.21606379783E+03  0.00000000000E+00 0.  1.
         23    2    1    2    0    0 -0.32079787877E+01 -0.16180599942E+03  0.57915238373E+02  0.19426522225E+03  0.90517010358E+02 0.  0.
         24    2    1    2    0    0 -0.11576613010E+03  0.15933806592E+03  0.12425884141E+03  0.24641705094E+03  0.80564801216E+02 0.  0.
        -13    1    4    4    0    0 -0.10592046340E+03  0.16780688878E+03  0.12276577053E+03  0.23334466119E+03  0.00000000000E+00 0.  1.
         14    1    4    4    0    0 -0.98456666921E+01 -0.84688228565E+01  0.14930708776E+01  0.13072389752E+02  0.00000000000E+00 0. -1.
        -13    1    3    3    0    0  0.99788177618E+01 -0.37291298030E+02  0.57254016422E+02  0.69052444628E+02  0.00000000000E+00 0.  1.
         13    1    3    3    0    0 -0.13186796550E+02 -0.12451470139E+03  0.66122195116E+00  0.12521277762E+03  0.00000000000E+00 0. -1.
         21    1    1    2  503  502 -0.11025169876E+02  0.31044033328E+02  0.47681488336E+02  0.57955247441E+02  0.00000000000E+00 0.  1.
          3    1    1    2  501    0  0.12999927876E+03 -0.28576099830E+02 -0.27443012865E+02  0.13590263027E+03  0.00000000000E+00 0. -1.
<scales pt_clust_5="13000.00000" pt_clust_6="13000.00000" pt_clust_7="13000.00000" pt_clust_8="13000.00000" pt_clust_9="32.94368" pt_clust_10="130.58337"></scales>
<clustering>
<clus scale="   32.944">  1  9  2 -1</clus>
<clus scale="   80.565">  5  6 -1 -1</clus>
<clus scale="   90.517">  7  8 -1 -1</clus>
<clus scale="  130.583">  2 10  1 -1</clus>
<clus scale="  188.970">  2  5  1 -1</clus>
<clus scale="  130.583">  2  5  1 -1</clus>
</clustering>
</event>
<event>
10    4  0.3738096E-005  0.1024190E+03  0.7546771E-02  0.1280758E+00
         21   -1    0    0  501  502  0.00000000000E+00  0.00000000000E+00  0.88576646613E+02  0.88576646613E+02  0.00000000000E+00 0. -1.
          2   -1    0    0  503    0 -0.00000000000E+00 -0.00000000000E+00 -0.27385798230E+03  0.27385798230E+03  0.00000000000E+00 0. -1.
         24    2    1    2    0    0  0.10832834037E+00  0.49631656846E+02 -0.63442369723E+02  0.11344971981E+03  0.79891123111E+02 0.  0.
         23    2    1    2    0    0 -0.21053681646E+02 -0.28983937485E+02  0.11486433000E+01  0.98202320471E+02  0.91427841610E+02 0.  0.
        -13    1    3    3    0    0  0.25517087406E+02 -0.82508048393E+01 -0.48402568156E+01  0.27251158072E+02  0.00000000000E+00 0.  1.
         14    1    3    3    0    0 -0.25408759066E+02  0.57882461685E+02 -0.58602112907E+02  0.86198561735E+02  0.00000000000E+00 0. -1.
        -11    1    4    4    0    0 -0.19530196483E+02 -0.50448608048E+01 -0.43258693317E+02  0.47730427850E+02  0.00000000000E+00 0.  1.
         11    1    4    4    0    0 -0.15234851634E+01 -0.23939076680E+02  0.44407336617E+02  0.50471892621E+02  0.00000000000E+00 0. -1.
         21    1    1    2  503  502 -0.11416044740E+02  0.18305669943E+02 -0.84402310627E+02  0.87115863474E+02  0.00000000000E+00 0.  1.
          1    1    1    2  501    0  0.32361398046E+02 -0.38953389304E+02 -0.38585298636E+02  0.63666725160E+02  0.00000000000E+00 0. -1.
<scales pt_clust_5="13000.00000" pt_clust_6="13000.00000" pt_clust_7="13000.00000" pt_clust_8="13000.00000" pt_clust_9="21.57368" pt_clust_10="44.83920"></scales>
<clustering>
<clus scale="   21.574">  2  9  1 -1</clus>
<clus scale="   44.839">  1 10  2 -1</clus>
<clus scale="   79.891">  5  6 -1 -1</clus>
<clus scale="   91.428">  7  8 -1 -1</clus>
<clus scale="   92.267">  2  5  1 -1</clus>
<clus scale="   44.839">  1  5  2 -1</clus>
</clustering>
</event>
<event>
10    4  0.3738096E-005  0.9250240E+02  0.7546771E-02  0.1300588E+00
          2   -1    0    0  502    0 -0.00000000000E+00  0.00000000000E+00  0.84296054398E+03  0.84296054398E+03  0.00000000000E+00 0. -1.
         21   -1    0    0  503  502  0.00000000000E+00 -0.00000000000E+00 -0.36615123152E+02  0.36615123152E+02  0.00000000000E+00 0.  1.
         24    2    1    2    0    0 -0.57905519726E+01  0.26236133807E+02  0.35898329225E+03  0.36981234505E+03  0.84677631197E+02 0.  0.
         23    2    1    2    0    0  0.26411809098E+02  0.43598859845E+02  0.73761375992E+02  0.12766630702E+03  0.90881797517E+02 0.  0.
        -13    1    3    3    0    0 -0.84911065861E+01 -0.30640321026E+02  0.12023945223E+03  0.12437223981E+03  0.00000000000E+00 0.  1.
         14    1    3    3    0    0  0.27005546135E+01  0.56876454832E+02  0.23874384002E+03  0.24544010524E+03  0.00000000000E+00 0. -1.
        -11    1    4    4    0    0  0.56099541099E+02  0.73520472945E+01  0.32589132156E+02  0.65293664667E+02  0.00000000000E+00 0.  1.
         11    1    4    4    0    0 -0.29687732001E+02  0.36246812551E+02  0.41172243836E+02  0.62372642352E+02  0.00000000000E+00 0. -1.
         21    1    1    2  503  501 -0.67021153182E+01 -0.53742492118E+02  0.31771415395E+03  0.32229715703E+03  0.00000000000E+00 0. -1.
          1    1    1    2  501    0 -0.13919141807E+02 -0.16092501534E+02  0.55886598638E+02  0.59799858040E+02  0.00000000000E+00 0. -1.
<scales pt_clust_5="13000.00000" pt_clust_6="13000.00000" pt_clust_7="13000.00000" pt_clust_8="13000.00000" pt_clust_9="20.96177" pt_clust_10="80.12873"></scales>
<clustering>
<clus scale="   20.962">  9 10 -1 -1</clus>
<clus scale="   80.129">  2  9  1 -1</clus>
<clus scale="   84.678">  5  6 -1 -1</clus>
<clus scale="   86.415">  1  5  2 -1</clus>
<clus scale="   90.882">  7  8 -1 -1</clus>
<clus scale="   80.129">  2  5  1 -1</clus>
</clustering>
</event>
<event>
10    4  0.3738096E-005  0.2032986E+03  0.7546771E-02  0.1147920E+00
         21   -1    0    0  501  502  0.00000000000E+00  0.00000000000E+00  0.70004213222E+02  0.70004213222E+02  0.00000000000E+00 0. -1.
          4   -1    0    0  503    0 -0.00000000000E+00 -0.00000000000E+00 -0.10100094985E+04  0.10100094985E+04  0.00000000000E+00 0. -1.
         24    2    1    2    0    0  0.18249848844E+03 -0.11304778025E+03 -0.51360056869E+03  0.56265233775E+03  0.81893895438E+02 0.  0.
         23    2    1    2    0    0 -0.12235483734E+03  0.66293555064E+02 -0.16730784798E+03  0.23635295700E+03  0.92223980733E+02 0.  0.
        -11    1    3    3    0    0  0.62329571255E+02 -0.18593874576E+01 -0.10026426739E+03  0.11807351985E+03  0.00000000000E+00 0.  1.
         12    1    3    3    0    0  0.12016891719E+03 -0.11118839279E+03 -0.41333630131E+03  0.44457881790E+03  0.00000000000E+00 0. -1.
        -11    1    4    4    0    0 -0.10452244506E+03  0.54196695411E+02 -0.17711488952E+03  0.21267794292E+03  0.00000000000E+00 0. -1.
         11    1    4    4    0    0 -0.17832392281E+02  0.12096859653E+02  0.98070415384E+01  0.23675014079E+02  0.00000000000E+00 0.  1.
         21    1    1    2  503  502 -0.20747712614E+02 -0.10108943660E+02 -0.15043526198E+03  0.15219535594E+03  0.00000000000E+00 0.  1.
          3    1    1    2  501    0 -0.39395938489E+02  0.56863168842E+02 -0.10866160660E+03  0.12881306102E+03  0.00000000000E+00 0. -1.
<scales pt_clust_5="13000.00000" pt_clust_6="13000.00000" pt_clust_7="13000.00000" pt_clust_8="13000.00000" pt_clust_9="23.07939" pt_clust_10="69.73322"></scales>
<clustering>
<clus scale="   23.079">  2  9  1 -1</clus>
<clus scale="   69.733">  1 10  2 -1</clus>
<clus scale="   81.894">  5  6 -1 -1</clus>
<clus scale="   92.224">  7  8 -1 -1</clus>
<clus scale="  198.826">  2  5  1 -1</clus>
<clus scale="   69.733">  1  5  2 -1</clus>
</clustering>
</event>
<event>
10    4  0.3738096E-005  0.1455595E+03  0.7546771E-02  0.1224343E+00
          2   -1    0    0  503    0 -0.00000000000E+00  0.00000000000E+00  0.38122783988E+03  0.38122783988E+03  0.00000000000E+00 0. -1.
         21   -1    0    0  501  502  0.00000000000E+00 -0.00000000000E+00 -0.41772028707E+03  0.41772028707E+03  0.00000000000E+00 0.  1.
         24    2    1    2    0    0  0.82682108432E+02 -0.13629734973E+03  0.80400437541E+02  0.19599090450E+03  0.80838763563E+02 0.  0.
         23    2    1    2    0    0  0.31149726921E+01  0.13614587818E+02 -0.23581133065E+03  0.25306439643E+03  0.90771939622E+02 0.  0.
        -11    1    3    3    0    0  0.68003850058E+01 -0.86618785619E+02  0.28214160597E+02  0.91351508562E+02  0.00000000000E+00 0.  1.
         12    1    3    3    0    0  0.75881723426E+02 -0.49678564107E+02  0.52186276943E+02  0.10463939594E+03  0.00000000000E+00 0. -1.
        -13    1    4    4    0    0  0.35589739260E+02  0.24725954767E+02 -0.19491101788E+03  0.19967049675E+03  0.00000000000E+00 0.  1.
         13    1    4    4    0    0 -0.32474766568E+02 -0.11111366949E+02 -0.40900312768E+02  0.53393899685E+02  0.00000000000E+00 0. -1.
         21    1    1    2  503  502 -0.54543926441E+02  0.97855877761E+02  0.21688325399E+03  0.24410890722E+03  0.00000000000E+00 0. -1.
          1    1    1    2  501    0 -0.31253154684E+02  0.24826884147E+02 -0.97964808074E+02  0.10578391879E+03  0.00000000000E+00 0. -1.
<scales pt_clust_5="13000.00000" pt_clust_6="13000.00000" pt_clust_7="13000.00000" pt_clust_8="13000.00000" pt_clust_9="121.04824" pt_clust_10="39.91408"></scales>
<clustering>
<clus scale="   39.914">  2 10  1 -1</clus>
<clus scale="   80.839">  5  6 -1 -1</clus>
<clus scale="   90.772">  7  8 -1 -1</clus>
<clus scale="   98.799">  2  7  1 -1</clus>
<clus scale="  121.048">  1  9  2 -1</clus>
<clus scale="   39.914">  2  5  1 -1</clus>
</clustering>
</event>
<event>
10    4  0.3738096E-005  0.1933089E+03  0.7546771E-02  0.1156464E+00
         21   -1    0    0  501  502  0.00000000000E+00  0.00000000000E+00  0.11098883591E+03  0.11098883591E+03  0.00000000000E+00 0.  1.
          2   -1    0    0  503    0 -0.00000000000E+00 -0.00000000000E+00 -0.70964687146E+03  0.70964687146E+03  0.00000000000E+00 0. -1.
         23    2    1    2    0    0 -0.15070107822E+03  0.84741591190E+02 -0.38206025955E+03  0.42890838928E+03  0.90002290019E+02 0.  0.
         24    2    1    2    0    0  0.14811443016E+03 -0.75196544419E+02 -0.64201507776E+02  0.19539992334E+03  0.80416986554E+02 0.  0.
        -13    1    4    4    0    0  0.76458631987E+02 -0.19485469058E+02  0.81559024393E+01  0.79322913804E+02  0.00000000000E+00 0.  1.
         14    1    4    4    0    0  0.71655798170E+02 -0.55711075361E+02 -0.72357410215E+02  0.11607700953E+03  0.00000000000E+00 0. -1.
        -11    1    3    3    0    0 -0.11809706412E+03  0.10242620161E+03 -0.32798401544E+03  0.36333394792E+03  0.00000000000E+00 0. -1.
         11    1    3    3    0    0 -0.32604014105E+02 -0.17684610422E+02 -0.54076244112E+02  0.65574441353E+02  0.00000000000E+00 0.  1.
         21    1    1    2  503  502 -0.56759534698E+02 -0.25271384627E+02 -0.70445627331E+02  0.93930155276E+02  0.00000000000E+00 0. -1.
          1    1    1    2  501    0  0.59346182764E+02  0.15726337856E+02 -0.81950640895E+02  0.10239723948E+03  0.00000000000E+00 0. -1.
<scales pt_clust_5="13000.00000" pt_clust_6="13000.00000" pt_clust_7="13000.00000" pt_clust_8="13000.00000" pt_clust_9="55.07985" pt_clust_10="61.39455"></scales>
<clustering>
<clus scale="   61.395">  1 10  2 -1</clus>
<clus scale="   55.080">  1  9  2 -1</clus>
<clus scale="   80.417">  5  6 -1 -1</clus>
<clus scale="   90.002">  7  8 -1 -1</clus>
<clus scale="  189.037">  1  5  2 -1</clus>
<clus scale="   61.395">  1  5  2 -1</clus>
</clustering>
</event>
<event>
10    4  0.3738096E-005  0.1375746E+03  0.7546771E-02  0.1218565E+00
          2   -1    0    0  503    0 -0.00000000000E+00  0.00000000000E+00  0.69001836919E+03  0.69001836919E+03  0.00000000000E+00 0. -1.
         21   -1    0    0  501  502  0.00000000000E+00 -0.00000000000E+00 -0.27889175478E+03  0.27889175478E+03  0.00000000000E+00 0. -1.
         23    2    1    2    0    0 -0.68985106333E+02  0.70448856763E+02  0.54347678672E+03  0.55952437539E+03  0.89322576319E+02 0.  0.
         24    2    1    2    0    0  0.55717162585E+02 -0.73366652060E+02 -0.27851038042E+02  0.12553383196E+03  0.80597734488E+02 0.  0.
        -13    1    4    4    0    0  0.69676801346E+02 -0.71394881378E+02 -0.39450297575E+02  0.10727726559E+03  0.00000000000E+00 0.  1.
         14    1    4    4    0    0 -0.13959638760E+02 -0.19717706822E+01  0.11599259534E+02  0.18256566371E+02  0.00000000000E+00 0. -1.
        -11    1    3    3    0    0 -0.69088710538E+02  0.15061468550E+02  0.21279347647E+03  0.22423461238E+03  0.00000000000E+00 0.  1.
         11    1    3    3    0    0  0.10360420478E+00  0.55387388213E+02  0.33068331025E+03  0.33528976302E+03  0.00000000000E+00 0. -1.
         21    1    1    2  503  502 -0.26046014760E+02 -0.17419539396E+02  0.84299214212E+02  0.89934380269E+02  0.00000000000E+00 0. -1.
          1    1    1    2  501    0  0.39313958508E+02  0.20337334693E+02 -0.18879834848E+03  0.19391753635E+03  0.00000000000E+00 0. -1.
<scales pt_clust_5="13000.00000" pt_clust_6="13000.00000" pt_clust_7="13000.00000" pt_clust_8="13000.00000" pt_clust_9="31.33425" pt_clust_10="44.13060"></scales>
<clustering>
<clus scale="   31.334">  1  9  2 -1</clus>
<clus scale="   44.131">  2 10  1 -1</clus>
<clus scale="   80.598">  5  6 -1 -1</clus>
<clus scale="   89.323">  7  8 -1 -1</clus>
<clus scale="  132.077">  2  5  1 -1</clus>
<clus scale="   44.131">  2  5  1 -1</clus>
</clustering>
</event>
<event>
10    4  0.3738096E-005  0.2733778E+03  0.7546771E-02  0.1125040E+00
          2   -1    0    0  503    0 -0.00000000000E+00  0.00000000000E+00  0.91776895906E+03  0.91776895906E+03  0.00000000000E+00 0. -1.
         21   -1    0    0  501  502  0.00000000000E+00 -0.00000000000E+00 -0.25365404004E+03  0.25365404004E+03  0.00000000000E+00 0. -1.
         23    2    1    2    0    0  0.59546527128E+02 -0.58272855794E+02  0.32680060820E+03  0.34936537551E+03  0.91192178751E+02 0.  0.
         24    2    1    2    0    0  0.32870928277E+02  0.27818222780E+03  0.73970757022E+02  0.30023542057E+03  0.78764110350E+02 0.  0.
        -13    1    4    4    0    0  0.45586723116E+02  0.10322190201E+03  0.49098148012E+02  0.12305908548E+03  0.00000000000E+00 0.  1.
         14    1    4    4    0    0 -0.12715794839E+02  0.17496032579E+03  0.24872609011E+02  0.17717633509E+03  0.00000000000E+00 0. -1.
        -13    1    3    3    0    0  0.66637403188E+02 -0.32601869969E+02  0.30789211725E+03  0.31670330168E+03  0.00000000000E+00 0. -1.
         13    1    3    3    0    0 -0.70908760602E+01 -0.25670985825E+02  0.18908490948E+02  0.32662073823E+02  0.00000000000E+00 0.  1.
         21    1    1    2  503  502  0.60899745655E+02 -0.62911064167E+01  0.25124952780E+03  0.25860139647E+03  0.00000000000E+00 0. -1.
          1    1    1    2  501    0 -0.15331720106E+03 -0.21361826559E+03  0.12094026003E+02  0.26322080655E+03  0.00000000000E+00 0. -1.
<scales pt_clust_5="13000.00000" pt_clust_6="13000.00000" pt_clust_7="13000.00000" pt_clust_8="13000.00000" pt_clust_9="61.22383" pt_clust_10="261.78549"></scales>
<clustering>
<clus scale="   61.224">  1  9  2 -1</clus>
<clus scale="   78.764">  5  6 -1 -1</clus>
<clus scale="   91.192">  7  8 -1 -1</clus>
<clus scale="  142.499">  1  7  2 -1</clus>
<clus scale="  261.785">  2 10  1 -1</clus>
<clus scale="  261.785">  2  5  1 -1</clus>
</clustering>
</event>
<event>
10    4  0.3738096E-005  0.1598526E+03  0.7546771E-02  0.1203715E+00
         21   -1    0    0  503  502  0.00000000000E+00  0.00000000000E+00  0.34778750592E+03  0.34778750592E+03  0.00000000000E+00 0.  1.
         -1   -1    0    0    0  501 -0.00000000000E+00 -0.00000000000E+00 -0.47138609466E+03  0.47138609466E+03  0.00000000000E+00 0.  1.
         24    2    1    2    0    0  0.49022387213E+02 -0.33620745815E+02 -0.25738272186E+03  0.27609708988E+03  0.80313065750E+02 0.  0.
         23    2    1    2    0    0 -0.14636684192E+03 -0.10352292953E+03  0.11256502353E+03  0.23118632307E+03  0.92929984936E+02 0.  0.
        -11    1    3    3    0    0  0.69938095483E+02 -0.31268698913E+02 -0.17436234851E+03  0.19045024891E+03  0.00000000000E+00 0.  1.
         12    1    3    3    0    0 -0.20915708269E+02 -0.23520469020E+01 -0.83020373345E+02  0.85646840965E+02  0.00000000000E+00 0. -1.
        -13    1    4    4    0    0 -0.27524017754E+02  0.11876848268E+02  0.40868367487E+02  0.50683868629E+02  0.00000000000E+00 0. -1.
         13    1    4    4    0    0 -0.11884282416E+03 -0.11539977780E+03  0.71696656044E+02  0.18050245444E+03  0.00000000000E+00 0.  1.
         21    1    1    2  503  501  0.43793599170E+02  0.32994040555E+02 -0.11790892398E+03  0.13003461230E+03  0.00000000000E+00 0.  1.
         -2    1    1    2    0  502  0.53550855535E+02  0.10414963479E+03  0.13912803357E+03  0.18185557533E+03  0.00000000000E+00 0.  1.
<scales pt_clust_5="13000.00000" pt_clust_6="13000.00000" pt_clust_7="13000.00000" pt_clust_8="13000.00000" pt_clust_9="54.83143" pt_clust_10="130.06492"></scales>
<clustering>
<clus scale="   54.831">  2  9  1 -1</clus>
<clus scale="   80.313">  5  6 -1 -1</clus>
<clus scale="   92.930">  7  8 -1 -1</clus>
<clus scale="  115.539">  2  5  1 -1</clus>
<clus scale="  130.065">  1 10  2 -1</clus>
<clus scale="  130.065">  1  5  2 -1</clus>
</clustering>
</event>
<event>
10    4  0.3738096E-005  0.1133884E+03  0.7546771E-02  0.1258858E+00
         21   -1    0    0  501  502  0.00000000000E+00  0.00000000000E+00  0.27653854264E+03  0.27653854264E+03  0.00000000000E+00 0.  1.
          4   -1    0    0  503    0 -0.00000000000E+00 -0.00000000000E+00 -0.11724246242E+03  0.11724246242E+03  0.00000000000E+00 0. -1.
         23    2    1    2    0    0  0.31575558005E+02 -0.58946213625E+02  0.29407872784E+02  0.11752663320E+03  0.92065273396E+02 0.  0.
         24    2    1    2    0    0 -0.75927477906E+01  0.67652887078E+02  0.12230747630E+03  0.16125019115E+03  0.80049624835E+02 0.  0.
        -11    1    4    4    0    0 -0.40178923619E+01  0.66343129606E+02  0.13366155183E+03  0.14927479608E+03  0.00000000000E+00 0.  1.
         12    1    4    4    0    0 -0.35748554287E+01  0.13097574719E+01 -0.11354075530E+02  0.11975395071E+02  0.00000000000E+00 0. -1.
        -13    1    3    3    0    0  0.60936441556E+02 -0.55847779418E+02  0.30174523068E+02  0.87992762304E+02  0.00000000000E+00 0. -1.
         13    1    3    3    0    0 -0.29360883551E+02 -0.30984342078E+01 -0.76665028424E+00  0.29533870896E+02  0.00000000000E+00 0.  1.
         21    1    1    2  503  502  0.15929482682E+02  0.33557034407E+02  0.34723792745E+02  0.50848448938E+02  0.00000000000E+00 0. -1.
          3    1    1    2  501    0 -0.39912292897E+02 -0.42263707859E+02 -0.27143061605E+02  0.64155731775E+02  0.00000000000E+00 0. -1.
<scales pt_clust_5="13000.00000" pt_clust_6="13000.00000" pt_clust_7="13000.00000" pt_clust_8="13000.00000" pt_clust_9="37.14597" pt_clust_10="55.34100"></scales>
<clustering>
<clus scale="   37.146">  1  9  2 -1</clus>
<clus scale="   55.341">  1 10  2 -1</clus>
<clus scale="   80.050">  5  6 -1 -1</clus>
<clus scale="   92.065">  7  8 -1 -1</clus>
<clus scale="  103.869">  1  5  2 -1</clus>
<clus scale="   37.146">  1  5  2 -1</clus>
</clustering>
</event>
<event>
10    4  0.3738096E-005  0.1063223E+03  0.7546771E-02  0.1271791E+00
         21   -1    0    0  503  502  0.00000000000E+00  0.00000000000E+00  0.17984031923E+03  0.17984031923E+03  0.00000000000E+00 0.  1.
         -3   -1    0    0    0  501 -0.00000000000E+00 -0.00000000000E+00 -0.39919431793E+03  0.39919431793E+03  0.00000000000E+00 0.  1.
         23    2    1    2    0    0 -0.75573675619E+02  0.52898466178E+02 -0.23537164755E+03  0.26827404730E+03  0.89785988965E+02 0.  0.
         24    2    1    2    0    0  0.50474369389E+02  0.50841671328E+02 -0.21803798755E+02  0.10933096960E+03  0.79657502874E+02 0.  0.
        -13    1    4    4    0    0  0.60066539200E+02  0.50784093355E+02 -0.40385470593E+02  0.88419452070E+02  0.00000000000E+00 0.  1.
         14    1    4    4    0    0 -0.95921698110E+01  0.57577972830E-01  0.18581671839E+02  0.20911517526E+02  0.00000000000E+00 0. -1.
        -11    1    3    3    0    0 -0.30767511766E+02 -0.22884244885E+01 -0.16636926404E+03  0.16920581753E+03  0.00000000000E+00 0.  1.
         11    1    3    3    0    0 -0.44806163854E+02  0.55186890667E+02 -0.69002383503E+02  0.99068229770E+02  0.00000000000E+00 0. -1.
         21    1    1    2  503  501  0.24493952983E+02 -0.32466539930E+02 -0.64787087576E+02  0.76494422439E+02  0.00000000000E+00 0. -1.
         -4    1    1    2    0  502  0.60535324762E+00 -0.71273597576E+02  0.10260853518E+03  0.12493519782E+03  0.00000000000E+00 0.  1.
<scales pt_clust_5="13000.00000" pt_clust_6="13000.00000" pt_clust_7="13000.00000" pt_clust_8="13000.00000" pt_clust_9="40.66977" pt_clust_10="72.39100"></scales>
<clustering>
<clus scale="   40.670">  2  9  1 -1</clus>
<clus scale="   72.391">  1 10  2 -1</clus>
<clus scale="   79.658">  5  6 -1 -1</clus>
<clus scale="   89.786">  7  8 -1 -1</clus>
<clus scale="   97.919">  1  5  2 -1</clus>
<clus scale="   72.391">  1  5  2 -1</clus>
</clustering>
</event>
<event>
10    4  0.3738096E-005  0.1223937E+03  0.7546771E-02  0.1243399E+00
         -1   -1    0    0    0  501 -0.00000000000E+00  0.00000000000E+00  0.77423248571E+03  0.77423248571E+03  0.00000000000E+00 0.  1.
         21   -1    0    0  503  502  0.00000000000E+00 -0.00000000000E+00 -0.23413192211E+03  0.23413192211E+03  0.00000000000E+00 0.  1.
         23    2    1    2    0    0 -0.25884342578E+02 -0.42987499870E+02  0.39696116800E+03  0.41043490322E+03  0.91436953931E+02 0.  0.
         24    2    1    2    0    0  0.43599059503E+02  0.60262716518E+02  0.66311853874E+02  0.12627808461E+03  0.77565583194E+02 0.  0.
        -11    1    4    4    0    0  0.35865043001E+02 -0.70925020347E+01  0.93720560532E+01  0.37741758428E+02  0.00000000000E+00 0.  1.
         12    1    4    4    0    0  0.77340165022E+01  0.67355218553E+02  0.56939797821E+02  0.88536326180E+02  0.00000000000E+00 0. -1.
        -11    1    3    3    0    0 -0.15816277726E+01 -0.68817105503E+02  0.26170908731E+03  0.27061031380E+03  0.00000000000E+00 0.  1.
         11    1    3    3    0    0 -0.24302714806E+02  0.25829605633E+02  0.13525208069E+03  0.13982458942E+03  0.00000000000E+00 0. -1.
         21    1    1    2  503  501 -0.34354050307E+02 -0.34568389595E+02  0.27133095559E+03  0.27567310676E+03  0.00000000000E+00 0. -1.
         -2    1    1    2    0  502  0.16639333383E+02  0.17293172946E+02 -0.19450341387E+03  0.19597831322E+03  0.00000000000E+00 0.  1.
<scales pt_clust_5="13000.00000" pt_clust_6="13000.00000" pt_clust_7="13000.00000" pt_clust_8="13000.00000" pt_clust_9="47.39624" pt_clust_10="23.99836"></scales>
<clustering>
<clus scale="   23.998">  2 10  1 -1</clus>
<clus scale="   47.396">  1  9  2 -1</clus>
<clus scale="   77.566">  5  6 -1 -1</clus>
<clus scale="   91.437">  7  8 -1 -1</clus>
<clus scale="  112.410">  2  5  1 -1</clus>
<clus scale="   23.998">  2  5  1 -1</clus>
</clustering>
</event>
<event>
10    4  0.3738096E-005  0.1763944E+03  0.7546771E-02  0.1185080E+00
          2   -1    0    0  503    0 -0.00000000000E+00  0.00000000000E+00  0.81275706597E+03  0.81275706597E+03  0.00000000000E+00 0. -1.
         21   -1    0    0  501  502  0.00000000000E+00 -0.00000000000E+00 -0.92984932675E+02  0.92984932675E+02  0.00000000000E+00 0.  1.
         24    2    1    2    0    0 -0.43541966615E+02 -0.98797091432E+02  0.20666328089E+03  0.24629369044E+03  0.79335377688E+02 0.  0.
         23    2    1    2    0    0  0.15720553432E+03  0.61932995111E+02  0.23771120334E+03  0.30918213601E+03  0.10265330552E+03 0.  0.
        -11    1    3    3    0    0 -0.54245294388E+02 -0.30592171208E+02  0.73815122336E+02  0.96576939213E+02  0.00000000000E+00 0.  1.
         12    1    3    3    0    0  0.10703327773E+02 -0.68204920224E+02  0.13284815855E+03  0.14971675123E+03  0.00000000000E+00 0. -1.
        -11    1    4    4    0    0  0.66888046006E+02 -0.19731781363E+02  0.12562567075E+03  0.14368424773E+03  0.00000000000E+00 0.  1.
         11    1    4    4    0    0  0.90317488310E+02  0.81664776474E+02  0.11208553259E+03  0.16549788829E+03  0.00000000000E+00 0. -1.
         21    1    1    2  503  502  0.23069356963E+02  0.80026616073E+01  0.17862050906E+03  0.18028179076E+03  0.00000000000E+00 0.  1.
          1    1    1    2  501    0 -0.13673292466E+03  0.28861434714E+02  0.96777140014E+02  0.16998438143E+03  0.00000000000E+00 0. -1.
<scales pt_clust_5="13000.00000" pt_clust_6="13000.00000" pt_clust_7="13000.00000" pt_clust_8="13000.00000" pt_clust_9="24.41798" pt_clust_10="143.44785"></scales>
<clustering>
<clus scale="   24.418">  1  9  2 -1</clus>
<clus scale="   79.335">  5  6 -1 -1</clus>
<clus scale="  102.653">  7  8 -1 -1</clus>
<clus scale="  129.396">  1  5  2 -1</clus>
<clus scale="  143.448">  2 10  1 -1</clus>
<clus scale="  143.448">  2  5  1 -1</clus>
</clustering>
</event>
<event>
10    4  0.3738096E-005  0.1038400E+03  0.7546771E-02  0.1276624E+00
          2   -1    0    0  503    0 -0.00000000000E+00  0.00000000000E+00  0.77379657104E+03  0.77379657104E+03  0.00000000000E+00 0. -1.
         21   -1    0    0  501  502  0.00000000000E+00 -0.00000000000E+00 -0.61696095706E+02  0.61696095706E+02  0.00000000000E+00 0.  1.
         23    2    1    2    0    0 -0.66003318372E+02 -0.20143075626E+02  0.45537270111E+03  0.46980830262E+03  0.92700392480E+02 0.  0.
         24    2    1    2    0    0  0.38653428258E+01  0.31954420764E+02  0.38809811513E+01  0.89654827881E+02  0.83587680109E+02 0.  0.
        -13    1    4    4    0    0 -0.28903901430E+02  0.43819110899E+02  0.12051247271E+02  0.53858913455E+02  0.00000000000E+00 0.  1.
         14    1    4    4    0    0  0.32769244256E+02 -0.11864690135E+02 -0.81702661198E+01  0.35795914425E+02  0.00000000000E+00 0. -1.
        -13    1    3    3    0    0 -0.86614953972E+02 -0.29528027607E+02  0.39106838116E+03  0.40163233611E+03  0.00000000000E+00 0. -1.
         13    1    3    3    0    0  0.20611635600E+02  0.93849519809E+01  0.64304319943E+02  0.68175966507E+02  0.00000000000E+00 0.  1.
         21    1    1    2  503  502  0.15484598652E+02  0.32237587991E+02  0.15463123935E+03  0.15871312188E+03  0.00000000000E+00 0. -1.
          1    1    1    2  501    0  0.46653376894E+02 -0.44048933129E+02  0.98215553727E+02  0.11731641436E+03  0.00000000000E+00 0. -1.
<scales pt_clust_5="13000.00000" pt_clust_6="13000.00000" pt_clust_7="13000.00000" pt_clust_8="13000.00000" pt_clust_9="35.76360" pt_clust_10="62.54764"></scales>
<clustering>
<clus scale="   35.764">  1  9  2 -1</clus>
<clus scale="   62.548">  2 10  1 -1</clus>
<clus scale="   83.588">  5  6 -1 -1</clus>
<clus scale="   92.700">  7  8 -1 -1</clus>
<clus scale="   95.793">  2  5  1 -1</clus>
<clus scale="   62.548">  2  5  1 -1</clus>
</clustering>
</event>
<event>
10    4  0.3738096E-005  0.2607086E+03  0.7546771E-02  0.1119924E+00
         21   -1    0    0  501  502  0.00000000000E+00  0.00000000000E+00  0.61195039491E+02  0.61195039491E+02  0.00000000000E+00 0. -1.
          2   -1    0    0  503    0 -0.00000000000E+00 -0.00000000000E+00 -0.27524719753E+04  0.27524719753E+04  0.00000000000E+00 0. -1.
         24    2    1    2    0    0  0.12782415891E+03 -0.11668495206E+03 -0.44684607950E+03  0.48585589327E+03  0.80188132683E+02 0.  0.
         23    2    1    2    0    0 -0.23281941009E+03  0.26767732155E+03 -0.14959411511E+04  0.15397631720E+04  0.84703437182E+02 0.  0.
        -11    1    3    3    0    0  0.23683930814E+02 -0.23215650359E+02 -0.19450135304E+03  0.19730856884E+03  0.00000000000E+00 0.  1.
         12    1    3    3    0    0  0.10414022810E+03 -0.93469301697E+02 -0.25234472646E+03  0.28854732443E+03  0.00000000000E+00 0. -1.
        -13    1    4    4    0    0 -0.37589780530E+02  0.46507766854E+02 -0.14241291191E+03  0.15445841336E+03  0.00000000000E+00 0.  1.
         13    1    4    4    0    0 -0.19522962956E+03  0.22116955469E+03 -0.13535282392E+04  0.13853047587E+04  0.00000000000E+00 0. -1.
         21    1    1    2  503  502 -0.33434580658E+02  0.90016931858E+00 -0.19055410135E+03  0.19346717301E+03  0.00000000000E+00 0. -1.
          1    1    1    2  501    0  0.13842983184E+03 -0.15189253881E+03 -0.55793560385E+03  0.59458077646E+03  0.00000000000E+00 0. -1.
<scales pt_clust_5="13000.00000" pt_clust_6="13000.00000" pt_clust_7="13000.00000" pt_clust_8="13000.00000" pt_clust_9="33.44670" pt_clust_10="246.56500"></scales>
<clustering>
<clus scale="   33.447">  2  9  1 -1</clus>
<clus scale="   80.188">  5  6 -1 -1</clus>
<clus scale="   84.703">  7  8 -1 -1</clus>
<clus scale="  186.619">  2  5  1 -1</clus>
<clus scale="  246.565">  1 10  2 -1</clus>
<clus scale="  246.565">  1  5  2 -1</clus>
</clustering>
</event>
<event>
10    4  0.3738096E-005  0.2391267E+03  0.7546771E-02  0.1138192E+00
         21   -1    0    0  503  502  0.00000000000E+00  0.00000000000E+00  0.15892148480E+03  0.15892148480E+03  0.00000000000E+00 0.  1.
         -3   -1    0    0    0  501 -0.00000000000E+00 -0.00000000000E+00 -0.14453378179E+04  0.14453378179E+04  0.00000000000E+00 0.  1.
         23    2    1    2    0    0 -0.13224082649E+03  0.58402225210E+02 -0.31631764570E+03  0.36009205447E+03  0.93332623501E+02 0.  0.
         24    2    1    2    0    0  0.60865587447E+02 -0.17062022401E+03 -0.40911278427E+03  0.45459527403E+03  0.80422088672E+02 0.  0.
        -11    1    4    4    0    0  0.13073513379E+02 -0.14170945860E+03 -0.29752672847E+03  0.32981000828E+03  0.00000000000E+00 0.  1.
         12    1    4    4    0    0  0.47792074068E+02 -0.28910765408E+02 -0.11158605580E+03  0.12478526575E+03  0.00000000000E+00 0. -1.
        -11    1    3    3    0    0 -0.46230686618E+02 -0.12697031103E+02 -0.41234437947E+02  0.63235827320E+02  0.00000000000E+00 0. -1.
         11    1    3    3    0    0 -0.86010139876E+02  0.71099256314E+02 -0.27508320775E+03  0.29685622715E+03  0.00000000000E+00 0.  1.
         21    1    1    2  503  501  0.26475592930E+02 -0.13005095469E+03 -0.52384259332E+03  0.54039362544E+03  0.00000000000E+00 0.  1.
         -4    1    1    2    0  502  0.44899646118E+02  0.24226895348E+03 -0.37143309846E+02  0.24917834880E+03  0.00000000000E+00 0.  1.
<scales pt_clust_5="13000.00000" pt_clust_6="13000.00000" pt_clust_7="13000.00000" pt_clust_8="13000.00000" pt_clust_9="132.71853" pt_clust_10="225.19739"></scales>
<clustering>
<clus scale="   80.422">  5  6 -1 -1</clus>
<clus scale="   93.333">  7  8 -1 -1</clus>
<clus scale="  132.719">  2  9  1 -1</clus>
<clus scale="  154.293">  2  7  1 -1</clus>
<clus scale="  225.197">  1 10  2 -1</clus>
<clus scale="  225.197">  1  5  2 -1</clus>
</clustering>
</event>
<event>
10    4  0.3738096E-005  0.3953388E+03  0.7546771E-02  0.1097688E+00
         21   -1    0    0  501  502  0.00000000000E+00  0.00000000000E+00  0.17929012717E+03  0.17929012717E+03  0.00000000000E+00 0. -1.
          2   -1    0    0  503    0 -0.00000000000E+00 -0.00000000000E+00 -0.16592716501E+04  0.16592716501E+04  0.00000000000E+00 0. -1.
         24    2    1    2    0    0  0.38439879661E+02 -0.27012241474E+02 -0.33563753614E+03  0.34866490545E+03  0.81898565831E+02 0.  0.
         23    2    1    2    0    0  0.41443183106E+03 -0.24412101007E+02 -0.36400814214E+03  0.56004798145E+03  0.93819617922E+02 0.  0.
        -13    1    3    3    0    0  0.51482234085E+02  0.10885609078E+02 -0.22251282991E+03  0.22865011784E+03  0.00000000000E+00 0.  1.
         14    1    3    3    0    0 -0.13042354424E+02 -0.37897850553E+02 -0.11312470623E+03  0.12001478761E+03  0.00000000000E+00 0. -1.
        -11    1    4    4    0    0  0.66980409847E+02  0.30694714827E+02 -0.68675292255E+02  0.10072157955E+03  0.00000000000E+00 0.  1.
         11    1    4    4    0    0  0.34745142121E+03 -0.55106815834E+02 -0.29533284989E+03  0.45932640189E+03  0.00000000000E+00 0. -1.
         21    1    1    2  503  502 -0.36743623125E+03  0.12806466253E+03 -0.63380067473E+03  0.74371583089E+03  0.00000000000E+00 0. -1.
          1    1    1    2  501    0 -0.85435479469E+02 -0.76640320047E+02 -0.14653516992E+03  0.18613305948E+03  0.00000000000E+00 0. -1.
<scales pt_clust_5="13000.00000" pt_clust_6="13000.00000" pt_clust_7="13000.00000" pt_clust_8="13000.00000" pt_clust_9="384.04515" pt_clust_10="113.58511"></scales>
<clustering>
<clus scale="   81.899">  5  6 -1 -1</clus>
<clus scale="   93.820">  7  8 -1 -1</clus>
<clus scale="   94.417">  2  5  1 -1</clus>
<clus scale="  113.585">  1 10  2 -1</clus>
<clus scale="  384.045">  2  9  1 -1</clus>
<clus scale="  113.585">  1  5  2 -1</clus>
</clustering>
</event>
<event>
10    4  0.3738096E-005  0.1428708E+03  0.7546771E-02  0.1210251E+00
         21   -1    0    0  503  502  0.00000000000E+00  0.00000000000E+00  0.12271625395E+03  0.12271625395E+03  0.00000000000E+00 0. -1.
         -1   -1    0    0    0  501 -0.00000000000E+00 -0.00000000000E+00 -0.57051950240E+03  0.57051950240E+03  0.00000000000E+00 0.  1.
         24    2    1    2    0    0  0.23906841049E+02 -0.10459007575E+03 -0.18034634323E+03  0.22498712655E+03  0.81140511471E+02 0.  0.
         23    2    1    2    0    0 -0.14553104343E+03  0.75249324334E+02 -0.20589110611E+03  0.27420289577E+03  0.77164337988E+02 0.  0.
        -11    1    3    3    0    0 -0.17785409163E+02 -0.23225610166E+02 -0.87138963681E+01  0.30523462068E+02  0.00000000000E+00 0.  1.
         12    1    3    3    0    0  0.41692250212E+02 -0.81364465585E+02 -0.17163244686E+03  0.19446366448E+03  0.00000000000E+00 0. -1.
        -11    1    4    4    0    0 -0.45923801324E+02  0.93487954719E+01 -0.15333630782E+02  0.49310401922E+02  0.00000000000E+00 0. -1.
         11    1    4    4    0    0 -0.99607242110E+02  0.65900528862E+02 -0.19055747532E+03  0.22489249384E+03  0.00000000000E+00 0.  1.
         21    1    1    2  503  501  0.12803888164E+03  0.74437028922E+01 -0.90666592880E+02  0.15706621212E+03  0.00000000000E+00 0. -1.
         -2    1    1    2    0  502 -0.64146792576E+01  0.21897048525E+02  0.29100793765E+02  0.36979521925E+02  0.00000000000E+00 0.  1.
<scales pt_clust_5="13000.00000" pt_clust_6="13000.00000" pt_clust_7="13000.00000" pt_clust_8="13000.00000" pt_clust_9="126.62254" pt_clust_10="22.81729"></scales>
<clustering>
<clus scale="   22.817">  1 10  2 -1</clus>
<clus scale="   77.164">  7  8 -1 -1</clus>
<clus scale="   81.141">  5  6 -1 -1</clus>
<clus scale="  126.623">  1  9  2 -1</clus>
<clus scale="  140.651">  1  7  2 -1</clus>
<clus scale="   22.817">  1  5  2 -1</clus>
</clustering>
</event>
<event>
10    4  0.3738096E-005  0.1051068E+03  0.7546771E-02  0.1273946E+00
         -1   -1    0    0    0  501 -0.00000000000E+00  0.00000000000E+00  0.25824090129E+03  0.25824090129E+03  0.00000000000E+00 0.  1.
         21   -1    0    0  503  502  0.00000000000E+00 -0.00000000000E+00 -0.21760622868E+03  0.21760622868E+03  0.00000000000E+00 0. -1.
         24    2    1    2    0    0  0.37594130249E+02  0.33344359626E+02  0.15863872216E+03  0.18601520503E+03  0.83127897761E+02 0.  0.
         23    2    1    2    0    0 -0.11764364977E+02  0.24364920260E+02 -0.65493407553E+02  0.11629247064E+03  0.92209016214E+02 0.  0.
        -11    1    3    3    0    0  0.29888461464E+02  0.23457599558E+02  0.16679012284E+03  0.17106292463E+03  0.00000000000E+00 0.  1.
         12    1    3    3    0    0  0.77056687849E+01  0.98867600679E+01 -0.81514006822E+01  0.14952280400E+02  0.00000000000E+00 0. -1.
        -11    1    4    4    0    0  0.34889968622E+02  0.52226554153E+01 -0.21740570939E+01  0.35345615913E+02  0.00000000000E+00 0.  1.
         11    1    4    4    0    0 -0.46654333599E+02  0.19142264845E+02 -0.63319350459E+02  0.80946854723E+02  0.00000000000E+00 0. -1.
         21    1    1    2  503  501  0.31207430265E+02 -0.44520477949E+02  0.37584347099E+02  0.66095081567E+02  0.00000000000E+00 0. -1.
         -2    1    1    2    0  502 -0.57037195537E+02 -0.13188801938E+02 -0.90094989095E+02  0.10744437273E+03  0.00000000000E+00 0.  1.
<scales pt_clust_5="13000.00000" pt_clust_6="13000.00000" pt_clust_7="13000.00000" pt_clust_8="13000.00000" pt_clust_9="54.36889" pt_clust_10="57.72472"></scales>
<clustering>
<clus scale="   54.369">  1  9  2 -1</clus>
<clus scale="   57.725">  2 10  1 -1</clus>
<clus scale="   83.128">  5  6 -1 -1</clus>
<clus scale="   92.209">  7  8 -1 -1</clus>
<clus scale="   97.238">  1  5  2 -1</clus>
<clus scale="   57.725">  2  5  1 -1</clus>
</clustering>
</event>
<event>
10    4  0.3738096E-005  0.1240313E+03  0.7546771E-02  0.1238608E+00
         -1   -1    0    0    0  501 -0.00000000000E+00  0.00000000000E+00  0.55074954989E+02  0.55074954989E+02  0.00000000000E+00 0.  1.
         21   -1    0    0  503  502  0.00000000000E+00 -0.00000000000E+00 -0.76719700853E+03  0.76719700853E+03  0.00000000000E+00 0.  1.
         23    2    1    2    0    0  0.48948367168E+02 -0.10143746009E+03 -0.11909465175E+03  0.18601134700E+03  0.87927152673E+02 0.  0.
         24    2    1    2    0    0 -0.28986123720E+02  0.47370075255E+02 -0.45049313721E+03  0.46102586411E+03  0.80725840368E+02 0.  0.
        -11    1    4    4    0    0  0.40329236832E+01 -0.21352830031E+02 -0.97265028543E+02  0.99662899823E+02  0.00000000000E+00 0.  1.
         12    1    4    4    0    0 -0.33019047403E+02  0.68722905286E+02 -0.35322810867E+03  0.36136296428E+03  0.00000000000E+00 0. -1.
        -13    1    3    3    0    0 -0.33122296500E+01 -0.83112965194E+02 -0.93064496623E+02  0.12481881421E+03  0.00000000000E+00 0. -1.
         13    1    3    3    0    0  0.52260596818E+02 -0.18324494898E+02 -0.26030155128E+02  0.61192532788E+02  0.00000000000E+00 0.  1.
         21    1    1    2  503  501 -0.50067682771E+01  0.20477519408E+02  0.62394851143E+01  0.21984715240E+02  0.00000000000E+00 0.  1.
         -2    1    1    2    0  502 -0.14955475171E+02  0.33589865429E+02 -0.14877374970E+03  0.15325003718E+03  0.00000000000E+00 0.  1.
<scales pt_clust_5="13000.00000" pt_clust_6="13000.00000" pt_clust_7="13000.00000" pt_clust_8="13000.00000" pt_clust_9="21.08071" pt_clust_10="37.90276"></scales>
<clustering>
<clus scale="   21.081">  1  9  2 -1</clus>
<clus scale="   37.903">  2 10  1 -1</clus>
<clus scale="   80.726">  5  6 -1 -1</clus>
<clus scale="   87.927">  7  8 -1 -1</clus>
<clus scale="  119.035">  2  5  1 -1</clus>
<clus scale="   37.903">  2  5  1 -1</clus>
</clustering>
</event>
<event>
10    4  0.3738096E-005  0.2272824E+03  0.7546771E-02  0.1129358E+00
          2   -1    0    0  503    0 -0.00000000000E+00  0.00000000000E+00  0.13995972210E+04  0.13995972210E+04  0.00000000000E+00 0. -1.
         21   -1    0    0  501  502  0.00000000000E+00 -0.00000000000E+00 -0.11611594521E+03  0.11611594521E+03  0.00000000000E+00 0.  1.
         24    2    1    2    0    0 -0.15511862166E+03  0.81436977509E+02  0.78665735324E+03  0.80993181928E+03  0.80411394623E+02 0.  0.
         23    2    1    2    0    0  0.26252649084E+03 -0.10006171364E+03  0.16217551188E+03  0.33714930519E+03  0.91849074067E+02 0.  0.
        -13    1    3    3    0    0 -0.90237928127E+02  0.17797234870E+02  0.26727213059E+03  0.28265529719E+03  0.00000000000E+00 0.  1.
         14    1    3    3    0    0 -0.64880693531E+02  0.63639742639E+02  0.51938522265E+03  0.52727652209E+03  0.00000000000E+00 0. -1.
        -13    1    4    4    0    0  0.20810269084E+03 -0.43928332505E+02  0.90712417004E+02  0.23122536826E+03  0.00000000000E+00 0.  1.
         13    1    4    4    0    0  0.54423800004E+02 -0.56133381140E+02  0.71463094873E+02  0.10592393693E+03  0.00000000000E+00 0. -1.
         21    1    1    2  503  502 -0.21084459609E+02  0.26052451443E+02  0.23154280174E+03  0.23395587982E+03  0.00000000000E+00 0.  1.
          1    1    1    2  501    0 -0.86323409575E+02 -0.74277153074E+01  0.10310560892E+03  0.13467616191E+03  0.00000000000E+00 0. -1.
<scales pt_clust_5="13000.00000" pt_clust_6="13000.00000" pt_clust_7="13000.00000" pt_clust_8="13000.00000" pt_clust_9="33.51544" pt_clust_10="88.60039"></scales>
<clustering>
<clus scale="   33.515">  1  9  2 -1</clus>
<clus scale="   80.411">  5  6 -1 -1</clus>
<clus scale="   88.600">  2 10  1 -1</clus>
<clus scale="   91.849">  7  8 -1 -1</clus>
<clus scale="  222.906">  1  5  2 -1</clus>
<clus scale="   88.600">  2  5  1 -1</clus>
</clustering>
</event>
<event>
10    4  0.3738096E-005  0.2001637E+03  0.7546771E-02  0.1170812E+00
          2   -1    0    0  503    0 -0.00000000000E+00  0.00000000000E+00  0.69693422898E+03  0.69693422898E+03  0.00000000000E+00 0. -1.
         21   -1    0    0  501  502  0.00000000000E+00 -0.00000000000E+00 -0.32694803598E+03  0.32694803598E+03  0.00000000000E+00 0. -1.
         23    2    1    2    0    0 -0.67625989762E+02 -0.16199060477E+03  0.36667323907E+03  0.41656968599E+03  0.90921991377E+02 0.  0.
         24    2    1    2    0    0  0.71269366192E+02 -0.31046495080E+02 -0.17323780126E+03  0.20584075388E+03  0.79472465395E+02 0.  0.
        -11    1    4    4    0    0  0.72845608730E+02 -0.43845191952E+02 -0.99032265786E+02  0.13052307549E+03  0.00000000000E+00 0.  1.
         12    1    4    4    0    0 -0.15762425381E+01  0.12798696872E+02 -0.74205535478E+02  0.75317678388E+02  0.00000000000E+00 0. -1.
        -11    1    3    3    0    0 -0.68379505792E+02 -0.10765375547E+03  0.32160950971E+03  0.34597364729E+03  0.00000000000E+00 0. -1.
         11    1    3    3    0    0  0.75351603026E+00 -0.54336849294E+02  0.45063729357E+02  0.70596038708E+02  0.00000000000E+00 0.  1.
         21    1    1    2  503  502 -0.24142845519E+02  0.19490431940E+03  0.25414953805E+03  0.32118928749E+03  0.00000000000E+00 0. -1.
          1    1    1    2  501    0  0.20499469088E+02 -0.18672195560E+01 -0.77598782849E+02  0.80282537587E+02  0.00000000000E+00 0. -1.
<scales pt_clust_5="13000.00000" pt_clust_6="13000.00000" pt_clust_7="13000.00000" pt_clust_8="13000.00000" pt_clust_9="178.32193" pt_clust_10="20.58433"></scales>
<clustering>
<clus scale="   20.584">  2 10  1 -1</clus>
<clus scale="   79.472">  5  6 -1 -1</clus>
<clus scale="   90.922">  7  8 -1 -1</clus>
<clus scale="  122.181">  2  5  1 -1</clus>
<clus scale="  178.322">  2  9  1 -1</clus>
<clus scale="   20.584">  2  5  1 -1</clus>
</clustering>
</event>
<event>
10    4  0.3738096E-005  0.1827257E+03  0.7546771E-02  0.1192383E+00
          2   -1    0    0  503    0 -0.00000000000E+00  0.00000000000E+00  0.14747144745E+04  0.14747144745E+04  0.00000000000E+00 0. -1.
         21   -1    0    0  501  502  0.00000000000E+00 -0.00000000000E+00 -0.13397537578E+03  0.13397537578E+03  0.00000000000E+00 0. -1.
         23    2    1    2    0    0 -0.11002552583E+02  0.36587721198E+02 -0.21803251608E+02  0.10139528137E+03  0.91355918236E+02 0.  0.
         24    2    1    2    0    0 -0.53095725501E+02  0.19348115231E+03  0.15303262158E+03  0.26713202466E+03  0.87672247411E+02 0.  0.
        -11    1    4    4    0    0 -0.20283192330E+02  0.80074615851E+01 -0.36733729154E+01  0.22113819225E+02  0.00000000000E+00 0.  1.
         12    1    4    4    0    0 -0.32812533171E+02  0.18547369072E+03  0.15670599450E+03  0.24501820544E+03  0.00000000000E+00 0. -1.
        -13    1    3    3    0    0  0.33599575730E+02  0.15754288365E+02 -0.34378470014E+02  0.50586641435E+02  0.00000000000E+00 0. -1.
         13    1    3    3    0    0 -0.44602128313E+02  0.20833432833E+02  0.12575218406E+02  0.50808639931E+02  0.00000000000E+00 0.  1.
         21    1    1    2  503  502 -0.24199588711E+02 -0.15585898499E+03  0.74911286930E+03  0.76553754594E+03  0.00000000000E+00 0.  1.
          1    1    1    2  501    0  0.88297866795E+02 -0.74209888514E+02  0.46039685948E+03  0.47462499835E+03  0.00000000000E+00 0. -1.
<scales pt_clust_5="13000.00000" pt_clust_6="13000.00000" pt_clust_7="13000.00000" pt_clust_8="13000.00000" pt_clust_9="160.31929" pt_clust_10="105.14882"></scales>
<clustering>
<clus scale="   87.672">  5  6 -1 -1</clus>
<clus scale="   91.356">  7  8 -1 -1</clus>
<clus scale="   99.023">  1  7  2 -1</clus>
<clus scale="  105.149">  2 10  1 -1</clus>
<clus scale="  160.319">  1  9  2 -1</clus>
<clus scale="  105.149">  2  5  1 -1</clus>
</clustering>
</event>
<event>
10    4  0.3738096E-005  0.3356709E+03  0.7546771E-02  0.1115394E+00
          2   -1    0    0  503    0 -0.00000000000E+00  0.00000000000E+00  0.25072392363E+03  0.25072392363E+03  0.00000000000E+00 0. -1.
         21   -1    0    0  501  502  0.00000000000E+00 -0.00000000000E+00 -0.17024679923E+04  0.17024679923E+04  0.00000000000E+00 0. -1.
         24    2    1    2    0    0 -0.43927370906E+02 -0.13810883187E+02  0.49832429151E+02  0.10555455955E+03  0.80858763513E+02 0.  0.
         23    2    1    2    0    0 -0.19652248280E+03 -0.19028504959E+03 -0.21545458957E+03  0.35986569930E+03  0.90846876792E+02 0.  0.
        -11    1    3    3    0    0  0.20638087914E+02 -0.17416598578E+02  0.67004178886E+01  0.27823805970E+02  0.00000000000E+00 0.  1.
         12    1    3    3    0    0 -0.64565458820E+02  0.36057153909E+01  0.43132011262E+02  0.77730753577E+02  0.00000000000E+00 0. -1.
        -13    1    4    4    0    0 -0.30832850854E+02 -0.45828649455E+02 -0.93195658708E+02  0.10833448484E+03  0.00000000000E+00 0.  1.
         13    1    4    4    0    0 -0.16568963195E+03 -0.14445640013E+03 -0.12225893087E+03  0.25153121447E+03  0.00000000000E+00 0. -1.
         21    1    1    2  503  502 -0.16308663434E+02 -0.14762187660E+02  0.78778792832E+02  0.81792376708E+02  0.00000000000E+00 0.  1.
          1    1    1    2  501    0  0.25675851714E+03  0.21885812043E+03 -0.13649007010E+04  0.14059792803E+04  0.00000000000E+00 0. -1.
<scales pt_clust_5="13000.00000" pt_clust_6="13000.00000" pt_clust_7="13000.00000" pt_clust_8="13000.00000" pt_clust_9="21.99761" pt_clust_10="323.14357"></scales>
<clustering>
<clus scale="   21.998">  1  9  2 -1</clus>
<clus scale="   80.859">  5  6 -1 -1</clus>
<clus scale="   90.847">  7  8 -1 -1</clus>
<clus scale="   97.970">  1  5  2 -1</clus>
<clus scale="  323.144">  2 10  1 -1</clus>
<clus scale="  323.144">  2  5  1 -1</clus>
</clustering>
</event>
<event>
10    4  0.3738096E-005  0.1972125E+03  0.7546771E-02  0.1152455E+00
         21   -1    0    0  503  502  0.00000000000E+00  0.00000000000E+00  0.33777572871E+03  0.33777572871E+03  0.00000000000E+00 0.  1.
         -1   -1    0    0    0  501 -0.00000000000E+00 -0.00000000000E+00 -0.51652592704E+03  0.51652592704E+03  0.00000000000E+00 0.  1.
         23    2    1    2    0    0  0.73048085665E+02 -0.14777529738E+03 -0.37796788225E+03  0.42216088647E+03  0.90479460186E+02 0.  0.
         24    2    1    2    0    0 -0.36208487961E+02  0.18367618416E+03  0.47578848448E+02  0.21183775076E+03  0.86968330998E+02 0.  0.
        -11    1    4    4    0    0 -0.94737355184E+01  0.46024141216E+02 -0.25766451382E+02  0.53589954807E+02  0.00000000000E+00 0.  1.
         12    1    4    4    0    0 -0.26734752443E+02  0.13765204295E+03  0.73345299830E+02  0.15824779595E+03  0.00000000000E+00 0. -1.
        -11    1    3    3    0    0  0.33885438535E+02 -0.36590601705E+02 -0.39087788625E+02  0.63363635450E+02  0.00000000000E+00 0. -1.
         11    1    3    3    0    0  0.39162647131E+02 -0.11118469567E+03 -0.33888009363E+03  0.35879725102E+03  0.00000000000E+00 0.  1.
         21    1    1    2  503  501 -0.18032041771E+02 -0.18822359131E+02 -0.28360624279E+02  0.38519615045E+02  0.00000000000E+00 0. -1.
         -2    1    1    2    0  502 -0.18807555933E+02 -0.17078527656E+02  0.17999945976E+03  0.18178340348E+03  0.00000000000E+00 0.  1.
<scales pt_clust_5="13000.00000" pt_clust_6="13000.00000" pt_clust_7="13000.00000" pt_clust_8="13000.00000" pt_clust_9="26.88660" pt_clust_10="25.40473"></scales>
<clustering>
<clus scale="   25.405">  1 10  2 -1</clus>
<clus scale="   26.887">  2  9  1 -1</clus>
<clus scale="   86.968">  5  6 -1 -1</clus>
<clus scale="   90.479">  7  8 -1 -1</clus>
<clus scale="  195.627">  1  5  2 -1</clus>
<clus scale="   25.405">  1  5  2 -1</clus>
</clustering>
</event>
<event>
10    4  0.3738096E-005  0.2183510E+03  0.7546771E-02  0.1135831E+00
         21   -1    0    0  501  502  0.00000000000E+00  0.00000000000E+00  0.54704023976E+02  0.54704023976E+02  0.00000000000E+00 0. -1.
          2   -1    0    0  503    0 -0.00000000000E+00 -0.00000000000E+00 -0.13042774839E+04  0.13042774839E+04  0.00000000000E+00 0. -1.
         24    2    1    2    0    0  0.67167982649E+02  0.21350210245E+03 -0.69010577767E+03  0.72992949034E+03  0.80351669885E+02 0.  0.
         23    2    1    2    0    0 -0.67726758777E+02 -0.15756977912E+03 -0.35418188551E+03  0.40365891764E+03  0.89891960788E+02 0.  0.
        -13    1    3    3    0    0 -0.16704550405E+01  0.79260265214E+02 -0.33217647074E+03  0.34150576536E+03  0.00000000000E+00 0.  1.
         14    1    3    3    0    0  0.68838437689E+02  0.13424183723E+03 -0.35792930692E+03  0.38842372497E+03  0.00000000000E+00 0. -1.
        -11    1    4    4    0    0 -0.66759041287E+01 -0.86292579809E+02 -0.24416558769E+03  0.25905175397E+03  0.00000000000E+00 0.  1.
         11    1    4    4    0    0 -0.61050854648E+02 -0.71277199312E+02 -0.11001629783E+03  0.14460716366E+03  0.00000000000E+00 0. -1.
         21    1    1    2  503  502 -0.29027211674E+02  0.21077057289E+00 -0.76448724736E+02  0.81774268298E+02  0.00000000000E+00 0. -1.
          1    1    1    2  501    0  0.29585987802E+02 -0.56143093900E+02 -0.12883707197E+03  0.14361883157E+03  0.00000000000E+00 0. -1.
<scales pt_clust_5="13000.00000" pt_clust_6="13000.00000" pt_clust_7="13000.00000" pt_clust_8="13000.00000" pt_clust_9="29.02798" pt_clust_10="62.00147"></scales>
<clustering>
<clus scale="   29.028">  2  9  1 -1</clus>
<clus scale="   62.001">  1 10  2 -1</clus>
<clus scale="   80.352">  5  6 -1 -1</clus>
<clus scale="   89.892">  7  8 -1 -1</clus>
<clus scale="  214.600">  2  5  1 -1</clus>
<clus scale="   62.001">  1  5  2 -1</clus>
</clustering>
</event>
<event>
10    4  0.3738096E-005  0.1734905E+03  0.7546771E-02  0.1175747E+00
          2   -1    0    0  503    0 -0.00000000000E+00  0.00000000000E+00  0.15746338601E+04  0.15746338601E+04  0.00000000000E+00 0. -1.
         21   -1    0    0  501  502  0.00000000000E+00 -0.00000000000E+00 -0.55504362520E+02  0.55504362520E+02  0.00000000000E+00 0.  1.
         23    2    1    2    0    0 -0.75379955174E+02  0.86125880568E+02  0.54643343138E+03  0.56567175767E+03  0.91078194669E+02 0.  0.
         24    2    1    2    0    0 -0.99295990141E+01 -0.19574644551E+03  0.41060676467E+03  0.46188740130E+03  0.79541111550E+02 0.  0.
        -11    1    4    4    0    0 -0.26271733044E+02 -0.19132644125E+03  0.39017454397E+03  0.43535294399E+03  0.00000000000E+00 0.  1.
         12    1    4    4    0    0  0.16342134030E+02 -0.44200042579E+01  0.20432220698E+02  0.26534457314E+02  0.00000000000E+00 0. -1.
        -11    1    3    3    0    0 -0.37672615390E+02  0.94520014990E+02  0.31470260366E+03  0.33074308448E+03  0.00000000000E+00 0.  1.
         11    1    3    3    0    0 -0.37707339784E+02 -0.83941344226E+01  0.23173082772E+03  0.23492867318E+03  0.00000000000E+00 0. -1.
         21    1    1    2  503  502 -0.27095529936E+02  0.78387392133E+02  0.35815921809E+03  0.36763674529E+03  0.00000000000E+00 0. -1.
          1    1    1    2  501    0  0.11240508412E+03  0.31233172805E+02  0.20393008340E+03  0.23494231832E+03  0.00000000000E+00 0. -1.
<scales pt_clust_5="13000.00000" pt_clust_6="13000.00000" pt_clust_7="13000.00000" pt_clust_8="13000.00000" pt_clust_9="82.93824" pt_clust_10="116.70319"></scales>
<clustering>
<clus scale="   79.541">  5  6 -1 -1</clus>
<clus scale="   82.938">  1  9  2 -1</clus>
<clus scale="   91.078">  7  8 -1 -1</clus>
<clus scale="  116.703">  2 10  1 -1</clus>
<clus scale="  167.721">  2  5  1 -1</clus>
<clus scale="  116.703">  2  5  1 -1</clus>
</clustering>
</event>
<event>
10    4  0.3738096E-005  0.1151987E+03  0.7546771E-02  0.1258061E+00
          2   -1    0    0  503    0 -0.00000000000E+00  0.00000000000E+00  0.30631064069E+03  0.30631064069E+03  0.00000000000E+00 0. -1.
         21   -1    0    0  501  502  0.00000000000E+00 -0.00000000000E+00 -0.18970965790E+03  0.18970965790E+03  0.00000000000E+00 0. -1.
         24    2    1    2    0    0 -0.75861840811E+01  0.47792157743E+02  0.19145913222E+03  0.21307724970E+03  0.80022962306E+02 0.  0.
         23    2    1    2    0    0 -0.53223435989E+02 -0.52805170343E+02 -0.69598301918E+01  0.12337038255E+03  0.97727641432E+02 0.  0.
        -13    1    3    3    0    0  0.22850912558E+02 -0.95422034006E+01  0.29026332534E+02  0.38154237390E+02  0.00000000000E+00 0.  1.
         14    1    3    3    0    0 -0.30437096639E+02  0.57334361144E+02  0.16243279969E+03  0.17492301231E+03  0.00000000000E+00 0. -1.
        -13    1    4    4    0    0  0.26546267347E+02 -0.59673706571E+00 -0.89293850661E+01  0.28014180745E+02  0.00000000000E+00 0.  1.
         13    1    4    4    0    0 -0.79769703336E+02 -0.52208433278E+02  0.19695548743E+01  0.95356201802E+02  0.00000000000E+00 0. -1.
         21    1    1    2  503  502 -0.23982162758E+02  0.23603888417E+02  0.17391295703E+02  0.37878025888E+02  0.00000000000E+00 0.  1.
          1    1    1    2  501    0  0.84791782828E+02 -0.18590875816E+02 -0.85289614940E+02  0.12169464045E+03  0.00000000000E+00 0. -1.
<scales pt_clust_5="13000.00000" pt_clust_6="13000.00000" pt_clust_7="13000.00000" pt_clust_8="13000.00000" pt_clust_9="33.64948" pt_clust_10="84.95367"></scales>
<clustering>
<clus scale="   33.649">  1  9  2 -1</clus>
<clus scale="   80.023">  5  6 -1 -1</clus>
<clus scale="   84.954">  2 10  1 -1</clus>
<clus scale="   97.728">  7  8 -1 -1</clus>
<clus scale="  100.617">  1  5  2 -1</clus>
<clus scale="   84.954">  2  5  1 -1</clus>
</clustering>
</event>
<event>
10    4  0.3738096E-005  0.1033277E+03  0.7546771E-02  0.1279993E+00
         -1   -1    0    0    0  501 -0.00000000000E+00  0.00000000000E+00  0.42240133638E+02  0.42240133638E+02  0.00000000000E+00 0.  1.
         21   -1    0    0  503  502  0.00000000000E+00 -0.00000000000E+00 -0.48866684260E+03  0.48866684260E+03  0.00000000000E+00 0. -1.
         24    2    1    2    0    0  0.23075320440E+02 -0.34216084047E+02 -0.89481684968E+02  0.12670304003E+03  0.79645951486E+02 0.  0.
         23    2    1    2    0    0 -0.23628990984E+02  0.47920374134E+02 -0.29513739389E+03  0.31411614918E+03  0.93317642671E+02 0.  0.
        -13    1    3    3    0    0 -0.28890487584E+02 -0.19614592964E+02 -0.27044100163E+02  0.44167588610E+02  0.00000000000E+00 0.  1.
         14    1    3    3    0    0  0.51965808024E+02 -0.14601491083E+02 -0.62437584804E+02  0.82535451423E+02  0.00000000000E+00 0. -1.
        -13    1    4    4    0    0 -0.33204106956E+02  0.67085393877E+02 -0.27392244643E+03  0.28396561315E+03  0.00000000000E+00 0. -1.
         13    1    4    4    0    0  0.95751159721E+01 -0.19165019743E+02 -0.21214947456E+02  0.30150536035E+02  0.00000000000E+00 0.  1.
         21    1    1    2  503  501  0.19185201199E+02  0.69678103098E+01 -0.58625513010E+02  0.62077154423E+02  0.00000000000E+00 0. -1.
         -2    1    1    2    0  502 -0.18631530655E+02 -0.20672100396E+02 -0.31821170954E+01  0.28010632598E+02  0.00000000000E+00 0.  1.
<scales pt_clust_5="13000.00000" pt_clust_6="13000.00000" pt_clust_7="13000.00000" pt_clust_8="13000.00000" pt_clust_9="20.41133" pt_clust_10="27.17538"></scales>
<clustering>
<clus scale="   20.411">  2  9  1 -1</clus>
<clus scale="   27.175">  2 10  1 -1</clus>
<clus scale="   79.646">  5  6 -1 -1</clus>
<clus scale="   91.170">  1  5  2 -1</clus>
<clus scale="   93.318">  7  8 -1 -1</clus>
<clus scale="   20.411">  2  5  1 -1</clus>
</clustering>
</event>
<event>
10    4  0.3738096E-005  0.1340490E+03  0.7546771E-02  0.1242286E+00
          2   -1    0    0  503    0 -0.00000000000E+00  0.00000000000E+00  0.19700368888E+03  0.19700368888E+03  0.00000000000E+00 0. -1.
         21   -1    0    0  501  502  0.00000000000E+00 -0.00000000000E+00 -0.23891166134E+03  0.23891166134E+03  0.00000000000E+00 0. -1.
         24    2    1    2    0    0  0.48890476411E+01 -0.24748607593E+02  0.76409355004E+02  0.11311315101E+03  0.79497163684E+02 0.  0.
         23    2    1    2    0    0  0.88662921804E+02 -0.14551069994E+02 -0.11106671382E+03  0.17243752095E+03  0.96571405556E+02 0.  0.
        -13    1    3    3    0    0 -0.36153629845E+02 -0.59332784006E+01  0.45404317044E+02  0.58342443811E+02  0.00000000000E+00 0.  1.
         14    1    3    3    0    0  0.41042677486E+02 -0.18815329193E+02  0.31005037960E+02  0.54770707196E+02  0.00000000000E+00 0. -1.
        -11    1    4    4    0    0  0.19669305805E+02  0.28433378006E+02 -0.76797230906E+02  0.84220859949E+02  0.00000000000E+00 0.  1.
         11    1    4    4    0    0  0.68993615999E+02 -0.42984448000E+02 -0.34269482912E+02  0.88216660998E+02  0.00000000000E+00 0. -1.
         21    1    1    2  503  502 -0.10799176165E+02 -0.19898556970E+02  0.33772417314E+02  0.40658958995E+02  0.00000000000E+00 0. -1.
          1    1    1    2  501    0 -0.82752793280E+02  0.59198234557E+02 -0.41023030959E+02  0.10970571927E+03  0.00000000000E+00 0. -1.
<scales pt_clust_5="13000.00000" pt_clust_6="13000.00000" pt_clust_7="13000.00000" pt_clust_8="13000.00000" pt_clust_9="22.64011" pt_clust_10="92.96831"></scales>
<clustering>
<clus scale="   22.640">  1  9  2 -1</clus>
<clus scale="   79.497">  5  6 -1 -1</clus>
<clus scale="   87.510">  1  5  2 -1</clus>
<clus scale="   92.968">  2 10  1 -1</clus>
<clus scale="   96.571">  7  8 -1 -1</clus>
<clus scale="   92.968">  2  5  1 -1</clus>
</clustering>
</event>
<event>
10    4  0.3738096E-005  0.1627803E+03  0.7546771E-02  0.1203479E+00
         21   -1    0    0  503  502  0.00000000000E+00  0.00000000000E+00  0.21599244083E+03  0.21599244083E+03  0.00000000000E+00 0.  1.
         -1   -1    0    0    0  501 -0.00000000000E+00 -0.00000000000E+00 -0.40920053822E+03  0.40920053822E+03  0.00000000000E+00 0.  1.
         23    2    1    2    0    0  0.43274867589E+02  0.39973718326E+02 -0.19248521716E+02  0.10991052436E+03  0.90770069154E+02 0.  0.
         24    2    1    2    0    0  0.38155996168E+02  0.53906155263E+02 -0.26577117320E+03  0.28750346535E+03  0.87533836113E+02 0.  0.
        -11    1    4    4    0    0 -0.24693047108E+02  0.33157540092E+02 -0.75924292477E+02  0.86450374369E+02  0.00000000000E+00 0.  1.
         12    1    4    4    0    0  0.62849043276E+02  0.20748615171E+02 -0.18984688073E+03  0.20105309098E+03  0.00000000000E+00 0. -1.
        -11    1    3    3    0    0  0.41695155126E+02  0.96807840457E+01  0.29858933189E+02  0.52189648704E+02  0.00000000000E+00 0.  1.
         11    1    3    3    0    0  0.15797124631E+01  0.30292934280E+02 -0.49107454904E+02  0.57720875651E+02  0.00000000000E+00 0. -1.
         21    1    1    2  503  501 -0.34695681340E+01  0.29858947746E+02 -0.26183066255E+02  0.39864114464E+02  0.00000000000E+00 0. -1.
         -2    1    1    2    0  502 -0.77961295623E+02 -0.12373882133E+03  0.11799466378E+03  0.18791487488E+03  0.00000000000E+00 0.  1.
<scales pt_clust_5="13000.00000" pt_clust_6="13000.00000" pt_clust_7="13000.00000" pt_clust_8="13000.00000" pt_clust_9="30.05985" pt_clust_10="137.24161"></scales>
<clustering>
<clus scale="   30.060">  2  9  1 -1</clus>
<clus scale="   87.534">  5  6 -1 -1</clus>
<clus scale="   90.770">  7  8 -1 -1</clus>
<clus scale="  109.976">  2  7  1 -1</clus>
<clus scale="  137.242">  1 10  2 -1</clus>
<clus scale="  137.242">  1  5  2 -1</clus>
</clustering>
</event>
<event>
10    4  0.3738096E-005  0.9596874E+02  0.7546771E-02  0.1296302E+00
         21   -1    0    0  501  502  0.00000000000E+00  0.00000000000E+00  0.38225664061E+02  0.38225664061E+02  0.00000000000E+00 0.  1.
          2   -1    0    0  503    0 -0.00000000000E+00 -0.00000000000E+00 -0.76980072591E+03  0.76980072591E+03  0.00000000000E+00 0. -1.
         24    2    1    2    0    0 -0.20108286229E+02 -0.13986661705E+02 -0.38360527496E+03  0.39261741047E+03  0.79971583355E+02 0.  0.
         23    2    1    2    0    0 -0.34314797777E+02  0.61260030492E+02 -0.15442900758E+03  0.19330711729E+03  0.92677001084E+02 0.  0.
        -11    1    3    3    0    0 -0.44914834850E+02 -0.29700703945E+02 -0.22871494662E+03  0.23496808509E+03  0.00000000000E+00 0.  1.
         12    1    3    3    0    0  0.24806548621E+02  0.15714042240E+02 -0.15489032834E+03  0.15764932538E+03  0.00000000000E+00 0. -1.
        -13    1    4    4    0    0  0.58215281231E+01 -0.20241202327E+02 -0.53588095273E+02  0.57578471813E+02  0.00000000000E+00 0. -1.
         13    1    4    4    0    0 -0.40136325900E+02  0.81501232819E+02 -0.10084091231E+03  0.13572864548E+03  0.00000000000E+00 0.  1.
         21    1    1    2  503  502  0.74476146800E+02 -0.24992414773E+02 -0.14848432407E+03  0.16798485566E+03  0.00000000000E+00 0. -1.
          1    1    1    2  501    0 -0.20053062794E+02 -0.22280954014E+02 -0.45056455244E+02  0.54117006554E+02  0.00000000000E+00 0. -1.
<scales pt_clust_5="13000.00000" pt_clust_6="13000.00000" pt_clust_7="13000.00000" pt_clust_8="13000.00000" pt_clust_9="75.52818" pt_clust_10="29.97609"></scales>
<clustering>
<clus scale="   29.976">  1 10  2 -1</clus>
<clus scale="   75.528">  1  9  2 -1</clus>
<clus scale="   79.972">  5  6 -1 -1</clus>
<clus scale="   83.764">  2  5  1 -1</clus>
<clus scale="   92.677">  7  8 -1 -1</clus>
<clus scale="   29.976">  1  5  2 -1</clus>
</clustering>
</event>
<event>
10    4  0.3738096E-005  0.1222713E+03  0.7546771E-02  0.1252901E+00
          2   -1    0    0  503    0 -0.00000000000E+00  0.00000000000E+00  0.54519801618E+03  0.54519801618E+03  0.00000000000E+00 0. -1.
         21   -1    0    0  501  502  0.00000000000E+00 -0.00000000000E+00 -0.11586907830E+03  0.11586907830E+03  0.00000000000E+00 0. -1.
         23    2    1    2    0    0 -0.16926269199E+02  0.53285375366E+01 -0.27279815796E+02  0.97355179494E+02  0.91754840326E+02 0.  0.
         24    2    1    2    0    0 -0.33896959462E+02 -0.78241659168E+02  0.41691054576E+02  0.12575950013E+03  0.82501798473E+02 0.  0.
        -13    1    4    4    0    0 -0.21423855708E+02  0.13957208195E+02  0.10336138121E+02  0.27579358318E+02  0.00000000000E+00 0.  1.
         14    1    4    4    0    0 -0.12473103754E+02 -0.92198867363E+02  0.31354916455E+02  0.98180141812E+02  0.00000000000E+00 0. -1.
        -13    1    3    3    0    0  0.20557100309E+02  0.74331923047E+01 -0.49231227242E+02  0.53866134599E+02  0.00000000000E+00 0. -1.
         13    1    3    3    0    0 -0.37483369508E+02 -0.21046547681E+01  0.21951411446E+02  0.43489044895E+02  0.00000000000E+00 0.  1.
         21    1    1    2  503  502  0.99903353415E+01 -0.25843434695E+02  0.14549573931E+03  0.14811043203E+03  0.00000000000E+00 0.  1.
          1    1    1    2  501    0  0.40832893319E+02  0.98756556326E+02  0.26942195979E+03  0.28984198283E+03  0.00000000000E+00 0. -1.
<scales pt_clust_5="13000.00000" pt_clust_6="13000.00000" pt_clust_7="13000.00000" pt_clust_8="13000.00000" pt_clust_9="27.70722" pt_clust_10="90.24258"></scales>
<clustering>
<clus scale="   27.707">  1  9  2 -1</clus>
<clus scale="   82.502">  5  6 -1 -1</clus>
<clus scale="   91.755">  7  8 -1 -1</clus>
<clus scale="   93.198">  1  7  2 -1</clus>
<clus scale="   90.243">  2 10  1 -1</clus>
<clus scale="   90.243">  2  5  1 -1</clus>
</clustering>
</event>
<event>
10    4  0.3738096E-005  0.1258540E+03  0.7546771E-02  0.1237457E+00
          2   -1    0    0  503    0 -0.00000000000E+00  0.00000000000E+00  0.12258062984E+04  0.12258062984E+04  0.00000000000E+00 0. -1.
         21   -1    0    0  501  502  0.00000000000E+00 -0.00000000000E+00 -0.23846132853E+02  0.23846132853E+02  0.00000000000E+00 0. -1.
         24    2    1    2    0    0 -0.65770704084E+02  0.38276218441E+02  0.34188486406E+03  0.35929366450E+03  0.80098830607E+02 0.  0.
         23    2    1    2    0    0  0.92706387008E+02 -0.37925034937E+02  0.39438488611E+03  0.41739936696E+03  0.93005433603E+02 0.  0.
        -11    1    3    3    0    0 -0.28188427100E+02 -0.20616424302E+02  0.17369736916E+03  0.17717336263E+03  0.00000000000E+00 0.  1.
         12    1    3    3    0    0 -0.37582276984E+02  0.58892642743E+02  0.16818749490E+03  0.18212030187E+03  0.00000000000E+00 0. -1.
        -13    1    4    4    0    0  0.95903833433E+02 -0.59950246805E+02  0.30528350777E+03  0.32556043598E+03  0.00000000000E+00 0. -1.
         13    1    4    4    0    0 -0.31974464251E+01  0.22025211868E+02  0.89101378348E+02  0.91838930988E+02  0.00000000000E+00 0.  1.
         21    1    1    2  503  502  0.25331339664E+02  0.57115169252E+01  0.92422328775E+02  0.96000963802E+02  0.00000000000E+00 0. -1.
          1    1    1    2  501    0 -0.52267022588E+02 -0.60627004293E+01  0.37326808662E+03  0.37695843601E+03  0.00000000000E+00 0. -1.
<scales pt_clust_5="13000.00000" pt_clust_6="13000.00000" pt_clust_7="13000.00000" pt_clust_8="13000.00000" pt_clust_9="25.96725" pt_clust_10="44.06762"></scales>
<clustering>
<clus scale="   25.967">  1  9  2 -1</clus>
<clus scale="   44.068">  2 10  1 -1</clus>
<clus scale="   80.099">  5  6 -1 -1</clus>
<clus scale="   93.005">  7  8 -1 -1</clus>
<clus scale="  116.641">  1  5  2 -1</clus>
<clus scale="   44.068">  2  5  1 -1</clus>
</clustering>
</event>
<event>
10    4  0.3738096E-005  0.2380582E+03  0.7546771E-02  0.1121446E+00
         21   -1    0    0  503  502  0.00000000000E+00  0.00000000000E+00  0.10737294619E+03  0.10737294619E+03  0.00000000000E+00 0.  1.
         -1   -1    0    0    0  501 -0.00000000000E+00 -0.00000000000E+00 -0.81310759849E+03  0.81310759849E+03  0.00000000000E+00 0.  1.
         24    2    1    2    0    0  0.96569943632E+02  0.19154271115E+03 -0.26556344700E+03  0.35081807716E+03  0.80839437600E+02 0.  0.
         23    2    1    2    0    0 -0.88387544546E+02 -0.21257288898E+03 -0.26195266462E+03  0.35936427275E+03  0.86740364665E+02 0.  0.
        -11    1    3    3    0    0  0.18676585088E+02  0.11964727478E+03 -0.16529681487E+03  0.20490808232E+03  0.00000000000E+00 0.  1.
         12    1    3    3    0    0  0.77893358544E+02  0.71895436371E+02 -0.10026663213E+03  0.14590999484E+03  0.00000000000E+00 0. -1.
        -11    1    4    4    0    0 -0.37057437136E+01 -0.58125652519E+02 -0.11909850341E+03  0.13257743975E+03  0.00000000000E+00 0. -1.
         11    1    4    4    0    0 -0.84681800832E+02 -0.15444723646E+03 -0.14285416122E+03  0.22678683299E+03  0.00000000000E+00 0.  1.
         21    1    1    2  503  501  0.22176325502E+02  0.25546327996E+02 -0.47803394480E+01  0.34165127427E+02  0.00000000000E+00 0. -1.
         -2    1    1    2    0  502 -0.30358724587E+02 -0.45161501674E+01 -0.17343820123E+03  0.17613306735E+03  0.00000000000E+00 0.  1.
<scales pt_clust_5="13000.00000" pt_clust_6="13000.00000" pt_clust_7="13000.00000" pt_clust_8="13000.00000" pt_clust_9="30.72345" pt_clust_10="30.69281"></scales>
<clustering>
<clus scale="   30.693">  1 10  2 -1</clus>
<clus scale="   30.723">  1  9  2 -1</clus>
<clus scale="   80.839">  5  6 -1 -1</clus>
<clus scale="   86.740">  7  8 -1 -1</clus>
<clus scale="  235.972">  2  5  1 -1</clus>
<clus scale="   30.693">  1  5  2 -1</clus>
</clustering>
</event>
<event>
10    4  0.3738096E-005  0.9806757E+02  0.7546771E-02  0.1291749E+00
          2   -1    0    0  503    0 -0.00000000000E+00  0.00000000000E+00  0.68915042101E+02  0.68915042101E+02  0.00000000000E+00 0. -1.
         21   -1    0    0  501  502  0.00000000000E+00 -0.00000000000E+00 -0.38168413688E+03  0.38168413688E+03  0.00000000000E+00 0.  1.
         24    2    1    2    0    0  0.28658813657E+02  0.41811325668E+02 -0.47497594573E+02  0.10435246582E+03  0.77871054180E+02 0.  0.
         23    2    1    2    0    0 -0.43964713950E+02  0.22633068739E+02 -0.11549848552E+03  0.15545417733E+03  0.91547524370E+02 0.  0.
        -13    1    3    3    0    0  0.19635088298E+02  0.57747986308E+02 -0.89136436540E+01  0.61642677248E+02  0.00000000000E+00 0.  1.
         14    1    3    3    0    0  0.90237253583E+01 -0.15936660640E+02 -0.38583950919E+02  0.42709788577E+02  0.00000000000E+00 0. -1.
        -11    1    4    4    0    0 -0.39394837984E+01  0.36576153946E+02 -0.10574609411E+03  0.11196236417E+03  0.00000000000E+00 0.  1.
         11    1    4    4    0    0 -0.40025230152E+02 -0.13943085207E+02 -0.97523914066E+01  0.43491813160E+02  0.00000000000E+00 0. -1.
         21    1    1    2  503  502 -0.29003507725E+02  0.72125331752E+01 -0.19621308079E+02  0.35752200294E+02  0.00000000000E+00 0. -1.
          1    1    1    2  501    0  0.44309408019E+02 -0.71656927582E+02 -0.13015170661E+03  0.15504033553E+03  0.00000000000E+00 0. -1.
<scales pt_clust_5="13000.00000" pt_clust_6="13000.00000" pt_clust_7="13000.00000" pt_clust_8="13000.00000" pt_clust_9="29.88685" pt_clust_10="79.98977"></scales>
<clustering>
<clus scale="   29.887">  1  9  2 -1</clus>
<clus scale="   77.871">  5  6 -1 -1</clus>
<clus scale="   79.990">  2 10  1 -1</clus>
<clus scale="   85.441">  1  5  2 -1</clus>
<clus scale="   91.548">  7  8 -1 -1</clus>
<clus scale="   79.990">  2  5  1 -1</clus>
</clustering>
</event>
<event>
10    4  0.3738096E-005  0.2273698E+03  0.7546771E-02  0.1159890E+00
          2   -1    0    0  503    0 -0.00000000000E+00  0.00000000000E+00  0.14269061883E+04  0.14269061883E+04  0.00000000000E+00 0. -1.
         21   -1    0    0  501  502  0.00000000000E+00 -0.00000000000E+00 -0.88718656230E+02  0.88718656230E+02  0.00000000000E+00 0. -1.
         23    2    1    2    0    0  0.29231623887E+02  0.47924216166E+02  0.91761256698E+02  0.14135112807E+03  0.91699481162E+02 0.  0.
         24    2    1    2    0    0  0.21764173580E+03 -0.65995203536E+02  0.93321051006E+03  0.96359092777E+03  0.76826609622E+02 0.  0.
        -11    1    4    4    0    0  0.51650409663E+02  0.16957316356E+02  0.22478019502E+03  0.23126057051E+03  0.00000000000E+00 0.  1.
         12    1    4    4    0    0  0.16599132614E+03 -0.82952519893E+02  0.70843031503E+03  0.73233035726E+03  0.00000000000E+00 0. -1.
        -11    1    3    3    0    0  0.43792606808E+01  0.64127966388E+02  0.26242083498E+02  0.69427811023E+02  0.00000000000E+00 0.  1.
         11    1    3    3    0    0  0.24852363206E+02 -0.16203750221E+02  0.65519173200E+02  0.71923317046E+02  0.00000000000E+00 0. -1.
         21    1    1    2  503  502 -0.34743943047E+02  0.12904823424E+02  0.11307693840E+03  0.11899609256E+03  0.00000000000E+00 0. -1.
          1    1    1    2  501    0 -0.21212941664E+03  0.51661639460E+01  0.20013882687E+03  0.29168669609E+03  0.00000000000E+00 0. -1.
<scales pt_clust_5="13000.00000" pt_clust_6="13000.00000" pt_clust_7="13000.00000" pt_clust_8="13000.00000" pt_clust_9="37.06314" pt_clust_10="213.99693"></scales>
<clustering>
<clus scale="   37.063">  1  9  2 -1</clus>
<clus scale="   76.827">  5  6 -1 -1</clus>
<clus scale="   91.699">  7  8 -1 -1</clus>
<clus scale="  107.239">  1  7  2 -1</clus>
<clus scale="  213.997">  2 10  1 -1</clus>
<clus scale="  213.997">  2  5  1 -1</clus>
</clustering>
</event>
<event>
10    4  0.3738096E-005  0.2767098E+03  0.7546771E-02  0.1118065E+00
          2   -1    0    0  503    0 -0.00000000000E+00  0.00000000000E+00  0.80872709551E+03  0.80872709551E+03  0.00000000000E+00 0. -1.
         21   -1    0    0  501  502  0.00000000000E+00 -0.00000000000E+00 -0.20838993102E+03  0.20838993102E+03  0.00000000000E+00 0. -1.
         24    2    1    2    0    0 -0.83852427630E+02  0.11018041990E+03  0.73078610955E+02  0.17641838417E+03  0.81314256722E+02 0.  0.
         23    2    1    2    0    0  0.25364024364E+03 -0.21057826518E+03  0.22938412154E+03  0.41262554649E+03  0.94689954245E+02 0.  0.
        -13    1    3    3    0    0 -0.63031821345E+02  0.42684770365E+02  0.19111157352E+01  0.76148883685E+02  0.00000000000E+00 0.  1.
         14    1    3    3    0    0 -0.20820606286E+02  0.67495649533E+02  0.71167495219E+02  0.10026950049E+03  0.00000000000E+00 0. -1.
        -11    1    4    4    0    0  0.20967945525E+02 -0.37583904664E+02  0.18602631844E+00  0.43037649043E+02  0.00000000000E+00 0. -1.
         11    1    4    4    0    0  0.23267229812E+03 -0.17299436052E+03  0.22919809522E+03  0.36958789744E+03  0.00000000000E+00 0.  1.
         21    1    1    2  503  502  0.49914971644E+02  0.56758803227E+02  0.12098471411E+03  0.14265471316E+03  0.00000000000E+00 0. -1.
          1    1    1    2  501    0 -0.21970278765E+03  0.43639042058E+02  0.17688971789E+03  0.28541838271E+03  0.00000000000E+00 0. -1.
<scales pt_clust_5="13000.00000" pt_clust_6="13000.00000" pt_clust_7="13000.00000" pt_clust_8="13000.00000" pt_clust_9="75.58483" pt_clust_10="260.00413"></scales>
<clustering>
<clus scale="   75.585">  1  9  2 -1</clus>
<clus scale="   81.314">  5  6 -1 -1</clus>
<clus scale="   94.690">  7  8 -1 -1</clus>
<clus scale="  163.522">  1  5  2 -1</clus>
<clus scale="  260.004">  2 10  1 -1</clus>
<clus scale="  260.004">  2  5  1 -1</clus>
</clustering>
</event>
<event>
10    4  0.3738096E-005  0.1343955E+03  0.7546771E-02  0.1223334E+00
         -1   -1    0    0    0  501 -0.00000000000E+00  0.00000000000E+00  0.17884254734E+03  0.17884254734E+03  0.00000000000E+00 0.  1.
         21   -1    0    0  503  502  0.00000000000E+00 -0.00000000000E+00 -0.23506661341E+03  0.23506661341E+03  0.00000000000E+00 0.  1.
         23    2    1    2    0    0 -0.90041189961E+02  0.41108354315E+02  0.76546185554E+02  0.15433813227E+03  0.90352796664E+02 0.  0.
         24    2    1    2    0    0  0.69911840672E+02  0.64044489544E+01 -0.85697510588E+02  0.13714239261E+03  0.80841141118E+02 0.  0.
        -13    1    4    4    0    0  0.24399134096E+02 -0.23714090200E+02 -0.73827283257E+02  0.81290488815E+02  0.00000000000E+00 0.  1.
         14    1    4    4    0    0  0.45512706576E+02  0.30118539154E+02 -0.11870227330E+02  0.55851903795E+02  0.00000000000E+00 0. -1.
        -11    1    3    3    0    0 -0.60976244068E+02  0.63616678053E+02  0.77807657954E+02  0.11755516026E+03  0.00000000000E+00 0.  1.
         11    1    3    3    0    0 -0.29064945894E+02 -0.22508323738E+02 -0.12614724000E+01  0.36782972010E+02  0.00000000000E+00 0. -1.
         21    1    1    2  503  501 -0.31598205872E+02  0.83135260578E+01  0.49798513525E+00  0.32677351776E+02  0.00000000000E+00 0.  1.
         -2    1    1    2    0  502  0.51727555162E+02 -0.55826329328E+02 -0.47570726162E+02  0.89751284096E+02  0.00000000000E+00 0.  1.
<scales pt_clust_5="13000.00000" pt_clust_6="13000.00000" pt_clust_7="13000.00000" pt_clust_8="13000.00000" pt_clust_9="32.67356" pt_clust_10="72.55888"></scales>
<clustering>
<clus scale="   32.674">  1  9  2 -1</clus>
<clus scale="   72.559">  2 10  1 -1</clus>
<clus scale="   80.841">  5  6 -1 -1</clus>
<clus scale="   90.353">  7  8 -1 -1</clus>
<clus scale="  128.194">  2  5  1 -1</clus>
<clus scale="   72.559">  2  5  1 -1</clus>
</clustering>
</event>
<event>
10    4  0.3738096E-005  0.1158419E+03  0.7546771E-02  0.1254074E+00
         21   -1    0    0  503  502  0.00000000000E+00  0.00000000000E+00  0.33394847059E+03  0.33394847059E+03  0.00000000000E+00 0.  1.
         -1   -1    0    0    0  501 -0.00000000000E+00 -0.00000000000E+00 -0.10984220600E+03  0.10984220600E+03  0.00000000000E+00 0.  1.
         23    2    1    2    0    0 -0.47949239056E+02  0.89369842041E+02  0.14874793891E+02  0.13727069894E+03  0.91301079412E+02 0.  0.
         24    2    1    2    0    0  0.12271705851E+02 -0.41178537191E+02  0.69156314167E+02  0.11405723775E+03  0.79876097833E+02 0.  0.
        -13    1    4    4    0    0  0.20388137011E+02 -0.10256034608E+02  0.77685989187E+02  0.80968977347E+02  0.00000000000E+00 0.  1.
         14    1    4    4    0    0 -0.81164311595E+01 -0.30922502584E+02 -0.85296750199E+01  0.33088260407E+02  0.00000000000E+00 0. -1.
        -11    1    3    3    0    0 -0.20144377986E+02  0.10244113295E+03  0.33515243646E+01  0.10445675852E+03  0.00000000000E+00 0.  1.
         11    1    3    3    0    0 -0.27804861070E+02 -0.13071290913E+02  0.11523269526E+02  0.32813940419E+02  0.00000000000E+00 0. -1.
         21    1    1    2  503  501  0.18848163160E+02 -0.11439496976E+02 -0.18521980880E+02  0.28795470500E+02  0.00000000000E+00 0.  1.
         -2    1    1    2    0  502  0.16829370045E+02 -0.36751807874E+02  0.15859713741E+03  0.16366726940E+03  0.00000000000E+00 0.  1.
<scales pt_clust_5="13000.00000" pt_clust_6="13000.00000" pt_clust_7="13000.00000" pt_clust_8="13000.00000" pt_clust_9="22.04802" pt_clust_10="40.96020"></scales>
<clustering>
<clus scale="   22.048">  2  9  1 -1</clus>
<clus scale="   40.960">  1 10  2 -1</clus>
<clus scale="   79.876">  5  6 -1 -1</clus>
<clus scale="   91.301">  7  8 -1 -1</clus>
<clus scale="  107.068">  1  5  2 -1</clus>
<clus scale="   40.960">  1  5  2 -1</clus>
</clustering>
</event>
<event>
10    4  0.3738096E-005  0.1036445E+03  0.7546771E-02  0.1277277E+00
         21   -1    0    0  501  502  0.00000000000E+00  0.00000000000E+00  0.66778036538E+02  0.66778036538E+02  0.00000000000E+00 0.  1.
          2   -1    0    0  503    0 -0.00000000000E+00 -0.00000000000E+00 -0.49268038064E+03  0.49268038064E+03  0.00000000000E+00 0. -1.
         24    2    1    2    0    0  0.12812733500E+02  0.13801778035E+02 -0.18175422891E+03  0.19912843817E+03  0.79138359494E+02 0.  0.
         23    2    1    2    0    0 -0.78987423475E+02 -0.76607331064E+01 -0.37731538795E+02  0.12520013496E+03  0.89183545988E+02 0.  0.
        -13    1    3    3    0    0 -0.27012449425E+02  0.21477836772E+02 -0.12289496452E+03  0.12764851038E+03  0.00000000000E+00 0.  1.
         14    1    3    3    0    0  0.39825182925E+02 -0.76760587370E+01 -0.58859264391E+02  0.71479927794E+02  0.00000000000E+00 0. -1.
        -11    1    4    4    0    0 -0.51511486826E+02  0.11679264269E+02  0.21560164952E+02  0.57049795807E+02  0.00000000000E+00 0.  1.
         11    1    4    4    0    0 -0.27475936650E+02 -0.19339997376E+02 -0.59291703747E+02  0.68150339152E+02  0.00000000000E+00 0. -1.
         21    1    1    2  503  502  0.50282273446E+02  0.39555661028E+02 -0.10987285505E+03  0.12714165965E+03  0.00000000000E+00 0. -1.
          1    1    1    2  501    0  0.15892416529E+02 -0.45696705957E+02 -0.96543721340E+02  0.10798818439E+03  0.00000000000E+00 0. -1.
<scales pt_clust_5="13000.00000" pt_clust_6="13000.00000" pt_clust_7="13000.00000" pt_clust_8="13000.00000" pt_clust_9="62.08496" pt_clust_10="48.38140"></scales>
<clustering>
<clus scale="   48.381">  1 10  2 -1</clus>
<clus scale="   62.085">  2  9  1 -1</clus>
<clus scale="   79.138">  5  6 -1 -1</clus>
<clus scale="   89.184">  7  8 -1 -1</clus>
<clus scale="   95.139">  2  5  1 -1</clus>
<clus scale="   48.381">  1  5  2 -1</clus>
</clustering>
</event>
<event>
10    4  0.3738096E-005  0.1556914E+03  0.7546771E-02  0.1195569E+00
          2   -1    0    0  503    0 -0.00000000000E+00  0.00000000000E+00  0.10298630104E+04  0.10298630104E+04  0.00000000000E+00 0. -1.
         21   -1    0    0  501  502  0.00000000000E+00 -0.00000000000E+00 -0.49760162722E+02  0.49760162722E+02  0.00000000000E+00 0. -1.
         24    2    1    2    0    0 -0.48693329861E+02  0.13939803120E+03  0.43995269264E+03  0.47101125399E+03  0.80562883175E+02 0.  0.
         23    2    1    2    0    0  0.36855656106E+02 -0.11505867498E+03  0.17090405434E+03  0.22858733624E+03  0.91908304440E+02 0.  0.
        -13    1    3    3    0    0 -0.61260871221E+02  0.77666771586E+02  0.32752160335E+03  0.34213363239E+03  0.00000000000E+00 0.  1.
         14    1    3    3    0    0  0.12567541360E+02  0.61731259618E+02  0.11243108929E+03  0.12887762160E+03  0.00000000000E+00 0. -1.
        -13    1    4    4    0    0  0.46585166903E+02 -0.12010249879E+02  0.49022359356E+02  0.68684900775E+02  0.00000000000E+00 0.  1.
         13    1    4    4    0    0 -0.97295107978E+01 -0.10304842510E+03  0.12188169498E+03  0.15990243547E+03  0.00000000000E+00 0. -1.
         21    1    1    2  503  502 -0.12421217287E+02 -0.51725530245E+02  0.21059185569E+03  0.21720669143E+03  0.00000000000E+00 0. -1.
          1    1    1    2  501    0  0.24258891043E+02  0.27386174021E+02  0.15865424502E+03  0.16281789148E+03  0.00000000000E+00 0. -1.
<scales pt_clust_5="13000.00000" pt_clust_6="13000.00000" pt_clust_7="13000.00000" pt_clust_8="13000.00000" pt_clust_9="50.96980" pt_clust_10="36.58548"></scales>
<clustering>
<clus scale="   36.585">  2 10  1 -1</clus>
<clus scale="   50.970">  1  9  2 -1</clus>
<clus scale="   80.563">  5  6 -1 -1</clus>
<clus scale="   91.908">  7  8 -1 -1</clus>
<clus scale="  149.275">  1  5  2 -1</clus>
<clus scale="   36.585">  2  5  1 -1</clus>
</clustering>
</event>
<event>
10    4  0.3738096E-005  0.2772039E+03  0.7546771E-02  0.1097226E+00
         21   -1    0    0  501  502  0.00000000000E+00  0.00000000000E+00  0.12567557149E+03  0.12567557149E+03  0.00000000000E+00 0.  1.
          2   -1    0    0  503    0 -0.00000000000E+00 -0.00000000000E+00 -0.60149041400E+03  0.60149041400E+03  0.00000000000E+00 0. -1.
         24    2    1    2    0    0  0.11702652930E+03 -0.11560525025E+03 -0.14702108794E+03  0.23380766858E+03  0.77401829060E+02 0.  0.
         23    2    1    2    0    0  0.53232477884E+02 -0.56167884028E+01 -0.56531257898E+02  0.11933942428E+03  0.90448162250E+02 0.  0.
        -13    1    3    3    0    0  0.10994404645E+03 -0.63496746745E+02 -0.11993764237E+03  0.17465557035E+03  0.00000000000E+00 0.  1.
         14    1    3    3    0    0  0.70824828481E+01 -0.52108503507E+02 -0.27083445574E+02  0.59152098231E+02  0.00000000000E+00 0. -1.
        -11    1    4    4    0    0  0.42521820122E+02  0.37787717203E+02 -0.16247107392E+02  0.59160673225E+02  0.00000000000E+00 0.  1.
         11    1    4    4    0    0  0.10710657762E+02 -0.43404505606E+02 -0.40284150506E+02  0.60178751055E+02  0.00000000000E+00 0. -1.
         21    1    1    2  503  502 -0.24354589911E+02  0.10246368692E+02 -0.15313574203E+03  0.15539848651E+03  0.00000000000E+00 0. -1.
          1    1    1    2  501    0 -0.14590441727E+03  0.11097566996E+03 -0.11912675464E+03  0.21862040612E+03  0.00000000000E+00 0. -1.
<scales pt_clust_5="13000.00000" pt_clust_6="13000.00000" pt_clust_7="13000.00000" pt_clust_8="13000.00000" pt_clust_9="26.42223" pt_clust_10="192.99114"></scales>
<clustering>
<clus scale="   26.422">  2  9  1 -1</clus>
<clus scale="   77.402">  5  6 -1 -1</clus>
<clus scale="   90.448">  7  8 -1 -1</clus>
<clus scale="   98.712">  5  7 -1 -1</clus>
<clus scale="  192.991">  1 10  2 -1</clus>
<clus scale="  192.991">  1  5  2 -1</clus>
</clustering>
</event>
<event>
10    4  0.3738096E-005  0.1138511E+03  0.7546771E-02  0.1266128E+00
          2   -1    0    0  503    0 -0.00000000000E+00  0.00000000000E+00  0.94954174417E+03  0.94954174417E+03  0.00000000000E+00 0. -1.
         21   -1    0    0  501  502  0.00000000000E+00 -0.00000000000E+00 -0.36257060251E+02  0.36257060251E+02  0.00000000000E+00 0. -1.
         24    2    1    2    0    0 -0.38873864069E+02 -0.44948497091E+02  0.61305635912E+03  0.62131021913E+03  0.81588873296E+02 0.  0.
         23    2    1    2    0    0 -0.10073037163E+02  0.14024987730E+02  0.19329840736E+03  0.22217287401E+03  0.10815888914E+03 0.  0.
        -11    1    3    3    0    0  0.83403075390E+01 -0.27819388666E+02  0.67969949864E+02  0.73914769837E+02  0.00000000000E+00 0.  1.
         12    1    3    3    0    0 -0.47214171608E+02 -0.17129108424E+02  0.54508640926E+03  0.54739544930E+03  0.00000000000E+00 0. -1.
        -13    1    4    4    0    0 -0.21247187587E+02 -0.31524316065E+02  0.16050374107E+03  0.16494446453E+03  0.00000000000E+00 0. -1.
         13    1    4    4    0    0  0.11174150424E+02  0.45549303796E+02  0.32794666295E+02  0.57228409478E+02  0.00000000000E+00 0.  1.
         21    1    1    2  503  502  0.19104584688E+02  0.14015713700E+02  0.10534828727E+03  0.10798003064E+03  0.00000000000E+00 0.  1.
          1    1    1    2  501    0  0.29842316545E+02  0.16907795660E+02  0.15816301720E+01  0.34335680638E+02  0.00000000000E+00 0. -1.
<scales pt_clust_5="13000.00000" pt_clust_6="13000.00000" pt_clust_7="13000.00000" pt_clust_8="13000.00000" pt_clust_9="23.69442" pt_clust_10="34.80065"></scales>
<clustering>
<clus scale="   23.694">  1  9  2 -1</clus>
<clus scale="   34.801">  2 10  1 -1</clus>
<clus scale="   81.589">  5  6 -1 -1</clus>
<clus scale="   88.997">  1  5  2 -1</clus>
<clus scale="  108.159">  7  8 -1 -1</clus>
<clus scale="   34.801">  2  5  1 -1</clus>
</clustering>
</event>
<event>
10    4  0.3738096E-005  0.1505818E+03  0.7546771E-02  0.1211335E+00
          2   -1    0    0  503    0 -0.00000000000E+00  0.00000000000E+00  0.53907622797E+03  0.53907622797E+03  0.00000000000E+00 0. -1.
         21   -1    0    0  501  502  0.00000000000E+00 -0.00000000000E+00 -0.11407953191E+03  0.11407953191E+03  0.00000000000E+00 0. -1.
         24    2    1    2    0    0  0.38750133131E+02  0.52802866721E+02  0.13496905771E+03  0.17048429176E+03  0.80984761821E+02 0.  0.
         23    2    1    2    0    0  0.85616078371E+02  0.31704529519E+01  0.72018051418E+02  0.14446767988E+03  0.91346297970E+02 0.  0.
        -11    1    3    3    0    0 -0.22008414923E+02  0.63546037675E+01  0.56229095172E+02  0.60716245440E+02  0.00000000000E+00 0.  1.
         12    1    3    3    0    0  0.60758548054E+02  0.46448262954E+02  0.78739962540E+02  0.10976804632E+03  0.00000000000E+00 0. -1.
        -13    1    4    4    0    0  0.66336546104E+02 -0.15096710004E+02  0.89684953359E+02  0.11256926251E+03  0.00000000000E+00 0.  1.
         13    1    4    4    0    0  0.19279532268E+02  0.18267162956E+02 -0.17666901941E+02  0.31898417377E+02  0.00000000000E+00 0. -1.
         21    1    1    2  503  502  0.17756806964E+02  0.50327128884E+02  0.12910922357E+03  0.13970438686E+03  0.00000000000E+00 0. -1.
          1    1    1    2  501    0 -0.14212301847E+03 -0.10630044856E+03  0.88900363365E+02  0.19849940138E+03  0.00000000000E+00 0. -1.
<scales pt_clust_5="13000.00000" pt_clust_6="13000.00000" pt_clust_7="13000.00000" pt_clust_8="13000.00000" pt_clust_9="53.36782" pt_clust_10="119.71115"></scales>
<clustering>
<clus scale="   53.368">  1  9  2 -1</clus>
<clus scale="   80.985">  5  6 -1 -1</clus>
<clus scale="   91.346">  7  8 -1 -1</clus>
<clus scale="  117.385">  1  5  2 -1</clus>
<clus scale="  119.711">  2 10  1 -1</clus>
<clus scale="  119.711">  2  5  1 -1</clus>
</clustering>
</event>
<event>
10    4  0.3738096E-005  0.1797060E+03  0.7546771E-02  0.1184402E+00
          2   -1    0    0  503    0 -0.00000000000E+00  0.00000000000E+00  0.66295624597E+03  0.66295624597E+03  0.00000000000E+00 0. -1.
         21   -1    0    0  501  502  0.00000000000E+00 -0.00000000000E+00 -0.17964119883E+03  0.17964119883E+03  0.00000000000E+00 0.  1.
         24    2    1    2    0    0 -0.77039826998E+02 -0.11312074498E+03  0.21943668393E+03  0.26798774057E+03  0.70239112712E+02 0.  0.
         23    2    1    2    0    0 -0.68567281596E+02 -0.24525665227E+02 -0.94362268047E+02  0.15210612763E+03  0.94493682707E+02 0.  0.
        -11    1    3    3    0    0 -0.39719619436E+02 -0.30122218678E+02  0.30933806929E+02  0.58667679666E+02  0.00000000000E+00 0.  1.
         12    1    3    3    0    0 -0.37320207562E+02 -0.82998526301E+02  0.18850287700E+03  0.20932006090E+03  0.00000000000E+00 0. -1.
        -13    1    4    4    0    0 -0.61623587267E+02 -0.56276822041E+02 -0.82932223770E+02  0.11765330827E+03  0.00000000000E+00 0.  1.
         13    1    4    4    0    0 -0.69436943289E+01  0.31751156814E+02 -0.11430044277E+02  0.34452819364E+02  0.00000000000E+00 0. -1.
         21    1    1    2  503  502  0.16077266014E+03  0.12452323792E+03  0.33406231384E+03  0.39109016167E+03  0.00000000000E+00 0. -1.
          1    1    1    2  501    0 -0.15165551543E+02  0.13123172283E+02  0.24178317420E+02  0.31413414931E+02  0.00000000000E+00 0. -1.
<scales pt_clust_5="13000.00000" pt_clust_6="13000.00000" pt_clust_7="13000.00000" pt_clust_8="13000.00000" pt_clust_9="165.41072" pt_clust_10="20.05522"></scales>
<clustering>
<clus scale="   20.055">  2 10  1 -1</clus>
<clus scale="   70.239">  5  6 -1 -1</clus>
<clus scale="   94.494">  7  8 -1 -1</clus>
<clus scale="  124.236">  2  7  1 -1</clus>
<clus scale="  165.411">  2  9  1 -1</clus>
<clus scale="   20.055">  2  5  1 -1</clus>
</clustering>
</event>
<event>
10    4  0.3738096E-005  0.1545678E+03  0.7546771E-02  0.1196358E+00
         21   -1    0    0  501  502  0.00000000000E+00  0.00000000000E+00  0.52044128276E+03  0.52044128276E+03  0.00000000000E+00 0.  1.
          2   -1    0    0  503    0 -0.00000000000E+00 -0.00000000000E+00 -0.15987810130E+03  0.15987810130E+03  0.00000000000E+00 0. -1.
         23    2    1    2    0    0  0.67720844956E+02 -0.54541614344E+02 -0.19068107539E+02  0.12667331076E+03  0.90120110950E+02 0.  0.
         24    2    1    2    0    0 -0.97298502879E+02  0.11847533398E+03  0.20231580119E+03  0.26673708503E+03  0.81936473516E+02 0.  0.
        -13    1    4    4    0    0 -0.74300163171E+02  0.83257090164E+02  0.19408376655E+03  0.22387667531E+03  0.00000000000E+00 0.  1.
         14    1    4    4    0    0 -0.22998339708E+02  0.35218243814E+02  0.82320346431E+01  0.42860409716E+02  0.00000000000E+00 0. -1.
        -11    1    3    3    0    0  0.47082522780E+02 -0.24684665566E+02 -0.54370393403E+02  0.76041017512E+02  0.00000000000E+00 0. -1.
         11    1    3    3    0    0  0.20638322176E+02 -0.29856948779E+02  0.35302285864E+02  0.50632293251E+02  0.00000000000E+00 0.  1.
         21    1    1    2  503  502  0.45610820375E+02 -0.23811971964E+02 -0.40105450402E+02  0.65236524249E+02  0.00000000000E+00 0. -1.
          1    1    1    2  501    0 -0.16033162452E+02 -0.40121747669E+02  0.21742093821E+03  0.22167246402E+03  0.00000000000E+00 0. -1.
<scales pt_clust_5="13000.00000" pt_clust_6="13000.00000" pt_clust_7="13000.00000" pt_clust_8="13000.00000" pt_clust_9="51.66555" pt_clust_10="43.20668"></scales>
<clustering>
<clus scale="   43.207">  1 10  2 -1</clus>
<clus scale="   51.666">  2  9  1 -1</clus>
<clus scale="   81.936">  5  6 -1 -1</clus>
<clus scale="   90.120">  7  8 -1 -1</clus>
<clus scale="  149.944">  1  5  2 -1</clus>
<clus scale="   43.207">  1  5  2 -1</clus>
</clustering>
</event>
<event>
10    4  0.3738096E-005  0.1259636E+03  0.7546771E-02  0.1235899E+00
          2   -1    0    0  503    0 -0.00000000000E+00  0.00000000000E+00  0.64682998102E+03  0.64682998102E+03  0.00000000000E+00 0. -1.
         21   -1    0    0  501  502  0.00000000000E+00 -0.00000000000E+00 -0.20366246019E+03  0.20366246019E+03  0.00000000000E+00 0. -1.
         24    2    1    2    0    0 -0.87917716670E+02  0.11990410202E+02  0.39394962558E+03  0.41191286059E+03  0.81256399023E+02 0.  0.
         23    2    1    2    0    0  0.52062284669E+02  0.94969770604E+02  0.10019205944E+03  0.17266876579E+03  0.89701254677E+02 0.  0.
        -11    1    3    3    0    0 -0.59676558407E+02 -0.21221185236E+02  0.13257846059E+03  0.14693086312E+03  0.00000000000E+00 0.  1.
         12    1    3    3    0    0 -0.28241158263E+02  0.33211595438E+02  0.26137116499E+03  0.26498199747E+03  0.00000000000E+00 0. -1.
        -11    1    4    4    0    0  0.73426439046E+02  0.68581144636E+02  0.95087367639E+02  0.13833446004E+03  0.00000000000E+00 0.  1.
         11    1    4    4    0    0 -0.21364154376E+02  0.26388625968E+02  0.51046917997E+01  0.34334305746E+02  0.00000000000E+00 0. -1.
         21    1    1    2  503  502 -0.79763646542E+01 -0.34709802068E+02  0.92655802734E+02  0.99264749700E+02  0.00000000000E+00 0. -1.
          1    1    1    2  501    0  0.43831796655E+02 -0.72250378738E+02 -0.14362996692E+03  0.16664606513E+03  0.00000000000E+00 0. -1.
<scales pt_clust_5="13000.00000" pt_clust_6="13000.00000" pt_clust_7="13000.00000" pt_clust_8="13000.00000" pt_clust_9="35.61450" pt_clust_10="85.04157"></scales>
<clustering>
<clus scale="   35.615">  1  9  2 -1</clus>
<clus scale="   81.256">  5  6 -1 -1</clus>
<clus scale="   85.042">  2 10  1 -1</clus>
<clus scale="   89.701">  7  8 -1 -1</clus>
<clus scale="  120.096">  1  5  2 -1</clus>
<clus scale="   85.042">  2  5  1 -1</clus>
</clustering>
</event>
<event>
10    4  0.3738096E-005  0.9986538E+02  0.7546771E-02  0.1291597E+00
         21   -1    0    0  501  502  0.00000000000E+00  0.00000000000E+00  0.10643987006E+03  0.10643987006E+03  0.00000000000E+00 0. -1.
          2   -1    0    0  503    0 -0.00000000000E+00 -0.00000000000E+00 -0.44315858027E+03  0.44315858027E+03  0.00000000000E+00 0. -1.
         23    2    1    2    0    0  0.45935857639E+02 -0.22911684380E+01 -0.27109143081E+03  0.29226421333E+03  0.99057831922E+02 0.  0.
         24    2    1    2    0    0 -0.14842784439E+02 -0.34705387037E+02  0.57354113993E+02  0.10553308678E+03  0.80143408181E+02 0.  0.
        -13    1    4    4    0    0 -0.13884301591E+02 -0.29042044272E+02 -0.13166540268E+02  0.34778900914E+02  0.00000000000E+00 0.  1.
         14    1    4    4    0    0 -0.95848284728E+00 -0.56633427654E+01  0.70520654261E+02  0.70754185870E+02  0.00000000000E+00 0. -1.
        -11    1    3    3    0    0  0.51252912838E+01 -0.37565035914E+02 -0.19700879957E+03  0.20062369661E+03  0.00000000000E+00 0. -1.
         11    1    3    3    0    0  0.40810566355E+02  0.35273867476E+02 -0.74082631235E+02  0.91640516714E+02  0.00000000000E+00 0.  1.
         21    1    1    2  503  502 -0.41982743067E+02 -0.21695483816E-01 -0.95819363153E+02  0.10461310406E+03  0.00000000000E+00 0. -1.
          1    1    1    2  501    0  0.10889669867E+02  0.37018250959E+02 -0.27162030235E+02  0.47188046159E+02  0.00000000000E+00 0. -1.
<scales pt_clust_5="13000.00000" pt_clust_6="13000.00000" pt_clust_7="13000.00000" pt_clust_8="13000.00000" pt_clust_9="41.51964" pt_clust_10="38.58673"></scales>
<clustering>
<clus scale="   38.587">  1 10  2 -1</clus>
<clus scale="   41.520">  2  9  1 -1</clus>
<clus scale="   80.143">  5  6 -1 -1</clus>
<clus scale="   81.139">  1  5  2 -1</clus>
<clus scale="   99.058">  7  8 -1 -1</clus>
<clus scale="   38.587">  1  5  2 -1</clus>
</clustering>
</event>
<event>
10    4  0.3738096E-005  0.1633561E+03  0.7546771E-02  0.1213060E+00
          2   -1    0    0  503    0 -0.00000000000E+00  0.00000000000E+00  0.67765991435E+03  0.67765991435E+03  0.00000000000E+00 0. -1.
         21   -1    0    0  501  502  0.00000000000E+00 -0.00000000000E+00 -0.11939181562E+03  0.11939181562E+03  0.00000000000E+00 0. -1.
         24    2    1    2    0    0 -0.29873929161E+01 -0.34650626689E+02  0.25167745130E+03  0.26682784799E+03  0.81522822092E+02 0.  0.
         23    2    1    2    0    0 -0.71081403941E+02  0.97134555523E+02  0.22990974510E+03  0.27449684867E+03  0.89455805710E+02 0.  0.
        -11    1    3    3    0    0  0.36248816512E+02 -0.29203181988E+02  0.10423080609E+03  0.11415280757E+03  0.00000000000E+00 0.  1.
         12    1    3    3    0    0 -0.39236209428E+02 -0.54474447010E+01  0.14744664521E+03  0.15267504042E+03  0.00000000000E+00 0. -1.
        -11    1    4    4    0    0 -0.20755650541E+02  0.77087624606E+02  0.71823895802E+02  0.10738701460E+03  0.00000000000E+00 0. -1.
         11    1    4    4    0    0 -0.50325753400E+02  0.20046930917E+02  0.15808584929E+03  0.16710983407E+03  0.00000000000E+00 0.  1.
         21    1    1    2  503  502  0.44779360934E+02  0.79075614285E+02  0.62887995686E+02  0.11051264155E+03  0.00000000000E+00 0. -1.
          1    1    1    2  501    0  0.29289435923E+02 -0.14155954312E+03  0.13792906647E+02  0.14521439178E+03  0.00000000000E+00 0. -1.
<scales pt_clust_5="13000.00000" pt_clust_6="13000.00000" pt_clust_7="13000.00000" pt_clust_8="13000.00000" pt_clust_9="84.37473" pt_clust_10="136.68525"></scales>
<clustering>
<clus scale="   81.523">  5  6 -1 -1</clus>
<clus scale="   88.632">  1  5  2 -1</clus>
<clus scale="   84.375">  1  9  2 -1</clus>
<clus scale="   89.456">  7  8 -1 -1</clus>
<clus scale="  136.685">  2 10  1 -1</clus>
<clus scale="  136.685">  2  5  1 -1</clus>
</clustering>
</event>
<event>
10    4  0.3738096E-005  0.2607378E+03  0.7546771E-02  0.1131058E+00
          2   -1    0    0  503    0 -0.00000000000E+00  0.00000000000E+00  0.19014636761E+04  0.19014636761E+04  0.00000000000E+00 0. -1.
         21   -1    0    0  501  502  0.00000000000E+00 -0.00000000000E+00 -0.17273426456E+03  0.17273426456E+03  0.00000000000E+00 0. -1.
         23    2    1    2    0    0 -0.95983860283E+02 -0.46718852447E+02 -0.36382182392E+02  0.14620268222E+03  0.93037672385E+02 0.  0.
         24    2    1    2    0    0  0.21780491350E+03 -0.17166748935E+03  0.69201812781E+03  0.75006732248E+03  0.82481463270E+02 0.  0.
        -11    1    4    4    0    0  0.22089297652E+02 -0.59358073733E+02  0.16728323804E+03  0.17887146144E+03  0.00000000000E+00 0.  1.
         12    1    4    4    0    0  0.19571561585E+03 -0.11230941561E+03  0.52473488977E+03  0.57119586104E+03  0.00000000000E+00 0. -1.
        -11    1    3    3    0    0  0.90163465703E+01 -0.27334934701E+02 -0.26237519138E+02  0.38947407759E+02  0.00000000000E+00 0. -1.
         11    1    3    3    0    0 -0.10500020685E+03 -0.19383917746E+02 -0.10144663254E+02  0.10725527446E+03  0.00000000000E+00 0.  1.
         21    1    1    2  503  502 -0.15539351919E+03 -0.64353251479E+02  0.62327399923E+03  0.64556871431E+03  0.00000000000E+00 0. -1.
          1    1    1    2  501    0  0.33572465971E+02  0.28273959327E+03  0.44981946689E+03  0.53235922164E+03  0.00000000000E+00 0. -1.
<scales pt_clust_5="13000.00000" pt_clust_6="13000.00000" pt_clust_7="13000.00000" pt_clust_8="13000.00000" pt_clust_9="204.81313" pt_clust_10="247.34795"></scales>
<clustering>
<clus scale="   82.481">  5  6 -1 -1</clus>
<clus scale="   93.038">  7  8 -1 -1</clus>
<clus scale="  141.604">  1  7  2 -1</clus>
<clus scale="  204.813">  1  9  2 -1</clus>
<clus scale="  247.348">  2 10  1 -1</clus>
<clus scale="  247.348">  2  5  1 -1</clus>
</clustering>
</event>
<event>
10    4  0.3738096E-005  0.1484837E+03  0.7546771E-02  0.1204803E+00
         21   -1    0    0  501  502  0.00000000000E+00  0.00000000000E+00  0.40282341358E+02  0.40282341358E+02  0.00000000000E+00 0. -1.
          2   -1    0    0  503    0 -0.00000000000E+00 -0.00000000000E+00 -0.14685612838E+04  0.14685612838E+04  0.00000000000E+00 0. -1.
         24    2    1    2    0    0 -0.58252420924E+02 -0.85128977729E+02 -0.52178227637E+03  0.53798667637E+03  0.80824703080E+02 0.  0.
         23    2    1    2    0    0  0.89070958290E+02 -0.36464711361E+02 -0.28703206593E+03  0.32002401804E+03  0.10375285281E+03 0.  0.
        -11    1    3    3    0    0 -0.19330056302E+02 -0.84879281470E+02 -0.28408392333E+03  0.29712256561E+03  0.00000000000E+00 0.  1.
         12    1    3    3    0    0 -0.38922364622E+02 -0.24969625860E+00 -0.23769835304E+03  0.24086411076E+03  0.00000000000E+00 0. -1.
        -11    1    4    4    0    0 -0.84811628116E+01 -0.26628660847E+02 -0.16924638302E+02  0.32671992330E+02  0.00000000000E+00 0.  1.
         11    1    4    4    0    0  0.97552121102E+02 -0.98360505139E+01 -0.27010742763E+03  0.28735202571E+03  0.00000000000E+00 0. -1.
         21    1    1    2  503  502 -0.40910500799E+01 -0.31468784118E+02 -0.21890192088E+03  0.22119012642E+03  0.00000000000E+00 0.  1.
          1    1    1    2  501    0 -0.26727487287E+02  0.15306247321E+03 -0.40056267925E+03  0.42964280430E+03  0.00000000000E+00 0. -1.
<scales pt_clust_5="13000.00000" pt_clust_6="13000.00000" pt_clust_7="13000.00000" pt_clust_8="13000.00000" pt_clust_9="31.73360" pt_clust_10="106.22030"></scales>
<clustering>
<clus scale="   31.734">  2  9  1 -1</clus>
<clus scale="   80.825">  5  6 -1 -1</clus>
<clus scale="  103.753">  7  8 -1 -1</clus>
<clus scale="  140.821">  2  5  1 -1</clus>
<clus scale="  106.220">  1 10  2 -1</clus>
<clus scale="  106.220">  1  5  2 -1</clus>
</clustering>
</event>
<event>
10    4  0.3738096E-005  0.1066967E+03  0.7546771E-02  0.1271016E+00
         21   -1    0    0  503  502  0.00000000000E+00  0.00000000000E+00  0.42129310522E+02  0.42129310522E+02  0.00000000000E+00 0.  1.
          4   -1    0    0  502    0 -0.00000000000E+00 -0.00000000000E+00 -0.10304683675E+04  0.10304683675E+04  0.00000000000E+00 0. -1.
         24    2    1    2    0    0  0.50775517293E+02 -0.18518289917E+02 -0.60705613572E+03  0.61480317416E+03  0.80899387017E+02 0.  0.
         23    2    1    2    0    0 -0.68458550367E+02  0.24669224526E+02 -0.63418417041E+02  0.13256208476E+03  0.90860700736E+02 0.  0.
        -13    1    3    3    0    0  0.37647727140E+02  0.26838548629E+02 -0.21508501195E+03  0.21999823048E+03  0.00000000000E+00 0.  1.
         14    1    3    3    0    0  0.13127790153E+02 -0.45356838547E+02 -0.39197112378E+03  0.39480494368E+03  0.00000000000E+00 0. -1.
        -11    1    4    4    0    0  0.39828514572E+01  0.33510110061E+02  0.30067557604E+01  0.33879657056E+02  0.00000000000E+00 0.  1.
         11    1    4    4    0    0 -0.72441401824E+02 -0.88408855350E+01 -0.66425172802E+02  0.98682427701E+02  0.00000000000E+00 0. -1.
         21    1    1    2  503  501 -0.19874280532E+02 -0.47530054318E+01 -0.40808782358E+02  0.45639180589E+02  0.00000000000E+00 0.  1.
          3    1    1    2  501    0  0.37557313606E+02 -0.13979291772E+01 -0.27705572182E+03  0.27959323848E+03  0.00000000000E+00 0. -1.
<scales pt_clust_5="13000.00000" pt_clust_6="13000.00000" pt_clust_7="13000.00000" pt_clust_8="13000.00000" pt_clust_9="20.43473" pt_clust_10="36.95491"></scales>
<clustering>
<clus scale="   20.435">  1  9  2 -1</clus>
<clus scale="   36.955">  1 10  2 -1</clus>
<clus scale="   80.899">  5  6 -1 -1</clus>
<clus scale="   90.861">  7  8 -1 -1</clus>
<clus scale="   98.353">  2  5  1 -1</clus>
<clus scale="   20.435">  1  5  2 -1</clus>
</clustering>
</event>
<event>
10    4  0.3738096E-005  0.1233346E+03  0.7546771E-02  0.1240050E+00
         21   -1    0    0  501  502  0.00000000000E+00  0.00000000000E+00  0.22402544505E+03  0.22402544505E+03  0.00000000000E+00 0.  1.
          2   -1    0    0  503    0 -0.00000000000E+00 -0.00000000000E+00 -0.16498956095E+03  0.16498956095E+03  0.00000000000E+00 0. -1.
         23    2    1    2    0    0  0.61929314113E+02 -0.61959886310E+02 -0.84775888733E+02  0.15153302153E+03  0.90005765618E+02 0.  0.
         24    2    1    2    0    0 -0.34109299737E+02  0.65960187640E+02  0.10861052125E+03  0.15498931257E+03  0.81922225328E+02 0.  0.
        -13    1    4    4    0    0 -0.30590877413E+02  0.83130013972E+02  0.10449195554E+03  0.13698529037E+03  0.00000000000E+00 0.  1.
         14    1    4    4    0    0 -0.35184223240E+01 -0.17169826332E+02  0.41185657042E+01  0.18004022200E+02  0.00000000000E+00 0. -1.
        -11    1    3    3    0    0  0.84504699964E+02 -0.54427127159E+02 -0.76574192895E+02  0.12636045071E+03  0.00000000000E+00 0. -1.
         11    1    3    3    0    0 -0.22575385851E+02 -0.75327591513E+01 -0.82016958375E+01  0.25172570814E+02  0.00000000000E+00 0.  1.
         21    1    1    2  503  502 -0.22615711160E+02 -0.33584145204E+02  0.66142726696E+01  0.41025769990E+02  0.00000000000E+00 0.  1.
          1    1    1    2  501    0 -0.52043032158E+01  0.29583843874E+02  0.28586978924E+02  0.41466901914E+02  0.00000000000E+00 0. -1.
<scales pt_clust_5="13000.00000" pt_clust_6="13000.00000" pt_clust_7="13000.00000" pt_clust_8="13000.00000" pt_clust_9="37.85401" pt_clust_10="30.03812"></scales>
<clustering>
<clus scale="   30.038">  1 10  2 -1</clus>
<clus scale="   37.854">  1  9  2 -1</clus>
<clus scale="   81.922">  5  6 -1 -1</clus>
<clus scale="   90.006">  7  8 -1 -1</clus>
<clus scale="  117.565">  1  5  2 -1</clus>
<clus scale="   30.038">  1  5  2 -1</clus>
</clustering>
</event>
<event>
10    4  0.3738096E-005  0.1839858E+03  0.7546771E-02  0.1181996E+00
          4   -1    0    0  503    0 -0.00000000000E+00  0.00000000000E+00  0.93486024798E+02  0.93486024798E+02  0.00000000000E+00 0. -1.
         21   -1    0    0  501  502  0.00000000000E+00 -0.00000000000E+00 -0.12408399690E+04  0.12408399690E+04  0.00000000000E+00 0. -1.
         23    2    1    2    0    0  0.20416489657E+01 -0.83255614582E+02 -0.15002806327E+03  0.19444454083E+03  0.91458154361E+02 0.  0.
         24    2    1    2    0    0 -0.37367290815E+02  0.16140913373E+03 -0.35444634342E+03  0.39956699688E+03  0.81070042273E+02 0.  0.
        -11    1    4    4    0    0  0.22866046226E+02  0.78584751537E+02 -0.14835851990E+03  0.16943632926E+03  0.00000000000E+00 0.  1.
         12    1    4    4    0    0 -0.60233337041E+02  0.82824382192E+02 -0.20608782352E+03  0.23013066762E+03  0.00000000000E+00 0. -1.
        -13    1    3    3    0    0  0.43345600610E+02 -0.41917292622E+02 -0.10334673727E+03  0.11965136279E+03  0.00000000000E+00 0. -1.
         13    1    3    3    0    0 -0.41303951645E+02 -0.41338321960E+02 -0.46681326002E+02  0.74793178039E+02  0.00000000000E+00 0.  1.
         21    1    1    2  503  502 -0.10665434472E+03  0.31719676136E+02 -0.52109893152E+02  0.12286874324E+03  0.00000000000E+00 0. -1.
          3    1    1    2  501    0  0.14197998657E+03 -0.10987319528E+03 -0.59076964431E+03  0.61744571281E+03  0.00000000000E+00 0. -1.
<scales pt_clust_5="13000.00000" pt_clust_6="13000.00000" pt_clust_7="13000.00000" pt_clust_8="13000.00000" pt_clust_9="111.27123" pt_clust_10="165.16181"></scales>
<clustering>
<clus scale="   81.070">  5  6 -1 -1</clus>
<clus scale="   91.458">  7  8 -1 -1</clus>
<clus scale="  111.271">  1  9  2 -1</clus>
<clus scale="  122.163">  1  7  2 -1</clus>
<clus scale="  165.162">  2 10  1 -1</clus>
<clus scale="  165.162">  2  5  1 -1</clus>
</clustering>
</event>
<event>
10    4  0.3738096E-005  0.1818570E+03  0.7546771E-02  0.1186272E+00
         21   -1    0    0  503  502  0.00000000000E+00  0.00000000000E+00  0.68512296554E+03  0.68512296554E+03  0.00000000000E+00 0.  1.
         -3   -1    0    0    0  501 -0.00000000000E+00 -0.00000000000E+00 -0.16068204253E+03  0.16068204253E+03  0.00000000000E+00 0.  1.
         24    2    1    2    0    0  0.39187816912E+00 -0.58868208835E+02 -0.59269619394E+02  0.11568669114E+03  0.80030638778E+02 0.  0.
         23    2    1    2    0    0 -0.16529611247E+03  0.83403221963E+01  0.23135849620E+03  0.29918198891E+03  0.92686260854E+02 0.  0.
        -11    1    3    3    0    0 -0.26505612230E+02 -0.27374198741E+02 -0.63499414503E+02  0.74054506133E+02  0.00000000000E+00 0.  1.
         12    1    3    3    0    0  0.26897490399E+02 -0.31494010094E+02  0.42297951090E+01  0.41632185004E+02  0.00000000000E+00 0. -1.
        -11    1    4    4    0    0 -0.14761697826E+02  0.33768025975E+02  0.50156311579E+02  0.62240203182E+02  0.00000000000E+00 0. -1.
         11    1    4    4    0    0 -0.15053441464E+03 -0.25427703778E+02  0.18120218462E+03  0.23694178573E+03  0.00000000000E+00 0.  1.
         21    1    1    2  503  501  0.27201676414E+02 -0.34718772233E+02  0.10703944273E+01  0.44118817860E+02  0.00000000000E+00 0.  1.
         -4    1    1    2    0  502  0.13770255789E+03  0.85246658872E+02  0.35128165177E+03  0.38681751016E+03  0.00000000000E+00 0.  1.
<scales pt_clust_5="13000.00000" pt_clust_6="13000.00000" pt_clust_7="13000.00000" pt_clust_8="13000.00000" pt_clust_9="44.10583" pt_clust_10="156.46479"></scales>
<clustering>
<clus scale="   44.106">  2  9  1 -1</clus>
<clus scale="   80.031">  5  6 -1 -1</clus>
<clus scale="   92.686">  7  8 -1 -1</clus>
<clus scale="  114.988">  2  5  1 -1</clus>
<clus scale="  156.465">  1 10  2 -1</clus>
<clus scale="  156.465">  1  5  2 -1</clus>
</clustering>
</event>
<event>
10    4  0.3738096E-005  0.3701739E+03  0.7546771E-02  0.1054943E+00
          2   -1    0    0  503    0 -0.00000000000E+00  0.00000000000E+00  0.97259296049E+03  0.97259296049E+03  0.00000000000E+00 0. -1.
         21   -1    0    0  501  502  0.00000000000E+00 -0.00000000000E+00 -0.22233311441E+03  0.22233311441E+03  0.00000000000E+00 0. -1.
         23    2    1    2    0    0  0.20809265688E+03  0.26082190371E+03  0.39370926025E+03  0.52426450391E+03  0.92280383330E+02 0.  0.
         24    2    1    2    0    0 -0.28308348963E+03 -0.29587424990E+03  0.19920912001E+03  0.46200612406E+03  0.78022761555E+02 0.  0.
        -13    1    4    4    0    0 -0.62545951708E+02 -0.24539818637E+02  0.33174962038E+02  0.74931814872E+02  0.00000000000E+00 0.  1.
         14    1    4    4    0    0 -0.22053753792E+03 -0.27133443126E+03  0.16603415797E+03  0.38707430919E+03  0.00000000000E+00 0. -1.
        -11    1    3    3    0    0  0.82377889140E+02  0.16126378746E+03  0.16532543214E+03  0.24520323056E+03  0.00000000000E+00 0. -1.
         11    1    3    3    0    0  0.12571476774E+03  0.99558116254E+02  0.22838382812E+03  0.27906127335E+03  0.00000000000E+00 0.  1.
         21    1    1    2  503  502  0.50488630694E+02 -0.33665724369E+02  0.48786088025E+02  0.77862476273E+02  0.00000000000E+00 0.  1.
          1    1    1    2  501    0  0.24502202058E+02  0.68718070552E+02  0.10855537779E+03  0.13079297066E+03  0.00000000000E+00 0. -1.
<scales pt_clust_5="13000.00000" pt_clust_6="13000.00000" pt_clust_7="13000.00000" pt_clust_8="13000.00000" pt_clust_9="60.68346" pt_clust_10="72.23497"></scales>
<clustering>
<clus scale="   60.683">  2  9  1 -1</clus>
<clus scale="   72.235">  2 10  1 -1</clus>
<clus scale="   78.023">  5  6 -1 -1</clus>
<clus scale="   92.280">  7  8 -1 -1</clus>
<clus scale="  366.880">  2  5  1 -1</clus>
<clus scale="   60.683">  2  5  1 -1</clus>
</clustering>
</event>
<event>
10    4  0.3738096E-005  0.1790046E+03  0.7546771E-02  0.1169974E+00
         21   -1    0    0  501  502  0.00000000000E+00  0.00000000000E+00  0.10749248047E+03  0.10749248047E+03  0.00000000000E+00 0. -1.
          2   -1    0    0  503    0 -0.00000000000E+00 -0.00000000000E+00 -0.12902955621E+04  0.12902955621E+04  0.00000000000E+00 0. -1.
         23    2    1    2    0    0 -0.10736985200E+03 -0.91769740354E+02 -0.25587425350E+03  0.30609382192E+03  0.90949567603E+02 0.  0.
         24    2    1    2    0    0  0.77101642068E+02  0.12826380321E+03 -0.19844168420E+02  0.17129789833E+03  0.80950061929E+02 0.  0.
        -13    1    4    4    0    0  0.17178639150E+02  0.93544306257E+02  0.10501498936E+02  0.95686594443E+02  0.00000000000E+00 0.  1.
         14    1    4    4    0    0  0.59923002918E+02  0.34719496956E+02 -0.30345667356E+02  0.75611303883E+02  0.00000000000E+00 0. -1.
        -13    1    3    3    0    0 -0.11501971744E+03 -0.68051506597E+02 -0.16755064138E+03  0.21432162835E+03  0.00000000000E+00 0. -1.
         13    1    3    3    0    0  0.76498654464E+01 -0.23718233756E+02 -0.88323612121E+02  0.91772193566E+02  0.00000000000E+00 0.  1.
         21    1    1    2  503  502 -0.57230741769E+02 -0.37152750585E+02 -0.37245503459E+03  0.37865345300E+03  0.00000000000E+00 0. -1.
          1    1    1    2  501    0  0.87498951699E+02  0.65868772530E+00 -0.53462962510E+03  0.54174286931E+03  0.00000000000E+00 0. -1.
<scales pt_clust_5="13000.00000" pt_clust_6="13000.00000" pt_clust_7="13000.00000" pt_clust_8="13000.00000" pt_clust_9="68.23258" pt_clust_10="57.85180"></scales>
<clustering>
<clus scale="   68.233">  2  9  1 -1</clus>
<clus scale="   57.852">  1 10  2 -1</clus>
<clus scale="   80.950">  5  6 -1 -1</clus>
<clus scale="   90.950">  7  8 -1 -1</clus>
<clus scale="  174.137">  1  5  2 -1</clus>
<clus scale="   57.852">  1  5  2 -1</clus>
</clustering>
</event>
<event>
10    4  0.7498331E-005  0.3632836E+03  0.7546771E-02  0.1106642E+00
         21   -1    0    0  501  502  0.00000000000E+00  0.00000000000E+00  0.50757486489E+03  0.50757486489E+03  0.00000000000E+00 0. -1.
         -3   -1    0    0    0  501 -0.00000000000E+00 -0.00000000000E+00 -0.40112203025E+03  0.40112203025E+03  0.00000000000E+00 0.  1.
         24    2    1    2    0    0  0.52167798803E+02  0.17037855516E+02 -0.71028641755E+02  0.11990579531E+03  0.79501975107E+02 0.  0.
         23    2    1    2    0    0 -0.36286659286E+03 -0.80072685655E+02  0.22397694165E+03  0.44362729739E+03  0.92497077819E+02 0.  0.
        -11    1    3    3    0    0  0.31909799160E+01 -0.22665511987E+02 -0.47287251453E+02  0.52535625402E+02  0.00000000000E+00 0.  1.
         12    1    3    3    0    0  0.48976818887E+02  0.39703367503E+02 -0.23741390302E+02  0.67370169904E+02  0.00000000000E+00 0. -1.
        -13    1    4    4    0    0 -0.34690652703E+02  0.17003951854E+02  0.37714048369E+02  0.53990047305E+02  0.00000000000E+00 0.  1.
         13    1    4    4    0    0 -0.32817594015E+03 -0.97076637508E+02  0.18626289328E+03  0.38963725009E+03  0.00000000000E+00 0. -1.
         21    1    1    2  503  502  0.46879791213E+01 -0.21715348879E+02  0.67108531165E+01  0.23207091044E+02  0.00000000000E+00 0. -1.
         -4    1    1    2    0  503  0.30601081493E+03  0.84750179017E+02 -0.53206318372E+02  0.32195671140E+03  0.00000000000E+00 0.  1.
<scales pt_clust_5="13000.00000" pt_clust_6="13000.00000" pt_clust_7="13000.00000" pt_clust_8="13000.00000" pt_clust_9="22.21561" pt_clust_10="351.31098"></scales>
<clustering>
<clus scale="   22.216">  1  9  2 -1</clus>
<clus scale="   79.502">  5  6 -1 -1</clus>
<clus scale="   92.497">  7  8 -1 -1</clus>
<clus scale="   96.546">  2  5  1 -1</clus>
<clus scale="  351.311">  1 10  2 -1</clus>
<clus scale="   22.216">  1  5  2 -1</clus>
</clustering>
</event>
<event>
10    4  0.3738096E-005  0.1069191E+03  0.7546771E-02  0.1271154E+00
          2   -1    0    0  503    0 -0.00000000000E+00  0.00000000000E+00  0.83403700446E+03  0.83403700446E+03  0.00000000000E+00 0. -1.
         21   -1    0    0  501  502  0.00000000000E+00 -0.00000000000E+00 -0.10621652378E+03  0.10621652378E+03  0.00000000000E+00 0. -1.
         24    2    1    2    0    0 -0.36107008246E+02 -0.21518229331E+02  0.69361077430E+03  0.69968828851E+03  0.81859908510E+02 0.  0.
         23    2    1    2    0    0  0.60205583965E+02  0.53149196982E+02  0.49272941764E+02  0.13231712244E+03  0.92900207859E+02 0.  0.
        -13    1    3    3    0    0 -0.27414484343E+02 -0.37697744485E+02  0.18621326001E+03  0.19195846451E+03  0.00000000000E+00 0.  1.
         14    1    3    3    0    0 -0.86925239031E+01  0.16179515154E+02  0.50739751429E+03  0.50772982401E+03  0.00000000000E+00 0. -1.
        -11    1    4    4    0    0  0.54664462729E+02  0.15302455739E+02 -0.13921621933E+02  0.58448098296E+02  0.00000000000E+00 0.  1.
         11    1    4    4    0    0  0.55411212359E+01  0.37846741242E+02  0.63194563697E+02  0.73869024144E+02  0.00000000000E+00 0. -1.
         21    1    1    2  503  502  0.12286580845E+02 -0.23130547947E+02  0.36281124829E+02  0.44747093046E+02  0.00000000000E+00 0. -1.
          1    1    1    2  501    0 -0.36385156564E+02 -0.85004197044E+01 -0.51344360216E+02  0.63501024238E+02  0.00000000000E+00 0. -1.
<scales pt_clust_5="13000.00000" pt_clust_6="13000.00000" pt_clust_7="13000.00000" pt_clust_8="13000.00000" pt_clust_9="26.19126" pt_clust_10="37.31408"></scales>
<clustering>
<clus scale="   26.191">  1  9  2 -1</clus>
<clus scale="   37.314">  2 10  1 -1</clus>
<clus scale="   81.860">  5  6 -1 -1</clus>
<clus scale="   92.900">  7  8 -1 -1</clus>
<clus scale="   97.480">  1  5  2 -1</clus>
<clus scale="   37.314">  2  5  1 -1</clus>
</clustering>
</event>
<event>
10    4  0.3738096E-005  0.4657970E+03  0.7546771E-02  0.1023113E+00
         21   -1    0    0  503  502  0.00000000000E+00  0.00000000000E+00  0.24307472597E+03  0.24307472597E+03  0.00000000000E+00 0.  1.
         -1   -1    0    0    0  501 -0.00000000000E+00 -0.00000000000E+00 -0.12256595758E+04  0.12256595758E+04  0.00000000000E+00 0.  1.
         24    2    1    2    0    0  0.15704383924E+03 -0.95709329472E+02 -0.45947580318E+03  0.50118505804E+03  0.79027878012E+02 0.  0.
         23    2    1    2    0    0  0.54143183739E+02 -0.22004160628E+03 -0.43253902413E+03  0.49653563244E+03  0.90043511961E+02 0.  0.
        -13    1    3    3    0    0  0.91128488732E+02 -0.73928491979E+02 -0.36859783747E+03  0.38682578659E+03  0.00000000000E+00 0.  1.
         14    1    3    3    0    0  0.65915350507E+02 -0.21780837493E+02 -0.90877965709E+02  0.11435927145E+03  0.00000000000E+00 0. -1.
        -13    1    4    4    0    0  0.19333109036E+02 -0.14743874159E+03 -0.19181720082E+03  0.24270515066E+03  0.00000000000E+00 0.  1.
         13    1    4    4    0    0  0.34810074704E+02 -0.72602864690E+02 -0.24072182331E+03  0.25383048178E+03  0.00000000000E+00 0. -1.
         21    1    1    2  503  501 -0.16305871848E+01 -0.33365888413E+02 -0.52272912810E+02  0.62035463550E+02  0.00000000000E+00 0.  1.
         -2    1    1    2    0  502 -0.20955643579E+03  0.34911682417E+03 -0.38297109691E+02  0.40897814772E+03  0.00000000000E+00 0.  1.
<scales pt_clust_5="13000.00000" pt_clust_6="13000.00000" pt_clust_7="13000.00000" pt_clust_8="13000.00000" pt_clust_9="33.40571" pt_clust_10="401.88224"></scales>
<clustering>
<clus scale="   33.406">  2  9  1 -1</clus>
<clus scale="   79.028">  5  6 -1 -1</clus>
<clus scale="   90.044">  7  8 -1 -1</clus>
<clus scale="  171.807">  5  7 -1 -1</clus>
<clus scale="  401.882">  1 10  2 -1</clus>
<clus scale="  401.882">  1  5  2 -1</clus>
</clustering>
</event>
<event>
10    4  0.3738096E-005  0.3327660E+03  0.7546771E-02  0.1070322E+00
          2   -1    0    0  503    0 -0.00000000000E+00  0.00000000000E+00  0.13291517989E+04  0.13291517989E+04  0.00000000000E+00 0. -1.
         21   -1    0    0  501  502  0.00000000000E+00 -0.00000000000E+00 -0.54317575212E+03  0.54317575212E+03  0.00000000000E+00 0. -1.
         24    2    1    2    0    0 -0.10325018910E+03  0.29221541325E+03  0.11801111717E+04  0.12226379679E+04  0.78299257677E+02 0.  0.
         23    2    1    2    0    0  0.11027353090E+03 -0.15613265897E+03 -0.19048136520E+03  0.28526118702E+03  0.92483163450E+02 0.  0.
        -13    1    3    3    0    0 -0.27862028523E+02  0.17541883658E+03  0.74394874582E+03  0.76485802426E+03  0.00000000000E+00 0.  1.
         14    1    3    3    0    0 -0.75388160575E+02  0.11679657668E+03  0.43616242583E+03  0.45777994363E+03  0.00000000000E+00 0. -1.
        -13    1    4    4    0    0  0.11995243204E+03 -0.10274784023E+03 -0.13705607350E+03  0.20911736395E+03  0.00000000000E+00 0. -1.
         13    1    4    4    0    0 -0.96789011394E+01 -0.53384818734E+02 -0.53425291700E+02  0.76143823070E+02  0.00000000000E+00 0.  1.
         21    1    1    2  503  502 -0.19676897826E+02  0.21804510251E+02  0.54295378948E+02  0.61730099226E+02  0.00000000000E+00 0.  1.
          1    1    1    2  501    0  0.12653556027E+02 -0.15788726454E+03 -0.25794913866E+03  0.30269829685E+03  0.00000000000E+00 0. -1.
<scales pt_clust_5="13000.00000" pt_clust_6="13000.00000" pt_clust_7="13000.00000" pt_clust_8="13000.00000" pt_clust_9="29.37034" pt_clust_10="157.98357"></scales>
<clustering>
<clus scale="   29.370">  1  9  2 -1</clus>
<clus scale="   78.299">  5  6 -1 -1</clus>
<clus scale="   92.483">  7  8 -1 -1</clus>
<clus scale="  157.984">  2 10  1 -1</clus>
<clus scale="  329.106">  1  5  2 -1</clus>
<clus scale="  157.984">  2  5  1 -1</clus>
</clustering>
</event>
<event>
10    4  0.3738096E-005  0.9703219E+02  0.7546771E-02  0.1292198E+00
          4   -1    0    0  503    0 -0.00000000000E+00  0.00000000000E+00  0.76683404175E+02  0.76683404175E+02  0.00000000000E+00 0. -1.
         21   -1    0    0  501  502  0.00000000000E+00 -0.00000000000E+00 -0.40049329235E+03  0.40049329235E+03  0.00000000000E+00 0. -1.
         24    2    1    2    0    0 -0.13306355873E+02 -0.30350665129E+02 -0.47007134964E+02  0.99363478173E+02  0.81025971619E+02 0.  0.
         23    2    1    2    0    0  0.15239102114E+02  0.94637198985E+00 -0.16648254899E+03  0.19047059338E+03  0.91265995694E+02 0.  0.
        -13    1    3    3    0    0 -0.44859828432E+02 -0.33088575405E+02 -0.27392979289E+02  0.62109849007E+02  0.00000000000E+00 0.  1.
         14    1    3    3    0    0  0.31553472559E+02  0.27379102761E+01 -0.19614155675E+02  0.37253629167E+02  0.00000000000E+00 0. -1.
        -13    1    4    4    0    0  0.51593435449E+02  0.14523316701E+02 -0.91568122827E+02  0.10610151002E+03  0.00000000000E+00 0.  1.
         13    1    4    4    0    0 -0.36354333335E+02 -0.13576944712E+02 -0.74914426165E+02  0.84369083363E+02  0.00000000000E+00 0. -1.
         21    1    1    2  503  502 -0.25278937097E+01 -0.30319654878E+02  0.25031617562E+02  0.39398649676E+02  0.00000000000E+00 0. -1.
          3    1    1    2  501    0  0.59514746835E+00  0.59723948018E+02 -0.13535182178E+03  0.14794397530E+03  0.00000000000E+00 0. -1.
<scales pt_clust_5="13000.00000" pt_clust_6="13000.00000" pt_clust_7="13000.00000" pt_clust_8="13000.00000" pt_clust_9="30.42485" pt_clust_10="55.43162"></scales>
<clustering>
<clus scale="   30.425">  1  9  2 -1</clus>
<clus scale="   55.432">  2 10  1 -1</clus>
<clus scale="   81.026">  5  6 -1 -1</clus>
<clus scale="   87.470">  1  5  2 -1</clus>
<clus scale="   91.266">  7  8 -1 -1</clus>
<clus scale="   55.432">  2  5  1 -1</clus>
</clustering>
</event>
<event>
10    4  0.3738096E-005  0.1343419E+03  0.7546771E-02  0.1224152E+00
         21   -1    0    0  501  502  0.00000000000E+00  0.00000000000E+00  0.73360863154E+02  0.73360863154E+02  0.00000000000E+00 0. -1.
          2   -1    0    0  503    0 -0.00000000000E+00 -0.00000000000E+00 -0.45175269737E+03  0.45175269737E+03  0.00000000000E+00 0. -1.
         23    2    1    2    0    0 -0.12457758222E+03 -0.28852492122E+02 -0.17362235502E+03  0.23429373061E+03  0.91633998853E+02 0.  0.
         24    2    1    2    0    0  0.77409779932E+02 -0.57731070258E+01 -0.91287408619E+02  0.14362427769E+03  0.79176634021E+02 0.  0.
        -11    1    4    4    0    0  0.30186503345E+02 -0.13310378203E+02 -0.89923011677E+02  0.95783814819E+02  0.00000000000E+00 0.  1.
         12    1    4    4    0    0  0.47223276587E+02  0.75372711774E+01 -0.13643969414E+01  0.47840462868E+02  0.00000000000E+00 0. -1.
        -11    1    3    3    0    0 -0.29662747522E+02 -0.38292462739E+02 -0.10843898015E+03  0.11876533042E+03  0.00000000000E+00 0.  1.
         11    1    3    3    0    0 -0.94914834697E+02  0.94399706164E+01 -0.65183374870E+02  0.11552840019E+03  0.00000000000E+00 0. -1.
         21    1    1    2  503  502  0.26971772434E+02  0.53145645874E+02 -0.10057222234E+03  0.11690469661E+03  0.00000000000E+00 0. -1.
          1    1    1    2  501    0  0.20196029853E+02 -0.18520046726E+02 -0.12909848237E+02  0.30290855618E+02  0.00000000000E+00 0. -1.
<scales pt_clust_5="13000.00000" pt_clust_6="13000.00000" pt_clust_7="13000.00000" pt_clust_8="13000.00000" pt_clust_9="58.76142" pt_clust_10="27.40204"></scales>
<clustering>
<clus scale="   27.402">  1 10  2 -1</clus>
<clus scale="   58.761">  2  9  1 -1</clus>
<clus scale="   79.177">  5  6 -1 -1</clus>
<clus scale="   91.634">  7  8 -1 -1</clus>
<clus scale="  126.174">  1  5  2 -1</clus>
<clus scale="   27.402">  1  5  2 -1</clus>
</clustering>
</event>
<event>
10    4  0.3738096E-005  0.1775727E+03  0.7546771E-02  0.1194220E+00
          2   -1    0    0  503    0 -0.00000000000E+00  0.00000000000E+00  0.72904991098E+03  0.72904991098E+03  0.00000000000E+00 0. -1.
         21   -1    0    0  501  502  0.00000000000E+00 -0.00000000000E+00 -0.96158539096E+02  0.96158539096E+02  0.00000000000E+00 0. -1.
         23    2    1    2    0    0  0.30739230206E+02 -0.13819742266E+01  0.13975545726E+03  0.17009547010E+03  0.91946022159E+02 0.  0.
         24    2    1    2    0    0 -0.18124671942E+03 -0.83015833848E+02  0.19669326466E+03  0.29152196794E+03  0.80961814817E+02 0.  0.
        -11    1    4    4    0    0 -0.34338744456E+02 -0.53547542409E+02  0.76106924210E+02  0.99190486346E+02  0.00000000000E+00 0.  1.
         12    1    4    4    0    0 -0.14690797497E+03 -0.29468291439E+02  0.12058634045E+03  0.19233148159E+03  0.00000000000E+00 0. -1.
        -11    1    3    3    0    0  0.22025505082E+02 -0.35915144826E+02  0.22940462628E+02  0.47971713828E+02  0.00000000000E+00 0.  1.
         11    1    3    3    0    0  0.87137251238E+01  0.34533170600E+02  0.11681499463E+03  0.12212375628E+03  0.00000000000E+00 0. -1.
         21    1    1    2  503  502  0.60995539382E+02 -0.17472275861E+02  0.15577442568E+03  0.16820049924E+03  0.00000000000E+00 0.  1.
          1    1    1    2  501    0  0.89511949836E+02  0.10187008394E+03  0.14066822429E+03  0.19539051279E+03  0.00000000000E+00 0. -1.
<scales pt_clust_5="13000.00000" pt_clust_6="13000.00000" pt_clust_7="13000.00000" pt_clust_8="13000.00000" pt_clust_9="63.44869" pt_clust_10="158.04189"></scales>
<clustering>
<clus scale="   63.449">  1  9  2 -1</clus>
<clus scale="   80.962">  5  6 -1 -1</clus>
<clus scale="   91.946">  7  8 -1 -1</clus>
<clus scale="  103.629">  1  7  2 -1</clus>
<clus scale="  158.042">  2 10  1 -1</clus>
<clus scale="  158.042">  2  5  1 -1</clus>
</clustering>
</event>
<event>
10    4  0.3738096E-005  0.4235358E+03  0.7546771E-02  0.1035922E+00
          2   -1    0    0  503    0 -0.00000000000E+00  0.00000000000E+00  0.22429865713E+04  0.22429865713E+04  0.00000000000E+00 0. -1.
         21   -1    0    0  501  502  0.00000000000E+00 -0.00000000000E+00 -0.11582004170E+03  0.11582004170E+03  0.00000000000E+00 0. -1.
         24    2    1    2    0    0 -0.12905092243E+03 -0.35919185280E+02  0.19231616085E+03  0.24785909867E+03  0.80649231977E+02 0.  0.
         23    2    1    2    0    0 -0.20837893870E+03 -0.12992245799E+03  0.24494541753E+03  0.35809056107E+03  0.89044736958E+02 0.  0.
        -11    1    3    3    0    0 -0.72858751536E+02 -0.35643816928E+02  0.16814954161E+03  0.18668997751E+03  0.00000000000E+00 0.  1.
         12    1    3    3    0    0 -0.56192170895E+02 -0.27536835219E+00  0.24166619239E+02  0.61169121157E+02  0.00000000000E+00 0. -1.
        -13    1    4    4    0    0 -0.36938529607E+02 -0.19273629474E+02  0.32644196732E+01  0.41792154748E+02  0.00000000000E+00 0.  1.
         13    1    4    4    0    0 -0.17144040909E+03 -0.11064882851E+03  0.24168099785E+03  0.31629840633E+03  0.00000000000E+00 0. -1.
         21    1    1    2  503  502  0.15103262188E+02 -0.66464301996E+02  0.23718168174E+03  0.24678079772E+03  0.00000000000E+00 0.  1.
          1    1    1    2  501    0  0.32232659894E+03  0.23230594526E+03  0.14527232694E+04  0.15060761555E+04  0.00000000000E+00 0. -1.
<scales pt_clust_5="13000.00000" pt_clust_6="13000.00000" pt_clust_7="13000.00000" pt_clust_8="13000.00000" pt_clust_9="68.15873" pt_clust_10="380.48363"></scales>
<clustering>
<clus scale="   68.159">  1  9  2 -1</clus>
<clus scale="   80.649">  5  6 -1 -1</clus>
<clus scale="   89.045">  7  8 -1 -1</clus>
<clus scale="   99.021">  5  7 -1 -1</clus>
<clus scale="  380.484">  2 10  1 -1</clus>
<clus scale="  380.484">  2  5  1 -1</clus>
</clustering>
</event>
<event>
10    4  0.3738096E-005  0.1224402E+03  0.7546771E-02  0.1252929E+00
         21   -1    0    0  501  502  0.00000000000E+00  0.00000000000E+00  0.32360477767E+03  0.32360477767E+03  0.00000000000E+00 0.  1.
          2   -1    0    0  503    0 -0.00000000000E+00 -0.00000000000E+00 -0.43028505204E+03  0.43028505204E+03  0.00000000000E+00 0. -1.
         23    2    1    2    0    0  0.50977510986E+02  0.13668264268E+02 -0.15222827594E+03  0.19684315068E+03  0.11308514447E+03 0.  0.
         24    2    1    2    0    0 -0.79146610828E+02 -0.31665498349E+02  0.55745148219E+02  0.12952111928E+03  0.80008180814E+02 0.  0.
        -13    1    4    4    0    0 -0.88771449332E+02 -0.44639493135E+02  0.40471007550E+02  0.10728912813E+03  0.00000000000E+00 0.  1.
         14    1    4    4    0    0  0.96248385038E+01  0.12973994785E+02  0.15274140669E+02  0.22231991141E+02  0.00000000000E+00 0. -1.
        -13    1    3    3    0    0  0.46216191100E+02 -0.22500428879E+02 -0.15189937796E+03  0.16036092617E+03  0.00000000000E+00 0. -1.
         13    1    3    3    0    0  0.47613198858E+01  0.36168693147E+02 -0.32889797911E+00  0.36482224506E+02  0.00000000000E+00 0.  1.
         21    1    1    2  503  502 -0.15544584834E+02 -0.33925177847E+02 -0.21166625454E+03  0.21493058210E+03  0.00000000000E+00 0. -1.
          1    1    1    2  501    0  0.43713684676E+02  0.51922411929E+02  0.20146910789E+03  0.21259497765E+03  0.00000000000E+00 0. -1.
<scales pt_clust_5="13000.00000" pt_clust_6="13000.00000" pt_clust_7="13000.00000" pt_clust_8="13000.00000" pt_clust_9="37.31691" pt_clust_10="66.95206"></scales>
<clustering>
<clus scale="   37.317">  2  9  1 -1</clus>
<clus scale="   66.952">  1 10  2 -1</clus>
<clus scale="   80.008">  5  6 -1 -1</clus>
<clus scale="   92.761">  1  5  2 -1</clus>
<clus scale="  113.085">  7  8 -1 -1</clus>
<clus scale="   66.952">  1  5  2 -1</clus>
</clustering>
</event>
<event>
10    4  0.3738096E-005  0.3344408E+03  0.7546771E-02  0.1069351E+00
          2   -1    0    0  503    0 -0.00000000000E+00  0.00000000000E+00  0.19230912146E+04  0.19230912146E+04  0.00000000000E+00 0. -1.
         21   -1    0    0  501  502  0.00000000000E+00 -0.00000000000E+00 -0.60307759463E+03  0.60307759463E+03  0.00000000000E+00 0. -1.
         23    2    1    2    0    0  0.35597701546E+03 -0.22425440457E+03  0.12037739622E+04  0.12784792187E+04  0.91802436134E+02 0.  0.
         24    2    1    2    0    0 -0.18637253979E+03  0.10336177208E+03  0.55814603384E+02  0.23657648152E+03  0.86225182758E+02 0.  0.
        -11    1    4    4    0    0 -0.16423376412E+03  0.58064224816E+02  0.63836045590E+02  0.18552418763E+03  0.00000000000E+00 0.  1.
         12    1    4    4    0    0 -0.22138775678E+02  0.45297547262E+02 -0.80214422059E+01  0.51052293891E+02  0.00000000000E+00 0. -1.
        -13    1    3    3    0    0  0.29617553471E+03 -0.17432041170E+03  0.86296615100E+03  0.92888004127E+03  0.00000000000E+00 0. -1.
         13    1    3    3    0    0  0.59801480755E+02 -0.49933992873E+02  0.34080781116E+03  0.34959917748E+03  0.00000000000E+00 0.  1.
         21    1    1    2  503  502 -0.77502075603E+02  0.21363355773E+02  0.52296325431E+03  0.52910635042E+03  0.00000000000E+00 0. -1.
          1    1    1    2  501    0 -0.92102400064E+02  0.99529276721E+02 -0.46253819984E+03  0.48200675860E+03  0.00000000000E+00 0. -1.
<scales pt_clust_5="13000.00000" pt_clust_6="13000.00000" pt_clust_7="13000.00000" pt_clust_8="13000.00000" pt_clust_9="80.39257" pt_clust_10="136.08213"></scales>
<clustering>
<clus scale="   80.393">  1  9  2 -1</clus>
<clus scale="   86.225">  5  6 -1 -1</clus>
<clus scale="   91.802">  7  8 -1 -1</clus>
<clus scale="  136.082">  2 10  1 -1</clus>
<clus scale="  332.953">  2  5  1 -1</clus>
<clus scale="  136.082">  2  5  1 -1</clus>
</clustering>
</event>
<event>
10    4  0.3738096E-005  0.9109966E+02  0.7546771E-02  0.1306723E+00
          4   -1    0    0  503    0 -0.00000000000E+00  0.00000000000E+00  0.33520829508E+03  0.33520829508E+03  0.00000000000E+00 0. -1.
         21   -1    0    0  501  502  0.00000000000E+00 -0.00000000000E+00 -0.21024860604E+03  0.21024860604E+03  0.00000000000E+00 0.  1.
         24    2    1    2    0    0  0.75087919445E+01  0.34107390388E+02  0.20823747698E+03  0.22602623416E+03  0.80655537165E+02 0.  0.
         23    2    1    2    0    0  0.10866954132E+02 -0.48140857947E+00 -0.42867310817E+02  0.10111577352E+03  0.90931132574E+02 0.  0.
        -13    1    3    3    0    0 -0.28873996730E+02 -0.58662646426E+01  0.42631028406E+02  0.51822054484E+02  0.00000000000E+00 0.  1.
         14    1    3    3    0    0  0.36382788675E+02  0.39973655031E+02  0.16560644857E+03  0.17420417968E+03  0.00000000000E+00 0. -1.
        -13    1    4    4    0    0 -0.19377464662E+02  0.33873941869E+02 -0.39015297127E+02  0.55182637526E+02  0.00000000000E+00 0.  1.
         13    1    4    4    0    0  0.30244418795E+02 -0.34355350448E+02 -0.38520136903E+01  0.45933135992E+02  0.00000000000E+00 0. -1.
         21    1    1    2  503  502  0.10037639873E+01 -0.41744623663E+02  0.83115277612E+02  0.93014894073E+02  0.00000000000E+00 0. -1.
          3    1    1    2  501    0 -0.19379510064E+02  0.81186418540E+01 -0.12352575474E+03  0.12529999936E+03  0.00000000000E+00 0. -1.
<scales pt_clust_5="13000.00000" pt_clust_6="13000.00000" pt_clust_7="13000.00000" pt_clust_8="13000.00000" pt_clust_9="41.27661" pt_clust_10="21.01137"></scales>
<clustering>
<clus scale="   21.011">  2 10  1 -1</clus>
<clus scale="   41.277">  1  9  2 -1</clus>
<clus scale="   80.656">  5  6 -1 -1</clus>
<clus scale="   80.845">  1  5  2 -1</clus>
<clus scale="   90.931">  7  8 -1 -1</clus>
<clus scale="   21.011">  2  5  1 -1</clus>
</clustering>
</event>
<event>
10    4  0.3738096E-005  0.1944911E+03  0.7546771E-02  0.1154901E+00
          2   -1    0    0  503    0 -0.00000000000E+00  0.00000000000E+00  0.14460729584E+03  0.14460729584E+03  0.00000000000E+00 0. -1.
         21   -1    0    0  501  502  0.00000000000E+00 -0.00000000000E+00 -0.59590325848E+03  0.59590325848E+03  0.00000000000E+00 0. -1.
         24    2    1    2    0    0 -0.31053634874E+02  0.12768629425E+03 -0.77899214708E+02  0.17715417842E+03  0.89706172036E+02 0.  0.
         23    2    1    2    0    0  0.77717849595E+01 -0.23513851553E+03 -0.32047191241E+03  0.40847897854E+03  0.93820611466E+02 0.  0.
        -11    1    3    3    0    0  0.20306755832E+02  0.41198222794E+02  0.58014460027E+01  0.46295946578E+02  0.00000000000E+00 0.  1.
         12    1    3    3    0    0 -0.51360390706E+02  0.86488071461E+02 -0.83700660711E+02  0.13085823185E+03  0.00000000000E+00 0. -1.
        -13    1    4    4    0    0  0.49032738595E+02 -0.10120041597E+03 -0.15764242219E+03  0.19364107756E+03  0.00000000000E+00 0.  1.
         13    1    4    4    0    0 -0.41260953635E+02 -0.13393809957E+03 -0.16282949022E+03  0.21483790098E+03  0.00000000000E+00 0. -1.
         21    1    1    2  503  502 -0.16451033853E+02  0.34394258118E+02  0.21069895120E+02  0.43560784964E+02  0.00000000000E+00 0.  1.
          1    1    1    2  501    0  0.39732883767E+02  0.73057963160E+02 -0.73994730633E+02  0.11131661239E+03  0.00000000000E+00 0. -1.
<scales pt_clust_5="13000.00000" pt_clust_6="13000.00000" pt_clust_7="13000.00000" pt_clust_8="13000.00000" pt_clust_9="38.12613" pt_clust_10="87.02999"></scales>
<clustering>
<clus scale="   38.126">  1  9  2 -1</clus>
<clus scale="   87.030">  2 10  1 -1</clus>
<clus scale="   89.706">  5  6 -1 -1</clus>
<clus scale="   93.821">  7  8 -1 -1</clus>
<clus scale="  192.540">  1  5  2 -1</clus>
<clus scale="   87.030">  2  5  1 -1</clus>
</clustering>
</event>
<event>
10    4  0.3738096E-005  0.1038565E+03  0.7546771E-02  0.1279234E+00
         21   -1    0    0  501  502  0.00000000000E+00  0.00000000000E+00  0.29233348797E+03  0.29233348797E+03  0.00000000000E+00 0.  1.
          2   -1    0    0  503    0 -0.00000000000E+00 -0.00000000000E+00 -0.17112478051E+03  0.17112478051E+03  0.00000000000E+00 0. -1.
         24    2    1    2    0    0 -0.51487894934E+02 -0.19111990713E+02 -0.21707846611E+02  0.96806663353E+02  0.76707417838E+02 0.  0.
         23    2    1    2    0    0  0.28501519965E+02  0.64337205511E+02  0.12316253964E+03  0.16879877466E+03  0.91500833356E+02 0.  0.
        -11    1    3    3    0    0 -0.41764838680E+02 -0.28168709721E+02  0.19110954963E+02  0.53879556020E+02  0.00000000000E+00 0.  1.
         12    1    3    3    0    0 -0.97230562545E+01  0.90567190078E+01 -0.40818801574E+02  0.42927107333E+02  0.00000000000E+00 0. -1.
        -11    1    4    4    0    0  0.20566897244E+02 -0.21038878950E+02  0.26621841035E+02  0.39678131380E+02  0.00000000000E+00 0. -1.
         11    1    4    4    0    0  0.79346227217E+01  0.85376084461E+02  0.96540698603E+02  0.12912064328E+03  0.00000000000E+00 0.  1.
         21    1    1    2  503  502  0.45710076543E+02 -0.27423926244E+02 -0.78812338377E+02  0.95146558049E+02  0.00000000000E+00 0.  1.
          1    1    1    2  501    0 -0.22723701574E+02 -0.17801288554E+02  0.98566352811E+02  0.10270627242E+03  0.00000000000E+00 0. -1.
<scales pt_clust_5="13000.00000" pt_clust_6="13000.00000" pt_clust_7="13000.00000" pt_clust_8="13000.00000" pt_clust_9="52.87803" pt_clust_10="28.86611"></scales>
<clustering>
<clus scale="   28.866">  1 10  2 -1</clus>
<clus scale="   52.878">  2  9  1 -1</clus>
<clus scale="   76.707">  5  6 -1 -1</clus>
<clus scale="   91.092">  2  5  1 -1</clus>
<clus scale="   91.501">  7  8 -1 -1</clus>
<clus scale="   28.866">  1  5  2 -1</clus>
</clustering>
</event>
<event>
10    4  0.3738096E-005  0.1155888E+03  0.7546771E-02  0.1254338E+00
         21   -1    0    0  501  502  0.00000000000E+00  0.00000000000E+00  0.66737173051E+02  0.66737173051E+02  0.00000000000E+00 0. -1.
          2   -1    0    0  503    0 -0.00000000000E+00 -0.00000000000E+00 -0.59288168259E+03  0.59288168259E+03  0.00000000000E+00 0. -1.
         23    2    1    2    0    0 -0.33876105478E+02 -0.83311042481E+02 -0.32925086171E+03  0.35311845541E+03  0.90543874950E+02 0.  0.
         24    2    1    2    0    0 -0.24783004123E+02  0.55926085762E+02 -0.10917105390E+03  0.14829745373E+03  0.79573182742E+02 0.  0.
        -13    1    4    4    0    0 -0.18203593382E+02  0.60760933657E+02 -0.32644751268E+02  0.71336818377E+02  0.00000000000E+00 0.  1.
         14    1    4    4    0    0 -0.65794107408E+01 -0.48348478945E+01 -0.76526302628E+02  0.76960635352E+02  0.00000000000E+00 0. -1.
        -13    1    3    3    0    0  0.29582800734E+02 -0.34216585763E+02 -0.15130072868E+03  0.15791715340E+03  0.00000000000E+00 0.  1.
         13    1    3    3    0    0 -0.63458906211E+02 -0.49094456718E+02 -0.17795013303E+03  0.19520130200E+03  0.00000000000E+00 0. -1.
         21    1    1    2  503  502 -0.17617475764E+02  0.10366127604E+02 -0.76579180520E+02  0.79260349122E+02  0.00000000000E+00 0. -1.
          1    1    1    2  501    0  0.76276585365E+02  0.17018829115E+02 -0.11143413414E+02  0.78942597385E+02  0.00000000000E+00 0. -1.
<scales pt_clust_5="13000.00000" pt_clust_6="13000.00000" pt_clust_7="13000.00000" pt_clust_8="13000.00000" pt_clust_9="20.44094" pt_clust_10="76.85529"></scales>
<clustering>
<clus scale="   20.441">  2  9  1 -1</clus>
<clus scale="   76.855">  1 10  2 -1</clus>
<clus scale="   79.573">  5  6 -1 -1</clus>
<clus scale="   90.544">  7  8 -1 -1</clus>
<clus scale="  107.212">  1  5  2 -1</clus>
<clus scale="   76.855">  1  5  2 -1</clus>
</clustering>
</event>
<event>
10    4  0.3738096E-005  0.1001085E+03  0.7546771E-02  0.1294244E+00
          2   -1    0    0  503    0 -0.00000000000E+00  0.00000000000E+00  0.13278204007E+04  0.13278204007E+04  0.00000000000E+00 0. -1.
         21   -1    0    0  501  502  0.00000000000E+00 -0.00000000000E+00 -0.14615637000E+02  0.14615637000E+02  0.00000000000E+00 0.  1.
         23    2    1    2    0    0  0.11969794302E+02 -0.61752294692E+02  0.44255662524E+03  0.45597544888E+03  0.90003453061E+02 0.  0.
         24    2    1    2    0    0 -0.50931880721E+02  0.21778665003E+01  0.33716087318E+03  0.34674739082E+03  0.62908656505E+02 0.  0.
        -11    1    4    4    0    0 -0.53375066871E+02 -0.10122246732E+02  0.32417217811E+03  0.32869280294E+03  0.00000000000E+00 0.  1.
         12    1    4    4    0    0  0.24431861503E+01  0.12300113233E+02  0.12988695069E+02  0.18054587885E+02  0.00000000000E+00 0. -1.
        -11    1    3    3    0    0  0.36234449592E+02  0.68868371581E+01  0.15906786507E+03  0.16328793452E+03  0.00000000000E+00 0.  1.
         11    1    3    3    0    0 -0.24264655290E+02 -0.68639131850E+02  0.28348876017E+03  0.29268751436E+03  0.00000000000E+00 0. -1.
         21    1    1    2  503  502  0.18821164043E+02  0.58401653395E+02  0.38422188749E+03  0.38909053980E+03  0.00000000000E+00 0. -1.
          1    1    1    2  501    0  0.20140922376E+02  0.11727747966E+01  0.14926537775E+03  0.15062265816E+03  0.00000000000E+00 0. -1.
<scales pt_clust_5="13000.00000" pt_clust_6="13000.00000" pt_clust_7="13000.00000" pt_clust_8="13000.00000" pt_clust_9="62.71967" pt_clust_10="20.17505"></scales>
<clustering>
<clus scale="   20.175">  2 10  1 -1</clus>
<clus scale="   62.720">  1  9  2 -1</clus>
<clus scale="   62.909">  5  6 -1 -1</clus>
<clus scale="   76.672">  2  5  1 -1</clus>
<clus scale="   90.003">  7  8 -1 -1</clus>
<clus scale="   20.175">  2  5  1 -1</clus>
</clustering>
</event>
<event>
10    4  0.3738096E-005  0.2594093E+03  0.7546771E-02  0.1131427E+00
          2   -1    0    0  503    0 -0.00000000000E+00  0.00000000000E+00  0.27535449357E+04  0.27535449357E+04  0.00000000000E+00 0. -1.
         21   -1    0    0  501  502  0.00000000000E+00 -0.00000000000E+00 -0.48083296918E+02  0.48083296918E+02  0.00000000000E+00 0. -1.
         24    2    1    2    0    0  0.65291681437E+02  0.10542195875E+03  0.31541931577E+03  0.34823313993E+03  0.80001137064E+02 0.  0.
         23    2    1    2    0    0 -0.21010029746E+03  0.89105990984E+02  0.84810777232E+03  0.88425493580E+03  0.10265469006E+03 0.  0.
        -13    1    3    3    0    0  0.48658382872E+02  0.53818249074E+02  0.86108406806E+02  0.11259973304E+03  0.00000000000E+00 0.  1.
         14    1    3    3    0    0  0.16633298564E+02  0.51603709677E+02  0.22931090896E+03  0.23563340689E+03  0.00000000000E+00 0. -1.
        -11    1    4    4    0    0 -0.15663732341E+03  0.10904541672E+03  0.59788447811E+03  0.62760816052E+03  0.00000000000E+00 0. -1.
         11    1    4    4    0    0 -0.53462974049E+02 -0.19939425735E+02  0.25022329421E+03  0.25664677527E+03  0.00000000000E+00 0.  1.
         21    1    1    2  503  502 -0.29412759647E+02 -0.28605780938E+01  0.10650964177E+03  0.11053323992E+03  0.00000000000E+00 0. -1.
          1    1    1    2  501    0  0.17422137567E+03 -0.19166737164E+03  0.14354249089E+04  0.14586069170E+04  0.00000000000E+00 0. -1.
<scales pt_clust_5="13000.00000" pt_clust_6="13000.00000" pt_clust_7="13000.00000" pt_clust_8="13000.00000" pt_clust_9="29.55154" pt_clust_10="238.23366"></scales>
<clustering>
<clus scale="   29.552">  2  9  1 -1</clus>
<clus scale="   80.001">  5  6 -1 -1</clus>
<clus scale="  102.655">  7  8 -1 -1</clus>
<clus scale="  142.496">  1  5  2 -1</clus>
<clus scale="  238.234">  2 10  1 -1</clus>
<clus scale="   29.552">  2  5  1 -1</clus>
</clustering>
</event>
<event>
10    4  0.3738096E-005  0.9697811E+02  0.7546771E-02  0.1313656E+00
          4   -1    0    0  503    0 -0.00000000000E+00  0.00000000000E+00  0.69505262288E+03  0.69505262288E+03  0.00000000000E+00 0. -1.
         21   -1    0    0  501  502  0.00000000000E+00 -0.00000000000E+00 -0.27424312046E+02  0.27424312046E+02  0.00000000000E+00 0.  1.
         23    2    1    2    0    0  0.21056144295E+02  0.51201346990E+01  0.28881088204E+03  0.30395103792E+03  0.92222182150E+02 0.  0.
         24    2    1    2    0    0 -0.24483620415E+02 -0.24399032949E+02  0.85223500519E+02  0.10512034180E+03  0.50916409359E+02 0.  0.
        -13    1    4    4    0    0 -0.18296972799E+02 -0.21058871183E+02  0.91522996752E+02  0.95680270712E+02  0.00000000000E+00 0.  1.
         14    1    4    4    0    0 -0.61866476164E+01 -0.33401617658E+01 -0.62994962330E+01  0.94400710877E+01  0.00000000000E+00 0. -1.
        -11    1    3    3    0    0 -0.29426190918E+01 -0.40641223267E+02  0.16131991241E+03  0.16638654445E+03  0.00000000000E+00 0. -1.
         11    1    3    3    0    0  0.23998763387E+02  0.45761357966E+02  0.12749096963E+03  0.13756449347E+03  0.00000000000E+00 0.  1.
         21    1    1    2  503  502  0.24092014895E+02 -0.21128882089E+02  0.24432986439E+03  0.24642227471E+03  0.00000000000E+00 0. -1.
          3    1    1    2  501    0 -0.20664538776E+02  0.40407780338E+02  0.49264063887E+02  0.66983280491E+02  0.00000000000E+00 0. -1.
<scales pt_clust_5="13000.00000" pt_clust_6="13000.00000" pt_clust_7="13000.00000" pt_clust_8="13000.00000" pt_clust_9="32.04458" pt_clust_10="41.56388"></scales>
<clustering>
<clus scale="   32.045">  1  9  2 -1</clus>
<clus scale="   41.564">  2 10  1 -1</clus>
<clus scale="   50.916">  5  6 -1 -1</clus>
<clus scale="   59.096">  2  5  1 -1</clus>
<clus scale="   92.222">  7  8 -1 -1</clus>
<clus scale="   41.564">  2  5  1 -1</clus>
</clustering>
</event>
<event>
10    4  0.3738096E-005  0.1428164E+03  0.7546771E-02  0.1226789E+00
         21   -1    0    0  501  502  0.00000000000E+00  0.00000000000E+00  0.96392871983E+02  0.96392871983E+02  0.00000000000E+00 0. -1.
          2   -1    0    0  503    0 -0.00000000000E+00 -0.00000000000E+00 -0.68772331137E+03  0.68772331137E+03  0.00000000000E+00 0. -1.
         24    2    1    2    0    0 -0.23880706669E+01 -0.38631453990E+02 -0.11713900838E+02  0.98604486974E+02  0.89930735901E+02 0.  0.
         23    2    1    2    0    0  0.12246558959E+03 -0.38238687621E+01 -0.26593992320E+03  0.30655711556E+03  0.90778740586E+02 0.  0.
        -13    1    3    3    0    0 -0.27517040188E+01  0.29550017160E+02 -0.21663506187E+01  0.29756822145E+02  0.00000000000E+00 0.  1.
         14    1    3    3    0    0  0.36363335192E+00 -0.68181471149E+02 -0.95475502194E+01  0.68847664830E+02  0.00000000000E+00 0. -1.
        -13    1    4    4    0    0  0.29426921101E+02  0.39506227032E+02 -0.73940728898E+02  0.88847718315E+02  0.00000000000E+00 0.  1.
         13    1    4    4    0    0  0.93038668493E+02 -0.43330095794E+02 -0.19199919431E+03  0.21770939725E+03  0.00000000000E+00 0. -1.
         21    1    1    2  503  502 -0.31592752607E+02 -0.26221080434E+02 -0.24314892643E+03  0.24659085040E+03  0.00000000000E+00 0.  1.
          1    1    1    2  501    0 -0.88484766320E+02  0.68676403186E+02 -0.70527688911E+02  0.13236373041E+03  0.00000000000E+00 0. -1.
<scales pt_clust_5="13000.00000" pt_clust_6="13000.00000" pt_clust_7="13000.00000" pt_clust_8="13000.00000" pt_clust_9="41.05663" pt_clust_10="110.25309"></scales>
<clustering>
<clus scale="   41.057">  2  9  1 -1</clus>
<clus scale="   89.931">  5  6 -1 -1</clus>
<clus scale="   90.779">  7  8 -1 -1</clus>
<clus scale="   99.413">  2  5  1 -1</clus>
<clus scale="  110.253">  1 10  2 -1</clus>
<clus scale="  110.253">  1  5  2 -1</clus>
</clustering>
</event>
<event>
10    4  0.3738096E-005  0.9415006E+02  0.7546771E-02  0.1296209E+00
         21   -1    0    0  501  502  0.00000000000E+00  0.00000000000E+00  0.16104674612E+03  0.16104674612E+03  0.00000000000E+00 0. -1.
          2   -1    0    0  503    0 -0.00000000000E+00 -0.00000000000E+00 -0.25854184635E+03  0.25854184635E+03  0.00000000000E+00 0. -1.
         24    2    1    2    0    0 -0.77187294571E+01 -0.36714395115E+02 -0.84603391335E+02  0.12384831222E+03  0.82299119208E+02 0.  0.
         23    2    1    2    0    0 -0.29811002642E+01 -0.82462271550E+00  0.25819715687E+02  0.91741151011E+02  0.87978486628E+02 0.  0.
        -11    1    3    3    0    0 -0.28526541181E+02 -0.27260757356E+02 -0.35302283527E+01  0.39615337378E+02  0.00000000000E+00 0.  1.
         12    1    3    3    0    0  0.20807811724E+02 -0.94536377589E+01 -0.81073162982E+02  0.84232974847E+02  0.00000000000E+00 0. -1.
        -11    1    4    4    0    0 -0.45282456585E+02 -0.58658854043E+00  0.17946710683E+02  0.48712723029E+02  0.00000000000E+00 0. -1.
         11    1    4    4    0    0  0.42301356321E+02 -0.23803417507E+00  0.78730050033E+01  0.43028427983E+02  0.00000000000E+00 0.  1.
         21    1    1    2  503  502 -0.42075628364E+02 -0.20220815762E+00 -0.10385646229E+03  0.11205607591E+03  0.00000000000E+00 0.  1.
          1    1    1    2  501    0  0.52775458085E+02  0.37741225988E+02  0.65145037705E+02  0.91943053314E+02  0.00000000000E+00 0. -1.
<scales pt_clust_5="13000.00000" pt_clust_6="13000.00000" pt_clust_7="13000.00000" pt_clust_8="13000.00000" pt_clust_9="42.07611" pt_clust_10="61.86388"></scales>
<clustering>
<clus scale="   42.076">  2  9  1 -1</clus>
<clus scale="   61.864">  1 10  2 -1</clus>
<clus scale="   82.299">  5  6 -1 -1</clus>
<clus scale="   87.978">  7  8 -1 -1</clus>
<clus scale="   88.866">  2  5  1 -1</clus>
<clus scale="   61.864">  1  5  2 -1</clus>
</clustering>
</event>
<event>
10    4  0.3738096E-005  0.1015810E+03  0.7546771E-02  0.1284435E+00
         21   -1    0    0  503  502  0.00000000000E+00  0.00000000000E+00  0.10655770860E+04  0.10655770860E+04  0.00000000000E+00 0.  1.
         -3   -1    0    0    0  501 -0.00000000000E+00 -0.00000000000E+00 -0.38783845608E+02  0.38783845608E+02  0.00000000000E+00 0.  1.
         23    2    1    2    0    0  0.33949287370E+02 -0.44566284978E+02  0.10077151934E+03  0.14883161492E+03  0.94112924826E+02 0.  0.
         24    2    1    2    0    0 -0.35940501870E+02  0.16888390944E+02  0.77766649399E+03  0.78272621497E+03  0.79487195837E+02 0.  0.
        -13    1    4    4    0    0 -0.31324230852E+02 -0.24265975820E+02  0.22120170296E+03  0.22472258101E+03  0.00000000000E+00 0.  1.
         14    1    4    4    0    0 -0.46162710186E+01  0.41154366764E+02  0.55646479103E+03  0.55800363396E+03  0.00000000000E+00 0. -1.
        -11    1    3    3    0    0  0.41243095183E+02 -0.67849687238E+02  0.53831845410E+02  0.95929351810E+02  0.00000000000E+00 0.  1.
         11    1    3    3    0    0 -0.72938078124E+01  0.23283402260E+02  0.46939673932E+02  0.52902263109E+02  0.00000000000E+00 0. -1.
         21    1    1    2  503  501 -0.15619502792E+02  0.13384902948E+02 -0.20733911029E+01  0.20674221752E+02  0.00000000000E+00 0. -1.
         -4    1    1    2    0  502  0.17610717292E+02  0.14292991086E+02  0.15042861813E+03  0.15212887993E+03  0.00000000000E+00 0.  1.
<scales pt_clust_5="13000.00000" pt_clust_6="13000.00000" pt_clust_7="13000.00000" pt_clust_8="13000.00000" pt_clust_9="20.56999" pt_clust_10="22.57517"></scales>
<clustering>
<clus scale="   20.570">  2  9  1 -1</clus>
<clus scale="   22.575">  1 10  2 -1</clus>
<clus scale="   79.487">  5  6 -1 -1</clus>
<clus scale="   88.202">  1  5  2 -1</clus>
<clus scale="   94.113">  7  8 -1 -1</clus>
<clus scale="   22.575">  1  5  2 -1</clus>
</clustering>
</event>
<event>
10    4  0.3738096E-005  0.1913891E+03  0.7546771E-02  0.1198503E+00
         -1   -1    0    0    0  501 -0.00000000000E+00  0.00000000000E+00  0.51275303727E+03  0.51275303727E+03  0.00000000000E+00 0.  1.
         21   -1    0    0  503  502  0.00000000000E+00 -0.00000000000E+00 -0.15612517643E+03  0.15612517643E+03  0.00000000000E+00 0.  1.
         24    2    1    2    0    0  0.40787327301E+01 -0.24735343069E+02  0.76717463059E+02  0.10801577006E+03  0.71786936046E+02 0.  0.
         23    2    1    2    0    0 -0.12458876779E+03 -0.10245309036E+03 -0.19706350313E+02  0.18683403378E+03  0.92193379132E+02 0.  0.
        -13    1    3    3    0    0 -0.47353652868E+01  0.24216706912E+02  0.36466225982E+02  0.44030196632E+02  0.00000000000E+00 0.  1.
         14    1    3    3    0    0  0.88140980169E+01 -0.48952049982E+02  0.40251237078E+02  0.63985573433E+02  0.00000000000E+00 0. -1.
        -11    1    4    4    0    0 -0.47335761004E+02 -0.76653319777E+02  0.25568249921E+02  0.93649031531E+02  0.00000000000E+00 0. -1.
         11    1    4    4    0    0 -0.77253006782E+02 -0.25799770578E+02 -0.45274600233E+02  0.93185002254E+02  0.00000000000E+00 0.  1.
         21    1    1    2  503  501 -0.29826727817E+02  0.94634508338E+01  0.27868474285E+02  0.41902773809E+02  0.00000000000E+00 0.  1.
         -2    1    1    2    0  502  0.15033676287E+03  0.11772498259E+03  0.27174827381E+03  0.33212563604E+03  0.00000000000E+00 0.  1.
<scales pt_clust_5="13000.00000" pt_clust_6="13000.00000" pt_clust_7="13000.00000" pt_clust_8="13000.00000" pt_clust_9="31.29202" pt_clust_10="167.72061"></scales>
<clustering>
<clus scale="   31.292">  1  9  2 -1</clus>
<clus scale="   71.787">  5  6 -1 -1</clus>
<clus scale="   75.372">  1  5  2 -1</clus>
<clus scale="   92.193">  7  8 -1 -1</clus>
<clus scale="  167.721">  2 10  1 -1</clus>
<clus scale="  167.721">  2  5  1 -1</clus>
</clustering>
</event>
<event>
10    4  0.3738096E-005  0.1879765E+03  0.7546771E-02  0.1194777E+00
          2   -1    0    0  503    0 -0.00000000000E+00  0.00000000000E+00  0.12372625047E+04  0.12372625047E+04  0.00000000000E+00 0. -1.
         21   -1    0    0  501  502  0.00000000000E+00 -0.00000000000E+00 -0.16512210035E+03  0.16512210035E+03  0.00000000000E+00 0.  1.
         23    2    1    2    0    0  0.17130533323E+03 -0.19442106709E+02  0.22927691284E+03  0.30083142837E+03  0.90598746286E+02 0.  0.
         24    2    1    2    0    0 -0.29999026174E+02  0.24922956126E+02  0.33854975815E+02  0.95886702049E+02  0.80789881352E+02 0.  0.
        -13    1    4    4    0    0 -0.22295892558E+02 -0.23711542501E+02 -0.52995757401E+01  0.32976197109E+02  0.00000000000E+00 0.  1.
         14    1    4    4    0    0 -0.77031336156E+01  0.48634498628E+02  0.39154551555E+02  0.62910504940E+02  0.00000000000E+00 0. -1.
        -11    1    3    3    0    0  0.12056341131E+03 -0.53167430149E+02  0.17625175047E+03  0.22006133536E+03  0.00000000000E+00 0.  1.
         11    1    3    3    0    0  0.50741921922E+02  0.33725323440E+02  0.53025162370E+02  0.80770093016E+02  0.00000000000E+00 0. -1.
         21    1    1    2  503  502 -0.16327350022E+03  0.13341454135E+01  0.89852627805E+03  0.91324119933E+03  0.00000000000E+00 0. -1.
          1    1    1    2  501    0  0.21967193165E+02 -0.68149948308E+01 -0.89517762369E+02  0.92425275275E+02  0.00000000000E+00 0. -1.
<scales pt_clust_5="13000.00000" pt_clust_6="13000.00000" pt_clust_7="13000.00000" pt_clust_8="13000.00000" pt_clust_9="164.70288" pt_clust_10="23.00004"></scales>
<clustering>
<clus scale="   23.000">  2 10  1 -1</clus>
<clus scale="   80.790">  5  6 -1 -1</clus>
<clus scale="   86.298">  2  5  1 -1</clus>
<clus scale="   90.599">  7  8 -1 -1</clus>
<clus scale="  164.703">  1  9  2 -1</clus>
<clus scale="   23.000">  2  5  1 -1</clus>
</clustering>
</event>
<event>
10    4  0.3738096E-005  0.1379784E+03  0.7546771E-02  0.1235124E+00
         21   -1    0    0  501  502  0.00000000000E+00  0.00000000000E+00  0.28147273776E+03  0.28147273776E+03  0.00000000000E+00 0.  1.
          2   -1    0    0  503    0 -0.00000000000E+00 -0.00000000000E+00 -0.66655599089E+03  0.66655599089E+03  0.00000000000E+00 0. -1.
         24    2    1    2    0    0  0.11074892143E+02 -0.87778780897E+02 -0.10570851138E+03  0.15950817968E+03  0.80254609810E+02 0.  0.
         23    2    1    2    0    0 -0.89833655362E+01 -0.16689281866E+02  0.11953954975E+03  0.15013180230E+03  0.88829168182E+02 0.  0.
        -11    1    3    3    0    0  0.41540820552E+02 -0.43214365221E+02 -0.31423096627E+02  0.67679628657E+02  0.00000000000E+00 0.  1.
         12    1    3    3    0    0 -0.30465928408E+02 -0.44564415676E+02 -0.74285414756E+02  0.91828551027E+02  0.00000000000E+00 0. -1.
        -11    1    4    4    0    0 -0.34835295333E+02 -0.15136734768E+02  0.11825115783E+03  0.12420126758E+03  0.00000000000E+00 0.  1.
         11    1    4    4    0    0  0.25851929797E+02 -0.15525470984E+01  0.12883919182E+01  0.25930534712E+02  0.00000000000E+00 0. -1.
         21    1    1    2  503  502 -0.22220417692E+02  0.11613559848E+03 -0.51069894002E+03  0.52420857636E+03  0.00000000000E+00 0. -1.
          1    1    1    2  501    0  0.20128891085E+02 -0.11667535714E+02  0.11178464852E+03  0.11418017030E+03  0.00000000000E+00 0. -1.
<scales pt_clust_5="13000.00000" pt_clust_6="13000.00000" pt_clust_7="13000.00000" pt_clust_8="13000.00000" pt_clust_9="112.23741" pt_clust_10="23.26593"></scales>
<clustering>
<clus scale="   23.266">  1 10  2 -1</clus>
<clus scale="   80.255">  5  6 -1 -1</clus>
<clus scale="   88.829">  7  8 -1 -1</clus>
<clus scale="   92.837">  1  7  2 -1</clus>
<clus scale="  112.237">  2  9  1 -1</clus>
<clus scale="   23.266">  1  5  2 -1</clus>
</clustering>
</event>
<event>
10    4  0.3738096E-005  0.1018131E+03  0.7546771E-02  0.1281543E+00
         21   -1    0    0  503  502  0.00000000000E+00  0.00000000000E+00  0.12476971161E+03  0.12476971161E+03  0.00000000000E+00 0. -1.
         -3   -1    0    0    0  501 -0.00000000000E+00 -0.00000000000E+00 -0.22232414254E+03  0.22232414254E+03  0.00000000000E+00 0.  1.
         23    2    1    2    0    0  0.50967152983E+02 -0.89328214297E+01 -0.98735193668E+02  0.14428224518E+03  0.91603939996E+02 0.  0.
         24    2    1    2    0    0 -0.48747692059E+02 -0.30309375175E+02 -0.30623055446E+02  0.10402122856E+03  0.81164331828E+02 0.  0.
        -13    1    4    4    0    0 -0.64841448621E+02 -0.13483067668E+02 -0.41672854531E+02  0.78248535946E+02  0.00000000000E+00 0.  1.
         14    1    4    4    0    0  0.16093756562E+02 -0.16826307507E+02  0.11049799085E+02  0.25772692611E+02  0.00000000000E+00 0. -1.
        -13    1    3    3    0    0  0.53161162078E+02  0.33410107076E+02 -0.57546001829E+02  0.85169752465E+02  0.00000000000E+00 0.  1.
         13    1    3    3    0    0 -0.21940090949E+01 -0.42342928506E+02 -0.41189191838E+02  0.59112492713E+02  0.00000000000E+00 0. -1.
         21    1    1    2  503  501 -0.23868604660E+02  0.64689665063E+01 -0.21369206615E+02  0.32683341436E+02  0.00000000000E+00 0.  1.
         -4    1    1    2    0  502  0.21649143736E+02  0.32773230098E+02  0.53173024801E+02  0.66107038975E+02  0.00000000000E+00 0.  1.
<scales pt_clust_5="13000.00000" pt_clust_6="13000.00000" pt_clust_7="13000.00000" pt_clust_8="13000.00000" pt_clust_9="24.72970" pt_clust_10="39.02896"></scales>
<clustering>
<clus scale="   24.730">  2  9  1 -1</clus>
<clus scale="   39.029">  1 10  2 -1</clus>
<clus scale="   81.164">  5  6 -1 -1</clus>
<clus scale="   91.604">  7  8 -1 -1</clus>
<clus scale="   92.533">  1  5  2 -1</clus>
<clus scale="   39.029">  1  5  2 -1</clus>
</clustering>
</event>
<event>
10    4  0.3738096E-005  0.1829701E+03  0.7546771E-02  0.1166850E+00
         -3   -1    0    0    0  501 -0.00000000000E+00  0.00000000000E+00  0.30631279354E+03  0.30631279354E+03  0.00000000000E+00 0.  1.
         21   -1    0    0  503  502  0.00000000000E+00 -0.00000000000E+00 -0.43568678385E+03  0.43568678385E+03  0.00000000000E+00 0.  1.
         23    2    1    2    0    0  0.10200213814E+03  0.32386583868E+02 -0.69192605826E+02  0.15853542426E+03  0.94300249431E+02 0.  0.
         24    2    1    2    0    0 -0.19987348125E+03 -0.53306800025E+02 -0.23550765334E+03  0.32303999588E+03  0.78102245287E+02 0.  0.
        -11    1    4    4    0    0 -0.15149480112E+03 -0.70606498721E+02 -0.15766294945E+03  0.22976848795E+03  0.00000000000E+00 0.  1.
         12    1    4    4    0    0 -0.48378680126E+02  0.17299698696E+02 -0.77844703897E+02  0.93271507924E+02  0.00000000000E+00 0. -1.
        -11    1    3    3    0    0  0.10586768797E+03  0.42688137343E+00 -0.68950147276E+02  0.12634188693E+03  0.00000000000E+00 0.  1.
         11    1    3    3    0    0 -0.38655498331E+01  0.31959702495E+02 -0.24245854995E+00  0.32193537321E+02  0.00000000000E+00 0. -1.
         21    1    1    2  503  501  0.94632981013E+02  0.77319278520E+02  0.16103367900E+03  0.20215221418E+03  0.00000000000E+00 0.  1.
         -4    1    1    2    0  502  0.32383620925E+01 -0.56399062363E+02  0.14292589862E+02  0.58271943072E+02  0.00000000000E+00 0.  1.
<scales pt_clust_5="13000.00000" pt_clust_6="13000.00000" pt_clust_7="13000.00000" pt_clust_8="13000.00000" pt_clust_9="120.57606" pt_clust_10="56.49199"></scales>
<clustering>
<clus scale="   56.492">  2 10  1 -1</clus>
<clus scale="   78.102">  5  6 -1 -1</clus>
<clus scale="   94.300">  7  8 -1 -1</clus>
<clus scale="  120.576">  1  9  2 -1</clus>
<clus scale="  175.173">  2  5  1 -1</clus>
<clus scale="   56.492">  2  5  1 -1</clus>
</clustering>
</event>
<event>
10    4  0.3738096E-005  0.2515892E+03  0.7546771E-02  0.1128053E+00
          2   -1    0    0  503    0 -0.00000000000E+00  0.00000000000E+00  0.87468158581E+03  0.87468158581E+03  0.00000000000E+00 0. -1.
         21   -1    0    0  501  502  0.00000000000E+00 -0.00000000000E+00 -0.24178358693E+03  0.24178358693E+03  0.00000000000E+00 0.  1.
         24    2    1    2    0    0 -0.10021745905E+03  0.10702749075E+03  0.12468421541E+03  0.20812402677E+03  0.79189860911E+02 0.  0.
         23    2    1    2    0    0 -0.11399127200E+03 -0.17272603427E+03 -0.76674887376E+02  0.23842750971E+03  0.90223866180E+02 0.  0.
        -11    1    3    3    0    0 -0.87186458155E+02  0.52290230255E+02  0.46491564116E+02  0.11179093076E+03  0.00000000000E+00 0.  1.
         12    1    3    3    0    0 -0.13031000898E+02  0.54737260499E+02  0.78192651292E+02  0.96333096013E+02  0.00000000000E+00 0. -1.
        -13    1    4    4    0    0 -0.45887622459E+02 -0.20123488456E+02 -0.47007727232E+02  0.68704840456E+02  0.00000000000E+00 0.  1.
         13    1    4    4    0    0 -0.68103649536E+02 -0.15260254581E+03 -0.29667160144E+02  0.16972266926E+03  0.00000000000E+00 0. -1.
         21    1    1    2  503  502  0.26082561645E+03  0.84582029036E+02  0.51946724186E+03  0.58739283039E+03  0.00000000000E+00 0. -1.
          1    1    1    2  501    0 -0.46616885400E+02 -0.18883485523E+02  0.65421428988E+02  0.82520805866E+02  0.00000000000E+00 0. -1.
<scales pt_clust_5="13000.00000" pt_clust_6="13000.00000" pt_clust_7="13000.00000" pt_clust_8="13000.00000" pt_clust_9="234.85475" pt_clust_10="50.29635"></scales>
<clustering>
<clus scale="   50.296">  2 10  1 -1</clus>
<clus scale="   79.190">  5  6 -1 -1</clus>
<clus scale="   90.224">  7  8 -1 -1</clus>
<clus scale="  169.702">  1  5  2 -1</clus>
<clus scale="  234.855">  1  9  2 -1</clus>
<clus scale="   50.296">  2  5  1 -1</clus>
</clustering>
</event>
<event>
10    4  0.3738096E-005  0.1322499E+03  0.7546771E-02  0.1226015E+00
         21   -1    0    0  501  502  0.00000000000E+00  0.00000000000E+00  0.14617525549E+03  0.14617525549E+03  0.00000000000E+00 0. -1.
          4   -1    0    0  503    0 -0.00000000000E+00 -0.00000000000E+00 -0.26337904198E+03  0.26337904198E+03  0.00000000000E+00 0. -1.
         24    2    1    2    0    0 -0.12270509944E+03 -0.66673883209E+02 -0.81735318903E+02  0.18092301347E+03  0.80935321814E+02 0.  0.
         23    2    1    2    0    0  0.40700136512E+02  0.40175436938E+02  0.15794732159E+02  0.10664746949E+03  0.88620778254E+02 0.  0.
        -13    1    3    3    0    0 -0.46886604727E+02 -0.43601047063E+02 -0.78914443478E+02  0.10162132846E+03  0.00000000000E+00 0.  1.
         14    1    3    3    0    0 -0.75818494712E+02 -0.23072836146E+02 -0.28208754258E+01  0.79301685016E+02  0.00000000000E+00 0. -1.
        -11    1    4    4    0    0  0.93124870586E+01  0.30262586921E+02 -0.34316714249E+02  0.46692434711E+02  0.00000000000E+00 0.  1.
         11    1    4    4    0    0  0.31387649453E+02  0.99128500174E+01  0.50111446408E+02  0.59955034774E+02  0.00000000000E+00 0. -1.
         21    1    1    2  503  502  0.42091174245E+02 -0.16926580816E+02 -0.42851404306E+02  0.62405279732E+02  0.00000000000E+00 0.  1.
          3    1    1    2  501    0  0.39913788683E+02  0.43425027087E+02 -0.84117954431E+01  0.59578534784E+02  0.00000000000E+00 0. -1.
<scales pt_clust_5="13000.00000" pt_clust_6="13000.00000" pt_clust_7="13000.00000" pt_clust_8="13000.00000" pt_clust_9="45.36713" pt_clust_10="61.94559"></scales>
<clustering>
<clus scale="   45.367">  2  9  1 -1</clus>
<clus scale="   61.946">  1 10  2 -1</clus>
<clus scale="   80.935">  5  6 -1 -1</clus>
<clus scale="   88.621">  7  8 -1 -1</clus>
<clus scale="  127.228">  2  5  1 -1</clus>
<clus scale="   61.946">  1  5  2 -1</clus>
</clustering>
</event>
<event>
10    4  0.3738096E-005  0.1313787E+03  0.7546771E-02  0.1229268E+00
         -1   -1    0    0    0  501 -0.00000000000E+00  0.00000000000E+00  0.15107782937E+03  0.15107782937E+03  0.00000000000E+00 0.  1.
         21   -1    0    0  503  502  0.00000000000E+00 -0.00000000000E+00 -0.70282342587E+03  0.70282342587E+03  0.00000000000E+00 0.  1.
         23    2    1    2    0    0 -0.23235883250E+02  0.83938533546E+02 -0.27630937442E+02  0.13185005726E+03  0.95054643292E+02 0.  0.
         24    2    1    2    0    0  0.66905886086E+02 -0.43194418188E+02 -0.60062716778E+03  0.61121717061E+03  0.80568477808E+02 0.  0.
        -11    1    4    4    0    0  0.62844642593E+02 -0.63354703537E+02 -0.53656510700E+03  0.54393508952E+03  0.00000000000E+00 0.  1.
         12    1    4    4    0    0  0.40612434929E+01  0.20160285350E+02 -0.64062060784E+02  0.67282081091E+02  0.00000000000E+00 0. -1.
        -11    1    3    3    0    0  0.32587284490E+02  0.59779492557E+02 -0.13733004086E+02  0.69455843829E+02  0.00000000000E+00 0.  1.
         11    1    3    3    0    0 -0.55823167741E+02  0.24159040989E+02 -0.13897933356E+02  0.62394213431E+02  0.00000000000E+00 0. -1.
         21    1    1    2  503  501 -0.23523474143E+02  0.90429798422E+01  0.34078920287E+02  0.42385164009E+02  0.00000000000E+00 0.  1.
         -2    1    1    2    0  502 -0.20146528693E+02 -0.49787095201E+02  0.42433588444E+02  0.68448863359E+02  0.00000000000E+00 0.  1.
<scales pt_clust_5="13000.00000" pt_clust_6="13000.00000" pt_clust_7="13000.00000" pt_clust_8="13000.00000" pt_clust_9="25.20177" pt_clust_10="55.32835"></scales>
<clustering>
<clus scale="   25.202">  1  9  2 -1</clus>
<clus scale="   55.328">  2 10  1 -1</clus>
<clus scale="   80.568">  5  6 -1 -1</clus>
<clus scale="   95.055">  7  8 -1 -1</clus>
<clus scale="  121.311">  2  5  1 -1</clus>
<clus scale="   55.328">  2  5  1 -1</clus>
</clustering>
</event>
<event>
10    4  0.3738096E-005  0.1165808E+03  0.7546771E-02  0.1252029E+00
          2   -1    0    0  503    0 -0.00000000000E+00  0.00000000000E+00  0.61906809716E+03  0.61906809716E+03  0.00000000000E+00 0. -1.
         21   -1    0    0  501  502  0.00000000000E+00 -0.00000000000E+00 -0.54204539252E+03  0.54204539252E+03  0.00000000000E+00 0. -1.
         23    2    1    2    0    0  0.12793437885E+01 -0.80583056508E+02  0.54301187616E+03  0.55643183850E+03  0.90880292275E+02 0.  0.
         24    2    1    2    0    0  0.38187035827E+02  0.30455238905E+02  0.24362990516E+02  0.98065897690E+02  0.81471428739E+02 0.  0.
        -11    1    4    4    0    0  0.34697878739E+01 -0.25107925325E+02  0.20208885936E+02  0.32416761294E+02  0.00000000000E+00 0.  1.
         12    1    4    4    0    0  0.34717247953E+02  0.55563164230E+02  0.41541045808E+01  0.65649136396E+02  0.00000000000E+00 0. -1.
        -11    1    3    3    0    0 -0.20739362582E+02 -0.93419034633E+02  0.44367562871E+03  0.45387806810E+03  0.00000000000E+00 0. -1.
         11    1    3    3    0    0  0.22018706371E+02  0.12835978125E+02  0.99336247454E+02  0.10255377040E+03  0.00000000000E+00 0.  1.
         21    1    1    2  503  502  0.19559529268E+02 -0.99698311599E+01 -0.23243313168E+02  0.31972243048E+02  0.00000000000E+00 0. -1.
          1    1    1    2  501    0 -0.59025908883E+02  0.60097648763E+02 -0.46710884887E+03  0.47464351044E+03  0.00000000000E+00 0. -1.
<scales pt_clust_5="13000.00000" pt_clust_6="13000.00000" pt_clust_7="13000.00000" pt_clust_8="13000.00000" pt_clust_9="21.95388" pt_clust_10="65.49214"></scales>
<clustering>
<clus scale="   21.954">  2  9  1 -1</clus>
<clus scale="   65.492">  2 10  1 -1</clus>
<clus scale="   81.471">  5  6 -1 -1</clus>
<clus scale="   90.880">  7  8 -1 -1</clus>
<clus scale="  109.405">  2  5  1 -1</clus>
<clus scale="   21.954">  2  5  1 -1</clus>
</clustering>
</event>
<event>
10    4  0.3738096E-005  0.9991833E+02  0.7546771E-02  0.1288252E+00
         21   -1    0    0  501  502  0.00000000000E+00  0.00000000000E+00  0.98777190621E+02  0.98777190621E+02  0.00000000000E+00 0. -1.
          2   -1    0    0  503    0 -0.00000000000E+00 -0.00000000000E+00 -0.60996628246E+03  0.60996628246E+03  0.00000000000E+00 0. -1.
         24    2    1    2    0    0 -0.34895664899E+02 -0.28277861908E+02 -0.34955864441E+03  0.36080126858E+03  0.77259074718E+02 0.  0.
         23    2    1    2    0    0  0.47520890472E+02  0.17844725565E+02 -0.14283584672E+03  0.17746142577E+03  0.92270305446E+02 0.  0.
        -11    1    3    3    0    0 -0.25012841089E+02  0.24337829766E+02 -0.11331090762E+03  0.11856362833E+03  0.00000000000E+00 0.  1.
         12    1    3    3    0    0 -0.98828238100E+01 -0.52615691674E+02 -0.23624773679E+03  0.24223764025E+03  0.00000000000E+00 0. -1.
        -11    1    4    4    0    0  0.67576022820E+02  0.10355861392E+01 -0.13358204040E+03  0.14970555372E+03  0.00000000000E+00 0. -1.
         11    1    4    4    0    0 -0.20055132348E+02  0.16809139426E+02 -0.92538063210E+01  0.27755872048E+02  0.00000000000E+00 0.  1.
         21    1    1    2  503  502  0.67265227943E+01  0.24040772235E+02 -0.91071339834E+02  0.94430894191E+02  0.00000000000E+00 0.  1.
          1    1    1    2  501    0 -0.19351748367E+02 -0.13607635892E+02  0.72276739125E+02  0.76049884536E+02  0.00000000000E+00 0. -1.
<scales pt_clust_5="13000.00000" pt_clust_6="13000.00000" pt_clust_7="13000.00000" pt_clust_8="13000.00000" pt_clust_9="23.73591" pt_clust_10="23.65709"></scales>
<clustering>
<clus scale="   23.657">  1 10  2 -1</clus>
<clus scale="   23.736">  2  9  1 -1</clus>
<clus scale="   77.259">  5  6 -1 -1</clus>
<clus scale="   86.249">  2  5  1 -1</clus>
<clus scale="   92.270">  7  8 -1 -1</clus>
<clus scale="   23.657">  1  5  2 -1</clus>
</clustering>
</event>
<event>
10    4  0.3738096E-005  0.1865844E+03  0.7546771E-02  0.1164507E+00
         21   -1    0    0  501  502  0.00000000000E+00  0.00000000000E+00  0.46593011314E+03  0.46593011314E+03  0.00000000000E+00 0.  1.
          2   -1    0    0  503    0 -0.00000000000E+00 -0.00000000000E+00 -0.51951610709E+03  0.51951610709E+03  0.00000000000E+00 0. -1.
         23    2    1    2    0    0  0.79849365707E+02  0.14985809801E+03 -0.36994670080E+03  0.42013264799E+03  0.10400725807E+03 0.  0.
         24    2    1    2    0    0 -0.12046746218E+03  0.51042237072E+01  0.13276945651E+03  0.19638866431E+03  0.80014475823E+02 0.  0.
        -13    1    4    4    0    0 -0.92621512411E+02 -0.31842291397E+02  0.82374723011E+02  0.12797761943E+03  0.00000000000E+00 0.  1.
         14    1    4    4    0    0 -0.27845949770E+02  0.36946515104E+02  0.50394733501E+02  0.68411044880E+02  0.00000000000E+00 0. -1.
        -13    1    3    3    0    0  0.10050329101E+03  0.12168333062E+03 -0.33694688604E+03  0.37207653577E+03  0.00000000000E+00 0. -1.
         13    1    3    3    0    0 -0.20653925303E+02  0.28174767386E+02 -0.32999814754E+02  0.48056112218E+02  0.00000000000E+00 0.  1.
         21    1    1    2  503  502  0.82994054128E+02 -0.88566767497E+02 -0.43208211743E+02  0.12883724185E+03  0.00000000000E+00 0. -1.
          1    1    1    2  501    0 -0.42375957654E+02 -0.66395554218E+02  0.22679946208E+03  0.24008766608E+03  0.00000000000E+00 0. -1.
<scales pt_clust_5="13000.00000" pt_clust_6="13000.00000" pt_clust_7="13000.00000" pt_clust_8="13000.00000" pt_clust_9="125.74979" pt_clust_10="78.76605"></scales>
<clustering>
<clus scale="   78.766">  1 10  2 -1</clus>
<clus scale="   80.014">  5  6 -1 -1</clus>
<clus scale="  104.007">  7  8 -1 -1</clus>
<clus scale="  125.750">  1  9  2 -1</clus>
<clus scale="  174.352">  1  5  2 -1</clus>
<clus scale="   78.766">  1  5  2 -1</clus>
</clustering>
</event>
<event>
10    4  0.3738096E-005  0.9491686E+02  0.7546771E-02  0.1296195E+00
         21   -1    0    0  501  502  0.00000000000E+00  0.00000000000E+00  0.65600998369E+02  0.65600998369E+02  0.00000000000E+00 0. -1.
          2   -1    0    0  503    0 -0.00000000000E+00 -0.00000000000E+00 -0.33220891847E+03  0.33220891847E+03  0.00000000000E+00 0. -1.
         23    2    1    2    0    0  0.83733546332E+01 -0.17450654167E+02 -0.19702078996E+03  0.21727391047E+03  0.89532799010E+02 0.  0.
         24    2    1    2    0    0 -0.27261903484E+01  0.15221536842E+02 -0.19593216441E+02  0.84591144809E+02  0.80824750862E+02 0.  0.
        -11    1    4    4    0    0 -0.91565703477E+01  0.22816283664E+02 -0.48306221162E+02  0.54202551450E+02  0.00000000000E+00 0.  1.
         12    1    4    4    0    0  0.64303799993E+01 -0.75947468220E+01  0.28713004721E+02  0.30388593359E+02  0.00000000000E+00 0. -1.
        -11    1    3    3    0    0  0.14069013484E+02  0.34861908857E+02 -0.10116256488E+03  0.10792198276E+03  0.00000000000E+00 0.  1.
         11    1    3    3    0    0 -0.56956588504E+01 -0.52312563025E+02 -0.95858225072E+02  0.10935192771E+03  0.00000000000E+00 0. -1.
         21    1    1    2  503  502  0.25329175087E+02 -0.22109291155E+02 -0.45092632945E+02  0.56247074696E+02  0.00000000000E+00 0. -1.
          1    1    1    2  501    0 -0.30976339372E+02  0.24338408481E+02 -0.49012807539E+01  0.39697786856E+02  0.00000000000E+00 0. -1.
<scales pt_clust_5="13000.00000" pt_clust_6="13000.00000" pt_clust_7="13000.00000" pt_clust_8="13000.00000" pt_clust_9="33.62124" pt_clust_10="36.73487"></scales>
<clustering>
<clus scale="   33.621">  2  9  1 -1</clus>
<clus scale="   36.735">  1 10  2 -1</clus>
<clus scale="   80.825">  5  6 -1 -1</clus>
<clus scale="   86.751">  1  5  2 -1</clus>
<clus scale="   89.533">  7  8 -1 -1</clus>
<clus scale="   36.735">  1  5  2 -1</clus>
</clustering>
</event>
<event>
10    4  0.3738096E-005  0.3956854E+03  0.7546771E-02  0.1099043E+00
         21   -1    0    0  501  502  0.00000000000E+00  0.00000000000E+00  0.25202419094E+03  0.25202419094E+03  0.00000000000E+00 0. -1.
          2   -1    0    0  503    0 -0.00000000000E+00 -0.00000000000E+00 -0.12647163142E+04  0.12647163142E+04  0.00000000000E+00 0. -1.
         24    2    1    2    0    0 -0.31044855103E+02  0.38448951153E+02 -0.18623901706E+03  0.20854549200E+03  0.79775597046E+02 0.  0.
         23    2    1    2    0    0  0.35156971338E+02 -0.37001268570E+03 -0.57030199574E+03  0.68678943673E+03  0.91049238589E+02 0.  0.
        -13    1    3    3    0    0 -0.57102889238E+02  0.32676657556E+02 -0.11527515395E+03  0.13272853885E+03  0.00000000000E+00 0.  1.
         14    1    3    3    0    0  0.26058034135E+02  0.57722935963E+01 -0.70963863117E+02  0.75816953149E+02  0.00000000000E+00 0. -1.
        -13    1    4    4    0    0 -0.11856512096E+02 -0.27126164175E+03 -0.37547712275E+03  0.46336435434E+03  0.00000000000E+00 0. -1.
         13    1    4    4    0    0  0.47013483434E+02 -0.98751043944E+02 -0.19482487299E+03  0.22342508239E+03  0.00000000000E+00 0.  1.
         21    1    1    2  503  502 -0.15397064873E+02 -0.58613070229E+02 -0.22137441846E+03  0.22951948666E+03  0.00000000000E+00 0.  1.
          1    1    1    2  501    0  0.11284948638E+02  0.39017680477E+03 -0.34776692025E+02  0.39188608977E+03  0.00000000000E+00 0. -1.
<scales pt_clust_5="13000.00000" pt_clust_6="13000.00000" pt_clust_7="13000.00000" pt_clust_8="13000.00000" pt_clust_9="60.60166" pt_clust_10="385.06753"></scales>
<clustering>
<clus scale="   60.602">  2  9  1 -1</clus>
<clus scale="   79.776">  5  6 -1 -1</clus>
<clus scale="   90.908">  2  5  1 -1</clus>
<clus scale="   91.049">  7  8 -1 -1</clus>
<clus scale="  385.068">  1 10  2 -1</clus>
<clus scale="  385.068">  1  5  2 -1</clus>
</clustering>
</event>
<event>
10    4  0.3738096E-005  0.1271379E+03  0.7546771E-02  0.1233212E+00
         21   -1    0    0  503  502  0.00000000000E+00  0.00000000000E+00  0.25351330293E+03  0.25351330293E+03  0.00000000000E+00 0. -1.
          2   -1    0    0  502    0 -0.00000000000E+00 -0.00000000000E+00 -0.22386356388E+03  0.22386356388E+03  0.00000000000E+00 0. -1.
         24    2    1    2    0    0 -0.19836513035E+02  0.77591456552E+02 -0.91576759967E+02  0.14639176300E+03  0.81426801051E+02 0.  0.
         23    2    1    2    0    0  0.12004524086E+03 -0.10768116584E+03  0.31347543716E+02  0.18588316275E+03  0.86970042928E+02 0.  0.
        -13    1    3    3    0    0 -0.13524289164E+02  0.18441731050E+02  0.12834218588E+02  0.26224435328E+02  0.00000000000E+00 0.  1.
         14    1    3    3    0    0 -0.63122238709E+01  0.59149725503E+02 -0.10441097856E+03  0.12016732767E+03  0.00000000000E+00 0. -1.
        -13    1    4    4    0    0 -0.30727128888E+00 -0.49463747701E+02  0.10626351184E+02  0.50593241562E+02  0.00000000000E+00 0.  1.
         13    1    4    4    0    0  0.12035251214E+03 -0.58217418142E+02  0.20721192533E+02  0.13528992119E+03  0.00000000000E+00 0. -1.
         21    1    1    2  503  501 -0.26170455312E+02  0.15821710455E+01  0.13903604120E+01  0.26255077576E+02  0.00000000000E+00 0.  1.
          1    1    1    2  501    0 -0.74038272509E+02  0.28507538246E+02  0.88488594894E+02  0.11884686348E+03  0.00000000000E+00 0. -1.
<scales pt_clust_5="13000.00000" pt_clust_6="13000.00000" pt_clust_7="13000.00000" pt_clust_8="13000.00000" pt_clust_9="25.89542" pt_clust_10="113.91377"></scales>
<clustering>
<clus scale="   25.895">  9 10 -1 -1</clus>
<clus scale="   81.427">  5  6 -1 -1</clus>
<clus scale="   86.970">  7  8 -1 -1</clus>
<clus scale="  113.914">  1  9  2 -1</clus>
<clus scale="  123.412">  2  5  1 -1</clus>
<clus scale="  113.914">  1  5  2 -1</clus>
</clustering>
</event>
<event>
10    4  0.3738096E-005  0.1204620E+03  0.7546771E-02  0.1245975E+00
         21   -1    0    0  501  502  0.00000000000E+00  0.00000000000E+00  0.17282061968E+03  0.17282061968E+03  0.00000000000E+00 0. -1.
          2   -1    0    0  503    0 -0.00000000000E+00 -0.00000000000E+00 -0.68349161688E+03  0.68349161688E+03  0.00000000000E+00 0. -1.
         24    2    1    2    0    0  0.10949661223E+02  0.95526484941E+02 -0.59053085746E+03  0.60376033437E+03  0.80960751870E+02 0.  0.
         23    2    1    2    0    0 -0.57646146884E+01 -0.57725135188E+02  0.37536275239E+01  0.10915633483E+03  0.92388276843E+02 0.  0.
        -11    1    3    3    0    0  0.28364021415E+02  0.26980432890E+02 -0.88487798317E+02  0.96760280698E+02  0.00000000000E+00 0.  1.
         12    1    3    3    0    0 -0.17414360192E+02  0.68546052051E+02 -0.50204305914E+03  0.50700005367E+03  0.00000000000E+00 0. -1.
        -13    1    4    4    0    0 -0.20971907178E+02 -0.52421622564E+01 -0.35717266559E+02  0.41749542347E+02  0.00000000000E+00 0.  1.
         13    1    4    4    0    0  0.15207292489E+02 -0.52482972931E+02  0.39470894082E+02  0.67406792479E+02  0.00000000000E+00 0. -1.
         21    1    1    2  503  502  0.96707686481E+01 -0.19476843611E+02 -0.28677163812E+02  0.35989594713E+02  0.00000000000E+00 0.  1.
          1    1    1    2  501    0 -0.14855815182E+02 -0.18324506142E+02  0.10478339654E+03  0.10740597265E+03  0.00000000000E+00 0. -1.
<scales pt_clust_5="13000.00000" pt_clust_6="13000.00000" pt_clust_7="13000.00000" pt_clust_8="13000.00000" pt_clust_9="21.74560" pt_clust_10="23.60812"></scales>
<clustering>
<clus scale="   21.746">  2  9  1 -1</clus>
<clus scale="   23.608">  1 10  2 -1</clus>
<clus scale="   80.961">  5  6 -1 -1</clus>
<clus scale="   92.388">  7  8 -1 -1</clus>
<clus scale="  111.938">  2  5  1 -1</clus>
<clus scale="   23.608">  1  5  2 -1</clus>
</clustering>
</event>
<event>
10    4  0.3738096E-005  0.1710054E+03  0.7546771E-02  0.1178691E+00
          2   -1    0    0  503    0 -0.00000000000E+00  0.00000000000E+00  0.11195333851E+04  0.11195333851E+04  0.00000000000E+00 0. -1.
         21   -1    0    0  501  502  0.00000000000E+00 -0.00000000000E+00 -0.18786866293E+03  0.18786866293E+03  0.00000000000E+00 0.  1.
         24    2    1    2    0    0  0.69995972375E+02 -0.14132798925E+03  0.81995711656E+03  0.83835791503E+03  0.75108481551E+02 0.  0.
         23    2    1    2    0    0 -0.95872968528E+02  0.88356414401E+02  0.12900854634E+03  0.20413423128E+03  0.89605230284E+02 0.  0.
        -11    1    3    3    0    0  0.84685855060E+02 -0.11929465535E+03  0.64319391944E+03  0.65962210912E+03  0.00000000000E+00 0.  1.
         12    1    3    3    0    0 -0.14689882685E+02 -0.22033333899E+02  0.17676319713E+03  0.17873580591E+03  0.00000000000E+00 0. -1.
        -13    1    4    4    0    0 -0.90379945815E+01 -0.18421791070E+02  0.18530234025E+02  0.27648097679E+02  0.00000000000E+00 0. -1.
         13    1    4    4    0    0 -0.86834973947E+02  0.10677820547E+03  0.11047831231E+03  0.17648613361E+03  0.00000000000E+00 0.  1.
         21    1    1    2  503  502  0.30519201616E+02  0.29867821737E+02  0.11908146029E+03  0.12650653196E+03  0.00000000000E+00 0.  1.
          1    1    1    2  501    0 -0.46422054622E+01  0.23103753110E+02 -0.13638240097E+03  0.13840336980E+03  0.00000000000E+00 0. -1.
<scales pt_clust_5="13000.00000" pt_clust_6="13000.00000" pt_clust_7="13000.00000" pt_clust_8="13000.00000" pt_clust_9="43.67128" pt_clust_10="23.56551"></scales>
<clustering>
<clus scale="   23.566">  2 10  1 -1</clus>
<clus scale="   43.671">  1  9  2 -1</clus>
<clus scale="   75.108">  5  6 -1 -1</clus>
<clus scale="   89.605">  7  8 -1 -1</clus>
<clus scale="  163.875">  1  5  2 -1</clus>
<clus scale="   23.566">  2  5  1 -1</clus>
</clustering>
</event>
<event>
10    4  0.3738096E-005  0.1091330E+03  0.7546771E-02  0.1262562E+00
         21   -1    0    0  501  502  0.00000000000E+00  0.00000000000E+00  0.35492869182E+03  0.35492869182E+03  0.00000000000E+00 0. -1.
          2   -1    0    0  503    0 -0.00000000000E+00 -0.00000000000E+00 -0.61809998026E+03  0.61809998026E+03  0.00000000000E+00 0. -1.
         23    2    1    2    0    0  0.38437238588E+02 -0.55146820833E+02 -0.28275119905E+03  0.30251162482E+03  0.83943132137E+02 0.  0.
         24    2    1    2    0    0 -0.58763541260E+02  0.40895007540E+02  0.29734446486E+02  0.11349613471E+03  0.82895596157E+02 0.  0.
        -13    1    4    4    0    0 -0.58482844811E+02  0.59003904513E+02  0.40504547742E+02  0.92424684326E+02  0.00000000000E+00 0.  1.
         14    1    4    4    0    0 -0.28069644916E+00 -0.18108896973E+02 -0.10770101255E+02  0.21071450380E+02  0.00000000000E+00 0. -1.
        -11    1    3    3    0    0 -0.11912784066E+02 -0.49694384322E+02 -0.92966985360E+02  0.10608631686E+03  0.00000000000E+00 0. -1.
         11    1    3    3    0    0  0.50350022654E+02 -0.54524365109E+01 -0.18978421369E+03  0.19642530797E+03  0.00000000000E+00 0.  1.
         21    1    1    2  503  502 -0.61902986201E+02 -0.25415007474E+02 -0.27179387388E+03  0.27991036455E+03  0.00000000000E+00 0. -1.
          1    1    1    2  501    0  0.82229288873E+02  0.39666820766E+02  0.26163933800E+03  0.27711054799E+03  0.00000000000E+00 0. -1.
<scales pt_clust_5="13000.00000" pt_clust_6="13000.00000" pt_clust_7="13000.00000" pt_clust_8="13000.00000" pt_clust_9="66.91713" pt_clust_10="89.78711"></scales>
<clustering>
<clus scale="   66.917">  2  9  1 -1</clus>
<clus scale="   82.896">  5  6 -1 -1</clus>
<clus scale="   83.943">  7  8 -1 -1</clus>
<clus scale="   89.787">  1 10  2 -1</clus>
<clus scale="  108.329">  1  5  2 -1</clus>
<clus scale="   89.787">  1  5  2 -1</clus>
</clustering>
</event>
<event>
10    4  0.3738096E-005  0.1843242E+03  0.7546771E-02  0.1165361E+00
         21   -1    0    0  501  502  0.00000000000E+00  0.00000000000E+00  0.42426217513E+03  0.42426217513E+03  0.00000000000E+00 0.  1.
          4   -1    0    0  503    0 -0.00000000000E+00 -0.00000000000E+00 -0.23779775643E+03  0.23779775643E+03  0.00000000000E+00 0. -1.
         24    2    1    2    0    0  0.69770920621E+02 -0.13808506045E+03 -0.13449775024E+03  0.22032010872E+03  0.80720754463E+02 0.  0.
         23    2    1    2    0    0 -0.56064083280E+02  0.16348772225E+03  0.13268541865E+03  0.23775510530E+03  0.95134920045E+02 0.  0.
        -13    1    3    3    0    0  0.36440439346E+02 -0.19798781618E+02 -0.70422295219E+02  0.81726354606E+02  0.00000000000E+00 0.  1.
         14    1    3    3    0    0  0.33330481275E+02 -0.11828627883E+03 -0.64075455023E+02  0.13859375411E+03  0.00000000000E+00 0. -1.
        -13    1    4    4    0    0 -0.19729911291E+02  0.26741541664E+02 -0.12050064240E+02  0.35349448345E+02  0.00000000000E+00 0.  1.
         13    1    4    4    0    0 -0.36334171989E+02  0.13674618059E+03  0.14473548289E+03  0.20240565695E+03  0.00000000000E+00 0. -1.
         21    1    1    2  503  502  0.24902256511E+02 -0.25545791059E+02  0.57871803921E+02  0.67984229857E+02  0.00000000000E+00 0.  1.
          3    1    1    2  501    0 -0.38609093852E+02  0.14312925876E+00  0.13040494636E+03  0.13600048768E+03  0.00000000000E+00 0. -1.
<scales pt_clust_5="13000.00000" pt_clust_6="13000.00000" pt_clust_7="13000.00000" pt_clust_8="13000.00000" pt_clust_9="35.67506" pt_clust_10="30.85580"></scales>
<clustering>
<clus scale="   35.675">  1  9  2 -1</clus>
<clus scale="   30.856">  1 10  2 -1</clus>
<clus scale="   80.721">  5  6 -1 -1</clus>
<clus scale="   95.135">  7  8 -1 -1</clus>
<clus scale="  177.315">  2  5  1 -1</clus>
<clus scale="   35.675">  1  5  2 -1</clus>
</clustering>
</event>
<event>
10    4  0.3738096E-005  0.1799314E+03  0.7546771E-02  0.1187695E+00
          2   -1    0    0  503    0 -0.00000000000E+00  0.00000000000E+00  0.89836722506E+03  0.89836722506E+03  0.00000000000E+00 0. -1.
         21   -1    0    0  501  502  0.00000000000E+00 -0.00000000000E+00 -0.12722049283E+03  0.12722049283E+03  0.00000000000E+00 0. -1.
         23    2    1    2    0    0  0.23856381951E+02 -0.61174686266E+02  0.15990519816E+02  0.11613228359E+03  0.94443323573E+02 0.  0.
         24    2    1    2    0    0  0.17236084446E+03  0.93608218982E+02  0.23669852462E+03  0.31784285368E+03  0.80790647447E+02 0.  0.
        -13    1    4    4    0    0  0.34829456708E+01  0.28194464168E+02  0.51473206939E+02  0.58792429384E+02  0.00000000000E+00 0.  1.
         14    1    4    4    0    0  0.16887789879E+03  0.65413754814E+02  0.18522531768E+03  0.25905042430E+03  0.00000000000E+00 0. -1.
        -11    1    3    3    0    0 -0.25086704919E+02 -0.43648574884E+02 -0.18621377420E+02  0.53677709993E+02  0.00000000000E+00 0. -1.
         11    1    3    3    0    0  0.48943086870E+02 -0.17526111383E+02  0.34611897236E+02  0.62454573594E+02  0.00000000000E+00 0.  1.
         21    1    1    2  503  502 -0.81676434600E+02 -0.11089650220E+03  0.32954913429E+03  0.35717181591E+03  0.00000000000E+00 0.  1.
          1    1    1    2  501    0 -0.11454079181E+03  0.78462969481E+02  0.18890855351E+03  0.23444076471E+03  0.00000000000E+00 0. -1.
<scales pt_clust_5="13000.00000" pt_clust_6="13000.00000" pt_clust_7="13000.00000" pt_clust_8="13000.00000" pt_clust_9="160.77366" pt_clust_10="125.39357"></scales>
<clustering>
<clus scale="   80.791">  5  6 -1 -1</clus>
<clus scale="   94.443">  7  8 -1 -1</clus>
<clus scale="  115.026">  1  7  2 -1</clus>
<clus scale="  125.394">  2 10  1 -1</clus>
<clus scale="  160.774">  1  9  2 -1</clus>
<clus scale="  125.394">  2  5  1 -1</clus>
</clustering>
</event>
<event>
10    4  0.3738096E-005  0.1429795E+03  0.7546771E-02  0.1211581E+00
         21   -1    0    0  501  502  0.00000000000E+00  0.00000000000E+00  0.31589780185E+03  0.31589780185E+03  0.00000000000E+00 0.  1.
          2   -1    0    0  503    0 -0.00000000000E+00 -0.00000000000E+00 -0.59370933642E+03  0.59370933642E+03  0.00000000000E+00 0. -1.
         24    2    1    2    0    0  0.94355820642E+02  0.64856579620E+02 -0.37748827210E+03  0.40255558798E+03  0.80275830916E+02 0.  0.
         23    2    1    2    0    0 -0.91626983398E+02 -0.41969276128E+02  0.24637424959E+03  0.28131388254E+03  0.90996183565E+02 0.  0.
        -13    1    3    3    0    0  0.12777583991E+02 -0.18329358581E+02 -0.44950203519E+02  0.50197139709E+02  0.00000000000E+00 0.  1.
         14    1    3    3    0    0  0.81578236652E+02  0.83185938201E+02 -0.33253806858E+03  0.35235844827E+03  0.00000000000E+00 0. -1.
        -13    1    4    4    0    0 -0.10029338204E+03 -0.15157142368E+02  0.15131922021E+03  0.18217027159E+03  0.00000000000E+00 0.  1.
         13    1    4    4    0    0  0.86663986409E+01 -0.26812133760E+02  0.95055029379E+02  0.99143610952E+02  0.00000000000E+00 0. -1.
         21    1    1    2  503  502 -0.50545260389E+02  0.41618019322E+02 -0.12727194618E+03  0.14312592764E+03  0.00000000000E+00 0.  1.
          1    1    1    2  501    0  0.47816423145E+02 -0.64505322815E+02 -0.19425565876E+02  0.82611740106E+02  0.00000000000E+00 0. -1.
<scales pt_clust_5="13000.00000" pt_clust_6="13000.00000" pt_clust_7="13000.00000" pt_clust_8="13000.00000" pt_clust_9="65.47429" pt_clust_10="73.24713"></scales>
<clustering>
<clus scale="   65.474">  2  9  1 -1</clus>
<clus scale="   73.247">  1 10  2 -1</clus>
<clus scale="   80.276">  5  6 -1 -1</clus>
<clus scale="   90.996">  7  8 -1 -1</clus>
<clus scale="  136.408">  2  5  1 -1</clus>
<clus scale="   73.247">  1  5  2 -1</clus>
</clustering>
</event>
<event>
10    4  0.3738096E-005  0.3532428E+03  0.7546771E-02  0.1061624E+00
         21   -1    0    0  501  502  0.00000000000E+00  0.00000000000E+00  0.27038721683E+03  0.27038721683E+03  0.00000000000E+00 0. -1.
          2   -1    0    0  503    0 -0.00000000000E+00 -0.00000000000E+00 -0.71415510819E+03  0.71415510819E+03  0.00000000000E+00 0. -1.
         24    2    1    2    0    0  0.36347272180E+03 -0.25487468714E+02 -0.19823754924E+03  0.42251187978E+03  0.80350059585E+02 0.  0.
         23    2    1    2    0    0 -0.31380650986E+03 -0.50429540218E+02 -0.80299058236E+02  0.34090037460E+03  0.93527870130E+02 0.  0.
        -13    1    3    3    0    0  0.18831829767E+02  0.17558500860E+02 -0.11897129907E+02  0.28363364836E+02  0.00000000000E+00 0.  1.
         14    1    3    3    0    0  0.34464089203E+03 -0.43045969574E+02 -0.18634041933E+03  0.39414851495E+03  0.00000000000E+00 0. -1.
        -11    1    4    4    0    0 -0.29072275624E+02 -0.73348811950E+01  0.19903830514E+02  0.35988333682E+02  0.00000000000E+00 0.  1.
         11    1    4    4    0    0 -0.28473423423E+03 -0.43094659023E+02 -0.10020288875E+03  0.30491204092E+03  0.00000000000E+00 0. -1.
         21    1    1    2  503  502  0.23405983363E+02 -0.13155144200E+02 -0.11975410373E+02  0.29399121240E+02  0.00000000000E+00 0.  1.
          1    1    1    2  501    0 -0.73072195306E+02  0.89072153133E+02 -0.15325587351E+03  0.19173094940E+03  0.00000000000E+00 0. -1.
<scales pt_clust_5="13000.00000" pt_clust_6="13000.00000" pt_clust_7="13000.00000" pt_clust_8="13000.00000" pt_clust_9="26.84954" pt_clust_10="113.37345"></scales>
<clustering>
<clus scale="   26.850">  1  9  2 -1</clus>
<clus scale="   80.350">  5  6 -1 -1</clus>
<clus scale="   93.528">  7  8 -1 -1</clus>
<clus scale="  113.373">  1 10  2 -1</clus>
<clus scale="  349.984">  2  5  1 -1</clus>
<clus scale="   26.850">  1  5  2 -1</clus>
</clustering>
</event>
<event>
10    4  0.3738096E-005  0.3717573E+03  0.7546771E-02  0.1054378E+00
         -1   -1    0    0    0  501 -0.00000000000E+00  0.00000000000E+00  0.60889805933E+03  0.60889805933E+03  0.00000000000E+00 0.  1.
         21   -1    0    0  503  502  0.00000000000E+00 -0.00000000000E+00 -0.54998561678E+03  0.54998561678E+03  0.00000000000E+00 0.  1.
         24    2    1    2    0    0 -0.15580950333E+03 -0.32880786694E+03  0.33548732412E+03  0.50074688243E+03  0.76187144114E+02 0.  0.
         23    2    1    2    0    0  0.29629183521E+02  0.31500560831E+03 -0.19717608090E+03  0.38411130456E+03  0.92502246652E+02 0.  0.
        -11    1    3    3    0    0 -0.13081442177E+03 -0.24045201104E+03  0.20877694179E+03  0.34426355308E+03  0.00000000000E+00 0.  1.
         12    1    3    3    0    0 -0.24995081559E+02 -0.88355855897E+02  0.12671038233E+03  0.15648332935E+03  0.00000000000E+00 0. -1.
        -11    1    4    4    0    0 -0.14398423236E+02  0.20282441196E+03 -0.15762467566E+03  0.25727532928E+03  0.00000000000E+00 0.  1.
         11    1    4    4    0    0  0.44027606758E+02  0.11218119635E+03 -0.39551405238E+02  0.12683597529E+03  0.00000000000E+00 0. -1.
         21    1    1    2  503  501  0.19132223703E+02 -0.29137734569E+02  0.74178334198E+02  0.81960202684E+02  0.00000000000E+00 0.  1.
         -2    1    1    2    0  502  0.10704809610E+03  0.42939993200E+02 -0.15357713487E+03  0.19206528643E+03  0.00000000000E+00 0.  1.
<scales pt_clust_5="13000.00000" pt_clust_6="13000.00000" pt_clust_7="13000.00000" pt_clust_8="13000.00000" pt_clust_9="34.85756" pt_clust_10="115.59634"></scales>
<clustering>
<clus scale="   34.858">  1  9  2 -1</clus>
<clus scale="   76.187">  5  6 -1 -1</clus>
<clus scale="   92.502">  7  8 -1 -1</clus>
<clus scale="  115.596">  2 10  1 -1</clus>
<clus scale="  368.037">  1  5  2 -1</clus>
<clus scale="  115.596">  2  5  1 -1</clus>
</clustering>
</event>
<event>
10    4  0.3738096E-005  0.1384709E+03  0.7546771E-02  0.1233013E+00
         -1   -1    0    0    0  501 -0.00000000000E+00  0.00000000000E+00  0.38548849978E+03  0.38548849978E+03  0.00000000000E+00 0.  1.
         21   -1    0    0  503  502  0.00000000000E+00 -0.00000000000E+00 -0.18672513544E+03  0.18672513544E+03  0.00000000000E+00 0. -1.
         23    2    1    2    0    0  0.77779180895E+01  0.22030234161E+02  0.22998492107E+02  0.98132521807E+02  0.92494507783E+02 0.  0.
         24    2    1    2    0    0  0.69023146982E+02  0.84533021439E+02 -0.85947574315E+02  0.16155373982E+03  0.82477868464E+02 0.  0.
        -13    1    4    4    0    0  0.41199340175E+02  0.30704507776E+02  0.56875614501E+01  0.51696235684E+02  0.00000000000E+00 0.  1.
         14    1    4    4    0    0  0.27823806808E+02  0.53828513663E+02 -0.91635135765E+02  0.10985750414E+03  0.00000000000E+00 0. -1.
        -11    1    3    3    0    0  0.43923208502E+02 -0.10670794456E+02  0.19612885109E+02  0.49272501071E+02  0.00000000000E+00 0.  1.
         11    1    3    3    0    0 -0.36145290412E+02  0.32701028617E+02  0.33856069975E+01  0.48860020736E+02  0.00000000000E+00 0. -1.
         21    1    1    2  503  501 -0.35777386352E+02  0.17680883755E+02  0.57389139915E+02  0.69900990012E+02  0.00000000000E+00 0. -1.
         -2    1    1    2    0  502 -0.41023678720E+02 -0.12424413936E+03  0.20432330663E+03  0.24262638358E+03  0.00000000000E+00 0.  1.
<scales pt_clust_5="13000.00000" pt_clust_6="13000.00000" pt_clust_7="13000.00000" pt_clust_8="13000.00000" pt_clust_9="39.90783" pt_clust_10="111.22774"></scales>
<clustering>
<clus scale="   39.908">  1  9  2 -1</clus>
<clus scale="   82.478">  5  6 -1 -1</clus>
<clus scale="   92.495">  7  8 -1 -1</clus>
<clus scale="   95.913">  1  7  2 -1</clus>
<clus scale="  111.228">  2 10  1 -1</clus>
<clus scale="  111.228">  2  5  1 -1</clus>
</clustering>
</event>
<event>
10    4  0.3738096E-005  0.4177139E+03  0.7546771E-02  0.1038031E+00
          2   -1    0    0  503    0 -0.00000000000E+00  0.00000000000E+00  0.18004341310E+04  0.18004341310E+04  0.00000000000E+00 0. -1.
         21   -1    0    0  501  502  0.00000000000E+00 -0.00000000000E+00 -0.13114276934E+03  0.13114276934E+03  0.00000000000E+00 0. -1.
         24    2    1    2    0    0  0.39956651133E+03  0.87627254137E+02  0.76345507518E+03  0.86987516933E+03  0.80543315937E+02 0.  0.
         23    2    1    2    0    0 -0.40156613912E+03 -0.57117138951E+02  0.64826378817E+03  0.77036340899E+03  0.93252942069E+02 0.  0.
        -11    1    3    3    0    0  0.22636570916E+03  0.64843264492E+02  0.35933905519E+03  0.42961685234E+03  0.00000000000E+00 0.  1.
         12    1    3    3    0    0  0.17320080218E+03  0.22783989645E+02  0.40411601999E+03  0.44025831699E+03  0.00000000000E+00 0. -1.
        -13    1    4    4    0    0 -0.31385732219E+03 -0.31345775296E+02  0.42622498872E+03  0.53024213085E+03  0.00000000000E+00 0. -1.
         13    1    4    4    0    0 -0.87708816927E+02 -0.25771363655E+02  0.22203879945E+03  0.24012127814E+03  0.00000000000E+00 0.  1.
         21    1    1    2  503  502  0.48694008855E+02  0.29803826523E+02  0.82044825938E+02  0.99953629434E+02  0.00000000000E+00 0. -1.
          1    1    1    2  501    0 -0.46694381073E+02 -0.60313941710E+02  0.17552767234E+03  0.19138469256E+03  0.00000000000E+00 0. -1.
<scales pt_clust_5="13000.00000" pt_clust_6="13000.00000" pt_clust_7="13000.00000" pt_clust_8="13000.00000" pt_clust_9="57.09093" pt_clust_10="72.82519"></scales>
<clustering>
<clus scale="   57.091">  2  9  1 -1</clus>
<clus scale="   72.825">  2 10  1 -1</clus>
<clus scale="   80.543">  5  6 -1 -1</clus>
<clus scale="   93.253">  7  8 -1 -1</clus>
<clus scale="  415.061">  1  5  2 -1</clus>
<clus scale="   57.091">  2  5  1 -1</clus>
</clustering>
</event>
<event>
10    4  0.3738096E-005  0.1063850E+03  0.7546771E-02  0.1272790E+00
          2   -1    0    0  503    0 -0.00000000000E+00  0.00000000000E+00  0.45108372830E+03  0.45108372830E+03  0.00000000000E+00 0. -1.
         21   -1    0    0  501  502  0.00000000000E+00 -0.00000000000E+00 -0.76613747704E+02  0.76613747704E+02  0.00000000000E+00 0. -1.
         24    2    1    2    0    0  0.17949679039E+02 -0.26085315729E+02  0.17591574816E+03  0.19596896526E+03  0.80342082484E+02 0.  0.
         23    2    1    2    0    0 -0.44124060040E+02  0.32255885663E+02  0.74697279331E+02  0.13094350454E+03  0.92623663317E+02 0.  0.
        -11    1    3    3    0    0 -0.23021092306E+01  0.25790314833E+02  0.29129159261E+02  0.38973682984E+02  0.00000000000E+00 0.  1.
         12    1    3    3    0    0  0.20251788269E+02 -0.51875630562E+02  0.14678658890E+03  0.15699528227E+03  0.00000000000E+00 0. -1.
        -11    1    4    4    0    0 -0.78102714817E+01  0.33921180809E+02  0.86079625552E+02  0.92851218534E+02  0.00000000000E+00 0.  1.
         11    1    4    4    0    0 -0.36313788559E+02 -0.16652951458E+01 -0.11382346220E+02  0.38092286002E+02  0.00000000000E+00 0. -1.
         21    1    1    2  503  502  0.57142930604E+02 -0.12755440108E+02  0.14917012149E+03  0.16024899662E+03  0.00000000000E+00 0. -1.
          1    1    1    2  501    0 -0.30968549602E+02  0.65848701734E+01 -0.25313168393E+02  0.40536009593E+02  0.00000000000E+00 0. -1.
<scales pt_clust_5="13000.00000" pt_clust_6="13000.00000" pt_clust_7="13000.00000" pt_clust_8="13000.00000" pt_clust_9="54.53513" pt_clust_10="31.66088"></scales>
<clustering>
<clus scale="   31.661">  2 10  1 -1</clus>
<clus scale="   54.535">  1  9  2 -1</clus>
<clus scale="   80.342">  5  6 -1 -1</clus>
<clus scale="   92.624">  7  8 -1 -1</clus>
<clus scale="   95.883">  1  5  2 -1</clus>
<clus scale="   31.661">  2  5  1 -1</clus>
</clustering>
</event>
<event>
10    4  0.3738096E-005  0.9516065E+02  0.7546771E-02  0.1296107E+00
         21   -1    0    0  501  502  0.00000000000E+00  0.00000000000E+00  0.10206257390E+03  0.10206257390E+03  0.00000000000E+00 0. -1.
          2   -1    0    0  503    0 -0.00000000000E+00 -0.00000000000E+00 -0.47135455640E+03  0.47135455640E+03  0.00000000000E+00 0. -1.
         24    2    1    2    0    0  0.91233055529E+00 -0.21326605011E+02 -0.21539972239E+03  0.23133485483E+03  0.81627925513E+02 0.  0.
         23    2    1    2    0    0  0.59204454968E+02  0.57870303089E+02  0.32513543905E+02  0.12725932990E+03  0.91014652898E+02 0.  0.
        -11    1    3    3    0    0  0.21970588186E+02  0.24931579930E+02 -0.95107271580E+02  0.10074563777E+03  0.00000000000E+00 0.  1.
         12    1    3    3    0    0 -0.21058257631E+02 -0.46258184941E+02 -0.12029245081E+03  0.13058921705E+03  0.00000000000E+00 0. -1.
        -13    1    4    4    0    0  0.28541114238E+02  0.83995804402E+01 -0.29718240330E+02  0.42051420450E+02  0.00000000000E+00 0.  1.
         13    1    4    4    0    0  0.30663340729E+02  0.49470722649E+02  0.62231784235E+02  0.85207909452E+02  0.00000000000E+00 0. -1.
         21    1    1    2  503  502 -0.33988712252E+02  0.22528615837E+02 -0.89645112511E+02  0.98483588934E+02  0.00000000000E+00 0. -1.
          1    1    1    2  501    0 -0.26128073271E+02 -0.59072313915E+02 -0.96760691497E+02  0.11633935664E+03  0.00000000000E+00 0. -1.
<scales pt_clust_5="13000.00000" pt_clust_6="13000.00000" pt_clust_7="13000.00000" pt_clust_8="13000.00000" pt_clust_9="40.77709" pt_clust_10="63.67696"></scales>
<clustering>
<clus scale="   40.777">  2  9  1 -1</clus>
<clus scale="   63.677">  1 10  2 -1</clus>
<clus scale="   81.628">  5  6 -1 -1</clus>
<clus scale="   86.226">  2  5  1 -1</clus>
<clus scale="   91.015">  7  8 -1 -1</clus>
<clus scale="   63.677">  1  5  2 -1</clus>
</clustering>
</event>
<event>
10    4  0.3738096E-005  0.2111975E+03  0.7546771E-02  0.1150942E+00
          2   -1    0    0  503    0 -0.00000000000E+00  0.00000000000E+00  0.15758393046E+04  0.15758393046E+04  0.00000000000E+00 0. -1.
         21   -1    0    0  501  502  0.00000000000E+00 -0.00000000000E+00 -0.62895091183E+02  0.62895091183E+02  0.00000000000E+00 0. -1.
         23    2    1    2    0    0  0.12597022136E+03  0.50214636493E+02  0.30769363400E+03  0.34823315854E+03  0.90559118331E+02 0.  0.
         24    2    1    2    0    0 -0.24233474469E+03  0.57088736817E+02  0.63533100605E+03  0.68730248679E+03  0.82182533130E+02 0.  0.
        -13    1    4    4    0    0 -0.28009514178E+02  0.60066652054E+01  0.17059329033E+03  0.17298174360E+03  0.00000000000E+00 0.  1.
         14    1    4    4    0    0 -0.21432523051E+03  0.51082071612E+02  0.46473771572E+03  0.51432074320E+03  0.00000000000E+00 0. -1.
        -13    1    3    3    0    0  0.41726951988E+02  0.20619877390E+02  0.27285838308E+02  0.53952153229E+02  0.00000000000E+00 0. -1.
         13    1    3    3    0    0  0.84243269374E+02  0.29594759102E+02  0.28040779569E+03  0.29428100531E+03  0.00000000000E+00 0.  1.
         21    1    1    2  503  502  0.26009462281E+01  0.21703699742E+02  0.11039170877E+03  0.11253508283E+03  0.00000000000E+00 0. -1.
          1    1    1    2  501    0  0.11376357710E+03 -0.12900707305E+03  0.45952786456E+03  0.49066366758E+03  0.00000000000E+00 0. -1.
<scales pt_clust_5="13000.00000" pt_clust_6="13000.00000" pt_clust_7="13000.00000" pt_clust_8="13000.00000" pt_clust_9="21.85899" pt_clust_10="194.55188"></scales>
<clustering>
<clus scale="   21.859">  1  9  2 -1</clus>
<clus scale="   82.183">  5  6 -1 -1</clus>
<clus scale="   90.559">  7  8 -1 -1</clus>
<clus scale="  165.075">  1  7  2 -1</clus>
<clus scale="  194.552">  2 10  1 -1</clus>
<clus scale="  194.552">  2  5  1 -1</clus>
</clustering>
</event>
<event>
10    4  0.3738096E-005  0.1751371E+03  0.7546771E-02  0.1208575E+00
         -1   -1    0    0    0  501 -0.00000000000E+00  0.00000000000E+00  0.88833167374E+02  0.88833167374E+02  0.00000000000E+00 0.  1.
         21   -1    0    0  503  502  0.00000000000E+00 -0.00000000000E+00 -0.95323762277E+03  0.95323762277E+03  0.00000000000E+00 0.  1.
         24    2    1    2    0    0 -0.13808710553E+02 -0.59290113552E+01 -0.16243705039E+03  0.18117187354E+03  0.78813823394E+02 0.  0.
         23    2    1    2    0    0 -0.14665346802E+03 -0.66414784406E+02 -0.54712039085E+03  0.57742731583E+03  0.90351644778E+02 0.  0.
        -13    1    3    3    0    0 -0.13303065720E+02  0.24104258679E+02 -0.16332367902E+02  0.32011452409E+02  0.00000000000E+00 0.  1.
         14    1    3    3    0    0 -0.50564483288E+00 -0.30033270034E+02 -0.14610468249E+03  0.14916042113E+03  0.00000000000E+00 0. -1.
        -11    1    4    4    0    0 -0.13660584534E+03 -0.21524739081E+02 -0.39536522913E+03  0.41885335832E+03  0.00000000000E+00 0.  1.
         11    1    4    4    0    0 -0.10047622677E+02 -0.44890045325E+02 -0.15175516172E+03  0.15857395751E+03  0.00000000000E+00 0. -1.
         21    1    1    2  503  501  0.45213114185E+02  0.24581277134E+01  0.30284276449E+02  0.54473897293E+02  0.00000000000E+00 0.  1.
         -2    1    1    2    0  502  0.11524906439E+03  0.69885668048E+02 -0.18513129060E+03  0.22899770348E+03  0.00000000000E+00 0.  1.
<scales pt_clust_5="13000.00000" pt_clust_6="13000.00000" pt_clust_7="13000.00000" pt_clust_8="13000.00000" pt_clust_9="45.27989" pt_clust_10="150.03199"></scales>
<clustering>
<clus scale="   45.280">  1  9  2 -1</clus>
<clus scale="   78.814">  5  6 -1 -1</clus>
<clus scale="   79.140">  1  5  2 -1</clus>
<clus scale="   90.352">  7  8 -1 -1</clus>
<clus scale="  150.032">  2 10  1 -1</clus>
<clus scale="  150.032">  2  5  1 -1</clus>
</clustering>
</event>
<event>
10    4  0.3738096E-005  0.1529889E+03  0.7546771E-02  0.1198696E+00
         21   -1    0    0  501  502  0.00000000000E+00  0.00000000000E+00  0.37182246632E+03  0.37182246632E+03  0.00000000000E+00 0. -1.
          4   -1    0    0  503    0 -0.00000000000E+00 -0.00000000000E+00 -0.15703412612E+03  0.15703412612E+03  0.00000000000E+00 0. -1.
         23    2    1    2    0    0 -0.12591273644E+03 -0.74911615006E+01  0.95007505831E+02  0.18295974654E+03  0.92399718571E+02 0.  0.
         24    2    1    2    0    0  0.11021653359E+03  0.51193611080E+02  0.19340537060E+03  0.24269274410E+03  0.82010124787E+02 0.  0.
        -13    1    4    4    0    0 -0.34381725362E+01  0.30791345420E+02  0.36479014671E+02  0.47860698851E+02  0.00000000000E+00 0.  1.
         14    1    4    4    0    0  0.11365470613E+03  0.20402265660E+02  0.15692635593E+03  0.19483204525E+03  0.00000000000E+00 0. -1.
        -13    1    3    3    0    0 -0.12114789811E+03  0.24020277623E+02  0.66874267378E+02  0.14044911745E+03  0.00000000000E+00 0. -1.
         13    1    3    3    0    0 -0.47648383220E+01 -0.31511439124E+02  0.28133238453E+02  0.42510629091E+02  0.00000000000E+00 0.  1.
         21    1    1    2  503  502  0.73412955245E+01 -0.24976356699E+02 -0.78006437750E+02  0.82235742499E+02  0.00000000000E+00 0. -1.
          3    1    1    2  501    0  0.83549073166E+01 -0.18726092880E+02  0.43819015213E+01  0.20968359300E+02  0.00000000000E+00 0. -1.
<scales pt_clust_5="13000.00000" pt_clust_6="13000.00000" pt_clust_7="13000.00000" pt_clust_8="13000.00000" pt_clust_9="26.15258" pt_clust_10="20.50540"></scales>
<clustering>
<clus scale="   20.505">  1 10  2 -1</clus>
<clus scale="   26.153">  2  9  1 -1</clus>
<clus scale="   82.010">  5  6 -1 -1</clus>
<clus scale="   92.400">  7  8 -1 -1</clus>
<clus scale="  146.947">  1  5  2 -1</clus>
<clus scale="   20.505">  1  5  2 -1</clus>
</clustering>
</event>
<event>
10    4  0.3738096E-005  0.1255031E+03  0.7546771E-02  0.1252481E+00
          2   -1    0    0  503    0 -0.00000000000E+00  0.00000000000E+00  0.49172950520E+03  0.49172950520E+03  0.00000000000E+00 0. -1.
         21   -1    0    0  501  502  0.00000000000E+00 -0.00000000000E+00 -0.77773661323E+02  0.77773661323E+02  0.00000000000E+00 0.  1.
         24    2    1    2    0    0 -0.38762943103E+02 -0.12856252616E+02  0.23463356170E+03  0.25218348993E+03  0.82920174448E+02 0.  0.
         23    2    1    2    0    0 -0.73634109604E+02  0.11513132860E+02  0.10317662335E+03  0.15693595126E+03  0.91809274411E+02 0.  0.
        -13    1    3    3    0    0 -0.47132984464E+02 -0.51819304343E+01  0.23602676094E+03  0.24074260634E+03  0.00000000000E+00 0.  1.
         14    1    3    3    0    0  0.83700413612E+01 -0.76743221818E+01 -0.13931992391E+01  0.11440883596E+02  0.00000000000E+00 0. -1.
        -11    1    4    4    0    0 -0.56707079554E+02 -0.15267183248E+02  0.11370325466E+02  0.59816921160E+02  0.00000000000E+00 0.  1.
         11    1    4    4    0    0 -0.16927030050E+02  0.26780316109E+02  0.91806297884E+02  0.97119030104E+02  0.00000000000E+00 0. -1.
         21    1    1    2  503  502  0.23231122516E+02  0.12988232043E+02  0.64417098351E+02  0.69698936756E+02  0.00000000000E+00 0. -1.
          1    1    1    2  501    0  0.89165930191E+02 -0.11645112287E+02  0.11728560477E+02  0.90684788569E+02  0.00000000000E+00 0. -1.
<scales pt_clust_5="13000.00000" pt_clust_6="13000.00000" pt_clust_7="13000.00000" pt_clust_8="13000.00000" pt_clust_9="26.61539" pt_clust_10="85.56918"></scales>
<clustering>
<clus scale="   26.615">  1  9  2 -1</clus>
<clus scale="   82.920">  5  6 -1 -1</clus>
<clus scale="   86.906">  1  5  2 -1</clus>
<clus scale="   85.569">  2 10  1 -1</clus>
<clus scale="   91.809">  7  8 -1 -1</clus>
<clus scale="   85.569">  2  5  1 -1</clus>
</clustering>
</event>
<event>
10    4  0.3738096E-005  0.1470131E+03  0.7546771E-02  0.1208225E+00
         21   -1    0    0  501  502  0.00000000000E+00  0.00000000000E+00  0.49866408082E+02  0.49866408082E+02  0.00000000000E+00 0.  1.
          2   -1    0    0  503    0 -0.00000000000E+00 -0.00000000000E+00 -0.11923827240E+04  0.11923827240E+04  0.00000000000E+00 0. -1.
         24    2    1    2    0    0 -0.43108779438E+02  0.10551747420E+03 -0.60650381188E+03  0.62093425723E+03  0.68703520644E+02 0.  0.
         23    2    1    2    0    0  0.79404718232E+02 -0.11660479226E+03 -0.38793901127E+03  0.42256143094E+03  0.90331055530E+02 0.  0.
        -13    1    3    3    0    0 -0.48825570548E+02  0.84825632358E+02 -0.34685044342E+03  0.36039499767E+03  0.00000000000E+00 0.  1.
         14    1    3    3    0    0  0.57167911097E+01  0.20691841845E+02 -0.25965336846E+03  0.26053925956E+03  0.00000000000E+00 0. -1.
        -11    1    4    4    0    0  0.73885214627E+02 -0.31642518020E+02 -0.15599226209E+03  0.17548179312E+03  0.00000000000E+00 0.  1.
         11    1    4    4    0    0  0.55195036046E+01 -0.84962274238E+02 -0.23194674919E+03  0.24707963781E+03  0.00000000000E+00 0. -1.
         21    1    1    2  503  502 -0.10998837617E+02 -0.23379037072E+02 -0.15349779993E+03  0.15565708589E+03  0.00000000000E+00 0.  1.
          1    1    1    2  501    0 -0.25297101177E+02  0.34466355127E+02  0.54243072008E+01  0.43096357994E+02  0.00000000000E+00 0. -1.
<scales pt_clust_5="13000.00000" pt_clust_6="13000.00000" pt_clust_7="13000.00000" pt_clust_8="13000.00000" pt_clust_9="25.83706" pt_clust_10="42.53167"></scales>
<clustering>
<clus scale="   25.837">  2  9  1 -1</clus>
<clus scale="   42.532">  1 10  2 -1</clus>
<clus scale="   68.704">  5  6 -1 -1</clus>
<clus scale="   90.331">  7  8 -1 -1</clus>
<clus scale="  134.808">  2  5  1 -1</clus>
<clus scale="   42.532">  1  5  2 -1</clus>
</clustering>
</event>
<event>
10    4  0.3738096E-005  0.4643100E+03  0.7546771E-02  0.1048195E+00
         21   -1    0    0  501  502  0.00000000000E+00  0.00000000000E+00  0.63061454703E+03  0.63061454703E+03  0.00000000000E+00 0. -1.
          2   -1    0    0  503    0 -0.00000000000E+00 -0.00000000000E+00 -0.16122036369E+04  0.16122036369E+04  0.00000000000E+00 0. -1.
         23    2    1    2    0    0  0.17060880399E+03  0.11620110357E+03  0.38845108938E+03  0.44898085906E+03  0.89886052799E+02 0.  0.
         24    2    1    2    0    0  0.20179625273E+03 -0.37992004192E+03 -0.10592296622E+04  0.11457952061E+04  0.76277199191E+02 0.  0.
        -13    1    4    4    0    0  0.90504933164E+02 -0.13383531234E+03 -0.31385923089E+03  0.35300233791E+03  0.00000000000E+00 0.  1.
         14    1    4    4    0    0  0.11129131957E+03 -0.24608472958E+03 -0.74537043132E+03  0.79279286818E+03  0.00000000000E+00 0. -1.
        -13    1    3    3    0    0  0.10781405550E+03  0.35297844052E+02  0.26707676210E+03  0.29017202693E+03  0.00000000000E+00 0. -1.
         13    1    3    3    0    0  0.62794748485E+02  0.80903259520E+02  0.12137432728E+03  0.15880883212E+03  0.00000000000E+00 0.  1.
         21    1    1    2  503  502  0.16519675743E+02 -0.13507687580E+02 -0.13874635745E+03  0.14037773690E+03  0.00000000000E+00 0. -1.
          1    1    1    2  501    0 -0.38892473247E+03  0.27722662592E+03 -0.17206415963E+03  0.50766438193E+03  0.00000000000E+00 0. -1.
<scales pt_clust_5="13000.00000" pt_clust_6="13000.00000" pt_clust_7="13000.00000" pt_clust_8="13000.00000" pt_clust_9="21.33910" pt_clust_10="458.00174"></scales>
<clustering>
<clus scale="   21.339">  2  9  1 -1</clus>
<clus scale="   76.277">  5  6 -1 -1</clus>
<clus scale="   89.886">  7  8 -1 -1</clus>
<clus scale="  225.258">  2  7  1 -1</clus>
<clus scale="  458.002">  1 10  2 -1</clus>
<clus scale="  458.002">  1  5  2 -1</clus>
</clustering>
</event>
<event>
10    4  0.3738096E-005  0.9530095E+02  0.7546771E-02  0.1296408E+00
          2   -1    0    0  503    0 -0.00000000000E+00  0.00000000000E+00  0.48371048633E+03  0.48371048633E+03  0.00000000000E+00 0. -1.
         21   -1    0    0  501  502  0.00000000000E+00 -0.00000000000E+00 -0.16403660649E+03  0.16403660649E+03  0.00000000000E+00 0. -1.
         23    2    1    2    0    0  0.30665430583E+02  0.53515134002E+01  0.35680491681E+03  0.36974155913E+03  0.91815383011E+02 0.  0.
         24    2    1    2    0    0  0.38994826212E+02 -0.40102976483E+02 -0.21592859666E+02  0.10114737813E+03  0.81459777308E+02 0.  0.
        -11    1    4    4    0    0  0.62792243459E+02 -0.20441070743E+02 -0.53146788520E+01  0.66249143564E+02  0.00000000000E+00 0.  1.
         12    1    4    4    0    0 -0.23797417246E+02 -0.19661905740E+02 -0.16278180814E+02  0.34898234562E+02  0.00000000000E+00 0. -1.
        -11    1    3    3    0    0 -0.32147946287E+01 -0.39654362222E+02  0.12440653122E+03  0.13061312475E+03  0.00000000000E+00 0. -1.
         11    1    3    3    0    0  0.33880225211E+02  0.45005875623E+02  0.23239838559E+03  0.23912843437E+03  0.00000000000E+00 0.  1.
         21    1    1    2  503  502 -0.23743221484E+02  0.75081281681E+02  0.45116139979E+02  0.90754644575E+02  0.00000000000E+00 0. -1.
          1    1    1    2  501    0 -0.45917035311E+02 -0.40329818599E+02 -0.60654317289E+02  0.86103510995E+02  0.00000000000E+00 0. -1.
<scales pt_clust_5="13000.00000" pt_clust_6="13000.00000" pt_clust_7="13000.00000" pt_clust_8="13000.00000" pt_clust_9="73.90570" pt_clust_10="61.11357"></scales>
<clustering>
<clus scale="   61.114">  2 10  1 -1</clus>
<clus scale="   73.906">  2  9  1 -1</clus>
<clus scale="   81.460">  5  6 -1 -1</clus>
<clus scale="   85.369">  2  5  1 -1</clus>
<clus scale="   91.815">  7  8 -1 -1</clus>
<clus scale="   61.114">  2  5  1 -1</clus>
</clustering>
</event>
<event>
10    4  0.3738096E-005  0.1371334E+03  0.7546771E-02  0.1219420E+00
          2   -1    0    0  503    0 -0.00000000000E+00  0.00000000000E+00  0.40077710820E+03  0.40077710820E+03  0.00000000000E+00 0. -1.
         21   -1    0    0  501  502  0.00000000000E+00 -0.00000000000E+00 -0.14915835638E+03  0.14915835638E+03  0.00000000000E+00 0.  1.
         23    2    1    2    0    0  0.10666955736E+03  0.18727479815E+02  0.17328861335E+03  0.22359311870E+03  0.90751453123E+02 0.  0.
         24    2    1    2    0    0 -0.63477195196E+02 -0.11048762032E+02 -0.17003040181E+02  0.10500634594E+03  0.81152941162E+02 0.  0.
        -13    1    4    4    0    0 -0.64920896979E+02 -0.47132921811E+00 -0.42342289714E+02  0.77510092981E+02  0.00000000000E+00 0.  1.
         14    1    4    4    0    0  0.14437017821E+01 -0.10577432814E+02  0.25339249532E+02  0.27496252956E+02  0.00000000000E+00 0. -1.
        -13    1    3    3    0    0  0.69692291230E+02 -0.32504397912E+02  0.10954534548E+03  0.13384219834E+03  0.00000000000E+00 0.  1.
         13    1    3    3    0    0  0.36977266127E+02  0.51231877726E+02  0.63743267871E+02  0.89750920354E+02  0.00000000000E+00 0. -1.
         21    1    1    2  503  502  0.36578817360E+02 -0.59714433900E+02  0.10434818044E+03  0.12566768183E+03  0.00000000000E+00 0.  1.
          1    1    1    2  501    0 -0.79771179520E+02  0.52035716117E+02 -0.90150017871E+01  0.95668318116E+02  0.00000000000E+00 0. -1.
<scales pt_clust_5="13000.00000" pt_clust_6="13000.00000" pt_clust_7="13000.00000" pt_clust_8="13000.00000" pt_clust_9="70.02731" pt_clust_10="85.77216"></scales>
<clustering>
<clus scale="   70.027">  1  9  2 -1</clus>
<clus scale="   81.153">  5  6 -1 -1</clus>
<clus scale="   85.772">  2 10  1 -1</clus>
<clus scale="   90.751">  7  8 -1 -1</clus>
<clus scale="  130.979">  2  5  1 -1</clus>
<clus scale="   85.772">  2  5  1 -1</clus>
</clustering>
</event>
<event>
10    4  0.3738096E-005  0.1040492E+03  0.7546771E-02  0.1274860E+00
          2   -1    0    0  503    0 -0.00000000000E+00  0.00000000000E+00  0.34160278180E+03  0.34160278180E+03  0.00000000000E+00 0. -1.
         21   -1    0    0  501  502  0.00000000000E+00 -0.00000000000E+00 -0.26404613259E+03  0.26404613259E+03  0.00000000000E+00 0. -1.
         24    2    1    2    0    0 -0.31793543794E+02 -0.72007748253E+02  0.20232461168E+03  0.23255861895E+03  0.83380558419E+02 0.  0.
         23    2    1    2    0    0 -0.41566793255E+02  0.63241398993E+02 -0.21310052291E+03  0.24334649060E+03  0.89879968691E+02 0.  0.
        -11    1    3    3    0    0 -0.90536676481E+01  0.18291456996E+02  0.25016607345E+02  0.32285862850E+02  0.00000000000E+00 0.  1.
         12    1    3    3    0    0 -0.22739876146E+02 -0.90299205248E+02  0.17730800433E+03  0.20027275610E+03  0.00000000000E+00 0. -1.
        -11    1    4    4    0    0  0.28330736275E+02  0.24863255923E+02 -0.64708938905E+02  0.74886974082E+02  0.00000000000E+00 0. -1.
         11    1    4    4    0    0 -0.69897529530E+02  0.38378143069E+02 -0.14839158401E+03  0.16845951651E+03  0.00000000000E+00 0.  1.
         21    1    1    2  503  502  0.28846729131E+02  0.29988499343E+02  0.21939538880E+02  0.47040272541E+02  0.00000000000E+00 0.  1.
          1    1    1    2  501    0  0.44513607917E+02 -0.21222150084E+02  0.66393021567E+02  0.82703532311E+02  0.00000000000E+00 0. -1.
<scales pt_clust_5="13000.00000" pt_clust_6="13000.00000" pt_clust_7="13000.00000" pt_clust_8="13000.00000" pt_clust_9="41.61062" pt_clust_10="53.36933"></scales>
<clustering>
<clus scale="   41.611">  1  9  2 -1</clus>
<clus scale="   53.369">  2 10  1 -1</clus>
<clus scale="   83.381">  5  6 -1 -1</clus>
<clus scale="   89.880">  7  8 -1 -1</clus>
<clus scale="   98.489">  1  5  2 -1</clus>
<clus scale="   53.369">  2  5  1 -1</clus>
</clustering>
</event>
<event>
10    4  0.3738096E-005  0.9824137E+02  0.7546771E-02  0.1288682E+00
          2   -1    0    0  503    0 -0.00000000000E+00  0.00000000000E+00  0.21178314262E+03  0.21178314262E+03  0.00000000000E+00 0. -1.
         21   -1    0    0  501  502  0.00000000000E+00 -0.00000000000E+00 -0.12801493066E+03  0.12801493066E+03  0.00000000000E+00 0. -1.
         23    2    1    2    0    0  0.10021126791E+02  0.14339508890E+02  0.55823991018E+02  0.10720189572E+03  0.89832532948E+02 0.  0.
         24    2    1    2    0    0  0.30567397912E+02 -0.94153968425E+02  0.18546935992E+02  0.12908866343E+03  0.80749975887E+02 0.  0.
        -13    1    4    4    0    0 -0.24175679261E+02 -0.26677463273E+02  0.21889523373E+02  0.42134329803E+02  0.00000000000E+00 0.  1.
         14    1    4    4    0    0  0.54743077173E+02 -0.67476505152E+02 -0.33425873808E+01  0.86954333626E+02  0.00000000000E+00 0. -1.
        -11    1    3    3    0    0 -0.35370436692E+02  0.24786107897E+02  0.37327550149E+02  0.57085593074E+02  0.00000000000E+00 0.  1.
         11    1    3    3    0    0  0.45391563484E+02 -0.10446599007E+02  0.18496440869E+02  0.50116302648E+02  0.00000000000E+00 0. -1.
         21    1    1    2  503  502 -0.14750793995E+02  0.73822352056E+02 -0.25577988826E+00  0.75282076286E+02  0.00000000000E+00 0. -1.
          1    1    1    2  501    0 -0.25837730708E+02  0.59921074788E+01  0.96530648392E+01  0.28225437835E+02  0.00000000000E+00 0. -1.
<scales pt_clust_5="13000.00000" pt_clust_6="13000.00000" pt_clust_7="13000.00000" pt_clust_8="13000.00000" pt_clust_9="79.13552" pt_clust_10="26.52347"></scales>
<clustering>
<clus scale="   26.523">  2 10  1 -1</clus>
<clus scale="   79.136">  2  9  1 -1</clus>
<clus scale="   80.750">  5  6 -1 -1</clus>
<clus scale="   89.833">  7  8 -1 -1</clus>
<clus scale="   90.011">  2  5  1 -1</clus>
<clus scale="   26.523">  2  5  1 -1</clus>
</clustering>
</event>
<event>
10    4  0.3738096E-005  0.1532002E+03  0.7546771E-02  0.1212315E+00
         -3   -1    0    0    0  501 -0.00000000000E+00  0.00000000000E+00  0.55819053192E+03  0.55819053192E+03  0.00000000000E+00 0.  1.
         21   -1    0    0  503  502  0.00000000000E+00 -0.00000000000E+00 -0.12311839346E+03  0.12311839346E+03  0.00000000000E+00 0. -1.
         23    2    1    2    0    0  0.11649208146E+03  0.72540154832E+02  0.29901323435E+03  0.34123559901E+03  0.90555732064E+02 0.  0.
         24    2    1    2    0    0  0.15526223245E+02 -0.98519324356E+02  0.68420947060E+02  0.14516723361E+03  0.80280625543E+02 0.  0.
        -13    1    4    4    0    0  0.33021385418E+02 -0.91733191560E+02  0.77286685657E+02  0.12441311068E+03  0.00000000000E+00 0.  1.
         14    1    4    4    0    0 -0.17495162174E+02 -0.67861327964E+01 -0.88657385967E+01  0.20754122932E+02  0.00000000000E+00 0. -1.
        -13    1    3    3    0    0  0.27281505974E+01  0.46295638792E+02  0.10528295789E+03  0.11504447053E+03  0.00000000000E+00 0. -1.
         13    1    3    3    0    0  0.11376393086E+03  0.26244516040E+02  0.19373027646E+03  0.22619112848E+03  0.00000000000E+00 0.  1.
         21    1    1    2  503  501 -0.10355154970E+03 -0.30225851198E+02  0.75132835171E+02  0.13145899911E+03  0.00000000000E+00 0. -1.
         -4    1    1    2    0  502 -0.28466755001E+02  0.56205020722E+02 -0.74948781203E+01  0.63447093650E+02  0.00000000000E+00 0.  1.
<scales pt_clust_5="13000.00000" pt_clust_6="13000.00000" pt_clust_7="13000.00000" pt_clust_8="13000.00000" pt_clust_9="123.57170" pt_clust_10="63.00286"></scales>
<clustering>
<clus scale="   63.003">  2 10  1 -1</clus>
<clus scale="   80.281">  5  6 -1 -1</clus>
<clus scale="   90.556">  7  8 -1 -1</clus>
<clus scale="  109.167">  2  5  1 -1</clus>
<clus scale="  123.572">  2  9  1 -1</clus>
<clus scale="   63.003">  2  5  1 -1</clus>
</clustering>
</event>
<event>
10    4  0.3738096E-005  0.1222457E+03  0.7546771E-02  0.1243785E+00
          2   -1    0    0  503    0 -0.00000000000E+00  0.00000000000E+00  0.28249704849E+03  0.28249704849E+03  0.00000000000E+00 0. -1.
         21   -1    0    0  501  502  0.00000000000E+00 -0.00000000000E+00 -0.12887514235E+03  0.12887514235E+03  0.00000000000E+00 0. -1.
         23    2    1    2    0    0 -0.83850573115E+02 -0.78554257580E+02  0.68711859273E+02  0.16379831209E+03  0.94376254664E+02 0.  0.
         24    2    1    2    0    0  0.17015757504E+02  0.45965252309E+02 -0.28506231808E+01  0.94362567895E+02  0.80584289684E+02 0.  0.
        -13    1    4    4    0    0 -0.12099033959E+02  0.51205641304E+02  0.20709356432E+02  0.56544511386E+02  0.00000000000E+00 0.  1.
         14    1    4    4    0    0  0.29114791463E+02 -0.52403889948E+01 -0.23559979613E+02  0.37818056509E+02  0.00000000000E+00 0. -1.
        -13    1    3    3    0    0 -0.20411016122E+02  0.12848379674E+02 -0.11419407413E+02  0.26685076448E+02  0.00000000000E+00 0.  1.
         13    1    3    3    0    0 -0.63439556993E+02 -0.91402637255E+02  0.80131266686E+02  0.13711323565E+03  0.00000000000E+00 0. -1.
         21    1    1    2  503  502  0.63368074051E+02 -0.18183270548E+02  0.76689048311E+02  0.10113038251E+03  0.00000000000E+00 0. -1.
          1    1    1    2  501    0  0.34667415602E+01  0.50772275819E+02  0.11071621739E+02  0.52080928340E+02  0.00000000000E+00 0. -1.
<scales pt_clust_5="13000.00000" pt_clust_6="13000.00000" pt_clust_7="13000.00000" pt_clust_8="13000.00000" pt_clust_9="64.96467" pt_clust_10="50.89049"></scales>
<clustering>
<clus scale="   50.890">  2 10  1 -1</clus>
<clus scale="   64.965">  1  9  2 -1</clus>
<clus scale="   80.584">  5  6 -1 -1</clus>
<clus scale="   94.376">  7  8 -1 -1</clus>
<clus scale="  111.942">  2  5  1 -1</clus>
<clus scale="   50.890">  2  5  1 -1</clus>
</clustering>
</event>
<event>
10    4  0.3738096E-005  0.1625381E+03  0.7546771E-02  0.1195287E+00
         21   -1    0    0  503  502  0.00000000000E+00  0.00000000000E+00  0.58834241228E+02  0.58834241228E+02  0.00000000000E+00 0.  1.
          2   -1    0    0  502    0 -0.00000000000E+00 -0.00000000000E+00 -0.13247700727E+04  0.13247700727E+04  0.00000000000E+00 0. -1.
         24    2    1    2    0    0 -0.10493323109E+03 -0.12259122269E+02 -0.19805988465E+03  0.23801917793E+03  0.79146333394E+02 0.  0.
         23    2    1    2    0    0 -0.20983619361E+02 -0.12566197468E+03 -0.19609545657E+03  0.25081043761E+03  0.90670851795E+02 0.  0.
        -13    1    3    3    0    0 -0.50851643141E+02 -0.62274452314E+01 -0.25785569810E+02  0.57354740821E+02  0.00000000000E+00 0.  1.
         14    1    3    3    0    0 -0.54081587953E+02 -0.60316770379E+01 -0.17227431484E+03  0.18066443711E+03  0.00000000000E+00 0. -1.
        -11    1    4    4    0    0 -0.26503881869E+02 -0.74754500312E+02 -0.44816105376E+02  0.91099804457E+02  0.00000000000E+00 0.  1.
         11    1    4    4    0    0  0.55202625081E+01 -0.50907474368E+02 -0.15127935120E+03  0.15971063316E+03  0.00000000000E+00 0. -1.
         21    1    1    2  503  501  0.12191058204E+03  0.95796947521E+02 -0.74982112390E+03  0.76568333077E+03  0.00000000000E+00 0. -1.
          1    1    1    2  501    0  0.40062684201E+01  0.42124149428E+02 -0.12195936632E+03  0.12909136759E+03  0.00000000000E+00 0. -1.
<scales pt_clust_5="13000.00000" pt_clust_6="13000.00000" pt_clust_7="13000.00000" pt_clust_8="13000.00000" pt_clust_9="39.59060" pt_clust_10="154.72788"></scales>
<clustering>
<clus scale="   39.591">  9 10 -1 -1</clus>
<clus scale="   79.146">  5  6 -1 -1</clus>
<clus scale="   90.671">  7  8 -1 -1</clus>
<clus scale="  132.005">  2  5  1 -1</clus>
<clus scale="  154.728">  1  9  2 -1</clus>
<clus scale="  154.728">  1  5  2 -1</clus>
</clustering>
</event>
<event>
10    4  0.3738096E-005  0.2714925E+03  0.7546771E-02  0.1100872E+00
          4   -1    0    0  502    0 -0.00000000000E+00  0.00000000000E+00  0.63223070226E+03  0.63223070226E+03  0.00000000000E+00 0. -1.
         21   -1    0    0  503  502  0.00000000000E+00 -0.00000000000E+00 -0.25835161184E+03  0.25835161184E+03  0.00000000000E+00 0. -1.
         24    2    1    2    0    0  0.14228103958E+03 -0.11896022724E+03  0.50178336745E+02  0.20811146150E+03  0.79981779425E+02 0.  0.
         23    2    1    2    0    0 -0.30994010653E+03  0.21398052663E+03  0.14684224225E+03  0.41410636560E+03  0.89838201817E+02 0.  0.
        -13    1    3    3    0    0  0.11200265545E+03 -0.55943452646E+02  0.58587204546E+01  0.12533391132E+03  0.00000000000E+00 0.  1.
         14    1    3    3    0    0  0.30278384137E+02 -0.63016774597E+02  0.44319616291E+02  0.82777550185E+02  0.00000000000E+00 0. -1.
        -13    1    4    4    0    0 -0.59971675189E+02  0.44265249175E+02 -0.73449278855E+01  0.74899680074E+02  0.00000000000E+00 0.  1.
         13    1    4    4    0    0 -0.24996843134E+03  0.16971527745E+03  0.15418717014E+03  0.33920668552E+03  0.00000000000E+00 0. -1.
         21    1    1    2  503  501  0.14706026258E+02 -0.28850141381E+02  0.47076210732E+02  0.57138143853E+02  0.00000000000E+00 0. -1.
          3    1    1    2  501    0  0.15295304069E+03 -0.66170158004E+02  0.12978230069E+03  0.21122634314E+03  0.00000000000E+00 0. -1.
<scales pt_clust_5="13000.00000" pt_clust_6="13000.00000" pt_clust_7="13000.00000" pt_clust_8="13000.00000" pt_clust_9="26.45615" pt_clust_10="201.84302"></scales>
<clustering>
<clus scale="   26.456">  9 10 -1 -1</clus>
<clus scale="   79.982">  5  6 -1 -1</clus>
<clus scale="   89.838">  7  8 -1 -1</clus>
<clus scale="  201.843">  2  9  1 -1</clus>
<clus scale="  268.392">  1  5  2 -1</clus>
<clus scale="  201.843">  2  5  1 -1</clus>
</clustering>
</event>
<event>
10    4  0.3738096E-005  0.9683025E+02  0.7546771E-02  0.1290713E+00
          2   -1    0    0  503    0 -0.00000000000E+00  0.00000000000E+00  0.55404451978E+03  0.55404451978E+03  0.00000000000E+00 0. -1.
         21   -1    0    0  501  502  0.00000000000E+00 -0.00000000000E+00 -0.14215018483E+03  0.14215018483E+03  0.00000000000E+00 0. -1.
         23    2    1    2    0    0 -0.38613251073E+02  0.11695775056E+02  0.35230168943E+03  0.36614360204E+03  0.91196944183E+02 0.  0.
         24    2    1    2    0    0  0.28030478860E+02  0.98795164512E+02  0.27455918775E+02  0.13356930135E+03  0.80874832374E+02 0.  0.
        -13    1    4    4    0    0  0.53545301548E+02  0.44942608054E+02  0.23873004808E+02  0.73870546871E+02  0.00000000000E+00 0.  1.
         14    1    4    4    0    0 -0.25514822688E+02  0.53852556458E+02  0.35829139673E+01  0.59698754480E+02  0.00000000000E+00 0. -1.
        -11    1    3    3    0    0 -0.10664474801E+02 -0.39701039321E+02  0.13698998879E+03  0.14302503479E+03  0.00000000000E+00 0.  1.
         11    1    3    3    0    0 -0.27948776272E+02  0.51396814377E+02  0.21531170063E+03  0.22311856725E+03  0.00000000000E+00 0. -1.
         21    1    1    2  503  502  0.14561131505E+02 -0.21187696561E+02  0.87591287522E+02  0.91286245876E+02  0.00000000000E+00 0.  1.
          1    1    1    2  501    0 -0.39783592915E+01 -0.89303243007E+02 -0.55454560774E+02  0.10519555535E+03  0.00000000000E+00 0. -1.
<scales pt_clust_5="13000.00000" pt_clust_6="13000.00000" pt_clust_7="13000.00000" pt_clust_8="13000.00000" pt_clust_9="25.70885" pt_clust_10="90.49398"></scales>
<clustering>
<clus scale="   25.709">  1  9  2 -1</clus>
<clus scale="   80.875">  5  6 -1 -1</clus>
<clus scale="   90.494">  2 10  1 -1</clus>
<clus scale="   90.494">  2  5  1 -1</clus>
<clus scale="   91.197">  7  8 -1 -1</clus>
<clus scale="   90.494">  2  5  1 -1</clus>
</clustering>
</event>
<event>
10    4  0.3738096E-005  0.2444403E+03  0.7546771E-02  0.1117948E+00
         21   -1    0    0  501  502  0.00000000000E+00  0.00000000000E+00  0.18575096172E+03  0.18575096172E+03  0.00000000000E+00 0.  1.
          2   -1    0    0  503    0 -0.00000000000E+00 -0.00000000000E+00 -0.15641734745E+04  0.15641734745E+04  0.00000000000E+00 0. -1.
         24    2    1    2    0    0  0.22810767811E+03 -0.43555021298E+01 -0.31887061150E+03  0.40008689408E+03  0.79617665888E+02 0.  0.
         23    2    1    2    0    0 -0.15765267703E+03  0.15970130265E+03  0.11497345046E+02  0.24490935759E+03  0.97414228169E+02 0.  0.
        -13    1    3    3    0    0  0.42624643513E+02 -0.20124923709E+02 -0.28233280163E+02  0.54945344640E+02  0.00000000000E+00 0.  1.
         14    1    3    3    0    0  0.18548303460E+03  0.15769421579E+02 -0.29063733133E+03  0.34514154944E+03  0.00000000000E+00 0. -1.
        -13    1    4    4    0    0 -0.17085887218E+03  0.14074442585E+03  0.77101473550E+01  0.22149761620E+03  0.00000000000E+00 0.  1.
         13    1    4    4    0    0  0.13206195153E+02  0.18956876805E+02  0.37871976915E+01  0.23411741391E+02  0.00000000000E+00 0. -1.
         21    1    1    2  503  502  0.20881253264E+02 -0.13730005059E+03 -0.32970500335E+03  0.35776070195E+03  0.00000000000E+00 0.  1.
          1    1    1    2  501    0 -0.91336254351E+02 -0.18045749927E+02 -0.74134424298E+03  0.74716748260E+03  0.00000000000E+00 0. -1.
<scales pt_clust_5="13000.00000" pt_clust_6="13000.00000" pt_clust_7="13000.00000" pt_clust_8="13000.00000" pt_clust_9="139.37678" pt_clust_10="93.10193"></scales>
<clustering>
<clus scale="   79.618">  5  6 -1 -1</clus>
<clus scale="   93.102">  1 10  2 -1</clus>
<clus scale="   97.414">  7  8 -1 -1</clus>
<clus scale="  139.377">  2  9  1 -1</clus>
<clus scale="  237.909">  2  5  1 -1</clus>
<clus scale="   93.102">  1  5  2 -1</clus>
</clustering>
</event>
<event>
10    4  0.3738096E-005  0.1496164E+03  0.7546771E-02  0.1226324E+00
         -1   -1    0    0    0  501 -0.00000000000E+00  0.00000000000E+00  0.22231907072E+02  0.22231907072E+02  0.00000000000E+00 0.  1.
         21   -1    0    0  503  502  0.00000000000E+00 -0.00000000000E+00 -0.18003224757E+04  0.18003224757E+04  0.00000000000E+00 0.  1.
         24    2    1    2    0    0  0.98519601246E+01 -0.35169586390E+02 -0.39638965565E+03  0.40613154868E+03  0.80524001398E+02 0.  0.
         23    2    1    2    0    0  0.62278059904E+02  0.12058846290E+03 -0.66484648379E+03  0.68526826306E+03  0.95664054002E+02 0.  0.
        -13    1    3    3    0    0  0.21652592907E+02 -0.13462282739E+02 -0.32047220288E+02  0.40952315739E+02  0.00000000000E+00 0.  1.
         14    1    3    3    0    0 -0.11800632782E+02 -0.21707303651E+02 -0.36434243536E+03  0.36517923294E+03  0.00000000000E+00 0. -1.
        -13    1    4    4    0    0 -0.67847830424E+01  0.61658028026E+02 -0.14744312439E+03  0.15996005949E+03  0.00000000000E+00 0. -1.
         13    1    4    4    0    0  0.69062842946E+02  0.58930434872E+02 -0.51740335939E+03  0.52530820357E+03  0.00000000000E+00 0.  1.
         21    1    1    2  503  501 -0.19026149524E+02  0.71420378828E+01 -0.31128787311E+02  0.37175320715E+02  0.00000000000E+00 0.  1.
         -2    1    1    2    0  502 -0.53103870505E+02 -0.92560914391E+02 -0.68572564185E+03  0.69397925029E+03  0.00000000000E+00 0.  1.
<scales pt_clust_5="13000.00000" pt_clust_6="13000.00000" pt_clust_7="13000.00000" pt_clust_8="13000.00000" pt_clust_9="20.32248" pt_clust_10="115.03674"></scales>
<clustering>
<clus scale="   20.322">  1  9  2 -1</clus>
<clus scale="   80.524">  5  6 -1 -1</clus>
<clus scale="   87.305">  1  5  2 -1</clus>
<clus scale="   95.664">  7  8 -1 -1</clus>
<clus scale="  115.037">  2 10  1 -1</clus>
<clus scale="  115.037">  2  5  1 -1</clus>
</clustering>
</event>
<event>
10    4  0.3738096E-005  0.2314933E+03  0.7546771E-02  0.1126441E+00
          2   -1    0    0  503    0 -0.00000000000E+00  0.00000000000E+00  0.75689196808E+03  0.75689196808E+03  0.00000000000E+00 0. -1.
         21   -1    0    0  501  502  0.00000000000E+00 -0.00000000000E+00 -0.41646112712E+03  0.41646112712E+03  0.00000000000E+00 0.  1.
         23    2    1    2    0    0  0.16964488859E+03  0.10219785943E+03  0.57042687894E+03  0.61092057750E+03  0.92808065969E+02 0.  0.
         24    2    1    2    0    0 -0.13981655399E+03 -0.55733700243E+02 -0.29631214850E+03  0.34185901560E+03  0.80073610408E+02 0.  0.
        -13    1    4    4    0    0 -0.99436610921E+02 -0.35627480133E+02 -0.26931658450E+03  0.28928943917E+03  0.00000000000E+00 0.  1.
         14    1    4    4    0    0 -0.40379943073E+02 -0.20106220110E+02 -0.26995564004E+02  0.52569576426E+02  0.00000000000E+00 0. -1.
        -13    1    3    3    0    0  0.11187434390E+03  0.55115139174E+02  0.46747582123E+03  0.48382557893E+03  0.00000000000E+00 0. -1.
         13    1    3    3    0    0  0.57770544695E+02  0.47082720252E+02  0.10295105770E+03  0.12709499857E+03  0.00000000000E+00 0.  1.
         21    1    1    2  503  502  0.12135049592E+01  0.35694301872E+02  0.11481757010E+03  0.12024404428E+03  0.00000000000E+00 0.  1.
          1    1    1    2  501    0 -0.31041839559E+02 -0.82158461054E+02 -0.48501459572E+02  0.10032945782E+03  0.00000000000E+00 0. -1.
<scales pt_clust_5="13000.00000" pt_clust_6="13000.00000" pt_clust_7="13000.00000" pt_clust_8="13000.00000" pt_clust_9="35.71492" pt_clust_10="86.45767"></scales>
<clustering>
<clus scale="   35.715">  1  9  2 -1</clus>
<clus scale="   80.074">  5  6 -1 -1</clus>
<clus scale="   86.458">  2 10  1 -1</clus>
<clus scale="   92.808">  7  8 -1 -1</clus>
<clus scale="  226.688">  2  5  1 -1</clus>
<clus scale="   86.458">  2  5  1 -1</clus>
</clustering>
</event>
<event>
10    4  0.3738096E-005  0.1253143E+03  0.7546771E-02  0.1244907E+00
          2   -1    0    0  503    0 -0.00000000000E+00  0.00000000000E+00  0.58772554447E+03  0.58772554447E+03  0.00000000000E+00 0. -1.
         21   -1    0    0  501  502  0.00000000000E+00 -0.00000000000E+00 -0.10664978283E+03  0.10664978283E+03  0.00000000000E+00 0.  1.
         24    2    1    2    0    0 -0.94881302763E+02  0.66268431390E+01  0.34834337890E+03  0.36945061436E+03  0.78129828884E+02 0.  0.
         23    2    1    2    0    0 -0.13611789723E+02  0.33100827892E+02 -0.75577702162E+01  0.97937170551E+02  0.90849457117E+02 0.  0.
        -11    1    3    3    0    0 -0.85243533731E+02 -0.14557068722E+02  0.18215232208E+03  0.20163788516E+03  0.00000000000E+00 0.  1.
         12    1    3    3    0    0 -0.96377690328E+01  0.21183911861E+02  0.16619105682E+03  0.16781272920E+03  0.00000000000E+00 0. -1.
        -13    1    4    4    0    0 -0.70228978889E-01  0.53806561277E+02 -0.32455634103E+02  0.62837243364E+02  0.00000000000E+00 0.  1.
         13    1    4    4    0    0 -0.13541560744E+02 -0.20705733385E+02  0.24897863887E+02  0.35099927187E+02  0.00000000000E+00 0. -1.
         21    1    1    2  503  502  0.93496700691E+02 -0.58327627431E+02  0.16118007737E+03  0.19525051217E+03  0.00000000000E+00 0. -1.
          1    1    1    2  501    0  0.14996391795E+02  0.18599956400E+02 -0.20889924412E+02  0.31737030216E+02  0.00000000000E+00 0. -1.
<scales pt_clust_5="13000.00000" pt_clust_6="13000.00000" pt_clust_7="13000.00000" pt_clust_8="13000.00000" pt_clust_9="97.97657" pt_clust_10="23.89247"></scales>
<clustering>
<clus scale="   23.892">  2 10  1 -1</clus>
<clus scale="   78.130">  5  6 -1 -1</clus>
<clus scale="   90.849">  7  8 -1 -1</clus>
<clus scale="  101.593">  2  7  1 -1</clus>
<clus scale="   97.977">  2  9  1 -1</clus>
<clus scale="   23.892">  2  5  1 -1</clus>
</clustering>
</event>
<event>
10    4  0.3738096E-005  0.3159460E+03  0.7546771E-02  0.1112250E+00
          2   -1    0    0  503    0 -0.00000000000E+00  0.00000000000E+00  0.15375949651E+04  0.15375949651E+04  0.00000000000E+00 0. -1.
         21   -1    0    0  501  502  0.00000000000E+00 -0.00000000000E+00 -0.30373457991E+03  0.30373457991E+03  0.00000000000E+00 0.  1.
         24    2    1    2    0    0 -0.26036902819E+03 -0.12684436044E+03  0.10316339498E+04  0.10742054354E+04  0.75942007911E+02 0.  0.
         23    2    1    2    0    0 -0.77585780839E+02  0.26212942440E+02  0.13974176833E+03  0.18618274723E+03  0.91812754071E+02 0.  0.
        -11    1    3    3    0    0 -0.22015960483E+03 -0.76223175258E+02  0.75565260154E+03  0.79075348767E+03  0.00000000000E+00 0.  1.
         12    1    3    3    0    0 -0.40209423352E+02 -0.50621185187E+02  0.27598134825E+03  0.28345194778E+03  0.00000000000E+00 0. -1.
        -11    1    4    4    0    0 -0.77866295787E+02  0.54304164486E+02  0.10851685158E+03  0.14418047502E+03  0.00000000000E+00 0. -1.
         11    1    4    4    0    0  0.28051494801E+00 -0.28091222046E+02  0.31224916752E+02  0.42002272211E+02  0.00000000000E+00 0.  1.
         21    1    1    2  503  502  0.40381055477E+03  0.14313917321E+03  0.15866570902E+03  0.45686605726E+03  0.00000000000E+00 0.  1.
          1    1    1    2  501    0 -0.65855745749E+02 -0.42507755204E+02 -0.96181041947E+02  0.12407530508E+03  0.00000000000E+00 0. -1.
<scales pt_clust_5="13000.00000" pt_clust_6="13000.00000" pt_clust_7="13000.00000" pt_clust_8="13000.00000" pt_clust_9="306.68332" pt_clust_10="78.38296"></scales>
<clustering>
<clus scale="   75.942">  5  6 -1 -1</clus>
<clus scale="   78.383">  2 10  1 -1</clus>
<clus scale="   91.813">  7  8 -1 -1</clus>
<clus scale="  127.212">  2  7  1 -1</clus>
<clus scale="  306.683">  2  9  1 -1</clus>
<clus scale="   78.383">  2  5  1 -1</clus>
</clustering>
</event>
<event>
10    4  0.3738096E-005  0.3330636E+03  0.7546771E-02  0.1075559E+00
          4   -1    0    0  503    0 -0.00000000000E+00  0.00000000000E+00  0.64929681665E+03  0.64929681665E+03  0.00000000000E+00 0. -1.
         21   -1    0    0  501  502  0.00000000000E+00 -0.00000000000E+00 -0.97892206160E+03  0.97892206160E+03  0.00000000000E+00 0. -1.
         23    2    1    2    0    0 -0.40165444763E+02  0.27102799015E+03 -0.66561641868E+03  0.72790691265E+03  0.10832276897E+03 0.  0.
         24    2    1    2    0    0  0.36880460669E+03 -0.85338212884E+02  0.45134880278E+02  0.38935944625E+03  0.79146525350E+02 0.  0.
        -13    1    4    4    0    0  0.31826610294E+03 -0.48585723450E+02  0.21923878517E+02  0.32269883986E+03  0.00000000000E+00 0.  1.
         14    1    4    4    0    0  0.50538503754E+02 -0.36752489434E+02  0.23211001760E+02  0.66660606388E+02  0.00000000000E+00 0. -1.
        -13    1    3    3    0    0 -0.59713133945E+01  0.84328198564E+02 -0.34601854379E+03  0.35619620197E+03  0.00000000000E+00 0. -1.
         13    1    3    3    0    0 -0.34194131369E+02  0.18669979159E+03 -0.31959787489E+03  0.37171071068E+03  0.00000000000E+00 0.  1.
         21    1    1    2  503  502 -0.69363396616E+02 -0.32860522631E+02 -0.18916204569E+02  0.79050095086E+02  0.00000000000E+00 0.  1.
          3    1    1    2  501    0 -0.25927576531E+03 -0.15282925463E+03  0.30977249802E+03  0.43190242426E+03  0.00000000000E+00 0. -1.
<scales pt_clust_5="13000.00000" pt_clust_6="13000.00000" pt_clust_7="13000.00000" pt_clust_8="13000.00000" pt_clust_9="76.75347" pt_clust_10="323.52325"></scales>
<clustering>
<clus scale="   76.753">  2  9  1 -1</clus>
<clus scale="   79.147">  5  6 -1 -1</clus>
<clus scale="  108.323">  7  8 -1 -1</clus>
<clus scale="  284.499">  1  7  2 -1</clus>
<clus scale="  323.523">  2 10  1 -1</clus>
<clus scale="   76.753">  2  5  1 -1</clus>
</clustering>
</event>
<event>
10    4  0.3738096E-005  0.1368408E+03  0.7546771E-02  0.1226569E+00
          2   -1    0    0  503    0 -0.00000000000E+00  0.00000000000E+00  0.34335787946E+03  0.34335787946E+03  0.00000000000E+00 0. -1.
         21   -1    0    0  501  502  0.00000000000E+00 -0.00000000000E+00 -0.32587104094E+03  0.32587104094E+03  0.00000000000E+00 0. -1.
         24    2    1    2    0    0  0.74359063661E+02  0.82075073288E+01  0.11615468911E+02  0.11039224302E+03  0.80342359168E+02 0.  0.
         23    2    1    2    0    0 -0.57302429684E+02  0.11575601762E+03 -0.22484644351E+03  0.27449467913E+03  0.90046552676E+02 0.  0.
        -13    1    3    3    0    0  0.91125811900E+01  0.36993800208E+02 -0.23223622974E+00  0.38100319204E+02  0.00000000000E+00 0.  1.
         14    1    3    3    0    0  0.65246482471E+02 -0.28786292879E+02  0.11847705141E+02  0.72291923820E+02  0.00000000000E+00 0. -1.
        -13    1    4    4    0    0 -0.81903488298E+02  0.92725564774E+02 -0.17908206645E+03  0.21766166011E+03  0.00000000000E+00 0. -1.
         13    1    4    4    0    0  0.24601058614E+02  0.23030452846E+02 -0.45764377064E+02  0.56833019023E+02  0.00000000000E+00 0.  1.
         21    1    1    2  503  502 -0.53278671691E+02 -0.10550756217E+03  0.20376929025E+03  0.23556821981E+03  0.00000000000E+00 0. -1.
          1    1    1    2  501    0  0.36222037714E+02 -0.18455962781E+02  0.26948522861E+02  0.48773778434E+02  0.00000000000E+00 0. -1.
<scales pt_clust_5="13000.00000" pt_clust_6="13000.00000" pt_clust_7="13000.00000" pt_clust_8="13000.00000" pt_clust_9="103.03894" pt_clust_10="40.65292"></scales>
<clustering>
<clus scale="   40.653">  2 10  1 -1</clus>
<clus scale="   80.342">  5  6 -1 -1</clus>
<clus scale="   90.047">  7  8 -1 -1</clus>
<clus scale="  113.531">  1  5  2 -1</clus>
<clus scale="  103.039">  1  9  2 -1</clus>
<clus scale="   40.653">  2  5  1 -1</clus>
</clustering>
</event>
<event>
10    4  0.3738096E-005  0.3016146E+03  0.7546771E-02  0.1084436E+00
         21   -1    0    0  501  502  0.00000000000E+00  0.00000000000E+00  0.64158735111E+02  0.64158735111E+02  0.00000000000E+00 0.  1.
          2   -1    0    0  503    0 -0.00000000000E+00 -0.00000000000E+00 -0.14062782402E+04  0.14062782402E+04  0.00000000000E+00 0. -1.
         24    2    1    2    0    0  0.15326440795E+03 -0.12038199987E+02 -0.29083659974E+03  0.33909527675E+03  0.82248294605E+02 0.  0.
         23    2    1    2    0    0  0.75835886136E+02 -0.50536211563E+02 -0.20573553020E+03  0.24181840926E+03  0.88566609764E+02 0.  0.
        -11    1    3    3    0    0  0.16097709417E+03 -0.53442475779E+01 -0.25311460346E+03  0.30001531347E+03  0.00000000000E+00 0.  1.
         12    1    3    3    0    0 -0.77126862142E+01 -0.66939524092E+01 -0.37721996273E+02  0.39079963284E+02  0.00000000000E+00 0. -1.
        -11    1    4    4    0    0  0.47037103106E+02 -0.28864197764E+02 -0.30783149388E+02  0.63192034841E+02  0.00000000000E+00 0.  1.
         11    1    4    4    0    0  0.28798783030E+02 -0.21672013799E+02 -0.17495238081E+03  0.17862637442E+03  0.00000000000E+00 0. -1.
         21    1    1    2  503  502  0.88297005356E+01  0.34675278774E+02 -0.87867758907E+02  0.94874030298E+02  0.00000000000E+00 0.  1.
          1    1    1    2  501    0 -0.23792999463E+03  0.27899132776E+02 -0.75767961621E+03  0.79464925896E+03  0.00000000000E+00 0. -1.
<scales pt_clust_5="13000.00000" pt_clust_6="13000.00000" pt_clust_7="13000.00000" pt_clust_8="13000.00000" pt_clust_9="35.78182" pt_clust_10="237.69122"></scales>
<clustering>
<clus scale="   35.782">  2  9  1 -1</clus>
<clus scale="   82.248">  5  6 -1 -1</clus>
<clus scale="   88.567">  7  8 -1 -1</clus>
<clus scale="   99.206">  5  7 -1 -1</clus>
<clus scale="  237.691">  1 10  2 -1</clus>
<clus scale="  237.691">  1  5  2 -1</clus>
</clustering>
</event>
<event>
10    4  0.3738096E-005  0.1064412E+03  0.7546771E-02  0.1271537E+00
         -3   -1    0    0    0  501 -0.00000000000E+00  0.00000000000E+00  0.62548045655E+02  0.62548045655E+02  0.00000000000E+00 0.  1.
         21   -1    0    0  503  502  0.00000000000E+00 -0.00000000000E+00 -0.82092173085E+03  0.82092173085E+03  0.00000000000E+00 0.  1.
         23    2    1    2    0    0 -0.29437465200E+02  0.47943787263E+02 -0.15918290405E+03  0.18239015762E+03  0.69005808160E+02 0.  0.
         24    2    1    2    0    0  0.68675049257E+02 -0.84171787687E+02 -0.60184196014E+03  0.61683760620E+03  0.80459525246E+02 0.  0.
        -13    1    4    4    0    0  0.84975804943E+02 -0.64695001057E+02 -0.52958920731E+03  0.54025092234E+03  0.00000000000E+00 0.  1.
         14    1    4    4    0    0 -0.16300755685E+02 -0.19476786630E+02 -0.72252752832E+02  0.76586683863E+02  0.00000000000E+00 0. -1.
        -11    1    3    3    0    0 -0.17649145400E+02  0.65333349156E+02 -0.11426848320E+03  0.13280521487E+03  0.00000000000E+00 0.  1.
         11    1    3    3    0    0 -0.11788319801E+02 -0.17389561893E+02 -0.44914420854E+02  0.49584942747E+02  0.00000000000E+00 0. -1.
         21    1    1    2  503  501  0.14909438508E+02  0.20140672989E+02  0.10582499665E+02  0.27201605913E+02  0.00000000000E+00 0.  1.
         -4    1    1    2    0  502 -0.54147022565E+02  0.16087327435E+02 -0.79313206625E+01  0.57040406767E+02  0.00000000000E+00 0.  1.
<scales pt_clust_5="13000.00000" pt_clust_6="13000.00000" pt_clust_7="13000.00000" pt_clust_8="13000.00000" pt_clust_9="25.05869" pt_clust_10="53.34507"></scales>
<clustering>
<clus scale="   25.059">  1  9  2 -1</clus>
<clus scale="   53.345">  2 10  1 -1</clus>
<clus scale="   69.006">  7  8 -1 -1</clus>
<clus scale="   80.460">  5  6 -1 -1</clus>
<clus scale="   98.070">  1  7  2 -1</clus>
<clus scale="   53.345">  2  5  1 -1</clus>
</clustering>
</event>
<event>
10    4  0.3738096E-005  0.1223770E+03  0.7546771E-02  0.1241305E+00
          2   -1    0    0  503    0 -0.00000000000E+00  0.00000000000E+00  0.76412669213E+03  0.76412669213E+03  0.00000000000E+00 0. -1.
         21   -1    0    0  501  502  0.00000000000E+00 -0.00000000000E+00 -0.38069106790E+02  0.38069106790E+02  0.00000000000E+00 0. -1.
         23    2    1    2    0    0 -0.76477083253E+02  0.15290377942E+02  0.35537798466E+03  0.37412897061E+03  0.87157528326E+02 0.  0.
         24    2    1    2    0    0  0.94642968678E+02 -0.30443190175E+02  0.24553660610E+03  0.27668859810E+03  0.79901664785E+02 0.  0.
        -11    1    4    4    0    0  0.42094189587E+02 -0.28506890791E+02  0.20236291167E+03  0.20865117215E+03  0.00000000000E+00 0.  1.
         12    1    4    4    0    0  0.52548779091E+02 -0.19362993835E+01  0.43173694429E+02  0.68037425950E+02  0.00000000000E+00 0. -1.
        -13    1    3    3    0    0 -0.50879361681E+02  0.26542621744E+02  0.33409815219E+03  0.33899084871E+03  0.00000000000E+00 0. -1.
         13    1    3    3    0    0 -0.25597721571E+02 -0.11252243802E+02  0.21279832475E+02  0.35138121896E+02  0.00000000000E+00 0.  1.
         21    1    1    2  503  502 -0.20272779073E+02  0.43408103515E+02  0.10828207605E+03  0.11840716624E+03  0.00000000000E+00 0. -1.
          1    1    1    2  501    0  0.21068936475E+01 -0.28255291282E+02  0.16860918524E+02  0.32971063976E+02  0.00000000000E+00 0. -1.
<scales pt_clust_5="13000.00000" pt_clust_6="13000.00000" pt_clust_7="13000.00000" pt_clust_8="13000.00000" pt_clust_9="43.47325" pt_clust_10="28.33373"></scales>
<clustering>
<clus scale="   28.334">  2 10  1 -1</clus>
<clus scale="   43.473">  2  9  1 -1</clus>
<clus scale="   79.902">  5  6 -1 -1</clus>
<clus scale="   87.158">  7  8 -1 -1</clus>
<clus scale="  117.320">  2  5  1 -1</clus>
<clus scale="   28.334">  2  5  1 -1</clus>
</clustering>
</event>
<event>
10    4  0.3738096E-005  0.9852882E+02  0.7546771E-02  0.1288164E+00
          2   -1    0    0  503    0 -0.00000000000E+00  0.00000000000E+00  0.15107380309E+03  0.15107380309E+03  0.00000000000E+00 0. -1.
         21   -1    0    0  501  502  0.00000000000E+00 -0.00000000000E+00 -0.36229670911E+03  0.36229670911E+03  0.00000000000E+00 0.  1.
         24    2    1    2    0    0  0.46477231501E+02 -0.53083775276E+02 -0.26747992344E+01  0.10696389882E+03  0.80349865303E+02 0.  0.
         23    2    1    2    0    0  0.27709757125E+02  0.42471353040E+02 -0.24197723584E+03  0.26376887125E+03  0.91920554323E+02 0.  0.
        -11    1    3    3    0    0  0.45471997783E+02 -0.73317700152E+02  0.14651038475E+01  0.86286350411E+02  0.00000000000E+00 0.  1.
         12    1    3    3    0    0  0.10052337183E+01  0.20233924875E+02 -0.41399030820E+01  0.20677548409E+02  0.00000000000E+00 0. -1.
        -11    1    4    4    0    0  0.93401659006E+01  0.60657316183E+02 -0.85934598178E+02  0.10559973423E+03  0.00000000000E+00 0. -1.
         11    1    4    4    0    0  0.18369591225E+02 -0.18185963143E+02 -0.15604263766E+03  0.15816913702E+03  0.00000000000E+00 0.  1.
         21    1    1    2  503  502 -0.84411594101E+02  0.35442787567E+02  0.56204791480E+02  0.10742665868E+03  0.00000000000E+00 0. -1.
          1    1    1    2  501    0  0.10224605475E+02 -0.24830365330E+02 -0.22775662430E+02  0.35211083463E+02  0.00000000000E+00 0. -1.
<scales pt_clust_5="13000.00000" pt_clust_6="13000.00000" pt_clust_7="13000.00000" pt_clust_8="13000.00000" pt_clust_9="90.09929" pt_clust_10="26.85311"></scales>
<clustering>
<clus scale="   26.853">  2 10  1 -1</clus>
<clus scale="   80.350">  5  6 -1 -1</clus>
<clus scale="   90.099">  1  9  2 -1</clus>
<clus scale="   90.099">  1  5  2 -1</clus>
<clus scale="   91.921">  7  8 -1 -1</clus>
<clus scale="   26.853">  2  5  1 -1</clus>
</clustering>
</event>
<event>
10    4  0.3738096E-005  0.1509975E+03  0.7546771E-02  0.1201085E+00
          4   -1    0    0  503    0 -0.00000000000E+00  0.00000000000E+00  0.81006854834E+03  0.81006854834E+03  0.00000000000E+00 0. -1.
         21   -1    0    0  501  502  0.00000000000E+00 -0.00000000000E+00 -0.71086359945E+02  0.71086359945E+02  0.00000000000E+00 0. -1.
         23    2    1    2    0    0  0.12904076715E+03  0.24649423498E+02  0.56512964786E+03  0.58733247903E+03  0.91262305253E+02 0.  0.
         24    2    1    2    0    0 -0.65651429442E+02 -0.41403081123E+02  0.18826877415E+02  0.11385920943E+03  0.81148893669E+02 0.  0.
        -13    1    4    4    0    0 -0.65113235463E+02 -0.23817675276E+02  0.44756888012E+02  0.82523900250E+02  0.00000000000E+00 0.  1.
         14    1    4    4    0    0 -0.53819397898E+00 -0.17585405848E+02 -0.25930010597E+02  0.31335309176E+02  0.00000000000E+00 0. -1.
        -13    1    3    3    0    0  0.44377328568E+02  0.41572978425E+02  0.12738369889E+03  0.14115334417E+03  0.00000000000E+00 0.  1.
         13    1    3    3    0    0  0.84663438579E+02 -0.16923554927E+02  0.43774594897E+03  0.44617913486E+03  0.00000000000E+00 0. -1.
         21    1    1    2  503  502 -0.76590643295E+00  0.26191414668E+02  0.30139109255E+02  0.39936733988E+02  0.00000000000E+00 0.  1.
          3    1    1    2  501    0 -0.62623431272E+02 -0.94377570425E+01  0.12488655386E+03  0.14002648584E+03  0.00000000000E+00 0. -1.
<scales pt_clust_5="13000.00000" pt_clust_6="13000.00000" pt_clust_7="13000.00000" pt_clust_8="13000.00000" pt_clust_9="26.20261" pt_clust_10="63.04109"></scales>
<clustering>
<clus scale="   26.203">  2  9  1 -1</clus>
<clus scale="   63.041">  2 10  1 -1</clus>
<clus scale="   81.149">  5  6 -1 -1</clus>
<clus scale="   91.262">  7  8 -1 -1</clus>
<clus scale="  145.109">  2  5  1 -1</clus>
<clus scale="   26.203">  2  5  1 -1</clus>
</clustering>
</event>
<event>
10    4  0.8058326E-005  0.1342578E+03  0.7546771E-02  0.1222943E+00
         21   -1    0    0  501  502  0.00000000000E+00  0.00000000000E+00  0.41378154514E+03  0.41378154514E+03  0.00000000000E+00 0. -1.
          4   -1    0    0  503    0 -0.00000000000E+00 -0.00000000000E+00 -0.60286111412E+03  0.60286111412E+03  0.00000000000E+00 0. -1.
         24    2    1    2    0    0  0.11522925789E+03  0.20517702647E+02 -0.49260932212E+03  0.51285500359E+03  0.81593826157E+02 0.  0.
         23    2    1    2    0    0 -0.49783304736E+02 -0.10286880523E+03  0.56536921580E+02  0.15534552935E+03  0.88743684088E+02 0.  0.
        -13    1    3    3    0    0  0.31037233970E+02  0.19264163787E+02 -0.47874571429E+02  0.60219535771E+02  0.00000000000E+00 0.  1.
         14    1    3    3    0    0  0.84192023922E+02  0.12535388605E+01 -0.44473475069E+03  0.45263546781E+03  0.00000000000E+00 0. -1.
        -11    1    4    4    0    0 -0.46736953987E+02 -0.32687357820E+02  0.62783473601E+02  0.84820815763E+02  0.00000000000E+00 0. -1.
         11    1    4    4    0    0 -0.30463507494E+01 -0.70181447414E+02 -0.62465520204E+01  0.70524713584E+02  0.00000000000E+00 0.  1.
         21    1    1    2  503  502 -0.25855162065E+02  0.25922219317E+02 -0.39450170039E+02  0.53821619967E+02  0.00000000000E+00 0. -1.
          3    1    1    2  501    0 -0.39590791092E+02  0.56428883271E+02  0.28644300160E+03  0.29462050636E+03  0.00000000000E+00 0. -1.
<scales pt_clust_5="13000.00000" pt_clust_6="13000.00000" pt_clust_7="13000.00000" pt_clust_8="13000.00000" pt_clust_9="36.61217" pt_clust_10="69.19737"></scales>
<clustering>
<clus scale="   36.612">  2  9  1 -1</clus>
<clus scale="   69.197">  1 10  2 -1</clus>
<clus scale="   81.594">  5  6 -1 -1</clus>
<clus scale="   88.744">  7  8 -1 -1</clus>
<clus scale="  129.643">  2  5  1 -1</clus>
<clus scale="   69.197">  1  5  2 -1</clus>
</clustering>
</event>
<event>
10    4  0.3738096E-005  0.8489301E+02  0.7546771E-02  0.1318792E+00
         21   -1    0    0  503  502  0.00000000000E+00  0.00000000000E+00  0.16345346166E+03  0.16345346166E+03  0.00000000000E+00 0. -1.
         -1   -1    0    0    0  501 -0.00000000000E+00 -0.00000000000E+00 -0.14604568818E+04  0.14604568818E+04  0.00000000000E+00 0.  1.
         24    2    1    2    0    0  0.70515741367E+01  0.91569037673E+01 -0.14085867167E+04  0.14108748383E+04  0.79483942628E+02 0.  0.
         23    2    1    2    0    0  0.28430436086E+02 -0.44147571822E+02  0.10170223352E+03  0.14202947126E+03  0.84093570550E+02 0.  0.
        -13    1    3    3    0    0  0.34330976478E+01  0.26078097236E+02 -0.15844867419E+03  0.16061704663E+03  0.00000000000E+00 0.  1.
         14    1    3    3    0    0  0.36184764889E+01 -0.16921193468E+02 -0.12501380425E+04  0.12502577916E+04  0.00000000000E+00 0. -1.
        -11    1    4    4    0    0  0.16229140059E+02  0.15587166352E+02 -0.10767817642E+01  0.22527853890E+02  0.00000000000E+00 0.  1.
         11    1    4    4    0    0  0.12201296028E+02 -0.59734738174E+02  0.10277901529E+03  0.11950161737E+03  0.00000000000E+00 0. -1.
         21    1    1    2  503  501 -0.10484803896E+02  0.29684566723E+02 -0.15411355821E+02  0.35051597717E+02  0.00000000000E+00 0. -1.
         -2    1    1    2    0  502 -0.24997206326E+02  0.53061013315E+01  0.25292418842E+02  0.35954436254E+02  0.00000000000E+00 0.  1.
<scales pt_clust_5="13000.00000" pt_clust_6="13000.00000" pt_clust_7="13000.00000" pt_clust_8="13000.00000" pt_clust_9="32.50717" pt_clust_10="25.55416"></scales>
<clustering>
<clus scale="   25.554">  1 10  2 -1</clus>
<clus scale="   32.507">  1  9  2 -1</clus>
<clus scale="   79.484">  5  6 -1 -1</clus>
<clus scale="   80.329">  2  5  1 -1</clus>
<clus scale="   84.094">  7  8 -1 -1</clus>
<clus scale="   25.554">  1  5  2 -1</clus>
</clustering>
</event>
<event>
10    4  0.3738096E-005  0.1051564E+03  0.7546771E-02  0.1275602E+00
         -1   -1    0    0    0  501 -0.00000000000E+00  0.00000000000E+00  0.85847167622E+03  0.85847167622E+03  0.00000000000E+00 0.  1.
         21   -1    0    0  503  502  0.00000000000E+00 -0.00000000000E+00 -0.64707233209E+02  0.64707233209E+02  0.00000000000E+00 0. -1.
         23    2    1    2    0    0 -0.29954137332E+02  0.44234143750E+02  0.24197038081E+03  0.26493740156E+03  0.93745675865E+02 0.  0.
         24    2    1    2    0    0 -0.23244719689E+02 -0.45542219344E+01 -0.49105075328E+01  0.84635569186E+02  0.81104923133E+02 0.  0.
        -13    1    4    4    0    0  0.30236679705E+02 -0.64192100132E+01 -0.15710168623E+00  0.30910964685E+02  0.00000000000E+00 0.  1.
         14    1    4    4    0    0 -0.53481399394E+02  0.18649880788E+01 -0.47534058466E+01  0.53724604501E+02  0.00000000000E+00 0. -1.
        -13    1    3    3    0    0  0.19245440740E+02 -0.17741569608E+02  0.88187255036E+02  0.91989902881E+02  0.00000000000E+00 0. -1.
         13    1    3    3    0    0 -0.49199578072E+02  0.61975713358E+02  0.15378312577E+03  0.17294749868E+03  0.00000000000E+00 0.  1.
         21    1    1    2  503  501 -0.26883673254E+02  0.23511539043E+02  0.12413146631E+03  0.12916712153E+03  0.00000000000E+00 0.  1.
         -2    1    1    2    0  502  0.80082530275E+02 -0.63191460859E+02  0.43257310343E+03  0.44443881716E+03  0.00000000000E+00 0.  1.
<scales pt_clust_5="13000.00000" pt_clust_6="13000.00000" pt_clust_7="13000.00000" pt_clust_8="13000.00000" pt_clust_9="35.71448" pt_clust_10="80.64622"></scales>
<clustering>
<clus scale="   35.714">  1  9  2 -1</clus>
<clus scale="   80.646">  2 10  1 -1</clus>
<clus scale="   81.105">  5  6 -1 -1</clus>
<clus scale="   93.746">  7  8 -1 -1</clus>
<clus scale="   94.062">  2  5  1 -1</clus>
<clus scale="   80.646">  2  5  1 -1</clus>
</clustering>
</event>
<event>
10    4  0.3738096E-005  0.1339793E+03  0.7546771E-02  0.1224434E+00
         -1   -1    0    0    0  501 -0.00000000000E+00  0.00000000000E+00  0.93653136153E+03  0.93653136153E+03  0.00000000000E+00 0.  1.
         21   -1    0    0  503  502  0.00000000000E+00 -0.00000000000E+00 -0.71774790812E+02  0.71774790812E+02  0.00000000000E+00 0. -1.
         23    2    1    2    0    0 -0.11766822644E+03  0.24480451074E+02  0.64762831286E+03  0.66503585680E+03  0.91679633564E+02 0.  0.
         24    2    1    2    0    0  0.49755591915E+02  0.25010057146E+00  0.67220283646E+01  0.94691735101E+02  0.80284852581E+02 0.  0.
        -11    1    4    4    0    0 -0.22116975664E+02 -0.45538833142E+00  0.55451680930E+01  0.22806071126E+02  0.00000000000E+00 0.  1.
         12    1    4    4    0    0  0.71872567579E+02  0.70548890288E+00  0.11768602716E+01  0.71885663974E+02  0.00000000000E+00 0. -1.
        -13    1    3    3    0    0 -0.45654648443E+02 -0.35136004667E+02  0.25645193795E+03  0.26284307529E+03  0.00000000000E+00 0.  1.
         13    1    3    3    0    0 -0.72013577995E+02  0.59616455741E+02  0.39117637491E+03  0.40219278151E+03  0.00000000000E+00 0. -1.
         21    1    1    2  503  501  0.26526067033E+02  0.43659136456E+02  0.99732942010E+02  0.11205539768E+03  0.00000000000E+00 0.  1.
         -2    1    1    2    0  502  0.41386567490E+02 -0.68389688102E+02  0.11067328748E+03  0.13652316276E+03  0.00000000000E+00 0.  1.
<scales pt_clust_5="13000.00000" pt_clust_6="13000.00000" pt_clust_7="13000.00000" pt_clust_8="13000.00000" pt_clust_9="51.08574" pt_clust_10="76.71969"></scales>
<clustering>
<clus scale="   51.086">  1  9  2 -1</clus>
<clus scale="   76.720">  2 10  1 -1</clus>
<clus scale="   80.285">  5  6 -1 -1</clus>
<clus scale="   91.680">  7  8 -1 -1</clus>
<clus scale="  126.455">  2  5  1 -1</clus>
<clus scale="   76.720">  2  5  1 -1</clus>
</clustering>
</event>
<event>
10    4  0.3738096E-005  0.1053058E+03  0.7546771E-02  0.1271830E+00
          2   -1    0    0  503    0 -0.00000000000E+00  0.00000000000E+00  0.93852086750E+03  0.93852086750E+03  0.00000000000E+00 0. -1.
         21   -1    0    0  501  502  0.00000000000E+00 -0.00000000000E+00 -0.62254585613E+02  0.62254585613E+02  0.00000000000E+00 0. -1.
         24    2    1    2    0    0 -0.92580770099E+01 -0.33455236279E+02  0.34822655891E+03  0.35971992507E+03  0.83256971696E+02 0.  0.
         23    2    1    2    0    0  0.83998724249E+02  0.92627740995E+02  0.34336292238E+03  0.37604930571E+03  0.88765419995E+02 0.  0.
        -11    1    3    3    0    0  0.37460758247E+01 -0.31189234189E+02  0.38399155576E+02  0.49611455959E+02  0.00000000000E+00 0.  1.
         12    1    3    3    0    0 -0.13004152835E+02 -0.22660020899E+01  0.30982740334E+03  0.31010846911E+03  0.00000000000E+00 0. -1.
        -11    1    4    4    0    0 -0.23233916486E+01  0.59587394028E+02  0.11155167850E+03  0.12649044490E+03  0.00000000000E+00 0.  1.
         11    1    4    4    0    0  0.86322115898E+02  0.33040346967E+02  0.23181124388E+03  0.24955886081E+03  0.00000000000E+00 0. -1.
         21    1    1    2  503  502 -0.32266055148E+02 -0.71715760289E+02  0.20252501079E+03  0.21725705647E+03  0.00000000000E+00 0. -1.
          1    1    1    2  501    0 -0.42474592091E+02  0.12543255574E+02 -0.17848210191E+02  0.47749165864E+02  0.00000000000E+00 0. -1.
<scales pt_clust_5="13000.00000" pt_clust_6="13000.00000" pt_clust_7="13000.00000" pt_clust_8="13000.00000" pt_clust_9="80.88535" pt_clust_10="44.28797"></scales>
<clustering>
<clus scale="   44.288">  2 10  1 -1</clus>
<clus scale="   80.885">  2  9  1 -1</clus>
<clus scale="   83.257">  5  6 -1 -1</clus>
<clus scale="   88.765">  7  8 -1 -1</clus>
<clus scale="  100.706">  1  5  2 -1</clus>
<clus scale="   44.288">  2  5  1 -1</clus>
</clustering>
</event>
<event>
10    4  0.3738096E-005  0.4092364E+03  0.7546771E-02  0.1040773E+00
         21   -1    0    0  501  502  0.00000000000E+00  0.00000000000E+00  0.40611643840E+03  0.40611643840E+03  0.00000000000E+00 0. -1.
          2   -1    0    0  503    0 -0.00000000000E+00 -0.00000000000E+00 -0.17556777037E+04  0.17556777037E+04  0.00000000000E+00 0. -1.
         23    2    1    2    0    0 -0.28161502484E+03 -0.32067824724E+03 -0.13885200410E+04  0.14553648931E+04  0.89204862127E+02 0.  0.
         24    2    1    2    0    0  0.36083544646E+03  0.13805738310E+03  0.13093301245E+02  0.39494608231E+03  0.80925354155E+02 0.  0.
        -11    1    4    4    0    0  0.22124248625E+03  0.11747709944E+03  0.32191008697E+02  0.25255765214E+03  0.00000000000E+00 0.  1.
         12    1    4    4    0    0  0.13959296021E+03  0.20580283657E+02 -0.19097707452E+02  0.14238843017E+03  0.00000000000E+00 0. -1.
        -11    1    3    3    0    0 -0.19833276701E+03 -0.25825647636E+03 -0.11480855141E+04  0.11933702869E+04  0.00000000000E+00 0. -1.
         11    1    3    3    0    0 -0.83282257833E+02 -0.62421770878E+02 -0.24043452687E+03  0.26199460617E+03  0.00000000000E+00 0.  1.
         21    1    1    2  503  502  0.99648674431E+01  0.22626668380E+02 -0.90937737167E+02  0.94238722117E+02  0.00000000000E+00 0. -1.
          1    1    1    2  501    0 -0.89185289064E+02  0.15999419576E+03  0.11680321158E+03  0.21724444457E+03  0.00000000000E+00 0. -1.
<scales pt_clust_5="13000.00000" pt_clust_6="13000.00000" pt_clust_7="13000.00000" pt_clust_8="13000.00000" pt_clust_9="24.72377" pt_clust_10="183.62374"></scales>
<clustering>
<clus scale="   24.724">  2  9  1 -1</clus>
<clus scale="   80.925">  5  6 -1 -1</clus>
<clus scale="   89.205">  7  8 -1 -1</clus>
<clus scale="  183.624">  1 10  2 -1</clus>
<clus scale="  407.512">  1  5  2 -1</clus>
<clus scale="  183.624">  1  5  2 -1</clus>
</clustering>
</event>
<event>
10    4  0.3738096E-005  0.1054232E+03  0.7546771E-02  0.1273601E+00
          2   -1    0    0  503    0 -0.00000000000E+00  0.00000000000E+00  0.10911918777E+04  0.10911918777E+04  0.00000000000E+00 0. -1.
         21   -1    0    0  501  502  0.00000000000E+00 -0.00000000000E+00 -0.23842925252E+02  0.23842925252E+02  0.00000000000E+00 0. -1.
         24    2    1    2    0    0  0.31697944550E+02 -0.78352787317E+02  0.62450532476E+03  0.63514925053E+03  0.79143861606E+02 0.  0.
         23    2    1    2    0    0  0.46900915219E+01  0.28282967841E+02  0.28430793344E+03  0.29936698171E+03  0.89261780683E+02 0.  0.
        -11    1    3    3    0    0 -0.60301816465E+01 -0.27644896714E+02  0.52295539483E+02  0.59459455554E+02  0.00000000000E+00 0.  1.
         12    1    3    3    0    0  0.37728126196E+02 -0.50707890603E+02  0.57220978528E+03  0.57568979498E+03  0.00000000000E+00 0. -1.
        -11    1    4    4    0    0 -0.21311906161E+02 -0.24128867416E+02  0.67193166562E+02  0.74507189046E+02  0.00000000000E+00 0.  1.
         11    1    4    4    0    0  0.26001997682E+02  0.52411835257E+02  0.21711476688E+03  0.22485979266E+03  0.00000000000E+00 0. -1.
         21    1    1    2  503  502  0.47994944131E+01  0.22046083031E+02  0.10497174833E+03  0.10736914301E+03  0.00000000000E+00 0. -1.
          1    1    1    2  501    0 -0.41187530485E+02  0.28023736445E+02  0.53563945943E+02  0.73149427727E+02  0.00000000000E+00 0. -1.
<scales pt_clust_5="13000.00000" pt_clust_6="13000.00000" pt_clust_7="13000.00000" pt_clust_8="13000.00000" pt_clust_9="22.56247" pt_clust_10="50.37752"></scales>
<clustering>
<clus scale="   22.562">  1  9  2 -1</clus>
<clus scale="   50.378">  2 10  1 -1</clus>
<clus scale="   79.144">  5  6 -1 -1</clus>
<clus scale="   89.262">  7  8 -1 -1</clus>
<clus scale="   97.006">  1  5  2 -1</clus>
<clus scale="   50.378">  2  5  1 -1</clus>
</clustering>
</event>
<event>
10    4  0.3738096E-005  0.1077361E+03  0.7546771E-02  0.1266255E+00
         21   -1    0    0  501  502  0.00000000000E+00  0.00000000000E+00  0.68505428187E+03  0.68505428187E+03  0.00000000000E+00 0. -1.
          2   -1    0    0  503    0 -0.00000000000E+00 -0.00000000000E+00 -0.36011922974E+02  0.36011922974E+02  0.00000000000E+00 0. -1.
         24    2    1    2    0    0  0.18710134289E+02 -0.62613204472E+02  0.21336609138E+03  0.23729923371E+03  0.80717748166E+02 0.  0.
         23    2    1    2    0    0 -0.30462541793E+02  0.54694512340E+02  0.36099569734E+03  0.37601028291E+03  0.84536283477E+02 0.  0.
        -11    1    3    3    0    0 -0.30806139985E+02 -0.18345876452E+02  0.95475513830E+02  0.10198609309E+03  0.00000000000E+00 0.  1.
         12    1    3    3    0    0  0.49516274274E+02 -0.44267328020E+02  0.11789057755E+03  0.13531314062E+03  0.00000000000E+00 0. -1.
        -13    1    4    4    0    0  0.35632641080E+01  0.67659484199E+02  0.20870930044E+03  0.21943125289E+03  0.00000000000E+00 0.  1.
         13    1    4    4    0    0 -0.34025805901E+02 -0.12964971859E+02  0.15228639690E+03  0.15657903003E+03  0.00000000000E+00 0. -1.
         21    1    1    2  503  502 -0.82284081953E+01 -0.24394171605E+02  0.20948574485E+01  0.25829648419E+02  0.00000000000E+00 0.  1.
          1    1    1    2  501    0  0.19980815699E+02  0.32312863737E+02  0.72585712721E+02  0.81927039798E+02  0.00000000000E+00 0. -1.
<scales pt_clust_5="13000.00000" pt_clust_6="13000.00000" pt_clust_7="13000.00000" pt_clust_8="13000.00000" pt_clust_9="25.74456" pt_clust_10="33.15995"></scales>
<clustering>
<clus scale="   25.745">  2  9  1 -1</clus>
<clus scale="   33.160">  1 10  2 -1</clus>
<clus scale="   80.718">  5  6 -1 -1</clus>
<clus scale="   84.536">  7  8 -1 -1</clus>
<clus scale="  104.767">  2  5  1 -1</clus>
<clus scale="   33.160">  1  5  2 -1</clus>
</clustering>
</event>
<event>
10    4  0.3738096E-005  0.1796795E+03  0.7546771E-02  0.1183153E+00
         21   -1    0    0  501  502  0.00000000000E+00  0.00000000000E+00  0.13623316512E+03  0.13623316512E+03  0.00000000000E+00 0. -1.
          2   -1    0    0  503    0 -0.00000000000E+00 -0.00000000000E+00 -0.11669131722E+04  0.11669131722E+04  0.00000000000E+00 0. -1.
         23    2    1    2    0    0  0.60364214472E+02 -0.72881778174E+02 -0.14805922289E+03  0.19779652703E+03  0.90809364300E+02 0.  0.
         24    2    1    2    0    0  0.98673656292E+02  0.49113176465E+01 -0.66530811428E+03  0.67750733057E+03  0.81367589163E+02 0.  0.
        -13    1    4    4    0    0  0.51901505887E+02 -0.32485647667E+02 -0.22643711327E+03  0.23456949904E+03  0.00000000000E+00 0.  1.
         14    1    4    4    0    0  0.46772150406E+02  0.37396965314E+02 -0.43887100101E+03  0.44293783153E+03  0.00000000000E+00 0. -1.
        -11    1    3    3    0    0  0.18068566474E+02  0.19112931021E+02 -0.13995547098E+02  0.29793498707E+02  0.00000000000E+00 0.  1.
         11    1    3    3    0    0  0.42295647998E+02 -0.91994709195E+02 -0.13406367579E+03  0.16800302832E+03  0.00000000000E+00 0. -1.
         21    1    1    2  503  502  0.46205303763E+01  0.36996167720E+02 -0.25446809980E+03  0.25718491314E+03  0.00000000000E+00 0.  1.
          1    1    1    2  501    0 -0.16365840114E+03  0.30974292808E+02  0.37155429849E+02  0.17065756662E+03  0.00000000000E+00 0. -1.
<scales pt_clust_5="13000.00000" pt_clust_6="13000.00000" pt_clust_7="13000.00000" pt_clust_8="13000.00000" pt_clust_9="37.28359" pt_clust_10="160.19997"></scales>
<clustering>
<clus scale="   37.284">  2  9  1 -1</clus>
<clus scale="   81.368">  5  6 -1 -1</clus>
<clus scale="   90.809">  7  8 -1 -1</clus>
<clus scale="  127.806">  2  7  1 -1</clus>
<clus scale="  160.200">  1 10  2 -1</clus>
<clus scale="  160.200">  1  5  2 -1</clus>
</clustering>
</event>
<event>
10    4  0.3738096E-005  0.2478547E+03  0.7546771E-02  0.1131793E+00
          2   -1    0    0  503    0 -0.00000000000E+00  0.00000000000E+00  0.25394585117E+04  0.25394585117E+04  0.00000000000E+00 0. -1.
         21   -1    0    0  501  502  0.00000000000E+00 -0.00000000000E+00 -0.87536037522E+02  0.87536037522E+02  0.00000000000E+00 0.  1.
         24    2    1    2    0    0 -0.30507350473E+02  0.14169804808E+03  0.92191764330E+02  0.19004164529E+03  0.81286347394E+02 0.  0.
         23    2    1    2    0    0  0.85529559172E+02 -0.26682792538E+03  0.14282677124E+04  0.14583422836E+04  0.91110430070E+02 0.  0.
        -13    1    3    3    0    0  0.84297398636E+01  0.12142384382E+03  0.74535896117E+02  0.14272494587E+03  0.00000000000E+00 0.  1.
         14    1    3    3    0    0 -0.38937090337E+02  0.20274204257E+02  0.17655868213E+02  0.47316699425E+02  0.00000000000E+00 0. -1.
        -13    1    4    4    0    0 -0.16080044396E+02 -0.78706250543E+02  0.42903861915E+03  0.43649441969E+03  0.00000000000E+00 0.  1.
         13    1    4    4    0    0  0.10160960357E+03 -0.18812167484E+03  0.99922909327E+03  0.10218478639E+04  0.00000000000E+00 0. -1.
         21    1    1    2  503  502  0.23065727883E+02 -0.71374549286E+02  0.39345538726E+03  0.40054150328E+03  0.00000000000E+00 0.  1.
          1    1    1    2  501    0 -0.78087936582E+02  0.19650442659E+03  0.53800761014E+03  0.57806911704E+03  0.00000000000E+00 0. -1.
<scales pt_clust_5="13000.00000" pt_clust_6="13000.00000" pt_clust_7="13000.00000" pt_clust_8="13000.00000" pt_clust_9="75.00903" pt_clust_10="230.50132"></scales>
<clustering>
<clus scale="   75.009">  1  9  2 -1</clus>
<clus scale="   81.286">  5  6 -1 -1</clus>
<clus scale="   91.110">  7  8 -1 -1</clus>
<clus scale="  161.913">  1  5  2 -1</clus>
<clus scale="  230.501">  2 10  1 -1</clus>
<clus scale="  230.501">  2  5  1 -1</clus>
</clustering>
</event>
<event>
10    4  0.3738096E-005  0.1478714E+03  0.7546771E-02  0.1205477E+00
         21   -1    0    0  501  502  0.00000000000E+00  0.00000000000E+00  0.71498174768E+02  0.71498174768E+02  0.00000000000E+00 0.  1.
          2   -1    0    0  503    0 -0.00000000000E+00 -0.00000000000E+00 -0.11878124787E+04  0.11878124787E+04  0.00000000000E+00 0. -1.
         24    2    1    2    0    0 -0.63221574578E+00 -0.15243845676E+03 -0.49109814079E+03  0.52005665100E+03  0.77740938853E+02 0.  0.
         23    2    1    2    0    0  0.38900564872E+02  0.83600178701E+02 -0.22400537566E+03  0.25854142903E+03  0.90349423763E+02 0.  0.
        -13    1    3    3    0    0  0.14300615802E+02 -0.15013933735E+03 -0.47309701823E+03  0.49655525059E+03  0.00000000000E+00 0.  1.
         14    1    3    3    0    0 -0.14932831547E+02 -0.22991194093E+01 -0.18001122561E+02  0.23501400416E+02  0.00000000000E+00 0. -1.
        -13    1    4    4    0    0  0.39893082366E+01 -0.19665617660E+02 -0.36514714717E+02  0.41665039170E+02  0.00000000000E+00 0.  1.
         13    1    4    4    0    0  0.34911256635E+02  0.10326579636E+03 -0.18749066094E+03  0.21687638986E+03  0.00000000000E+00 0. -1.
         21    1    1    2  503  502 -0.35165850470E+02  0.40028203854E+02 -0.43382539274E+03  0.43708507814E+03  0.00000000000E+00 0. -1.
          1    1    1    2  501    0 -0.31024986562E+01  0.28810074207E+02  0.32614605230E+02  0.43627495321E+02  0.00000000000E+00 0. -1.
<scales pt_clust_5="13000.00000" pt_clust_6="13000.00000" pt_clust_7="13000.00000" pt_clust_8="13000.00000" pt_clust_9="54.44426" pt_clust_10="28.97664"></scales>
<clustering>
<clus scale="   28.977">  1 10  2 -1</clus>
<clus scale="   54.444">  2  9  1 -1</clus>
<clus scale="   77.741">  5  6 -1 -1</clus>
<clus scale="   90.349">  7  8 -1 -1</clus>
<clus scale="  140.523">  2  5  1 -1</clus>
<clus scale="   28.977">  1  5  2 -1</clus>
</clustering>
</event>
<event>
10    4  0.3738096E-005  0.1043737E+03  0.7546771E-02  0.1274411E+00
          2   -1    0    0  503    0 -0.00000000000E+00  0.00000000000E+00  0.60686186666E+03  0.60686186666E+03  0.00000000000E+00 0. -1.
         21   -1    0    0  501  502  0.00000000000E+00 -0.00000000000E+00 -0.53126424435E+02  0.53126424435E+02  0.00000000000E+00 0.  1.
         23    2    1    2    0    0 -0.47833736789E+02 -0.49267328551E+02  0.42082183311E+03  0.43595892030E+03  0.90850585764E+02 0.  0.
         24    2    1    2    0    0  0.27879322194E+02  0.37341529533E+01  0.56754552976E+02  0.10515791954E+03  0.83939908596E+02 0.  0.
        -11    1    4    4    0    0 -0.10770151612E+02  0.19497074253E+02 -0.11564373584E+02  0.25097147379E+02  0.00000000000E+00 0.  1.
         12    1    4    4    0    0  0.38649473806E+02 -0.15762921299E+02  0.68318926561E+02  0.80060772166E+02  0.00000000000E+00 0. -1.
        -13    1    3    3    0    0  0.81593614665E+01 -0.46843925599E+02  0.10584740942E+03  0.11603707436E+03  0.00000000000E+00 0.  1.
         13    1    3    3    0    0 -0.55993098256E+02 -0.24234029518E+01  0.31497442369E+03  0.31992184594E+03  0.00000000000E+00 0. -1.
         21    1    1    2  503  502 -0.35152112596E+01  0.22220543212E+02  0.82218537107E+02  0.85240818244E+02  0.00000000000E+00 0. -1.
          1    1    1    2  501    0  0.23469625855E+02  0.23312632386E+02 -0.60594809674E+01  0.33630633002E+02  0.00000000000E+00 0. -1.
<scales pt_clust_5="13000.00000" pt_clust_6="13000.00000" pt_clust_7="13000.00000" pt_clust_8="13000.00000" pt_clust_9="22.49687" pt_clust_10="33.43063"></scales>
<clustering>
<clus scale="   22.497">  1  9  2 -1</clus>
<clus scale="   33.431">  2 10  1 -1</clus>
<clus scale="   83.940">  5  6 -1 -1</clus>
<clus scale="   90.851">  7  8 -1 -1</clus>
<clus scale="   98.417">  2  5  1 -1</clus>
<clus scale="   33.431">  2  5  1 -1</clus>
</clustering>
</event>
<event>
10    4  0.3738096E-005  0.1289107E+03  0.7546771E-02  0.1231335E+00
         21   -1    0    0  501  502  0.00000000000E+00  0.00000000000E+00  0.22278396469E+03  0.22278396469E+03  0.00000000000E+00 0. -1.
          2   -1    0    0  503    0 -0.00000000000E+00 -0.00000000000E+00 -0.21908483246E+03  0.21908483246E+03  0.00000000000E+00 0. -1.
         24    2    1    2    0    0  0.45863142793E+02  0.32441517482E+02 -0.74759642135E+02  0.12369856274E+03  0.80971911229E+02 0.  0.
         23    2    1    2    0    0 -0.10936197717E+03 -0.67844604894E+02  0.13809282084E+03  0.20896271597E+03  0.89626207293E+02 0.  0.
        -11    1    3    3    0    0  0.66137757022E+02  0.15856022964E+02 -0.68987966008E+02  0.96875981657E+02  0.00000000000E+00 0.  1.
         12    1    3    3    0    0 -0.20274614229E+02  0.16585494518E+02 -0.57716761268E+01  0.26822581081E+02  0.00000000000E+00 0. -1.
        -11    1    4    4    0    0 -0.11333915443E+03 -0.32923552712E+02  0.12373227150E+03  0.17099531941E+03  0.00000000000E+00 0. -1.
         11    1    4    4    0    0  0.39771772517E+01 -0.34921052181E+02  0.14360549339E+02  0.37967396562E+02  0.00000000000E+00 0.  1.
         21    1    1    2  503  502  0.46964270927E+02  0.82389608559E+01 -0.60943641177E+02  0.77379910956E+02  0.00000000000E+00 0.  1.
          1    1    1    2  501    0  0.16534563454E+02  0.27164126556E+02  0.13095946969E+01  0.31827607488E+02  0.00000000000E+00 0. -1.
<scales pt_clust_5="13000.00000" pt_clust_6="13000.00000" pt_clust_7="13000.00000" pt_clust_8="13000.00000" pt_clust_9="48.52691" pt_clust_10="31.80065"></scales>
<clustering>
<clus scale="   31.801">  1 10  2 -1</clus>
<clus scale="   48.527">  2  9  1 -1</clus>
<clus scale="   80.972">  5  6 -1 -1</clus>
<clus scale="   89.626">  7  8 -1 -1</clus>
<clus scale="  123.051">  2  5  1 -1</clus>
<clus scale="   31.801">  1  5  2 -1</clus>
</clustering>
</event>
<event>
10    4  0.3738096E-005  0.1267581E+03  0.7546771E-02  0.1236825E+00
         21   -1    0    0  501  502  0.00000000000E+00  0.00000000000E+00  0.27896383516E+02  0.27896383516E+02  0.00000000000E+00 0. -1.
          2   -1    0    0  503    0 -0.00000000000E+00 -0.00000000000E+00 -0.15895656938E+04  0.15895656938E+04  0.00000000000E+00 0. -1.
         24    2    1    2    0    0  0.73933631118E+02 -0.99949257321E+02 -0.67758381135E+03  0.69357113346E+03  0.80405596254E+02 0.  0.
         23    2    1    2    0    0 -0.34381454879E+02  0.66284607385E+02 -0.27853309245E+03  0.30383442591E+03  0.95702357159E+02 0.  0.
        -11    1    3    3    0    0  0.53272080042E+02 -0.96152879446E+01 -0.29492425001E+03  0.29985109891E+03  0.00000000000E+00 0.  1.
         12    1    3    3    0    0  0.20661551076E+02 -0.90333969377E+02 -0.38265956134E+03  0.39372003455E+03  0.00000000000E+00 0. -1.
        -11    1    4    4    0    0  0.11604161253E+02  0.71484066495E+02 -0.13754676561E+03  0.15544690750E+03  0.00000000000E+00 0. -1.
         11    1    4    4    0    0 -0.45985616132E+02 -0.51994591102E+01 -0.14098632684E+03  0.14838751842E+03  0.00000000000E+00 0.  1.
         21    1    1    2  503  502 -0.76037519177E+02  0.39289818052E+02 -0.51824775005E+03  0.52526766944E+03  0.00000000000E+00 0. -1.
          1    1    1    2  501    0  0.36485342938E+02 -0.56251681158E+01 -0.87304656387E+02  0.94788848461E+02  0.00000000000E+00 0. -1.
<scales pt_clust_5="13000.00000" pt_clust_6="13000.00000" pt_clust_7="13000.00000" pt_clust_8="13000.00000" pt_clust_9="80.52119" pt_clust_10="36.91643"></scales>
<clustering>
<clus scale="   36.916">  1 10  2 -1</clus>
<clus scale="   80.406">  5  6 -1 -1</clus>
<clus scale="   80.521">  2  9  1 -1</clus>
<clus scale="   95.702">  7  8 -1 -1</clus>
<clus scale="  115.645">  2  5  1 -1</clus>
<clus scale="   36.916">  1  5  2 -1</clus>
</clustering>
</event>
<event>
10    4  0.3738096E-005  0.1342229E+03  0.7546771E-02  0.1223840E+00
          2   -1    0    0  503    0 -0.00000000000E+00  0.00000000000E+00  0.40062409830E+03  0.40062409830E+03  0.00000000000E+00 0. -1.
         21   -1    0    0  501  502  0.00000000000E+00 -0.00000000000E+00 -0.82012228362E+02  0.82012228362E+02  0.00000000000E+00 0.  1.
         23    2    1    2    0    0 -0.75848902738E+02  0.53093813878E+02  0.25746740523E+03  0.28764313226E+03  0.88753014957E+02 0.  0.
         24    2    1    2    0    0  0.69607640805E+02 -0.64031989543E+02  0.27332571069E+02  0.12557134255E+03  0.77947246804E+02 0.  0.
        -13    1    4    4    0    0  0.84931220762E+02 -0.39616371080E+02  0.19982956941E+02  0.95823210580E+02  0.00000000000E+00 0.  1.
         14    1    4    4    0    0 -0.15323579957E+02 -0.24415618463E+02  0.73496141284E+01  0.29748131966E+02  0.00000000000E+00 0. -1.
        -13    1    3    3    0    0 -0.41859193001E+02  0.33828305869E+02  0.23796686753E+03  0.24397699965E+03  0.00000000000E+00 0. -1.
         13    1    3    3    0    0 -0.33989709737E+02  0.19265508009E+02  0.19500537701E+02  0.43666132614E+02  0.00000000000E+00 0.  1.
         21    1    1    2  503  502 -0.22809267090E+02 -0.32165849653E+01  0.28544873799E+02  0.36679952348E+02  0.00000000000E+00 0.  1.
          1    1    1    2  501    0  0.29050529023E+02  0.14154760630E+02  0.52670198373E+01  0.32741899502E+02  0.00000000000E+00 0. -1.
<scales pt_clust_5="13000.00000" pt_clust_6="13000.00000" pt_clust_7="13000.00000" pt_clust_8="13000.00000" pt_clust_9="23.03495" pt_clust_10="31.18600"></scales>
<clustering>
<clus scale="   23.035">  1  9  2 -1</clus>
<clus scale="   31.186">  2 10  1 -1</clus>
<clus scale="   77.947">  5  6 -1 -1</clus>
<clus scale="   88.753">  7  8 -1 -1</clus>
<clus scale="  127.336">  2  5  1 -1</clus>
<clus scale="   31.186">  2  5  1 -1</clus>
</clustering>
</event>
<event>
10    4  0.3738096E-005  0.1869275E+03  0.7546771E-02  0.1183382E+00
         21   -1    0    0  501  502  0.00000000000E+00  0.00000000000E+00  0.67295070257E+03  0.67295070257E+03  0.00000000000E+00 0. -1.
          2   -1    0    0  503    0 -0.00000000000E+00 -0.00000000000E+00 -0.12590591184E+04  0.12590591184E+04  0.00000000000E+00 0. -1.
         24    2    1    2    0    0  0.66251765631E+02 -0.49533711528E+02 -0.62552044074E+03  0.63563265356E+03  0.76877587546E+02 0.  0.
         23    2    1    2    0    0  0.11281721670E+03  0.94312043709E+02 -0.29700184320E+03  0.34354790724E+03  0.90512892651E+02 0.  0.
        -13    1    3    3    0    0 -0.85304923403E+01 -0.20801755137E+02 -0.53537635544E+02  0.58066864354E+02  0.00000000000E+00 0.  1.
         14    1    3    3    0    0  0.74782257972E+02 -0.28731956391E+02 -0.57198280520E+03  0.57756578921E+03  0.00000000000E+00 0. -1.
        -11    1    4    4    0    0 -0.57767667460E+01  0.40745606989E+02 -0.91214578145E+02  0.10006835059E+03  0.00000000000E+00 0.  1.
         11    1    4    4    0    0  0.11859398344E+03  0.53566436721E+02 -0.20578726506E+03  0.24347955666E+03  0.00000000000E+00 0. -1.
         21    1    1    2  503  502 -0.95276535551E+02 -0.16013315942E+03 -0.27101546668E+03  0.32889151730E+03  0.00000000000E+00 0. -1.
          1    1    1    2  501    0 -0.83792446776E+02  0.11535482724E+03  0.60742933475E+03  0.62393774291E+03  0.00000000000E+00 0. -1.
<scales pt_clust_5="13000.00000" pt_clust_6="13000.00000" pt_clust_7="13000.00000" pt_clust_8="13000.00000" pt_clust_9="163.55216" pt_clust_10="141.53863"></scales>
<clustering>
<clus scale="   76.878">  5  6 -1 -1</clus>
<clus scale="   90.513">  7  8 -1 -1</clus>
<clus scale="  112.929">  2  5  1 -1</clus>
<clus scale="  141.539">  1 10  2 -1</clus>
<clus scale="  163.552">  1  9  2 -1</clus>
<clus scale="  141.539">  1  5  2 -1</clus>
</clustering>
</event>
<event>
10    4  0.3738096E-005  0.2647091E+03  0.7546771E-02  0.1104904E+00
          2   -1    0    0  503    0 -0.00000000000E+00  0.00000000000E+00  0.37065633660E+03  0.37065633660E+03  0.00000000000E+00 0. -1.
         21   -1    0    0  501  502  0.00000000000E+00 -0.00000000000E+00 -0.50759039138E+03  0.50759039138E+03  0.00000000000E+00 0. -1.
         23    2    1    2    0    0 -0.11899352245E+02 -0.24606957421E+03 -0.27847737861E+02  0.26441786457E+03  0.91921056713E+02 0.  0.
         24    2    1    2    0    0 -0.42880318321E+01  0.27196623000E+03 -0.29820123485E+03  0.41155222489E+03  0.80419151102E+02 0.  0.
        -13    1    4    4    0    0  0.36383725701E+02  0.10196829462E+03 -0.10142676753E+03  0.14835328704E+03  0.00000000000E+00 0.  1.
         14    1    4    4    0    0 -0.40671757533E+02  0.16999793538E+03 -0.19677446732E+03  0.26319893785E+03  0.00000000000E+00 0. -1.
        -11    1    3    3    0    0  0.19012959555E+02 -0.19952720767E+03  0.32828272783E+01  0.20045791625E+03  0.00000000000E+00 0. -1.
         11    1    3    3    0    0 -0.30912311800E+02 -0.46542366532E+02 -0.31130565140E+02  0.63959948320E+02  0.00000000000E+00 0.  1.
         21    1    1    2  503  502  0.87579584107E+01  0.19283173621E+02  0.98497091833E+02  0.10074829884E+03  0.00000000000E+00 0. -1.
          1    1    1    2  501    0  0.74294256661E+01 -0.45179829420E+02  0.90617826091E+02  0.10152833968E+03  0.00000000000E+00 0. -1.
<scales pt_clust_5="13000.00000" pt_clust_6="13000.00000" pt_clust_7="13000.00000" pt_clust_8="13000.00000" pt_clust_9="21.17882" pt_clust_10="39.76515"></scales>
<clustering>
<clus scale="   21.179">  1  9  2 -1</clus>
<clus scale="   39.765">  2 10  1 -1</clus>
<clus scale="   80.419">  5  6 -1 -1</clus>
<clus scale="   91.921">  7  8 -1 -1</clus>
<clus scale="  260.938">  2  5  1 -1</clus>
<clus scale="   39.765">  2  5  1 -1</clus>
</clustering>
</event>
<event>
10    4  0.3738096E-005  0.1030784E+03  0.7546771E-02  0.1277893E+00
          2   -1    0    0  503    0 -0.00000000000E+00  0.00000000000E+00  0.14895334496E+04  0.14895334496E+04  0.00000000000E+00 0. -1.
         21   -1    0    0  501  502  0.00000000000E+00 -0.00000000000E+00 -0.22100901506E+02  0.22100901506E+02  0.00000000000E+00 0.  1.
         24    2    1    2    0    0 -0.43265646313E+02 -0.64319284373E+01  0.89876210509E+03  0.90341548928E+03  0.80454576472E+02 0.  0.
         23    2    1    2    0    0  0.64569389339E+02 -0.15324655540E+02  0.30327127658E+03  0.32301614729E+03  0.89229552841E+02 0.  0.
        -11    1    3    3    0    0 -0.43062271037E+02  0.17346449195E+02  0.25353634306E+03  0.25775169396E+03  0.00000000000E+00 0.  1.
         12    1    3    3    0    0 -0.20337527603E+00 -0.23778377633E+02  0.64522576202E+03  0.64566379531E+03  0.00000000000E+00 0. -1.
        -13    1    4    4    0    0  0.12977814963E+02  0.20048197988E+02  0.15376695694E+02  0.28404166846E+02  0.00000000000E+00 0.  1.
         13    1    4    4    0    0  0.51591574376E+02 -0.35372853528E+02  0.28789458089E+03  0.29461198044E+03  0.00000000000E+00 0. -1.
         21    1    1    2  503  502 -0.18586506050E+01  0.31963942973E+02  0.26080874606E+03  0.26276672212E+03  0.00000000000E+00 0.  1.
          1    1    1    2  501    0 -0.19445092421E+02 -0.10207358995E+02  0.45904203688E+01  0.22435992425E+02  0.00000000000E+00 0. -1.
<scales pt_clust_5="13000.00000" pt_clust_6="13000.00000" pt_clust_7="13000.00000" pt_clust_8="13000.00000" pt_clust_9="31.37999" pt_clust_10="21.96137"></scales>
<clustering>
<clus scale="   21.961">  2 10  1 -1</clus>
<clus scale="   31.380">  1  9  2 -1</clus>
<clus scale="   80.455">  5  6 -1 -1</clus>
<clus scale="   89.230">  7  8 -1 -1</clus>
<clus scale="   95.583">  1  5  2 -1</clus>
<clus scale="   21.961">  2  5  1 -1</clus>
</clustering>
</event>
<event>
10    4  0.3738096E-005  0.2526138E+03  0.7546771E-02  0.1112809E+00
         21   -1    0    0  501  502  0.00000000000E+00  0.00000000000E+00  0.39415486109E+03  0.39415486109E+03  0.00000000000E+00 0. -1.
          2   -1    0    0  503    0 -0.00000000000E+00 -0.00000000000E+00 -0.54745986297E+03  0.54745986297E+03  0.00000000000E+00 0. -1.
         24    2    1    2    0    0 -0.29356396777E+00  0.22577747699E+03 -0.28906575428E+03  0.37263588726E+03  0.65749059921E+02 0.  0.
         23    2    1    2    0    0 -0.87872290644E+02 -0.22847937578E+03 -0.96072826880E+02  0.27763062707E+03  0.89019168742E+02 0.  0.
        -11    1    3    3    0    0 -0.32983486188E+01  0.36047827412E+02 -0.14754860031E+02  0.39090035293E+02  0.00000000000E+00 0.  1.
         12    1    3    3    0    0  0.30047846510E+01  0.18972964957E+03 -0.27431089425E+03  0.33354585197E+03  0.00000000000E+00 0. -1.
        -11    1    4    4    0    0  0.34347317125E+01 -0.96113884764E+02 -0.58247940940E+02  0.11243886717E+03  0.00000000000E+00 0.  1.
         11    1    4    4    0    0 -0.91307022357E+02 -0.13236549102E+03 -0.37824885941E+02  0.16519175991E+03  0.00000000000E+00 0. -1.
         21    1    1    2  503  502  0.72451499649E+01  0.27284605691E+02 -0.13901314639E+02  0.31467260040E+02  0.00000000000E+00 0.  1.
          1    1    1    2  501    0  0.80920704647E+02 -0.24582706892E+02  0.24573489392E+03  0.25988094969E+03  0.00000000000E+00 0. -1.
<scales pt_clust_5="13000.00000" pt_clust_6="13000.00000" pt_clust_7="13000.00000" pt_clust_8="13000.00000" pt_clust_9="28.23016" pt_clust_10="84.55967"></scales>
<clustering>
<clus scale="   28.230">  2  9  1 -1</clus>
<clus scale="   65.749">  5  6 -1 -1</clus>
<clus scale="   84.560">  1 10  2 -1</clus>
<clus scale="   89.019">  7  8 -1 -1</clus>
<clus scale="  245.382">  2  5  1 -1</clus>
<clus scale="   84.560">  1  5  2 -1</clus>
</clustering>
</event>
<event>
10    4  0.3738096E-005  0.1055894E+03  0.7546771E-02  0.1270576E+00
         -1   -1    0    0    0  501 -0.00000000000E+00  0.00000000000E+00  0.12216199089E+03  0.12216199089E+03  0.00000000000E+00 0.  1.
         21   -1    0    0  503  502  0.00000000000E+00 -0.00000000000E+00 -0.44009369998E+03  0.44009369998E+03  0.00000000000E+00 0.  1.
         23    2    1    2    0    0 -0.96340869581E+00  0.80218916242E+02 -0.39292946519E+02  0.12715121178E+03  0.90484762980E+02 0.  0.
         24    2    1    2    0    0 -0.13648573346E-01 -0.58719833681E+02 -0.20405196721E+03  0.22934225151E+03  0.86675509527E+02 0.  0.
        -11    1    4    4    0    0 -0.35773573770E+02 -0.17070703692E+02 -0.39846968917E+02  0.56204434315E+02  0.00000000000E+00 0.  1.
         12    1    4    4    0    0  0.35759925196E+02 -0.41649129989E+02 -0.16420499829E+03  0.17313781719E+03  0.00000000000E+00 0. -1.
        -11    1    3    3    0    0  0.69903198094E+01  0.99663048072E+02 -0.33135223844E+02  0.10525935009E+03  0.00000000000E+00 0.  1.
         11    1    3    3    0    0 -0.79537285052E+01 -0.19444131830E+02 -0.61577226750E+01  0.21891861691E+02  0.00000000000E+00 0. -1.
         21    1    1    2  503  501 -0.24506752962E+02 -0.43171989324E+02  0.53732110648E+02  0.73154229664E+02  0.00000000000E+00 0. -1.
         -2    1    1    2    0  502  0.25483810231E+02  0.21672906763E+02 -0.12831890601E+03  0.13260799791E+03  0.00000000000E+00 0.  1.
<scales pt_clust_5="13000.00000" pt_clust_6="13000.00000" pt_clust_7="13000.00000" pt_clust_8="13000.00000" pt_clust_9="48.65837" pt_clust_10="33.45354"></scales>
<clustering>
<clus scale="   33.454">  2 10  1 -1</clus>
<clus scale="   48.658">  1  9  2 -1</clus>
<clus scale="   86.676">  5  6 -1 -1</clus>
<clus scale="   90.485">  7  8 -1 -1</clus>
<clus scale="  102.344">  2  5  1 -1</clus>
<clus scale="   33.454">  2  5  1 -1</clus>
</clustering>
</event>
<event>
10    4  0.3738096E-005  0.1665126E+03  0.7546771E-02  0.1183395E+00
         21   -1    0    0  501  502  0.00000000000E+00  0.00000000000E+00  0.11032850324E+03  0.11032850324E+03  0.00000000000E+00 0. -1.
          2   -1    0    0  503    0 -0.00000000000E+00 -0.00000000000E+00 -0.62170043437E+03  0.62170043437E+03  0.00000000000E+00 0. -1.
         24    2    1    2    0    0  0.22853733903E+02  0.10569390757E+03 -0.11757430258E+03  0.17878064767E+03  0.80282676230E+02 0.  0.
         23    2    1    2    0    0  0.66550519091E+02 -0.17484217453E+03 -0.25814209874E+03  0.33211002360E+03  0.93064316730E+02 0.  0.
        -13    1    3    3    0    0  0.93169142922E+01  0.28348795210E+02  0.78039297697E+01  0.30844130748E+02  0.00000000000E+00 0.  1.
         14    1    3    3    0    0  0.13536819610E+02  0.77345112360E+02 -0.12537823235E+03  0.14793651692E+03  0.00000000000E+00 0. -1.
        -13    1    4    4    0    0  0.82039982558E+02 -0.13459823682E+03 -0.23555292581E+03  0.28342975311E+03  0.00000000000E+00 0. -1.
         13    1    4    4    0    0 -0.15489463466E+02 -0.40243937713E+02 -0.22589172933E+02  0.48680270489E+02  0.00000000000E+00 0.  1.
         21    1    1    2  503  502 -0.50477741689E+02 -0.15084236928E+02 -0.11439235380E+03  0.12594104660E+03  0.00000000000E+00 0. -1.
          1    1    1    2  501    0 -0.38926511305E+02  0.84232503888E+02 -0.21263176007E+02  0.95197219747E+02  0.00000000000E+00 0. -1.
<scales pt_clust_5="13000.00000" pt_clust_6="13000.00000" pt_clust_7="13000.00000" pt_clust_8="13000.00000" pt_clust_9="52.68336" pt_clust_10="93.85646"></scales>
<clustering>
<clus scale="   52.683">  2  9  1 -1</clus>
<clus scale="   80.283">  5  6 -1 -1</clus>
<clus scale="   93.064">  7  8 -1 -1</clus>
<clus scale="   93.856">  1 10  2 -1</clus>
<clus scale="  159.721">  2  5  1 -1</clus>
<clus scale="   93.856">  1  5  2 -1</clus>
</clustering>
</event>
<event>
10    4  0.3738096E-005  0.1405599E+03  0.7546771E-02  0.1235746E+00
         21   -1    0    0  501  502  0.00000000000E+00  0.00000000000E+00  0.38090917727E+03  0.38090917727E+03  0.00000000000E+00 0. -1.
          2   -1    0    0  503    0 -0.00000000000E+00 -0.00000000000E+00 -0.39048051684E+03  0.39048051684E+03  0.00000000000E+00 0. -1.
         23    2    1    2    0    0  0.20490120145E+02 -0.15225552189E+02 -0.94431765852E+02  0.12828893326E+03  0.83000177901E+02 0.  0.
         24    2    1    2    0    0  0.94107109205E+02 -0.73760168951E+02  0.22899145502E+03  0.27033561272E+03  0.79671491164E+02 0.  0.
        -11    1    4    4    0    0 -0.27017873855E+01 -0.23356886464E+02  0.97989799581E+01  0.25472805275E+02  0.00000000000E+00 0.  1.
         12    1    4    4    0    0  0.96808896591E+02 -0.50403282488E+02  0.21919247506E+03  0.24486280744E+03  0.00000000000E+00 0. -1.
        -11    1    3    3    0    0  0.49429700151E+02 -0.94704315100E+01 -0.82123314153E+02  0.96318342269E+02  0.00000000000E+00 0.  1.
         11    1    3    3    0    0 -0.28939580006E+02 -0.57551206794E+01 -0.12308451699E+02  0.31970590989E+02  0.00000000000E+00 0. -1.
         21    1    1    2  503  502 -0.12333427648E+03  0.63098967779E+02 -0.23778953121E+03  0.27520298807E+03  0.00000000000E+00 0. -1.
          1    1    1    2  501    0  0.87370471336E+01  0.25886753362E+02  0.93658502463E+02  0.97562160062E+02  0.00000000000E+00 0. -1.
<scales pt_clust_5="13000.00000" pt_clust_6="13000.00000" pt_clust_7="13000.00000" pt_clust_8="13000.00000" pt_clust_9="115.79955" pt_clust_10="27.32142"></scales>
<clustering>
<clus scale="   27.321">  1 10  2 -1</clus>
<clus scale="   79.671">  5  6 -1 -1</clus>
<clus scale="   83.000">  7  8 -1 -1</clus>
<clus scale="   86.705">  2  7  1 -1</clus>
<clus scale="  115.800">  2  9  1 -1</clus>
<clus scale="   27.321">  1  5  2 -1</clus>
</clustering>
</event>
<event>
10    4  0.3738096E-005  0.2114480E+03  0.7546771E-02  0.1158393E+00
          2   -1    0    0  503    0 -0.00000000000E+00  0.00000000000E+00  0.63430365738E+03  0.63430365738E+03  0.00000000000E+00 0. -1.
         21   -1    0    0  501  502  0.00000000000E+00 -0.00000000000E+00 -0.20657266023E+03  0.20657266023E+03  0.00000000000E+00 0. -1.
         23    2    1    2    0    0  0.10022859467E+02  0.87801453863E+02 -0.39555764476E+02  0.14129884064E+03  0.10291331716E+03 0.  0.
         24    2    1    2    0    0 -0.19829707664E+03 -0.74152122627E+02  0.36725033888E+03  0.43186870091E+03  0.82568126564E+02 0.  0.
        -11    1    4    4    0    0 -0.22568784222E+02  0.17030186039E+02  0.33701678540E+02  0.43990685312E+02  0.00000000000E+00 0.  1.
         12    1    4    4    0    0 -0.17572829242E+03 -0.91182308666E+02  0.33354866034E+03  0.38787801560E+03  0.00000000000E+00 0. -1.
        -13    1    3    3    0    0  0.20307155655E+02  0.10670926604E+03 -0.47229893290E+02  0.11844792463E+03  0.00000000000E+00 0.  1.
         13    1    3    3    0    0 -0.10284296188E+02 -0.18907812174E+02  0.76741288139E+01  0.22850916006E+02  0.00000000000E+00 0. -1.
         21    1    1    2  503  502 -0.32387836996E+01  0.42714989545E+02  0.41561462515E+02  0.59685971702E+02  0.00000000000E+00 0.  1.
          1    1    1    2  501    0  0.19151300087E+03 -0.56364320781E+02  0.58474960227E+02  0.20802280436E+03  0.00000000000E+00 0. -1.
<scales pt_clust_5="13000.00000" pt_clust_6="13000.00000" pt_clust_7="13000.00000" pt_clust_8="13000.00000" pt_clust_9="42.83760" pt_clust_10="194.66066"></scales>
<clustering>
<clus scale="   42.838">  1  9  2 -1</clus>
<clus scale="   82.568">  5  6 -1 -1</clus>
<clus scale="  102.913">  7  8 -1 -1</clus>
<clus scale="  138.068">  1  7  2 -1</clus>
<clus scale="  194.661">  2 10  1 -1</clus>
<clus scale="  194.661">  2  5  1 -1</clus>
</clustering>
</event>
<event>
10    4  0.3738096E-005  0.1288071E+03  0.7546771E-02  0.1244670E+00
         -1   -1    0    0    0  501 -0.00000000000E+00  0.00000000000E+00  0.33175482502E+03  0.33175482502E+03  0.00000000000E+00 0.  1.
         21   -1    0    0  501  502  0.00000000000E+00 -0.00000000000E+00 -0.10867507176E+03  0.10867507176E+03  0.00000000000E+00 0.  1.
         23    2    1    2    0    0 -0.17972634667E+00  0.13363934549E+02  0.85060041043E+02  0.12641667606E+03  0.92559917651E+02 0.  0.
         24    2    1    2    0    0 -0.47750451564E+02  0.83357769090E+02  0.12902105296E+03  0.17734837555E+03  0.74681931621E+02 0.  0.
        -13    1    4    4    0    0 -0.28955058000E+02  0.79758836837E+02  0.13303836175E+03  0.15779440147E+03  0.00000000000E+00 0.  1.
         14    1    4    4    0    0 -0.18795393564E+02  0.35989322529E+01 -0.40173087866E+01  0.19553974084E+02  0.00000000000E+00 0. -1.
        -11    1    3    3    0    0 -0.46124937960E+02  0.83747551185E+01  0.48853072250E+02  0.67707230732E+02  0.00000000000E+00 0.  1.
         11    1    3    3    0    0  0.45945211613E+02  0.49891794304E+01  0.36206968793E+02  0.58709445328E+02  0.00000000000E+00 0. -1.
         21    1    1    2  503  502  0.22177612180E+02  0.11416090300E+02  0.49460357878E+01  0.25429055621E+02  0.00000000000E+00 0. -1.
         -2    1    1    2    0  503  0.25752565731E+02 -0.10813779394E+03  0.40526234783E+01  0.11123578955E+03  0.00000000000E+00 0.  1.
<scales pt_clust_5="13000.00000" pt_clust_6="13000.00000" pt_clust_7="13000.00000" pt_clust_8="13000.00000" pt_clust_9="24.94341" pt_clust_10="104.94698"></scales>
<clustering>
<clus scale="   24.943">  2  9  1 -1</clus>
<clus scale="   74.682">  5  6 -1 -1</clus>
<clus scale="   92.560">  7  8 -1 -1</clus>
<clus scale="   93.999">  1  7  2 -1</clus>
<clus scale="  104.947">  2 10  1 -1</clus>
<clus scale="   24.943">  2  5  1 -1</clus>
</clustering>
</event>
<event>
10    4  0.3738096E-005  0.1037497E+03  0.7546771E-02  0.1277856E+00
          4   -1    0    0  503    0 -0.00000000000E+00  0.00000000000E+00  0.30416967600E+03  0.30416967600E+03  0.00000000000E+00 0. -1.
         21   -1    0    0  501  502  0.00000000000E+00 -0.00000000000E+00 -0.16151737392E+03  0.16151737392E+03  0.00000000000E+00 0.  1.
         24    2    1    2    0    0 -0.16082795710E+02 -0.24109066896E+01  0.73218369842E+02  0.11016040273E+03  0.80684049585E+02 0.  0.
         23    2    1    2    0    0  0.70611529968E+02 -0.40424925457E+02 -0.42536129920E+02  0.13001424366E+03  0.92055518272E+02 0.  0.
        -13    1    3    3    0    0 -0.89939562239E+01 -0.26192354140E+02 -0.49634232025E+01  0.28134786899E+02  0.00000000000E+00 0.  1.
         14    1    3    3    0    0 -0.70888394858E+01  0.23781447451E+02  0.78181793044E+02  0.82025615827E+02  0.00000000000E+00 0. -1.
        -11    1    4    4    0    0  0.16185356212E+02 -0.61546429820E+02 -0.14593615366E+02  0.65290905865E+02  0.00000000000E+00 0.  1.
         11    1    4    4    0    0  0.54426173755E+02  0.21121504363E+02 -0.27942514554E+02  0.64723337799E+02  0.00000000000E+00 0. -1.
         21    1    1    2  503  502 -0.38739100327E+02  0.13567280421E+02  0.16106574743E+03  0.16621360951E+03  0.00000000000E+00 0. -1.
          3    1    1    2  501    0 -0.15789633931E+02  0.29268551726E+02 -0.49095685274E+02  0.59298794021E+02  0.00000000000E+00 0. -1.
<scales pt_clust_5="13000.00000" pt_clust_6="13000.00000" pt_clust_7="13000.00000" pt_clust_8="13000.00000" pt_clust_9="41.63908" pt_clust_10="33.25599"></scales>
<clustering>
<clus scale="   33.256">  2 10  1 -1</clus>
<clus scale="   41.639">  1  9  2 -1</clus>
<clus scale="   80.684">  5  6 -1 -1</clus>
<clus scale="   92.056">  7  8 -1 -1</clus>
<clus scale="   93.807">  1  5  2 -1</clus>
<clus scale="   33.256">  2  5  1 -1</clus>
</clustering>
</event>
<event>
10    4  0.3738096E-005  0.1656274E+03  0.7546771E-02  0.1206851E+00
          2   -1    0    0  502    0 -0.00000000000E+00  0.00000000000E+00  0.77739280467E+03  0.77739280467E+03  0.00000000000E+00 0. -1.
         21   -1    0    0  503  502  0.00000000000E+00 -0.00000000000E+00 -0.82332684816E+02  0.82332684816E+02  0.00000000000E+00 0.  1.
         23    2    1    2    0    0 -0.20649647825E+02  0.21362356543E+02  0.38077471240E+03  0.39295798625E+03  0.92432889812E+02 0.  0.
         24    2    1    2    0    0 -0.57680874861E+02 -0.13471447875E+03  0.76101864990E+02  0.18507640186E+03  0.83586521411E+02 0.  0.
        -13    1    4    4    0    0 -0.53145976893E+02 -0.12418574080E+03  0.93470202498E+02  0.16426585718E+03  0.00000000000E+00 0.  1.
         14    1    4    4    0    0 -0.45348979686E+01 -0.10528737947E+02 -0.17368337508E+02  0.20810544686E+02  0.00000000000E+00 0. -1.
        -11    1    3    3    0    0  0.22696986795E+02 -0.24502451086E+02  0.11199639229E+03  0.11687050614E+03  0.00000000000E+00 0.  1.
         11    1    3    3    0    0 -0.43346634621E+02  0.45864807629E+02  0.26877832011E+03  0.27608748011E+03  0.00000000000E+00 0. -1.
         21    1    1    2  503  501  0.25232698914E+02  0.24793275572E+02  0.11826772074E+03  0.12344492447E+03  0.00000000000E+00 0. -1.
          1    1    1    2  501    0  0.53097823772E+02  0.88558846634E+02  0.11991582172E+03  0.15824617691E+03  0.00000000000E+00 0. -1.
<scales pt_clust_5="13000.00000" pt_clust_6="13000.00000" pt_clust_7="13000.00000" pt_clust_8="13000.00000" pt_clust_9="35.28475" pt_clust_10="155.17683"></scales>
<clustering>
<clus scale="   35.285">  9 10 -1 -1</clus>
<clus scale="   83.587">  5  6 -1 -1</clus>
<clus scale="   92.433">  7  8 -1 -1</clus>
<clus scale="   97.091">  1  7  2 -1</clus>
<clus scale="  155.177">  2  9  1 -1</clus>
<clus scale="  155.177">  2  5  1 -1</clus>
</clustering>
</event>
<event>
10    4  0.3738096E-005  0.3289406E+03  0.7546771E-02  0.1071967E+00
          2   -1    0    0  503    0 -0.00000000000E+00  0.00000000000E+00  0.11660318593E+04  0.11660318593E+04  0.00000000000E+00 0. -1.
         21   -1    0    0  501  502  0.00000000000E+00 -0.00000000000E+00 -0.32658059678E+03  0.32658059678E+03  0.00000000000E+00 0.  1.
         23    2    1    2    0    0 -0.34423162894E+03  0.25402864525E+03  0.37657048331E+03  0.57726097490E+03  0.91645716035E+02 0.  0.
         24    2    1    2    0    0  0.28594764471E+03  0.58372289922E+02  0.11516030294E+03  0.32360929351E+03  0.79295017054E+02 0.  0.
        -13    1    4    4    0    0  0.33734834800E+02 -0.12790824915E+02 -0.28767320916E+01  0.36192815151E+02  0.00000000000E+00 0.  1.
         14    1    4    4    0    0  0.25221280991E+03  0.71163114836E+02  0.11803703503E+03  0.28741647836E+03  0.00000000000E+00 0. -1.
        -13    1    3    3    0    0 -0.30885999644E+03  0.24581005098E+03  0.36861236219E+03  0.54008531930E+03  0.00000000000E+00 0.  1.
         13    1    3    3    0    0 -0.35371632500E+02  0.82185942720E+01  0.79581211250E+01  0.37175655601E+02  0.00000000000E+00 0. -1.
         21    1    1    2  503  502  0.12797300376E+03 -0.48329759611E+02  0.27805830157E+03  0.30988590550E+03  0.00000000000E+00 0. -1.
          1    1    1    2  501    0 -0.69689019520E+02 -0.26407117556E+03  0.69662174665E+02  0.28185628214E+03  0.00000000000E+00 0. -1.
<scales pt_clust_5="13000.00000" pt_clust_6="13000.00000" pt_clust_7="13000.00000" pt_clust_8="13000.00000" pt_clust_9="136.79494" pt_clust_10="277.30817"></scales>
<clustering>
<clus scale="   79.295">  5  6 -1 -1</clus>
<clus scale="   91.646">  7  8 -1 -1</clus>
<clus scale="  136.795">  1  9  2 -1</clus>
<clus scale="  277.308">  2 10  1 -1</clus>
<clus scale="  325.716">  2  5  1 -1</clus>
<clus scale="  277.308">  2  5  1 -1</clus>
</clustering>
</event>
<event>
10    4  0.3738096E-005  0.1051913E+03  0.7546771E-02  0.1277229E+00
         21   -1    0    0  503  502  0.00000000000E+00  0.00000000000E+00  0.22672525558E+03  0.22672525558E+03  0.00000000000E+00 0.  1.
         -1   -1    0    0    0  501 -0.00000000000E+00 -0.00000000000E+00 -0.29577965750E+03  0.29577965750E+03  0.00000000000E+00 0.  1.
         23    2    1    2    0    0 -0.26067333157E+02 -0.40321480091E+02 -0.21026724837E+03  0.23599344064E+03  0.95787581004E+02 0.  0.
         24    2    1    2    0    0  0.41544121759E+02 -0.21843282100E+02  0.82491165391E+02  0.12415616837E+03  0.80043230512E+02 0.  0.
        -13    1    4    4    0    0  0.22121269355E+02 -0.43642452590E+02  0.81357844582E+02  0.94937416760E+02  0.00000000000E+00 0.  1.
         14    1    4    4    0    0  0.19422852404E+02  0.21799170489E+02  0.11333208084E+01  0.29218751609E+02  0.00000000000E+00 0. -1.
        -13    1    3    3    0    0 -0.51508709300E+02 -0.56199241843E+02 -0.13616151453E+03  0.15604954328E+03  0.00000000000E+00 0. -1.
         13    1    3    3    0    0  0.25441376143E+02  0.15877761752E+02 -0.74105733835E+02  0.79943897363E+02  0.00000000000E+00 0.  1.
         21    1    1    2  503  501  0.12487095986E+02  0.74026259922E+02 -0.20239952903E+02  0.77752623221E+02  0.00000000000E+00 0. -1.
         -2    1    1    2    0  502 -0.27963884588E+02 -0.11861497731E+02  0.78961633961E+02  0.84602680852E+02  0.00000000000E+00 0.  1.
<scales pt_clust_5="13000.00000" pt_clust_6="13000.00000" pt_clust_7="13000.00000" pt_clust_8="13000.00000" pt_clust_9="72.00810" pt_clust_10="30.37555"></scales>
<clustering>
<clus scale="   30.376">  1 10  2 -1</clus>
<clus scale="   72.008">  1  9  2 -1</clus>
<clus scale="   80.043">  5  6 -1 -1</clus>
<clus scale="   91.087">  1  5  2 -1</clus>
<clus scale="   95.788">  7  8 -1 -1</clus>
<clus scale="   30.376">  1  5  2 -1</clus>
</clustering>
</event>
<event>
10    4  0.3738096E-005  0.1187696E+03  0.7546771E-02  0.1248740E+00
         21   -1    0    0  501  502  0.00000000000E+00  0.00000000000E+00  0.18790253304E+03  0.18790253304E+03  0.00000000000E+00 0. -1.
          2   -1    0    0  503    0 -0.00000000000E+00 -0.00000000000E+00 -0.29921632522E+03  0.29921632522E+03  0.00000000000E+00 0. -1.
         23    2    1    2    0    0 -0.53513498085E+02  0.45466227996E+02 -0.69374521132E+02  0.13456565644E+03  0.91456106108E+02 0.  0.
         24    2    1    2    0    0  0.39633382990E+02 -0.43043157364E+02  0.57095711267E+02  0.11466932284E+03  0.80409047452E+02 0.  0.
        -11    1    4    4    0    0  0.20640659758E+02 -0.64118328283E+02  0.25040546315E+02  0.71862548082E+02  0.00000000000E+00 0.  1.
         12    1    4    4    0    0  0.18992723231E+02  0.21075170919E+02  0.32055164953E+02  0.42806774758E+02  0.00000000000E+00 0. -1.
        -11    1    3    3    0    0 -0.68826516227E+02  0.36425551684E+01 -0.30195905225E+02  0.75247260657E+02  0.00000000000E+00 0.  1.
         11    1    3    3    0    0  0.15313018142E+02  0.41823672828E+02 -0.39178615907E+02  0.59318395779E+02  0.00000000000E+00 0. -1.
         21    1    1    2  503  502 -0.10984585818E+02  0.19979207099E+02 -0.16358879631E+03  0.16516998553E+03  0.00000000000E+00 0. -1.
          1    1    1    2  501    0  0.24864700913E+02 -0.22402277732E+02  0.64553814002E+02  0.72713893454E+02  0.00000000000E+00 0. -1.
<scales pt_clust_5="13000.00000" pt_clust_6="13000.00000" pt_clust_7="13000.00000" pt_clust_8="13000.00000" pt_clust_9="22.79978" pt_clust_10="32.81730"></scales>
<clustering>
<clus scale="   22.800">  2  9  1 -1</clus>
<clus scale="   32.817">  1 10  2 -1</clus>
<clus scale="   80.409">  5  6 -1 -1</clus>
<clus scale="   91.456">  7  8 -1 -1</clus>
<clus scale="  110.488">  1  5  2 -1</clus>
<clus scale="   32.817">  1  5  2 -1</clus>
</clustering>
</event>
<event>
10    4  0.3738096E-005  0.2521947E+03  0.7546771E-02  0.1112605E+00
         21   -1    0    0  503  502  0.00000000000E+00  0.00000000000E+00  0.65368285845E+02  0.65368285845E+02  0.00000000000E+00 0. -1.
         -3   -1    0    0    0  501 -0.00000000000E+00 -0.00000000000E+00 -0.14370447905E+04  0.14370447905E+04  0.00000000000E+00 0.  1.
         24    2    1    2    0    0  0.23630090928E+03 -0.57725253047E+02 -0.61440907678E+03  0.66566297732E+03  0.80239399129E+02 0.  0.
         23    2    1    2    0    0 -0.21403555539E+03  0.71198199586E+02 -0.51173216796E+03  0.56687272250E+03  0.92706360071E+02 0.  0.
        -13    1    3    3    0    0  0.35300122139E+02 -0.13845057056E+02 -0.19330507162E+03  0.19698892086E+03  0.00000000000E+00 0.  1.
         14    1    3    3    0    0  0.20100078714E+03 -0.43880195991E+02 -0.42110400516E+03  0.46867405646E+03  0.00000000000E+00 0. -1.
        -11    1    4    4    0    0 -0.95587152708E+02  0.79689815980E+02 -0.28287843538E+03  0.30904300629E+03  0.00000000000E+00 0.  1.
         11    1    4    4    0    0 -0.11844840268E+03 -0.84916163933E+01 -0.22885373258E+03  0.25782971621E+03  0.00000000000E+00 0. -1.
         21    1    1    2  503  501 -0.15433771456E+02 -0.54329845047E+02 -0.72230396556E+02  0.91690585944E+02  0.00000000000E+00 0. -1.
         -4    1    1    2    0  502 -0.68315824384E+01  0.40856898508E+02 -0.17330486336E+03  0.17818679058E+03  0.00000000000E+00 0.  1.
<scales pt_clust_5="13000.00000" pt_clust_6="13000.00000" pt_clust_7="13000.00000" pt_clust_8="13000.00000" pt_clust_9="50.76526" pt_clust_10="41.42413"></scales>
<clustering>
<clus scale="   41.424">  1 10  2 -1</clus>
<clus scale="   50.765">  1  9  2 -1</clus>
<clus scale="   80.239">  5  6 -1 -1</clus>
<clus scale="   92.706">  7  8 -1 -1</clus>
<clus scale="  247.883">  2  5  1 -1</clus>
<clus scale="   41.424">  1  5  2 -1</clus>
</clustering>
</event>
<event>
10    4  0.3738096E-005  0.5964167E+03  0.7546771E-02  0.9912868E-01
          2   -1    0    0  503    0 -0.00000000000E+00  0.00000000000E+00  0.10160518686E+04  0.10160518686E+04  0.00000000000E+00 0. -1.
         21   -1    0    0  501  502  0.00000000000E+00 -0.00000000000E+00 -0.68764622058E+03  0.68764622058E+03  0.00000000000E+00 0. -1.
         24    2    1    2    0    0  0.35615487058E+03 -0.89248594732E+02  0.48172641662E+03  0.61086646023E+03  0.79283593941E+02 0.  0.
         23    2    1    2    0    0  0.20748479001E+03  0.51181376365E+02  0.20830677695E+03  0.31209786371E+03  0.91344905906E+02 0.  0.
        -11    1    3    3    0    0  0.25208672712E+03 -0.51445748465E+02  0.38931141657E+03  0.46664522080E+03  0.00000000000E+00 0.  1.
         12    1    3    3    0    0  0.10406814345E+03 -0.37802846267E+02  0.92415000051E+02  0.14422123943E+03  0.00000000000E+00 0. -1.
        -13    1    4    4    0    0  0.10851425056E+03 -0.13195763822E+02  0.68054520508E+02  0.12876679898E+03  0.00000000000E+00 0.  1.
         13    1    4    4    0    0  0.98970539450E+02  0.64377140187E+02  0.14025225644E+03  0.18333106473E+03  0.00000000000E+00 0. -1.
         21    1    1    2  503  502 -0.22366995713E+02 -0.17072785683E+02  0.76929593095E+02  0.81914130661E+02  0.00000000000E+00 0.  1.
          1    1    1    2  501    0 -0.54127266487E+03  0.55140004050E+02 -0.43855713866E+03  0.69881963457E+03  0.00000000000E+00 0. -1.
<scales pt_clust_5="13000.00000" pt_clust_6="13000.00000" pt_clust_7="13000.00000" pt_clust_8="13000.00000" pt_clust_9="28.13827" pt_clust_10="546.93172"></scales>
<clustering>
<clus scale="   28.138">  1  9  2 -1</clus>
<clus scale="   79.284">  5  6 -1 -1</clus>
<clus scale="   91.345">  7  8 -1 -1</clus>
<clus scale="  145.797">  5  7 -1 -1</clus>
<clus scale="  546.932">  2 10  1 -1</clus>
<clus scale="  546.932">  2  5  1 -1</clus>
</clustering>
</event>
<event>
10    4  0.3738096E-005  0.9205496E+02  0.7546771E-02  0.1304558E+00
         -1   -1    0    0    0  501 -0.00000000000E+00  0.00000000000E+00  0.24572438649E+03  0.24572438649E+03  0.00000000000E+00 0.  1.
         21   -1    0    0  503  502  0.00000000000E+00 -0.00000000000E+00 -0.21813899978E+03  0.21813899978E+03  0.00000000000E+00 0. -1.
         23    2    1    2    0    0  0.15415492884E+02 -0.14959828413E+01  0.18606253093E+03  0.20794569633E+03  0.91554747681E+02 0.  0.
         24    2    1    2    0    0  0.42825971298E+02 -0.42701256431E+02 -0.58663401326E+02  0.11684159099E+03  0.80951229831E+02 0.  0.
        -13    1    4    4    0    0 -0.25260622122E+01 -0.53541452013E+02 -0.23943798133E+02  0.58705822054E+02  0.00000000000E+00 0.  1.
         14    1    4    4    0    0  0.45352033510E+02  0.10840195582E+02 -0.34719603192E+02  0.58135768934E+02  0.00000000000E+00 0. -1.
        -13    1    3    3    0    0 -0.34899871215E+02  0.15931197944E+02  0.95058374800E+02  0.10250804212E+03  0.00000000000E+00 0.  1.
         13    1    3    3    0    0  0.50315364099E+02 -0.17427180785E+02  0.91004156128E+02  0.10543765422E+03  0.00000000000E+00 0. -1.
         21    1    1    2  503  501 -0.41985646410E+02  0.17612907935E+02 -0.13774983356E+02  0.47568468515E+02  0.00000000000E+00 0.  1.
         -2    1    1    2    0  502 -0.16255817772E+02  0.26584331337E+02 -0.86038759540E+02  0.91507630432E+02  0.00000000000E+00 0.  1.
<scales pt_clust_5="13000.00000" pt_clust_6="13000.00000" pt_clust_7="13000.00000" pt_clust_8="13000.00000" pt_clust_9="51.70353" pt_clust_10="31.16052"></scales>
<clustering>
<clus scale="   31.161">  2 10  1 -1</clus>
<clus scale="   51.704">  2  9  1 -1</clus>
<clus scale="   80.951">  5  6 -1 -1</clus>
<clus scale="   81.517">  2  5  1 -1</clus>
<clus scale="   91.555">  7  8 -1 -1</clus>
<clus scale="   31.161">  2  5  1 -1</clus>
</clustering>
</event>
<event>
10    4  0.3738096E-005  0.1463687E+03  0.7546771E-02  0.1225206E+00
         21   -1    0    0  501  502  0.00000000000E+00  0.00000000000E+00  0.11107794140E+03  0.11107794140E+03  0.00000000000E+00 0.  1.
          2   -1    0    0  503    0 -0.00000000000E+00 -0.00000000000E+00 -0.86346257983E+03  0.86346257983E+03  0.00000000000E+00 0. -1.
         24    2    1    2    0    0 -0.53042590397E+00 -0.63951315119E+02 -0.10910932216E+03  0.14861084847E+03  0.78040297572E+02 0.  0.
         23    2    1    2    0    0 -0.11164277288E+03 -0.12174549496E+02  0.13412449590E+02  0.14533159750E+03  0.91263634799E+02 0.  0.
        -13    1    3    3    0    0 -0.74322274442E+01 -0.80376638330E+02 -0.10026629398E+03  0.12872051780E+03  0.00000000000E+00 0.  1.
         14    1    3    3    0    0  0.69018015403E+01  0.16425323210E+02 -0.88430281839E+01  0.19890330679E+02  0.00000000000E+00 0. -1.
        -13    1    4    4    0    0 -0.98399288668E+02 -0.28883081990E+02  0.41019451990E+02  0.11045020542E+03  0.00000000000E+00 0.  1.
         13    1    4    4    0    0 -0.13243484213E+02  0.16708532494E+02 -0.27607002400E+02  0.34881392084E+02  0.00000000000E+00 0. -1.
         21    1    1    2  503  502 -0.13337273678E+02  0.44375503642E+02 -0.23336826026E+03  0.23792396493E+03  0.00000000000E+00 0. -1.
          1    1    1    2  501    0  0.12551047246E+03  0.31750360973E+02 -0.42331950560E+03  0.44267411032E+03  0.00000000000E+00 0. -1.
<scales pt_clust_5="13000.00000" pt_clust_6="13000.00000" pt_clust_7="13000.00000" pt_clust_8="13000.00000" pt_clust_9="46.33647" pt_clust_10="114.43228"></scales>
<clustering>
<clus scale="   46.336">  2  9  1 -1</clus>
<clus scale="   78.040">  5  6 -1 -1</clus>
<clus scale="   91.264">  7  8 -1 -1</clus>
<clus scale="   95.440">  2  5  1 -1</clus>
<clus scale="  114.432">  1 10  2 -1</clus>
<clus scale="  114.432">  1  5  2 -1</clus>
</clustering>
</event>
<event>
10    4  0.3738096E-005  0.2007642E+03  0.7546771E-02  0.1150156E+00
          2   -1    0    0  503    0 -0.00000000000E+00  0.00000000000E+00  0.83481424090E+03  0.83481424090E+03  0.00000000000E+00 0. -1.
         21   -1    0    0  501  502  0.00000000000E+00 -0.00000000000E+00 -0.11223404251E+03  0.11223404251E+03  0.00000000000E+00 0. -1.
         24    2    1    2    0    0 -0.21258461271E+03  0.83129442312E+02  0.44553034339E+03  0.50690252190E+03  0.79687879169E+02 0.  0.
         23    2    1    2    0    0  0.95128632352E+02 -0.51046803663E+01  0.25814149468E+02  0.13441781608E+03  0.91248367181E+02 0.  0.
        -11    1    3    3    0    0 -0.86155182779E+02  0.55415137398E+02  0.12757301251E+03  0.16361059408E+03  0.00000000000E+00 0.  1.
         12    1    3    3    0    0 -0.12642942993E+03  0.27714304914E+02  0.31795733088E+03  0.34329192782E+03  0.00000000000E+00 0. -1.
        -11    1    4    4    0    0  0.62887725245E+02  0.40462606481E+02  0.53734212643E+01  0.74973076272E+02  0.00000000000E+00 0. -1.
         11    1    4    4    0    0  0.32240907107E+02 -0.45567286847E+02  0.20440728204E+02  0.59444739811E+02  0.00000000000E+00 0.  1.
         21    1    1    2  503  502  0.85434787013E+02 -0.34185156041E+02  0.67453763888E+02  0.11409530222E+03  0.00000000000E+00 0. -1.
          1    1    1    2  501    0  0.32021193344E+02 -0.43839605904E+02  0.18378194165E+03  0.19163264321E+03  0.00000000000E+00 0. -1.
<scales pt_clust_5="13000.00000" pt_clust_6="13000.00000" pt_clust_7="13000.00000" pt_clust_8="13000.00000" pt_clust_9="102.11682" pt_clust_10="54.28877"></scales>
<clustering>
<clus scale="   54.289">  2 10  1 -1</clus>
<clus scale="   79.688">  5  6 -1 -1</clus>
<clus scale="   91.248">  7  8 -1 -1</clus>
<clus scale="  102.117">  2  9  1 -1</clus>
<clus scale="  195.781">  1  5  2 -1</clus>
<clus scale="   54.289">  2  5  1 -1</clus>
</clustering>
</event>
<event>
10    4  0.3738096E-005  0.1072050E+03  0.7546771E-02  0.1269408E+00
          4   -1    0    0  503    0 -0.00000000000E+00  0.00000000000E+00  0.58364858859E+03  0.58364858859E+03  0.00000000000E+00 0. -1.
         21   -1    0    0  501  502  0.00000000000E+00 -0.00000000000E+00 -0.42110795494E+02  0.42110795494E+02  0.00000000000E+00 0.  1.
         24    2    1    2    0    0 -0.49153829972E+02  0.29365263022E+02  0.27003574820E+03  0.28810972946E+03  0.82519653601E+02 0.  0.
         23    2    1    2    0    0  0.12778390106E+02 -0.42802969288E+02  0.10255435537E+03  0.14426070322E+03  0.91095407434E+02 0.  0.
        -13    1    3    3    0    0 -0.36147964462E+02 -0.72878876609E+01  0.38426360297E+02  0.53257617361E+02  0.00000000000E+00 0.  1.
         14    1    3    3    0    0 -0.13005865510E+02  0.36653150682E+02  0.23160938791E+03  0.23485211210E+03  0.00000000000E+00 0. -1.
        -11    1    4    4    0    0 -0.30697726965E+02 -0.41954816975E+02  0.79647079868E+02  0.95111589408E+02  0.00000000000E+00 0. -1.
         11    1    4    4    0    0  0.43476117070E+02 -0.84815231314E+00  0.22907275501E+02  0.49149113814E+02  0.00000000000E+00 0.  1.
         21    1    1    2  503  502 -0.17691205443E+02  0.15594654582E+02  0.11346287560E+03  0.11588786020E+03  0.00000000000E+00 0. -1.
          3    1    1    2  501    0  0.54066645310E+02 -0.21569483150E+01  0.55484813921E+02  0.77501091199E+02  0.00000000000E+00 0. -1.
<scales pt_clust_5="13000.00000" pt_clust_6="13000.00000" pt_clust_7="13000.00000" pt_clust_8="13000.00000" pt_clust_9="23.58330" pt_clust_10="51.55834"></scales>
<clustering>
<clus scale="   23.583">  1  9  2 -1</clus>
<clus scale="   51.558">  2 10  1 -1</clus>
<clus scale="   82.520">  5  6 -1 -1</clus>
<clus scale="   91.095">  7  8 -1 -1</clus>
<clus scale="  100.020">  1  5  2 -1</clus>
<clus scale="   51.558">  2  5  1 -1</clus>
</clustering>
</event>
<event>
10    4  0.3738096E-005  0.1220319E+03  0.7546771E-02  0.1243628E+00
         -1   -1    0    0    0  501 -0.00000000000E+00  0.00000000000E+00  0.84553709568E+03  0.84553709568E+03  0.00000000000E+00 0.  1.
         21   -1    0    0  503  502  0.00000000000E+00 -0.00000000000E+00 -0.44800792777E+02  0.44800792777E+02  0.00000000000E+00 0.  1.
         24    2    1    2    0    0  0.61816127929E+02  0.20419505332E+02  0.19444905485E+03  0.22099482930E+03  0.82402001046E+02 0.  0.
         23    2    1    2    0    0 -0.96953486027E+02  0.92853136738E+01  0.22472049746E+03  0.26253302754E+03  0.94541488598E+02 0.  0.
        -13    1    3    3    0    0  0.30073614334E+02 -0.31883226501E+02  0.82269103297E+02  0.93215705590E+02  0.00000000000E+00 0.  1.
         14    1    3    3    0    0  0.31742513595E+02  0.52302731833E+02  0.11217995155E+03  0.12777912371E+03  0.00000000000E+00 0. -1.
        -13    1    4    4    0    0 -0.53532799600E+02 -0.39435634068E+02  0.81777479219E+02  0.10539680249E+03  0.00000000000E+00 0. -1.
         13    1    4    4    0    0 -0.43420686427E+02  0.48720947742E+02  0.14294301824E+03  0.15713622505E+03  0.00000000000E+00 0.  1.
         21    1    1    2  503  501  0.44043728736E+01 -0.71360083084E+02  0.31205617335E+03  0.32014171126E+03  0.00000000000E+00 0.  1.
         -2    1    1    2    0  502  0.30732985224E+02  0.41655264077E+02  0.69510577242E+02  0.86668320363E+02  0.00000000000E+00 0.  1.
<scales pt_clust_5="13000.00000" pt_clust_6="13000.00000" pt_clust_7="13000.00000" pt_clust_8="13000.00000" pt_clust_9="67.16936" pt_clust_10="51.76560"></scales>
<clustering>
<clus scale="   51.766">  2 10  1 -1</clus>
<clus scale="   67.169">  1  9  2 -1</clus>
<clus scale="   82.402">  5  6 -1 -1</clus>
<clus scale="   94.541">  7  8 -1 -1</clus>
<clus scale="  112.888">  1  5  2 -1</clus>
<clus scale="   51.766">  2  5  1 -1</clus>
</clustering>
</event>
<event>
10    4  0.3738096E-005  0.3108857E+03  0.7546771E-02  0.1087126E+00
         21   -1    0    0  503  502  0.00000000000E+00  0.00000000000E+00  0.23360086178E+03  0.23360086178E+03  0.00000000000E+00 0.  1.
          2   -1    0    0  502    0 -0.00000000000E+00 -0.00000000000E+00 -0.11798216773E+04  0.11798216773E+04  0.00000000000E+00 0. -1.
         24    2    1    2    0    0  0.23460008455E+03 -0.64735010691E+02 -0.16167040301E+03  0.30309329961E+03  0.80625106391E+02 0.  0.
         23    2    1    2    0    0  0.13203823918E+03  0.22589172131E+03 -0.80874700499E+02  0.28867720154E+03  0.91283312508E+02 0.  0.
        -11    1    3    3    0    0  0.22787784531E+03 -0.61896576125E+02 -0.12790843822E+03  0.26855179591E+03  0.00000000000E+00 0.  1.
         12    1    3    3    0    0  0.67222392319E+01 -0.28384345656E+01 -0.33761964788E+02  0.34541503693E+02  0.00000000000E+00 0. -1.
        -11    1    4    4    0    0  0.29266144827E+02  0.11439034994E+03 -0.27761352673E+01  0.11810743549E+03  0.00000000000E+00 0.  1.
         11    1    4    4    0    0  0.10277209435E+03  0.11150137137E+03 -0.78098565232E+02  0.17056976604E+03  0.00000000000E+00 0. -1.
         21    1    1    2  503  501 -0.14609177381E+03  0.10786579445E+01 -0.19122454768E+03  0.24064662373E+03  0.00000000000E+00 0. -1.
          1    1    1    2  501    0 -0.22054654992E+03 -0.16223536857E+03 -0.51245116431E+03  0.58100541417E+03  0.00000000000E+00 0. -1.
<scales pt_clust_5="13000.00000" pt_clust_6="13000.00000" pt_clust_7="13000.00000" pt_clust_8="13000.00000" pt_clust_9="102.15640" pt_clust_10="102.15640"></scales>
<clustering>
<clus scale="   80.625">  5  6 -1 -1</clus>
<clus scale="   91.283">  7  8 -1 -1</clus>
<clus scale="  102.156">  9 10 -1 -1</clus>
<clus scale="  256.375">  2  5  1 -1</clus>
<clus scale="  292.276">  2  7  1 -1</clus>
<clus scale="  310.886">  1  5  2 -1</clus>
</clustering>
</event>
<event>
10    4  0.3738096E-005  0.1334234E+03  0.7546771E-02  0.1226133E+00
         21   -1    0    0  501  502  0.00000000000E+00  0.00000000000E+00  0.13183898489E+04  0.13183898489E+04  0.00000000000E+00 0. -1.
          4   -1    0    0  503    0 -0.00000000000E+00 -0.00000000000E+00 -0.44555638553E+02  0.44555638553E+02  0.00000000000E+00 0. -1.
         24    2    1    2    0    0  0.10625427907E+03 -0.46648390567E+02  0.33200228375E+03  0.35995732379E+03  0.76666253135E+02 0.  0.
         23    2    1    2    0    0 -0.16619783390E+02  0.11048498274E+03  0.77707227085E+03  0.79039745505E+03  0.91671556207E+02 0.  0.
        -13    1    3    3    0    0  0.35586054652E+02 -0.23004125135E+02  0.22864072902E+03  0.23253416959E+03  0.00000000000E+00 0.  1.
         14    1    3    3    0    0  0.70668224416E+02 -0.23644265432E+02  0.10336155473E+03  0.12742315420E+03  0.00000000000E+00 0. -1.
        -11    1    4    4    0    0 -0.36374517244E+02  0.44508515599E+01  0.19164061122E+03  0.19511288900E+03  0.00000000000E+00 0.  1.
         11    1    4    4    0    0  0.19754733854E+02  0.10603413118E+03  0.58543165963E+03  0.59528456605E+03  0.00000000000E+00 0. -1.
         21    1    1    2  503  502 -0.29234378367E+02  0.87390736455E+01  0.11556264942E+02  0.32627711322E+02  0.00000000000E+00 0. -1.
          3    1    1    2  501    0 -0.60400117311E+02 -0.72575665816E+02  0.15320339079E+03  0.17996299728E+03  0.00000000000E+00 0. -1.
<scales pt_clust_5="13000.00000" pt_clust_6="13000.00000" pt_clust_7="13000.00000" pt_clust_8="13000.00000" pt_clust_9="30.51263" pt_clust_10="99.74696"></scales>
<clustering>
<clus scale="   30.513">  2  9  1 -1</clus>
<clus scale="   76.666">  5  6 -1 -1</clus>
<clus scale="   91.672">  7  8 -1 -1</clus>
<clus scale="   99.747">  1 10  2 -1</clus>
<clus scale="  123.595">  2  5  1 -1</clus>
<clus scale="   99.747">  1  5  2 -1</clus>
</clustering>
</event>
<event>
10    4  0.3738096E-005  0.9995314E+02  0.7546771E-02  0.1285713E+00
         -1   -1    0    0    0  501 -0.00000000000E+00  0.00000000000E+00  0.17327019637E+03  0.17327019637E+03  0.00000000000E+00 0.  1.
         21   -1    0    0  503  502  0.00000000000E+00 -0.00000000000E+00 -0.25509504486E+03  0.25509504486E+03  0.00000000000E+00 0.  1.
         24    2    1    2    0    0  0.16631707149E+02  0.16512293434E+02  0.45503249084E+02  0.96177416650E+02  0.81426533017E+02 0.  0.
         23    2    1    2    0    0 -0.27740564268E+02 -0.27540763101E+02 -0.17564197312E+03  0.20206725957E+03  0.91940427073E+02 0.  0.
        -11    1    3    3    0    0  0.33954960801E+02 -0.22374213415E+02  0.31248354750E+02  0.51283569138E+02  0.00000000000E+00 0.  1.
         12    1    3    3    0    0 -0.17323253653E+02  0.38886506848E+02  0.14254894333E+02  0.44893847512E+02  0.00000000000E+00 0. -1.
        -11    1    4    4    0    0 -0.43709636456E+02 -0.49859172025E+02 -0.87709761350E+02  0.10995213318E+03  0.00000000000E+00 0.  1.
         11    1    4    4    0    0  0.15969072188E+02  0.22318408925E+02 -0.87932211769E+02  0.92115126391E+02  0.00000000000E+00 0. -1.
         21    1    1    2  503  501  0.34891575557E+02 -0.24107760720E+02  0.70476159018E+02  0.82252630121E+02  0.00000000000E+00 0.  1.
         -2    1    1    2    0  502 -0.23782718437E+02  0.35136230387E+02 -0.22162283477E+02  0.47867934894E+02  0.00000000000E+00 0.  1.
<scales pt_clust_5="13000.00000" pt_clust_6="13000.00000" pt_clust_7="13000.00000" pt_clust_8="13000.00000" pt_clust_9="42.40998" pt_clust_10="37.24244"></scales>
<clustering>
<clus scale="   42.410">  1  9  2 -1</clus>
<clus scale="   37.242">  2 10  1 -1</clus>
<clus scale="   81.427">  5  6 -1 -1</clus>
<clus scale="   90.376">  1  5  2 -1</clus>
<clus scale="   91.940">  7  8 -1 -1</clus>
<clus scale="   37.242">  2  5  1 -1</clus>
</clustering>
</event>
<event>
10    4  0.3738096E-005  0.2949045E+03  0.7546771E-02  0.1088353E+00
         21   -1    0    0  503  502  0.00000000000E+00  0.00000000000E+00  0.87551471687E+03  0.87551471687E+03  0.00000000000E+00 0.  1.
         -3   -1    0    0    0  501 -0.00000000000E+00 -0.00000000000E+00 -0.17981005125E+03  0.17981005125E+03  0.00000000000E+00 0.  1.
         23    2    1    2    0    0 -0.26162512137E+03  0.81622293493E+02  0.17047527952E+03  0.33502858962E+03  0.89846713937E+02 0.  0.
         24    2    1    2    0    0  0.31042331078E+03 -0.32151348829E+02  0.50919948227E+03  0.60192063164E+03  0.75019950304E+02 0.  0.
        -11    1    4    4    0    0  0.28895003540E+03 -0.23960857621E+02  0.49823121449E+03  0.57645519232E+03  0.00000000000E+00 0.  1.
         12    1    4    4    0    0  0.21473275385E+02 -0.81904912075E+01  0.10968267777E+02  0.25465439325E+02  0.00000000000E+00 0. -1.
        -11    1    3    3    0    0 -0.11569995068E+03  0.39757722731E+02  0.25206592184E+02  0.12491007723E+03  0.00000000000E+00 0.  1.
         11    1    3    3    0    0 -0.14592517069E+03  0.41864570762E+02  0.14526868734E+03  0.21011851238E+03  0.00000000000E+00 0. -1.
         21    1    1    2  503  501  0.19789573621E+01 -0.62557475142E+02  0.20215168024E+02  0.65772387722E+02  0.00000000000E+00 0.  1.
         -4    1    1    2    0  502 -0.50777146775E+02  0.13086530478E+02 -0.41852641996E+01  0.52603159135E+02  0.00000000000E+00 0.  1.
<scales pt_clust_5="13000.00000" pt_clust_6="13000.00000" pt_clust_7="13000.00000" pt_clust_8="13000.00000" pt_clust_9="61.89933" pt_clust_10="52.43642"></scales>
<clustering>
<clus scale="   52.436">  1 10  2 -1</clus>
<clus scale="   61.899">  2  9  1 -1</clus>
<clus scale="   75.020">  5  6 -1 -1</clus>
<clus scale="   89.847">  7  8 -1 -1</clus>
<clus scale="  290.730">  1  5  2 -1</clus>
<clus scale="   52.436">  1  5  2 -1</clus>
</clustering>
</event>
<event>
10    4  0.3738096E-005  0.1849593E+03  0.7546771E-02  0.1164384E+00
         21   -1    0    0  503  502  0.00000000000E+00  0.00000000000E+00  0.94072446808E+03  0.94072446808E+03  0.00000000000E+00 0.  1.
         -3   -1    0    0    0  501 -0.00000000000E+00 -0.00000000000E+00 -0.11547454490E+03  0.11547454490E+03  0.00000000000E+00 0.  1.
         23    2    1    2    0    0  0.33337354976E+02  0.15111286852E+03 -0.12611169318E+02  0.18006679003E+03  0.91205970261E+02 0.  0.
         24    2    1    2    0    0 -0.82721605519E+02 -0.11554711178E+03  0.67018456640E+03  0.68968787116E+03  0.79548774532E+02 0.  0.
        -13    1    4    4    0    0 -0.84134774839E+02 -0.81286405202E+02  0.60316611179E+03  0.61440662303E+03  0.00000000000E+00 0.  1.
         14    1    4    4    0    0  0.14131693198E+01 -0.34260706577E+02  0.67018454608E+02  0.75281248135E+02  0.00000000000E+00 0. -1.
        -13    1    3    3    0    0 -0.58861784275E+01  0.69323286599E+02 -0.46004035624E+02  0.83407052789E+02  0.00000000000E+00 0.  1.
         13    1    3    3    0    0  0.39223533403E+02  0.81789581921E+02  0.33392866306E+02  0.96659737242E+02  0.00000000000E+00 0. -1.
         21    1    1    2  503  501  0.31122582177E+02  0.32284074897E+01  0.34690455698E+02  0.46716864758E+02  0.00000000000E+00 0. -1.
         -4    1    1    2    0  502  0.18261668366E+02 -0.38794164232E+02  0.13298607040E+03  0.13972748702E+03  0.00000000000E+00 0.  1.
<scales pt_clust_5="13000.00000" pt_clust_6="13000.00000" pt_clust_7="13000.00000" pt_clust_8="13000.00000" pt_clust_9="31.28958" pt_clust_10="43.20525"></scales>
<clustering>
<clus scale="   31.290">  2  9  1 -1</clus>
<clus scale="   43.205">  1 10  2 -1</clus>
<clus scale="   79.549">  5  6 -1 -1</clus>
<clus scale="   91.206">  7  8 -1 -1</clus>
<clus scale="  179.498">  1  5  2 -1</clus>
<clus scale="   43.205">  1  5  2 -1</clus>
</clustering>
</event>
<event>
10    4  0.3738096E-005  0.1196970E+03  0.7546771E-02  0.1247372E+00
         21   -1    0    0  503  502  0.00000000000E+00  0.00000000000E+00  0.23053223532E+03  0.23053223532E+03  0.00000000000E+00 0.  1.
         -3   -1    0    0    0  501 -0.00000000000E+00 -0.00000000000E+00 -0.11925906487E+03  0.11925906487E+03  0.00000000000E+00 0.  1.
         23    2    1    2    0    0  0.63817283902E+02 -0.96640214506E+01 -0.43932339796E+01  0.11249519061E+03  0.92031670479E+02 0.  0.
         24    2    1    2    0    0 -0.64399654422E+02  0.47754667195E+02  0.10251019154E+03  0.15292619041E+03  0.80313489612E+02 0.  0.
        -11    1    4    4    0    0 -0.29497358022E+02 -0.10006480075E+02  0.72809634459E+02  0.79192592103E+02  0.00000000000E+00 0.  1.
         12    1    4    4    0    0 -0.34902296399E+02  0.57761147270E+02  0.29700557084E+02  0.73733598305E+02  0.00000000000E+00 0. -1.
        -13    1    3    3    0    0 -0.13439737716E+02 -0.28651395264E+02 -0.87050784271E+01  0.32822361141E+02  0.00000000000E+00 0. -1.
         13    1    3    3    0    0  0.77257021617E+02  0.18987373814E+02  0.43118444475E+01  0.79672829472E+02  0.00000000000E+00 0.  1.
         21    1    1    2  503  501  0.21941497323E+01 -0.60537694252E+02  0.66375178372E+01  0.60939998042E+02  0.00000000000E+00 0.  1.
         -4    1    1    2    0  502 -0.16117792123E+01  0.22447048507E+02  0.65186950403E+01  0.23429921125E+02  0.00000000000E+00 0.  1.
<scales pt_clust_5="13000.00000" pt_clust_6="13000.00000" pt_clust_7="13000.00000" pt_clust_8="13000.00000" pt_clust_9="57.05216" pt_clust_10="22.50485"></scales>
<clustering>
<clus scale="   22.505">  1 10  2 -1</clus>
<clus scale="   57.052">  2  9  1 -1</clus>
<clus scale="   80.313">  5  6 -1 -1</clus>
<clus scale="   92.032">  7  8 -1 -1</clus>
<clus scale="  110.940">  1  5  2 -1</clus>
<clus scale="   22.505">  1  5  2 -1</clus>
</clustering>
</event>
<event>
10    4  0.3738096E-005  0.1897660E+03  0.7546771E-02  0.1159364E+00
         21   -1    0    0  503  502  0.00000000000E+00  0.00000000000E+00  0.15650812830E+04  0.15650812830E+04  0.00000000000E+00 0.  1.
         -3   -1    0    0    0  501 -0.00000000000E+00 -0.00000000000E+00 -0.88287699440E+02  0.88287699440E+02  0.00000000000E+00 0.  1.
         24    2    1    2    0    0  0.85096918521E+02 -0.16491011004E+03  0.25467980495E+03  0.32607977511E+03  0.83841438160E+02 0.  0.
         23    2    1    2    0    0 -0.19517348614E+01  0.12453815469E+03  0.49794504252E+03  0.52118608857E+03  0.90399736174E+02 0.  0.
        -11    1    3    3    0    0  0.98486655973E+02 -0.15994605378E+03  0.22467589002E+03  0.29285084443E+03  0.00000000000E+00 0.  1.
         12    1    3    3    0    0 -0.13389737452E+02 -0.49640562635E+01  0.30003914926E+02  0.33228930685E+02  0.00000000000E+00 0. -1.
        -11    1    4    4    0    0 -0.40648165918E+02  0.78604871759E+02  0.36029745600E+03  0.37100573588E+03  0.00000000000E+00 0.  1.
         11    1    4    4    0    0  0.38696431057E+02  0.45933282929E+02  0.13764758653E+03  0.15018035269E+03  0.00000000000E+00 0. -1.
         21    1    1    2  503  501 -0.52534259740E+02 -0.73550797406E+02  0.20586507476E+02  0.92700445174E+02  0.00000000000E+00 0.  1.
         -4    1    1    2    0  502 -0.30610923920E+02  0.11392275276E+03  0.70358222863E+03  0.71340267360E+03  0.00000000000E+00 0.  1.
<scales pt_clust_5="13000.00000" pt_clust_6="13000.00000" pt_clust_7="13000.00000" pt_clust_8="13000.00000" pt_clust_9="90.38566" pt_clust_10="112.75877"></scales>
<clustering>
<clus scale="   83.841">  5  6 -1 -1</clus>
<clus scale="   90.386">  2  9  1 -1</clus>
<clus scale="   90.400">  7  8 -1 -1</clus>
<clus scale="  112.759">  1 10  2 -1</clus>
<clus scale="  186.731">  2  5  1 -1</clus>
<clus scale="  112.759">  1  5  2 -1</clus>
</clustering>
</event>
<event>
10    4  0.3738096E-005  0.1414524E+03  0.7546771E-02  0.1214705E+00
          2   -1    0    0  503    0 -0.00000000000E+00  0.00000000000E+00  0.15230142030E+04  0.15230142030E+04  0.00000000000E+00 0. -1.
         21   -1    0    0  501  502  0.00000000000E+00 -0.00000000000E+00 -0.77111702559E+02  0.77111702559E+02  0.00000000000E+00 0.  1.
         24    2    1    2    0    0 -0.53303155278E+02  0.77468472033E+02  0.53058217689E+03  0.54324861146E+03  0.68985628224E+02 0.  0.
         23    2    1    2    0    0  0.13266912439E+03 -0.41598842267E+02  0.45011439362E+03  0.47887723849E+03  0.85958606036E+02 0.  0.
        -11    1    3    3    0    0  0.21468463694E+00  0.41973358227E+02  0.10898419201E+03  0.11678768342E+03  0.00000000000E+00 0.  1.
         12    1    3    3    0    0 -0.53517839915E+02  0.35495113806E+02  0.42159798487E+03  0.42646092804E+03  0.00000000000E+00 0. -1.
        -13    1    4    4    0    0  0.62088266546E+02  0.18011173204E+02  0.25390605505E+03  0.26200694647E+03  0.00000000000E+00 0. -1.
         13    1    4    4    0    0  0.70580857841E+02 -0.59610015471E+02  0.19620833857E+03  0.21687029202E+03  0.00000000000E+00 0.  1.
         21    1    1    2  503  502 -0.93265733414E+02 -0.53925017801E+02  0.51345798136E+03  0.52463844998E+03  0.00000000000E+00 0.  1.
          1    1    1    2  501    0  0.13899764306E+02  0.18055388035E+02 -0.48252051448E+02  0.53361605614E+02  0.00000000000E+00 0. -1.
<scales pt_clust_5="13000.00000" pt_clust_6="13000.00000" pt_clust_7="13000.00000" pt_clust_8="13000.00000" pt_clust_9="103.27159" pt_clust_10="22.78597"></scales>
<clustering>
<clus scale="   22.786">  2 10  1 -1</clus>
<clus scale="   68.986">  5  6 -1 -1</clus>
<clus scale="   85.959">  7  8 -1 -1</clus>
<clus scale="  103.272">  1  9  2 -1</clus>
<clus scale="  131.829">  1  5  2 -1</clus>
<clus scale="   22.786">  2  5  1 -1</clus>
</clustering>
</event>
<event>
10    4  0.3738096E-005  0.1982904E+03  0.7546771E-02  0.1151871E+00
         21   -1    0    0  501  502  0.00000000000E+00  0.00000000000E+00  0.15938185529E+03  0.15938185529E+03  0.00000000000E+00 0. -1.
          2   -1    0    0  503    0 -0.00000000000E+00 -0.00000000000E+00 -0.82262985226E+03  0.82262985226E+03  0.00000000000E+00 0. -1.
         24    2    1    2    0    0  0.19839847062E+03  0.36679709322E+02 -0.51780679514E+03  0.56210021922E+03  0.84412233346E+02 0.  0.
         23    2    1    2    0    0 -0.11265372244E+03 -0.58102291935E+02  0.38869886937E+02  0.16108534190E+03  0.91492522961E+02 0.  0.
        -11    1    3    3    0    0  0.19099699691E+03  0.44520280774E+02 -0.41808875685E+03  0.46180094936E+03  0.00000000000E+00 0.  1.
         12    1    3    3    0    0  0.74014737030E+01 -0.78405714520E+01 -0.99718038287E+02  0.10029926985E+03  0.00000000000E+00 0. -1.
        -13    1    4    4    0    0 -0.16568992000E+02 -0.35220840351E+02  0.48108376435E+02  0.61882590235E+02  0.00000000000E+00 0. -1.
         13    1    4    4    0    0 -0.96084730441E+02 -0.22881451585E+02 -0.92384894982E+01  0.99202751669E+02  0.00000000000E+00 0.  1.
         21    1    1    2  503  502 -0.24117144030E+02  0.21329373526E+02 -0.19381412893E+03  0.19647008776E+03  0.00000000000E+00 0.  1.
          1    1    1    2  501    0 -0.61627604145E+02  0.93209086995E-01  0.95030401500E+01  0.62356058669E+02  0.00000000000E+00 0. -1.
<scales pt_clust_5="13000.00000" pt_clust_6="13000.00000" pt_clust_7="13000.00000" pt_clust_8="13000.00000" pt_clust_9="32.19594" pt_clust_10="62.65114"></scales>
<clustering>
<clus scale="   32.196">  2  9  1 -1</clus>
<clus scale="   62.651">  1 10  2 -1</clus>
<clus scale="   84.412">  5  6 -1 -1</clus>
<clus scale="   91.493">  7  8 -1 -1</clus>
<clus scale="  195.125">  2  5  1 -1</clus>
<clus scale="   62.651">  1  5  2 -1</clus>
</clustering>
</event>
<event>
10    4  0.3738096E-005  0.9792833E+02  0.7546771E-02  0.1289669E+00
         21   -1    0    0  503  502  0.00000000000E+00  0.00000000000E+00  0.21930768693E+02  0.21930768693E+02  0.00000000000E+00 0.  1.
         -1   -1    0    0    0  501 -0.00000000000E+00 -0.00000000000E+00 -0.94131583641E+03  0.94131583641E+03  0.00000000000E+00 0.  1.
         24    2    1    2    0    0  0.10136776332E+02 -0.18406559547E+02 -0.36324955075E+03  0.37291314707E+03  0.81684903593E+02 0.  0.
         23    2    1    2    0    0 -0.39530763913E+02  0.14682299205E+02 -0.15549272705E+03  0.18509439928E+03  0.91124624946E+02 0.  0.
        -11    1    3    3    0    0 -0.17047995846E+02  0.26680043143E+02 -0.14163622363E+03  0.14513193552E+03  0.00000000000E+00 0.  1.
         12    1    3    3    0    0  0.27184772178E+02 -0.45086602689E+02 -0.22161332712E+03  0.22778121155E+03  0.00000000000E+00 0. -1.
        -11    1    4    4    0    0  0.13403909985E+01 -0.22000336278E+02 -0.20694615178E+01  0.22138069368E+02  0.00000000000E+00 0.  1.
         11    1    4    4    0    0 -0.40871154912E+02  0.36682635483E+02 -0.15342326553E+03  0.16295632991E+03  0.00000000000E+00 0. -1.
         21    1    1    2  503  501  0.27490293112E+02 -0.21906545411E+02 -0.23470909818E+03  0.23732672356E+03  0.00000000000E+00 0.  1.
         -2    1    1    2    0  502  0.19036944697E+01  0.25630805752E+02 -0.16593369173E+03  0.16791233519E+03  0.00000000000E+00 0.  1.
<scales pt_clust_5="13000.00000" pt_clust_6="13000.00000" pt_clust_7="13000.00000" pt_clust_8="13000.00000" pt_clust_9="34.27172" pt_clust_10="25.70142"></scales>
<clustering>
<clus scale="   25.701">  1 10  2 -1</clus>
<clus scale="   34.272">  2  9  1 -1</clus>
<clus scale="   81.685">  5  6 -1 -1</clus>
<clus scale="   89.211">  2  5  1 -1</clus>
<clus scale="   91.125">  7  8 -1 -1</clus>
<clus scale="   25.701">  1  5  2 -1</clus>
</clustering>
</event>
<event>
10    4  0.3738096E-005  0.1269078E+03  0.7546771E-02  0.1232683E+00
         -1   -1    0    0    0  501 -0.00000000000E+00  0.00000000000E+00  0.54531573772E+03  0.54531573772E+03  0.00000000000E+00 0.  1.
         21   -1    0    0  503  502  0.00000000000E+00 -0.00000000000E+00 -0.17233957795E+03  0.17233957795E+03  0.00000000000E+00 0. -1.
         24    2    1    2    0    0 -0.77510692658E+02 -0.76550773325E+02  0.36858436106E+03  0.39432760646E+03  0.88158389424E+02 0.  0.
         23    2    1    2    0    0  0.67745287035E+02  0.79766267989E+02 -0.11116740724E+03  0.17524745157E+03  0.86031363019E+02 0.  0.
        -13    1    3    3    0    0 -0.23099860380E+02 -0.82206596597E+02  0.21961130850E+03  0.23562821328E+03  0.00000000000E+00 0.  1.
         14    1    3    3    0    0 -0.54410832278E+02  0.56558232711E+01  0.14897305255E+03  0.15869939317E+03  0.00000000000E+00 0. -1.
        -13    1    4    4    0    0 -0.64308691732E-02  0.21908603073E+02  0.10622666414E+02  0.24348058890E+02  0.00000000000E+00 0.  1.
         13    1    4    4    0    0  0.67751717904E+02  0.57857664916E+02 -0.12179007366E+03  0.15089939268E+03  0.00000000000E+00 0. -1.
         21    1    1    2  503  501  0.93005173245E+01  0.20602919550E+02  0.12145330182E+03  0.12353899967E+03  0.00000000000E+00 0.  1.
         -2    1    1    2    0  502  0.46488829909E+00 -0.23818414213E+02 -0.58940958627E+01  0.24541257971E+02  0.00000000000E+00 0.  1.
<scales pt_clust_5="13000.00000" pt_clust_6="13000.00000" pt_clust_7="13000.00000" pt_clust_8="13000.00000" pt_clust_9="22.60486" pt_clust_10="23.37370"></scales>
<clustering>
<clus scale="   22.605">  1  9  2 -1</clus>
<clus scale="   23.374">  2 10  1 -1</clus>
<clus scale="   86.031">  7  8 -1 -1</clus>
<clus scale="   88.158">  5  6 -1 -1</clus>
<clus scale="  125.440">  2  7  1 -1</clus>
<clus scale="   23.374">  2  5  1 -1</clus>
</clustering>
</event>
<event>
10    4  0.3738096E-005  0.5034900E+03  0.7546771E-02  0.1012872E+00
          2   -1    0    0  503    0 -0.00000000000E+00  0.00000000000E+00  0.12286908708E+04  0.12286908708E+04  0.00000000000E+00 0. -1.
         21   -1    0    0  501  502  0.00000000000E+00 -0.00000000000E+00 -0.58429082310E+03  0.58429082310E+03  0.00000000000E+00 0. -1.
         24    2    1    2    0    0  0.32261120950E+02 -0.26297804408E+03  0.78683237110E+03  0.83436425333E+03  0.82826900436E+02 0.  0.
         23    2    1    2    0    0 -0.48100530760E+02 -0.17261574080E+03  0.27686426796E+03  0.34209844007E+03  0.90926700110E+02 0.  0.
        -13    1    3    3    0    0  0.38441600023E+02 -0.62083172010E+02  0.27368583075E+03  0.28325961734E+03  0.00000000000E+00 0.  1.
         14    1    3    3    0    0 -0.61804790731E+01 -0.20089487207E+03  0.51314654035E+03  0.55110463600E+03  0.00000000000E+00 0. -1.
        -13    1    4    4    0    0 -0.65461025559E+02 -0.66223250187E+02  0.12559485663E+03  0.15634811398E+03  0.00000000000E+00 0.  1.
         13    1    4    4    0    0  0.17360494799E+02 -0.10639249062E+03  0.15126941133E+03  0.18575032609E+03  0.00000000000E+00 0. -1.
         21    1    1    2  503  502  0.24551456918E+02 -0.11079471729E+02 -0.53398817169E+01  0.27459844634E+02  0.00000000000E+00 0. -1.
          1    1    1    2  501    0 -0.87120471071E+01  0.44667325662E+03 -0.41395670961E+03  0.60905915589E+03  0.00000000000E+00 0. -1.
<scales pt_clust_5="13000.00000" pt_clust_6="13000.00000" pt_clust_7="13000.00000" pt_clust_8="13000.00000" pt_clust_9="26.93564" pt_clust_10="436.89941"></scales>
<clustering>
<clus scale="   26.936">  2  9  1 -1</clus>
<clus scale="   82.827">  5  6 -1 -1</clus>
<clus scale="   90.927">  7  8 -1 -1</clus>
<clus scale="  159.105">  5  7 -1 -1</clus>
<clus scale="  436.899">  2 10  1 -1</clus>
<clus scale="   26.936">  2  5  1 -1</clus>
</clustering>
</event>
<event>
10    4  0.3738096E-005  0.1574068E+03  0.7546771E-02  0.1193194E+00
         -1   -1    0    0    0  501 -0.00000000000E+00  0.00000000000E+00  0.26783976506E+03  0.26783976506E+03  0.00000000000E+00 0.  1.
         21   -1    0    0  503  502  0.00000000000E+00 -0.00000000000E+00 -0.33466052697E+03  0.33466052697E+03  0.00000000000E+00 0. -1.
         23    2    1    2    0    0  0.46743163628E+02 -0.12690461661E+03  0.18645844756E+03  0.24794575128E+03  0.91764033539E+02 0.  0.
         24    2    1    2    0    0 -0.70487688159E+02  0.93395267251E+02 -0.22099805175E+03  0.26330726594E+03  0.82458397361E+02 0.  0.
        -13    1    4    4    0    0 -0.31390736388E+01  0.71768523809E+02 -0.99584619262E+02  0.12279116901E+03  0.00000000000E+00 0.  1.
         14    1    4    4    0    0 -0.67348614520E+02  0.21626743442E+02 -0.12141343248E+03  0.14051609693E+03  0.00000000000E+00 0. -1.
        -13    1    3    3    0    0  0.21308826952E+02 -0.10097689026E+03  0.66889290951E+02  0.12298201379E+03  0.00000000000E+00 0. -1.
         13    1    3    3    0    0  0.25434336676E+02 -0.25927726346E+02  0.11956915661E+03  0.12496373749E+03  0.00000000000E+00 0.  1.
         21    1    1    2  503  501  0.16165600844E+02  0.14242949595E+02  0.23420131112E+02  0.31822803225E+02  0.00000000000E+00 0. -1.
         -2    1    1    2    0  502  0.75789236868E+01  0.19266399760E+02 -0.55701288839E+02  0.59424471578E+02  0.00000000000E+00 0.  1.
<scales pt_clust_5="13000.00000" pt_clust_6="13000.00000" pt_clust_7="13000.00000" pt_clust_8="13000.00000" pt_clust_9="21.82483" pt_clust_10="20.70348"></scales>
<clustering>
<clus scale="   20.703">  2 10  1 -1</clus>
<clus scale="   21.825">  1  9  2 -1</clus>
<clus scale="   82.458">  5  6 -1 -1</clus>
<clus scale="   91.764">  7  8 -1 -1</clus>
<clus scale="  152.170">  2  5  1 -1</clus>
<clus scale="   20.703">  2  5  1 -1</clus>
</clustering>
</event>
<event>
10    4  0.3738096E-005  0.3261724E+03  0.7546771E-02  0.1112056E+00
         21   -1    0    0  501  502  0.00000000000E+00  0.00000000000E+00  0.56963132161E+03  0.56963132161E+03  0.00000000000E+00 0.  1.
          2   -1    0    0  503    0 -0.00000000000E+00 -0.00000000000E+00 -0.33135552567E+03  0.33135552567E+03  0.00000000000E+00 0. -1.
         23    2    1    2    0    0  0.42881618371E+02 -0.43595184469E+02 -0.41220306665E+02  0.11781368863E+03  0.91878061817E+02 0.  0.
         24    2    1    2    0    0  0.15464061897E+03 -0.22395076310E+03  0.10246440455E+03  0.30165411248E+03  0.80178451264E+02 0.  0.
        -11    1    4    4    0    0  0.13462312308E+03 -0.14661394630E+03  0.97426642815E+02  0.22160998454E+03  0.00000000000E+00 0.  1.
         12    1    4    4    0    0  0.20017495893E+02 -0.77336816802E+02  0.50377617363E+01  0.80044127943E+02  0.00000000000E+00 0. -1.
        -13    1    3    3    0    0  0.31247950892E+02  0.23170380463E+02 -0.81155747535E+00  0.38909633657E+02  0.00000000000E+00 0. -1.
         13    1    3    3    0    0  0.11633667479E+02 -0.66765564932E+02 -0.40408749190E+02  0.78904054970E+02  0.00000000000E+00 0.  1.
         21    1    1    2  503  502  0.45359147153E+02 -0.24909450676E+01 -0.38187013900E+02  0.59345640686E+02  0.00000000000E+00 0. -1.
          1    1    1    2  501    0 -0.24288138449E+03  0.27003689264E+03  0.21521871195E+03  0.42217340548E+03  0.00000000000E+00 0. -1.
<scales pt_clust_5="13000.00000" pt_clust_6="13000.00000" pt_clust_7="13000.00000" pt_clust_8="13000.00000" pt_clust_9="45.42749" pt_clust_10="316.16442"></scales>
<clustering>
<clus scale="   45.427">  2  9  1 -1</clus>
<clus scale="   80.178">  5  6 -1 -1</clus>
<clus scale="   91.878">  7  8 -1 -1</clus>
<clus scale="  116.190">  2  7  1 -1</clus>
<clus scale="  316.164">  1 10  2 -1</clus>
<clus scale="  316.164">  1  5  2 -1</clus>
</clustering>
</event>
<event>
10    4  0.3738096E-005  0.1324705E+03  0.7546771E-02  0.1226162E+00
          2   -1    0    0  503    0 -0.00000000000E+00  0.00000000000E+00  0.12498591154E+04  0.12498591154E+04  0.00000000000E+00 0. -1.
         21   -1    0    0  501  502  0.00000000000E+00 -0.00000000000E+00 -0.27922882677E+02  0.27922882677E+02  0.00000000000E+00 0.  1.
         24    2    1    2    0    0  0.88776544614E+02 -0.42647220118E+02  0.58680760597E+03  0.60053100546E+03  0.81205060409E+02 0.  0.
         23    2    1    2    0    0 -0.96320249388E+02  0.58790692385E+02  0.30774480400E+03  0.34008186273E+03  0.90635936665E+02 0.  0.
        -11    1    3    3    0    0  0.43835622856E+02  0.21666837268E+02  0.24532701861E+03  0.25015267284E+03  0.00000000000E+00 0.  1.
         12    1    3    3    0    0  0.44940921758E+02 -0.64314057386E+02  0.34148058737E+03  0.35037833263E+03  0.00000000000E+00 0. -1.
        -13    1    4    4    0    0 -0.19717780656E+02  0.25856835599E+02  0.15215327632E+02  0.35900877651E+02  0.00000000000E+00 0.  1.
         13    1    4    4    0    0 -0.76602468732E+02  0.32933856786E+02  0.29252947637E+03  0.30418098508E+03  0.00000000000E+00 0. -1.
         21    1    1    2  503  502 -0.34320542971E+02 -0.16981591813E+02  0.13820024112E+03  0.14340704577E+03  0.00000000000E+00 0.  1.
          1    1    1    2  501    0  0.41864247745E+02  0.83811954643E+00  0.18918358165E+03  0.19376208414E+03  0.00000000000E+00 0. -1.
<scales pt_clust_5="13000.00000" pt_clust_6="13000.00000" pt_clust_7="13000.00000" pt_clust_8="13000.00000" pt_clust_9="38.29196" pt_clust_10="35.99993"></scales>
<clustering>
<clus scale="   38.292">  1  9  2 -1</clus>
<clus scale="   36.000">  2 10  1 -1</clus>
<clus scale="   81.205">  5  6 -1 -1</clus>
<clus scale="   90.636">  7  8 -1 -1</clus>
<clus scale="  126.205">  1  5  2 -1</clus>
<clus scale="   36.000">  2  5  1 -1</clus>
</clustering>
</event>
<event>
10    4  0.3738096E-005  0.3884566E+03  0.7546771E-02  0.1047852E+00
          2   -1    0    0  503    0 -0.00000000000E+00  0.00000000000E+00  0.78347393091E+03  0.78347393091E+03  0.00000000000E+00 0. -1.
         21   -1    0    0  501  502  0.00000000000E+00 -0.00000000000E+00 -0.88541726030E+03  0.88541726030E+03  0.00000000000E+00 0. -1.
         24    2    1    2    0    0 -0.85460021047E+02  0.38992746390E+02  0.18553107088E+03  0.22348866029E+03  0.81863016956E+02 0.  0.
         23    2    1    2    0    0 -0.16501443248E+03  0.13746444232E+03  0.43646068686E+03  0.49508621511E+03  0.92120537318E+02 0.  0.
        -13    1    3    3    0    0 -0.87878512311E+02  0.53770887017E+01  0.15369968180E+03  0.17713028593E+03  0.00000000000E+00 0.  1.
         14    1    3    3    0    0  0.24184912641E+01  0.33615657688E+02  0.31831389081E+02  0.46358374353E+02  0.00000000000E+00 0. -1.
        -11    1    4    4    0    0 -0.74299329928E+02  0.10957403768E+03  0.19549200005E+03  0.23610163542E+03  0.00000000000E+00 0.  1.
         11    1    4    4    0    0 -0.90715102548E+02  0.27890404642E+02  0.24096868680E+03  0.25898457970E+03  0.00000000000E+00 0. -1.
         21    1    1    2  503  502 -0.52594594234E+01  0.49694743418E+02  0.70051047471E+02  0.86048699517E+02  0.00000000000E+00 0.  1.
          1    1    1    2  501    0  0.25573391295E+03 -0.22615193213E+03 -0.79398613460E+03  0.86426761629E+03  0.00000000000E+00 0. -1.
<scales pt_clust_5="13000.00000" pt_clust_6="13000.00000" pt_clust_7="13000.00000" pt_clust_8="13000.00000" pt_clust_9="49.97229" pt_clust_10="339.55415"></scales>
<clustering>
<clus scale="   49.972">  1  9  2 -1</clus>
<clus scale="   81.863">  5  6 -1 -1</clus>
<clus scale="   92.121">  7  8 -1 -1</clus>
<clus scale="   95.312">  5  7 -1 -1</clus>
<clus scale="  339.554">  2 10  1 -1</clus>
<clus scale="  339.554">  2  5  1 -1</clus>
</clustering>
</event>
<event>
10    4  0.3738096E-005  0.1614118E+03  0.7546771E-02  0.1197086E+00
         21   -1    0    0  501  502  0.00000000000E+00  0.00000000000E+00  0.43014258906E+03  0.43014258906E+03  0.00000000000E+00 0. -1.
          2   -1    0    0  503    0 -0.00000000000E+00 -0.00000000000E+00 -0.46971579673E+03  0.46971579673E+03  0.00000000000E+00 0. -1.
         23    2    1    2    0    0 -0.21239725432E+02 -0.87824184480E+02 -0.30830913514E+03  0.33422685916E+03  0.92134994772E+02 0.  0.
         24    2    1    2    0    0  0.18670522968E+02 -0.10146979730E+03  0.26501200460E+03  0.29678643056E+03  0.84888836698E+02 0.  0.
        -11    1    4    4    0    0  0.38112825611E+02 -0.48469702384E+02  0.67760774911E+02  0.91615621713E+02  0.00000000000E+00 0.  1.
         12    1    4    4    0    0 -0.19442302642E+02 -0.53000094912E+02  0.19725122969E+03  0.20517080885E+03  0.00000000000E+00 0. -1.
        -11    1    3    3    0    0 -0.56289954816E+02 -0.64332981331E+02 -0.22819390218E+03  0.24367960213E+03  0.00000000000E+00 0. -1.
         11    1    3    3    0    0  0.35050229385E+02 -0.23491203149E+02 -0.80115232952E+02  0.90547257034E+02  0.00000000000E+00 0.  1.
         21    1    1    2  503  502 -0.82026218303E+01  0.21554065460E+03 -0.37368857023E+02  0.21890977197E+03  0.00000000000E+00 0. -1.
          1    1    1    2  501    0  0.10771824294E+02 -0.26246672821E+02  0.41092779892E+02  0.49935324091E+02  0.00000000000E+00 0. -1.
<scales pt_clust_5="13000.00000" pt_clust_6="13000.00000" pt_clust_7="13000.00000" pt_clust_8="13000.00000" pt_clust_9="137.28676" pt_clust_10="28.37111"></scales>
<clustering>
<clus scale="   28.371">  1 10  2 -1</clus>
<clus scale="   84.889">  5  6 -1 -1</clus>
<clus scale="   92.135">  7  8 -1 -1</clus>
<clus scale="  129.591">  2  7  1 -1</clus>
<clus scale="  137.287">  2  9  1 -1</clus>
<clus scale="   28.371">  1  5  2 -1</clus>
</clustering>
</event>
<event>
10    4  0.3738096E-005  0.9263425E+02  0.7546771E-02  0.1300791E+00
         -1   -1    0    0    0  501 -0.00000000000E+00  0.00000000000E+00  0.43195145482E+03  0.43195145482E+03  0.00000000000E+00 0.  1.
         21   -1    0    0  503  502  0.00000000000E+00 -0.00000000000E+00 -0.32134899286E+02  0.32134899286E+02  0.00000000000E+00 0.  1.
         24    2    1    2    0    0  0.34715124866E+02 -0.30067787200E+00  0.19888095764E+03  0.21765421631E+03  0.81329528841E+02 0.  0.
         23    2    1    2    0    0 -0.19247817818E+02  0.14487189052E+01  0.11038295042E+03  0.14284171519E+03  0.88582066909E+02 0.  0.
        -13    1    3    3    0    0  0.95745050460E+01  0.28547761419E+02  0.16106455953E+03  0.16385493025E+03  0.00000000000E+00 0.  1.
         14    1    3    3    0    0  0.25140619819E+02 -0.28848439291E+02  0.37816398109E+02  0.53799286058E+02  0.00000000000E+00 0. -1.
        -11    1    4    4    0    0 -0.18062334084E+02  0.44207075719E+02  0.62053535569E+02  0.78301690485E+02  0.00000000000E+00 0.  1.
         11    1    4    4    0    0 -0.11854837343E+01 -0.42758356814E+02  0.48329414855E+02  0.64540024709E+02  0.00000000000E+00 0. -1.
         21    1    1    2  503  501 -0.91924139082E+01  0.19449107399E+02  0.72076125212E+02  0.75217923912E+02  0.00000000000E+00 0.  1.
         -2    1    1    2    0  502 -0.62748931390E+01 -0.20597148433E+02  0.18476522251E+02  0.28372498691E+02  0.00000000000E+00 0.  1.
<scales pt_clust_5="13000.00000" pt_clust_6="13000.00000" pt_clust_7="13000.00000" pt_clust_8="13000.00000" pt_clust_9="21.51205" pt_clust_10="20.51238"></scales>
<clustering>
<clus scale="   21.512">  1  9  2 -1</clus>
<clus scale="   20.512">  2 10  1 -1</clus>
<clus scale="   81.330">  5  6 -1 -1</clus>
<clus scale="   85.725">  1  5  2 -1</clus>
<clus scale="   88.582">  7  8 -1 -1</clus>
<clus scale="   20.512">  2  5  1 -1</clus>
</clustering>
</event>
<event>
10    4  0.3738096E-005  0.3938682E+03  0.7546771E-02  0.1070957E+00
          2   -1    0    0  503    0 -0.00000000000E+00  0.00000000000E+00  0.17087032886E+04  0.17087032886E+04  0.00000000000E+00 0. -1.
         21   -1    0    0  501  502  0.00000000000E+00 -0.00000000000E+00 -0.17838168893E+03  0.17838168893E+03  0.00000000000E+00 0. -1.
         23    2    1    2    0    0  0.36174214841E+02 -0.15914864475E+03  0.30616459667E+03  0.35845066018E+03  0.90073584275E+02 0.  0.
         24    2    1    2    0    0  0.11458838751E+03  0.49480759611E+03  0.65512159297E+03  0.83291027584E+03  0.81179863922E+02 0.  0.
        -13    1    4    4    0    0  0.80662168573E+01  0.16280720467E+03  0.24947015546E+03  0.29800437616E+03  0.00000000000E+00 0.  1.
         14    1    4    4    0    0  0.10652217066E+03  0.33200039144E+03  0.40565143751E+03  0.53490589968E+03  0.00000000000E+00 0. -1.
        -11    1    3    3    0    0  0.26506075184E+01 -0.95762411526E+02  0.24885374839E+03  0.26665643302E+03  0.00000000000E+00 0. -1.
         11    1    3    3    0    0  0.33523607323E+02 -0.63386233221E+02  0.57310848286E+02  0.91794227167E+02  0.00000000000E+00 0.  1.
         21    1    1    2  503  502 -0.12095738136E+02 -0.47722885622E+02  0.20716422504E+03  0.21293378508E+03  0.00000000000E+00 0. -1.
          1    1    1    2  501    0 -0.13866686422E+03 -0.28793606574E+03  0.36187118503E+03  0.48279025647E+03  0.00000000000E+00 0. -1.
<scales pt_clust_5="13000.00000" pt_clust_6="13000.00000" pt_clust_7="13000.00000" pt_clust_8="13000.00000" pt_clust_9="49.23191" pt_clust_10="385.41150"></scales>
<clustering>
<clus scale="   49.232">  1  9  2 -1</clus>
<clus scale="   81.180">  5  6 -1 -1</clus>
<clus scale="   90.074">  7  8 -1 -1</clus>
<clus scale="  195.047">  1  7  2 -1</clus>
<clus scale="  385.411">  2 10  1 -1</clus>
<clus scale="  385.411">  2  5  1 -1</clus>
</clustering>
</event>
<event>
10    4  0.3738096E-005  0.1043868E+03  0.7546771E-02  0.1277652E+00
          2   -1    0    0  503    0 -0.00000000000E+00  0.00000000000E+00  0.34483530712E+03  0.34483530712E+03  0.00000000000E+00 0. -1.
         21   -1    0    0  501  502  0.00000000000E+00 -0.00000000000E+00 -0.10650831361E+03  0.10650831361E+03  0.00000000000E+00 0. -1.
         24    2    1    2    0    0 -0.19890368534E+02 -0.41889776899E+01  0.94113752492E+02  0.12459847298E+03  0.79083542949E+02 0.  0.
         23    2    1    2    0    0  0.41383554537E+02  0.57308181068E+02  0.40522902670E+02  0.12345473749E+03  0.92747724310E+02 0.  0.
        -11    1    3    3    0    0 -0.15655858778E+00 -0.39955607572E+02  0.37588949272E+02  0.54858036735E+02  0.00000000000E+00 0.  1.
         12    1    3    3    0    0 -0.19733809946E+02  0.35766629882E+02  0.56524803221E+02  0.69740436242E+02  0.00000000000E+00 0. -1.
        -13    1    4    4    0    0  0.31101367534E+02  0.51785069064E+01  0.59250179845E+02  0.67117030684E+02  0.00000000000E+00 0.  1.
         13    1    4    4    0    0  0.10282187003E+02  0.52129674162E+02 -0.18727277175E+02  0.56337706806E+02  0.00000000000E+00 0. -1.
         21    1    1    2  503  502 -0.78355075218E+02 -0.10808680803E+02  0.10614106867E+03  0.13237171847E+03  0.00000000000E+00 0. -1.
          1    1    1    2  501    0  0.56861889215E+02 -0.42310522575E+02 -0.24507303263E+01  0.70918691787E+02  0.00000000000E+00 0. -1.
<scales pt_clust_5="13000.00000" pt_clust_6="13000.00000" pt_clust_7="13000.00000" pt_clust_8="13000.00000" pt_clust_9="70.22547" pt_clust_10="70.87633"></scales>
<clustering>
<clus scale="   70.876">  2 10  1 -1</clus>
<clus scale="   70.225">  1  9  2 -1</clus>
<clus scale="   79.084">  5  6 -1 -1</clus>
<clus scale="   92.459">  1  5  2 -1</clus>
<clus scale="   92.748">  7  8 -1 -1</clus>
<clus scale="   70.876">  2  5  1 -1</clus>
</clustering>
</event>
<event>
10    4  0.3738096E-005  0.2710622E+03  0.7546771E-02  0.1143708E+00
         21   -1    0    0  503  502  0.00000000000E+00  0.00000000000E+00  0.42551866259E+03  0.42551866259E+03  0.00000000000E+00 0.  1.
         -1   -1    0    0    0  501 -0.00000000000E+00 -0.00000000000E+00 -0.44279915976E+03  0.44279915976E+03  0.00000000000E+00 0.  1.
         24    2    1    2    0    0  0.32231114630E+02  0.24529592005E+01 -0.21351060491E+01  0.94623677060E+02  0.88905679365E+02 0.  0.
         23    2    1    2    0    0 -0.21516330060E+03 -0.14977017731E+03 -0.89264477117E+01  0.27759987133E+03  0.90860635904E+02 0.  0.
        -13    1    3    3    0    0  0.25040626547E+02 -0.39039156546E+02  0.15596836412E+02  0.48932096091E+02  0.00000000000E+00 0.  1.
         14    1    3    3    0    0  0.71904880830E+01  0.41492115747E+02 -0.17731942462E+02  0.45691580970E+02  0.00000000000E+00 0. -1.
        -11    1    4    4    0    0 -0.17250862038E+03 -0.79929229461E+02  0.19134145162E+02  0.19108642374E+03  0.00000000000E+00 0.  1.
         11    1    4    4    0    0 -0.42654680221E+02 -0.69840947845E+02 -0.28060592874E+02  0.86513447586E+02  0.00000000000E+00 0. -1.
         21    1    1    2  503  501 -0.34465957591E+02  0.18884468298E+02 -0.18344297305E+03  0.18760556958E+03  0.00000000000E+00 0.  1.
         -2    1    1    2    0  502  0.21739814356E+03  0.12843274981E+03  0.17722402964E+03  0.30848870438E+03  0.00000000000E+00 0.  1.
<scales pt_clust_5="13000.00000" pt_clust_6="13000.00000" pt_clust_7="13000.00000" pt_clust_8="13000.00000" pt_clust_9="39.30045" pt_clust_10="255.38026"></scales>
<clustering>
<clus scale="   39.300">  2  9  1 -1</clus>
<clus scale="   88.906">  5  6 -1 -1</clus>
<clus scale="   90.861">  7  8 -1 -1</clus>
<clus scale="   92.754">  2  5  1 -1</clus>
<clus scale="  255.380">  1 10  2 -1</clus>
<clus scale="  255.380">  1  5  2 -1</clus>
</clustering>
</event>
<event>
10    4  0.3738096E-005  0.9988533E+02  0.7546771E-02  0.1285696E+00
          2   -1    0    0  503    0 -0.00000000000E+00  0.00000000000E+00  0.71520956216E+03  0.71520956216E+03  0.00000000000E+00 0. -1.
         21   -1    0    0  501  502  0.00000000000E+00 -0.00000000000E+00 -0.55183169954E+02  0.55183169954E+02  0.00000000000E+00 0.  1.
         23    2    1    2    0    0  0.26675095679E+02  0.38212785315E+02  0.42229515763E+03  0.43473856318E+03  0.92155523288E+02 0.  0.
         24    2    1    2    0    0  0.93151360665E+01  0.58372880372E+01  0.69496055987E+02  0.10803915889E+03  0.81987269524E+02 0.  0.
        -13    1    4    4    0    0  0.39013239313E+02 -0.17814977242E+02  0.25377811484E+02  0.49834120556E+02  0.00000000000E+00 0.  1.
         14    1    4    4    0    0 -0.29698103247E+02  0.23652265279E+02  0.44118244503E+02  0.58205038333E+02  0.00000000000E+00 0. -1.
        -13    1    3    3    0    0  0.58924996870E+02  0.11839525929E+02  0.21191962667E+03  0.22027768339E+03  0.00000000000E+00 0.  1.
         13    1    3    3    0    0 -0.32249901192E+02  0.26373259387E+02  0.21037553096E+03  0.21446087980E+03  0.00000000000E+00 0. -1.
         21    1    1    2  503  502 -0.12189078394E+02  0.23148549485E+02  0.15234675341E+03  0.15457671963E+03  0.00000000000E+00 0. -1.
          1    1    1    2  501    0 -0.23801153351E+02 -0.67198622838E+02  0.15888425181E+02  0.73038290416E+02  0.00000000000E+00 0. -1.
<scales pt_clust_5="13000.00000" pt_clust_6="13000.00000" pt_clust_7="13000.00000" pt_clust_8="13000.00000" pt_clust_9="26.16159" pt_clust_10="69.90075"></scales>
<clustering>
<clus scale="   26.162">  1  9  2 -1</clus>
<clus scale="   69.901">  2 10  1 -1</clus>
<clus scale="   81.987">  5  6 -1 -1</clus>
<clus scale="   90.589">  2  5  1 -1</clus>
<clus scale="   92.156">  7  8 -1 -1</clus>
<clus scale="   69.901">  2  5  1 -1</clus>
</clustering>
</event>
<event>
10    4  0.3738096E-005  0.1986400E+03  0.7546771E-02  0.1166871E+00
         -1   -1    0    0    0  501 -0.00000000000E+00  0.00000000000E+00  0.14897812504E+04  0.14897812504E+04  0.00000000000E+00 0.  1.
         21   -1    0    0  503  502  0.00000000000E+00 -0.00000000000E+00 -0.24318366084E+03  0.24318366084E+03  0.00000000000E+00 0. -1.
         23    2    1    2    0    0 -0.98465194103E+02 -0.35272559458E+02 -0.10143996655E+02  0.13720970425E+03  0.88227288128E+02 0.  0.
         24    2    1    2    0    0 -0.58821170486E+02 -0.26413502193E+03  0.22508276829E+03  0.36112251681E+03  0.80746390969E+02 0.  0.
        -11    1    4    4    0    0 -0.44722553835E+02 -0.83777998262E+02  0.11583082354E+03  0.14978531135E+03  0.00000000000E+00 0.  1.
         12    1    4    4    0    0 -0.14098616651E+02 -0.18035702367E+03  0.10925194476E+03  0.21133720546E+03  0.00000000000E+00 0. -1.
        -11    1    3    3    0    0 -0.95832670633E+02 -0.84084927528E+01 -0.33140516465E+02  0.10174918841E+03  0.00000000000E+00 0. -1.
         11    1    3    3    0    0 -0.26325234701E+01 -0.26864066706E+02  0.22996519810E+02  0.35460515833E+02  0.00000000000E+00 0.  1.
         21    1    1    2  503  501  0.16347056687E+03  0.13827889270E+03  0.10506736779E+04  0.10722680895E+04  0.00000000000E+00 0.  1.
         -2    1    1    2    0  502 -0.61842022796E+01  0.16112868869E+03 -0.19014859898E+02  0.16236460074E+03  0.00000000000E+00 0.  1.
<scales pt_clust_5="13000.00000" pt_clust_6="13000.00000" pt_clust_7="13000.00000" pt_clust_8="13000.00000" pt_clust_9="143.82010" pt_clust_10="181.48796"></scales>
<clustering>
<clus scale="   80.746">  5  6 -1 -1</clus>
<clus scale="   88.227">  7  8 -1 -1</clus>
<clus scale="  136.834">  1  7  2 -1</clus>
<clus scale="  143.820">  1  9  2 -1</clus>
<clus scale="  181.488">  2 10  1 -1</clus>
<clus scale="  181.488">  2  5  1 -1</clus>
</clustering>
</event>
<event>
10    4  0.3738096E-005  0.1161823E+03  0.7546771E-02  0.1253304E+00
         21   -1    0    0  503  502  0.00000000000E+00  0.00000000000E+00  0.47500929363E+02  0.47500929363E+02  0.00000000000E+00 0.  1.
         -3   -1    0    0    0  501 -0.00000000000E+00 -0.00000000000E+00 -0.97372436741E+03  0.97372436741E+03  0.00000000000E+00 0.  1.
         23    2    1    2    0    0 -0.79613917200E+02  0.18372644820E+02 -0.53733125597E+03  0.55106309807E+03  0.90938053204E+02 0.  0.
         24    2    1    2    0    0  0.66782686996E+02  0.70213682593E+02 -0.12191566964E+03  0.17503743445E+03  0.79904846212E+02 0.  0.
        -13    1    4    4    0    0 -0.52017240893E+01  0.48649328371E+02 -0.35087573957E+02  0.60207582003E+02  0.00000000000E+00 0.  1.
         14    1    4    4    0    0  0.71984411086E+02  0.21564354222E+02 -0.86828095684E+02  0.11482985244E+03  0.00000000000E+00 0. -1.
        -11    1    3    3    0    0 -0.31907763919E+02 -0.37156623928E+02 -0.20644154494E+03  0.21217170306E+03  0.00000000000E+00 0. -1.
         11    1    3    3    0    0 -0.47706153281E+02  0.55529268747E+02 -0.33088971103E+03  0.33889139501E+03  0.00000000000E+00 0.  1.
         21    1    1    2  503  501  0.31832569207E+02 -0.65852687392E+02 -0.25104714735E+03  0.26148529422E+03  0.00000000000E+00 0.  1.
         -4    1    1    2    0  502 -0.19001339003E+02 -0.22733640021E+02 -0.15929365083E+02  0.33639470038E+02  0.00000000000E+00 0.  1.
<scales pt_clust_5="13000.00000" pt_clust_6="13000.00000" pt_clust_7="13000.00000" pt_clust_8="13000.00000" pt_clust_9="74.87912" pt_clust_10="29.62886"></scales>
<clustering>
<clus scale="   29.629">  1 10  2 -1</clus>
<clus scale="   74.879">  2  9  1 -1</clus>
<clus scale="   79.905">  5  6 -1 -1</clus>
<clus scale="   90.938">  7  8 -1 -1</clus>
<clus scale="  107.765">  1  5  2 -1</clus>
<clus scale="   29.629">  1  5  2 -1</clus>
</clustering>
</event>
<event>
10    4  0.3738096E-005  0.1592636E+03  0.7546771E-02  0.1213294E+00
         21   -1    0    0  503  502  0.00000000000E+00  0.00000000000E+00  0.10658788438E+04  0.10658788438E+04  0.00000000000E+00 0.  1.
         -3   -1    0    0    0  501 -0.00000000000E+00 -0.00000000000E+00 -0.85246748041E+02  0.85246748041E+02  0.00000000000E+00 0.  1.
         23    2    1    2    0    0  0.25761525202E+02 -0.23328158370E+02  0.81569429642E+01  0.94952166919E+02  0.87985903021E+02 0.  0.
         24    2    1    2    0    0 -0.15404490872E+03  0.45009336070E+02  0.82760674364E+03  0.84709244348E+03  0.82927748377E+02 0.  0.
        -13    1    4    4    0    0 -0.54934698875E+02  0.46218844589E+02  0.21898748819E+03  0.23045503405E+03  0.00000000000E+00 0.  1.
         14    1    4    4    0    0 -0.99110209846E+02 -0.12095085185E+01  0.60861925545E+03  0.61663740943E+03  0.00000000000E+00 0. -1.
        -11    1    3    3    0    0  0.50905084257E+02 -0.17854236940E+02  0.29531963275E+02  0.61499904348E+02  0.00000000000E+00 0. -1.
         11    1    3    3    0    0 -0.25143559055E+02 -0.54739214300E+01 -0.21375020311E+02  0.33452262570E+02  0.00000000000E+00 0.  1.
         21    1    1    2  503  501  0.11513665390E+03  0.77821700918E+01  0.93976980818E+02  0.14882433997E+03  0.00000000000E+00 0.  1.
         -4    1    1    2    0  502  0.13146729618E+02 -0.29463347792E+02  0.50891428297E+02  0.60256641434E+02  0.00000000000E+00 0.  1.
<scales pt_clust_5="13000.00000" pt_clust_6="13000.00000" pt_clust_7="13000.00000" pt_clust_8="13000.00000" pt_clust_9="135.97021" pt_clust_10="32.26339"></scales>
<clustering>
<clus scale="   32.263">  1 10  2 -1</clus>
<clus scale="   82.928">  5  6 -1 -1</clus>
<clus scale="   87.986">  7  8 -1 -1</clus>
<clus scale="   95.167">  2  7  1 -1</clus>
<clus scale="  135.970">  2  9  1 -1</clus>
<clus scale="   32.263">  1  5  2 -1</clus>
</clustering>
</event>
<event>
10    4  0.3738096E-005  0.1124547E+03  0.7546771E-02  0.1259224E+00
          2   -1    0    0  503    0 -0.00000000000E+00  0.00000000000E+00  0.74465732625E+03  0.74465732625E+03  0.00000000000E+00 0. -1.
         21   -1    0    0  501  502  0.00000000000E+00 -0.00000000000E+00 -0.32697511188E+02  0.32697511188E+02  0.00000000000E+00 0. -1.
         24    2    1    2    0    0  0.26575219043E+02  0.35462693791E+02  0.39952299191E+03  0.41019885947E+03  0.81735171872E+02 0.  0.
         23    2    1    2    0    0 -0.19102187640E+02 -0.64626765000E+02  0.13577612165E+03  0.17643165371E+03  0.90285441218E+02 0.  0.
        -13    1    3    3    0    0  0.33745020296E+01  0.31101810945E+02  0.44524797039E+02  0.54416610143E+02  0.00000000000E+00 0.  1.
         14    1    3    3    0    0  0.23200717013E+02  0.43608828460E+01  0.35499819487E+03  0.35578224932E+03  0.00000000000E+00 0. -1.
        -11    1    4    4    0    0 -0.45963273549E+01 -0.20092183543E+02 -0.10291958048E+02  0.23037935349E+02  0.00000000000E+00 0. -1.
         11    1    4    4    0    0 -0.14505860285E+02 -0.44534581456E+02  0.14606807969E+03  0.15339371837E+03  0.00000000000E+00 0.  1.
         21    1    1    2  503  502  0.11006427828E+02  0.44924576404E+02  0.13226747559E+03  0.14012153339E+03  0.00000000000E+00 0. -1.
          1    1    1    2  501    0 -0.18479459230E+02 -0.15760505196E+02  0.44393225908E+02  0.50602790872E+02  0.00000000000E+00 0. -1.
<scales pt_clust_5="13000.00000" pt_clust_6="13000.00000" pt_clust_7="13000.00000" pt_clust_8="13000.00000" pt_clust_9="43.67894" pt_clust_10="24.28753"></scales>
<clustering>
<clus scale="   24.288">  2 10  1 -1</clus>
<clus scale="   43.679">  1  9  2 -1</clus>
<clus scale="   81.735">  5  6 -1 -1</clus>
<clus scale="   90.285">  7  8 -1 -1</clus>
<clus scale="  105.713">  1  5  2 -1</clus>
<clus scale="   24.288">  2  5  1 -1</clus>
</clustering>
</event>
<event>
10    4  0.3738096E-005  0.2079281E+03  0.7546771E-02  0.1145853E+00
         21   -1    0    0  503  502  0.00000000000E+00  0.00000000000E+00  0.55335648132E+03  0.55335648132E+03  0.00000000000E+00 0.  1.
         -1   -1    0    0    0  501 -0.00000000000E+00 -0.00000000000E+00 -0.25896224225E+03  0.25896224225E+03  0.00000000000E+00 0.  1.
         24    2    1    2    0    0 -0.44763574051E+02 -0.18840638584E+03  0.61062797296E+02  0.21799189771E+03  0.79316192968E+02 0.  0.
         23    2    1    2    0    0 -0.14338263363E+03  0.16459740242E+03  0.18850228507E+01  0.23325222760E+03  0.82171551408E+02 0.  0.
        -13    1    3    3    0    0 -0.43170231194E+02 -0.85315480313E+02  0.63636692779E+02  0.11485655711E+03  0.00000000000E+00 0.  1.
         14    1    3    3    0    0 -0.15933428563E+01 -0.10309090552E+03 -0.25738954832E+01  0.10313534060E+03  0.00000000000E+00 0. -1.
        -13    1    4    4    0    0 -0.11321086752E+03  0.91161115999E+02 -0.28725388239E+02  0.14816274000E+03  0.00000000000E+00 0.  1.
         13    1    4    4    0    0 -0.30171766107E+02  0.73436286417E+02  0.30610411090E+02  0.85089487599E+02  0.00000000000E+00 0. -1.
         21    1    1    2  503  501 -0.16611289753E+02  0.61527543033E+02  0.26802449543E+02  0.69137144868E+02  0.00000000000E+00 0. -1.
         -2    1    1    2    0  502  0.20475749743E+03 -0.37718559614E+02  0.20464396937E+03  0.29193745340E+03  0.00000000000E+00 0.  1.
<scales pt_clust_5="13000.00000" pt_clust_6="13000.00000" pt_clust_7="13000.00000" pt_clust_8="13000.00000" pt_clust_9="63.73048" pt_clust_10="191.00244"></scales>
<clustering>
<clus scale="   63.730">  1  9  2 -1</clus>
<clus scale="   79.316">  5  6 -1 -1</clus>
<clus scale="   82.172">  7  8 -1 -1</clus>
<clus scale="  195.221">  2  5  1 -1</clus>
<clus scale="  191.002">  1 10  2 -1</clus>
<clus scale="   63.730">  1  5  2 -1</clus>
</clustering>
</event>
<event>
10    4  0.3738096E-005  0.2214801E+03  0.7546771E-02  0.1162827E+00
          2   -1    0    0  503    0 -0.00000000000E+00  0.00000000000E+00  0.28910344919E+03  0.28910344919E+03  0.00000000000E+00 0. -1.
         21   -1    0    0  501  502  0.00000000000E+00 -0.00000000000E+00 -0.60129198169E+03  0.60129198169E+03  0.00000000000E+00 0. -1.
         24    2    1    2    0    0 -0.65471432960E+02 -0.57234471285E+02  0.54859915816E+02  0.13044153254E+03  0.80268859527E+02 0.  0.
         23    2    1    2    0    0  0.10432606230E+03  0.20919161848E+03 -0.12339106173E+03  0.28008027609E+03  0.92598846761E+02 0.  0.
        -11    1    3    3    0    0 -0.47794923119E+02 -0.58671192985E+02  0.31116789538E+01  0.75738669834E+02  0.00000000000E+00 0.  1.
         12    1    3    3    0    0 -0.17676509840E+02  0.14367217006E+01  0.51748236862E+02  0.54702862702E+02  0.00000000000E+00 0. -1.
        -11    1    4    4    0    0  0.13657784404E+02  0.12325240092E+03 -0.41761266682E+02  0.13084988652E+03  0.00000000000E+00 0.  1.
         11    1    4    4    0    0  0.90668277900E+02  0.85939217568E+02 -0.81629795051E+02  0.14923038958E+03  0.00000000000E+00 0. -1.
         21    1    1    2  503  502  0.12545031718E+02  0.32567943231E+02  0.89228170547E+02  0.95810830110E+02  0.00000000000E+00 0. -1.
          1    1    1    2  501    0 -0.51399661062E+02 -0.18452509043E+03 -0.33288555714E+03  0.38406279214E+03  0.00000000000E+00 0. -1.
<scales pt_clust_5="13000.00000" pt_clust_6="13000.00000" pt_clust_7="13000.00000" pt_clust_8="13000.00000" pt_clust_9="34.90056" pt_clust_10="201.19363"></scales>
<clustering>
<clus scale="   34.901">  1  9  2 -1</clus>
<clus scale="   80.269">  5  6 -1 -1</clus>
<clus scale="   92.599">  7  8 -1 -1</clus>
<clus scale="  108.373">  1  5  2 -1</clus>
<clus scale="  201.194">  2 10  1 -1</clus>
<clus scale="  201.194">  2  5  1 -1</clus>
</clustering>
</event>
<event>
10    4  0.3738096E-005  0.2037472E+03  0.7546771E-02  0.1172415E+00
         21   -1    0    0  501  502  0.00000000000E+00  0.00000000000E+00  0.40588965598E+03  0.40588965598E+03  0.00000000000E+00 0. -1.
          4   -1    0    0  503    0 -0.00000000000E+00 -0.00000000000E+00 -0.26064143982E+03  0.26064143982E+03  0.00000000000E+00 0. -1.
         24    2    1    2    0    0  0.78194940843E+02  0.18101954950E+01  0.13682888232E+03  0.17689428982E+03  0.80322606752E+02 0.  0.
         23    2    1    2    0    0 -0.39334108519E+02 -0.19167972096E+03  0.10212354872E+03  0.23882435869E+03  0.91211663616E+02 0.  0.
        -11    1    3    3    0    0  0.36106005017E+02 -0.99341535556E+01  0.12659170815E+03  0.13201436125E+03  0.00000000000E+00 0.  1.
         12    1    3    3    0    0  0.42088935826E+02  0.11744349051E+02  0.10237174168E+02  0.44879928571E+02  0.00000000000E+00 0. -1.
        -11    1    4    4    0    0  0.27443842788E+02 -0.74328021782E+02  0.23797870791E+02  0.82729426344E+02  0.00000000000E+00 0.  1.
         11    1    4    4    0    0 -0.66777951307E+02 -0.11735169917E+03  0.78325677928E+02  0.15609493234E+03  0.00000000000E+00 0. -1.
         21    1    1    2  503  502 -0.64338672404E+01  0.21525481742E+02 -0.75075060881E+02  0.78364569661E+02  0.00000000000E+00 0. -1.
          3    1    1    2  501    0 -0.32426965084E+02  0.16834404372E+03 -0.18629154000E+02  0.17244787763E+03  0.00000000000E+00 0. -1.
<scales pt_clust_5="13000.00000" pt_clust_6="13000.00000" pt_clust_7="13000.00000" pt_clust_8="13000.00000" pt_clust_9="22.46644" pt_clust_10="182.19055"></scales>
<clustering>
<clus scale="   22.466">  2  9  1 -1</clus>
<clus scale="   80.323">  5  6 -1 -1</clus>
<clus scale="   91.212">  7  8 -1 -1</clus>
<clus scale="  111.689">  2  5  1 -1</clus>
<clus scale="  182.191">  1 10  2 -1</clus>
<clus scale="  182.191">  1  5  2 -1</clus>
</clustering>
</event>
<event>
10    4  0.3738096E-005  0.1325316E+03  0.7546771E-02  0.1246164E+00
          2   -1    0    0  503    0 -0.00000000000E+00  0.00000000000E+00  0.11118691001E+04  0.11118691001E+04  0.00000000000E+00 0. -1.
         21   -1    0    0  501  502  0.00000000000E+00 -0.00000000000E+00 -0.53048416450E+02  0.53048416450E+02  0.00000000000E+00 0. -1.
         23    2    1    2    0    0  0.63458816668E+02 -0.36830835874E+02  0.22182725050E+03  0.25126107247E+03  0.92418967700E+02 0.  0.
         24    2    1    2    0    0 -0.30862664693E+00  0.18637046394E+02  0.11348141852E+03  0.14137217297E+03  0.82223014991E+02 0.  0.
        -13    1    4    4    0    0 -0.27363416769E+02 -0.21758309354E+02  0.56794886231E+02  0.66692126260E+02  0.00000000000E+00 0.  1.
         14    1    4    4    0    0  0.27054790122E+02  0.40395355748E+02  0.56686532285E+02  0.74680046713E+02  0.00000000000E+00 0. -1.
        -11    1    3    3    0    0 -0.22431665463E+02 -0.42755657735E+01  0.23882229497E+02  0.33042714233E+02  0.00000000000E+00 0.  1.
         11    1    3    3    0    0  0.85890482131E+02 -0.32555270101E+02  0.19794502100E+03  0.21821835824E+03  0.00000000000E+00 0. -1.
         21    1    1    2  503  502 -0.92474143702E+02  0.38437395220E+02  0.72933546208E+03  0.73617872616E+03  0.00000000000E+00 0. -1.
          1    1    1    2  501    0  0.29323953681E+02 -0.20243605740E+02 -0.58234474789E+01  0.36105544911E+02  0.00000000000E+00 0. -1.
<scales pt_clust_5="13000.00000" pt_clust_6="13000.00000" pt_clust_7="13000.00000" pt_clust_8="13000.00000" pt_clust_9="94.99134" pt_clust_10="35.63282"></scales>
<clustering>
<clus scale="   35.633">  2 10  1 -1</clus>
<clus scale="   82.223">  5  6 -1 -1</clus>
<clus scale="   83.738">  2  5  1 -1</clus>
<clus scale="   92.419">  7  8 -1 -1</clus>
<clus scale="   94.991">  1  9  2 -1</clus>
<clus scale="   35.633">  2  5  1 -1</clus>
</clustering>
</event>
<event>
10    4  0.3738096E-005  0.1147995E+03  0.7546771E-02  0.1254295E+00
         21   -1    0    0  501  502  0.00000000000E+00  0.00000000000E+00  0.15622775956E+03  0.15622775956E+03  0.00000000000E+00 0. -1.
          2   -1    0    0  503    0 -0.00000000000E+00 -0.00000000000E+00 -0.41031949511E+03  0.41031949511E+03  0.00000000000E+00 0. -1.
         23    2    1    2    0    0 -0.52838647992E+02 -0.12864766862E+02 -0.24147913054E+03  0.26411261459E+03  0.92118824078E+02 0.  0.
         24    2    1    2    0    0 -0.12482045300E+02  0.10339457600E+03 -0.19555515813E+02  0.13613458085E+03  0.85463244157E+02 0.  0.
        -13    1    4    4    0    0  0.29795139275E+02  0.18200311625E+02  0.10384600778E+02  0.36425836998E+02  0.00000000000E+00 0.  1.
         14    1    4    4    0    0 -0.42277184575E+02  0.85194264377E+02 -0.29940116591E+02  0.99708743848E+02  0.00000000000E+00 0. -1.
        -11    1    3    3    0    0 -0.26993087716E+02 -0.47298618181E+02 -0.78487920500E+02  0.95530831309E+02  0.00000000000E+00 0.  1.
         11    1    3    3    0    0 -0.25845560276E+02  0.34433851319E+02 -0.16299121004E+03  0.16858178328E+03  0.00000000000E+00 0. -1.
         21    1    1    2  503  502 -0.35655857235E+01 -0.44040212103E+02 -0.49107523146E+02  0.66059083502E+02  0.00000000000E+00 0. -1.
          1    1    1    2  501    0  0.68886279016E+02 -0.46489597037E+02  0.56050433950E+02  0.10024097573E+03  0.00000000000E+00 0. -1.
<scales pt_clust_5="13000.00000" pt_clust_6="13000.00000" pt_clust_7="13000.00000" pt_clust_8="13000.00000" pt_clust_9="44.18431" pt_clust_10="84.49846"></scales>
<clustering>
<clus scale="   44.184">  2  9  1 -1</clus>
<clus scale="   84.498">  1 10  2 -1</clus>
<clus scale="   85.463">  5  6 -1 -1</clus>
<clus scale="   92.119">  7  8 -1 -1</clus>
<clus scale="  109.531">  1  5  2 -1</clus>
<clus scale="   84.498">  1  5  2 -1</clus>
</clustering>
</event>
<event>
10    4  0.3738096E-005  0.1010475E+03  0.7546771E-02  0.1280764E+00
          4   -1    0    0  503    0 -0.00000000000E+00  0.00000000000E+00  0.64182443891E+02  0.64182443891E+02  0.00000000000E+00 0. -1.
         21   -1    0    0  501  502  0.00000000000E+00 -0.00000000000E+00 -0.35527491027E+03  0.35527491027E+03  0.00000000000E+00 0. -1.
         24    2    1    2    0    0 -0.45561328757E+02  0.27864167501E+02 -0.56329808533E+02  0.11479866547E+03  0.84578009883E+02 0.  0.
         23    2    1    2    0    0  0.45737235147E+01 -0.43828069524E+02 -0.12060305512E+03  0.15691674548E+03  0.90199498233E+02 0.  0.
        -11    1    3    3    0    0 -0.14309881126E+02 -0.29036962654E+02 -0.31864843633E+02  0.45423409799E+02  0.00000000000E+00 0.  1.
         12    1    3    3    0    0 -0.31251447630E+02  0.56901130155E+02 -0.24464964900E+02  0.69375255671E+02  0.00000000000E+00 0. -1.
        -11    1    4    4    0    0  0.28415165276E+02 -0.61231919628E+02 -0.63704592905E+02  0.92817265400E+02  0.00000000000E+00 0.  1.
         11    1    4    4    0    0 -0.23841441762E+02  0.17403850104E+02 -0.56898462214E+02  0.64099480077E+02  0.00000000000E+00 0. -1.
         21    1    1    2  503  502 -0.18601416185E+02 -0.13010911466E+02 -0.11222257114E+02  0.25322629326E+02  0.00000000000E+00 0.  1.
          3    1    1    2  501    0  0.59589021427E+02  0.28974813489E+02 -0.10293734561E+03  0.12241931389E+03  0.00000000000E+00 0. -1.
<scales pt_clust_5="13000.00000" pt_clust_6="13000.00000" pt_clust_7="13000.00000" pt_clust_8="13000.00000" pt_clust_9="22.70014" pt_clust_10="62.44072"></scales>
<clustering>
<clus scale="   22.700">  1  9  2 -1</clus>
<clus scale="   62.441">  2 10  1 -1</clus>
<clus scale="   84.578">  5  6 -1 -1</clus>
<clus scale="   90.199">  7  8 -1 -1</clus>
<clus scale="   96.063">  1  5  2 -1</clus>
<clus scale="   62.441">  2  5  1 -1</clus>
</clustering>
</event>
<event>
10    4  0.3738096E-005  0.1094164E+03  0.7546771E-02  0.1263233E+00
         21   -1    0    0  501  502  0.00000000000E+00  0.00000000000E+00  0.18818549711E+03  0.18818549711E+03  0.00000000000E+00 0. -1.
          2   -1    0    0  503    0 -0.00000000000E+00 -0.00000000000E+00 -0.35637146307E+03  0.35637146307E+03  0.00000000000E+00 0. -1.
         24    2    1    2    0    0 -0.69119759713E+02  0.59901563973E+02 -0.23724325389E+03  0.26885991912E+03  0.87381668813E+02 0.  0.
         23    2    1    2    0    0  0.46853979115E+02  0.48240005247E+01  0.98155408865E+02  0.14214874916E+03  0.91395931307E+02 0.  0.
        -11    1    3    3    0    0 -0.56278846861E+01  0.19695426647E+02 -0.51608169888E+00  0.20490223453E+02  0.00000000000E+00 0.  1.
         12    1    3    3    0    0 -0.63491875027E+02  0.40206137326E+02 -0.23672717219E+03  0.24836969566E+03  0.00000000000E+00 0. -1.
        -13    1    4    4    0    0  0.12481594656E+02  0.44005368707E+02  0.24419909628E+02  0.51851660209E+02  0.00000000000E+00 0. -1.
         13    1    4    4    0    0  0.34372384459E+02 -0.39181368182E+02  0.73735499237E+02  0.90297088955E+02  0.00000000000E+00 0.  1.
         21    1    1    2  503  502  0.34305946242E+02 -0.10243817986E+02 -0.59922615006E+02  0.69803678582E+02  0.00000000000E+00 0.  1.
          1    1    1    2  501    0 -0.12040165644E+02 -0.54481746512E+02  0.30824494067E+02  0.63744613311E+02  0.00000000000E+00 0. -1.
<scales pt_clust_5="13000.00000" pt_clust_6="13000.00000" pt_clust_7="13000.00000" pt_clust_8="13000.00000" pt_clust_9="35.80271" pt_clust_10="55.97941"></scales>
<clustering>
<clus scale="   35.803">  2  9  1 -1</clus>
<clus scale="   55.979">  1 10  2 -1</clus>
<clus scale="   87.382">  5  6 -1 -1</clus>
<clus scale="   91.396">  7  8 -1 -1</clus>
<clus scale="  106.086">  2  5  1 -1</clus>
<clus scale="   55.979">  1  5  2 -1</clus>
</clustering>
</event>
<event>
10    4  0.3738096E-005  0.9162818E+02  0.7546771E-02  0.1299732E+00
          2   -1    0    0  503    0 -0.00000000000E+00  0.00000000000E+00  0.58061945037E+03  0.58061945037E+03  0.00000000000E+00 0. -1.
         21   -1    0    0  501  502  0.00000000000E+00 -0.00000000000E+00 -0.47217777570E+02  0.47217777570E+02  0.00000000000E+00 0. -1.
         24    2    1    2    0    0 -0.23133342839E+02  0.26659490580E+02  0.26983750302E+03  0.28555347440E+03  0.86502189112E+02 0.  0.
         23    2    1    2    0    0  0.65588035696E+02 -0.62288637386E+01  0.77983610655E+02  0.13291914461E+03  0.85120304876E+02 0.  0.
        -13    1    3    3    0    0 -0.18040026044E+02  0.58348999250E+02  0.16660704515E+03  0.17744845941E+03  0.00000000000E+00 0.  1.
         14    1    3    3    0    0 -0.50933167956E+01 -0.31689508670E+02  0.10323045786E+03  0.10810501499E+03  0.00000000000E+00 0. -1.
        -11    1    4    4    0    0  0.21064924666E+02 -0.34509072504E+02  0.68186292906E+02  0.79271543927E+02  0.00000000000E+00 0.  1.
         11    1    4    4    0    0  0.44523111030E+02  0.28280208766E+02  0.97973177490E+01  0.53647600680E+02  0.00000000000E+00 0. -1.
         21    1    1    2  503  502  0.11214129077E+02 -0.24141618790E+02  0.12728821893E+03  0.13004178223E+03  0.00000000000E+00 0. -1.
          1    1    1    2  501    0 -0.53668821934E+02  0.37109919483E+01  0.58292340202E+02  0.79322826697E+02  0.00000000000E+00 0. -1.
<scales pt_clust_5="13000.00000" pt_clust_6="13000.00000" pt_clust_7="13000.00000" pt_clust_8="13000.00000" pt_clust_9="26.61906" pt_clust_10="51.96154"></scales>
<clustering>
<clus scale="   26.619">  1  9  2 -1</clus>
<clus scale="   51.962">  2 10  1 -1</clus>
<clus scale="   85.120">  7  8 -1 -1</clus>
<clus scale="   86.502">  5  6 -1 -1</clus>
<clus scale="   90.325">  2  7  1 -1</clus>
<clus scale="   51.962">  2  5  1 -1</clus>
</clustering>
</event>
<event>
10    4  0.3738096E-005  0.9822554E+02  0.7546771E-02  0.1289589E+00
         21   -1    0    0  501  502  0.00000000000E+00  0.00000000000E+00  0.19806921515E+03  0.19806921515E+03  0.00000000000E+00 0.  1.
          2   -1    0    0  503    0 -0.00000000000E+00 -0.00000000000E+00 -0.29341268928E+03  0.29341268928E+03  0.00000000000E+00 0. -1.
         24    2    1    2    0    0  0.49053311147E+02 -0.37607720794E+02 -0.22209924555E+03  0.24440612020E+03  0.81152379655E+02 0.  0.
         23    2    1    2    0    0 -0.27978206111E+02  0.23939253849E+01  0.11288456524E+03  0.14807615784E+03  0.91624846820E+02 0.  0.
        -11    1    3    3    0    0 -0.17349065997E+02 -0.26605881735E+02 -0.46164927137E+02  0.56036269785E+02  0.00000000000E+00 0.  1.
         12    1    3    3    0    0  0.66402377145E+02 -0.11001839059E+02 -0.17593431841E+03  0.18836985042E+03  0.00000000000E+00 0. -1.
        -11    1    4    4    0    0 -0.38866046243E+02 -0.37665272296E+02  0.59158924528E+02  0.80181173844E+02  0.00000000000E+00 0. -1.
         11    1    4    4    0    0  0.10887840132E+02  0.40059197681E+02  0.53725640712E+02  0.67894983994E+02  0.00000000000E+00 0.  1.
         21    1    1    2  503  502 -0.36020936238E+02  0.37821055738E+01 -0.27104414743E+02  0.45237832271E+02  0.00000000000E+00 0.  1.
          1    1    1    2  501    0  0.14945831202E+02  0.31431689835E+02  0.40975620917E+02  0.53761794108E+02  0.00000000000E+00 0. -1.
<scales pt_clust_5="13000.00000" pt_clust_6="13000.00000" pt_clust_7="13000.00000" pt_clust_8="13000.00000" pt_clust_9="35.57698" pt_clust_10="34.80415"></scales>
<clustering>
<clus scale="   34.804">  1 10  2 -1</clus>
<clus scale="   35.577">  2  9  1 -1</clus>
<clus scale="   81.152">  5  6 -1 -1</clus>
<clus scale="   88.537">  2  5  1 -1</clus>
<clus scale="   91.625">  7  8 -1 -1</clus>
<clus scale="   34.804">  1  5  2 -1</clus>
</clustering>
</event>
<event>
10    4  0.3738096E-005  0.1667035E+03  0.7546771E-02  0.1191775E+00
          2   -1    0    0  503    0 -0.00000000000E+00  0.00000000000E+00  0.98149088673E+03  0.98149088673E+03  0.00000000000E+00 0. -1.
         21   -1    0    0  501  502  0.00000000000E+00 -0.00000000000E+00 -0.18720031300E+03  0.18720031300E+03  0.00000000000E+00 0. -1.
         24    2    1    2    0    0 -0.22405267313E+02 -0.96782343303E+02  0.34618751003E+03  0.36925908740E+03  0.81471857405E+02 0.  0.
         23    2    1    2    0    0 -0.11372081160E+03  0.70045157327E+02 -0.36738601594E+02  0.16775078003E+03  0.94614228824E+02 0.  0.
        -13    1    3    3    0    0 -0.52111984513E+01 -0.10613584032E+03  0.26000501475E+03  0.28088179166E+03  0.00000000000E+00 0.  1.
         14    1    3    3    0    0 -0.17194068861E+02  0.93534970143E+01  0.86182495280E+02  0.88377295744E+02  0.00000000000E+00 0. -1.
        -13    1    4    4    0    0 -0.12876411019E+03  0.54303565958E+02 -0.40844814684E+02  0.14559317372E+03  0.00000000000E+00 0. -1.
         13    1    4    4    0    0  0.15043298585E+02  0.15741591369E+02  0.41062130901E+01  0.22157606303E+02  0.00000000000E+00 0.  1.
         21    1    1    2  503  502  0.15997349545E+03  0.75018603731E+02  0.53170572112E+03  0.56029481884E+03  0.00000000000E+00 0. -1.
          1    1    1    2  501    0 -0.23847416535E+02 -0.48281417756E+02 -0.46864055826E+02  0.71386513463E+02  0.00000000000E+00 0. -1.
<scales pt_clust_5="13000.00000" pt_clust_6="13000.00000" pt_clust_7="13000.00000" pt_clust_8="13000.00000" pt_clust_9="137.25237" pt_clust_10="53.84974"></scales>
<clustering>
<clus scale="   53.850">  2 10  1 -1</clus>
<clus scale="   81.472">  5  6 -1 -1</clus>
<clus scale="   94.614">  7  8 -1 -1</clus>
<clus scale="  132.167">  1  5  2 -1</clus>
<clus scale="  137.252">  1  9  2 -1</clus>
<clus scale="   53.850">  2  5  1 -1</clus>
</clustering>
</event>
<event>
10    4  0.3738096E-005  0.1243080E+03  0.7546771E-02  0.1236448E+00
         21   -1    0    0  501  502  0.00000000000E+00  0.00000000000E+00  0.15583507782E+03  0.15583507782E+03  0.00000000000E+00 0. -1.
          2   -1    0    0  503    0 -0.00000000000E+00 -0.00000000000E+00 -0.29095192933E+03  0.29095192933E+03  0.00000000000E+00 0. -1.
         24    2    1    2    0    0 -0.19014361247E+02 -0.80985195637E+02 -0.66279603738E+02  0.13848364231E+03  0.88682498096E+02 0.  0.
         23    2    1    2    0    0  0.68528046969E+02  0.59833931366E+02  0.64144893655E+02  0.14296716038E+03  0.89715377729E+02 0.  0.
        -13    1    3    3    0    0 -0.27764955175E+02  0.51659082288E+00  0.68846282337E+01  0.28610447530E+02  0.00000000000E+00 0.  1.
         14    1    3    3    0    0  0.87505939278E+01 -0.81501786460E+02 -0.73164231971E+02  0.10987319478E+03  0.00000000000E+00 0. -1.
        -13    1    4    4    0    0  0.54397061280E+02  0.75529176374E+02  0.74709082332E+02  0.11935302151E+03  0.00000000000E+00 0. -1.
         13    1    4    4    0    0  0.14130985689E+02 -0.15695245007E+02 -0.10564188677E+02  0.23614138875E+02  0.00000000000E+00 0.  1.
         21    1    1    2  503  502  0.87373130669E+01 -0.20053290185E+02 -0.57249658381E+02  0.61286201315E+02  0.00000000000E+00 0.  1.
          1    1    1    2  501    0 -0.58250998789E+02  0.41204554456E+02 -0.75732483046E+02  0.10405000315E+03  0.00000000000E+00 0. -1.
<scales pt_clust_5="13000.00000" pt_clust_6="13000.00000" pt_clust_7="13000.00000" pt_clust_8="13000.00000" pt_clust_9="21.87407" pt_clust_10="64.24097"></scales>
<clustering>
<clus scale="   21.874">  2  9  1 -1</clus>
<clus scale="   64.241">  1 10  2 -1</clus>
<clus scale="   88.682">  5  6 -1 -1</clus>
<clus scale="   89.715">  7  8 -1 -1</clus>
<clus scale="  123.565">  2  5  1 -1</clus>
<clus scale="   64.241">  1  5  2 -1</clus>
</clustering>
</event>
<event>
10    4  0.3738096E-005  0.1764557E+03  0.7546771E-02  0.1194897E+00
         21   -1    0    0  501  502  0.00000000000E+00  0.00000000000E+00  0.40318373542E+03  0.40318373542E+03  0.00000000000E+00 0. -1.
          2   -1    0    0  503    0 -0.00000000000E+00 -0.00000000000E+00 -0.23717225621E+03  0.23717225621E+03  0.00000000000E+00 0. -1.
         23    2    1    2    0    0  0.50943551485E+01 -0.46319680551E+02 -0.26871083737E+02  0.10656702682E+03  0.91994623771E+02 0.  0.
         24    2    1    2    0    0  0.13101056958E+03 -0.65895992882E+02  0.21326422799E+03  0.26992117482E+03  0.76614348904E+02 0.  0.
        -13    1    4    4    0    0  0.10179753148E+03 -0.27635775400E+02  0.18796635654E+03  0.21554077269E+03  0.00000000000E+00 0.  1.
         14    1    4    4    0    0  0.29213038100E+02 -0.38260217483E+02  0.25297871443E+02  0.54380402135E+02  0.00000000000E+00 0. -1.
        -13    1    3    3    0    0  0.35814207556E+02  0.46529093431E+00 -0.34919177488E+02  0.50022224210E+02  0.00000000000E+00 0. -1.
         13    1    3    3    0    0 -0.30719852407E+02 -0.46784971485E+02  0.80480937512E+01  0.56544802607E+02  0.00000000000E+00 0.  1.
         21    1    1    2  503  502  0.22804824182E+02 -0.78392078127E+00 -0.60617018739E+02  0.64769572320E+02  0.00000000000E+00 0. -1.
          1    1    1    2  501    0 -0.15890974891E+03  0.11299959421E+03  0.40235353701E+02  0.19909821767E+03  0.00000000000E+00 0. -1.
<scales pt_clust_5="13000.00000" pt_clust_6="13000.00000" pt_clust_7="13000.00000" pt_clust_8="13000.00000" pt_clust_9="22.81829" pt_clust_10="158.95565"></scales>
<clustering>
<clus scale="   22.818">  2  9  1 -1</clus>
<clus scale="   76.614">  5  6 -1 -1</clus>
<clus scale="   91.995">  7  8 -1 -1</clus>
<clus scale="  104.054">  2  7  1 -1</clus>
<clus scale="  158.956">  1 10  2 -1</clus>
<clus scale="  158.956">  1  5  2 -1</clus>
</clustering>
</event>
<event>
10    4  0.3738096E-005  0.1458973E+03  0.7546771E-02  0.1210638E+00
          2   -1    0    0  503    0 -0.00000000000E+00  0.00000000000E+00  0.36083754534E+03  0.36083754534E+03  0.00000000000E+00 0. -1.
         21   -1    0    0  501  502  0.00000000000E+00 -0.00000000000E+00 -0.18303254475E+03  0.18303254475E+03  0.00000000000E+00 0.  1.
         24    2    1    2    0    0 -0.10753723065E+03 -0.49793502978E+02  0.91328109165E+02  0.16799720489E+03  0.76410656400E+02 0.  0.
         23    2    1    2    0    0  0.16466481450E+02  0.13973240200E+03  0.21923108263E+02  0.17390437899E+03  0.99828959610E+02 0.  0.
        -11    1    3    3    0    0 -0.73629808310E+02 -0.38805455405E+00  0.23051178856E+02  0.77154754259E+02  0.00000000000E+00 0.  1.
         12    1    3    3    0    0 -0.33907422340E+02 -0.49405448424E+02  0.68276930309E+02  0.90842450628E+02  0.00000000000E+00 0. -1.
        -13    1    4    4    0    0 -0.35369208618E+02  0.29387368026E+02 -0.11678917395E+02  0.47444656488E+02  0.00000000000E+00 0.  1.
         13    1    4    4    0    0  0.51835690068E+02  0.11034503397E+03  0.33602025658E+02  0.12645972250E+03  0.00000000000E+00 0. -1.
         21    1    1    2  503  502  0.19116059086E+02  0.11593100294E+02  0.73867672053E+02  0.77176788375E+02  0.00000000000E+00 0. -1.
          1    1    1    2  501    0  0.71954690115E+02 -0.10153199931E+03 -0.93138888943E+01  0.12479171784E+03  0.00000000000E+00 0. -1.
<scales pt_clust_5="13000.00000" pt_clust_6="13000.00000" pt_clust_7="13000.00000" pt_clust_8="13000.00000" pt_clust_9="22.35674" pt_clust_10="124.84791"></scales>
<clustering>
<clus scale="   22.357">  1  9  2 -1</clus>
<clus scale="   76.411">  5  6 -1 -1</clus>
<clus scale="   99.829">  7  8 -1 -1</clus>
<clus scale="  124.848">  2 10  1 -1</clus>
<clus scale="  130.992">  1  5  2 -1</clus>
<clus scale="  124.848">  2  5  1 -1</clus>
</clustering>
</event>
<event>
10    4  0.3738096E-005  0.1514228E+03  0.7546771E-02  0.1213973E+00
          2   -1    0    0  503    0 -0.00000000000E+00  0.00000000000E+00  0.38380756522E+03  0.38380756522E+03  0.00000000000E+00 0. -1.
         21   -1    0    0  501  502  0.00000000000E+00 -0.00000000000E+00 -0.31053123078E+03  0.31053123078E+03  0.00000000000E+00 0. -1.
         24    2    1    2    0    0  0.70768419028E+02  0.28865934865E+02 -0.10763477318E+02  0.11061653845E+03  0.79238594184E+02 0.  0.
         23    2    1    2    0    0  0.17996493678E+02 -0.13888599300E+03  0.27640565551E+03  0.32342944508E+03  0.92700197992E+02 0.  0.
        -13    1    3    3    0    0  0.20906682089E+02  0.37864620716E+02  0.23718045740E+02  0.49329145053E+02  0.00000000000E+00 0.  1.
         14    1    3    3    0    0  0.49861736939E+02 -0.89986858504E+01 -0.34481523057E+02  0.61287393401E+02  0.00000000000E+00 0. -1.
        -13    1    4    4    0    0 -0.34691237189E+02 -0.88391741461E+02  0.15843832181E+03  0.18471405933E+03  0.00000000000E+00 0. -1.
         13    1    4    4    0    0  0.52687730867E+02 -0.50494251544E+02  0.11796733371E+03  0.13871538575E+03  0.00000000000E+00 0.  1.
         21    1    1    2  503  502 -0.17077221994E+02  0.14341356260E+02  0.10631792417E+02  0.24705080863E+02  0.00000000000E+00 0. -1.
          1    1    1    2  501    0 -0.71687690712E+02  0.95678701879E+02 -0.20299763617E+03  0.23558773161E+03  0.00000000000E+00 0. -1.
<scales pt_clust_5="13000.00000" pt_clust_6="13000.00000" pt_clust_7="13000.00000" pt_clust_8="13000.00000" pt_clust_9="22.30036" pt_clust_10="119.73106"></scales>
<clustering>
<clus scale="   22.300">  1  9  2 -1</clus>
<clus scale="   79.239">  5  6 -1 -1</clus>
<clus scale="   92.700">  7  8 -1 -1</clus>
<clus scale="  109.145">  1  5  2 -1</clus>
<clus scale="  119.731">  2 10  1 -1</clus>
<clus scale="  119.731">  2  5  1 -1</clus>
</clustering>
</event>
<event>
10    4  0.3738096E-005  0.2801245E+03  0.7546771E-02  0.1095621E+00
         21   -1    0    0  501  502  0.00000000000E+00  0.00000000000E+00  0.22999182161E+03  0.22999182161E+03  0.00000000000E+00 0. -1.
          2   -1    0    0  503    0 -0.00000000000E+00 -0.00000000000E+00 -0.64136412466E+03  0.64136412466E+03  0.00000000000E+00 0. -1.
         24    2    1    2    0    0 -0.56280675120E+02 -0.50031106703E+02 -0.23896858754E+01  0.11076169194E+03  0.81189997993E+02 0.  0.
         23    2    1    2    0    0 -0.13156795377E+03 -0.20486309179E+02  0.84592079737E+02  0.17730844802E+03  0.80948443240E+02 0.  0.
        -11    1    3    3    0    0  0.16122296142E+02 -0.32366161267E+02  0.77692087382E+00  0.36167671118E+02  0.00000000000E+00 0.  1.
         12    1    3    3    0    0 -0.72402971262E+02 -0.17664945435E+02 -0.31666067492E+01  0.74594020827E+02  0.00000000000E+00 0. -1.
        -13    1    4    4    0    0 -0.92533750344E+02  0.24558399161E+02  0.58882957411E+02  0.11239578549E+03  0.00000000000E+00 0. -1.
         13    1    4    4    0    0 -0.39034203424E+02 -0.45044708339E+02  0.25709122326E+02  0.64912662533E+02  0.00000000000E+00 0.  1.
         21    1    1    2  503  502 -0.48549647218E+02  0.53918268708E+02 -0.94332312075E+02  0.11900770163E+03  0.00000000000E+00 0. -1.
          1    1    1    2  501    0  0.23639827610E+03  0.16599147173E+02 -0.39924238483E+03  0.46427810467E+03  0.00000000000E+00 0. -1.
<scales pt_clust_5="13000.00000" pt_clust_6="13000.00000" pt_clust_7="13000.00000" pt_clust_8="13000.00000" pt_clust_9="72.55514" pt_clust_10="206.16113"></scales>
<clustering>
<clus scale="   72.555">  2  9  1 -1</clus>
<clus scale="   80.948">  7  8 -1 -1</clus>
<clus scale="   81.190">  5  6 -1 -1</clus>
<clus scale="   97.275">  5  7 -1 -1</clus>
<clus scale="  206.161">  1 10  2 -1</clus>
<clus scale="  206.161">  1  5  2 -1</clus>
</clustering>
</event>
<event>
10    4  0.3738096E-005  0.1679151E+03  0.7546771E-02  0.1191491E+00
          2   -1    0    0  503    0 -0.00000000000E+00  0.00000000000E+00  0.34514159279E+03  0.34514159279E+03  0.00000000000E+00 0. -1.
         21   -1    0    0  501  502  0.00000000000E+00 -0.00000000000E+00 -0.17787996128E+03  0.17787996128E+03  0.00000000000E+00 0.  1.
         24    2    1    2    0    0  0.29330888061E+02 -0.96851589999E+02  0.31884251378E+01  0.12787317978E+03  0.78107954604E+02 0.  0.
         23    2    1    2    0    0  0.81469068652E+02 -0.25777262256E+02  0.11213252591E+03  0.16833647291E+03  0.91987979368E+02 0.  0.
        -11    1    3    3    0    0  0.44234153746E+02 -0.70326448390E+02 -0.24622091042E+02  0.86652853779E+02  0.00000000000E+00 0.  1.
         12    1    3    3    0    0 -0.14903265684E+02 -0.26525141608E+02  0.27810516180E+02  0.41220326001E+02  0.00000000000E+00 0. -1.
        -11    1    4    4    0    0  0.57703888231E+02  0.56387177210E+01  0.99532479099E+01  0.58826873097E+02  0.00000000000E+00 0.  1.
         11    1    4    4    0    0  0.23765180421E+02 -0.31415979977E+02  0.10217927800E+03  0.10950959981E+03  0.00000000000E+00 0. -1.
         21    1    1    2  503  502  0.23621324265E+02 -0.67363025429E+01  0.30293858135E+02  0.39000802206E+02  0.00000000000E+00 0. -1.
          1    1    1    2  501    0 -0.13442128098E+03  0.12936515480E+03  0.21646822332E+02  0.18781109917E+03  0.00000000000E+00 0. -1.
<scales pt_clust_5="13000.00000" pt_clust_6="13000.00000" pt_clust_7="13000.00000" pt_clust_8="13000.00000" pt_clust_9="24.56308" pt_clust_10="140.47666"></scales>
<clustering>
<clus scale="   24.563">  1  9  2 -1</clus>
<clus scale="   78.108">  5  6 -1 -1</clus>
<clus scale="   91.988">  7  8 -1 -1</clus>
<clus scale="  130.139">  1  5  2 -1</clus>
<clus scale="  140.477">  2 10  1 -1</clus>
<clus scale="  140.477">  2  5  1 -1</clus>
</clustering>
</event>
<event>
10    4  0.3738096E-005  0.1128482E+03  0.7546771E-02  0.1260100E+00
          2   -1    0    0  503    0 -0.00000000000E+00  0.00000000000E+00  0.16793790987E+03  0.16793790987E+03  0.00000000000E+00 0. -1.
         21   -1    0    0  501  502  0.00000000000E+00 -0.00000000000E+00 -0.49287253071E+03  0.49287253071E+03  0.00000000000E+00 0. -1.
         23    2    1    2    0    0 -0.41665865707E+02 -0.25144896825E+02  0.54875880504E+02  0.11862679370E+03  0.93234348394E+02 0.  0.
         24    2    1    2    0    0  0.26263787539E+02  0.74676185879E+02 -0.11659158096E+02  0.11372266594E+03  0.80812062890E+02 0.  0.
        -13    1    4    4    0    0  0.20660014470E+02  0.23154998806E+02 -0.43097617741E+02  0.53107389529E+02  0.00000000000E+00 0.  1.
         14    1    4    4    0    0  0.56037730686E+01  0.51521187073E+02  0.31438459645E+02  0.60615276415E+02  0.00000000000E+00 0. -1.
        -13    1    3    3    0    0  0.25911088397E+01 -0.23051272442E+02 -0.20655080589E+02  0.31059738576E+02  0.00000000000E+00 0.  1.
         13    1    3    3    0    0 -0.44256974547E+02 -0.20936243822E+01  0.75530961093E+02  0.87567055122E+02  0.00000000000E+00 0. -1.
         21    1    1    2  503  502 -0.26013644603E+02 -0.14486183069E+02  0.20430229242E+02  0.36110295932E+02  0.00000000000E+00 0. -1.
          1    1    1    2  501    0  0.41415722771E+02 -0.35045105985E+02 -0.38858157249E+03  0.39235068501E+03  0.00000000000E+00 0. -1.
<scales pt_clust_5="13000.00000" pt_clust_6="13000.00000" pt_clust_7="13000.00000" pt_clust_8="13000.00000" pt_clust_9="29.77514" pt_clust_10="54.11293"></scales>
<clustering>
<clus scale="   29.775">  1  9  2 -1</clus>
<clus scale="   54.113">  2 10  1 -1</clus>
<clus scale="   80.812">  5  6 -1 -1</clus>
<clus scale="   93.234">  7  8 -1 -1</clus>
<clus scale="  102.823">  2  5  1 -1</clus>
<clus scale="   54.113">  2  5  1 -1</clus>
</clustering>
</event>
<event>
10    4  0.3738096E-005  0.9814206E+02  0.7546771E-02  0.1290027E+00
          2   -1    0    0  503    0 -0.00000000000E+00  0.00000000000E+00  0.71642841052E+03  0.71642841052E+03  0.00000000000E+00 0. -1.
         21   -1    0    0  501  502  0.00000000000E+00 -0.00000000000E+00 -0.80365700948E+02  0.80365700948E+02  0.00000000000E+00 0. -1.
         24    2    1    2    0    0  0.10135906945E+02  0.45141365276E+02  0.35873738088E+03  0.37120023388E+03  0.83406388955E+02 0.  0.
         23    2    1    2    0    0  0.30699327425E+02  0.58762865767E+00  0.17333743569E+03  0.19956613491E+03  0.94010539732E+02 0.  0.
        -11    1    3    3    0    0  0.18662788126E+02 -0.14249208231E+02  0.36330097520E+02  0.43257549418E+02  0.00000000000E+00 0.  1.
         12    1    3    3    0    0 -0.85268811811E+01  0.59390573507E+02  0.32240728336E+03  0.32794268446E+03  0.00000000000E+00 0. -1.
        -11    1    4    4    0    0 -0.31092637439E+02  0.22452736140E+00  0.28834880036E+02  0.42405811184E+02  0.00000000000E+00 0. -1.
         11    1    4    4    0    0  0.61791964864E+02  0.36310129627E+00  0.14450255565E+03  0.15716032373E+03  0.00000000000E+00 0.  1.
         21    1    1    2  503  502 -0.31480391180E+02 -0.14776787966E+02  0.15870506909E+03  0.16247051254E+03  0.00000000000E+00 0. -1.
          1    1    1    2  501    0 -0.93548431899E+01 -0.30952205968E+02 -0.54717176081E+02  0.63557230144E+02  0.00000000000E+00 0. -1.
<scales pt_clust_5="13000.00000" pt_clust_6="13000.00000" pt_clust_7="13000.00000" pt_clust_8="13000.00000" pt_clust_9="36.75536" pt_clust_10="32.33500"></scales>
<clustering>
<clus scale="   32.335">  2 10  1 -1</clus>
<clus scale="   36.755">  1  9  2 -1</clus>
<clus scale="   83.406">  5  6 -1 -1</clus>
<clus scale="   88.037">  1  5  2 -1</clus>
<clus scale="   94.011">  7  8 -1 -1</clus>
<clus scale="   32.335">  2  5  1 -1</clus>
</clustering>
</event>
<event>
10    4  0.3738096E-005  0.2147461E+03  0.7546771E-02  0.1176909E+00
         21   -1    0    0  503  502  0.00000000000E+00  0.00000000000E+00  0.10386631787E+04  0.10386631787E+04  0.00000000000E+00 0.  1.
         -1   -1    0    0    0  501 -0.00000000000E+00 -0.00000000000E+00 -0.12920226763E+03  0.12920226763E+03  0.00000000000E+00 0.  1.
         24    2    1    2    0    0  0.36929143628E+02  0.26285162941E+02 -0.19039928031E+02  0.94044233344E+02  0.80169367753E+02 0.  0.
         23    2    1    2    0    0  0.17260563228E+03 -0.15470960753E+02  0.24183144963E+03  0.31117155757E+03  0.91176933978E+02 0.  0.
        -11    1    3    3    0    0  0.32714028328E+02  0.43548211250E+02  0.14257115798E+02  0.56302039958E+02  0.00000000000E+00 0.  1.
         12    1    3    3    0    0  0.42151153002E+01 -0.17263048309E+02 -0.33297043829E+02  0.37742193387E+02  0.00000000000E+00 0. -1.
        -13    1    4    4    0    0  0.11868000805E+03 -0.52984767309E+02  0.15466538893E+03  0.20202403919E+03  0.00000000000E+00 0.  1.
         13    1    4    4    0    0  0.53925624231E+02  0.37513806556E+02  0.87166060694E+02  0.10914751838E+03  0.00000000000E+00 0. -1.
         21    1    1    2  503  501 -0.11452054879E+02 -0.61719222590E+02  0.20877492806E+02  0.66153470838E+02  0.00000000000E+00 0. -1.
         -2    1    1    2    0  502 -0.19808272103E+03  0.50905020402E+02  0.66579189669E+03  0.69649618461E+03  0.00000000000E+00 0.  1.
<scales pt_clust_5="13000.00000" pt_clust_6="13000.00000" pt_clust_7="13000.00000" pt_clust_8="13000.00000" pt_clust_9="62.77270" pt_clust_10="194.42905"></scales>
<clustering>
<clus scale="   62.773">  2  9  1 -1</clus>
<clus scale="   80.169">  5  6 -1 -1</clus>
<clus scale="   86.144">  2  5  1 -1</clus>
<clus scale="   91.177">  7  8 -1 -1</clus>
<clus scale="  194.429">  1 10  2 -1</clus>
<clus scale="  194.429">  1  5  2 -1</clus>
</clustering>
</event>
<event>
10    4  0.3738096E-005  0.1319827E+03  0.7546771E-02  0.1227047E+00
          2   -1    0    0  502    0 -0.00000000000E+00  0.00000000000E+00  0.41948891762E+03  0.41948891762E+03  0.00000000000E+00 0. -1.
         21   -1    0    0  503  502  0.00000000000E+00 -0.00000000000E+00 -0.15524621779E+03  0.15524621779E+03  0.00000000000E+00 0. -1.
         24    2    1    2    0    0  0.95927027138E+02  0.86667981850E+01  0.28036932687E+03  0.30717569689E+03  0.80453970565E+02 0.  0.
         23    2    1    2    0    0 -0.92607350869E+02 -0.12123321175E+02 -0.98378554388E+02  0.16308649652E+03  0.90530486751E+02 0.  0.
        -11    1    3    3    0    0  0.28441414352E+02  0.26713261731E+01  0.13053562995E+02  0.31407730589E+02  0.00000000000E+00 0.  1.
         12    1    3    3    0    0  0.67485612785E+02  0.59954720119E+01  0.26731576388E+03  0.27576796630E+03  0.00000000000E+00 0. -1.
        -11    1    4    4    0    0 -0.16197920185E+02  0.14327276879E+02  0.13166033951E+02  0.25317739455E+02  0.00000000000E+00 0.  1.
         11    1    4    4    0    0 -0.76409430684E+02 -0.26450598054E+02 -0.11154458834E+03  0.13776875706E+03  0.00000000000E+00 0. -1.
         21    1    1    2  503  501  0.75694489574E+01 -0.21172366102E+02  0.55193185101E+01  0.23152289750E+02  0.00000000000E+00 0. -1.
          1    1    1    2  501    0 -0.10889125226E+02  0.24628889092E+02  0.76732608831E+02  0.81320652261E+02  0.00000000000E+00 0. -1.
<scales pt_clust_5="13000.00000" pt_clust_6="13000.00000" pt_clust_7="13000.00000" pt_clust_8="13000.00000" pt_clust_9="22.48479" pt_clust_10="26.57741"></scales>
<clustering>
<clus scale="   22.485">  2  9  1 -1</clus>
<clus scale="   26.577">  2 10  1 -1</clus>
<clus scale="   80.454">  5  6 -1 -1</clus>
<clus scale="   90.530">  7  8 -1 -1</clus>
<clus scale="  125.286">  1  5  2 -1</clus>
<clus scale="   22.485">  2  5  1 -1</clus>
</clustering>
</event>
<event>
10    4  0.3738096E-005  0.8895164E+02  0.7546771E-02  0.1307361E+00
          2   -1    0    0  503    0 -0.00000000000E+00  0.00000000000E+00  0.39975307788E+03  0.39975307788E+03  0.00000000000E+00 0. -1.
         21   -1    0    0  501  502  0.00000000000E+00 -0.00000000000E+00 -0.93958558838E+02  0.93958558838E+02  0.00000000000E+00 0. -1.
         24    2    1    2    0    0  0.27234150217E+02  0.18829137041E+02  0.84222345011E+02  0.12147280092E+03  0.81030874516E+02 0.  0.
         23    2    1    2    0    0  0.59116009120E+01 -0.61825577707E+02  0.36528086069E+02  0.11091147958E+03  0.84319073443E+02 0.  0.
        -11    1    3    3    0    0  0.11532787535E+02 -0.29646641294E+02  0.14109315589E+02  0.34799444173E+02  0.00000000000E+00 0.  1.
         12    1    3    3    0    0  0.15701362682E+02  0.48475778336E+02  0.70113029421E+02  0.86673356748E+02  0.00000000000E+00 0. -1.
        -11    1    4    4    0    0  0.23390107441E+02 -0.50535147069E+02  0.58420197375E+02  0.80708225583E+02  0.00000000000E+00 0. -1.
         11    1    4    4    0    0 -0.17478506529E+02 -0.11290430638E+02 -0.21892111306E+02  0.30203253996E+02  0.00000000000E+00 0.  1.
         21    1    1    2  503  502 -0.14519232327E+01 -0.46158506823E+02  0.15548285430E+03  0.16219628175E+03  0.00000000000E+00 0. -1.
          1    1    1    2  501    0 -0.31693827896E+02  0.89154947489E+02  0.29561233659E+02  0.99131074462E+02  0.00000000000E+00 0. -1.
<scales pt_clust_5="13000.00000" pt_clust_6="13000.00000" pt_clust_7="13000.00000" pt_clust_8="13000.00000" pt_clust_9="46.18134" pt_clust_10="83.25576"></scales>
<clustering>
<clus scale="   46.181">  1  9  2 -1</clus>
<clus scale="   81.031">  5  6 -1 -1</clus>
<clus scale="   83.256">  2 10  1 -1</clus>
<clus scale="   84.319">  7  8 -1 -1</clus>
<clus scale="   85.841">  1  5  2 -1</clus>
<clus scale="   83.256">  2  5  1 -1</clus>
</clustering>
</event>
<event>
10    4  0.3738096E-005  0.9952461E+02  0.7546771E-02  0.1286725E+00
          2   -1    0    0  503    0 -0.00000000000E+00  0.00000000000E+00  0.20574552572E+03  0.20574552572E+03  0.00000000000E+00 0. -1.
         21   -1    0    0  501  502  0.00000000000E+00 -0.00000000000E+00 -0.29966094345E+03  0.29966094345E+03  0.00000000000E+00 0. -1.
         23    2    1    2    0    0 -0.33410728597E+02 -0.29798054574E+02  0.17247413358E+03  0.19965953271E+03  0.90068870342E+02 0.  0.
         24    2    1    2    0    0  0.29028190957E+02 -0.14783645746E+02 -0.15524415582E+03  0.17730423966E+03  0.79213972458E+02 0.  0.
        -13    1    4    4    0    0  0.93293991702E+01  0.31587231884E+02 -0.82362142679E+02  0.88703514325E+02  0.00000000000E+00 0.  1.
         14    1    4    4    0    0  0.19698791786E+02 -0.46370877629E+02 -0.72882013143E+02  0.88600725335E+02  0.00000000000E+00 0. -1.
        -11    1    3    3    0    0 -0.43527511899E+02 -0.56460413844E+02  0.13380930086E+03  0.15161580268E+03  0.00000000000E+00 0. -1.
         11    1    3    3    0    0  0.10116783302E+02  0.26662359270E+02  0.38664832717E+02  0.48043730031E+02  0.00000000000E+00 0.  1.
         21    1    1    2  503  502  0.22641703068E+01  0.21493866073E+02 -0.85208896507E+01  0.23231838205E+02  0.00000000000E+00 0.  1.
          1    1    1    2  501    0  0.21183673335E+01  0.23087834246E+02 -0.10262450583E+03  0.10521085860E+03  0.00000000000E+00 0. -1.
<scales pt_clust_5="13000.00000" pt_clust_6="13000.00000" pt_clust_7="13000.00000" pt_clust_8="13000.00000" pt_clust_9="21.61279" pt_clust_10="31.09856"></scales>
<clustering>
<clus scale="   21.613">  2  9  1 -1</clus>
<clus scale="   31.099">  2 10  1 -1</clus>
<clus scale="   79.214">  5  6 -1 -1</clus>
<clus scale="   89.820">  2  5  1 -1</clus>
<clus scale="   90.069">  7  8 -1 -1</clus>
<clus scale="   21.613">  2  5  1 -1</clus>
</clustering>
</event>
<event>
10    4  0.3738096E-005  0.3419405E+03  0.7546771E-02  0.1109819E+00
         21   -1    0    0  501  502  0.00000000000E+00  0.00000000000E+00  0.49769860562E+03  0.49769860562E+03  0.00000000000E+00 0. -1.
          2   -1    0    0  503    0 -0.00000000000E+00 -0.00000000000E+00 -0.47721132280E+03  0.47721132280E+03  0.00000000000E+00 0. -1.
         24    2    1    2    0    0  0.23129288235E+02  0.63639324294E+02  0.15161242711E+03  0.18463723095E+03  0.80744358484E+02 0.  0.
         23    2    1    2    0    0  0.14866762041E+03 -0.34162158121E+03  0.41243187997E+02  0.38547787335E+03  0.89915650380E+02 0.  0.
        -13    1    3    3    0    0 -0.18740260162E+02  0.17796318940E+02  0.10182761065E+03  0.10505602605E+03  0.00000000000E+00 0.  1.
         14    1    3    3    0    0  0.41869548397E+02  0.45843005355E+02  0.49784816458E+02  0.79581204896E+02  0.00000000000E+00 0. -1.
        -11    1    4    4    0    0  0.17197055691E+00 -0.96706387677E+02  0.14978511714E+02  0.97859648501E+02  0.00000000000E+00 0.  1.
         11    1    4    4    0    0  0.14849564985E+03 -0.24491519353E+03  0.26264676283E+02  0.28761822485E+03  0.00000000000E+00 0. -1.
         21    1    1    2  503  502  0.42258286894E+01  0.49753749609E+02 -0.93465251559E+02  0.10596719529E+03  0.00000000000E+00 0. -1.
          1    1    1    2  501    0 -0.17602273733E+03  0.22822850731E+03 -0.78903080724E+02  0.29882762883E+03  0.00000000000E+00 0. -1.
<scales pt_clust_5="13000.00000" pt_clust_6="13000.00000" pt_clust_7="13000.00000" pt_clust_8="13000.00000" pt_clust_9="49.93289" pt_clust_10="329.90696"></scales>
<clustering>
<clus scale="   49.933">  2  9  1 -1</clus>
<clus scale="   80.744">  5  6 -1 -1</clus>
<clus scale="   89.916">  7  8 -1 -1</clus>
<clus scale="  106.747">  2  5  1 -1</clus>
<clus scale="  329.907">  1 10  2 -1</clus>
<clus scale="  329.907">  1  5  2 -1</clus>
</clustering>
</event>
<event>
10    4  0.3738096E-005  0.2348604E+03  0.7546771E-02  0.1154315E+00
          2   -1    0    0  503    0 -0.00000000000E+00  0.00000000000E+00  0.92112721706E+03  0.92112721706E+03  0.00000000000E+00 0. -1.
         21   -1    0    0  501  502  0.00000000000E+00 -0.00000000000E+00 -0.22805419003E+03  0.22805419003E+03  0.00000000000E+00 0. -1.
         23    2    1    2    0    0  0.48827965490E+02  0.22243150487E+02  0.15842584028E+03  0.19071236897E+03  0.91616225914E+02 0.  0.
         24    2    1    2    0    0 -0.45070864289E+02 -0.22331782977E+03 -0.11404571526E+03  0.26689240809E+03  0.79516642437E+02 0.  0.
        -13    1    4    4    0    0 -0.31185692144E+02 -0.17517024215E+03 -0.48556350115E+02  0.18443123452E+03  0.00000000000E+00 0.  1.
         14    1    4    4    0    0 -0.13885172145E+02 -0.48147587620E+02 -0.65489365149E+02  0.82461173572E+02  0.00000000000E+00 0. -1.
        -11    1    3    3    0    0  0.27466907399E+02 -0.32537065334E+02  0.95656864901E+02  0.10470590922E+03  0.00000000000E+00 0.  1.
         11    1    3    3    0    0  0.21361058091E+02  0.54780215821E+02  0.62768975384E+02  0.86006459751E+02  0.00000000000E+00 0. -1.
         21    1    1    2  503  502  0.36193653870E+02  0.24645343144E+02  0.51560157639E+02  0.67644832581E+02  0.00000000000E+00 0.  1.
          1    1    1    2  501    0 -0.39950755070E+02  0.17642933614E+03  0.59713274437E+03  0.62393179746E+03  0.00000000000E+00 0. -1.
<scales pt_clust_5="13000.00000" pt_clust_6="13000.00000" pt_clust_7="13000.00000" pt_clust_8="13000.00000" pt_clust_9="43.78782" pt_clust_10="220.98994"></scales>
<clustering>
<clus scale="   43.788">  1  9  2 -1</clus>
<clus scale="   79.517">  5  6 -1 -1</clus>
<clus scale="   91.616">  7  8 -1 -1</clus>
<clus scale="  110.858">  1  7  2 -1</clus>
<clus scale="  220.990">  2 10  1 -1</clus>
<clus scale="  220.990">  2  5  1 -1</clus>
</clustering>
</event>
<event>
10    4  0.3738096E-005  0.1624625E+03  0.7546771E-02  0.1187554E+00
         21   -1    0    0  501  502  0.00000000000E+00  0.00000000000E+00  0.18494712674E+03  0.18494712674E+03  0.00000000000E+00 0. -1.
          2   -1    0    0  503    0 -0.00000000000E+00 -0.00000000000E+00 -0.27669035447E+03  0.27669035447E+03  0.00000000000E+00 0. -1.
         23    2    1    2    0    0  0.67167808392E+02  0.66143747847E+02 -0.92777067147E+02  0.16056301243E+03  0.91029593582E+02 0.  0.
         24    2    1    2    0    0 -0.13244738628E+03 -0.10843545397E+03  0.32048080769E+02  0.19181312061E+03  0.80402959825E+02 0.  0.
        -13    1    4    4    0    0 -0.46414296797E+01 -0.31103041697E+02 -0.15483340136E+02  0.35052473437E+02  0.00000000000E+00 0.  1.
         14    1    4    4    0    0 -0.12780595660E+03 -0.77332412276E+02  0.47531420904E+02  0.15676064718E+03  0.00000000000E+00 0. -1.
        -13    1    3    3    0    0 -0.76956177917E+01  0.51035550436E+02 -0.54765916104E+02  0.75253940150E+02  0.00000000000E+00 0. -1.
         13    1    3    3    0    0  0.74863426184E+02  0.15108197411E+02 -0.38011151044E+02  0.85309072276E+02  0.00000000000E+00 0.  1.
         21    1    1    2  503  502  0.26163135972E+02  0.49561905603E+02 -0.39519456807E+02  0.68576086482E+02  0.00000000000E+00 0. -1.
          1    1    1    2  501    0  0.39116441912E+02 -0.72701994775E+01  0.85052154568E+01  0.40685261683E+02  0.00000000000E+00 0. -1.
<scales pt_clust_5="13000.00000" pt_clust_6="13000.00000" pt_clust_7="13000.00000" pt_clust_8="13000.00000" pt_clust_9="57.21923" pt_clust_10="39.78633"></scales>
<clustering>
<clus scale="   39.786">  1 10  2 -1</clus>
<clus scale="   57.219">  2  9  1 -1</clus>
<clus scale="   80.403">  5  6 -1 -1</clus>
<clus scale="   91.030">  7  8 -1 -1</clus>
<clus scale="  156.756">  1  5  2 -1</clus>
<clus scale="   39.786">  1  5  2 -1</clus>
</clustering>
</event>
<event>
10    4  0.3738096E-005  0.1254630E+03  0.7546771E-02  0.1251788E+00
         21   -1    0    0  503  502  0.00000000000E+00  0.00000000000E+00  0.41286592185E+03  0.41286592185E+03  0.00000000000E+00 0. -1.
         -1   -1    0    0    0  501 -0.00000000000E+00 -0.00000000000E+00 -0.18272524761E+03  0.18272524761E+03  0.00000000000E+00 0.  1.
         23    2    1    2    0    0  0.35307565772E+02  0.69808512236E+01 -0.80628948259E+02  0.12290968564E+03  0.85500918372E+02 0.  0.
         24    2    1    2    0    0  0.68042808557E+02 -0.60824410709E+02  0.30801949795E+03  0.33162582450E+03  0.82281490178E+02 0.  0.
        -13    1    4    4    0    0  0.52890926767E+02  0.52535365633E+00  0.87634858996E+02  0.10236012232E+03  0.00000000000E+00 0.  1.
         14    1    4    4    0    0  0.15151881789E+02 -0.61349764365E+02  0.22038463895E+03  0.22926570218E+03  0.00000000000E+00 0. -1.
        -11    1    3    3    0    0  0.35882972293E+02 -0.29698897762E+02 -0.71115496675E+02  0.85011917377E+02  0.00000000000E+00 0.  1.
         11    1    3    3    0    0 -0.57540652114E+00  0.36679748986E+02 -0.95134515844E+01  0.37897768263E+02  0.00000000000E+00 0. -1.
         21    1    1    2  503  501 -0.22540240694E+02 -0.18778408286E+02 -0.11432951682E+02  0.31486559870E+02  0.00000000000E+00 0.  1.
         -2    1    1    2    0  502 -0.80810133635E+02  0.72621967771E+02  0.14183076236E+02  0.10956909944E+03  0.00000000000E+00 0.  1.
<scales pt_clust_5="13000.00000" pt_clust_6="13000.00000" pt_clust_7="13000.00000" pt_clust_8="13000.00000" pt_clust_9="29.33754" pt_clust_10="94.71396"></scales>
<clustering>
<clus scale="   29.338">  2  9  1 -1</clus>
<clus scale="   82.281">  5  6 -1 -1</clus>
<clus scale="   85.501">  7  8 -1 -1</clus>
<clus scale="   88.196">  2  7  1 -1</clus>
<clus scale="   94.714">  1 10  2 -1</clus>
<clus scale="   94.714">  1  5  2 -1</clus>
</clustering>
</event>
<event>
10    4  0.3738096E-005  0.4493129E+03  0.7546771E-02  0.1028124E+00
          2   -1    0    0  503    0 -0.00000000000E+00  0.00000000000E+00  0.13129085746E+04  0.13129085746E+04  0.00000000000E+00 0. -1.
         21   -1    0    0  501  502  0.00000000000E+00 -0.00000000000E+00 -0.20031401911E+03  0.20031401911E+03  0.00000000000E+00 0. -1.
         24    2    1    2    0    0  0.24455110659E+03 -0.34013821042E+03  0.41029302436E+03  0.59154320071E+03  0.77998375298E+02 0.  0.
         23    2    1    2    0    0 -0.26194272784E+03  0.38397392099E+03  0.45532977436E+03  0.65712749999E+03  0.91877000141E+02 0.  0.
        -13    1    3    3    0    0  0.10540056842E+03 -0.15022280265E+03  0.23422335835E+03  0.29755125921E+03  0.00000000000E+00 0.  1.
         14    1    3    3    0    0  0.13915053818E+03 -0.18991540776E+03  0.17606966601E+03  0.29399194150E+03  0.00000000000E+00 0. -1.
        -13    1    4    4    0    0 -0.17542938773E+03  0.31399477680E+03  0.31563962882E+03  0.47853585574E+03  0.00000000000E+00 0. -1.
         13    1    4    4    0    0 -0.86513340102E+02  0.69979144186E+02  0.13969014554E+03  0.17859164425E+03  0.00000000000E+00 0.  1.
         21    1    1    2  503  502 -0.23224412206E+02  0.36320710980E+01  0.26610151416E+02  0.35505850520E+02  0.00000000000E+00 0.  1.
          1    1    1    2  501    0  0.40616033451E+02 -0.47467781672E+02  0.22036160537E+03  0.22904604251E+03  0.00000000000E+00 0. -1.
<scales pt_clust_5="13000.00000" pt_clust_6="13000.00000" pt_clust_7="13000.00000" pt_clust_8="13000.00000" pt_clust_9="23.50671" pt_clust_10="59.40272"></scales>
<clustering>
<clus scale="   23.507">  1  9  2 -1</clus>
<clus scale="   59.403">  2 10  1 -1</clus>
<clus scale="   77.998">  5  6 -1 -1</clus>
<clus scale="   91.877">  7  8 -1 -1</clus>
<clus scale="  446.682">  1  5  2 -1</clus>
<clus scale="   59.403">  2  5  1 -1</clus>
</clustering>
</event>
<event>
10    4  0.3738096E-005  0.1163335E+03  0.7546771E-02  0.1253489E+00
         21   -1    0    0  503  502  0.00000000000E+00  0.00000000000E+00  0.12549796662E+03  0.12549796662E+03  0.00000000000E+00 0. -1.
         -3   -1    0    0    0  501 -0.00000000000E+00 -0.00000000000E+00 -0.71146525309E+03  0.71146525309E+03  0.00000000000E+00 0.  1.
         24    2    1    2    0    0 -0.94417935914E+02  0.47976457584E+01 -0.58482984959E+03  0.59768510480E+03  0.79143966931E+02 0.  0.
         23    2    1    2    0    0  0.32387789674E+02  0.29660718449E+02  0.45558396279E+02  0.11118743954E+03  0.91424023656E+02 0.  0.
        -13    1    3    3    0    0 -0.64096361728E+02  0.36588072760E+02 -0.27399326823E+03  0.28375930239E+03  0.00000000000E+00 0.  1.
         14    1    3    3    0    0 -0.30321574186E+02 -0.31790427001E+02 -0.31083658136E+03  0.31392580242E+03  0.00000000000E+00 0. -1.
        -11    1    4    4    0    0 -0.28682331663E+01  0.56645872183E+02  0.29840322832E+02  0.64089207076E+02  0.00000000000E+00 0. -1.
         11    1    4    4    0    0  0.35256022840E+02 -0.26985153734E+02  0.15718073448E+02  0.47098232467E+02  0.00000000000E+00 0.  1.
         21    1    1    2  503  501  0.21054152296E+02  0.20792720882E+01 -0.66456182714E+02  0.69742561771E+02  0.00000000000E+00 0. -1.
         -4    1    1    2    0  502  0.40975993944E+02 -0.36537636296E+02  0.19760349562E+02  0.58348113599E+02  0.00000000000E+00 0.  1.
<scales pt_clust_5="13000.00000" pt_clust_6="13000.00000" pt_clust_7="13000.00000" pt_clust_8="13000.00000" pt_clust_9="21.15658" pt_clust_10="55.33191"></scales>
<clustering>
<clus scale="   21.157">  2  9  1 -1</clus>
<clus scale="   55.332">  1 10  2 -1</clus>
<clus scale="   79.144">  5  6 -1 -1</clus>
<clus scale="   91.424">  7  8 -1 -1</clus>
<clus scale="  106.953">  2  5  1 -1</clus>
<clus scale="   55.332">  1  5  2 -1</clus>
</clustering>
</event>
<event>
10    4  0.3738096E-005  0.1288962E+03  0.7546771E-02  0.1231983E+00
          4   -1    0    0  503    0 -0.00000000000E+00  0.00000000000E+00  0.53766939147E+03  0.53766939147E+03  0.00000000000E+00 0. -1.
         21   -1    0    0  501  502  0.00000000000E+00 -0.00000000000E+00 -0.13736687924E+03  0.13736687924E+03  0.00000000000E+00 0.  1.
         23    2    1    2    0    0  0.46786857630E+02 -0.54651215608E+02  0.24178786248E+03  0.26810932331E+03  0.90804589031E+02 0.  0.
         24    2    1    2    0    0 -0.43451819184E+02  0.59542134874E+02  0.10050092017E+02  0.10916950620E+03  0.79897749150E+02 0.  0.
        -13    1    4    4    0    0  0.69096066899E+01  0.56792364681E+02 -0.22482706662E+01  0.57255306057E+02  0.00000000000E+00 0.  1.
         14    1    4    4    0    0 -0.50361425874E+02  0.27497701937E+01  0.12298362683E+02  0.51914200146E+02  0.00000000000E+00 0. -1.
        -13    1    3    3    0    0  0.73845927566E+02 -0.43960777190E+02  0.19363060885E+03  0.21184565994E+03  0.00000000000E+00 0. -1.
         13    1    3    3    0    0 -0.27059069936E+02 -0.10690438418E+02  0.48157253629E+02  0.56263663376E+02  0.00000000000E+00 0.  1.
         21    1    1    2  503  502  0.35289430106E+02 -0.20522421627E+02  0.21522419103E+03  0.21906155772E+03  0.00000000000E+00 0. -1.
          3    1    1    2  501    0 -0.38624468552E+02  0.15631502360E+02 -0.66759633302E+02  0.78695883473E+02  0.00000000000E+00 0. -1.
<scales pt_clust_5="13000.00000" pt_clust_6="13000.00000" pt_clust_7="13000.00000" pt_clust_8="13000.00000" pt_clust_9="40.82296" pt_clust_10="40.91535"></scales>
<clustering>
<clus scale="   40.823">  1  9  2 -1</clus>
<clus scale="   40.915">  2 10  1 -1</clus>
<clus scale="   79.898">  5  6 -1 -1</clus>
<clus scale="   90.805">  7  8 -1 -1</clus>
<clus scale="  121.459">  2  5  1 -1</clus>
<clus scale="   40.915">  2  5  1 -1</clus>
</clustering>
</event>
<event>
10    4  0.3738096E-005  0.1513024E+03  0.7546771E-02  0.1199834E+00
          2   -1    0    0  503    0 -0.00000000000E+00  0.00000000000E+00  0.13183675600E+04  0.13183675600E+04  0.00000000000E+00 0. -1.
         21   -1    0    0  501  502  0.00000000000E+00 -0.00000000000E+00 -0.37740828492E+02  0.37740828492E+02  0.00000000000E+00 0.  1.
         24    2    1    2    0    0 -0.80401695272E+02  0.38107416697E+02  0.34039753501E+03  0.36217320600E+03  0.85920553393E+02 0.  0.
         23    2    1    2    0    0  0.15990155335E+03 -0.36346889458E+02  0.42182886274E+03  0.46167122183E+03  0.91165368912E+02 0.  0.
        -11    1    3    3    0    0 -0.27826793981E+02  0.60158626536E+02  0.16850939873E+03  0.18107680213E+03  0.00000000000E+00 0.  1.
         12    1    3    3    0    0 -0.52574901290E+02 -0.22051209839E+02  0.17188813628E+03  0.18109640387E+03  0.00000000000E+00 0. -1.
        -13    1    4    4    0    0  0.37538668895E+02 -0.51683096576E+02  0.12957844489E+03  0.14446753101E+03  0.00000000000E+00 0.  1.
         13    1    4    4    0    0  0.12236288445E+03  0.15336207118E+02  0.29225041784E+03  0.31720369082E+03  0.00000000000E+00 0. -1.
         21    1    1    2  503  502 -0.24742715476E+02  0.34289933960E+02  0.33177018845E+03  0.33445397215E+03  0.00000000000E+00 0. -1.
          1    1    1    2  501    0 -0.54757142600E+02 -0.36050461199E+02  0.18663014533E+03  0.19780998854E+03  0.00000000000E+00 0. -1.
<scales pt_clust_5="13000.00000" pt_clust_6="13000.00000" pt_clust_7="13000.00000" pt_clust_8="13000.00000" pt_clust_9="42.28477" pt_clust_10="66.42549"></scales>
<clustering>
<clus scale="   42.285">  1  9  2 -1</clus>
<clus scale="   66.425">  2 10  1 -1</clus>
<clus scale="   85.921">  5  6 -1 -1</clus>
<clus scale="   91.165">  7  8 -1 -1</clus>
<clus scale="  148.201">  1  5  2 -1</clus>
<clus scale="   66.425">  2  5  1 -1</clus>
</clustering>
</event>
<event>
10    4  0.3738096E-005  0.1859311E+03  0.7546771E-02  0.1163439E+00
          2   -1    0    0  503    0 -0.00000000000E+00  0.00000000000E+00  0.34603172902E+03  0.34603172902E+03  0.00000000000E+00 0. -1.
         21   -1    0    0  501  502  0.00000000000E+00 -0.00000000000E+00 -0.14303495748E+03  0.14303495748E+03  0.00000000000E+00 0. -1.
         23    2    1    2    0    0 -0.12272771615E+03 -0.10362023132E+03  0.87816125011E+02  0.20408136410E+03  0.90212453192E+02 0.  0.
         24    2    1    2    0    0  0.95740671572E+02  0.13395714772E+03  0.38791384621E+02  0.18654683182E+03  0.78639400589E+02 0.  0.
        -13    1    4    4    0    0  0.47435080155E+02  0.47625427645E+02  0.54301215422E+02  0.86411169324E+02  0.00000000000E+00 0.  1.
         14    1    4    4    0    0  0.48305591418E+02  0.86331720071E+02 -0.15509830801E+02  0.10013566250E+03  0.00000000000E+00 0. -1.
        -11    1    3    3    0    0 -0.41550786630E+02 -0.14712721442E+02  0.69506747767E+02  0.82305042536E+02  0.00000000000E+00 0.  1.
         11    1    3    3    0    0 -0.81176929516E+02 -0.88907509873E+02  0.18309377245E+02  0.12177632156E+03  0.00000000000E+00 0. -1.
         21    1    1    2  503  502 -0.10048088213E+01 -0.20880385658E+02  0.62283314850E+02  0.65697880139E+02  0.00000000000E+00 0.  1.
          1    1    1    2  501    0  0.27991853395E+02 -0.94565307420E+01  0.14105947058E+02  0.32740610449E+02  0.00000000000E+00 0. -1.
<scales pt_clust_5="13000.00000" pt_clust_6="13000.00000" pt_clust_7="13000.00000" pt_clust_8="13000.00000" pt_clust_9="20.90455" pt_clust_10="30.06842"></scales>
<clustering>
<clus scale="   20.905">  1  9  2 -1</clus>
<clus scale="   30.068">  2 10  1 -1</clus>
<clus scale="   78.639">  5  6 -1 -1</clus>
<clus scale="   90.212">  7  8 -1 -1</clus>
<clus scale="  180.600">  2  5  1 -1</clus>
<clus scale="   30.068">  2  5  1 -1</clus>
</clustering>
</event>
<event>
10    4  0.3738096E-005  0.2328687E+03  0.7546771E-02  0.1125098E+00
          2   -1    0    0  503    0 -0.00000000000E+00  0.00000000000E+00  0.23343746090E+03  0.23343746090E+03  0.00000000000E+00 0. -1.
         21   -1    0    0  501  502  0.00000000000E+00 -0.00000000000E+00 -0.10065757540E+04  0.10065757540E+04  0.00000000000E+00 0.  1.
         23    2    1    2    0    0  0.19301590234E+03  0.10147512459E+03 -0.62768296877E+03  0.67054630884E+03  0.89967235967E+02 0.  0.
         24    2    1    2    0    0  0.21776436141E+02 -0.19851121610E+03  0.35508140512E+02  0.21811394871E+03  0.80199441979E+02 0.  0.
        -13    1    4    4    0    0  0.13798286740E+02 -0.18824388938E+02 -0.19082828362E+02  0.30148045942E+02  0.00000000000E+00 0.  1.
         14    1    4    4    0    0  0.79781494010E+01 -0.17968682716E+03  0.54590968873E+02  0.18796590277E+03  0.00000000000E+00 0. -1.
        -13    1    3    3    0    0  0.50367670423E+02  0.56910137021E+02 -0.12667322431E+03  0.14772194041E+03  0.00000000000E+00 0. -1.
         13    1    3    3    0    0  0.14264823191E+03  0.44564987568E+02 -0.50100974446E+03  0.52282436844E+03  0.00000000000E+00 0.  1.
         21    1    1    2  503  502  0.11503176827E+01 -0.43501534582E+02 -0.26640638288E+02  0.51023821399E+02  0.00000000000E+00 0. -1.
          1    1    1    2  501    0 -0.21594265616E+03  0.14053762609E+03 -0.15432282653E+03  0.30032913592E+03  0.00000000000E+00 0. -1.
<scales pt_clust_5="13000.00000" pt_clust_6="13000.00000" pt_clust_7="13000.00000" pt_clust_8="13000.00000" pt_clust_9="43.51674" pt_clust_10="217.20675"></scales>
<clustering>
<clus scale="   43.517">  1  9  2 -1</clus>
<clus scale="   80.199">  5  6 -1 -1</clus>
<clus scale="   89.967">  7  8 -1 -1</clus>
<clus scale="  234.205">  1  7  2 -1</clus>
<clus scale="  217.207">  2 10  1 -1</clus>
<clus scale="  217.207">  2  5  1 -1</clus>
</clustering>
</event>
<event>
10    4  0.3738096E-005  0.2134875E+03  0.7546771E-02  0.1139741E+00
         21   -1    0    0  501  502  0.00000000000E+00  0.00000000000E+00  0.12632791639E+03  0.12632791639E+03  0.00000000000E+00 0. -1.
          2   -1    0    0  503    0 -0.00000000000E+00 -0.00000000000E+00 -0.64708534697E+03  0.64708534697E+03  0.00000000000E+00 0. -1.
         23    2    1    2    0    0 -0.18093615877E+03  0.87659487561E+02 -0.28339004070E+03  0.35954943417E+03  0.92432684376E+02 0.  0.
         24    2    1    2    0    0  0.19837156527E+03 -0.32936911558E+02 -0.12577245118E+03  0.25068942120E+03  0.81181022249E+02 0.  0.
        -13    1    4    4    0    0  0.23347319581E+02 -0.30994017587E+02 -0.40141518753E+02  0.55830708267E+02  0.00000000000E+00 0.  1.
         14    1    4    4    0    0  0.17502424569E+03 -0.19428939709E+01 -0.85630932425E+02  0.19485871293E+03  0.00000000000E+00 0. -1.
        -11    1    3    3    0    0 -0.22239214342E+02  0.51517026324E+02 -0.97329988762E+02  0.11234639900E+03  0.00000000000E+00 0.  1.
         11    1    3    3    0    0 -0.15869694443E+03  0.36142461237E+02 -0.18606005193E+03  0.24720303517E+03  0.00000000000E+00 0. -1.
         21    1    1    2  503  502  0.29176236734E+02  0.28939807099E+01 -0.74988367875E+02  0.80516353810E+02  0.00000000000E+00 0.  1.
          1    1    1    2  501    0 -0.46611643239E+02 -0.57616556713E+02 -0.36606570825E+02  0.82658054178E+02  0.00000000000E+00 0. -1.
<scales pt_clust_5="13000.00000" pt_clust_6="13000.00000" pt_clust_7="13000.00000" pt_clust_8="13000.00000" pt_clust_9="29.31941" pt_clust_10="71.98562"></scales>
<clustering>
<clus scale="   29.319">  2  9  1 -1</clus>
<clus scale="   71.986">  1 10  2 -1</clus>
<clus scale="   81.181">  5  6 -1 -1</clus>
<clus scale="   92.433">  7  8 -1 -1</clus>
<clus scale="  208.862">  1  5  2 -1</clus>
<clus scale="   71.986">  1  5  2 -1</clus>
</clustering>
</event>
<event>
10    4  0.3738096E-005  0.1360591E+03  0.7546771E-02  0.1220445E+00
          2   -1    0    0  503    0 -0.00000000000E+00  0.00000000000E+00  0.91155770109E+03  0.91155770109E+03  0.00000000000E+00 0. -1.
         21   -1    0    0  501  502  0.00000000000E+00 -0.00000000000E+00 -0.81043973031E+02  0.81043973031E+02  0.00000000000E+00 0. -1.
         24    2    1    2    0    0  0.28189254192E+02 -0.10978446625E+03  0.78068648278E+03  0.79296786110E+03  0.80494603944E+02 0.  0.
         23    2    1    2    0    0  0.12392875828E+02  0.87791615480E+02  0.14635701482E+02  0.12585869179E+03  0.88120686685E+02 0.  0.
        -11    1    3    3    0    0  0.45909315925E+02 -0.50669506307E+02  0.26817781552E+03  0.27675694191E+03  0.00000000000E+00 0.  1.
         12    1    3    3    0    0 -0.17720061734E+02 -0.59114959942E+02  0.51250866726E+03  0.51621091920E+03  0.00000000000E+00 0. -1.
        -13    1    4    4    0    0 -0.11303852010E+02  0.98376329818E+02  0.12674092165E+02  0.99831417655E+02  0.00000000000E+00 0.  1.
         13    1    4    4    0    0  0.23696727838E+02 -0.10584714339E+02  0.19616093164E+01  0.26027274136E+02  0.00000000000E+00 0. -1.
         21    1    1    2  503  502 -0.25033167507E+02  0.40630597995E+01  0.42019509985E+02  0.49079600138E+02  0.00000000000E+00 0. -1.
          1    1    1    2  501    0 -0.15548962512E+02  0.17929790970E+02 -0.68279661906E+01  0.24695521087E+02  0.00000000000E+00 0. -1.
<scales pt_clust_5="13000.00000" pt_clust_6="13000.00000" pt_clust_7="13000.00000" pt_clust_8="13000.00000" pt_clust_9="26.35884" pt_clust_10="23.73284"></scales>
<clustering>
<clus scale="   23.733">  2 10  1 -1</clus>
<clus scale="   26.359">  1  9  2 -1</clus>
<clus scale="   80.495">  5  6 -1 -1</clus>
<clus scale="   88.121">  7  8 -1 -1</clus>
<clus scale="  131.249">  1  5  2 -1</clus>
<clus scale="   23.733">  2  5  1 -1</clus>
</clustering>
</event>
<event>
10    4  0.6120441E-005  0.2798169E+03  0.7546771E-02  0.1141113E+00
         21   -1    0    0  501  502  0.00000000000E+00  0.00000000000E+00  0.14460441367E+03  0.14460441367E+03  0.00000000000E+00 0. -1.
          2   -1    0    0  503    0 -0.00000000000E+00 -0.00000000000E+00 -0.17333223624E+04  0.17333223624E+04  0.00000000000E+00 0. -1.
         24    2    1    2    0    0 -0.37481969579E+02 -0.37776649168E+02 -0.81323631297E+03  0.81893300040E+03  0.80411349635E+02 0.  0.
         23    2    1    2    0    0 -0.14102111708E+03  0.23058960375E+03 -0.65968353303E+03  0.71859365953E+03  0.90199572877E+02 0.  0.
        -11    1    3    3    0    0  0.87386418977E+01 -0.19841177835E+02 -0.55617859945E+02  0.59694074622E+02  0.00000000000E+00 0.  1.
         12    1    3    3    0    0 -0.46220611476E+02 -0.17935471332E+02 -0.75761845302E+03  0.75923892578E+03  0.00000000000E+00 0. -1.
        -13    1    4    4    0    0 -0.12350638814E+03  0.21421141852E+03 -0.64426426481E+03  0.69008463441E+03  0.00000000000E+00 0. -1.
         13    1    4    4    0    0 -0.17514728934E+02  0.16378185229E+02 -0.15419268225E+02  0.28509025126E+02  0.00000000000E+00 0.  1.
         21    1    1    2  503  502  0.20265610240E+02  0.18329755308E+02 -0.66611065237E+02  0.71997978444E+02  0.00000000000E+00 0. -1.
          1    1    1    2  501    0  0.15823747642E+03 -0.21114270989E+03 -0.49187037532E+02  0.26840213774E+03  0.00000000000E+00 0. -1.
<scales pt_clust_5="13000.00000" pt_clust_6="13000.00000" pt_clust_7="13000.00000" pt_clust_8="13000.00000" pt_clust_9="27.32535" pt_clust_10="264.88025"></scales>
<clustering>
<clus scale="   27.325">  2  9  1 -1</clus>
<clus scale="   80.411">  5  6 -1 -1</clus>
<clus scale="   89.740">  2  5  1 -1</clus>
<clus scale="   90.200">  7  8 -1 -1</clus>
<clus scale="  264.880">  1 10  2 -1</clus>
<clus scale="  264.880">  1  5  2 -1</clus>
</clustering>
</event>
<event>
10    4  0.3738096E-005  0.9757486E+02  0.7546771E-02  0.1293351E+00
          2   -1    0    0  503    0 -0.00000000000E+00  0.00000000000E+00  0.28471973849E+03  0.28471973849E+03  0.00000000000E+00 0. -1.
         21   -1    0    0  501  502  0.00000000000E+00 -0.00000000000E+00 -0.62062031009E+02  0.62062031009E+02  0.00000000000E+00 0.  1.
         24    2    1    2    0    0  0.34945552839E+01  0.31151859543E+02  0.11348414603E+03  0.14075752971E+03  0.77145191034E+02 0.  0.
         23    2    1    2    0    0  0.18807287627E+02 -0.20573835650E+02  0.33391532354E+02  0.10137275582E+03  0.91566611860E+02 0.  0.
        -13    1    3    3    0    0 -0.17626883729E+02  0.50007236409E+02  0.87591624897E+02  0.10239005555E+03  0.00000000000E+00 0.  1.
         14    1    3    3    0    0  0.21121439012E+02 -0.18855376866E+02  0.25892521135E+02  0.38367474160E+02  0.00000000000E+00 0. -1.
        -13    1    4    4    0    0  0.43469168683E+02 -0.36650654040E+02  0.42014084012E+02  0.70696692447E+02  0.00000000000E+00 0. -1.
         13    1    4    4    0    0 -0.24661881056E+02  0.16076818390E+02 -0.86225516578E+01  0.30676063369E+02  0.00000000000E+00 0.  1.
         21    1    1    2  503  502 -0.28112411425E+02  0.13008408901E+02  0.74085606362E+02  0.80300706400E+02  0.00000000000E+00 0.  1.
          1    1    1    2  501    0  0.58105685143E+01 -0.23586432794E+02  0.16964227334E+01  0.24350777575E+02  0.00000000000E+00 0. -1.
<scales pt_clust_5="13000.00000" pt_clust_6="13000.00000" pt_clust_7="13000.00000" pt_clust_8="13000.00000" pt_clust_9="30.06898" pt_clust_10="24.29161"></scales>
<clustering>
<clus scale="   24.292">  2 10  1 -1</clus>
<clus scale="   30.069">  1  9  2 -1</clus>
<clus scale="   77.145">  5  6 -1 -1</clus>
<clus scale="   84.189">  1  5  2 -1</clus>
<clus scale="   91.567">  7  8 -1 -1</clus>
<clus scale="   24.292">  2  5  1 -1</clus>
</clustering>
</event>
<event>
10    4  0.3738096E-005  0.1130476E+03  0.7546771E-02  0.1258953E+00
          2   -1    0    0  503    0 -0.00000000000E+00  0.00000000000E+00  0.10156769333E+04  0.10156769333E+04  0.00000000000E+00 0. -1.
         21   -1    0    0  501  502  0.00000000000E+00 -0.00000000000E+00 -0.31015359426E+02  0.31015359426E+02  0.00000000000E+00 0.  1.
         23    2    1    2    0    0  0.40265789003E+02 -0.78061207119E+02  0.41390629254E+03  0.43294751844E+03  0.91707409179E+02 0.  0.
         24    2    1    2    0    0  0.14750555577E+02  0.55844242069E+02  0.18837896923E+03  0.21306710507E+03  0.81085121651E+02 0.  0.
        -13    1    4    4    0    0  0.42514864882E+02  0.25592681924E+02  0.57775790843E+02  0.76161283547E+02  0.00000000000E+00 0.  1.
         14    1    4    4    0    0 -0.27764309306E+02  0.30251560145E+02  0.13060317838E+03  0.13690582152E+03  0.00000000000E+00 0. -1.
        -11    1    3    3    0    0  0.53348779084E+02 -0.22834066509E+02  0.11625485427E+03  0.12993335971E+03  0.00000000000E+00 0.  1.
         11    1    3    3    0    0 -0.13082990081E+02 -0.55227140610E+02  0.29765143826E+03  0.30301415873E+03  0.00000000000E+00 0. -1.
         21    1    1    2  503  502 -0.71552332617E+02  0.91935815831E+01  0.36843385367E+03  0.37543010372E+03  0.00000000000E+00 0. -1.
          1    1    1    2  501    0  0.16535988038E+02  0.13023383467E+02  0.13942458472E+02  0.25247565537E+02  0.00000000000E+00 0. -1.
<scales pt_clust_5="13000.00000" pt_clust_6="13000.00000" pt_clust_7="13000.00000" pt_clust_8="13000.00000" pt_clust_9="70.13797" pt_clust_10="21.04869"></scales>
<clustering>
<clus scale="   21.049">  2 10  1 -1</clus>
<clus scale="   70.138">  1  9  2 -1</clus>
<clus scale="   81.085">  5  6 -1 -1</clus>
<clus scale="   91.707">  7  8 -1 -1</clus>
<clus scale="  104.615">  2  5  1 -1</clus>
<clus scale="   21.049">  2  5  1 -1</clus>
</clustering>
</event>
<event>
10    4  0.3738096E-005  0.9362140E+02  0.7546771E-02  0.1299787E+00
         21   -1    0    0  503  502  0.00000000000E+00  0.00000000000E+00  0.44021866403E+03  0.44021866403E+03  0.00000000000E+00 0.  1.
         -3   -1    0    0    0  501 -0.00000000000E+00 -0.00000000000E+00 -0.14072618928E+03  0.14072618928E+03  0.00000000000E+00 0.  1.
         24    2    1    2    0    0  0.57656584574E+02 -0.12181430372E+02 -0.64314645529E+02  0.11916202353E+03  0.81182173117E+02 0.  0.
         23    2    1    2    0    0  0.19295054160E+02 -0.12318328636E+02  0.30057546416E+03  0.31475255323E+03  0.90551199736E+02 0.  0.
        -13    1    3    3    0    0  0.74253651067E+02  0.49078410590E+01 -0.37623347525E+02  0.83385897367E+02  0.00000000000E+00 0.  1.
         14    1    3    3    0    0 -0.16597066494E+02 -0.17089271431E+02 -0.26691298004E+02  0.35776126165E+02  0.00000000000E+00 0. -1.
        -13    1    4    4    0    0  0.42672189931E+02  0.23109649560E+02  0.19538306370E+03  0.20131943095E+03  0.00000000000E+00 0.  1.
         13    1    4    4    0    0 -0.23377135771E+02 -0.35427978196E+02  0.10519240046E+03  0.11343312228E+03  0.00000000000E+00 0. -1.
         21    1    1    2  503  501 -0.45705297540E+02  0.38275684987E+02 -0.15169411385E+02  0.61515147129E+02  0.00000000000E+00 0.  1.
         -4    1    1    2    0  502 -0.31246341193E+02 -0.13775925979E+02  0.78401067503E+02  0.85515129423E+02  0.00000000000E+00 0.  1.
<scales pt_clust_5="13000.00000" pt_clust_6="13000.00000" pt_clust_7="13000.00000" pt_clust_8="13000.00000" pt_clust_9="60.62521" pt_clust_10="34.14835"></scales>
<clustering>
<clus scale="   34.148">  1 10  2 -1</clus>
<clus scale="   60.625">  2  9  1 -1</clus>
<clus scale="   81.182">  5  6 -1 -1</clus>
<clus scale="   84.593">  2  5  1 -1</clus>
<clus scale="   90.551">  7  8 -1 -1</clus>
<clus scale="   34.148">  1  5  2 -1</clus>
</clustering>
</event>
<event>
10    4  0.3738096E-005  0.1591455E+03  0.7546771E-02  0.1198531E+00
         21   -1    0    0  501  502  0.00000000000E+00  0.00000000000E+00  0.49345181587E+03  0.49345181587E+03  0.00000000000E+00 0. -1.
          2   -1    0    0  503    0 -0.00000000000E+00 -0.00000000000E+00 -0.16503259339E+03  0.16503259339E+03  0.00000000000E+00 0. -1.
         23    2    1    2    0    0  0.39663443479E+02  0.75596653645E+02  0.24737733639E+03  0.27871775312E+03  0.95916612489E+02 0.  0.
         24    2    1    2    0    0  0.88709051014E+02 -0.17336309235E+02 -0.16374147362E+02  0.12273536807E+03  0.81400334914E+02 0.  0.
        -11    1    4    4    0    0  0.31848408707E+02  0.31280768166E+02 -0.17412740790E+02  0.47916710405E+02  0.00000000000E+00 0.  1.
         12    1    4    4    0    0  0.56860642307E+02 -0.48617077401E+02  0.10385934286E+01  0.74818657666E+02  0.00000000000E+00 0. -1.
        -11    1    3    3    0    0  0.52639207692E+01 -0.22960902201E+02  0.55271891651E+02  0.60082392582E+02  0.00000000000E+00 0.  1.
         11    1    3    3    0    0  0.34399522709E+02  0.98557555847E+02  0.19210544474E+03  0.21863536054E+03  0.00000000000E+00 0. -1.
         21    1    1    2  503  502  0.31455234356E+02  0.20370095484E+02 -0.21173302669E+02  0.43042784579E+02  0.00000000000E+00 0. -1.
          1    1    1    2  501    0 -0.15982772885E+03 -0.78630439894E+02  0.11858933612E+03  0.21398850350E+03  0.00000000000E+00 0. -1.
<scales pt_clust_5="13000.00000" pt_clust_6="13000.00000" pt_clust_7="13000.00000" pt_clust_8="13000.00000" pt_clust_9="37.47496" pt_clust_10="136.75262"></scales>
<clustering>
<clus scale="   37.475">  2  9  1 -1</clus>
<clus scale="   81.400">  5  6 -1 -1</clus>
<clus scale="   95.917">  7  8 -1 -1</clus>
<clus scale="  131.015">  2  7  1 -1</clus>
<clus scale="  136.753">  1 10  2 -1</clus>
<clus scale="  136.753">  1  5  2 -1</clus>
</clustering>
</event>
<event>
10    4  0.3738096E-005  0.2133025E+03  0.7546771E-02  0.1139943E+00
          2   -1    0    0  503    0 -0.00000000000E+00  0.00000000000E+00  0.13442368221E+04  0.13442368221E+04  0.00000000000E+00 0. -1.
         21   -1    0    0  501  502  0.00000000000E+00 -0.00000000000E+00 -0.13011257737E+03  0.13011257737E+03  0.00000000000E+00 0.  1.
         24    2    1    2    0    0 -0.13624013382E+03 -0.10389659274E+03  0.11573825106E+04  0.11727513623E+04  0.80346785778E+02 0.  0.
         23    2    1    2    0    0  0.16362441292E+03  0.81796072978E+02 -0.11294534988E+02  0.20523045915E+03  0.92349492617E+02 0.  0.
        -13    1    3    3    0    0 -0.37511867022E+02  0.78425957786E+01  0.17757398327E+03  0.18166223055E+03  0.00000000000E+00 0.  1.
         14    1    3    3    0    0 -0.98728266794E+02 -0.11173918852E+03  0.97980852728E+03  0.99108913174E+03  0.00000000000E+00 0. -1.
        -13    1    4    4    0    0  0.84847937850E+02  0.57715857755E+02 -0.50075590308E+02  0.11418343811E+03  0.00000000000E+00 0.  1.
         13    1    4    4    0    0  0.78776475066E+02  0.24080215223E+02  0.38781055321E+02  0.91047021043E+02  0.00000000000E+00 0. -1.
         21    1    1    2  503  502 -0.18419762283E+02 -0.17695518616E+02  0.37668894812E+02  0.45512247341E+02  0.00000000000E+00 0. -1.
          1    1    1    2  501    0 -0.89645168162E+01  0.39796038379E+02  0.30367374330E+02  0.50855330656E+02  0.00000000000E+00 0. -1.
<scales pt_clust_5="13000.00000" pt_clust_6="13000.00000" pt_clust_7="13000.00000" pt_clust_8="13000.00000" pt_clust_9="25.54249" pt_clust_10="40.38698"></scales>
<clustering>
<clus scale="   25.542">  1  9  2 -1</clus>
<clus scale="   40.387">  2 10  1 -1</clus>
<clus scale="   80.347">  5  6 -1 -1</clus>
<clus scale="   92.349">  7  8 -1 -1</clus>
<clus scale="  208.387">  1  5  2 -1</clus>
<clus scale="   40.387">  2  5  1 -1</clus>
</clustering>
</event>
<event>
10    4  0.3738096E-005  0.9467164E+02  0.7546771E-02  0.1298122E+00
          4   -1    0    0  503    0 -0.00000000000E+00  0.00000000000E+00  0.32848591542E+03  0.32848591542E+03  0.00000000000E+00 0. -1.
         21   -1    0    0  501  502  0.00000000000E+00 -0.00000000000E+00 -0.85338422971E+02  0.85338422971E+02  0.00000000000E+00 0. -1.
         24    2    1    2    0    0 -0.71407346980E+01 -0.26801526650E+02  0.59588340064E+02  0.10391109863E+03  0.80482508803E+02 0.  0.
         23    2    1    2    0    0 -0.67175584056E+02 -0.35302667856E+02  0.51876188482E+02  0.12951124037E+03  0.91231491274E+02 0.  0.
        -13    1    3    3    0    0 -0.12088411136E+02 -0.29119598533E+02 -0.10787539739E+02  0.33323440941E+02  0.00000000000E+00 0.  1.
         14    1    3    3    0    0  0.49476764381E+01  0.23180718828E+01  0.70375879803E+02  0.70587657685E+02  0.00000000000E+00 0. -1.
        -13    1    4    4    0    0  0.11860734895E+02 -0.37687135376E+02  0.14973477201E+02  0.42251653514E+02  0.00000000000E+00 0.  1.
         13    1    4    4    0    0 -0.79036318951E+02  0.23844675208E+01  0.36902711281E+02  0.87259586858E+02  0.00000000000E+00 0. -1.
         21    1    1    2  503  502  0.42905582128E+02 -0.26992170302E+01  0.83009269716E+02  0.93481086906E+02  0.00000000000E+00 0. -1.
          3    1    1    2  501    0  0.31410736626E+02  0.64803411536E+02  0.48673694191E+02  0.86920912491E+02  0.00000000000E+00 0. -1.
<scales pt_clust_5="13000.00000" pt_clust_6="13000.00000" pt_clust_7="13000.00000" pt_clust_8="13000.00000" pt_clust_9="42.99040" pt_clust_10="77.42890"></scales>
<clustering>
<clus scale="   42.990">  1  9  2 -1</clus>
<clus scale="   77.429">  2 10  1 -1</clus>
<clus scale="   80.483">  5  6 -1 -1</clus>
<clus scale="   84.362">  1  5  2 -1</clus>
<clus scale="   91.231">  7  8 -1 -1</clus>
<clus scale="   77.429">  2  5  1 -1</clus>
</clustering>
</event>
<event>
10    4  0.4400565E-005  0.1344103E+03  0.7546771E-02  0.1239611E+00
          2   -1    0    0  503    0 -0.00000000000E+00  0.00000000000E+00  0.10848274832E+04  0.10848274832E+04  0.00000000000E+00 0. -1.
         21   -1    0    0  501  502  0.00000000000E+00 -0.00000000000E+00 -0.84005544434E+02  0.84005544434E+02  0.00000000000E+00 0. -1.
         24    2    1    2    0    0  0.19984860243E+02  0.30341912093E+02  0.74468264578E+03  0.74979026957E+03  0.79455516803E+02 0.  0.
         23    2    1    2    0    0 -0.24766844977E+02  0.83223334220E+02  0.16715387654E+03  0.20834110936E+03  0.89028531596E+02 0.  0.
        -11    1    3    3    0    0  0.35458943085E+02  0.48031611584E+01  0.14447553216E+03  0.14884080890E+03  0.00000000000E+00 0.  1.
         12    1    3    3    0    0 -0.15474082841E+02  0.25538750935E+02  0.60020711362E+03  0.60094946067E+03  0.00000000000E+00 0. -1.
        -13    1    4    4    0    0  0.18168137780E+02  0.73922279636E+02  0.13071529289E+03  0.15126490820E+03  0.00000000000E+00 0.  1.
         13    1    4    4    0    0 -0.42934982757E+02  0.93010545843E+01  0.36438583653E+02  0.57076201164E+02  0.00000000000E+00 0. -1.
         21    1    1    2  503  502  0.25345920875E+02 -0.92181424582E+01  0.10019224275E+03  0.10375873632E+03  0.00000000000E+00 0. -1.
          1    1    1    2  501    0 -0.20563936142E+02 -0.10434710385E+03 -0.11206826307E+02  0.10694291238E+03  0.00000000000E+00 0. -1.
<scales pt_clust_5="13000.00000" pt_clust_6="13000.00000" pt_clust_7="13000.00000" pt_clust_8="13000.00000" pt_clust_9="26.97017" pt_clust_10="100.69776"></scales>
<clustering>
<clus scale="   26.970">  1  9  2 -1</clus>
<clus scale="   79.456">  5  6 -1 -1</clus>
<clus scale="   89.029">  7  8 -1 -1</clus>
<clus scale="   91.644">  1  5  2 -1</clus>
<clus scale="  100.698">  2 10  1 -1</clus>
<clus scale="  100.698">  2  5  1 -1</clus>
</clustering>
</event>
<event>
10    4  0.3738097E-005  0.2548115E+03  0.7546771E-02  0.1156459E+00
          4   -1    0    0  503    0 -0.00000000000E+00  0.00000000000E+00  0.48699474345E+03  0.48699474345E+03  0.00000000000E+00 0. -1.
         21   -1    0    0  501  502  0.00000000000E+00 -0.00000000000E+00 -0.21954536316E+03  0.21954536316E+03  0.00000000000E+00 0. -1.
         24    2    1    2    0    0 -0.61178554660E+01 -0.20763551290E+01  0.56714913897E+02  0.99946197166E+02  0.82042193190E+02 0.  0.
         23    2    1    2    0    0  0.78503033090E+02 -0.20938354941E+03  0.22159072756E+03  0.32766302009E+03  0.90864774421E+02 0.  0.
        -11    1    3    3    0    0 -0.39771055082E+02 -0.98423509889E+01  0.10578497895E+02  0.42314457495E+02  0.00000000000E+00 0.  1.
         12    1    3    3    0    0  0.33653199616E+02  0.77659958599E+01  0.46136416002E+02  0.57631739672E+02  0.00000000000E+00 0. -1.
        -11    1    4    4    0    0  0.49146502220E+02 -0.30854505990E+02  0.35044309201E+02  0.67789990616E+02  0.00000000000E+00 0.  1.
         11    1    4    4    0    0  0.29356530870E+02 -0.17852904342E+03  0.18654641835E+03  0.25987302948E+03  0.00000000000E+00 0. -1.
         21    1    1    2  503  502 -0.44906312551E+01 -0.22723007642E+02  0.23146021594E+02  0.32745063155E+02  0.00000000000E+00 0.  1.
          3    1    1    2  501    0 -0.67894546369E+02  0.23418291218E+03 -0.34002282755E+02  0.24618582619E+03  0.00000000000E+00 0. -1.
<scales pt_clust_5="13000.00000" pt_clust_6="13000.00000" pt_clust_7="13000.00000" pt_clust_8="13000.00000" pt_clust_9="23.16249" pt_clust_10="238.05989"></scales>
<clustering>
<clus scale="   23.162">  1  9  2 -1</clus>
<clus scale="   82.042">  5  6 -1 -1</clus>
<clus scale="   82.545">  1  5  2 -1</clus>
<clus scale="   90.865">  7  8 -1 -1</clus>
<clus scale="  238.060">  2 10  1 -1</clus>
<clus scale="  238.060">  2  5  1 -1</clus>
</clustering>
</event>
<event>
10    4  0.3738096E-005  0.1679839E+03  0.7546771E-02  0.1204578E+00
          2   -1    0    0  503    0 -0.00000000000E+00  0.00000000000E+00  0.94727256510E+02  0.94727256510E+02  0.00000000000E+00 0. -1.
         21   -1    0    0  501  502  0.00000000000E+00 -0.00000000000E+00 -0.10804449778E+04  0.10804449778E+04  0.00000000000E+00 0. -1.
         24    2    1    2    0    0 -0.57179509484E+02 -0.28694381124E+02  0.49270810712E+01  0.10293436942E+03  0.80488163519E+02 0.  0.
         23    2    1    2    0    0  0.13284260926E+03  0.11312701995E+03 -0.32577398376E+03  0.38078482901E+03  0.91779714714E+02 0.  0.
        -11    1    3    3    0    0 -0.31103974337E+02  0.25841127274E+02 -0.77418015331E+01  0.41172279137E+02  0.00000000000E+00 0.  1.
         12    1    3    3    0    0 -0.26075535147E+02 -0.54535508398E+02  0.12668882604E+02  0.61762090281E+02  0.00000000000E+00 0. -1.
        -13    1    4    4    0    0  0.10936228480E+02  0.58349983799E+02 -0.13874270468E+03  0.15091010505E+03  0.00000000000E+00 0.  1.
         13    1    4    4    0    0  0.12190638078E+03  0.54777036148E+02 -0.18703127908E+03  0.22987472396E+03  0.00000000000E+00 0. -1.
         21    1    1    2  503  502  0.69886104283E+01  0.19873792451E+02 -0.10225311413E+02  0.23417200848E+02  0.00000000000E+00 0.  1.
          1    1    1    2  501    0 -0.82651710206E+02 -0.10430643127E+03 -0.65464550717E+03  0.66803583502E+03  0.00000000000E+00 0. -1.
<scales pt_clust_5="13000.00000" pt_clust_6="13000.00000" pt_clust_7="13000.00000" pt_clust_8="13000.00000" pt_clust_9="21.06676" pt_clust_10="140.69491"></scales>
<clustering>
<clus scale="   21.067">  1  9  2 -1</clus>
<clus scale="   80.488">  5  6 -1 -1</clus>
<clus scale="   91.780">  7  8 -1 -1</clus>
<clus scale="   97.726">  1  5  2 -1</clus>
<clus scale="  140.695">  2 10  1 -1</clus>
<clus scale="  140.695">  2  5  1 -1</clus>
</clustering>
</event>
<event>
10    4  0.3738096E-005  0.1010552E+03  0.7546771E-02  0.1284459E+00
          2   -1    0    0  503    0 -0.00000000000E+00  0.00000000000E+00  0.22675043871E+03  0.22675043871E+03  0.00000000000E+00 0. -1.
         21   -1    0    0  501  502  0.00000000000E+00 -0.00000000000E+00 -0.18919724038E+03  0.18919724038E+03  0.00000000000E+00 0.  1.
         24    2    1    2    0    0  0.38848173897E+02 -0.21084077055E+00  0.13331569295E+03  0.15984297580E+03  0.79167404007E+02 0.  0.
         23    2    1    2    0    0 -0.50495261270E+02  0.15474611680E+02 -0.35903002269E+02  0.11197975728E+03  0.91984810980E+02 0.  0.
        -11    1    3    3    0    0  0.71058206591E+01 -0.32381336106E+02  0.22228391183E+02  0.39914220396E+02  0.00000000000E+00 0.  1.
         12    1    3    3    0    0  0.31742353238E+02  0.32170495335E+02  0.11108730176E+03  0.11992875540E+03  0.00000000000E+00 0. -1.
        -13    1    4    4    0    0 -0.55290717656E+02 -0.15197853875E+02 -0.51646232384E+02  0.77171053775E+02  0.00000000000E+00 0.  1.
         13    1    4    4    0    0  0.47954563854E+01  0.30672465555E+02  0.15743230116E+02  0.34808703504E+02  0.00000000000E+00 0. -1.
         21    1    1    2  503  502 -0.15770189245E+02 -0.39999762040E+02  0.26288674321E+02  0.50396172767E+02  0.00000000000E+00 0. -1.
          1    1    1    2  501    0  0.27417276618E+02  0.24735991130E+02 -0.86148166665E+02  0.93728773245E+02  0.00000000000E+00 0. -1.
<scales pt_clust_5="13000.00000" pt_clust_6="13000.00000" pt_clust_7="13000.00000" pt_clust_8="13000.00000" pt_clust_9="39.03161" pt_clust_10="36.92663"></scales>
<clustering>
<clus scale="   36.927">  2 10  1 -1</clus>
<clus scale="   39.032">  1  9  2 -1</clus>
<clus scale="   79.167">  5  6 -1 -1</clus>
<clus scale="   89.546">  1  5  2 -1</clus>
<clus scale="   91.985">  7  8 -1 -1</clus>
<clus scale="   36.927">  2  5  1 -1</clus>
</clustering>
</event>
<event>
10    4  0.3738096E-005  0.1423245E+03  0.7546771E-02  0.1231295E+00
          2   -1    0    0  503    0 -0.00000000000E+00  0.00000000000E+00  0.51312680640E+03  0.51312680640E+03  0.00000000000E+00 0. -1.
         21   -1    0    0  501  502  0.00000000000E+00 -0.00000000000E+00 -0.19951688559E+03  0.19951688559E+03  0.00000000000E+00 0.  1.
         24    2    1    2    0    0 -0.14245779066E+02  0.55806044153E+02  0.30944786506E+03  0.32429295660E+03  0.78042832611E+02 0.  0.
         23    2    1    2    0    0 -0.69381774886E+02 -0.66411631529E+02 -0.91768305199E+02  0.16931230694E+03  0.10498047416E+03 0.  0.
        -11    1    3    3    0    0  0.29181675890E+02  0.11098420348E+02  0.66291543198E+02  0.73275601953E+02  0.00000000000E+00 0.  1.
         12    1    3    3    0    0 -0.43427454957E+02  0.44707623805E+02  0.24315632187E+03  0.25101735465E+03  0.00000000000E+00 0. -1.
        -11    1    4    4    0    0 -0.47658121464E+02 -0.59534181822E+02 -0.11421019783E+03  0.13733020293E+03  0.00000000000E+00 0.  1.
         11    1    4    4    0    0 -0.21723653422E+02 -0.68774497068E+01  0.22441892634E+02  0.31982104018E+02  0.00000000000E+00 0. -1.
         21    1    1    2  503  502 -0.13758330597E+02 -0.19114393346E+02  0.11332247464E+03  0.11574383332E+03  0.00000000000E+00 0.  1.
          1    1    1    2  501    0  0.97385884550E+02  0.29719980722E+02 -0.17392113694E+02  0.10329459513E+03  0.00000000000E+00 0. -1.
<scales pt_clust_5="13000.00000" pt_clust_6="13000.00000" pt_clust_7="13000.00000" pt_clust_8="13000.00000" pt_clust_9="23.55104" pt_clust_10="96.10079"></scales>
<clustering>
<clus scale="   23.551">  1  9  2 -1</clus>
<clus scale="   78.043">  5  6 -1 -1</clus>
<clus scale="   91.510">  1  5  2 -1</clus>
<clus scale="   96.101">  2 10  1 -1</clus>
<clus scale="  104.980">  7  8 -1 -1</clus>
<clus scale="   96.101">  2  5  1 -1</clus>
</clustering>
</event>
<event>
10    4  0.3738096E-005  0.1657763E+03  0.7546771E-02  0.1208039E+00
         21   -1    0    0  503  502  0.00000000000E+00  0.00000000000E+00  0.20721134617E+03  0.20721134617E+03  0.00000000000E+00 0. -1.
          2   -1    0    0  502    0 -0.00000000000E+00 -0.00000000000E+00 -0.39639365098E+03  0.39639365098E+03  0.00000000000E+00 0. -1.
         24    2    1    2    0    0 -0.33168502920E+02  0.36032242986E+02 -0.71237038267E+02  0.11825805565E+03  0.80695600770E+02 0.  0.
         23    2    1    2    0    0  0.41637660506E+02  0.12641350600E+03  0.10982754061E+03  0.19642622955E+03  0.93846181107E+02 0.  0.
        -13    1    3    3    0    0 -0.36488946028E+02  0.57398674818E+02 -0.36102340379E+02  0.77002792377E+02  0.00000000000E+00 0.  1.
         14    1    3    3    0    0  0.33204431083E+01 -0.21366431832E+02 -0.35134697888E+02  0.41255263269E+02  0.00000000000E+00 0. -1.
        -11    1    4    4    0    0  0.70247422658E+02  0.10291550891E+03  0.94364955510E+02  0.15630434157E+03  0.00000000000E+00 0. -1.
         11    1    4    4    0    0 -0.28609762152E+02  0.23497997084E+02  0.15462585103E+02  0.40121887984E+02  0.00000000000E+00 0.  1.
         21    1    1    2  503  501  0.17276707497E+02 -0.49392618586E+02 -0.11874756912E+03  0.12976556001E+03  0.00000000000E+00 0. -1.
          1    1    1    2  501    0 -0.25745865083E+02 -0.11305313040E+03 -0.10902523803E+03  0.15915515194E+03  0.00000000000E+00 0. -1.
<scales pt_clust_5="13000.00000" pt_clust_6="13000.00000" pt_clust_7="13000.00000" pt_clust_8="13000.00000" pt_clust_9="48.13665" pt_clust_10="154.30190"></scales>
<clustering>
<clus scale="   48.137">  9 10 -1 -1</clus>
<clus scale="   80.696">  5  6 -1 -1</clus>
<clus scale="   93.846">  7  8 -1 -1</clus>
<clus scale="   94.394">  2  5  1 -1</clus>
<clus scale="  154.302">  1  9  2 -1</clus>
<clus scale="  154.302">  1  5  2 -1</clus>
</clustering>
</event>
<event>
10    4  0.3738096E-005  0.3112642E+03  0.7546771E-02  0.1119327E+00
         -3   -1    0    0    0  501 -0.00000000000E+00  0.00000000000E+00  0.17428015498E+04  0.17428015498E+04  0.00000000000E+00 0.  1.
         21   -1    0    0  503  502  0.00000000000E+00 -0.00000000000E+00 -0.88152705332E+02  0.88152705332E+02  0.00000000000E+00 0.  1.
         23    2    1    2    0    0 -0.37522050609E+02 -0.75785413770E+02  0.36887183712E+03  0.38535385765E+03  0.72662439853E+02 0.  0.
         24    2    1    2    0    0 -0.22811932192E+03 -0.15629781572E+03  0.46634112736E+03  0.54870666833E+03  0.84483895301E+02 0.  0.
        -11    1    4    4    0    0 -0.18070459610E+03 -0.16022268296E+03  0.38532149350E+03  0.45475060478E+03  0.00000000000E+00 0.  1.
         12    1    4    4    0    0 -0.47414725821E+02  0.39248672453E+01  0.81019633859E+02  0.93956063552E+02  0.00000000000E+00 0. -1.
        -11    1    3    3    0    0  0.12582473519E+02 -0.54929992366E+02  0.16382143673E+03  0.17324285218E+03  0.00000000000E+00 0.  1.
         11    1    3    3    0    0 -0.50104524129E+02 -0.20855421405E+02  0.20505040039E+03  0.21211100547E+03  0.00000000000E+00 0. -1.
         21    1    1    2  503  501  0.24564591905E+03  0.23881250885E+03  0.75507455968E+03  0.82916278414E+03  0.00000000000E+00 0.  1.
         -4    1    1    2    0  502  0.19995453482E+02 -0.67292793564E+01  0.64361320358E+02  0.67730945061E+02  0.00000000000E+00 0.  1.
<scales pt_clust_5="13000.00000" pt_clust_6="13000.00000" pt_clust_7="13000.00000" pt_clust_8="13000.00000" pt_clust_9="299.57946" pt_clust_10="21.09744"></scales>
<clustering>
<clus scale="   21.097">  2 10  1 -1</clus>
<clus scale="   72.662">  7  8 -1 -1</clus>
<clus scale="   84.484">  5  6 -1 -1</clus>
<clus scale="  111.308">  1  7  2 -1</clus>
<clus scale="  299.579">  1  9  2 -1</clus>
<clus scale="   21.097">  2  5  1 -1</clus>
</clustering>
</event>
<event>
10    4  0.3738096E-005  0.3219403E+03  0.7546771E-02  0.1074760E+00
          2   -1    0    0  503    0 -0.00000000000E+00  0.00000000000E+00  0.26664811698E+03  0.26664811698E+03  0.00000000000E+00 0. -1.
         21   -1    0    0  501  502  0.00000000000E+00 -0.00000000000E+00 -0.35591040319E+03  0.35591040319E+03  0.00000000000E+00 0. -1.
         24    2    1    2    0    0 -0.85171924455E+02  0.59728589897E+02 -0.49343820926E+02  0.13927249369E+03  0.78359770734E+02 0.  0.
         23    2    1    2    0    0 -0.13132270996E+03  0.45063070109E+02  0.39588301507E+02  0.17124954073E+03  0.92102318899E+02 0.  0.
        -11    1    3    3    0    0 -0.59636329961E+02 -0.18796943103E+00 -0.43627459916E+02  0.73891017333E+02  0.00000000000E+00 0.  1.
         12    1    3    3    0    0 -0.25535594494E+02  0.59916559328E+02 -0.57163610095E+01  0.65381476360E+02  0.00000000000E+00 0. -1.
        -13    1    4    4    0    0 -0.66065419215E+02 -0.86992258266E+01 -0.17909349119E+02  0.69000441535E+02  0.00000000000E+00 0.  1.
         13    1    4    4    0    0 -0.65257290744E+02  0.53762295935E+02  0.57497650627E+02  0.10224909920E+03  0.00000000000E+00 0. -1.
         21    1    1    2  503  502 -0.11300748989E+02  0.30821332165E+02  0.62236493835E+01  0.33412501489E+02  0.00000000000E+00 0. -1.
          1    1    1    2  501    0  0.22779538340E+03 -0.13561299217E+03 -0.85730416177E+02  0.27862398426E+03  0.00000000000E+00 0. -1.
<scales pt_clust_5="13000.00000" pt_clust_6="13000.00000" pt_clust_7="13000.00000" pt_clust_8="13000.00000" pt_clust_9="32.82775" pt_clust_10="255.28023"></scales>
<clustering>
<clus scale="   32.828">  1  9  2 -1</clus>
<clus scale="   78.360">  5  6 -1 -1</clus>
<clus scale="   92.102">  7  8 -1 -1</clus>
<clus scale="  123.637">  5  7 -1 -1</clus>
<clus scale="  255.280">  2 10  1 -1</clus>
<clus scale="  255.280">  2  5  1 -1</clus>
</clustering>
</event>
<event>
10    4  0.3738096E-005  0.1787778E+03  0.7546771E-02  0.1169380E+00
          2   -1    0    0  503    0 -0.00000000000E+00  0.00000000000E+00  0.12795077264E+04  0.12795077264E+04  0.00000000000E+00 0. -1.
         21   -1    0    0  501  502  0.00000000000E+00 -0.00000000000E+00 -0.51369134773E+02  0.51369134773E+02  0.00000000000E+00 0.  1.
         23    2    1    2    0    0  0.15464373396E+03 -0.87027712658E+01  0.47839412598E+03  0.50918406636E+03  0.80106497738E+02 0.  0.
         24    2    1    2    0    0 -0.14126266147E+03  0.19265618107E+02  0.21020953188E+03  0.26738766834E+03  0.83557251764E+02 0.  0.
        -13    1    4    4    0    0 -0.11854397038E+03  0.34758641144E+02  0.11677958706E+03  0.16999502346E+03  0.00000000000E+00 0.  1.
         14    1    4    4    0    0 -0.22718691085E+02 -0.15493023036E+02  0.93429944822E+02  0.97392644881E+02  0.00000000000E+00 0. -1.
        -13    1    3    3    0    0  0.10242819762E+03  0.21756698493E+02  0.37569244006E+03  0.39001243457E+03  0.00000000000E+00 0. -1.
         13    1    3    3    0    0  0.52215536343E+02 -0.30459469759E+02  0.10270168592E+03  0.11917163179E+03  0.00000000000E+00 0.  1.
         21    1    1    2  503  502  0.50193314772E+02  0.84026358240E+01  0.34581970421E+03  0.34954433332E+03  0.00000000000E+00 0. -1.
          1    1    1    2  501    0 -0.63574387266E+02 -0.18965482666E+02  0.19371522952E+03  0.20476079311E+03  0.00000000000E+00 0. -1.
<scales pt_clust_5="13000.00000" pt_clust_6="13000.00000" pt_clust_7="13000.00000" pt_clust_8="13000.00000" pt_clust_9="50.89178" pt_clust_10="55.56153"></scales>
<clustering>
<clus scale="   50.892">  1  9  2 -1</clus>
<clus scale="   55.562">  2 10  1 -1</clus>
<clus scale="   80.106">  7  8 -1 -1</clus>
<clus scale="   83.557">  5  6 -1 -1</clus>
<clus scale="  177.191">  1  7  2 -1</clus>
<clus scale="   55.562">  2  5  1 -1</clus>
</clustering>
</event>
<event>
10    4  0.3738096E-005  0.1454715E+03  0.7546771E-02  0.1219060E+00
          2   -1    0    0  502    0 -0.00000000000E+00  0.00000000000E+00  0.65869980591E+02  0.65869980591E+02  0.00000000000E+00 0. -1.
         21   -1    0    0  503  502  0.00000000000E+00 -0.00000000000E+00 -0.64894139298E+03  0.64894139298E+03  0.00000000000E+00 0. -1.
         24    2    1    2    0    0 -0.26335475064E+02 -0.71025243077E+02 -0.22247187997E+03  0.24842794384E+03  0.80526787482E+02 0.  0.
         23    2    1    2    0    0 -0.10489727406E+03  0.40664522073E+02 -0.21292701944E+03  0.25620731717E+03  0.87448455123E+02 0.  0.
        -11    1    3    3    0    0 -0.39976115777E+02 -0.11473982394E+02 -0.13832236962E+03  0.14443967614E+03  0.00000000000E+00 0.  1.
         12    1    3    3    0    0  0.13640640713E+02 -0.59551260683E+02 -0.84149510342E+02  0.10398826770E+03  0.00000000000E+00 0. -1.
        -11    1    4    4    0    0 -0.22009228007E+02  0.38351659809E+02 -0.24992073077E+02  0.50792318753E+02  0.00000000000E+00 0.  1.
         11    1    4    4    0    0 -0.82888046049E+02  0.23128622644E+01 -0.18793494637E+03  0.20541499842E+03  0.00000000000E+00 0. -1.
         21    1    1    2  503  501  0.75181861094E+02  0.11714113821E+02 -0.36736552180E+02  0.84493236215E+02  0.00000000000E+00 0. -1.
          1    1    1    2  501    0  0.56050888028E+02  0.18646607183E+02 -0.11093596079E+03  0.12568287634E+03  0.00000000000E+00 0. -1.
<scales pt_clust_5="13000.00000" pt_clust_6="13000.00000" pt_clust_7="13000.00000" pt_clust_8="13000.00000" pt_clust_9="57.25828" pt_clust_10="133.18320"></scales>
<clustering>
<clus scale="   57.258">  9 10 -1 -1</clus>
<clus scale="   80.527">  5  6 -1 -1</clus>
<clus scale="   87.448">  7  8 -1 -1</clus>
<clus scale="  110.556">  1  5  2 -1</clus>
<clus scale="  133.183">  2  9  1 -1</clus>
<clus scale="  133.183">  2  5  1 -1</clus>
</clustering>
</event>
<event>
10    4  0.3738096E-005  0.2123131E+03  0.7546771E-02  0.1174558E+00
         21   -1    0    0  501  502  0.00000000000E+00  0.00000000000E+00  0.38599419458E+03  0.38599419458E+03  0.00000000000E+00 0. -1.
          2   -1    0    0  503    0 -0.00000000000E+00 -0.00000000000E+00 -0.48395492788E+03  0.48395492788E+03  0.00000000000E+00 0. -1.
         23    2    1    2    0    0 -0.16447659705E+02 -0.82108278753E+00  0.25733495785E+03  0.27394721545E+03  0.92491062482E+02 0.  0.
         24    2    1    2    0    0 -0.12176421147E+03  0.12207373690E+03 -0.28501347752E+03  0.34275286906E+03  0.80736153285E+02 0.  0.
        -13    1    4    4    0    0 -0.56264206345E+02  0.16348020498E+02 -0.50717894400E+02  0.77493377151E+02  0.00000000000E+00 0.  1.
         14    1    4    4    0    0 -0.65500005123E+02  0.10572571640E+03 -0.23429558312E+03  0.26525949191E+03  0.00000000000E+00 0. -1.
        -11    1    3    3    0    0  0.34675638862E+02 -0.16508219884E+02  0.80288277952E+02  0.89000723765E+02  0.00000000000E+00 0.  1.
         11    1    3    3    0    0 -0.51123298568E+02  0.15687137097E+02  0.17704667989E+03  0.18494649169E+03  0.00000000000E+00 0. -1.
         21    1    1    2  503  502 -0.20897129834E+02  0.91918096340E+01 -0.38926983961E+02  0.45127480320E+02  0.00000000000E+00 0.  1.
          1    1    1    2  501    0  0.15910900101E+03 -0.13044446374E+03 -0.31355229658E+02  0.20812155763E+03  0.00000000000E+00 0. -1.
<scales pt_clust_5="13000.00000" pt_clust_6="13000.00000" pt_clust_7="13000.00000" pt_clust_8="13000.00000" pt_clust_9="22.82935" pt_clust_10="196.36330"></scales>
<clustering>
<clus scale="   22.829">  2  9  1 -1</clus>
<clus scale="   80.736">  5  6 -1 -1</clus>
<clus scale="   92.491">  7  8 -1 -1</clus>
<clus scale="   94.014">  2  7  1 -1</clus>
<clus scale="  196.363">  1 10  2 -1</clus>
<clus scale="  196.363">  1  5  2 -1</clus>
</clustering>
</event>
<event>
10    4  0.3738096E-005  0.3399725E+03  0.7546771E-02  0.1067049E+00
          2   -1    0    0  503    0 -0.00000000000E+00  0.00000000000E+00  0.16101840117E+04  0.16101840117E+04  0.00000000000E+00 0. -1.
         21   -1    0    0  501  502  0.00000000000E+00 -0.00000000000E+00 -0.26791482885E+03  0.26791482885E+03  0.00000000000E+00 0. -1.
         24    2    1    2    0    0  0.26696343582E+03  0.13057369778E+03  0.13640997587E+04  0.13985215186E+04  0.82312330701E+02 0.  0.
         23    2    1    2    0    0 -0.30563958089E+03 -0.97855800366E+02 -0.84292544848E+02  0.34409365823E+03  0.91125745251E+02 0.  0.
        -11    1    3    3    0    0  0.11829320127E+03  0.13798183796E+02  0.50115623283E+03  0.51511284302E+03  0.00000000000E+00 0.  1.
         12    1    3    3    0    0  0.14867023455E+03  0.11677551399E+03  0.86294352583E+03  0.88340867557E+03  0.00000000000E+00 0. -1.
        -11    1    4    4    0    0 -0.28449909055E+02  0.15844441119E+01 -0.35615260868E+02  0.45610904343E+02  0.00000000000E+00 0.  1.
         11    1    4    4    0    0 -0.27718967184E+03 -0.99440244478E+02 -0.48677283981E+02  0.29848275389E+03  0.00000000000E+00 0. -1.
         21    1    1    2  503  502  0.33827022831E+02  0.10528652095E+02  0.80826462298E+02  0.88249855502E+02  0.00000000000E+00 0.  1.
          1    1    1    2  501    0  0.48491222405E+01 -0.43246549511E+02 -0.18364493222E+02  0.47233808257E+02  0.00000000000E+00 0. -1.
<scales pt_clust_5="13000.00000" pt_clust_6="13000.00000" pt_clust_7="13000.00000" pt_clust_8="13000.00000" pt_clust_9="35.42767" pt_clust_10="43.45547"></scales>
<clustering>
<clus scale="   35.428">  1  9  2 -1</clus>
<clus scale="   43.455">  2 10  1 -1</clus>
<clus scale="   82.312">  5  6 -1 -1</clus>
<clus scale="   91.126">  7  8 -1 -1</clus>
<clus scale="  337.717">  1  5  2 -1</clus>
<clus scale="   43.455">  2  5  1 -1</clus>
</clustering>
</event>
<event>
10    4  0.3738096E-005  0.9816887E+02  0.7546771E-02  0.1290910E+00
          2   -1    0    0  503    0 -0.00000000000E+00  0.00000000000E+00  0.29336519911E+03  0.29336519911E+03  0.00000000000E+00 0. -1.
         21   -1    0    0  501  502  0.00000000000E+00 -0.00000000000E+00 -0.36019393040E+03  0.36019393040E+03  0.00000000000E+00 0.  1.
         23    2    1    2    0    0 -0.24874861160E+02 -0.43849046219E+02  0.82001894653E+02  0.13322867821E+03  0.92109024522E+02 0.  0.
         24    2    1    2    0    0  0.43767877772E+02 -0.17093036987E+02 -0.30450605357E+03  0.31822147085E+03  0.79581208932E+02 0.  0.
        -13    1    4    4    0    0  0.43312744066E+02 -0.43848426038E+02 -0.25021409961E+03  0.25769317785E+03  0.00000000000E+00 0.  1.
         14    1    4    4    0    0  0.45513370593E+00  0.26755389051E+02 -0.54291953954E+02  0.60528293005E+02  0.00000000000E+00 0. -1.
        -13    1    3    3    0    0  0.17707150652E+02  0.20900193165E+02  0.24180185056E+02  0.36538234877E+02  0.00000000000E+00 0.  1.
         13    1    3    3    0    0 -0.42582011813E+02 -0.64749239385E+02  0.57821709597E+02  0.96690443331E+02  0.00000000000E+00 0. -1.
         21    1    1    2  503  502 -0.64415035897E+01  0.33274840743E+02  0.16648575467E+03  0.16990060183E+03  0.00000000000E+00 0. -1.
          1    1    1    2  501    0 -0.12451513021E+02  0.27667242463E+02 -0.10810327055E+02  0.32208378616E+02  0.00000000000E+00 0. -1.
<scales pt_clust_5="13000.00000" pt_clust_6="13000.00000" pt_clust_7="13000.00000" pt_clust_8="13000.00000" pt_clust_9="34.04148" pt_clust_10="30.34001"></scales>
<clustering>
<clus scale="   30.340">  2 10  1 -1</clus>
<clus scale="   34.041">  1  9  2 -1</clus>
<clus scale="   79.581">  5  6 -1 -1</clus>
<clus scale="   86.523">  2  5  1 -1</clus>
<clus scale="   92.109">  7  8 -1 -1</clus>
<clus scale="   30.340">  2  5  1 -1</clus>
</clustering>
</event>
<event>
10    4  0.3738096E-005  0.3750417E+03  0.7546771E-02  0.1053016E+00
         21   -1    0    0  501  502  0.00000000000E+00  0.00000000000E+00  0.11564471104E+03  0.11564471104E+03  0.00000000000E+00 0. -1.
         -3   -1    0    0    0  501 -0.00000000000E+00 -0.00000000000E+00 -0.15987982891E+04  0.15987982891E+04  0.00000000000E+00 0.  1.
         23    2    1    2    0    0  0.32318465378E+03 -0.15114919648E+03 -0.66860364991E+03  0.76313708985E+03  0.89738381969E+02 0.  0.
         24    2    1    2    0    0 -0.35361211218E+03  0.12193035170E+03 -0.59096978201E+03  0.70380828921E+03  0.78691093306E+02 0.  0.
        -11    1    4    4    0    0 -0.70980381956E+01  0.19632103841E+02 -0.29606118907E+02  0.36226011707E+02  0.00000000000E+00 0.  1.
         12    1    4    4    0    0 -0.34651407398E+03  0.10229824786E+03 -0.56136366311E+03  0.66758227751E+03  0.00000000000E+00 0. -1.
        -13    1    3    3    0    0  0.24993509301E+03 -0.14689055537E+03 -0.47986408975E+03  0.56063707567E+03  0.00000000000E+00 0.  1.
         13    1    3    3    0    0  0.73249560767E+02 -0.42586411058E+01 -0.18873956016E+03  0.20250001418E+03  0.00000000000E+00 0. -1.
         21    1    1    2  503  502 -0.11815490058E+02 -0.29579960491E+02 -0.48342900055E+02  0.57893141681E+02  0.00000000000E+00 0.  1.
         -4    1    1    2    0  503  0.42242948458E+02  0.58798805266E+02 -0.17523724609E+03  0.18960447941E+03  0.00000000000E+00 0.  1.
<scales pt_clust_5="13000.00000" pt_clust_6="13000.00000" pt_clust_7="13000.00000" pt_clust_8="13000.00000" pt_clust_9="31.85247" pt_clust_10="70.39862"></scales>
<clustering>
<clus scale="   31.852">  1  9  2 -1</clus>
<clus scale="   70.399">  1 10  2 -1</clus>
<clus scale="   78.691">  5  6 -1 -1</clus>
<clus scale="   89.738">  7  8 -1 -1</clus>
<clus scale="  372.553">  1  5  2 -1</clus>
<clus scale="   31.852">  1  5  2 -1</clus>
</clustering>
</event>
<event>
10    4  0.3738096E-005  0.2029346E+03  0.7546771E-02  0.1148215E+00
         -1   -1    0    0    0  501 -0.00000000000E+00  0.00000000000E+00  0.50774947847E+03  0.50774947847E+03  0.00000000000E+00 0.  1.
         21   -1    0    0  503  502  0.00000000000E+00 -0.00000000000E+00 -0.15793543061E+03  0.15793543061E+03  0.00000000000E+00 0.  1.
         24    2    1    2    0    0 -0.12338380182E+03 -0.13644711945E+03  0.12039044143E+03  0.23414588109E+03  0.80554678858E+02 0.  0.
         23    2    1    2    0    0  0.65668208892E+02  0.17530079096E+03  0.95209679829E+02  0.22886056739E+03  0.90937314692E+02 0.  0.
        -13    1    3    3    0    0 -0.11104685234E+03 -0.12363749536E+03  0.13257463268E+03  0.21258802155E+03  0.00000000000E+00 0.  1.
         14    1    3    3    0    0 -0.12336949479E+02 -0.12809624085E+02 -0.12184191250E+02  0.21557859543E+02  0.00000000000E+00 0. -1.
        -13    1    4    4    0    0 -0.11817905724E+02  0.96952107967E+02  0.39115741331E+02  0.10521128910E+03  0.00000000000E+00 0.  1.
         13    1    4    4    0    0  0.77486114617E+02  0.78348682996E+02  0.56093938498E+02  0.12364927829E+03  0.00000000000E+00 0. -1.
         21    1    1    2  503  501 -0.26028827318E+02  0.32420707334E+02  0.31018636641E+02  0.51872516178E+02  0.00000000000E+00 0.  1.
         -2    1    1    2    0  502  0.83744420249E+02 -0.71274378847E+02  0.10319528996E+03  0.15080594442E+03  0.00000000000E+00 0.  1.
<scales pt_clust_5="13000.00000" pt_clust_6="13000.00000" pt_clust_7="13000.00000" pt_clust_8="13000.00000" pt_clust_9="41.57646" pt_clust_10="98.87038"></scales>
<clustering>
<clus scale="   41.576">  1  9  2 -1</clus>
<clus scale="   80.555">  5  6 -1 -1</clus>
<clus scale="   90.937">  7  8 -1 -1</clus>
<clus scale="   98.870">  2 10  1 -1</clus>
<clus scale="  198.499">  1  5  2 -1</clus>
<clus scale="   98.870">  2  5  1 -1</clus>
</clustering>
</event>
<event>
10    4  0.3738096E-005  0.9899129E+02  0.7546771E-02  0.1287410E+00
         21   -1    0    0  501  502  0.00000000000E+00  0.00000000000E+00  0.71034659493E+02  0.71034659493E+02  0.00000000000E+00 0.  1.
          4   -1    0    0  503    0 -0.00000000000E+00 -0.00000000000E+00 -0.45856464362E+03  0.45856464362E+03  0.00000000000E+00 0. -1.
         23    2    1    2    0    0  0.32686915202E+02  0.30240454543E+02 -0.17777957670E+03  0.20484152978E+03  0.91496201631E+02 0.  0.
         24    2    1    2    0    0 -0.33492041462E+02 -0.39140011495E+02  0.11667719577E+02  0.97375346146E+02  0.81805653935E+02 0.  0.
        -11    1    4    4    0    0 -0.41102105667E+02  0.75074868982E+01  0.24453947292E+02  0.48412198751E+02  0.00000000000E+00 0.  1.
         12    1    4    4    0    0  0.76100642052E+01 -0.46647498393E+02 -0.12786227715E+02  0.48963147394E+02  0.00000000000E+00 0. -1.
        -11    1    3    3    0    0  0.12065717903E+02  0.58539327212E+02 -0.14517211214E+03  0.15699482960E+03  0.00000000000E+00 0. -1.
         11    1    3    3    0    0  0.20621197299E+02 -0.28298872669E+02 -0.32607464561E+02  0.47846700173E+02  0.00000000000E+00 0.  1.
         21    1    1    2  503  502 -0.17666811378E+02 -0.12598859952E+02 -0.68336706531E+02  0.71699044317E+02  0.00000000000E+00 0. -1.
          3    1    1    2  501    0  0.18471937638E+02  0.21498416904E+02 -0.15308142047E+03  0.15568338287E+03  0.00000000000E+00 0. -1.
<scales pt_clust_5="13000.00000" pt_clust_6="13000.00000" pt_clust_7="13000.00000" pt_clust_8="13000.00000" pt_clust_9="21.69902" pt_clust_10="20.07880"></scales>
<clustering>
<clus scale="   21.699">  2  9  1 -1</clus>
<clus scale="   20.079">  1 10  2 -1</clus>
<clus scale="   81.806">  5  6 -1 -1</clus>
<clus scale="   90.110">  1  5  2 -1</clus>
<clus scale="   91.496">  7  8 -1 -1</clus>
<clus scale="   20.079">  1  5  2 -1</clus>
</clustering>
</event>
<event>
10    4  0.3738096E-005  0.2158493E+03  0.7546771E-02  0.1137820E+00
         21   -1    0    0  501  502  0.00000000000E+00  0.00000000000E+00  0.76768804891E+03  0.76768804891E+03  0.00000000000E+00 0. -1.
          2   -1    0    0  503    0 -0.00000000000E+00 -0.00000000000E+00 -0.92445119016E+02  0.92445119016E+02  0.00000000000E+00 0. -1.
         24    2    1    2    0    0  0.21355184424E+03 -0.65585376511E+01  0.22505247961E+03  0.32069491443E+03  0.80927158402E+02 0.  0.
         23    2    1    2    0    0 -0.17000897642E+03 -0.43891521478E+02  0.34352357660E+03  0.39644330381E+03  0.91265150729E+02 0.  0.
        -11    1    3    3    0    0  0.18407588407E+02  0.19812197797E+02  0.51693139279E+02  0.58339893220E+02  0.00000000000E+00 0.  1.
         12    1    3    3    0    0  0.19514425583E+03 -0.26370735448E+02  0.17335934033E+03  0.26235502121E+03  0.00000000000E+00 0. -1.
        -11    1    4    4    0    0 -0.11708878677E+03 -0.72302445105E+02  0.24736665698E+03  0.28306834960E+03  0.00000000000E+00 0.  1.
         11    1    4    4    0    0 -0.52920189643E+02  0.28410923627E+02  0.96156919617E+02  0.11337495422E+03  0.00000000000E+00 0. -1.
         21    1    1    2  503  502 -0.19711098162E+01  0.46615657280E+02  0.29333397377E+02  0.55112185397E+02  0.00000000000E+00 0.  1.
          1    1    1    2  501    0 -0.41571758009E+02  0.38344018491E+01  0.77333476306E+02  0.87882764289E+02  0.00000000000E+00 0. -1.
<scales pt_clust_5="13000.00000" pt_clust_6="13000.00000" pt_clust_7="13000.00000" pt_clust_8="13000.00000" pt_clust_9="47.07078" pt_clust_10="41.74822"></scales>
<clustering>
<clus scale="   41.748">  1 10  2 -1</clus>
<clus scale="   47.071">  2  9  1 -1</clus>
<clus scale="   80.927">  5  6 -1 -1</clus>
<clus scale="   91.265">  7  8 -1 -1</clus>
<clus scale="  211.686">  2  5  1 -1</clus>
<clus scale="   41.748">  1  5  2 -1</clus>
</clustering>
</event>
<event>
10    4  0.3738096E-005  0.2024758E+03  0.7546771E-02  0.1148863E+00
         21   -1    0    0  501  502  0.00000000000E+00  0.00000000000E+00  0.14224203505E+04  0.14224203505E+04  0.00000000000E+00 0. -1.
          2   -1    0    0  503    0 -0.00000000000E+00 -0.00000000000E+00 -0.11268009524E+03  0.11268009524E+03  0.00000000000E+00 0. -1.
         24    2    1    2    0    0 -0.15563113286E+03  0.66568888559E+02  0.21564985212E+03  0.28508234674E+03  0.78196031000E+02 0.  0.
         23    2    1    2    0    0  0.77578261183E+02 -0.21819400046E+03  0.28551579718E+03  0.37884947594E+03  0.91545871201E+02 0.  0.
        -13    1    3    3    0    0 -0.62649615316E+02 -0.23466657411E+01  0.38803217397E+02  0.73730392782E+02  0.00000000000E+00 0.  1.
         14    1    3    3    0    0 -0.92981517540E+02  0.68915554300E+02  0.17684663472E+03  0.21135195395E+03  0.00000000000E+00 0. -1.
        -11    1    4    4    0    0  0.38360318980E+02 -0.16921418785E+03  0.25661368042E+03  0.30976690659E+03  0.00000000000E+00 0.  1.
         11    1    4    4    0    0  0.39217942204E+02 -0.48979812609E+02  0.28902116760E+02  0.69082569344E+02  0.00000000000E+00 0. -1.
         21    1    1    2  503  502 -0.28303866024E+02 -0.98076736653E+01 -0.88183873128E+01  0.31226002777E+02  0.00000000000E+00 0. -1.
          1    1    1    2  501    0  0.10635673770E+03  0.16143278557E+03  0.81739299326E+03  0.83994262027E+03  0.00000000000E+00 0. -1.
<scales pt_clust_5="13000.00000" pt_clust_6="13000.00000" pt_clust_7="13000.00000" pt_clust_8="13000.00000" pt_clust_9="29.95495" pt_clust_10="190.44073"></scales>
<clustering>
<clus scale="   29.955">  2  9  1 -1</clus>
<clus scale="   78.196">  5  6 -1 -1</clus>
<clus scale="   91.546">  7  8 -1 -1</clus>
<clus scale="  190.441">  1 10  2 -1</clus>
<clus scale="  196.800">  2  5  1 -1</clus>
<clus scale="  190.441">  1  5  2 -1</clus>
</clustering>
</event>
<event>
10    4  0.3738096E-005  0.9562876E+02  0.7546771E-02  0.1296375E+00
          2   -1    0    0  503    0 -0.00000000000E+00  0.00000000000E+00  0.19600394044E+03  0.19600394044E+03  0.00000000000E+00 0. -1.
         21   -1    0    0  501  502  0.00000000000E+00 -0.00000000000E+00 -0.25855910686E+03  0.25855910686E+03  0.00000000000E+00 0. -1.
         23    2    1    2    0    0  0.14925632584E+02 -0.29860279033E+02  0.11172394023E+03  0.14854202636E+03  0.92022192989E+02 0.  0.
         24    2    1    2    0    0 -0.79091402717E+01  0.71234433205E+01 -0.87760415384E+02  0.11952614445E+03  0.80444457575E+02 0.  0.
        -11    1    4    4    0    0  0.27817790562E+02  0.26795742178E+02 -0.30444470388E+02  0.49180352254E+02  0.00000000000E+00 0.  1.
         12    1    4    4    0    0 -0.35726930833E+02 -0.19672298858E+02 -0.57315944996E+02  0.70345792198E+02  0.00000000000E+00 0. -1.
        -11    1    3    3    0    0  0.50302027967E+02 -0.15808101417E+02  0.36170491069E+02  0.63941336490E+02  0.00000000000E+00 0.  1.
         11    1    3    3    0    0 -0.35376395383E+02 -0.14052177616E+02  0.75553449163E+02  0.84600689870E+02  0.00000000000E+00 0. -1.
         21    1    1    2  503  502 -0.25438221406E+02  0.41398987020E+00  0.45073179125E+02  0.51757762436E+02  0.00000000000E+00 0. -1.
          1    1    1    2  501    0  0.18421729094E+02  0.22322845842E+02 -0.13159187039E+03  0.13473711405E+03  0.00000000000E+00 0. -1.
<scales pt_clust_5="13000.00000" pt_clust_6="13000.00000" pt_clust_7="13000.00000" pt_clust_8="13000.00000" pt_clust_9="25.44159" pt_clust_10="28.77418"></scales>
<clustering>
<clus scale="   25.442">  1  9  2 -1</clus>
<clus scale="   28.774">  2 10  1 -1</clus>
<clus scale="   80.444">  5  6 -1 -1</clus>
<clus scale="   84.546">  2  5  1 -1</clus>
<clus scale="   92.022">  7  8 -1 -1</clus>
<clus scale="   28.774">  2  5  1 -1</clus>
</clustering>
</event>
<event>
10    4  0.3738096E-005  0.1176678E+03  0.7546771E-02  0.1252150E+00
         21   -1    0    0  501  502  0.00000000000E+00  0.00000000000E+00  0.86809846677E+02  0.86809846677E+02  0.00000000000E+00 0.  1.
          2   -1    0    0  503    0 -0.00000000000E+00 -0.00000000000E+00 -0.67243590810E+03  0.67243590810E+03  0.00000000000E+00 0. -1.
         24    2    1    2    0    0  0.73201999011E+02 -0.80867859794E+01 -0.44096604809E+03  0.45418092203E+03  0.80033278086E+02 0.  0.
         23    2    1    2    0    0 -0.41784851593E+02  0.29948265983E+01 -0.10322141807E+02  0.10414349021E+03  0.94785954302E+02 0.  0.
        -13    1    3    3    0    0  0.71008554416E+02 -0.34615315783E+02 -0.37111893160E+03  0.37943338846E+03  0.00000000000E+00 0.  1.
         14    1    3    3    0    0  0.21934445954E+01  0.26528529803E+02 -0.69847116491E+02  0.74747533570E+02  0.00000000000E+00 0. -1.
        -11    1    4    4    0    0  0.45169770833E+01 -0.40049038708E+02 -0.16946294226E+01  0.40338571520E+02  0.00000000000E+00 0. -1.
         11    1    4    4    0    0 -0.46301828676E+02  0.43043865306E+02 -0.86275123845E+01  0.63804918692E+02  0.00000000000E+00 0.  1.
         21    1    1    2  503  502  0.35659591070E+02  0.54926264629E+02 -0.65965343990E+02  0.92951210800E+02  0.00000000000E+00 0.  1.
          1    1    1    2  501    0 -0.67076738488E+02 -0.49834305248E+02 -0.68372527541E+02  0.10797013174E+03  0.00000000000E+00 0. -1.
<scales pt_clust_5="13000.00000" pt_clust_6="13000.00000" pt_clust_7="13000.00000" pt_clust_8="13000.00000" pt_clust_9="65.48665" pt_clust_10="67.27029"></scales>
<clustering>
<clus scale="   65.487">  1  9  2 -1</clus>
<clus scale="   67.270">  1 10  2 -1</clus>
<clus scale="   80.033">  5  6 -1 -1</clus>
<clus scale="   94.786">  7  8 -1 -1</clus>
<clus scale="  106.144">  2  5  1 -1</clus>
<clus scale="   65.487">  1  5  2 -1</clus>
</clustering>
</event>
<event>
10    4  0.3738096E-005  0.4536005E+03  0.7546771E-02  0.1026654E+00
         21   -1    0    0  501  502  0.00000000000E+00  0.00000000000E+00  0.18634671052E+03  0.18634671052E+03  0.00000000000E+00 0.  1.
          2   -1    0    0  503    0 -0.00000000000E+00 -0.00000000000E+00 -0.13698474425E+04  0.13698474425E+04  0.00000000000E+00 0. -1.
         24    2    1    2    0    0  0.28937893230E+03 -0.19589799514E+03 -0.84206375874E+03  0.91528461114E+03  0.80983669015E+02 0.  0.
         23    2    1    2    0    0  0.51307743821E+02  0.12522046911E+02 -0.16523246013E+03  0.19062457412E+03  0.79035916794E+02 0.  0.
        -13    1    3    3    0    0  0.19138618521E+03 -0.12446284950E+03 -0.64147222418E+03  0.68088639815E+03  0.00000000000E+00 0.  1.
         14    1    3    3    0    0  0.97992747085E+02 -0.71435145638E+02 -0.20059153456E+03  0.23439821299E+03  0.00000000000E+00 0. -1.
        -11    1    4    4    0    0  0.13192220184E+01 -0.22457520948E+02 -0.94839061140E+02  0.97470652567E+02  0.00000000000E+00 0. -1.
         11    1    4    4    0    0  0.49988521802E+02  0.34979567860E+02 -0.70393398990E+02  0.93153921555E+02  0.00000000000E+00 0.  1.
         21    1    1    2  503  502 -0.34120712238E+03  0.15524825713E+03 -0.13110562507E+03  0.39713096912E+03  0.00000000000E+00 0.  1.
          1    1    1    2  501    0  0.52044626462E+00  0.28127691092E+02 -0.45098888058E+02  0.53153998669E+02  0.00000000000E+00 0. -1.
<scales pt_clust_5="13000.00000" pt_clust_6="13000.00000" pt_clust_7="13000.00000" pt_clust_8="13000.00000" pt_clust_9="383.48156" pt_clust_10="28.13252"></scales>
<clustering>
<clus scale="   28.133">  1 10  2 -1</clus>
<clus scale="   79.036">  7  8 -1 -1</clus>
<clus scale="   80.984">  5  6 -1 -1</clus>
<clus scale="   92.322">  5  7 -1 -1</clus>
<clus scale="  383.482">  1  9  2 -1</clus>
<clus scale="   28.133">  1  5  2 -1</clus>
</clustering>
</event>
<event>
10    4  0.3738096E-005  0.1266601E+03  0.7546771E-02  0.1238433E+00
         21   -1    0    0  501  502  0.00000000000E+00  0.00000000000E+00  0.18820696016E+03  0.18820696016E+03  0.00000000000E+00 0.  1.
          2   -1    0    0  503    0 -0.00000000000E+00 -0.00000000000E+00 -0.63761165720E+03  0.63761165720E+03  0.00000000000E+00 0. -1.
         24    2    1    2    0    0  0.15124619152E+02 -0.39467766233E+02 -0.26154137232E+03  0.27696494144E+03  0.80741752990E+02 0.  0.
         23    2    1    2    0    0  0.35221649046E+02 -0.63492257224E+02  0.91181348120E+02  0.14743442743E+03  0.90283115013E+02 0.  0.
        -13    1    3    3    0    0  0.31659606057E+02  0.13923091948E+02 -0.84279431690E+02  0.91099976680E+02  0.00000000000E+00 0.  1.
         14    1    3    3    0    0 -0.16534986906E+02 -0.53390858182E+02 -0.17726194063E+03  0.18586496476E+03  0.00000000000E+00 0. -1.
        -13    1    4    4    0    0 -0.11257313091E+02 -0.54868580586E+02  0.15352522459E+02  0.58077432617E+02  0.00000000000E+00 0. -1.
         13    1    4    4    0    0  0.46478962136E+02 -0.86236766375E+01  0.75828825661E+02  0.89356994808E+02  0.00000000000E+00 0.  1.
         21    1    1    2  503  502 -0.24724855049E+02 -0.59474770581E+02 -0.21584420897E+03  0.22524939364E+03  0.00000000000E+00 0. -1.
          1    1    1    2  501    0 -0.25621413149E+02  0.16243479404E+03 -0.63200463873E+02  0.17616985485E+03  0.00000000000E+00 0. -1.
<scales pt_clust_5="13000.00000" pt_clust_6="13000.00000" pt_clust_7="13000.00000" pt_clust_8="13000.00000" pt_clust_9="64.40937" pt_clust_10="88.83553"></scales>
<clustering>
<clus scale="   64.409">  2  9  1 -1</clus>
<clus scale="   80.742">  5  6 -1 -1</clus>
<clus scale="   90.283">  7  8 -1 -1</clus>
<clus scale="  112.173">  2  5  1 -1</clus>
<clus scale="   88.836">  1 10  2 -1</clus>
<clus scale="   88.836">  1  5  2 -1</clus>
</clustering>
</event>
<event>
10    4  0.3738096E-005  0.1527376E+03  0.7546771E-02  0.1198651E+00
          2   -1    0    0  503    0 -0.00000000000E+00  0.00000000000E+00  0.40677955278E+03  0.40677955278E+03  0.00000000000E+00 0. -1.
         21   -1    0    0  501  502  0.00000000000E+00 -0.00000000000E+00 -0.11790019286E+03  0.11790019286E+03  0.00000000000E+00 0.  1.
         23    2    1    2    0    0  0.13244026856E+03  0.20905016812E+02  0.17336710549E+03  0.23693365993E+03  0.90022005498E+02 0.  0.
         24    2    1    2    0    0 -0.13276272879E+03  0.70539817483E+01  0.29802543186E+02  0.15870995416E+03  0.81393839790E+02 0.  0.
        -11    1    4    4    0    0 -0.92450854842E+02  0.16219957191E+02 -0.17933744882E+02  0.95560801472E+02  0.00000000000E+00 0.  1.
         12    1    4    4    0    0 -0.40311873946E+02 -0.91659754430E+01  0.47736288069E+02  0.63149152690E+02  0.00000000000E+00 0. -1.
        -11    1    3    3    0    0  0.10117425032E+03  0.11668677486E+02  0.58329838781E+02  0.11736591096E+03  0.00000000000E+00 0.  1.
         11    1    3    3    0    0  0.31266018241E+02  0.92363393254E+01  0.11503726671E+03  0.11956774897E+03  0.00000000000E+00 0. -1.
         21    1    1    2  503  502 -0.24240946345E+02 -0.30560310142E+02  0.94960520345E+02  0.10265990678E+03  0.00000000000E+00 0.  1.
          1    1    1    2  501    0  0.24563406568E+02  0.26013115822E+01 -0.92508091048E+01  0.26376224773E+02  0.00000000000E+00 0. -1.
<scales pt_clust_5="13000.00000" pt_clust_6="13000.00000" pt_clust_7="13000.00000" pt_clust_8="13000.00000" pt_clust_9="38.34759" pt_clust_10="24.70076"></scales>
<clustering>
<clus scale="   24.701">  2 10  1 -1</clus>
<clus scale="   38.348">  1  9  2 -1</clus>
<clus scale="   81.394">  5  6 -1 -1</clus>
<clus scale="   90.022">  7  8 -1 -1</clus>
<clus scale="  147.817">  2  5  1 -1</clus>
<clus scale="   24.701">  2  5  1 -1</clus>
</clustering>
</event>
<event>
10    4  0.3738096E-005  0.1146744E+03  0.7546771E-02  0.1255362E+00
          2   -1    0    0  503    0 -0.00000000000E+00  0.00000000000E+00  0.53636793919E+03  0.53636793919E+03  0.00000000000E+00 0. -1.
         21   -1    0    0  501  502  0.00000000000E+00 -0.00000000000E+00 -0.75511869602E+02  0.75511869602E+02  0.00000000000E+00 0.  1.
         24    2    1    2    0    0 -0.86863467419E+02 -0.53839478512E+02  0.12122111387E+03  0.17777227783E+03  0.80401945860E+02 0.  0.
         23    2    1    2    0    0  0.32947464789E+02  0.47804503140E+02  0.38705113755E+02  0.11361267883E+03  0.89660186282E+02 0.  0.
        -13    1    3    3    0    0 -0.89985067991E+02 -0.66285294150E+02  0.88289663624E+02  0.14242934173E+03  0.00000000000E+00 0.  1.
         14    1    3    3    0    0  0.31216005715E+01  0.12445815638E+02  0.32931450245E+02  0.35342936101E+02  0.00000000000E+00 0. -1.
        -11    1    4    4    0    0 -0.23883138933E+02  0.39799513181E+02  0.41020348917E+01  0.46596483397E+02  0.00000000000E+00 0.  1.
         11    1    4    4    0    0  0.56830603723E+02  0.80049899596E+01  0.34603078863E+02  0.67016195435E+02  0.00000000000E+00 0. -1.
         21    1    1    2  503  502  0.39247895857E+02  0.43130178041E+02  0.24470159647E+03  0.25155413116E+03  0.00000000000E+00 0.  1.
          1    1    1    2  501    0  0.14668106773E+02 -0.37095202669E+02  0.56228245498E+02  0.68940720979E+02  0.00000000000E+00 0. -1.
<scales pt_clust_5="13000.00000" pt_clust_6="13000.00000" pt_clust_7="13000.00000" pt_clust_8="13000.00000" pt_clust_9="57.47196" pt_clust_10="39.88996"></scales>
<clustering>
<clus scale="   39.890">  2 10  1 -1</clus>
<clus scale="   57.472">  1  9  2 -1</clus>
<clus scale="   80.402">  5  6 -1 -1</clus>
<clus scale="   89.660">  7  8 -1 -1</clus>
<clus scale="  107.591">  1  5  2 -1</clus>
<clus scale="   39.890">  2  5  1 -1</clus>
</clustering>
</event>
<event>
10    4  0.3738096E-005  0.9367025E+02  0.7546771E-02  0.1300126E+00
         21   -1    0    0  503  502  0.00000000000E+00  0.00000000000E+00  0.40925655674E+03  0.40925655674E+03  0.00000000000E+00 0.  1.
         -3   -1    0    0    0  501 -0.00000000000E+00 -0.00000000000E+00 -0.17139040310E+03  0.17139040310E+03  0.00000000000E+00 0.  1.
         23    2    1    2    0    0 -0.21030378246E+02  0.44975251485E+02 -0.35830840983E+02  0.10997695280E+03  0.91356614032E+02 0.  0.
         24    2    1    2    0    0  0.50289899352E+01  0.29562578628E+02  0.79245455739E+02  0.11745630725E+03  0.81344360983E+02 0.  0.
        -11    1    4    4    0    0  0.31484032741E+02  0.79756094400E+01  0.14653654524E+01  0.32511566549E+02  0.00000000000E+00 0.  1.
         12    1    4    4    0    0 -0.26455042806E+02  0.21586969188E+02  0.77780090286E+02  0.84944740706E+02  0.00000000000E+00 0. -1.
        -13    1    3    3    0    0 -0.21370746146E+02  0.72888124186E+02 -0.23994551988E+02  0.79656298955E+02  0.00000000000E+00 0.  1.
         13    1    3    3    0    0  0.34036789981E+00 -0.27912872700E+02 -0.11836288995E+02  0.30320653849E+02  0.00000000000E+00 0. -1.
         21    1    1    2  503  501  0.41960600580E+00 -0.24594493716E+02 -0.74896113472E+02  0.78832055685E+02  0.00000000000E+00 0.  1.
         -4    1    1    2    0  502  0.15581782305E+02 -0.49943336397E+02  0.26934765236E+03  0.27438164410E+03  0.00000000000E+00 0.  1.
<scales pt_clust_5="13000.00000" pt_clust_6="13000.00000" pt_clust_7="13000.00000" pt_clust_8="13000.00000" pt_clust_9="24.59807" pt_clust_10="52.94639"></scales>
<clustering>
<clus scale="   24.598">  2  9  1 -1</clus>
<clus scale="   52.946">  1 10  2 -1</clus>
<clus scale="   81.344">  5  6 -1 -1</clus>
<clus scale="   83.934">  1  5  2 -1</clus>
<clus scale="   91.357">  7  8 -1 -1</clus>
<clus scale="   52.946">  1  5  2 -1</clus>
</clustering>
</event>
<event>
10    4  0.3738096E-005  0.1562390E+03  0.7546771E-02  0.1196307E+00
         21   -1    0    0  501  502  0.00000000000E+00  0.00000000000E+00  0.69900823807E+03  0.69900823807E+03  0.00000000000E+00 0. -1.
          2   -1    0    0  503    0 -0.00000000000E+00 -0.00000000000E+00 -0.12993483642E+03  0.12993483642E+03  0.00000000000E+00 0. -1.
         24    2    1    2    0    0 -0.43025033354E+02  0.17393087985E+03  0.37400348767E+02  0.19645243324E+03  0.71355924614E+02 0.  0.
         23    2    1    2    0    0  0.41030355877E+02 -0.75534430142E+02  0.46151328307E+03  0.47828946260E+03  0.91527915617E+02 0.  0.
        -11    1    3    3    0    0  0.15048975126E+02  0.24316119696E+02 -0.79442677958E+01  0.29679230452E+02  0.00000000000E+00 0.  1.
         12    1    3    3    0    0 -0.58074008480E+02  0.14961476015E+03  0.45344616563E+02  0.16677320279E+03  0.00000000000E+00 0. -1.
        -11    1    4    4    0    0 -0.23482396092E+02 -0.51693196605E+02  0.21169587239E+03  0.21917744384E+03  0.00000000000E+00 0.  1.
         11    1    4    4    0    0  0.64512751969E+02 -0.23841233538E+02  0.24981741068E+03  0.25911201876E+03  0.00000000000E+00 0. -1.
         21    1    1    2  503  502  0.22162104890E+02 -0.50344744492E+02 -0.12571509745E+02  0.56425127810E+02  0.00000000000E+00 0.  1.
          1    1    1    2  501    0 -0.20167427413E+02 -0.48051705214E+02  0.82731279556E+02  0.97776050848E+02  0.00000000000E+00 0. -1.
<scales pt_clust_5="13000.00000" pt_clust_6="13000.00000" pt_clust_7="13000.00000" pt_clust_8="13000.00000" pt_clust_9="56.31473" pt_clust_10="52.11230"></scales>
<clustering>
<clus scale="   52.112">  1 10  2 -1</clus>
<clus scale="   56.315">  2  9  1 -1</clus>
<clus scale="   71.356">  5  6 -1 -1</clus>
<clus scale="   91.528">  7  8 -1 -1</clus>
<clus scale="  145.344">  2  5  1 -1</clus>
<clus scale="   52.112">  1  5  2 -1</clus>
</clustering>
</event>
<event>
10    4  0.3738096E-005  0.4294134E+03  0.7546771E-02  0.1034045E+00
          2   -1    0    0  503    0 -0.00000000000E+00  0.00000000000E+00  0.34669334658E+04  0.34669334658E+04  0.00000000000E+00 0. -1.
         21   -1    0    0  501  502  0.00000000000E+00 -0.00000000000E+00 -0.59531914186E+02  0.59531914186E+02  0.00000000000E+00 0.  1.
         24    2    1    2    0    0 -0.11985797671E+03 -0.93631091682E+02  0.54237565814E+03  0.56957702755E+03  0.84344056434E+02 0.  0.
         23    2    1    2    0    0 -0.43512792958E+02 -0.23170557439E+03  0.61577498656E+03  0.66553865493E+03  0.90454578532E+02 0.  0.
        -11    1    3    3    0    0 -0.95785989758E+02 -0.58014041475E+02  0.24841456876E+03  0.27248923431E+03  0.00000000000E+00 0.  1.
         12    1    3    3    0    0 -0.24071986953E+02 -0.35617050207E+02  0.29396108938E+03  0.29708779324E+03  0.00000000000E+00 0. -1.
        -13    1    4    4    0    0 -0.96248782010E+01 -0.18685021465E+03  0.53776444101E+03  0.56938232762E+03  0.00000000000E+00 0.  1.
         13    1    4    4    0    0 -0.33887914757E+02 -0.44855359740E+02  0.78010545554E+02  0.96156327310E+02  0.00000000000E+00 0. -1.
         21    1    1    2  503  502  0.18164358378E+03  0.31611634101E+03  0.22389429050E+04  0.22684332180E+04  0.00000000000E+00 0. -1.
          1    1    1    2  501    0 -0.18272814106E+02  0.92203250580E+01  0.10308001867E+02  0.22916479486E+02  0.00000000000E+00 0. -1.
<scales pt_clust_5="13000.00000" pt_clust_6="13000.00000" pt_clust_7="13000.00000" pt_clust_8="13000.00000" pt_clust_9="364.32403" pt_clust_10="20.46729"></scales>
<clustering>
<clus scale="   20.467">  2 10  1 -1</clus>
<clus scale="   84.344">  5  6 -1 -1</clus>
<clus scale="   90.455">  7  8 -1 -1</clus>
<clus scale="  146.095">  5  7 -1 -1</clus>
<clus scale="  364.324">  1  9  2 -1</clus>
<clus scale="   20.467">  2  5  1 -1</clus>
</clustering>
</event>
<event>
10    4  0.3738096E-005  0.8647357E+02  0.7546771E-02  0.1313267E+00
          2   -1    0    0  503    0 -0.00000000000E+00  0.00000000000E+00  0.31670238406E+03  0.31670238406E+03  0.00000000000E+00 0. -1.
         21   -1    0    0  501  502  0.00000000000E+00 -0.00000000000E+00 -0.11386960750E+03  0.11386960750E+03  0.00000000000E+00 0.  1.
         23    2    1    2    0    0 -0.10736196700E+02 -0.24148743026E+01  0.48279942200E+02  0.97724910332E+02  0.84250268504E+02 0.  0.
         24    2    1    2    0    0  0.48010905741E+00  0.39474871632E+02 -0.61197654146E+02  0.10940910627E+03  0.81649884667E+02 0.  0.
        -11    1    4    4    0    0  0.38282053018E+02  0.30165175329E+02 -0.19873688257E+02  0.52634749651E+02  0.00000000000E+00 0.  1.
         12    1    4    4    0    0 -0.37801943960E+02  0.93096963032E+01 -0.41323965888E+02  0.56774356616E+02  0.00000000000E+00 0. -1.
        -11    1    3    3    0    0 -0.29579669199E+01  0.40220346183E+02  0.14794934164E+02  0.42957140178E+02  0.00000000000E+00 0.  1.
         11    1    3    3    0    0 -0.77782297803E+01 -0.42635220486E+02  0.33485008036E+02  0.54767770153E+02  0.00000000000E+00 0. -1.
         21    1    1    2  503  502 -0.15919016961E+02 -0.15699393110E+02  0.11560644372E+03  0.11774861305E+03  0.00000000000E+00 0.  1.
          1    1    1    2  501    0  0.26175104604E+02 -0.21360604220E+02  0.10014404479E+03  0.10568936191E+03  0.00000000000E+00 0. -1.
<scales pt_clust_5="13000.00000" pt_clust_6="13000.00000" pt_clust_7="13000.00000" pt_clust_8="13000.00000" pt_clust_9="22.35813" pt_clust_10="34.49714"></scales>
<clustering>
<clus scale="   22.358">  1  9  2 -1</clus>
<clus scale="   34.497">  2 10  1 -1</clus>
<clus scale="   81.650">  5  6 -1 -1</clus>
<clus scale="   83.942">  2  5  1 -1</clus>
<clus scale="   84.250">  7  8 -1 -1</clus>
<clus scale="   34.497">  2  5  1 -1</clus>
</clustering>
</event>
<event>
10    4  0.3738096E-005  0.1487925E+03  0.7546771E-02  0.1203612E+00
         -3   -1    0    0    0  501 -0.00000000000E+00  0.00000000000E+00  0.62910088456E+03  0.62910088456E+03  0.00000000000E+00 0.  1.
         21   -1    0    0  503  502  0.00000000000E+00 -0.00000000000E+00 -0.12269191091E+03  0.12269191091E+03  0.00000000000E+00 0.  1.
         24    2    1    2    0    0  0.10650864170E+03  0.52380954196E+02  0.85900580438E+02  0.16683558713E+03  0.79795665881E+02 0.  0.
         23    2    1    2    0    0 -0.12998225592E+03  0.63629249780E+02  0.43451304935E+02  0.17527462934E+03  0.88820670507E+02 0.  0.
        -11    1    3    3    0    0  0.10988451316E+03  0.34492455449E+02  0.92244024991E+02  0.14755777127E+03  0.00000000000E+00 0.  1.
         12    1    3    3    0    0 -0.33758714591E+01  0.17888498746E+02 -0.63434445532E+01  0.19277815859E+02  0.00000000000E+00 0. -1.
        -13    1    4    4    0    0 -0.25568770044E+02 -0.13427432298E+02 -0.15462431387E+02  0.32758887711E+02  0.00000000000E+00 0. -1.
         13    1    4    4    0    0 -0.10441348587E+03  0.77056682078E+02  0.58913736322E+02  0.14251574163E+03  0.00000000000E+00 0.  1.
         21    1    1    2  503  501  0.34741534234E+02 -0.53544139759E+02  0.31322865786E+03  0.31966567099E+03  0.00000000000E+00 0.  1.
         -4    1    1    2    0  502 -0.11267920015E+02 -0.62466064217E+02  0.63828430416E+02  0.90016908021E+02  0.00000000000E+00 0.  1.
<scales pt_clust_5="13000.00000" pt_clust_6="13000.00000" pt_clust_7="13000.00000" pt_clust_8="13000.00000" pt_clust_9="65.19874" pt_clust_10="63.47424"></scales>
<clustering>
<clus scale="   63.474">  2 10  1 -1</clus>
<clus scale="   65.199">  1  9  2 -1</clus>
<clus scale="   79.796">  5  6 -1 -1</clus>
<clus scale="   88.821">  7  8 -1 -1</clus>
<clus scale="  143.588">  1  5  2 -1</clus>
<clus scale="   63.474">  2  5  1 -1</clus>
</clustering>
</event>
<event>
10    4  0.3738096E-005  0.1874695E+03  0.7546771E-02  0.1161254E+00
         21   -1    0    0  501  502  0.00000000000E+00  0.00000000000E+00  0.88718762197E+02  0.88718762197E+02  0.00000000000E+00 0. -1.
          2   -1    0    0  503    0 -0.00000000000E+00 -0.00000000000E+00 -0.60184820603E+03  0.60184820603E+03  0.00000000000E+00 0. -1.
         23    2    1    2    0    0 -0.11827130157E+03  0.95549295121E+02 -0.17645481067E+03  0.25030145985E+03  0.91633793012E+02 0.  0.
         24    2    1    2    0    0  0.92344546118E+02 -0.15493162292E+03 -0.23131360542E+03  0.30600918250E+03  0.87202710643E+02 0.  0.
        -11    1    4    4    0    0  0.77804998626E+01 -0.57651191587E+02 -0.12876062486E+03  0.14129223115E+03  0.00000000000E+00 0.  1.
         12    1    4    4    0    0  0.84564046256E+02 -0.97280431336E+02 -0.10255298056E+03  0.16471695135E+03  0.00000000000E+00 0. -1.
        -13    1    3    3    0    0 -0.94875016644E+02  0.50215168308E+02 -0.59563253680E+02  0.12276242544E+03  0.00000000000E+00 0. -1.
         13    1    3    3    0    0 -0.23396284924E+02  0.45334126813E+02 -0.11689155699E+03  0.12753903441E+03  0.00000000000E+00 0.  1.
         21    1    1    2  503  502  0.30646917657E+02  0.28446128991E+02 -0.26732461973E+02  0.49629027188E+02  0.00000000000E+00 0. -1.
          1    1    1    2  501    0 -0.47201622068E+01  0.30936198811E+02 -0.78628565773E+02  0.84627298691E+02  0.00000000000E+00 0. -1.
<scales pt_clust_5="13000.00000" pt_clust_6="13000.00000" pt_clust_7="13000.00000" pt_clust_8="13000.00000" pt_clust_9="44.29792" pt_clust_10="31.29424"></scales>
<clustering>
<clus scale="   31.294">  1 10  2 -1</clus>
<clus scale="   44.298">  1  9  2 -1</clus>
<clus scale="   87.203">  5  6 -1 -1</clus>
<clus scale="   91.634">  7  8 -1 -1</clus>
<clus scale="  185.344">  1  5  2 -1</clus>
<clus scale="   31.294">  1  5  2 -1</clus>
</clustering>
</event>
<event>
10    4  0.3738096E-005  0.2334461E+03  0.7546771E-02  0.1165955E+00
         21   -1    0    0  501  502  0.00000000000E+00  0.00000000000E+00  0.35330702038E+03  0.35330702038E+03  0.00000000000E+00 0. -1.
          2   -1    0    0  503    0 -0.00000000000E+00 -0.00000000000E+00 -0.29403008217E+03  0.29403008217E+03  0.00000000000E+00 0. -1.
         24    2    1    2    0    0  0.18013841107E+02  0.36596367369E+02  0.96783893674E+02  0.12884812312E+03  0.74638623915E+02 0.  0.
         23    2    1    2    0    0  0.33316374208E+02 -0.20545448642E+03 -0.35385245387E+02  0.23176341801E+03  0.95606691988E+02 0.  0.
        -13    1    3    3    0    0 -0.17329356920E+02 -0.14429680371E+02  0.20255260935E+02  0.30311678977E+02  0.00000000000E+00 0.  1.
         14    1    3    3    0    0  0.35343198026E+02  0.51026047740E+02  0.76528632739E+02  0.98536444139E+02  0.00000000000E+00 0. -1.
        -13    1    4    4    0    0  0.26429850443E+02 -0.28713993173E+02 -0.38556851193E+02  0.54860378893E+02  0.00000000000E+00 0.  1.
         13    1    4    4    0    0  0.68865237655E+01 -0.17674049325E+03  0.31716058059E+01  0.17690303911E+03  0.00000000000E+00 0. -1.
         21    1    1    2  503  502  0.47700344418E+02 -0.33311372790E+02  0.17487840161E+02  0.60751913289E+02  0.00000000000E+00 0. -1.
          1    1    1    2  501    0 -0.99030559733E+02  0.20216949184E+03 -0.19609550244E+02  0.22597364814E+03  0.00000000000E+00 0. -1.
<scales pt_clust_5="13000.00000" pt_clust_6="13000.00000" pt_clust_7="13000.00000" pt_clust_8="13000.00000" pt_clust_9="58.18050" pt_clust_10="212.97057"></scales>
<clustering>
<clus scale="   58.180">  1  9  2 -1</clus>
<clus scale="   74.639">  5  6 -1 -1</clus>
<clus scale="   86.097">  2  5  1 -1</clus>
<clus scale="   95.607">  7  8 -1 -1</clus>
<clus scale="  212.971">  1 10  2 -1</clus>
<clus scale="   58.180">  1  5  2 -1</clus>
</clustering>
</event>
<event>
10    4  0.3738096E-005  0.2387691E+03  0.7546771E-02  0.1157409E+00
         21   -1    0    0  501  502  0.00000000000E+00  0.00000000000E+00  0.35440318730E+03  0.35440318730E+03  0.00000000000E+00 0. -1.
          2   -1    0    0  503    0 -0.00000000000E+00 -0.00000000000E+00 -0.49568921043E+03  0.49568921043E+03  0.00000000000E+00 0. -1.
         24    2    1    2    0    0 -0.34832519829E+02 -0.38042067417E+02 -0.48439014248E+02  0.10942528141E+03  0.83468861139E+02 0.  0.
         23    2    1    2    0    0  0.14475918470E+03 -0.10769263149E+03  0.59619127641E+02  0.20890690339E+03  0.86802819470E+02 0.  0.
        -11    1    3    3    0    0 -0.58355290711E+02 -0.44858074960E+02 -0.35260417201E+02  0.81614238122E+02  0.00000000000E+00 0.  1.
         12    1    3    3    0    0  0.23522770882E+02  0.68160075427E+01 -0.13178597047E+02  0.27811043290E+02  0.00000000000E+00 0. -1.
        -13    1    4    4    0    0  0.13260551309E+03 -0.50740488182E+02  0.41781148261E+02  0.14800163375E+03  0.00000000000E+00 0.  1.
         13    1    4    4    0    0  0.12153671618E+02 -0.56952143312E+02  0.17837979381E+02  0.60905269640E+02  0.00000000000E+00 0. -1.
         21    1    1    2  503  502  0.16338341548E+03 -0.13451084542E+02 -0.13941676458E+03  0.21520247762E+03  0.00000000000E+00 0.  1.
          1    1    1    2  501    0 -0.27331008035E+03  0.15918578345E+03 -0.13049371955E+02  0.31655773531E+03  0.00000000000E+00 0. -1.
<scales pt_clust_5="13000.00000" pt_clust_6="13000.00000" pt_clust_7="13000.00000" pt_clust_8="13000.00000" pt_clust_9="151.49102" pt_clust_10="222.43203"></scales>
<clustering>
<clus scale="   83.469">  5  6 -1 -1</clus>
<clus scale="   86.803">  7  8 -1 -1</clus>
<clus scale="   98.120">  2  5  1 -1</clus>
<clus scale="  151.491">  2  9  1 -1</clus>
<clus scale="  222.432">  1 10  2 -1</clus>
<clus scale="  222.432">  1  5  2 -1</clus>
</clustering>
</event>
<event>
10    4  0.3738096E-005  0.1449397E+03  0.7546771E-02  0.1227767E+00
          4   -1    0    0  502    0 -0.00000000000E+00  0.00000000000E+00  0.74244137122E+03  0.74244137122E+03  0.00000000000E+00 0. -1.
         21   -1    0    0  503  502  0.00000000000E+00 -0.00000000000E+00 -0.10658196659E+03  0.10658196659E+03  0.00000000000E+00 0.  1.
         23    2    1    2    0    0  0.21928587745E+02 -0.38110349422E+00 -0.36785089219E+02  0.10019572997E+03  0.90581638949E+02 0.  0.
         24    2    1    2    0    0  0.31602724158E+02  0.11400201049E+03  0.14392600085E+03  0.20341101092E+03  0.81646525176E+02 0.  0.
        -11    1    4    4    0    0  0.32132287536E+02  0.24374421098E+02  0.90467002658E+02  0.99049860556E+02  0.00000000000E+00 0.  1.
         12    1    4    4    0    0 -0.52956337790E+00  0.89627589396E+02  0.53458998190E+02  0.10436115037E+03  0.00000000000E+00 0. -1.
        -11    1    3    3    0    0  0.23744436032E+02 -0.21234620685E+02  0.21389684268E+02  0.38369596704E+02  0.00000000000E+00 0. -1.
         11    1    3    3    0    0 -0.18158482875E+01  0.20853517191E+02 -0.58174773487E+02  0.61826133265E+02  0.00000000000E+00 0.  1.
         21    1    1    2  503  501  0.27200802826E+01 -0.36741162541E+02  0.11026723533E+03  0.11625908587E+03  0.00000000000E+00 0. -1.
          3    1    1    2  501    0 -0.56251392186E+02 -0.76879744459E+02  0.41845125768E+03  0.42915751104E+03  0.00000000000E+00 0. -1.
<scales pt_clust_5="13000.00000" pt_clust_6="13000.00000" pt_clust_7="13000.00000" pt_clust_8="13000.00000" pt_clust_9="28.90744" pt_clust_10="128.46039"></scales>
<clustering>
<clus scale="   28.907">  9 10 -1 -1</clus>
<clus scale="   81.647">  5  6 -1 -1</clus>
<clus scale="   90.582">  7  8 -1 -1</clus>
<clus scale="   93.199">  1  7  2 -1</clus>
<clus scale="  128.460">  2  9  1 -1</clus>
<clus scale="  128.460">  2  5  1 -1</clus>
</clustering>
</event>
<event>
10    4  0.3738096E-005  0.2353318E+03  0.7546771E-02  0.1123531E+00
          2   -1    0    0  503    0 -0.00000000000E+00  0.00000000000E+00  0.27520841072E+03  0.27520841072E+03  0.00000000000E+00 0. -1.
         21   -1    0    0  501  502  0.00000000000E+00 -0.00000000000E+00 -0.66386004101E+03  0.66386004101E+03  0.00000000000E+00 0.  1.
         23    2    1    2    0    0  0.19370831904E+03  0.10440557285E+03  0.16385539572E+03  0.28869794377E+03  0.89858085468E+02 0.  0.
         24    2    1    2    0    0 -0.17959331074E+03 -0.10703625217E+03 -0.37593113970E+03  0.43761984259E+03  0.80476010700E+02 0.  0.
        -11    1    4    4    0    0 -0.17325238141E+03 -0.11746780023E+03 -0.36698783855E+03  0.42248685825E+03  0.00000000000E+00 0.  1.
         12    1    4    4    0    0 -0.63409293313E+01  0.10431548058E+02 -0.89433011475E+01  0.15132984341E+02  0.00000000000E+00 0. -1.
        -13    1    3    3    0    0  0.39708486253E+02  0.37838195037E+02  0.96319900986E+00  0.54858186596E+02  0.00000000000E+00 0.  1.
         13    1    3    3    0    0  0.15399983279E+03  0.66567377812E+02  0.16289219671E+03  0.23383975718E+03  0.00000000000E+00 0. -1.
         21    1    1    2  503  502  0.85059115218E+01 -0.19907303665E+02  0.97254114175E+01  0.23732570389E+02  0.00000000000E+00 0.  1.
          1    1    1    2  501    0 -0.22620919825E+02  0.22537982988E+02 -0.18630129773E+03  0.18901809497E+03  0.00000000000E+00 0. -1.
<scales pt_clust_5="13000.00000" pt_clust_6="13000.00000" pt_clust_7="13000.00000" pt_clust_8="13000.00000" pt_clust_9="21.64835" pt_clust_10="31.82674"></scales>
<clustering>
<clus scale="   21.648">  1  9  2 -1</clus>
<clus scale="   31.827">  2 10  1 -1</clus>
<clus scale="   80.476">  5  6 -1 -1</clus>
<clus scale="   89.858">  7  8 -1 -1</clus>
<clus scale="  231.912">  2  5  1 -1</clus>
<clus scale="   31.827">  2  5  1 -1</clus>
</clustering>
</event>
<event>
10    4  0.3738096E-005  0.1357639E+03  0.7546771E-02  0.1221832E+00
         -3   -1    0    0    0  501 -0.00000000000E+00  0.00000000000E+00  0.19309734420E+03  0.19309734420E+03  0.00000000000E+00 0.  1.
         21   -1    0    0  503  502  0.00000000000E+00 -0.00000000000E+00 -0.25461104595E+03  0.25461104595E+03  0.00000000000E+00 0. -1.
         24    2    1    2    0    0 -0.72828129406E+02  0.67649750522E+02  0.11105048386E+02  0.12752087641E+03  0.79106426041E+02 0.  0.
         23    2    1    2    0    0  0.11850843794E+03 -0.29439031742E+02 -0.12299882736E+03  0.19560839510E+03  0.90680903451E+02 0.  0.
        -13    1    3    3    0    0 -0.66118348094E+02  0.23705622268E+02  0.33415465426E+02  0.77782940363E+02  0.00000000000E+00 0.  1.
         14    1    3    3    0    0 -0.67097813117E+01  0.43944128254E+02 -0.22310417040E+02  0.49737936043E+02  0.00000000000E+00 0. -1.
        -11    1    4    4    0    0  0.26849056693E+02 -0.37062882027E+02 -0.84097639495E+02  0.95744148845E+02  0.00000000000E+00 0. -1.
         11    1    4    4    0    0  0.91659381247E+02  0.76238502854E+01 -0.38901187865E+02  0.99864246260E+02  0.00000000000E+00 0.  1.
         21    1    1    2  503  501 -0.84012964675E+01 -0.21742207645E+02  0.73924652411E+02  0.77512319084E+02  0.00000000000E+00 0. -1.
         -4    1    1    2    0  502 -0.37279012066E+02 -0.16468511136E+02 -0.23544575194E+02  0.47066799558E+02  0.00000000000E+00 0.  1.
<scales pt_clust_5="13000.00000" pt_clust_6="13000.00000" pt_clust_7="13000.00000" pt_clust_8="13000.00000" pt_clust_9="23.30891" pt_clust_10="42.43710"></scales>
<clustering>
<clus scale="   23.309">  1  9  2 -1</clus>
<clus scale="   42.437">  2 10  1 -1</clus>
<clus scale="   79.106">  5  6 -1 -1</clus>
<clus scale="   90.681">  7  8 -1 -1</clus>
<clus scale="  128.322">  1  5  2 -1</clus>
<clus scale="   42.437">  2  5  1 -1</clus>
</clustering>
</event>
<event>
10    4  0.3738096E-005  0.1441979E+03  0.7546771E-02  0.1210285E+00
         21   -1    0    0  503  502  0.00000000000E+00  0.00000000000E+00  0.32947274215E+03  0.32947274215E+03  0.00000000000E+00 0.  1.
         -1   -1    0    0    0  501 -0.00000000000E+00 -0.00000000000E+00 -0.45645146387E+03  0.45645146387E+03  0.00000000000E+00 0.  1.
         23    2    1    2    0    0 -0.53381190991E+02  0.11547127110E+02 -0.36084782873E+03  0.37598307064E+03  0.90383771864E+02 0.  0.
         24    2    1    2    0    0  0.10397008492E+03  0.30008837047E+02  0.27399590669E+03  0.30470918112E+03  0.77869245004E+02 0.  0.
        -13    1    4    4    0    0  0.86559016269E+02 -0.65118470171E+01  0.22502623948E+03  0.24118805092E+03  0.00000000000E+00 0.  1.
         14    1    4    4    0    0  0.17411068648E+02  0.36520684064E+02  0.48969667205E+02  0.63521130202E+02  0.00000000000E+00 0. -1.
        -11    1    3    3    0    0 -0.28115690082E+02 -0.38073713737E+02 -0.12524446241E+03  0.13388904015E+03  0.00000000000E+00 0.  1.
         11    1    3    3    0    0 -0.25265500909E+02  0.49620840847E+02 -0.23560336631E+03  0.24209403049E+03  0.00000000000E+00 0. -1.
         21    1    1    2  503  501 -0.65899768287E+02 -0.16837384949E+02 -0.31075355087E+02  0.74779373399E+02  0.00000000000E+00 0.  1.
         -2    1    1    2    0  502  0.15310874362E+02 -0.24718579208E+02 -0.90514445990E+01  0.30452580861E+02  0.00000000000E+00 0.  1.
<scales pt_clust_5="13000.00000" pt_clust_6="13000.00000" pt_clust_7="13000.00000" pt_clust_8="13000.00000" pt_clust_9="67.44611" pt_clust_10="29.07631"></scales>
<clustering>
<clus scale="   29.076">  1 10  2 -1</clus>
<clus scale="   67.446">  2  9  1 -1</clus>
<clus scale="   77.869">  5  6 -1 -1</clus>
<clus scale="   90.384">  7  8 -1 -1</clus>
<clus scale="  136.702">  1  5  2 -1</clus>
<clus scale="   29.076">  1  5  2 -1</clus>
</clustering>
</event>
<event>
10    4  0.3738096E-005  0.1594133E+03  0.7546771E-02  0.1208220E+00
         21   -1    0    0  501  502  0.00000000000E+00  0.00000000000E+00  0.47882496459E+03  0.47882496459E+03  0.00000000000E+00 0.  1.
          2   -1    0    0  503    0 -0.00000000000E+00 -0.00000000000E+00 -0.40036805206E+03  0.40036805206E+03  0.00000000000E+00 0. -1.
         23    2    1    2    0    0  0.50160361031E+02  0.19193588794E+02 -0.22557604754E+03  0.24913162019E+03  0.91090917693E+02 0.  0.
         24    2    1    2    0    0  0.12481217313E+03  0.12770617148E+03  0.19683391860E+03  0.27808943838E+03  0.81873069015E+02 0.  0.
        -11    1    4    4    0    0  0.76718028706E+02  0.49206572812E+02  0.14817002637E+03  0.17395775192E+03  0.00000000000E+00 0.  1.
         12    1    4    4    0    0  0.48094144420E+02  0.78499598666E+02  0.48663892232E+02  0.10413168646E+03  0.00000000000E+00 0. -1.
        -13    1    3    3    0    0 -0.71976257408E+01 -0.27711929952E+02 -0.92360839131E+02  0.96696853532E+02  0.00000000000E+00 0.  1.
         13    1    3    3    0    0  0.57357986771E+02  0.46905518746E+02 -0.13321520841E+03  0.15243476666E+03  0.00000000000E+00 0. -1.
         21    1    1    2  503  502 -0.16183279171E+03 -0.28229822216E+02 -0.33275538040E+02  0.16761275837E+03  0.00000000000E+00 0. -1.
          1    1    1    2  501    0 -0.13139742442E+02 -0.11866993806E+03  0.14047457950E+03  0.18435919971E+03  0.00000000000E+00 0. -1.
<scales pt_clust_5="13000.00000" pt_clust_6="13000.00000" pt_clust_7="13000.00000" pt_clust_8="13000.00000" pt_clust_9="136.78228" pt_clust_10="116.26204"></scales>
<clustering>
<clus scale="   81.873">  5  6 -1 -1</clus>
<clus scale="   91.091">  7  8 -1 -1</clus>
<clus scale="  105.745">  2  7  1 -1</clus>
<clus scale="  116.262">  1 10  2 -1</clus>
<clus scale="  136.782">  2  9  1 -1</clus>
<clus scale="  116.262">  1  5  2 -1</clus>
</clustering>
</event>
<event>
10    4  0.3738096E-005  0.1189613E+03  0.7546771E-02  0.1250441E+00
         21   -1    0    0  503  502  0.00000000000E+00  0.00000000000E+00  0.68542136492E+02  0.68542136492E+02  0.00000000000E+00 0. -1.
         -3   -1    0    0    0  501 -0.00000000000E+00 -0.00000000000E+00 -0.45156865485E+03  0.45156865485E+03  0.00000000000E+00 0.  1.
         23    2    1    2    0    0  0.65092758991E+02  0.11252682780E+02 -0.26910415757E+03  0.29209298473E+03  0.92398993306E+02 0.  0.
         24    2    1    2    0    0 -0.73277411486E+02 -0.22648150350E+02 -0.55638360548E+02  0.12107495796E+03  0.75372412275E+02 0.  0.
        -11    1    4    4    0    0 -0.32211480214E+02  0.26695406723E+02 -0.31976123541E+02  0.52656402027E+02  0.00000000000E+00 0.  1.
         12    1    4    4    0    0 -0.41065931272E+02 -0.49343557073E+02 -0.23662237006E+02  0.68418555933E+02  0.00000000000E+00 0. -1.
        -11    1    3    3    0    0  0.70190224599E+02  0.42067657597E+02 -0.20669864220E+03  0.22230763399E+03  0.00000000000E+00 0.  1.
         11    1    3    3    0    0 -0.50974656077E+01 -0.30814974817E+02 -0.62405515366E+02  0.69785350731E+02  0.00000000000E+00 0. -1.
         21    1    1    2  503  501  0.15674180652E+02 -0.16128481475E+02 -0.71899731683E+02  0.75335113127E+02  0.00000000000E+00 0. -1.
         -4    1    1    2    0  502 -0.74895281574E+01  0.27523949046E+02  0.13615731434E+02  0.31607735534E+02  0.00000000000E+00 0.  1.
<scales pt_clust_5="13000.00000" pt_clust_6="13000.00000" pt_clust_7="13000.00000" pt_clust_8="13000.00000" pt_clust_9="22.49017" pt_clust_10="28.05756"></scales>
<clustering>
<clus scale="   22.490">  2  9  1 -1</clus>
<clus scale="   28.058">  1 10  2 -1</clus>
<clus scale="   75.372">  5  6 -1 -1</clus>
<clus scale="   92.399">  7  8 -1 -1</clus>
<clus scale="  106.279">  1  5  2 -1</clus>
<clus scale="   28.058">  1  5  2 -1</clus>
</clustering>
</event>
<event>
10    4  0.3738096E-005  0.1455010E+03  0.7546771E-02  0.1226010E+00
          2   -1    0    0  502    0 -0.00000000000E+00  0.00000000000E+00  0.42853352407E+03  0.42853352407E+03  0.00000000000E+00 0. -1.
         21   -1    0    0  503  502  0.00000000000E+00 -0.00000000000E+00 -0.14476107670E+03  0.14476107670E+03  0.00000000000E+00 0.  1.
         23    2    1    2    0    0 -0.12903296782E+02  0.23716917210E+02  0.27762210191E+03  0.29360344957E+03  0.91651333321E+02 0.  0.
         24    2    1    2    0    0 -0.46484572927E+02 -0.12255738120E+03  0.89456166084E+01  0.15375473500E+03  0.79870941341E+02 0.  0.
        -11    1    4    4    0    0 -0.64888010200E+02 -0.88500686565E+02 -0.10851804808E+02  0.11027505184E+03  0.00000000000E+00 0.  1.
         12    1    4    4    0    0  0.18403437273E+02 -0.34056694634E+02  0.19797421416E+02  0.43479683159E+02  0.00000000000E+00 0. -1.
        -13    1    3    3    0    0 -0.28743518242E+02 -0.22927856525E+02  0.18578926173E+03  0.18939251891E+03  0.00000000000E+00 0.  1.
         13    1    3    3    0    0  0.15840221460E+02  0.46644773735E+02  0.91832840187E+02  0.10421093066E+03  0.00000000000E+00 0. -1.
         21    1    1    2  503  501 -0.21972737784E+00  0.30349146854E+02  0.14289882332E+02  0.33545785607E+02  0.00000000000E+00 0. -1.
          1    1    1    2  501    0  0.59607597087E+02  0.68491317135E+02 -0.17085153485E+02  0.92390630602E+02  0.00000000000E+00 0. -1.
<scales pt_clust_5="13000.00000" pt_clust_6="13000.00000" pt_clust_7="13000.00000" pt_clust_8="13000.00000" pt_clust_9="29.22854" pt_clust_10="131.70793"></scales>
<clustering>
<clus scale="   29.229">  9 10 -1 -1</clus>
<clus scale="   79.871">  5  6 -1 -1</clus>
<clus scale="   91.651">  7  8 -1 -1</clus>
<clus scale="   95.546">  1  7  2 -1</clus>
<clus scale="  131.708">  2  9  1 -1</clus>
<clus scale="  131.708">  2  5  1 -1</clus>
</clustering>
</event>
<event>
10    4  0.3738096E-005  0.1868085E+03  0.7546771E-02  0.1178157E+00
         21   -1    0    0  501  502  0.00000000000E+00  0.00000000000E+00  0.33725330702E+03  0.33725330702E+03  0.00000000000E+00 0. -1.
          2   -1    0    0  503    0 -0.00000000000E+00 -0.00000000000E+00 -0.37762207367E+03  0.37762207367E+03  0.00000000000E+00 0. -1.
         24    2    1    2    0    0  0.10032645402E+03  0.53866795980E+02 -0.89243538752E+02  0.16618190777E+03  0.81761776985E+02 0.  0.
         23    2    1    2    0    0 -0.77877622504E+02  0.13272885017E+03  0.73982693388E+02  0.19735901548E+03  0.98971057962E+02 0.  0.
        -13    1    3    3    0    0  0.10422566806E+03  0.68245273820E+02 -0.74168281591E+02  0.14498738316E+03  0.00000000000E+00 0.  1.
         14    1    3    3    0    0 -0.38992140362E+01 -0.14378477840E+02 -0.15075257162E+02  0.21194524613E+02  0.00000000000E+00 0. -1.
        -13    1    4    4    0    0 -0.53638952941E+02  0.23560437246E+02 -0.74039358016E+01  0.59051246737E+02  0.00000000000E+00 0.  1.
         13    1    4    4    0    0 -0.24238669563E+02  0.10916841292E+03  0.81386629190E+02  0.13830776874E+03  0.00000000000E+00 0. -1.
         21    1    1    2  503  502 -0.25570102885E+02 -0.16031682525E+02 -0.14158792500E+03  0.14476873112E+03  0.00000000000E+00 0. -1.
          1    1    1    2  501    0  0.31212713698E+01 -0.17056396363E+03  0.11648000371E+03  0.20656572631E+03  0.00000000000E+00 0. -1.
<scales pt_clust_5="13000.00000" pt_clust_6="13000.00000" pt_clust_7="13000.00000" pt_clust_8="13000.00000" pt_clust_9="30.18021" pt_clust_10="158.43661"></scales>
<clustering>
<clus scale="   30.180">  2  9  1 -1</clus>
<clus scale="   81.762">  5  6 -1 -1</clus>
<clus scale="   98.971">  7  8 -1 -1</clus>
<clus scale="  127.226">  2  5  1 -1</clus>
<clus scale="  158.437">  1 10  2 -1</clus>
<clus scale="  158.437">  1  5  2 -1</clus>
</clustering>
</event>
<event>
10    4  0.3738096E-005  0.2962907E+03  0.7546771E-02  0.1106452E+00
         21   -1    0    0  503  502  0.00000000000E+00  0.00000000000E+00  0.10984522508E+03  0.10984522508E+03  0.00000000000E+00 0.  1.
         -1   -1    0    0    0  501 -0.00000000000E+00 -0.00000000000E+00 -0.20808649660E+04  0.20808649660E+04  0.00000000000E+00 0.  1.
         24    2    1    2    0    0 -0.15717145646E+03 -0.70924290252E+01 -0.18106503082E+03  0.25390094891E+03  0.83234471198E+02 0.  0.
         23    2    1    2    0    0  0.37554901423E+03 -0.94217029687E+02 -0.13639976043E+04  0.14216045750E+04  0.10274333261E+03 0.  0.
        -13    1    3    3    0    0 -0.81166366863E+02 -0.19076961900E+02 -0.38370859922E+02  0.91783617689E+02  0.00000000000E+00 0.  1.
         14    1    3    3    0    0 -0.76005089595E+02  0.11984532875E+02 -0.14269417090E+03  0.16211733122E+03  0.00000000000E+00 0. -1.
        -13    1    4    4    0    0  0.34239593950E+03 -0.11305423256E+03 -0.12691879475E+04  0.13194143719E+04  0.00000000000E+00 0.  1.
         13    1    4    4    0    0  0.33153074725E+02  0.18837202871E+02 -0.94809656867E+02  0.10219020311E+03  0.00000000000E+00 0. -1.
         21    1    1    2  503  501 -0.67209218268E+01 -0.34617001559E+02 -0.80358656007E+02  0.87755462407E+02  0.00000000000E+00 0. -1.
         -2    1    1    2    0  502 -0.21165663594E+03  0.13592646027E+03 -0.34559844973E+03  0.42744920470E+03  0.00000000000E+00 0.  1.
<scales pt_clust_5="13000.00000" pt_clust_6="13000.00000" pt_clust_7="13000.00000" pt_clust_8="13000.00000" pt_clust_9="35.26340" pt_clust_10="277.90647"></scales>
<clustering>
<clus scale="   35.263">  2  9  1 -1</clus>
<clus scale="   83.234">  5  6 -1 -1</clus>
<clus scale="  102.743">  7  8 -1 -1</clus>
<clus scale="  178.828">  2  5  1 -1</clus>
<clus scale="  277.906">  1 10  2 -1</clus>
<clus scale="  277.906">  1  5  2 -1</clus>
</clustering>
</event>
<event>
10    4  0.3738096E-005  0.2571060E+03  0.7546771E-02  0.1110521E+00
         -1   -1    0    0    0  501 -0.00000000000E+00  0.00000000000E+00  0.29432440318E+03  0.29432440318E+03  0.00000000000E+00 0.  1.
         21   -1    0    0  503  502  0.00000000000E+00 -0.00000000000E+00 -0.56251246986E+03  0.56251246986E+03  0.00000000000E+00 0.  1.
         23    2    1    2    0    0  0.15390574307E+03 -0.17600438600E+03  0.36544645659E+02  0.26010069175E+03  0.10794599151E+03 0.  0.
         24    2    1    2    0    0 -0.12304881772E+03  0.13762444694E+03 -0.30710371665E+03  0.36713264661E+03  0.79951156897E+02 0.  0.
        -11    1    4    4    0    0 -0.12395679570E+03  0.13366145138E+03 -0.24748349162E+03  0.30737395695E+03  0.00000000000E+00 0.  1.
         12    1    4    4    0    0  0.90797797108E+00  0.39629955560E+01 -0.59620225032E+02  0.59758689666E+02  0.00000000000E+00 0. -1.
        -13    1    3    3    0    0  0.13264432928E+03 -0.71146994467E+02  0.22427042252E+02  0.15218207890E+03  0.00000000000E+00 0.  1.
         13    1    3    3    0    0  0.21261413787E+02 -0.10485739153E+03  0.14117603407E+02  0.10791861286E+03  0.00000000000E+00 0. -1.
         21    1    1    2  503  501  0.51242596635E+02  0.94936288867E+01  0.91328841821E+02  0.10515174772E+03  0.00000000000E+00 0.  1.
         -2    1    1    2    0  502 -0.82099521982E+02  0.28886310175E+02 -0.88957837504E+02  0.12445178696E+03  0.00000000000E+00 0.  1.
<scales pt_clust_5="13000.00000" pt_clust_6="13000.00000" pt_clust_7="13000.00000" pt_clust_8="13000.00000" pt_clust_9="52.11461" pt_clust_10="82.97659"></scales>
<clustering>
<clus scale="   52.115">  1  9  2 -1</clus>
<clus scale="   79.951">  5  6 -1 -1</clus>
<clus scale="   82.977">  2 10  1 -1</clus>
<clus scale="  107.946">  7  8 -1 -1</clus>
<clus scale="  246.664">  2  5  1 -1</clus>
<clus scale="   82.977">  2  5  1 -1</clus>
</clustering>
</event>
<event>
10    4  0.3738096E-005  0.1369200E+03  0.7546771E-02  0.1219950E+00
          2   -1    0    0  503    0 -0.00000000000E+00  0.00000000000E+00  0.98785024180E+03  0.98785024180E+03  0.00000000000E+00 0. -1.
         21   -1    0    0  501  502  0.00000000000E+00 -0.00000000000E+00 -0.49226231970E+02  0.49226231970E+02  0.00000000000E+00 0.  1.
         24    2    1    2    0    0  0.11317044842E+03  0.67702491517E+02  0.41272346310E+03  0.44068073332E+03  0.80421850106E+02 0.  0.
         23    2    1    2    0    0 -0.61596603272E+02 -0.26872809524E+02  0.17386721233E+03  0.20742694317E+03  0.90993625081E+02 0.  0.
        -13    1    3    3    0    0  0.11550127736E+03  0.80513261439E+02  0.38767890378E+03  0.41245346740E+03  0.00000000000E+00 0.  1.
         14    1    3    3    0    0 -0.23308289408E+01 -0.12810769922E+02  0.25044559322E+02  0.28227265917E+02  0.00000000000E+00 0. -1.
        -11    1    4    4    0    0 -0.79219593329E+00 -0.48510492692E+02  0.71190744752E+02  0.86151132401E+02  0.00000000000E+00 0.  1.
         11    1    4    4    0    0 -0.60804407338E+02  0.21637683168E+02  0.10267646758E+03  0.12127581077E+03  0.00000000000E+00 0. -1.
         21    1    1    2  503  502  0.38838741769E+02 -0.61443241363E+02  0.15212335991E+03  0.16859785409E+03  0.00000000000E+00 0.  1.
          1    1    1    2  501    0 -0.90412586912E+02  0.20613559370E+02  0.19990997450E+03  0.22037094320E+03  0.00000000000E+00 0. -1.
<scales pt_clust_5="13000.00000" pt_clust_6="13000.00000" pt_clust_7="13000.00000" pt_clust_8="13000.00000" pt_clust_9="72.68920" pt_clust_10="80.89115"></scales>
<clustering>
<clus scale="   72.689">  2  9  1 -1</clus>
<clus scale="   80.422">  5  6 -1 -1</clus>
<clus scale="   80.891">  2 10  1 -1</clus>
<clus scale="   90.994">  7  8 -1 -1</clus>
<clus scale="  130.134">  1  5  2 -1</clus>
<clus scale="   72.689">  2  5  1 -1</clus>
</clustering>
</event>
<event>
10    4  0.3738096E-005  0.1680201E+03  0.7546771E-02  0.1212855E+00
          4   -1    0    0  503    0 -0.00000000000E+00  0.00000000000E+00  0.58856218020E+03  0.58856218020E+03  0.00000000000E+00 0. -1.
         21   -1    0    0  501  502  0.00000000000E+00 -0.00000000000E+00 -0.97176482450E+02  0.97176482450E+02  0.00000000000E+00 0.  1.
         24    2    1    2    0    0 -0.20624775225E+02  0.79838924605E+01  0.10784035010E+03  0.13549427639E+03  0.78993885422E+02 0.  0.
         23    2    1    2    0    0  0.10200687900E+03 -0.11286319753E+03  0.60406864768E+02  0.18571953518E+03  0.87745380016E+02 0.  0.
        -13    1    3    3    0    0 -0.33209261646E+02  0.31855036906E+02  0.34997675665E+02  0.57813802308E+02  0.00000000000E+00 0.  1.
         14    1    3    3    0    0  0.12584486421E+02 -0.23871144445E+02  0.72842674433E+02  0.77680474085E+02  0.00000000000E+00 0. -1.
        -13    1    4    4    0    0  0.77449926116E+02 -0.10535849986E+03  0.80112004179E+02  0.15335200606E+03  0.00000000000E+00 0.  1.
         13    1    4    4    0    0  0.24556952883E+02 -0.75046976726E+01 -0.19705139410E+02  0.32367529118E+02  0.00000000000E+00 0. -1.
         21    1    1    2  503  502  0.14117491779E+02  0.18719005621E+02  0.13246902499E+03  0.13452786822E+03  0.00000000000E+00 0. -1.
          3    1    1    2  501    0 -0.95499595552E+02  0.86160299453E+02  0.19066945789E+03  0.22999698286E+03  0.00000000000E+00 0. -1.
<scales pt_clust_5="13000.00000" pt_clust_6="13000.00000" pt_clust_7="13000.00000" pt_clust_8="13000.00000" pt_clust_9="23.44578" pt_clust_10="143.28826"></scales>
<clustering>
<clus scale="   23.446">  1  9  2 -1</clus>
<clus scale="   78.994">  5  6 -1 -1</clus>
<clus scale="   81.809">  1  5  2 -1</clus>
<clus scale="   87.745">  7  8 -1 -1</clus>
<clus scale="  143.288">  2 10  1 -1</clus>
<clus scale="  143.288">  2  5  1 -1</clus>
</clustering>
</event>
<event>
10    4  0.3738096E-005  0.9074519E+02  0.7546771E-02  0.1305196E+00
         -1   -1    0    0    0  501 -0.00000000000E+00  0.00000000000E+00  0.20041645946E+03  0.20041645946E+03  0.00000000000E+00 0.  1.
         21   -1    0    0  503  502  0.00000000000E+00 -0.00000000000E+00 -0.31728219969E+03  0.31728219969E+03  0.00000000000E+00 0.  1.
         23    2    1    2    0    0 -0.32624662647E+02  0.18481967061E+02  0.39568417859E+02  0.10510871925E+03  0.89867855497E+02 0.  0.
         24    2    1    2    0    0  0.25950834530E+02 -0.11629159872E+02 -0.11865344672E+03  0.14765923720E+03  0.83162051075E+02 0.  0.
        -11    1    4    4    0    0  0.53890500894E+02  0.31732496982E+01 -0.57847717922E+02  0.79124042295E+02  0.00000000000E+00 0.  1.
         12    1    4    4    0    0 -0.27939666364E+02 -0.14802409570E+02 -0.60805728801E+02  0.68535194905E+02  0.00000000000E+00 0. -1.
        -13    1    3    3    0    0 -0.15398111826E+02  0.50257895792E+02  0.14583840618E+01  0.52584073837E+02  0.00000000000E+00 0. -1.
         13    1    3    3    0    0 -0.17226550821E+02 -0.31775928731E+02  0.38110033798E+02  0.52524645415E+02  0.00000000000E+00 0.  1.
         21    1    1    2  503  501  0.33670507706E+02 -0.15411250914E+02  0.10916824529E+03  0.11527755863E+03  0.00000000000E+00 0.  1.
         -2    1    1    2    0  502 -0.26996679589E+02  0.85584437241E+01 -0.14694895666E+03  0.14965314407E+03  0.00000000000E+00 0.  1.
<scales pt_clust_5="13000.00000" pt_clust_6="13000.00000" pt_clust_7="13000.00000" pt_clust_8="13000.00000" pt_clust_9="36.52177" pt_clust_10="28.32080"></scales>
<clustering>
<clus scale="   28.321">  2 10  1 -1</clus>
<clus scale="   36.522">  1  9  2 -1</clus>
<clus scale="   83.162">  5  6 -1 -1</clus>
<clus scale="   84.109">  2  5  1 -1</clus>
<clus scale="   89.868">  7  8 -1 -1</clus>
<clus scale="   28.321">  2  5  1 -1</clus>
</clustering>
</event>
<event>
10    4  0.8509755E-005  0.7766851E+03  0.7546771E-02  0.9897499E-01
          2   -1    0    0  503    0 -0.00000000000E+00  0.00000000000E+00  0.87640268402E+03  0.87640268402E+03  0.00000000000E+00 0. -1.
         21   -1    0    0  501  502  0.00000000000E+00 -0.00000000000E+00 -0.12362693967E+04  0.12362693967E+04  0.00000000000E+00 0. -1.
         23    2    1    2    0    0  0.23348498045E+03 -0.14037228242E+03 -0.11268580910E+03  0.30854667784E+03  0.91012895049E+02 0.  0.
         24    2    1    2    0    0 -0.66860951782E+03  0.65829696460E+03  0.13917257792E+03  0.95198104412E+03  0.80655570136E+02 0.  0.
        -13    1    4    4    0    0 -0.12032154336E+03  0.16407778924E+03  0.23535677505E+02  0.20482363837E+03  0.00000000000E+00 0.  1.
         14    1    4    4    0    0 -0.54828797446E+03  0.49421917536E+03  0.11563690042E+03  0.74715740575E+03  0.00000000000E+00 0. -1.
        -13    1    3    3    0    0  0.13185158217E+03 -0.36871147941E+02 -0.84165808493E+02  0.16071155712E+03  0.00000000000E+00 0.  1.
         13    1    3    3    0    0  0.10163339827E+03 -0.10350113448E+03 -0.28520000612E+02  0.14783512072E+03  0.00000000000E+00 0. -1.
         21    1    1    2  503  502 -0.21722545160E+02  0.26170526192E+02  0.13850077193E+02  0.36723154108E+02  0.00000000000E+00 0.  1.
          1    1    1    2  501    0  0.45684708253E+03 -0.54409520836E+03 -0.40020355866E+03  0.81542120462E+03  0.00000000000E+00 0. -1.
<scales pt_clust_5="13000.00000" pt_clust_6="13000.00000" pt_clust_7="13000.00000" pt_clust_8="13000.00000" pt_clust_9="34.01125" pt_clust_10="772.48583"></scales>
<clustering>
<clus scale="   34.011">  1  9  2 -1</clus>
<clus scale="   80.656">  5  6 -1 -1</clus>
<clus scale="   91.013">  7  8 -1 -1</clus>
<clus scale="  283.735">  1  7  2 -1</clus>
<clus scale="  772.486">  2 10  1 -1</clus>
<clus scale="  772.486">  2  5  1 -1</clus>
</clustering>
</event>
<event>
10    4  0.3738096E-005  0.1309595E+03  0.7546771E-02  0.1226225E+00
          2   -1    0    0  503    0 -0.00000000000E+00  0.00000000000E+00  0.46258285494E+03  0.46258285494E+03  0.00000000000E+00 0. -1.
         21   -1    0    0  501  502  0.00000000000E+00 -0.00000000000E+00 -0.28124527431E+03  0.28124527431E+03  0.00000000000E+00 0.  1.
         24    2    1    2    0    0 -0.71641250400E+02  0.37178041266E+02  0.15840373416E+03  0.19538821469E+03  0.81056375025E+02 0.  0.
         23    2    1    2    0    0  0.12899014406E+03 -0.32888098527E+02  0.61678223007E+02  0.16722044503E+03  0.80239577228E+02 0.  0.
        -11    1    3    3    0    0  0.94673541700E+01  0.24330265539E+02  0.70087649918E+02  0.74792187340E+02  0.00000000000E+00 0.  1.
         12    1    3    3    0    0 -0.81108604570E+02  0.12847775728E+02  0.88316084246E+02  0.12059602735E+03  0.00000000000E+00 0. -1.
        -11    1    4    4    0    0  0.87638753933E+02 -0.14574350747E+02  0.78906994988E+02  0.11882456290E+03  0.00000000000E+00 0. -1.
         11    1    4    4    0    0  0.41351390131E+02 -0.18313747779E+02 -0.17228771980E+02  0.48395882133E+02  0.00000000000E+00 0.  1.
         21    1    1    2  503  502 -0.27688109334E+02 -0.15469544258E+02  0.16855379699E+03  0.17151186745E+03  0.00000000000E+00 0. -1.
          1    1    1    2  501    0 -0.29660784329E+02  0.11179601519E+02 -0.20729817353E+03  0.20970760207E+03  0.00000000000E+00 0. -1.
<scales pt_clust_5="13000.00000" pt_clust_6="13000.00000" pt_clust_7="13000.00000" pt_clust_8="13000.00000" pt_clust_9="32.13591" pt_clust_10="31.69772"></scales>
<clustering>
<clus scale="   31.698">  2 10  1 -1</clus>
<clus scale="   32.136">  1  9  2 -1</clus>
<clus scale="   80.240">  7  8 -1 -1</clus>
<clus scale="   81.056">  5  6 -1 -1</clus>
<clus scale="  130.455">  2  7  1 -1</clus>
<clus scale="   31.698">  2  5  1 -1</clus>
</clustering>
</event>
<event>
10    4  0.3738096E-005  0.1412614E+03  0.7546771E-02  0.1237495E+00
          4   -1    0    0  503    0 -0.00000000000E+00  0.00000000000E+00  0.11433262015E+03  0.11433262015E+03  0.00000000000E+00 0. -1.
         21   -1    0    0  501  502  0.00000000000E+00 -0.00000000000E+00 -0.65052628230E+03  0.65052628230E+03  0.00000000000E+00 0. -1.
         24    2    1    2    0    0 -0.20895333463E+02  0.94801730998E+01 -0.37768637321E+03  0.38663588351E+03  0.79459557453E+02 0.  0.
         23    2    1    2    0    0 -0.62174226173E+02  0.83678746300E+02  0.73444925235E+01  0.13745992037E+03  0.89294575177E+02 0.  0.
        -11    1    3    3    0    0 -0.25776357632E+02 -0.20212138025E+02 -0.67863583510E+02  0.75355272563E+02  0.00000000000E+00 0.  1.
         12    1    3    3    0    0  0.48810241693E+01  0.29692311125E+02 -0.30982278970E+03  0.31128061095E+03  0.00000000000E+00 0. -1.
        -11    1    4    4    0    0 -0.42519213532E+02  0.97381582030E+02  0.23155666133E+02  0.10875311909E+03  0.00000000000E+00 0. -1.
         11    1    4    4    0    0 -0.19655012641E+02 -0.13702835730E+02 -0.15811173610E+02  0.28706801282E+02  0.00000000000E+00 0.  1.
         21    1    1    2  503  502  0.23989131951E+02  0.37627802267E+00  0.15332597721E+02  0.28472944874E+02  0.00000000000E+00 0. -1.
          3    1    1    2  501    0  0.59080427685E+02 -0.93535197423E+02 -0.18118437918E+03  0.21229015369E+03  0.00000000000E+00 0. -1.
<scales pt_clust_5="13000.00000" pt_clust_6="13000.00000" pt_clust_7="13000.00000" pt_clust_8="13000.00000" pt_clust_9="23.99208" pt_clust_10="109.45897"></scales>
<clustering>
<clus scale="   23.992">  1  9  2 -1</clus>
<clus scale="   79.460">  5  6 -1 -1</clus>
<clus scale="   82.423">  1  5  2 -1</clus>
<clus scale="   89.295">  7  8 -1 -1</clus>
<clus scale="  109.459">  2 10  1 -1</clus>
<clus scale="  109.459">  2  5  1 -1</clus>
</clustering>
</event>
<event>
10    4  0.3738096E-005  0.1010459E+03  0.7546771E-02  0.1282965E+00
         21   -1    0    0  501  502  0.00000000000E+00  0.00000000000E+00  0.13028202362E+03  0.13028202362E+03  0.00000000000E+00 0. -1.
          4   -1    0    0  503    0 -0.00000000000E+00 -0.00000000000E+00 -0.25793400428E+03  0.25793400428E+03  0.00000000000E+00 0. -1.
         24    2    1    2    0    0 -0.28364006869E+02  0.32526267199E+02 -0.40547081271E+02  0.10024823352E+03  0.80889848445E+02 0.  0.
         23    2    1    2    0    0  0.26641093060E+02 -0.36403463460E+02 -0.56143091340E+02  0.11597828652E+03  0.90906304778E+02 0.  0.
        -13    1    3    3    0    0 -0.40164811623E+02  0.25271558639E+02  0.94344857190E+01  0.48382572168E+02  0.00000000000E+00 0.  1.
         14    1    3    3    0    0  0.11800804754E+02  0.72547085607E+01 -0.49981566990E+02  0.51865661356E+02  0.00000000000E+00 0. -1.
        -13    1    4    4    0    0  0.55341344992E+02 -0.45539016776E+01 -0.17393616567E+02  0.58188833836E+02  0.00000000000E+00 0.  1.
         13    1    4    4    0    0 -0.28700251932E+02 -0.31849561783E+02 -0.38749474772E+02  0.57789452687E+02  0.00000000000E+00 0. -1.
         21    1    1    2  503  502  0.24926021780E+02 -0.51474593455E+01 -0.97593906192E+02  0.10085818472E+03  0.00000000000E+00 0.  1.
          3    1    1    2  501    0 -0.23203107970E+02  0.90246556067E+01  0.66632098141E+02  0.71131323135E+02  0.00000000000E+00 0. -1.
<scales pt_clust_5="13000.00000" pt_clust_6="13000.00000" pt_clust_7="13000.00000" pt_clust_8="13000.00000" pt_clust_9="24.79966" pt_clust_10="24.89636"></scales>
<clustering>
<clus scale="   24.896">  1 10  2 -1</clus>
<clus scale="   24.800">  2  9  1 -1</clus>
<clus scale="   80.890">  5  6 -1 -1</clus>
<clus scale="   90.906">  7  8 -1 -1</clus>
<clus scale="   92.138">  2  5  1 -1</clus>
<clus scale="   24.896">  1  5  2 -1</clus>
</clustering>
</event>
<event>
10    4  0.3738096E-005  0.2248377E+03  0.7546771E-02  0.1152651E+00
         21   -1    0    0  501  502  0.00000000000E+00  0.00000000000E+00  0.58988430449E+03  0.58988430449E+03  0.00000000000E+00 0. -1.
          2   -1    0    0  503    0 -0.00000000000E+00 -0.00000000000E+00 -0.32160486446E+03  0.32160486446E+03  0.00000000000E+00 0. -1.
         24    2    1    2    0    0 -0.73496521483E+02 -0.65692626623E+02 -0.60591191647E+01  0.12694174341E+03  0.79751071666E+02 0.  0.
         23    2    1    2    0    0 -0.11779307152E+03  0.40588619346E+02 -0.13801673674E+03  0.20703384319E+03  0.91059040645E+02 0.  0.
        -13    1    3    3    0    0 -0.26717664528E+02 -0.57460289106E+02 -0.33920294300E+02  0.71875620257E+02  0.00000000000E+00 0.  1.
         14    1    3    3    0    0 -0.46778856955E+02 -0.82323375165E+01  0.27861175135E+02  0.55066123151E+02  0.00000000000E+00 0. -1.
        -13    1    4    4    0    0 -0.58915265857E+02 -0.20879057443E+02 -0.89174078986E+02  0.10889885194E+03  0.00000000000E+00 0.  1.
         13    1    4    4    0    0 -0.58877805668E+02  0.61467676789E+02 -0.48842657757E+02  0.98134991246E+02  0.00000000000E+00 0. -1.
         21    1    1    2  503  502 -0.25248670567E+02 -0.63129588506E+01 -0.55346437736E+02  0.61160256580E+02  0.00000000000E+00 0. -1.
          1    1    1    2  501    0  0.21653826357E+03  0.31416966127E+02  0.46770173367E+03  0.51635332577E+03  0.00000000000E+00 0. -1.
<scales pt_clust_5="13000.00000" pt_clust_6="13000.00000" pt_clust_7="13000.00000" pt_clust_8="13000.00000" pt_clust_9="26.02593" pt_clust_10="205.57297"></scales>
<clustering>
<clus scale="   26.026">  2  9  1 -1</clus>
<clus scale="   79.751">  5  6 -1 -1</clus>
<clus scale="   91.059">  7  8 -1 -1</clus>
<clus scale="  131.405">  2  5  1 -1</clus>
<clus scale="  205.573">  1 10  2 -1</clus>
<clus scale="  205.573">  1  5  2 -1</clus>
</clustering>
</event>
<event>
10    4  0.3738096E-005  0.2843925E+03  0.7546771E-02  0.1094016E+00
         21   -1    0    0  501  502  0.00000000000E+00  0.00000000000E+00  0.54676879374E+03  0.54676879374E+03  0.00000000000E+00 0.  1.
          2   -1    0    0  503    0 -0.00000000000E+00 -0.00000000000E+00 -0.59925964463E+03  0.59925964463E+03  0.00000000000E+00 0. -1.
         24    2    1    2    0    0 -0.47948992024E+02 -0.22268469966E+03  0.97521628531E+02  0.26064798626E+03  0.80866083193E+02 0.  0.
         23    2    1    2    0    0  0.51494713901E+02  0.34640901826E+03  0.25444689551E+03  0.44369046185E+03  0.97298971253E+02 0.  0.
        -11    1    3    3    0    0  0.37302107042E+01 -0.13123930625E+03  0.81135727196E+02  0.15433948362E+03  0.00000000000E+00 0.  1.
         12    1    3    3    0    0 -0.51679202728E+02 -0.91445393410E+02  0.16385901334E+02  0.10630850264E+03  0.00000000000E+00 0. -1.
        -11    1    4    4    0    0 -0.26942087355E+02  0.72074799395E+02  0.69332816502E+02  0.10357457325E+03  0.00000000000E+00 0. -1.
         11    1    4    4    0    0  0.78436801256E+02  0.27433421887E+03  0.18511407901E+03  0.34011588860E+03  0.00000000000E+00 0.  1.
         21    1    1    2  503  502 -0.66390007400E+01  0.23113082671E+02 -0.24486901349E+02  0.34320536987E+02  0.00000000000E+00 0. -1.
          1    1    1    2  501    0  0.30932788636E+01 -0.14683740128E+03 -0.37997247358E+03  0.40736945328E+03  0.00000000000E+00 0. -1.
<scales pt_clust_5="13000.00000" pt_clust_6="13000.00000" pt_clust_7="13000.00000" pt_clust_8="13000.00000" pt_clust_9="24.04768" pt_clust_10="130.87888"></scales>
<clustering>
<clus scale="   24.048">  2  9  1 -1</clus>
<clus scale="   80.866">  5  6 -1 -1</clus>
<clus scale="   97.299">  7  8 -1 -1</clus>
<clus scale="  130.879">  1 10  2 -1</clus>
<clus scale="  279.198">  2  5  1 -1</clus>
<clus scale="  130.879">  1  5  2 -1</clus>
</clustering>
</event>
<event>
10    4  0.3738096E-005  0.1069037E+03  0.7546771E-02  0.1267870E+00
         -1   -1    0    0    0  501 -0.00000000000E+00  0.00000000000E+00  0.81103832782E+03  0.81103832782E+03  0.00000000000E+00 0.  1.
         21   -1    0    0  503  502  0.00000000000E+00 -0.00000000000E+00 -0.54580686551E+02  0.54580686551E+02  0.00000000000E+00 0. -1.
         24    2    1    2    0    0 -0.74885672736E+02  0.61816278063E+01  0.18449022634E+03  0.21436009873E+03  0.79167744750E+02 0.  0.
         23    2    1    2    0    0  0.38884762866E+02 -0.88534970892E+02  0.10832831135E+03  0.16727717043E+03  0.83043138497E+02 0.  0.
        -11    1    3    3    0    0 -0.16441853928E+02  0.34475188416E+02  0.10493445117E+03  0.11166965666E+03  0.00000000000E+00 0.  1.
         12    1    3    3    0    0 -0.58443818808E+02 -0.28293560610E+02  0.79555775170E+02  0.10269044207E+03  0.00000000000E+00 0. -1.
        -13    1    4    4    0    0  0.25446996788E+02 -0.37220257682E+02  0.10483229539E+03  0.11411707753E+03  0.00000000000E+00 0.  1.
         13    1    4    4    0    0  0.13437766078E+02 -0.51314713210E+02  0.34960159621E+01  0.53160092895E+02  0.00000000000E+00 0. -1.
         21    1    1    2  503  501  0.52730617990E+02  0.44381175861E+02  0.41205782812E+03  0.41778207304E+03  0.00000000000E+00 0.  1.
         -2    1    1    2    0  502 -0.16729708120E+02  0.37972167224E+02  0.51581275459E+02  0.66199672170E+02  0.00000000000E+00 0.  1.
<scales pt_clust_5="13000.00000" pt_clust_6="13000.00000" pt_clust_7="13000.00000" pt_clust_8="13000.00000" pt_clust_9="69.66898" pt_clust_10="41.49420"></scales>
<clustering>
<clus scale="   41.494">  2 10  1 -1</clus>
<clus scale="   69.669">  1  9  2 -1</clus>
<clus scale="   79.168">  5  6 -1 -1</clus>
<clus scale="   83.043">  7  8 -1 -1</clus>
<clus scale="  103.922">  1  5  2 -1</clus>
<clus scale="   41.494">  2  5  1 -1</clus>
</clustering>
</event>
<event>
10    4  0.3738096E-005  0.1356552E+03  0.7546771E-02  0.1221808E+00
         -3   -1    0    0    0  501 -0.00000000000E+00  0.00000000000E+00  0.55685874924E+03  0.55685874924E+03  0.00000000000E+00 0.  1.
         21   -1    0    0  503  502  0.00000000000E+00 -0.00000000000E+00 -0.74578106085E+02  0.74578106085E+02  0.00000000000E+00 0. -1.
         23    2    1    2    0    0  0.89764478457E+02 -0.81287653134E+02  0.31044072013E+03  0.34545805722E+03  0.91117969896E+02 0.  0.
         24    2    1    2    0    0 -0.55534218327E+02  0.57054416931E+02  0.14602717902E+03  0.18473258433E+03  0.80392380271E+02 0.  0.
        -11    1    4    4    0    0 -0.52444275502E+02 -0.23609431716E+01  0.81675202276E+02  0.97091785195E+02  0.00000000000E+00 0.  1.
         12    1    4    4    0    0 -0.30899428252E+01  0.59415360102E+02  0.64351976740E+02  0.87640799136E+02  0.00000000000E+00 0. -1.
        -11    1    3    3    0    0 -0.13895748993E+02 -0.34349198480E+02  0.91347820796E+02  0.98576790577E+02  0.00000000000E+00 0.  1.
         11    1    3    3    0    0  0.10366022745E+03 -0.46938454654E+02  0.21909289934E+03  0.24688126664E+03  0.00000000000E+00 0. -1.
         21    1    1    2  503  501 -0.18956872124E+02 -0.95823378153E+01  0.51773375465E+02  0.55961295604E+02  0.00000000000E+00 0. -1.
         -4    1    1    2    0  502 -0.15273388006E+02  0.33815574018E+02 -0.25960631462E+02  0.45284918166E+02  0.00000000000E+00 0.  1.
<scales pt_clust_5="13000.00000" pt_clust_6="13000.00000" pt_clust_7="13000.00000" pt_clust_8="13000.00000" pt_clust_9="21.24110" pt_clust_10="37.08922"></scales>
<clustering>
<clus scale="   21.241">  1  9  2 -1</clus>
<clus scale="   37.089">  2 10  1 -1</clus>
<clus scale="   80.392">  5  6 -1 -1</clus>
<clus scale="   91.118">  7  8 -1 -1</clus>
<clus scale="  128.696">  2  5  1 -1</clus>
<clus scale="   37.089">  2  5  1 -1</clus>
</clustering>
</event>
<event>
10    4  0.3738096E-005  0.3204919E+03  0.7546771E-02  0.1075530E+00
          2   -1    0    0  503    0 -0.00000000000E+00  0.00000000000E+00  0.15029133737E+04  0.15029133737E+04  0.00000000000E+00 0. -1.
         21   -1    0    0  501  502  0.00000000000E+00 -0.00000000000E+00 -0.16692020285E+03  0.16692020285E+03  0.00000000000E+00 0. -1.
         24    2    1    2    0    0 -0.36284904237E+01  0.28936561037E+03  0.82224373513E+03  0.87558411421E+03  0.82566086787E+02 0.  0.
         23    2    1    2    0    0  0.28358282091E+02 -0.33787638965E+03  0.84149129381E+02  0.35980028555E+03  0.86084392641E+02 0.  0.
        -11    1    3    3    0    0  0.34788090941E+02  0.20882508460E+03  0.57879938801E+03  0.61630094823E+03  0.00000000000E+00 0.  1.
         12    1    3    3    0    0 -0.38416581365E+02  0.80540525776E+02  0.24344434712E+03  0.25928316598E+03  0.00000000000E+00 0. -1.
        -11    1    4    4    0    0 -0.58279680907E+01 -0.23972069692E+03  0.88932176091E+02  0.25575165628E+03  0.00000000000E+00 0.  1.
         11    1    4    4    0    0  0.34186250182E+02 -0.98155692730E+02 -0.47830467094E+01  0.10404862927E+03  0.00000000000E+00 0. -1.
         21    1    1    2  503  502  0.73377012300E+01  0.21770509277E+02  0.15292094872E+03  0.15463703790E+03  0.00000000000E+00 0. -1.
          1    1    1    2  501    0 -0.32067492898E+02  0.26740270006E+02  0.27667935764E+03  0.27981213891E+03  0.00000000000E+00 0. -1.
<scales pt_clust_5="13000.00000" pt_clust_6="13000.00000" pt_clust_7="13000.00000" pt_clust_8="13000.00000" pt_clust_9="22.97383" pt_clust_10="43.69080"></scales>
<clustering>
<clus scale="   22.974">  1  9  2 -1</clus>
<clus scale="   43.691">  2 10  1 -1</clus>
<clus scale="   82.566">  5  6 -1 -1</clus>
<clus scale="   86.084">  7  8 -1 -1</clus>
<clus scale="  319.565">  1  5  2 -1</clus>
<clus scale="   43.691">  2  5  1 -1</clus>
</clustering>
</event>
<event>
10    4  0.3738096E-005  0.1135079E+03  0.7546771E-02  0.1257780E+00
         21   -1    0    0  501  502  0.00000000000E+00  0.00000000000E+00  0.83848659194E+02  0.83848659194E+02  0.00000000000E+00 0.  1.
          2   -1    0    0  503    0 -0.00000000000E+00 -0.00000000000E+00 -0.10009888155E+04  0.10009888155E+04  0.00000000000E+00 0. -1.
         23    2    1    2    0    0  0.83290490588E+02 -0.17085712918E+02 -0.31003367498E+03  0.33402985670E+03  0.90696406417E+02 0.  0.
         24    2    1    2    0    0 -0.77011274179E+02 -0.35580465786E+02  0.95035036968E+01  0.11753701340E+03  0.80795587997E+02 0.  0.
        -13    1    4    4    0    0 -0.50293811915E+02 -0.29741515117E+02  0.44267590500E+02  0.73305148571E+02  0.00000000000E+00 0.  1.
         14    1    4    4    0    0 -0.26717462264E+02 -0.58389506683E+01 -0.34764086803E+02  0.44231864826E+02  0.00000000000E+00 0. -1.
        -13    1    3    3    0    0  0.53707808600E+02  0.33471618000E+02 -0.12774729758E+03  0.14256314375E+03  0.00000000000E+00 0.  1.
         13    1    3    3    0    0  0.29582681988E+02 -0.50557330917E+02 -0.18228637740E+03  0.19146671295E+03  0.00000000000E+00 0. -1.
         21    1    1    2  503  502 -0.48907285988E+02 -0.25016412487E+02 -0.20516809467E+03  0.21239512845E+03  0.00000000000E+00 0. -1.
          1    1    1    2  501    0  0.42628069579E+02  0.77682591190E+02 -0.41144189038E+03  0.42087547618E+03  0.00000000000E+00 0. -1.
<scales pt_clust_5="13000.00000" pt_clust_6="13000.00000" pt_clust_7="13000.00000" pt_clust_8="13000.00000" pt_clust_9="54.93399" pt_clust_10="66.72627"></scales>
<clustering>
<clus scale="   54.934">  2  9  1 -1</clus>
<clus scale="   66.726">  1 10  2 -1</clus>
<clus scale="   80.796">  5  6 -1 -1</clus>
<clus scale="   90.696">  7  8 -1 -1</clus>
<clus scale="  105.765">  1  5  2 -1</clus>
<clus scale="   66.726">  1  5  2 -1</clus>
</clustering>
</event>
<event>
10    4  0.3738096E-005  0.1474101E+03  0.7546771E-02  0.1228057E+00
          2   -1    0    0  503    0 -0.00000000000E+00  0.00000000000E+00  0.54161828077E+03  0.54161828077E+03  0.00000000000E+00 0. -1.
         21   -1    0    0  501  502  0.00000000000E+00 -0.00000000000E+00 -0.10141328036E+03  0.10141328036E+03  0.00000000000E+00 0. -1.
         24    2    1    2    0    0 -0.47695958721E+01  0.39489719845E+02 -0.16368163405E+02  0.88609182531E+02  0.77469241879E+02 0.  0.
         23    2    1    2    0    0  0.10245773859E+03 -0.28166808091E+02  0.30504360109E+03  0.33863348156E+03  0.10163699618E+03 0.  0.
        -13    1    3    3    0    0 -0.29362137103E+02 -0.64452660403E+01 -0.20431240527E+02  0.36347106336E+02  0.00000000000E+00 0.  1.
         14    1    3    3    0    0  0.24592541231E+02  0.45934985885E+02  0.40630771219E+01  0.52262076194E+02  0.00000000000E+00 0. -1.
        -11    1    4    4    0    0  0.71724902495E+02  0.13312713405E+02  0.26026317454E+03  0.27029356263E+03  0.00000000000E+00 0.  1.
         11    1    4    4    0    0  0.30732836093E+02 -0.41479521495E+02  0.44780426549E+02  0.68339918933E+02  0.00000000000E+00 0. -1.
         21    1    1    2  503  502  0.73373165806E+01  0.27901946242E+02  0.74154409492E+02  0.79569034591E+02  0.00000000000E+00 0. -1.
          1    1    1    2  501    0 -0.10502545930E+03 -0.39224857996E+02  0.77375153236E+02  0.13621986244E+03  0.00000000000E+00 0. -1.
<scales pt_clust_5="13000.00000" pt_clust_6="13000.00000" pt_clust_7="13000.00000" pt_clust_8="13000.00000" pt_clust_9="28.85056" pt_clust_10="106.76913"></scales>
<clustering>
<clus scale="   28.851">  1  9  2 -1</clus>
<clus scale="   77.469">  5  6 -1 -1</clus>
<clus scale="   88.060">  1  5  2 -1</clus>
<clus scale="  101.637">  7  8 -1 -1</clus>
<clus scale="  106.769">  2 10  1 -1</clus>
<clus scale="  106.769">  2  5  1 -1</clus>
</clustering>
</event>
<event>
10    4  0.3738096E-005  0.1044240E+03  0.7546771E-02  0.1276468E+00
         21   -1    0    0  501  502  0.00000000000E+00  0.00000000000E+00  0.48846642313E+02  0.48846642313E+02  0.00000000000E+00 0. -1.
          2   -1    0    0  503    0 -0.00000000000E+00 -0.00000000000E+00 -0.67113970840E+03  0.67113970840E+03  0.00000000000E+00 0. -1.
         24    2    1    2    0    0 -0.16258449283E+02  0.57352070536E+02 -0.28352091512E+03  0.30081332602E+03  0.80937943108E+02 0.  0.
         23    2    1    2    0    0 -0.67763077684E+02 -0.30250561747E+02 -0.12880895675E+03  0.17500946133E+03  0.92356012442E+02 0.  0.
        -13    1    3    3    0    0  0.32190122023E+02  0.22947656374E+02 -0.88213778605E+02  0.96666796909E+02  0.00000000000E+00 0.  1.
         14    1    3    3    0    0 -0.48448571306E+02  0.34404414161E+02 -0.19530713652E+03  0.20414652911E+03  0.00000000000E+00 0. -1.
        -11    1    4    4    0    0 -0.60611998874E+01 -0.42920032810E+02 -0.92872976934E+02  0.10249027859E+03  0.00000000000E+00 0.  1.
         11    1    4    4    0    0 -0.61701877796E+02  0.12669471064E+02 -0.35935979812E+02  0.72519182743E+02  0.00000000000E+00 0. -1.
         21    1    1    2  503  502  0.38122213078E+02 -0.16710564263E+02 -0.18741181676E+03  0.19197847575E+03  0.00000000000E+00 0.  1.
          1    1    1    2  501    0  0.45899313889E+02 -0.10390944526E+02 -0.22551377455E+02  0.52185087609E+02  0.00000000000E+00 0. -1.
<scales pt_clust_5="13000.00000" pt_clust_6="13000.00000" pt_clust_7="13000.00000" pt_clust_8="13000.00000" pt_clust_9="41.62386" pt_clust_10="50.23680"></scales>
<clustering>
<clus scale="   41.624">  2  9  1 -1</clus>
<clus scale="   50.237">  1 10  2 -1</clus>
<clus scale="   80.938">  5  6 -1 -1</clus>
<clus scale="   92.356">  7  8 -1 -1</clus>
<clus scale="   94.476">  2  5  1 -1</clus>
<clus scale="   50.237">  1  5  2 -1</clus>
</clustering>
</event>
<event>
10    4  0.3738096E-005  0.1313004E+03  0.7546771E-02  0.1228238E+00
         21   -1    0    0  501  502  0.00000000000E+00  0.00000000000E+00  0.67406731308E+03  0.67406731308E+03  0.00000000000E+00 0. -1.
          2   -1    0    0  503    0 -0.00000000000E+00 -0.00000000000E+00 -0.72053593990E+02  0.72053593990E+02  0.00000000000E+00 0. -1.
         23    2    1    2    0    0  0.24783360417E+02 -0.83773557102E+02  0.69487499215E+02  0.14374659636E+03  0.90566812886E+02 0.  0.
         24    2    1    2    0    0 -0.66308486903E+02  0.40779463774E+02  0.45526567908E+03  0.46872330661E+03  0.79843093092E+02 0.  0.
        -11    1    4    4    0    0 -0.19506473617E+02 -0.17499462451E+02  0.48305650496E+02  0.54956069446E+02  0.00000000000E+00 0.  1.
         12    1    4    4    0    0 -0.46802013286E+02  0.58278926225E+02  0.40696002858E+03  0.41376723717E+03  0.00000000000E+00 0. -1.
        -13    1    3    3    0    0  0.20024054903E+02 -0.57264236486E+02 -0.84838278194E+01  0.61254639739E+02  0.00000000000E+00 0. -1.
         13    1    3    3    0    0  0.47593055136E+01 -0.26509320615E+02  0.77971327034E+02  0.82491956626E+02  0.00000000000E+00 0.  1.
         21    1    1    2  503  502  0.49565536343E+02 -0.11753358471E+02  0.52099066273E+02  0.72864233577E+02  0.00000000000E+00 0. -1.
          1    1    1    2  501    0 -0.80404098563E+01  0.54747451799E+02  0.25161474519E+02  0.60786770510E+02  0.00000000000E+00 0. -1.
<scales pt_clust_5="13000.00000" pt_clust_6="13000.00000" pt_clust_7="13000.00000" pt_clust_8="13000.00000" pt_clust_9="50.94000" pt_clust_10="51.73477"></scales>
<clustering>
<clus scale="   50.940">  2  9  1 -1</clus>
<clus scale="   51.735">  1 10  2 -1</clus>
<clus scale="   79.843">  5  6 -1 -1</clus>
<clus scale="   90.567">  7  8 -1 -1</clus>
<clus scale="  124.147">  1  5  2 -1</clus>
<clus scale="   51.735">  1  5  2 -1</clus>
</clustering>
</event>
<event>
10    4  0.3738096E-005  0.1626080E+03  0.7546771E-02  0.1187033E+00
          2   -1    0    0  503    0 -0.00000000000E+00  0.00000000000E+00  0.47777656385E+03  0.47777656385E+03  0.00000000000E+00 0. -1.
         21   -1    0    0  501  502  0.00000000000E+00 -0.00000000000E+00 -0.11636861149E+03  0.11636861149E+03  0.00000000000E+00 0.  1.
         23    2    1    2    0    0 -0.66511989955E+02  0.14469044037E+03  0.30735911333E+03  0.35764270523E+03  0.89886104116E+02 0.  0.
         24    2    1    2    0    0  0.62790104495E+02 -0.69855370351E+02  0.34034170957E+02  0.12895980649E+03  0.81547145315E+02 0.  0.
        -11    1    4    4    0    0  0.78901223251E+02 -0.62367748170E+02  0.12974830652E+02  0.10140752079E+03  0.00000000000E+00 0.  1.
         12    1    4    4    0    0 -0.16111118756E+02 -0.74876221816E+01  0.21059340305E+02  0.27552285705E+02  0.00000000000E+00 0. -1.
        -13    1    3    3    0    0 -0.27369041813E+02  0.13066755086E+03  0.18303470695E+03  0.22654972356E+03  0.00000000000E+00 0.  1.
         13    1    3    3    0    0 -0.39142948143E+02  0.14022889502E+02  0.12432440638E+03  0.13109298166E+03  0.00000000000E+00 0. -1.
         21    1    1    2  503  502  0.20039953900E+02 -0.59940102497E+02  0.42387462337E+02  0.76099360069E+02  0.00000000000E+00 0.  1.
          1    1    1    2  501    0 -0.16318068440E+02 -0.14894967519E+02 -0.22372794265E+02  0.31443303552E+02  0.00000000000E+00 0. -1.
<scales pt_clust_5="13000.00000" pt_clust_6="13000.00000" pt_clust_7="13000.00000" pt_clust_8="13000.00000" pt_clust_9="64.99966" pt_clust_10="22.09388"></scales>
<clustering>
<clus scale="   22.094">  2 10  1 -1</clus>
<clus scale="   65.000">  2  9  1 -1</clus>
<clus scale="   81.547">  5  6 -1 -1</clus>
<clus scale="   89.886">  7  8 -1 -1</clus>
<clus scale="  158.151">  2  5  1 -1</clus>
<clus scale="   22.094">  2  5  1 -1</clus>
</clustering>
</event>
<event>
10    4  0.3738096E-005  0.2393445E+03  0.7546771E-02  0.1120705E+00
          2   -1    0    0  503    0 -0.00000000000E+00  0.00000000000E+00  0.16755826611E+03  0.16755826611E+03  0.00000000000E+00 0. -1.
         21   -1    0    0  501  502  0.00000000000E+00 -0.00000000000E+00 -0.13717126675E+04  0.13717126675E+04  0.00000000000E+00 0. -1.
         23    2    1    2    0    0  0.82077053941E+02  0.16180914777E+03 -0.36162572037E+03  0.41480214018E+03  0.91481204533E+02 0.  0.
         24    2    1    2    0    0 -0.10649319737E+03 -0.31180229835E+03 -0.76726193379E+03  0.83921300457E+03  0.83821940148E+02 0.  0.
        -11    1    4    4    0    0  0.77990794341E+01 -0.58591354754E+02 -0.96043877243E+02  0.11277499212E+03  0.00000000000E+00 0.  1.
         12    1    4    4    0    0 -0.11429227680E+03 -0.25321094360E+03 -0.67121805655E+03  0.72643801245E+03  0.00000000000E+00 0. -1.
        -11    1    3    3    0    0  0.83977103709E+02  0.73596875028E+02 -0.16435786723E+03  0.19870118893E+03  0.00000000000E+00 0. -1.
         11    1    3    3    0    0 -0.19000497672E+01  0.88212272744E+02 -0.19726785314E+03  0.21610095125E+03  0.00000000000E+00 0.  1.
         21    1    1    2  503  502 -0.62033904863E+02 -0.33649485111E+02 -0.61624144689E+01  0.70841150138E+02  0.00000000000E+00 0.  1.
          1    1    1    2  501    0  0.86450048289E+02  0.18364263569E+03 -0.69104332783E+02  0.21441463873E+03  0.00000000000E+00 0. -1.
<scales pt_clust_5="13000.00000" pt_clust_6="13000.00000" pt_clust_7="13000.00000" pt_clust_8="13000.00000" pt_clust_9="70.57261" pt_clust_10="173.87480"></scales>
<clustering>
<clus scale="   70.573">  1  9  2 -1</clus>
<clus scale="   83.822">  5  6 -1 -1</clus>
<clus scale="   91.481">  7  8 -1 -1</clus>
<clus scale="  173.875">  2 10  1 -1</clus>
<clus scale="  236.523">  2  5  1 -1</clus>
<clus scale="  173.875">  2  5  1 -1</clus>
</clustering>
</event>
<event>
10    4  0.3738096E-005  0.1341074E+03  0.7546771E-02  0.1224007E+00
         21   -1    0    0  503  502  0.00000000000E+00  0.00000000000E+00  0.10189284300E+04  0.10189284300E+04  0.00000000000E+00 0. -1.
         -3   -1    0    0    0  501 -0.00000000000E+00 -0.00000000000E+00 -0.93583895624E+02  0.93583895624E+02  0.00000000000E+00 0.  1.
         23    2    1    2    0    0  0.92302359977E+02  0.98735184900E+01 -0.27323384743E+02  0.13241719534E+03  0.90391007542E+02 0.  0.
         24    2    1    2    0    0 -0.69088559075E+02  0.11023840678E+01  0.81188686207E+03  0.81872227900E+03  0.79821357351E+02 0.  0.
        -13    1    4    4    0    0 -0.46748753979E+02 -0.33104371705E+02  0.31558891418E+03  0.32074555052E+03  0.00000000000E+00 0.  1.
         14    1    4    4    0    0 -0.22339805096E+02  0.34206755773E+02  0.49629794789E+03  0.49797672849E+03  0.00000000000E+00 0. -1.
        -13    1    3    3    0    0  0.10443101169E+02  0.28680416772E+02 -0.36892512761E+02  0.47881960759E+02  0.00000000000E+00 0. -1.
         13    1    3    3    0    0  0.81859258808E+02 -0.18806898282E+02  0.95691280184E+01  0.84535234586E+02  0.00000000000E+00 0.  1.
         21    1    1    2  503  501  0.52292814278E+01  0.26743812123E+02  0.27875611194E+02  0.38982387953E+02  0.00000000000E+00 0. -1.
         -4    1    1    2    0  502 -0.28443082330E+02 -0.37719714681E+02  0.11290544582E+03  0.12239046329E+03  0.00000000000E+00 0.  1.
<scales pt_clust_5="13000.00000" pt_clust_6="13000.00000" pt_clust_7="13000.00000" pt_clust_8="13000.00000" pt_clust_9="27.25026" pt_clust_10="45.92628"></scales>
<clustering>
<clus scale="   27.250">  2  9  1 -1</clus>
<clus scale="   45.926">  1 10  2 -1</clus>
<clus scale="   79.821">  5  6 -1 -1</clus>
<clus scale="   90.391">  7  8 -1 -1</clus>
<clus scale="  127.223">  1  5  2 -1</clus>
<clus scale="   45.926">  1  5  2 -1</clus>
</clustering>
</event>
<event>
10    4  0.3738096E-005  0.2791857E+03  0.7546771E-02  0.1119164E+00
         21   -1    0    0  501  502  0.00000000000E+00  0.00000000000E+00  0.20584933146E+03  0.20584933146E+03  0.00000000000E+00 0. -1.
          2   -1    0    0  503    0 -0.00000000000E+00 -0.00000000000E+00 -0.88948865715E+03  0.88948865715E+03  0.00000000000E+00 0. -1.
         24    2    1    2    0    0  0.12596972959E+03  0.37991059902E+01 -0.21829935255E+03  0.26473282650E+03  0.80907701263E+02 0.  0.
         23    2    1    2    0    0  0.11931940810E+03  0.19058865490E+03 -0.85515256450E+02  0.25671624765E+03  0.89605893751E+02 0.  0.
        -11    1    3    3    0    0  0.29784496091E+02  0.37391954144E+02 -0.73674675130E+02  0.87825008953E+02  0.00000000000E+00 0.  1.
         12    1    3    3    0    0  0.96185233498E+02 -0.33592848154E+02 -0.14462467742E+03  0.17690781754E+03  0.00000000000E+00 0. -1.
        -13    1    4    4    0    0  0.11212641818E+03  0.11777037883E+03 -0.85121431315E+02  0.18354251239E+03  0.00000000000E+00 0. -1.
         13    1    4    4    0    0  0.71929899144E+01  0.72818276070E+02 -0.39382513547E+00  0.73173735261E+02  0.00000000000E+00 0.  1.
         21    1    1    2  503  502  0.16041154984E+02  0.31116299162E+02 -0.16198020792E+03  0.16572003646E+03  0.00000000000E+00 0. -1.
          1    1    1    2  501    0 -0.26133029267E+03 -0.22550406006E+03 -0.21784450878E+03  0.40816887801E+03  0.00000000000E+00 0. -1.
<scales pt_clust_5="13000.00000" pt_clust_6="13000.00000" pt_clust_7="13000.00000" pt_clust_8="13000.00000" pt_clust_9="35.00775" pt_clust_10="264.41541"></scales>
<clustering>
<clus scale="   35.008">  2  9  1 -1</clus>
<clus scale="   80.908">  5  6 -1 -1</clus>
<clus scale="   89.606">  7  8 -1 -1</clus>
<clus scale="  154.882">  2  5  1 -1</clus>
<clus scale="  264.415">  1 10  2 -1</clus>
<clus scale="  264.415">  1  5  2 -1</clus>
</clustering>
</event>
<event>
10    4  0.3738096E-005  0.1715615E+03  0.7546771E-02  0.1177211E+00
         21   -1    0    0  501  502  0.00000000000E+00  0.00000000000E+00  0.30855921066E+03  0.30855921066E+03  0.00000000000E+00 0. -1.
          2   -1    0    0  503    0 -0.00000000000E+00 -0.00000000000E+00 -0.36420153287E+03  0.36420153287E+03  0.00000000000E+00 0. -1.
         24    2    1    2    0    0 -0.81170462175E+02  0.86858970701E+02  0.18579742389E+02  0.14469331036E+03  0.80360578115E+02 0.  0.
         23    2    1    2    0    0  0.13224050349E+03 -0.15282898139E+03  0.15058840075E+03  0.26694026030E+03  0.87954464438E+02 0.  0.
        -13    1    3    3    0    0 -0.38112922914E+02  0.92266045587E+02  0.17028509983E+02  0.10126987812E+03  0.00000000000E+00 0.  1.
         14    1    3    3    0    0 -0.43057539261E+02 -0.54070748855E+01  0.15512324059E+01  0.43423432246E+02  0.00000000000E+00 0. -1.
        -11    1    4    4    0    0  0.25378357159E+02 -0.53899687134E+02  0.30730161947E+01  0.59654678892E+02  0.00000000000E+00 0.  1.
         11    1    4    4    0    0  0.10686214633E+03 -0.98929294256E+02  0.14751538456E+03  0.20728558141E+03  0.00000000000E+00 0. -1.
         21    1    1    2  503  502 -0.37977143711E+02 -0.61500472493E+01 -0.15570848605E+03  0.16039083251E+03  0.00000000000E+00 0.  1.
          1    1    1    2  501    0 -0.13092897600E+02  0.72120057938E+02 -0.69101979303E+02  0.10073634036E+03  0.00000000000E+00 0. -1.
<scales pt_clust_5="13000.00000" pt_clust_6="13000.00000" pt_clust_7="13000.00000" pt_clust_8="13000.00000" pt_clust_9="38.47189" pt_clust_10="75.28684"></scales>
<clustering>
<clus scale="   38.472">  2  9  1 -1</clus>
<clus scale="   75.287">  1 10  2 -1</clus>
<clus scale="   80.361">  5  6 -1 -1</clus>
<clus scale="   87.954">  7  8 -1 -1</clus>
<clus scale="  167.795">  2  5  1 -1</clus>
<clus scale="   75.287">  1  5  2 -1</clus>
</clustering>
</event>
<event>
10    4  0.3738096E-005  0.9872695E+02  0.7546771E-02  0.1290002E+00
          4   -1    0    0  503    0 -0.00000000000E+00  0.00000000000E+00  0.21214743405E+03  0.21214743405E+03  0.00000000000E+00 0. -1.
         21   -1    0    0  501  502  0.00000000000E+00 -0.00000000000E+00 -0.11614853803E+03  0.11614853803E+03  0.00000000000E+00 0.  1.
         24    2    1    2    0    0  0.25883388908E+02 -0.38052276909E+00  0.93937762113E+02  0.12689925810E+03  0.81295903564E+02 0.  0.
         23    2    1    2    0    0 -0.32876858973E+02  0.21753977153E+01  0.41845157124E+02  0.10819625268E+03  0.94179571602E+02 0.  0.
        -13    1    3    3    0    0  0.11854258354E+02 -0.33772013261E+02  0.80797651172E+02  0.88370429193E+02  0.00000000000E+00 0.  1.
         14    1    3    3    0    0  0.14029130553E+02  0.33391490491E+02  0.13140110941E+02  0.38528828906E+02  0.00000000000E+00 0. -1.
        -11    1    4    4    0    0 -0.62019884883E+02  0.20420362179E+02  0.29684347739E+02  0.71725991196E+02  0.00000000000E+00 0. -1.
         11    1    4    4    0    0  0.29143025910E+02 -0.18244964464E+02  0.12160809385E+02  0.36470261479E+02  0.00000000000E+00 0.  1.
         21    1    1    2  503  502  0.39833937812E+01  0.22286540029E+02  0.19030486696E+02  0.29575610160E+02  0.00000000000E+00 0.  1.
          3    1    1    2  501    0  0.30100762844E+01 -0.24081414975E+02 -0.58814509910E+02  0.63624851139E+02  0.00000000000E+00 0. -1.
<scales pt_clust_5="13000.00000" pt_clust_6="13000.00000" pt_clust_7="13000.00000" pt_clust_8="13000.00000" pt_clust_9="22.63973" pt_clust_10="23.99213"></scales>
<clustering>
<clus scale="   22.640">  1  9  2 -1</clus>
<clus scale="   23.992">  2 10  1 -1</clus>
<clus scale="   81.296">  5  6 -1 -1</clus>
<clus scale="   86.523">  1  5  2 -1</clus>
<clus scale="   94.180">  7  8 -1 -1</clus>
<clus scale="   23.992">  2  5  1 -1</clus>
</clustering>
</event>
<event>
10    4  0.3738096E-005  0.1609427E+03  0.7546771E-02  0.1190562E+00
         -1   -1    0    0    0  501 -0.00000000000E+00  0.00000000000E+00  0.64300164540E+03  0.64300164540E+03  0.00000000000E+00 0.  1.
         21   -1    0    0  501  502  0.00000000000E+00 -0.00000000000E+00 -0.70149093240E+02  0.70149093240E+02  0.00000000000E+00 0. -1.
         24    2    1    2    0    0 -0.11962058025E+03 -0.85360982845E+01  0.27611390985E+03  0.31146963738E+03  0.79953083750E+02 0.  0.
         23    2    1    2    0    0  0.13801856181E+03  0.73093208326E+02  0.15375589269E+03  0.23993934980E+03  0.97664100568E+02 0.  0.
        -13    1    3    3    0    0 -0.99677797260E+02  0.25260912549E+02  0.22164928171E+03  0.24434029764E+03  0.00000000000E+00 0.  1.
         14    1    3    3    0    0 -0.19942782993E+02 -0.33797010833E+02  0.54464628139E+02  0.67129339734E+02  0.00000000000E+00 0. -1.
        -11    1    4    4    0    0  0.11940921839E+03  0.87285484498E+02  0.92716549641E+02  0.17456710978E+03  0.00000000000E+00 0. -1.
         11    1    4    4    0    0  0.18609343419E+02 -0.14192276172E+02  0.61039343049E+02  0.65372240021E+02  0.00000000000E+00 0.  1.
         21    1    1    2  503  502  0.26312842302E+01 -0.48860942217E+02  0.84575157609E+02  0.97710145920E+02  0.00000000000E+00 0. -1.
         -2    1    1    2    0  503 -0.21029265783E+02 -0.15696167825E+02  0.58407592007E+02  0.64031605538E+02  0.00000000000E+00 0.  1.
<scales pt_clust_5="13000.00000" pt_clust_6="13000.00000" pt_clust_7="13000.00000" pt_clust_8="13000.00000" pt_clust_9="25.47585" pt_clust_10="75.60644"></scales>
<clustering>
<clus scale="   25.476">  9 10 -1 -1</clus>
<clus scale="   75.606">  2  9  1 -1</clus>
<clus scale="   79.953">  5  6 -1 -1</clus>
<clus scale="   97.664">  7  8 -1 -1</clus>
<clus scale="  150.854">  1  5  2 -1</clus>
<clus scale="   75.606">  2  5  1 -1</clus>
</clustering>
</event>
<event>
10    4  0.4113604E-005  0.1138219E+03  0.7546771E-02  0.1257404E+00
          2   -1    0    0  503    0 -0.00000000000E+00  0.00000000000E+00  0.59780985546E+03  0.59780985546E+03  0.00000000000E+00 0. -1.
         21   -1    0    0  501  502  0.00000000000E+00 -0.00000000000E+00 -0.39341618580E+03  0.39341618580E+03  0.00000000000E+00 0.  1.
         24    2    1    2    0    0  0.69564728738E+02  0.28145584672E+02  0.52685809983E+03  0.53826880765E+03  0.80761541061E+02 0.  0.
         23    2    1    2    0    0 -0.38804511372E+02  0.30391897069E+02 -0.18646642188E+03  0.21333130131E+03  0.91165015866E+02 0.  0.
        -11    1    3    3    0    0  0.55930293542E+02  0.32532975946E+02  0.18281342069E+03  0.19392611749E+03  0.00000000000E+00 0.  1.
         12    1    3    3    0    0  0.13634435196E+02 -0.43873912741E+01  0.34404467914E+03  0.34434269017E+03  0.00000000000E+00 0. -1.
        -11    1    4    4    0    0  0.73249036834E+01 -0.27827846688E+02 -0.62661048070E+02  0.68952521422E+02  0.00000000000E+00 0. -1.
         11    1    4    4    0    0 -0.46129415056E+02  0.58219743757E+02 -0.12380537381E+03  0.14437877989E+03  0.00000000000E+00 0.  1.
         21    1    1    2  503  502 -0.39324622364E-01 -0.27482241526E+02  0.45384810423E+02  0.53057102850E+02  0.00000000000E+00 0.  1.
          1    1    1    2  501    0 -0.30720892743E+02 -0.31055240215E+02 -0.18138281871E+03  0.18656882944E+03  0.00000000000E+00 0. -1.
<scales pt_clust_5="13000.00000" pt_clust_6="13000.00000" pt_clust_7="13000.00000" pt_clust_8="13000.00000" pt_clust_9="27.48227" pt_clust_10="43.77554"></scales>
<clustering>
<clus scale="   27.482">  1  9  2 -1</clus>
<clus scale="   43.776">  2 10  1 -1</clus>
<clus scale="   80.762">  5  6 -1 -1</clus>
<clus scale="   91.165">  7  8 -1 -1</clus>
<clus scale="  105.673">  1  5  2 -1</clus>
<clus scale="   43.776">  2  5  1 -1</clus>
</clustering>
</event>
<event>
10    4  0.3738096E-005  0.1141495E+03  0.7546771E-02  0.1255597E+00
          2   -1    0    0  503    0 -0.00000000000E+00  0.00000000000E+00  0.13657931671E+03  0.13657931671E+03  0.00000000000E+00 0. -1.
         21   -1    0    0  501  502  0.00000000000E+00 -0.00000000000E+00 -0.48554726203E+03  0.48554726203E+03  0.00000000000E+00 0.  1.
         23    2    1    2    0    0 -0.16377132742E+02 -0.52136376996E+02  0.85853851352E+02  0.13385816789E+03  0.86952360732E+02 0.  0.
         24    2    1    2    0    0  0.34356227062E+02  0.73723184716E+02 -0.41771987812E+03  0.43292551790E+03  0.79493076284E+02 0.  0.
        -13    1    4    4    0    0  0.53530236661E+02  0.74922220120E+02 -0.30558091826E+03  0.31915282062E+03  0.00000000000E+00 0.  1.
         14    1    4    4    0    0 -0.19174009598E+02 -0.11990354035E+01 -0.11213895986E+03  0.11377269729E+03  0.00000000000E+00 0. -1.
        -11    1    3    3    0    0 -0.20188704062E+02  0.15895341352E+02  0.19464302783E+01  0.25768861815E+02  0.00000000000E+00 0.  1.
         11    1    3    3    0    0  0.38115713202E+01 -0.68031718348E+02  0.83907421074E+02  0.10808930608E+03  0.00000000000E+00 0. -1.
         21    1    1    2  503  502  0.31598950721E+01 -0.22369792832E+02  0.66369709337E+01  0.23546591078E+02  0.00000000000E+00 0. -1.
          1    1    1    2  501    0 -0.21138989392E+02  0.78298511171E+00 -0.23738889493E+02  0.31796301869E+02  0.00000000000E+00 0. -1.
<scales pt_clust_5="13000.00000" pt_clust_6="13000.00000" pt_clust_7="13000.00000" pt_clust_8="13000.00000" pt_clust_9="22.52623" pt_clust_10="21.15349"></scales>
<clustering>
<clus scale="   21.153">  2 10  1 -1</clus>
<clus scale="   22.526">  1  9  2 -1</clus>
<clus scale="   79.493">  5  6 -1 -1</clus>
<clus scale="   86.952">  7  8 -1 -1</clus>
<clus scale="  108.575">  2  5  1 -1</clus>
<clus scale="   21.153">  2  5  1 -1</clus>
</clustering>
</event>
<event>
10    4  0.3738096E-005  0.1463407E+03  0.7546771E-02  0.1206911E+00
          2   -1    0    0  503    0 -0.00000000000E+00  0.00000000000E+00  0.64171087740E+03  0.64171087740E+03  0.00000000000E+00 0. -1.
         21   -1    0    0  501  502  0.00000000000E+00 -0.00000000000E+00 -0.17957415668E+03  0.17957415668E+03  0.00000000000E+00 0.  1.
         24    2    1    2    0    0  0.92310209635E+02 -0.98286472356E+02  0.46746080822E+03  0.49334554598E+03  0.81785176303E+02 0.  0.
         23    2    1    2    0    0 -0.92528643608E+01  0.44756077596E+02 -0.98284831049E+02  0.14173907457E+03  0.91330910780E+02 0.  0.
        -13    1    3    3    0    0  0.14734805791E+01 -0.58473449483E+02  0.17827010474E+03  0.18762074960E+03  0.00000000000E+00 0.  1.
         14    1    3    3    0    0  0.90836729056E+02 -0.39813022873E+02  0.28919070349E+03  0.30572479638E+03  0.00000000000E+00 0. -1.
        -11    1    4    4    0    0  0.33240708941E+02  0.45354887330E+02 -0.73495625814E+02  0.92539816022E+02  0.00000000000E+00 0.  1.
         11    1    4    4    0    0 -0.42493573302E+02 -0.59880973426E+00 -0.24789205235E+02  0.49199258544E+02  0.00000000000E+00 0. -1.
         21    1    1    2  503  502  0.12735681197E+01  0.21979387300E+02  0.93603966941E+02  0.96158296933E+02  0.00000000000E+00 0. -1.
          1    1    1    2  501    0 -0.84330913394E+02  0.31551007460E+02 -0.64322339187E+00  0.90042116601E+02  0.00000000000E+00 0. -1.
<scales pt_clust_5="13000.00000" pt_clust_6="13000.00000" pt_clust_7="13000.00000" pt_clust_8="13000.00000" pt_clust_9="22.01625" pt_clust_10="90.58820"></scales>
<clustering>
<clus scale="   22.016">  1  9  2 -1</clus>
<clus scale="   81.785">  5  6 -1 -1</clus>
<clus scale="   90.588">  2 10  1 -1</clus>
<clus scale="   91.331">  7  8 -1 -1</clus>
<clus scale="  140.581">  1  5  2 -1</clus>
<clus scale="   90.588">  2  5  1 -1</clus>
</clustering>
</event>
<event>
10    4  0.3738096E-005  0.1335054E+03  0.7546771E-02  0.1234706E+00
         21   -1    0    0  501  502  0.00000000000E+00  0.00000000000E+00  0.12109233378E+03  0.12109233378E+03  0.00000000000E+00 0.  1.
          2   -1    0    0  503    0 -0.00000000000E+00 -0.00000000000E+00 -0.48432710204E+03  0.48432710204E+03  0.00000000000E+00 0. -1.
         24    2    1    2    0    0 -0.56876526990E+02  0.16905763903E+02 -0.55956383097E+02  0.11515208822E+03  0.81290481829E+02 0.  0.
         23    2    1    2    0    0 -0.57693487150E+02  0.50403588166E+02  0.47777040344E+01  0.12351359732E+03  0.96766327345E+02 0.  0.
        -11    1    3    3    0    0 -0.30924567404E+02 -0.22709841539E+02 -0.55890914934E+02  0.67792773538E+02  0.00000000000E+00 0.  1.
         12    1    3    3    0    0 -0.25951959586E+02  0.39615605441E+02 -0.65468163244E-01  0.47359314679E+02  0.00000000000E+00 0. -1.
        -13    1    4    4    0    0 -0.18149245369E+02  0.65998254794E+02 -0.23601194151E+02  0.72402908151E+02  0.00000000000E+00 0. -1.
         13    1    4    4    0    0 -0.39544241781E+02 -0.15594666628E+02  0.28378898185E+02  0.51110689170E+02  0.00000000000E+00 0.  1.
         21    1    1    2  503  502 -0.13115296273E+02  0.27371418873E+02 -0.79177717878E+02  0.84795734420E+02  0.00000000000E+00 0. -1.
          1    1    1    2  501    0  0.12768531041E+03 -0.94680770942E+02 -0.23287837131E+03  0.28195801586E+03  0.00000000000E+00 0. -1.
<scales pt_clust_5="13000.00000" pt_clust_6="13000.00000" pt_clust_7="13000.00000" pt_clust_8="13000.00000" pt_clust_9="30.35137" pt_clust_10="91.97819"></scales>
<clustering>
<clus scale="   30.351">  2  9  1 -1</clus>
<clus scale="   81.290">  5  6 -1 -1</clus>
<clus scale="   96.766">  7  8 -1 -1</clus>
<clus scale="  103.366">  2  5  1 -1</clus>
<clus scale="   91.978">  1 10  2 -1</clus>
<clus scale="   91.978">  1  5  2 -1</clus>
</clustering>
</event>
<event>
10    4  0.3738096E-005  0.1210820E+03  0.7546771E-02  0.1246005E+00
          2   -1    0    0  503    0 -0.00000000000E+00  0.00000000000E+00  0.47189898914E+03  0.47189898914E+03  0.00000000000E+00 0. -1.
         21   -1    0    0  501  502  0.00000000000E+00 -0.00000000000E+00 -0.10722052717E+03  0.10722052717E+03  0.00000000000E+00 0.  1.
         23    2    1    2    0    0 -0.41106897321E+02 -0.27923723538E+02  0.39719047829E+02  0.11382696524E+03  0.94389956626E+02 0.  0.
         24    2    1    2    0    0  0.11183760379E+03 -0.72490469596E+02  0.72571777906E+02  0.17150282467E+03  0.79900175955E+02 0.  0.
        -13    1    4    4    0    0  0.10342065452E+03 -0.56685997456E+02  0.24842167322E+02  0.12052496574E+03  0.00000000000E+00 0.  1.
         14    1    4    4    0    0  0.84169492671E+01 -0.15804472140E+02  0.47729610584E+02  0.50977858930E+02  0.00000000000E+00 0. -1.
        -13    1    3    3    0    0  0.21449192873E+02 -0.62242509493E+01  0.42006453216E+02  0.47574691661E+02  0.00000000000E+00 0. -1.
         13    1    3    3    0    0 -0.62556090194E+02 -0.21699472589E+02 -0.22874053877E+01  0.66252273579E+02  0.00000000000E+00 0.  1.
         21    1    1    2  503  502 -0.42295848868E+02  0.66969312706E+01  0.13099326853E+03  0.13781518102E+03  0.00000000000E+00 0. -1.
          1    1    1    2  501    0 -0.28434857597E+02  0.93717261864E+02  0.12139436770E+03  0.15597454538E+03  0.00000000000E+00 0. -1.
<scales pt_clust_5="13000.00000" pt_clust_6="13000.00000" pt_clust_7="13000.00000" pt_clust_8="13000.00000" pt_clust_9="42.82275" pt_clust_10="106.79583"></scales>
<clustering>
<clus scale="   42.823">  1  9  2 -1</clus>
<clus scale="   79.900">  5  6 -1 -1</clus>
<clus scale="   94.390">  7  8 -1 -1</clus>
<clus scale="  106.796">  2 10  1 -1</clus>
<clus scale="  110.161">  2  5  1 -1</clus>
<clus scale="  106.796">  2  5  1 -1</clus>
</clustering>
</event>
<event>
10    4  0.3738096E-005  0.1115981E+03  0.7546771E-02  0.1262792E+00
         21   -1    0    0  501  502  0.00000000000E+00  0.00000000000E+00  0.34077195223E+02  0.34077195223E+02  0.00000000000E+00 0. -1.
          2   -1    0    0  503    0 -0.00000000000E+00 -0.00000000000E+00 -0.11932295538E+04  0.11932295538E+04  0.00000000000E+00 0. -1.
         24    2    1    2    0    0 -0.23123318172E+02  0.58254323236E+02 -0.84258110636E+03  0.84904026103E+03  0.83655185357E+02 0.  0.
         23    2    1    2    0    0 -0.96986197231E+01 -0.35085593465E+02 -0.19349769191E+03  0.21919768401E+03  0.96339014973E+02 0.  0.
        -11    1    3    3    0    0  0.18139616619E+02  0.15876642031E+02 -0.66959221930E+02  0.71166360415E+02  0.00000000000E+00 0.  1.
         12    1    3    3    0    0 -0.41262934791E+02  0.42377681205E+02 -0.77562188443E+03  0.77787390061E+03  0.00000000000E+00 0. -1.
        -13    1    4    4    0    0 -0.24716250089E+02  0.27784916933E+01 -0.37813712910E+01  0.25157738439E+02  0.00000000000E+00 0. -1.
         13    1    4    4    0    0  0.15017630365E+02 -0.37864085158E+02 -0.18971632062E+03  0.19403994557E+03  0.00000000000E+00 0.  1.
         21    1    1    2  503  502  0.23319387370E+02  0.68164387338E+01 -0.12520635114E+03  0.12754171095E+03  0.00000000000E+00 0. -1.
          1    1    1    2  501    0  0.95025505257E+01 -0.29985168505E+02  0.21327908658E+01  0.31527093010E+02  0.00000000000E+00 0. -1.
<scales pt_clust_5="13000.00000" pt_clust_6="13000.00000" pt_clust_7="13000.00000" pt_clust_8="13000.00000" pt_clust_9="24.29522" pt_clust_10="31.46418"></scales>
<clustering>
<clus scale="   24.295">  2  9  1 -1</clus>
<clus scale="   31.464">  1 10  2 -1</clus>
<clus scale="   83.655">  5  6 -1 -1</clus>
<clus scale="   96.339">  7  8 -1 -1</clus>
<clus scale="  100.852">  2  5  1 -1</clus>
<clus scale="   31.464">  1  5  2 -1</clus>
</clustering>
</event>
<event>
10    4  0.3738096E-005  0.1020200E+03  0.7546771E-02  0.1277641E+00
         21   -1    0    0  501  502  0.00000000000E+00  0.00000000000E+00  0.17758385619E+03  0.17758385619E+03  0.00000000000E+00 0.  1.
          2   -1    0    0  503    0 -0.00000000000E+00 -0.00000000000E+00 -0.38725735850E+03  0.38725735850E+03  0.00000000000E+00 0. -1.
         24    2    1    2    0    0  0.30700568466E+02  0.12417552939E+03 -0.16866261507E+03  0.22752737400E+03  0.83423864661E+02 0.  0.
         23    2    1    2    0    0 -0.43487923669E+02 -0.51674821231E+02  0.34819677160E+02  0.11017850288E+03  0.79783494068E+02 0.  0.
        -11    1    3    3    0    0 -0.20114652880E+02  0.12132385127E+02 -0.72684053713E+01  0.24589098113E+02  0.00000000000E+00 0.  1.
         12    1    3    3    0    0  0.50815221346E+02  0.11204314426E+03 -0.16139420970E+03  0.20293827589E+03  0.00000000000E+00 0. -1.
        -13    1    4    4    0    0 -0.63664735707E+02 -0.19866920416E+02  0.19204154513E+02  0.69402396573E+02  0.00000000000E+00 0.  1.
         13    1    4    4    0    0  0.20176812038E+02 -0.31807900816E+02  0.15615522647E+02  0.40776106310E+02  0.00000000000E+00 0. -1.
         21    1    1    2  503  502 -0.21617333007E+02 -0.90195347960E+02 -0.13053609920E+03  0.16013176785E+03  0.00000000000E+00 0. -1.
          1    1    1    2  501    0  0.34404688211E+02  0.17694639803E+02  0.54705534805E+02  0.67003569957E+02  0.00000000000E+00 0. -1.
<scales pt_clust_5="13000.00000" pt_clust_6="13000.00000" pt_clust_7="13000.00000" pt_clust_8="13000.00000" pt_clust_9="89.62897" pt_clust_10="38.68828"></scales>
<clustering>
<clus scale="   38.688">  1 10  2 -1</clus>
<clus scale="   79.783">  7  8 -1 -1</clus>
<clus scale="   83.424">  5  6 -1 -1</clus>
<clus scale="   89.629">  2  9  1 -1</clus>
<clus scale="   99.065">  1  7  2 -1</clus>
<clus scale="   38.688">  1  5  2 -1</clus>
</clustering>
</event>
<event>
10    4  0.3738096E-005  0.1140090E+03  0.7546771E-02  0.1257506E+00
         -1   -1    0    0    0  501 -0.00000000000E+00  0.00000000000E+00  0.17994775846E+03  0.17994775846E+03  0.00000000000E+00 0.  1.
         21   -1    0    0  503  502  0.00000000000E+00 -0.00000000000E+00 -0.37720740095E+03  0.37720740095E+03  0.00000000000E+00 0.  1.
         24    2    1    2    0    0 -0.64981374554E+02 -0.45945862138E+02  0.46198452743E+02  0.11905467369E+03  0.75538844352E+02 0.  0.
         23    2    1    2    0    0  0.78933811896E+01  0.92116135148E+02  0.41507589352E+01  0.12750104543E+03  0.87701767167E+02 0.  0.
        -11    1    3    3    0    0 -0.74138637818E+02 -0.14981822322E+02  0.41936039280E+02  0.86484819524E+02  0.00000000000E+00 0.  1.
         12    1    3    3    0    0  0.91572632632E+01 -0.30964039816E+02  0.42624134634E+01  0.32569854171E+02  0.00000000000E+00 0. -1.
        -11    1    4    4    0    0  0.25444621133E+02 -0.61539329339E+01 -0.68830724065E+01  0.27067994401E+02  0.00000000000E+00 0. -1.
         11    1    4    4    0    0 -0.17551239943E+02  0.98270068082E+02  0.11033831342E+02  0.10043305103E+03  0.00000000000E+00 0.  1.
         21    1    1    2  503  501  0.17800721629E+02  0.92745129259E+01  0.23614905636E+02  0.30992677340E+02  0.00000000000E+00 0.  1.
         -2    1    1    2    0  502  0.39287271736E+02 -0.55444785935E+02 -0.27122375980E+03  0.27960676295E+03  0.00000000000E+00 0.  1.
<scales pt_clust_5="13000.00000" pt_clust_6="13000.00000" pt_clust_7="13000.00000" pt_clust_8="13000.00000" pt_clust_9="20.07193" pt_clust_10="68.03002"></scales>
<clustering>
<clus scale="   20.072">  1  9  2 -1</clus>
<clus scale="   68.030">  2 10  1 -1</clus>
<clus scale="   75.539">  5  6 -1 -1</clus>
<clus scale="   87.702">  7  8 -1 -1</clus>
<clus scale="  104.941">  1  5  2 -1</clus>
<clus scale="   68.030">  2  5  1 -1</clus>
</clustering>
</event>
<event>
10    4  0.3738096E-005  0.1548029E+03  0.7546771E-02  0.1196407E+00
          2   -1    0    0  503    0 -0.00000000000E+00  0.00000000000E+00  0.45290311776E+03  0.45290311776E+03  0.00000000000E+00 0. -1.
         21   -1    0    0  501  502  0.00000000000E+00 -0.00000000000E+00 -0.80236963116E+02  0.80236963116E+02  0.00000000000E+00 0.  1.
         23    2    1    2    0    0 -0.59108540430E+02 -0.85071802967E+02  0.14726597729E+03  0.20162661498E+03  0.90746859932E+02 0.  0.
         24    2    1    2    0    0  0.85963072501E+02  0.12148088203E+03  0.15951998351E+03  0.23258668524E+03  0.80639236593E+02 0.  0.
        -11    1    4    4    0    0  0.31748722378E+02  0.12938867628E+02  0.28108122430E+01  0.34399074603E+02  0.00000000000E+00 0.  1.
         12    1    4    4    0    0  0.54214350123E+02  0.10854201440E+03  0.15670917127E+03  0.19818761063E+03  0.00000000000E+00 0. -1.
        -11    1    3    3    0    0 -0.77852603985E+02 -0.41024467489E+02  0.79059063921E+02  0.11829780416E+03  0.00000000000E+00 0.  1.
         11    1    3    3    0    0  0.18744063555E+02 -0.44047335479E+02  0.68206913373E+02  0.83328810823E+02  0.00000000000E+00 0. -1.
         21    1    1    2  503  502 -0.29373164080E+02 -0.13676882203E+02  0.68626733056E+02  0.75891161309E+02  0.00000000000E+00 0.  1.
          1    1    1    2  501    0  0.25186320098E+01 -0.22732196859E+02 -0.27465392155E+01  0.23035619352E+02  0.00000000000E+00 0. -1.
<scales pt_clust_5="13000.00000" pt_clust_6="13000.00000" pt_clust_7="13000.00000" pt_clust_8="13000.00000" pt_clust_9="32.81643" pt_clust_10="22.87130"></scales>
<clustering>
<clus scale="   22.871">  2 10  1 -1</clus>
<clus scale="   32.816">  1  9  2 -1</clus>
<clus scale="   80.639">  5  6 -1 -1</clus>
<clus scale="   90.747">  7  8 -1 -1</clus>
<clus scale="  149.103">  2  5  1 -1</clus>
<clus scale="   22.871">  2  5  1 -1</clus>
</clustering>
</event>
<event>
10    4  0.3738096E-005  0.1793612E+03  0.7546771E-02  0.1201241E+00
         21   -1    0    0  501  502  0.00000000000E+00  0.00000000000E+00  0.13964264752E+03  0.13964264752E+03  0.00000000000E+00 0. -1.
          2   -1    0    0  503    0 -0.00000000000E+00 -0.00000000000E+00 -0.71776265811E+03  0.71776265811E+03  0.00000000000E+00 0. -1.
         24    2    1    2    0    0 -0.62315626297E+01 -0.11805454476E+02 -0.30977276413E+03  0.32040315420E+03  0.80751561544E+02 0.  0.
         23    2    1    2    0    0  0.46490184787E+01  0.18003233840E+03 -0.42004099940E+02  0.20544940826E+03  0.89508986689E+02 0.  0.
        -13    1    3    3    0    0  0.10930555868E+02  0.32070846387E+02 -0.15285776206E+03  0.15656791390E+03  0.00000000000E+00 0.  1.
         14    1    3    3    0    0 -0.17162118498E+02 -0.43876300862E+02 -0.15691500207E+03  0.16383524030E+03  0.00000000000E+00 0. -1.
        -13    1    4    4    0    0  0.28233730092E+02  0.24108306217E+02 -0.29198931241E+02  0.47232737896E+02  0.00000000000E+00 0.  1.
         13    1    4    4    0    0 -0.23584711613E+02  0.15592403218E+03 -0.12805168699E+02  0.15821667036E+03  0.00000000000E+00 0. -1.
         21    1    1    2  503  502  0.65629098279E+01 -0.31171817193E+02 -0.18584132009E+03  0.18855171764E+03  0.00000000000E+00 0.  1.
          1    1    1    2  501    0 -0.49803656769E+01 -0.13705506673E+03 -0.40501826429E+02  0.14300102553E+03  0.00000000000E+00 0. -1.
<scales pt_clust_5="13000.00000" pt_clust_6="13000.00000" pt_clust_7="13000.00000" pt_clust_8="13000.00000" pt_clust_9="31.85520" pt_clust_10="155.43030"></scales>
<clustering>
<clus scale="   31.855">  2  9  1 -1</clus>
<clus scale="   80.752">  5  6 -1 -1</clus>
<clus scale="   86.287">  2  5  1 -1</clus>
<clus scale="   89.509">  7  8 -1 -1</clus>
<clus scale="  155.430">  1 10  2 -1</clus>
<clus scale="  155.430">  1  5  2 -1</clus>
</clustering>
</event>
<event>
10    4  0.3738096E-005  0.2194704E+03  0.7546771E-02  0.1134681E+00
         21   -1    0    0  501  502  0.00000000000E+00  0.00000000000E+00  0.23832689587E+03  0.23832689587E+03  0.00000000000E+00 0.  1.
         -1   -1    0    0    0  501 -0.00000000000E+00 -0.00000000000E+00 -0.51197274376E+03  0.51197274376E+03  0.00000000000E+00 0.  1.
         24    2    1    2    0    0  0.56426332859E+02  0.16433245029E+03 -0.12260658774E+03  0.22889675938E+03  0.84689230962E+02 0.  0.
         23    2    1    2    0    0 -0.73201324023E+02 -0.27390420684E+03  0.34350939332E+02  0.29944681704E+03  0.90035886374E+02 0.  0.
        -13    1    3    3    0    0  0.31491206347E+02  0.58361390414E+02 -0.18909288205E+01  0.66342471917E+02  0.00000000000E+00 0.  1.
         14    1    3    3    0    0  0.24935126512E+02  0.10597105987E+03 -0.12071565892E+03  0.16255428747E+03  0.00000000000E+00 0. -1.
        -11    1    4    4    0    0 -0.75927997684E+02 -0.23233390766E+03  0.58451950247E+02  0.25131799770E+03  0.00000000000E+00 0.  1.
         11    1    4    4    0    0  0.27266736610E+01 -0.41570299181E+02 -0.24101010915E+02  0.48128819333E+02  0.00000000000E+00 0. -1.
         21    1    1    2  503  502  0.25414958496E+02  0.27507677498E+02 -0.77990796713E+02  0.86516800730E+02  0.00000000000E+00 0.  1.
         -2    1    1    2    0  503 -0.86399673323E+01  0.82064079056E+02 -0.10739940277E+03  0.13543926249E+03  0.00000000000E+00 0.  1.
<scales pt_clust_5="13000.00000" pt_clust_6="13000.00000" pt_clust_7="13000.00000" pt_clust_8="13000.00000" pt_clust_9="34.40169" pt_clust_10="122.04500"></scales>
<clustering>
<clus scale="   34.402">  9 10 -1 -1</clus>
<clus scale="   84.689">  5  6 -1 -1</clus>
<clus scale="   90.036">  7  8 -1 -1</clus>
<clus scale="  122.045">  1  9  2 -1</clus>
<clus scale="  217.332">  2  5  1 -1</clus>
<clus scale="  122.045">  1  5  2 -1</clus>
</clustering>
</event>
<event>
10    4  0.3738096E-005  0.3308354E+03  0.7546771E-02  0.1106615E+00
         21   -1    0    0  501  502  0.00000000000E+00  0.00000000000E+00  0.47934994869E+03  0.47934994869E+03  0.00000000000E+00 0. -1.
          2   -1    0    0  503    0 -0.00000000000E+00 -0.00000000000E+00 -0.37854550215E+03  0.37854550215E+03  0.00000000000E+00 0. -1.
         24    2    1    2    0    0  0.64813040760E+02 -0.76894754300E+02  0.83010759887E+02  0.15364286035E+03  0.81251515602E+02 0.  0.
         23    2    1    2    0    0 -0.21495692046E+03 -0.20702912672E+03 -0.92459752399E+02  0.32532977658E+03  0.90681424498E+02 0.  0.
        -11    1    3    3    0    0  0.29177980615E+02 -0.10889295392E+01 -0.76761503106E+01  0.30190455510E+02  0.00000000000E+00 0.  1.
         12    1    3    3    0    0  0.35635060145E+02 -0.75805824761E+02  0.90686910197E+02  0.12345240484E+03  0.00000000000E+00 0. -1.
        -13    1    4    4    0    0 -0.11340075308E+03 -0.14884550863E+03 -0.21245417586E+02  0.18832441161E+03  0.00000000000E+00 0.  1.
         13    1    4    4    0    0 -0.10155616738E+03 -0.58183618085E+02 -0.71214334813E+02  0.13700536497E+03  0.00000000000E+00 0. -1.
         21    1    1    2  503  502 -0.26266352675E+02  0.18261904248E+01 -0.50199636720E+01  0.26804034950E+02  0.00000000000E+00 0.  1.
          1    1    1    2  501    0  0.17641023238E+03  0.28209769059E+03  0.11527340272E+03  0.35211877896E+03  0.00000000000E+00 0. -1.
<scales pt_clust_5="13000.00000" pt_clust_6="13000.00000" pt_clust_7="13000.00000" pt_clust_8="13000.00000" pt_clust_9="26.32976" pt_clust_10="318.16497"></scales>
<clustering>
<clus scale="   26.330">  2  9  1 -1</clus>
<clus scale="   81.252">  5  6 -1 -1</clus>
<clus scale="   90.681">  7  8 -1 -1</clus>
<clus scale="  127.918">  2  5  1 -1</clus>
<clus scale="  318.165">  1 10  2 -1</clus>
<clus scale="  318.165">  1  5  2 -1</clus>
</clustering>
</event>
<event>
10    4  0.3738096E-005  0.4522274E+03  0.7546771E-02  0.1027288E+00
          2   -1    0    0  503    0 -0.00000000000E+00  0.00000000000E+00  0.11378191366E+04  0.11378191366E+04  0.00000000000E+00 0. -1.
         21   -1    0    0  501  502  0.00000000000E+00 -0.00000000000E+00 -0.53332413341E+03  0.53332413341E+03  0.00000000000E+00 0.  1.
         24    2    1    2    0    0  0.35911350419E+03 -0.24809167301E+03  0.53283106012E+03  0.69281808547E+03  0.74672443476E+02 0.  0.
         23    2    1    2    0    0 -0.40948232385E+03 -0.60124370559E+02 -0.22060886082E+03  0.47780588675E+03  0.91320766832E+02 0.  0.
        -11    1    3    3    0    0  0.11428730117E+03 -0.49921834106E+02  0.11565545659E+03  0.17008809884E+03  0.00000000000E+00 0.  1.
         12    1    3    3    0    0  0.24482620303E+03 -0.19816983890E+03  0.41717560353E+03  0.52272998663E+03  0.00000000000E+00 0. -1.
        -13    1    4    4    0    0 -0.33689135427E+03 -0.59246173731E+02 -0.14076534269E+03  0.36989292422E+03  0.00000000000E+00 0.  1.
         13    1    4    4    0    0 -0.72590969582E+02 -0.87819682789E+00 -0.79843518127E+02  0.10791296253E+03  0.00000000000E+00 0. -1.
         21    1    1    2  503  502  0.79664674233E+02 -0.12251171174E+02  0.88113971159E+02  0.11941785222E+03  0.00000000000E+00 0.  1.
          1    1    1    2  501    0 -0.29295854575E+02  0.32046721474E+03  0.20415883270E+03  0.38110144554E+03  0.00000000000E+00 0. -1.
<scales pt_clust_5="13000.00000" pt_clust_6="13000.00000" pt_clust_7="13000.00000" pt_clust_8="13000.00000" pt_clust_9="80.60119" pt_clust_10="317.07226"></scales>
<clustering>
<clus scale="   74.672">  5  6 -1 -1</clus>
<clus scale="   80.601">  1  9  2 -1</clus>
<clus scale="   91.321">  7  8 -1 -1</clus>
<clus scale="  317.072">  2 10  1 -1</clus>
<clus scale="  449.162">  1  5  2 -1</clus>
<clus scale="  317.072">  2  5  1 -1</clus>
</clustering>
</event>
<event>
10    4  0.3738096E-005  0.1751001E+03  0.7546771E-02  0.1174095E+00
         21   -1    0    0  501  502  0.00000000000E+00  0.00000000000E+00  0.45356200659E+03  0.45356200659E+03  0.00000000000E+00 0.  1.
          2   -1    0    0  503    0 -0.00000000000E+00 -0.00000000000E+00 -0.51443261778E+03  0.51443261778E+03  0.00000000000E+00 0. -1.
         24    2    1    2    0    0 -0.14319945947E+03  0.28010096239E+01 -0.85028223497E+01  0.16448787193E+03  0.80436503999E+02 0.  0.
         23    2    1    2    0    0  0.23947205324E+03  0.75724997884E+02  0.26661436490E+03  0.37763673606E+03  0.91897471484E+02 0.  0.
        -11    1    3    3    0    0 -0.70758477460E+02 -0.64874743586E+01  0.35284019076E+02  0.79333545605E+02  0.00000000000E+00 0.  1.
         12    1    3    3    0    0 -0.72440982009E+02  0.92884839825E+01 -0.43786841426E+02  0.85154326321E+02  0.00000000000E+00 0. -1.
        -11    1    4    4    0    0  0.16773181807E+03  0.23985212784E+02  0.12456254504E+03  0.21029760068E+03  0.00000000000E+00 0.  1.
         11    1    4    4    0    0  0.71740235165E+02  0.51739785101E+02  0.14205181985E+03  0.16733913537E+03  0.00000000000E+00 0. -1.
         21    1    1    2  503  502  0.82145518119E+02 -0.43575043032E+02 -0.64717150515E+02  0.11329157115E+03  0.00000000000E+00 0.  1.
          1    1    1    2  501    0 -0.17841811189E+03 -0.34950964477E+02 -0.25426500322E+03  0.31257844524E+03  0.00000000000E+00 0. -1.
<scales pt_clust_5="13000.00000" pt_clust_6="13000.00000" pt_clust_7="13000.00000" pt_clust_8="13000.00000" pt_clust_9="92.98748" pt_clust_10="139.26017"></scales>
<clustering>
<clus scale="   80.437">  5  6 -1 -1</clus>
<clus scale="   91.897">  7  8 -1 -1</clus>
<clus scale="   92.987">  2  9  1 -1</clus>
<clus scale="  139.260">  1 10  2 -1</clus>
<clus scale="  169.366">  2  5  1 -1</clus>
<clus scale="  139.260">  1  5  2 -1</clus>
</clustering>
</event>
<event>
10    4  0.3738096E-005  0.1793957E+03  0.7546771E-02  0.1184142E+00
         21   -1    0    0  501  502  0.00000000000E+00  0.00000000000E+00  0.18261521720E+03  0.18261521720E+03  0.00000000000E+00 0.  1.
          2   -1    0    0  503    0 -0.00000000000E+00 -0.00000000000E+00 -0.17407464873E+04  0.17407464873E+04  0.00000000000E+00 0. -1.
         23    2    1    2    0    0  0.24785986343E+02  0.85373743144E+02 -0.42743286674E+03  0.44600727764E+03  0.91217405158E+02 0.  0.
         24    2    1    2    0    0  0.12686508745E+03  0.10292199200E+02  0.83760354963E+02  0.18110136374E+03  0.97883742821E+02 0.  0.
        -11    1    4    4    0    0  0.86222174988E+02  0.40844284567E+02  0.16561076531E+02  0.96833817943E+02  0.00000000000E+00 0.  1.
         12    1    4    4    0    0  0.40642912459E+02 -0.30552085367E+02  0.67199278432E+02  0.84267545800E+02  0.00000000000E+00 0. -1.
        -13    1    3    3    0    0  0.22073012090E+02 -0.13765657865E+02 -0.59417194492E+02  0.64862271009E+02  0.00000000000E+00 0.  1.
         13    1    3    3    0    0  0.27129742531E+01  0.99139401010E+02 -0.36801567225E+03  0.38114500663E+03  0.00000000000E+00 0. -1.
         21    1    1    2  503  502 -0.17306729203E+03 -0.46665973413E+02 -0.12280616935E+04  0.12410743425E+04  0.00000000000E+00 0. -1.
          1    1    1    2  501    0  0.21416218235E+02 -0.48999968932E+02  0.13602935188E+02  0.55178720577E+02  0.00000000000E+00 0. -1.
<scales pt_clust_5="13000.00000" pt_clust_6="13000.00000" pt_clust_7="13000.00000" pt_clust_8="13000.00000" pt_clust_9="150.33825" pt_clust_10="53.47571"></scales>
<clustering>
<clus scale="   53.476">  1 10  2 -1</clus>
<clus scale="   91.217">  7  8 -1 -1</clus>
<clus scale="   97.884">  5  6 -1 -1</clus>
<clus scale="  125.607">  2  7  1 -1</clus>
<clus scale="  150.338">  2  9  1 -1</clus>
<clus scale="   53.476">  1  5  2 -1</clus>
</clustering>
</event>
<event>
10    4  0.3738096E-005  0.1259038E+03  0.7546771E-02  0.1237709E+00
          2   -1    0    0  503    0 -0.00000000000E+00  0.00000000000E+00  0.51521526758E+03  0.51521526758E+03  0.00000000000E+00 0. -1.
         21   -1    0    0  501  502  0.00000000000E+00 -0.00000000000E+00 -0.19384313769E+03  0.19384313769E+03  0.00000000000E+00 0.  1.
         23    2    1    2    0    0 -0.13595277160E+02  0.57601792844E+02  0.37799299154E+03  0.39409194049E+03  0.94482579377E+02 0.  0.
         24    2    1    2    0    0  0.33450829747E+02 -0.69922513660E+02 -0.15259983366E+03  0.18921900333E+03  0.80678411373E+02 0.  0.
        -13    1    4    4    0    0 -0.94621792383E+01 -0.32425387364E+02 -0.11757047062E+03  0.12232642456E+03  0.00000000000E+00 0.  1.
         14    1    4    4    0    0  0.42913008985E+02 -0.37497126295E+02 -0.35029363032E+02  0.66892578774E+02  0.00000000000E+00 0. -1.
        -13    1    3    3    0    0  0.39777982292E+02  0.14793528108E+02  0.16553548868E+03  0.17088924589E+03  0.00000000000E+00 0. -1.
         13    1    3    3    0    0 -0.53373259452E+02  0.42808264736E+02  0.21245750286E+03  0.22320269460E+03  0.00000000000E+00 0.  1.
         21    1    1    2  503  502 -0.31469655030E+01  0.26380334449E+02  0.10006482820E+03  0.10353161489E+03  0.00000000000E+00 0.  1.
          1    1    1    2  501    0 -0.16708587084E+02 -0.14059613634E+02 -0.40858562007E+01  0.22215846569E+02  0.00000000000E+00 0. -1.
<scales pt_clust_5="13000.00000" pt_clust_6="13000.00000" pt_clust_7="13000.00000" pt_clust_8="13000.00000" pt_clust_9="26.45302" pt_clust_10="21.83689"></scales>
<clustering>
<clus scale="   21.837">  2 10  1 -1</clus>
<clus scale="   26.453">  1  9  2 -1</clus>
<clus scale="   80.678">  5  6 -1 -1</clus>
<clus scale="   94.483">  7  8 -1 -1</clus>
<clus scale="  115.904">  2  5  1 -1</clus>
<clus scale="   21.837">  2  5  1 -1</clus>
</clustering>
</event>
<event>
10    4  0.3738096E-005  0.1096781E+03  0.7546771E-02  0.1261956E+00
         21   -1    0    0  501  502  0.00000000000E+00  0.00000000000E+00  0.70086287071E+02  0.70086287071E+02  0.00000000000E+00 0.  1.
          2   -1    0    0  503    0 -0.00000000000E+00 -0.00000000000E+00 -0.53131921973E+03  0.53131921973E+03  0.00000000000E+00 0. -1.
         23    2    1    2    0    0  0.66520724074E+02  0.58149341600E+01 -0.26117336579E+03  0.28231461378E+03  0.83852215014E+02 0.  0.
         24    2    1    2    0    0 -0.52848959965E+02  0.51726022122E+02 -0.45759277606E+02  0.11927752097E+03  0.81637133626E+02 0.  0.
        -11    1    4    4    0    0 -0.52780619253E+02  0.68297544197E+02 -0.19925448677E+02  0.88585392797E+02  0.00000000000E+00 0.  1.
         12    1    4    4    0    0 -0.68340712167E-01 -0.16571522076E+02 -0.25833828929E+02  0.30692128168E+02  0.00000000000E+00 0. -1.
        -11    1    3    3    0    0  0.44851871871E+02 -0.35610795247E+02 -0.17693825557E+03  0.18597571194E+03  0.00000000000E+00 0.  1.
         11    1    3    3    0    0  0.21668852203E+02  0.41425729407E+02 -0.84235110223E+02  0.96338901836E+02  0.00000000000E+00 0. -1.
         21    1    1    2  503  502  0.11158117251E+02 -0.19621785990E+02 -0.15280516128E+03  0.15446337877E+03  0.00000000000E+00 0. -1.
          1    1    1    2  501    0 -0.24829881359E+02 -0.37919170291E+02 -0.14951279814E+01  0.45349993292E+02  0.00000000000E+00 0. -1.
<scales pt_clust_5="13000.00000" pt_clust_6="13000.00000" pt_clust_7="13000.00000" pt_clust_8="13000.00000" pt_clust_9="22.57251" pt_clust_10="45.98117"></scales>
<clustering>
<clus scale="   22.573">  2  9  1 -1</clus>
<clus scale="   45.981">  1 10  2 -1</clus>
<clus scale="   81.637">  5  6 -1 -1</clus>
<clus scale="   83.852">  7  8 -1 -1</clus>
<clus scale="  107.994">  1  5  2 -1</clus>
<clus scale="   45.981">  1  5  2 -1</clus>
</clustering>
</event>
<event>
10    4  0.3738096E-005  0.1097012E+03  0.7546771E-02  0.1265287E+00
          2   -1    0    0  503    0 -0.00000000000E+00  0.00000000000E+00  0.23254852677E+03  0.23254852677E+03  0.00000000000E+00 0. -1.
         21   -1    0    0  501  502  0.00000000000E+00 -0.00000000000E+00 -0.12428619779E+03  0.12428619779E+03  0.00000000000E+00 0.  1.
         24    2    1    2    0    0  0.40073995580E+02 -0.19377761636E+02  0.61505847819E+02  0.11137362399E+03  0.81484305459E+02 0.  0.
         23    2    1    2    0    0 -0.87549445829E+02 -0.14756707779E+02 -0.22647748589E+02  0.12978097825E+03  0.91910368890E+02 0.  0.
        -11    1    3    3    0    0  0.29667452724E+02  0.27691587488E+02  0.12104781588E+02  0.42349822976E+02  0.00000000000E+00 0.  1.
         12    1    3    3    0    0  0.10406542856E+02 -0.47069349124E+02  0.49401066230E+02  0.69023801010E+02  0.00000000000E+00 0. -1.
        -11    1    4    4    0    0 -0.71091147453E+02  0.32040679364E+02 -0.17412011618E+02  0.79898276132E+02  0.00000000000E+00 0.  1.
         11    1    4    4    0    0 -0.16458298377E+02 -0.46797387143E+02 -0.52357369711E+01  0.49882702117E+02  0.00000000000E+00 0. -1.
         21    1    1    2  503  502  0.17789044451E+02 -0.18156563791E+02  0.43123913433E+02  0.50057794807E+02  0.00000000000E+00 0.  1.
          1    1    1    2  501    0  0.29686405799E+02  0.52291033206E+02  0.26280316316E+02  0.65622327517E+02  0.00000000000E+00 0. -1.
<scales pt_clust_5="13000.00000" pt_clust_6="13000.00000" pt_clust_7="13000.00000" pt_clust_8="13000.00000" pt_clust_9="25.41871" pt_clust_10="58.70999"></scales>
<clustering>
<clus scale="   25.419">  1  9  2 -1</clus>
<clus scale="   58.710">  2 10  1 -1</clus>
<clus scale="   81.484">  5  6 -1 -1</clus>
<clus scale="   91.910">  7  8 -1 -1</clus>
<clus scale="  101.126">  1  5  2 -1</clus>
<clus scale="   58.710">  2  5  1 -1</clus>
</clustering>
</event>
<event>
10    4  0.3738096E-005  0.1513534E+03  0.7546771E-02  0.1221371E+00
          2   -1    0    0  503    0 -0.00000000000E+00  0.00000000000E+00  0.69250938202E+03  0.69250938202E+03  0.00000000000E+00 0. -1.
         21   -1    0    0  501  502  0.00000000000E+00 -0.00000000000E+00 -0.13647440400E+03  0.13647440400E+03  0.00000000000E+00 0.  1.
         23    2    1    2    0    0  0.32624125534E+01  0.24745764521E+02  0.17137206846E+02  0.95070197416E+02  0.90120266205E+02 0.  0.
         24    2    1    2    0    0  0.72980989843E+02 -0.58830845952E+02  0.17407423763E+02  0.12474250532E+03  0.80438677987E+02 0.  0.
        -13    1    4    4    0    0  0.63434761876E+02 -0.43526407155E+02 -0.23162776350E+02  0.80343209684E+02  0.00000000000E+00 0.  1.
         14    1    4    4    0    0  0.95462279675E+01 -0.15304438797E+02  0.40570200113E+02  0.44399295631E+02  0.00000000000E+00 0. -1.
        -13    1    3    3    0    0  0.16359740780E+02 -0.30480687108E+02  0.16455293767E+02  0.38307833375E+02  0.00000000000E+00 0. -1.
         13    1    3    3    0    0 -0.13097328226E+02  0.55226451628E+02  0.68191307898E+00  0.56762364041E+02  0.00000000000E+00 0.  1.
         21    1    1    2  503  502 -0.50295965671E+02  0.16940468397E+03  0.27844891474E+03  0.32978997746E+03  0.00000000000E+00 0. -1.
          1    1    1    2  501    0 -0.25947436726E+02 -0.13531960253E+03  0.24304143266E+03  0.27938110583E+03  0.00000000000E+00 0. -1.
<scales pt_clust_5="13000.00000" pt_clust_6="13000.00000" pt_clust_7="13000.00000" pt_clust_8="13000.00000" pt_clust_9="13000.00000" pt_clust_10="151.35344"></scales>
<clustering>
<clus scale="   80.439">  5  6 -1 -1</clus>
<clus scale="   90.120">  7  8 -1 -1</clus>
<clus scale="   93.513">  1  7  2 -1</clus>
<clus scale="  122.448">  1  5  2 -1</clus>
<clus scale="  151.353">  2 10  1 -1</clus>
<clus scale="  151.353">  2  5  1 -1</clus>
</clustering>
</event>
<event>
10    4  0.3738096E-005  0.2836862E+03  0.7546771E-02  0.1114384E+00
         -3   -1    0    0    0  501 -0.00000000000E+00  0.00000000000E+00  0.20567588692E+03  0.20567588692E+03  0.00000000000E+00 0.  1.
         21   -1    0    0  503  502  0.00000000000E+00 -0.00000000000E+00 -0.19769895976E+04  0.19769895976E+04  0.00000000000E+00 0.  1.
         23    2    1    2    0    0  0.53682291515E+02  0.92076474254E+02 -0.14572827976E+02  0.14180050830E+03  0.92385882616E+02 0.  0.
         24    2    1    2    0    0 -0.35568815770E+03 -0.16415066627E+02 -0.49502964682E+03  0.61510250210E+03  0.80704503717E+02 0.  0.
        -13    1    4    4    0    0 -0.25660970229E+03 -0.23889964364E+02 -0.29475486093E+03  0.39153505302E+03  0.00000000000E+00 0.  1.
         14    1    4    4    0    0 -0.99078455415E+02  0.74748977372E+01 -0.20027478589E+03  0.22356744908E+03  0.00000000000E+00 0. -1.
        -13    1    3    3    0    0  0.61328761095E+02  0.36019029322E+02 -0.37914143690E+02  0.80598199127E+02  0.00000000000E+00 0.  1.
         13    1    3    3    0    0 -0.76464695795E+01  0.56057444932E+02  0.23341315714E+02  0.61202309177E+02  0.00000000000E+00 0. -1.
         21    1    1    2  503  501  0.66724912085E+02  0.37474288303E+02  0.47966413723E+02  0.90317844427E+02  0.00000000000E+00 0. -1.
         -4    1    1    2    0  502  0.23528095410E+03 -0.11313569593E+03 -0.13096776496E+04  0.13354446296E+04  0.00000000000E+00 0.  1.
<scales pt_clust_5="13000.00000" pt_clust_6="13000.00000" pt_clust_7="13000.00000" pt_clust_8="13000.00000" pt_clust_9="76.52801" pt_clust_10="271.96447"></scales>
<clustering>
<clus scale="   76.528">  1  9  2 -1</clus>
<clus scale="   80.705">  5  6 -1 -1</clus>
<clus scale="   92.386">  7  8 -1 -1</clus>
<clus scale="  166.492">  1  7  2 -1</clus>
<clus scale="  271.964">  2 10  1 -1</clus>
<clus scale="  271.964">  2  5  1 -1</clus>
</clustering>
</event>
<event>
10    4  0.3738096E-005  0.2159315E+03  0.7546771E-02  0.1137723E+00
         21   -1    0    0  501  502  0.00000000000E+00  0.00000000000E+00  0.13188011514E+04  0.13188011514E+04  0.00000000000E+00 0. -1.
          2   -1    0    0  503    0 -0.00000000000E+00 -0.00000000000E+00 -0.77950936435E+02  0.77950936435E+02  0.00000000000E+00 0. -1.
         24    2    1    2    0    0  0.17766616825E+03  0.13286115431E+03  0.48454934976E+03  0.53879033555E+03  0.79306996293E+02 0.  0.
         23    2    1    2    0    0 -0.17365161423E+03 -0.31465614623E+02  0.65606502313E+03  0.68524645917E+03  0.89422744318E+02 0.  0.
        -11    1    3    3    0    0  0.10653708036E+02  0.19621601429E+02  0.12057582900E+03  0.12262560612E+03  0.00000000000E+00 0.  1.
         12    1    3    3    0    0  0.16701246022E+03  0.11323955288E+03  0.36397352076E+03  0.41616472943E+03  0.00000000000E+00 0. -1.
        -13    1    4    4    0    0 -0.15346528115E+03 -0.38992657022E+02  0.63730017893E+03  0.65667612861E+03  0.00000000000E+00 0. -1.
         13    1    4    4    0    0 -0.20186333081E+02  0.75270423985E+01  0.18764844201E+02  0.28570330562E+02  0.00000000000E+00 0.  1.
         21    1    1    2  503  502 -0.15245842741E+02  0.13991048062E+02  0.32254725246E+02  0.38321696824E+02  0.00000000000E+00 0. -1.
          1    1    1    2  501    0  0.11231288719E+02 -0.11538658775E+03  0.67981116821E+02  0.13439359629E+03  0.00000000000E+00 0. -1.
<scales pt_clust_5="13000.00000" pt_clust_6="13000.00000" pt_clust_7="13000.00000" pt_clust_8="13000.00000" pt_clust_9="20.69264" pt_clust_10="109.27690"></scales>
<clustering>
<clus scale="   20.693">  2  9  1 -1</clus>
<clus scale="   79.307">  5  6 -1 -1</clus>
<clus scale="   89.423">  7  8 -1 -1</clus>
<clus scale="  109.277">  1 10  2 -1</clus>
<clus scale="  211.942">  2  5  1 -1</clus>
<clus scale="  109.277">  1  5  2 -1</clus>
</clustering>
</event>
<event>
10    4  0.3738096E-005  0.2843183E+03  0.7546771E-02  0.1131729E+00
          2   -1    0    0  503    0 -0.00000000000E+00  0.00000000000E+00  0.11925119704E+04  0.11925119704E+04  0.00000000000E+00 0. -1.
         21   -1    0    0  501  502  0.00000000000E+00 -0.00000000000E+00 -0.29249813854E+03  0.29249813854E+03  0.00000000000E+00 0. -1.
         23    2    1    2    0    0  0.21096515222E+02  0.16674967423E+02  0.91383232850E+02  0.13831077284E+03  0.10027889681E+03 0.  0.
         24    2    1    2    0    0 -0.26037721153E+03 -0.23517152923E+03  0.46411139791E+03  0.58734147129E+03  0.80428065871E+02 0.  0.
        -13    1    4    4    0    0 -0.53849267291E+02 -0.98382448505E+02  0.15055934188E+03  0.18774175132E+03  0.00000000000E+00 0.  1.
         14    1    4    4    0    0 -0.20652794424E+03 -0.13678908072E+03  0.31355205603E+03  0.39959971997E+03  0.00000000000E+00 0. -1.
        -13    1    3    3    0    0  0.24552355045E+02 -0.37473626454E+02  0.62338994962E+02  0.76767448250E+02  0.00000000000E+00 0.  1.
         13    1    3    3    0    0 -0.34558398233E+01  0.54148593877E+02  0.29044237888E+02  0.61543324595E+02  0.00000000000E+00 0. -1.
         21    1    1    2  503  502  0.11521422666E+02  0.90344080980E+02  0.46339032296E+03  0.47225563794E+03  0.00000000000E+00 0. -1.
          1    1    1    2  501    0  0.22775927364E+03  0.12815248083E+03 -0.11887112185E+03  0.28710222688E+03  0.00000000000E+00 0. -1.
<scales pt_clust_5="13000.00000" pt_clust_6="13000.00000" pt_clust_7="13000.00000" pt_clust_8="13000.00000" pt_clust_9="91.07577" pt_clust_10="272.70535"></scales>
<clustering>
<clus scale="   80.428">  5  6 -1 -1</clus>
<clus scale="   91.076">  1  9  2 -1</clus>
<clus scale="  100.279">  7  8 -1 -1</clus>
<clus scale="  107.433">  1  7  2 -1</clus>
<clus scale="  272.705">  2 10  1 -1</clus>
<clus scale="  272.705">  2  5  1 -1</clus>
</clustering>
</event>
<event>
10    4  0.3738096E-005  0.1044293E+03  0.7546771E-02  0.1275902E+00
         21   -1    0    0  501  502  0.00000000000E+00  0.00000000000E+00  0.27169524681E+03  0.27169524681E+03  0.00000000000E+00 0.  1.
          2   -1    0    0  503    0 -0.00000000000E+00 -0.00000000000E+00 -0.36786514041E+03  0.36786514041E+03  0.00000000000E+00 0. -1.
         24    2    1    2    0    0 -0.19672238557E+02 -0.28706874543E+02 -0.44524064620E+02  0.97680933792E+02  0.79674907470E+02 0.  0.
         23    2    1    2    0    0  0.10576164349E+03 -0.22391954614E+02  0.19833694210E+03  0.24322785870E+03  0.90196029749E+02 0.  0.
        -11    1    3    3    0    0  0.24401774647E+02 -0.23872200946E+02  0.97517396989E+00  0.34150835249E+02  0.00000000000E+00 0.  1.
         12    1    3    3    0    0 -0.44074013204E+02 -0.48346735961E+01 -0.45499238589E+02  0.63530098543E+02  0.00000000000E+00 0. -1.
        -13    1    4    4    0    0  0.16781667040E+02  0.31573815526E+02  0.63839280278E+02  0.73170922380E+02  0.00000000000E+00 0.  1.
         13    1    4    4    0    0  0.88979976455E+02 -0.53965770140E+02  0.13449766182E+03  0.17005693632E+03  0.00000000000E+00 0. -1.
         21    1    1    2  503  502 -0.53191433726E+02 -0.39404347764E+02 -0.86613095376E+02  0.10901311634E+03  0.00000000000E+00 0.  1.
          1    1    1    2  501    0 -0.32897971212E+02  0.90503176920E+02 -0.16336967570E+03  0.18963847838E+03  0.00000000000E+00 0. -1.
<scales pt_clust_5="13000.00000" pt_clust_6="13000.00000" pt_clust_7="13000.00000" pt_clust_8="13000.00000" pt_clust_9="66.19691" pt_clust_10="93.65236"></scales>
<clustering>
<clus scale="   66.197">  2  9  1 -1</clus>
<clus scale="   79.675">  5  6 -1 -1</clus>
<clus scale="   90.196">  7  8 -1 -1</clus>
<clus scale="   93.652">  1 10  2 -1</clus>
<clus scale="   95.490">  2  5  1 -1</clus>
<clus scale="   93.652">  1  5  2 -1</clus>
</clustering>
</event>
<event>
10    4  0.3738096E-005  0.1205779E+03  0.7546771E-02  0.1253329E+00
         -1   -1    0    0    0  501 -0.00000000000E+00  0.00000000000E+00  0.14575797361E+03  0.14575797361E+03  0.00000000000E+00 0.  1.
         21   -1    0    0  501  502  0.00000000000E+00 -0.00000000000E+00 -0.67909321840E+03  0.67909321840E+03  0.00000000000E+00 0. -1.
         24    2    1    2    0    0 -0.23773105031E+02  0.23159531506E+02 -0.45662857093E+03  0.46484782200E+03  0.80450738989E+02 0.  0.
         23    2    1    2    0    0 -0.60071591207E+02  0.20868812244E+02 -0.81035923305E+02  0.13789348460E+03  0.91671635935E+02 0.  0.
        -13    1    3    3    0    0 -0.15020686446E+02 -0.15743205729E+02 -0.34159678023E+02  0.40501273443E+02  0.00000000000E+00 0.  1.
         14    1    3    3    0    0 -0.87524185848E+01  0.38902737235E+02 -0.42246889291E+03  0.42434654856E+03  0.00000000000E+00 0. -1.
        -11    1    4    4    0    0 -0.17445100885E+02  0.46246715597E+02 -0.72208522826E+02  0.87505205657E+02  0.00000000000E+00 0. -1.
         11    1    4    4    0    0 -0.42626490322E+02 -0.25377903353E+02 -0.88274004793E+01  0.50388278945E+02  0.00000000000E+00 0.  1.
         21    1    1    2  503  502 -0.31796052747E+02 -0.60073863092E+02 -0.58367563759E+02  0.89591464416E+02  0.00000000000E+00 0.  1.
         -2    1    1    2    0  503  0.11564074898E+03  0.16045519342E+02  0.62696813200E+02  0.13251842099E+03  0.00000000000E+00 0.  1.
<scales pt_clust_5="13000.00000" pt_clust_6="13000.00000" pt_clust_7="13000.00000" pt_clust_8="13000.00000" pt_clust_9="67.96954" pt_clust_10="78.32853"></scales>
<clustering>
<clus scale="   67.970">  2  9  1 -1</clus>
<clus scale="   80.451">  5  6 -1 -1</clus>
<clus scale="   91.672">  7  8 -1 -1</clus>
<clus scale="   96.357">  1  5  2 -1</clus>
<clus scale="   78.329">  2 10  1 -1</clus>
<clus scale="   67.970">  2  5  1 -1</clus>
</clustering>
</event>
<event>
10    4  0.3738096E-005  0.1660352E+03  0.7546771E-02  0.1183176E+00
          2   -1    0    0  503    0 -0.00000000000E+00  0.00000000000E+00  0.74786384259E+03  0.74786384259E+03  0.00000000000E+00 0. -1.
         21   -1    0    0  501  502  0.00000000000E+00 -0.00000000000E+00 -0.25380001350E+03  0.25380001350E+03  0.00000000000E+00 0. -1.
         24    2    1    2    0    0  0.10914084461E+03 -0.40537738401E+02  0.40822005979E+03  0.43235865158E+03  0.82069203610E+02 0.  0.
         23    2    1    2    0    0 -0.16728352918E+03 -0.10015310925E+03  0.56806555704E+01  0.21480300952E+03  0.89964652067E+02 0.  0.
        -11    1    3    3    0    0  0.10002627983E+03 -0.25814063661E+01  0.24738567495E+03  0.26685500274E+03  0.00000000000E+00 0.  1.
         12    1    3    3    0    0  0.91145647851E+01 -0.37956332034E+02  0.16083438484E+03  0.16550364884E+03  0.00000000000E+00 0. -1.
        -13    1    4    4    0    0 -0.10929120075E+03 -0.96637226755E+02  0.34555185309E+02  0.14992458434E+03  0.00000000000E+00 0. -1.
         13    1    4    4    0    0 -0.57992328427E+02 -0.35158824978E+01 -0.28874529738E+02  0.64878425179E+02  0.00000000000E+00 0.  1.
         21    1    1    2  503  502  0.32941854914E+02 -0.76811894170E+01  0.17392725076E+03  0.17718593350E+03  0.00000000000E+00 0. -1.
          1    1    1    2  501    0  0.25200829652E+02  0.14837203707E+03 -0.93764137029E+02  0.17731626150E+03  0.00000000000E+00 0. -1.
<scales pt_clust_5="13000.00000" pt_clust_6="13000.00000" pt_clust_7="13000.00000" pt_clust_8="13000.00000" pt_clust_9="33.82553" pt_clust_10="150.36706"></scales>
<clustering>
<clus scale="   33.826">  1  9  2 -1</clus>
<clus scale="   82.069">  5  6 -1 -1</clus>
<clus scale="   89.965">  7  8 -1 -1</clus>
<clus scale="  150.367">  2 10  1 -1</clus>
<clus scale="  161.893">  1  5  2 -1</clus>
<clus scale="  150.367">  2  5  1 -1</clus>
</clustering>
</event>
<event>
10    4  0.3738096E-005  0.2277239E+03  0.7546771E-02  0.1128950E+00
         21   -1    0    0  503  502  0.00000000000E+00  0.00000000000E+00  0.10562388313E+03  0.10562388313E+03  0.00000000000E+00 0. -1.
         -3   -1    0    0    0  501 -0.00000000000E+00 -0.00000000000E+00 -0.15330828662E+04  0.15330828662E+04  0.00000000000E+00 0.  1.
         24    2    1    2    0    0 -0.18700557415E+03 -0.77252766205E+01 -0.10294448749E+04  0.10493335836E+04  0.79457250047E+02 0.  0.
         23    2    1    2    0    0  0.18106229951E+03  0.72027883053E+02 -0.28302436417E+03  0.35516048413E+03  0.89803154352E+02 0.  0.
        -11    1    3    3    0    0 -0.14539270154E+03 -0.35644892924E+02 -0.67766774407E+03  0.69400516382E+03  0.00000000000E+00 0.  1.
         12    1    3    3    0    0 -0.41612872602E+02  0.27919616304E+02 -0.35177713079E+03  0.35532841976E+03  0.00000000000E+00 0. -1.
        -13    1    4    4    0    0  0.71072937506E+02 -0.16502772923E+02 -0.10692600528E+03  0.12944834710E+03  0.00000000000E+00 0. -1.
         13    1    4    4    0    0  0.10998936201E+03  0.88530655976E+02 -0.17609835889E+03  0.22571213704E+03  0.00000000000E+00 0.  1.
         21    1    1    2  503  501 -0.50416791244E+02 -0.15009046205E+02 -0.14446539681E+03  0.15374451269E+03  0.00000000000E+00 0. -1.
         -4    1    1    2    0  502  0.56360065878E+02 -0.49293560227E+02  0.29475652761E+02  0.80468168932E+02  0.00000000000E+00 0.  1.
<scales pt_clust_5="13000.00000" pt_clust_6="13000.00000" pt_clust_7="13000.00000" pt_clust_8="13000.00000" pt_clust_9="52.60346" pt_clust_10="74.36274"></scales>
<clustering>
<clus scale="   52.603">  2  9  1 -1</clus>
<clus scale="   74.363">  1 10  2 -1</clus>
<clus scale="   79.457">  5  6 -1 -1</clus>
<clus scale="   89.803">  7  8 -1 -1</clus>
<clus scale="  223.846">  2  5  1 -1</clus>
<clus scale="   74.363">  1  5  2 -1</clus>
</clustering>
</event>
<event>
10    4  0.3738096E-005  0.2055609E+03  0.7546771E-02  0.1146565E+00
         21   -1    0    0  503  502  0.00000000000E+00  0.00000000000E+00  0.14127567884E+03  0.14127567884E+03  0.00000000000E+00 0. -1.
         -3   -1    0    0    0  501 -0.00000000000E+00 -0.00000000000E+00 -0.56970899336E+03  0.56970899336E+03  0.00000000000E+00 0.  1.
         24    2    1    2    0    0  0.43015317815E+01 -0.16277665362E+03 -0.36046613935E+03  0.40331128281E+03  0.78799816555E+02 0.  0.
         23    2    1    2    0    0  0.81191550218E+01  0.19097540995E+03 -0.16077693188E+02  0.21401555144E+03  0.94903298980E+02 0.  0.
        -13    1    3    3    0    0  0.25503169696E+02 -0.90604037177E+02 -0.12734773912E+03  0.15835703292E+03  0.00000000000E+00 0.  1.
         14    1    3    3    0    0 -0.21201637914E+02 -0.72172616445E+02 -0.23311840023E+03  0.24495424989E+03  0.00000000000E+00 0. -1.
        -11    1    4    4    0    0 -0.11728899123E+02  0.87434476877E+02 -0.52281740859E+02  0.10254625907E+03  0.00000000000E+00 0. -1.
         11    1    4    4    0    0  0.19848054145E+02  0.10354093307E+03  0.36204047672E+02  0.11146929237E+03  0.00000000000E+00 0.  1.
         21    1    1    2  503  501  0.77505106575E+01 -0.24434015239E+02 -0.64614116542E+02  0.69513132376E+02  0.00000000000E+00 0.  1.
         -4    1    1    2    0  502 -0.20171197461E+02 -0.37647410844E+01  0.12724634558E+02  0.24144705570E+02  0.00000000000E+00 0.  1.
<scales pt_clust_5="13000.00000" pt_clust_6="13000.00000" pt_clust_7="13000.00000" pt_clust_8="13000.00000" pt_clust_9="25.58696" pt_clust_10="20.51951"></scales>
<clustering>
<clus scale="   20.520">  1 10  2 -1</clus>
<clus scale="   25.587">  2  9  1 -1</clus>
<clus scale="   78.800">  5  6 -1 -1</clus>
<clus scale="   94.903">  7  8 -1 -1</clus>
<clus scale="  198.641">  2  5  1 -1</clus>
<clus scale="   20.520">  1  5  2 -1</clus>
</clustering>
</event>
<event>
10    4  0.3738096E-005  0.1032516E+03  0.7546771E-02  0.1279178E+00
         21   -1    0    0  501  502  0.00000000000E+00  0.00000000000E+00  0.11619151961E+03  0.11619151961E+03  0.00000000000E+00 0. -1.
          2   -1    0    0  503    0 -0.00000000000E+00 -0.00000000000E+00 -0.41738303086E+03  0.41738303086E+03  0.00000000000E+00 0. -1.
         24    2    1    2    0    0 -0.68599199315E+02 -0.56160438169E+02 -0.12864066782E+03  0.17601124538E+03  0.81065973885E+02 0.  0.
         23    2    1    2    0    0  0.51182638136E+01  0.84075437920E+01  0.18103494721E+02  0.95105826083E+02  0.92846638155E+02 0.  0.
        -11    1    3    3    0    0 -0.12056083757E+02 -0.62057337814E+02 -0.64860255055E+02  0.90572153656E+02  0.00000000000E+00 0.  1.
         12    1    3    3    0    0 -0.56543115559E+02  0.58968996453E+01 -0.63780412767E+02  0.85439091727E+02  0.00000000000E+00 0. -1.
        -13    1    4    4    0    0 -0.26091891504E+02  0.50409635018E+01 -0.28467163183E+02  0.38943259943E+02  0.00000000000E+00 0.  1.
         13    1    4    4    0    0  0.31210155318E+02  0.33665802902E+01  0.46570657904E+02  0.56162566140E+02  0.00000000000E+00 0. -1.
         21    1    1    2  503  502  0.48333104068E+02  0.15909039176E+02 -0.21413132074E+03  0.22009409124E+03  0.00000000000E+00 0. -1.
          1    1    1    2  501    0  0.15147831434E+02  0.31843855201E+02  0.23476982587E+02  0.42363387761E+02  0.00000000000E+00 0. -1.
<scales pt_clust_5="13000.00000" pt_clust_6="13000.00000" pt_clust_7="13000.00000" pt_clust_8="13000.00000" pt_clust_9="51.76372" pt_clust_10="35.26312"></scales>
<clustering>
<clus scale="   35.263">  1 10  2 -1</clus>
<clus scale="   51.764">  2  9  1 -1</clus>
<clus scale="   81.066">  5  6 -1 -1</clus>
<clus scale="   92.801">  2  5  1 -1</clus>
<clus scale="   92.847">  7  8 -1 -1</clus>
<clus scale="   35.263">  1  5  2 -1</clus>
</clustering>
</event>
<event>
10    4  0.3738096E-005  0.1065275E+03  0.7546771E-02  0.1271890E+00
         21   -1    0    0  501  502  0.00000000000E+00  0.00000000000E+00  0.13975776652E+03  0.13975776652E+03  0.00000000000E+00 0. -1.
          2   -1    0    0  503    0 -0.00000000000E+00 -0.00000000000E+00 -0.85449518891E+03  0.85449518891E+03  0.00000000000E+00 0. -1.
         23    2    1    2    0    0 -0.71445284057E+00  0.28743766137E+02 -0.21865110297E+03  0.23891403356E+03  0.91896115641E+02 0.  0.
         24    2    1    2    0    0 -0.44390864139E+02  0.98441268129E+01  0.53547333527E+02  0.10711432548E+03  0.80862266494E+02 0.  0.
        -13    1    4    4    0    0 -0.58111252941E+02 -0.18722788852E+02  0.36436349885E+02  0.71099002339E+02  0.00000000000E+00 0.  1.
         14    1    4    4    0    0  0.13720388801E+02  0.28566915664E+02  0.17110983641E+02  0.36015323136E+02  0.00000000000E+00 0. -1.
        -11    1    3    3    0    0 -0.22338374533E+02  0.44419561267E+02 -0.20061944970E+03  0.20668880957E+03  0.00000000000E+00 0. -1.
         11    1    3    3    0    0  0.21623921693E+02 -0.15675795130E+02 -0.18031653264E+02  0.32225223999E+02  0.00000000000E+00 0.  1.
         21    1    1    2  503  502  0.65629697667E+02 -0.42010760108E+02 -0.59406942218E+03  0.59915827587E+03  0.00000000000E+00 0.  1.
          1    1    1    2  501    0 -0.20524380687E+02  0.34228671579E+01  0.44435769231E+02  0.49066320520E+02  0.00000000000E+00 0. -1.
<scales pt_clust_5="13000.00000" pt_clust_6="13000.00000" pt_clust_7="13000.00000" pt_clust_8="13000.00000" pt_clust_9="77.40101" pt_clust_10="20.80784"></scales>
<clustering>
<clus scale="   20.808">  1 10  2 -1</clus>
<clus scale="   77.401">  2  9  1 -1</clus>
<clus scale="   80.862">  5  6 -1 -1</clus>
<clus scale="   91.896">  7  8 -1 -1</clus>
<clus scale="   97.170">  1  5  2 -1</clus>
<clus scale="   20.808">  1  5  2 -1</clus>
</clustering>
</event>
<event>
10    4  0.3738096E-005  0.1660115E+03  0.7546771E-02  0.1182702E+00
          2   -1    0    0  503    0 -0.00000000000E+00  0.00000000000E+00  0.29140429400E+03  0.29140429400E+03  0.00000000000E+00 0. -1.
         21   -1    0    0  501  502  0.00000000000E+00 -0.00000000000E+00 -0.20382843953E+03  0.20382843953E+03  0.00000000000E+00 0.  1.
         24    2    1    2    0    0  0.13399406807E+03  0.81246292491E+02  0.91253145395E+02  0.19844992694E+03  0.80621750409E+02 0.  0.
         23    2    1    2    0    0 -0.13554127091E+03 -0.34823479020E+02 -0.96161221253E+02  0.18999363166E+03  0.85243702321E+02 0.  0.
        -13    1    3    3    0    0 -0.25466979089E+01  0.30389781533E+02  0.14555671171E+02  0.33791893334E+02  0.00000000000E+00 0.  1.
         14    1    3    3    0    0  0.13654076598E+03  0.50856510958E+02  0.76697474224E+02  0.16465803361E+03  0.00000000000E+00 0. -1.
        -13    1    4    4    0    0 -0.96517040562E+02 -0.40205374381E+02 -0.10652096606E+03  0.14926060250E+03  0.00000000000E+00 0.  1.
         13    1    4    4    0    0 -0.39024230352E+02  0.53818953611E+01  0.10359744803E+02  0.40733029161E+02  0.00000000000E+00 0. -1.
         21    1    1    2  503  502 -0.11445584747E+02 -0.27520360685E+02  0.43889135398E+02  0.53053066532E+02  0.00000000000E+00 0. -1.
          1    1    1    2  501    0  0.12992787594E+02 -0.18902452787E+02  0.48594794930E+02  0.53736108392E+02  0.00000000000E+00 0. -1.
<scales pt_clust_5="13000.00000" pt_clust_6="13000.00000" pt_clust_7="13000.00000" pt_clust_8="13000.00000" pt_clust_9="30.09252" pt_clust_10="22.93721"></scales>
<clustering>
<clus scale="   22.937">  2 10  1 -1</clus>
<clus scale="   30.093">  1  9  2 -1</clus>
<clus scale="   80.622">  5  6 -1 -1</clus>
<clus scale="   85.244">  7  8 -1 -1</clus>
<clus scale="  163.686">  1  5  2 -1</clus>
<clus scale="   22.937">  2  5  1 -1</clus>
</clustering>
</event>
<event>
10    4  0.4589587E-005  0.1115380E+03  0.7546771E-02  0.1262094E+00
         -1   -1    0    0    0  501 -0.00000000000E+00  0.00000000000E+00  0.26514350580E+03  0.26514350580E+03  0.00000000000E+00 0.  1.
         21   -1    0    0  503  502  0.00000000000E+00 -0.00000000000E+00 -0.39969931642E+03  0.39969931642E+03  0.00000000000E+00 0.  1.
         24    2    1    2    0    0 -0.42469336887E+02 -0.14108967033E+02  0.21350269620E+03  0.23225304086E+03  0.79720550546E+02 0.  0.
         23    2    1    2    0    0  0.48187585942E+01  0.77216788994E+02 -0.19205283053E+03  0.22622819573E+03  0.91155108964E+02 0.  0.
        -13    1    3    3    0    0 -0.61870793982E+02 -0.50171254010E+01  0.19245658378E+03  0.20221944352E+03  0.00000000000E+00 0.  1.
         14    1    3    3    0    0  0.19401457095E+02 -0.90918416321E+01  0.21046112418E+02  0.30033597346E+02  0.00000000000E+00 0. -1.
        -11    1    4    4    0    0 -0.40450163176E+02  0.46117747389E+02 -0.12737839395E+03  0.14138004658E+03  0.00000000000E+00 0.  1.
         11    1    4    4    0    0  0.45268921770E+02  0.31099041605E+02 -0.64674436577E+02  0.84848149146E+02  0.00000000000E+00 0. -1.
         21    1    1    2  503  501 -0.18734533693E+02 -0.18103902159E+02  0.79476370467E+01  0.27237822246E+02  0.00000000000E+00 0.  1.
         -2    1    1    2    0  502  0.56385111986E+02 -0.45003919802E+02 -0.16395331335E+03  0.17912376338E+03  0.00000000000E+00 0.  1.
<scales pt_clust_5="13000.00000" pt_clust_6="13000.00000" pt_clust_7="13000.00000" pt_clust_8="13000.00000" pt_clust_9="26.05252" pt_clust_10="72.04488"></scales>
<clustering>
<clus scale="   26.053">  1  9  2 -1</clus>
<clus scale="   72.045">  2 10  1 -1</clus>
<clus scale="   79.721">  5  6 -1 -1</clus>
<clus scale="   91.155">  7  8 -1 -1</clus>
<clus scale="  102.405">  1  5  2 -1</clus>
<clus scale="   72.045">  2  5  1 -1</clus>
</clustering>
</event>
<event>
10    4  0.3738096E-005  0.1005674E+03  0.7546771E-02  0.1284144E+00
          2   -1    0    0  503    0 -0.00000000000E+00  0.00000000000E+00  0.84144588846E+03  0.84144588846E+03  0.00000000000E+00 0. -1.
         21   -1    0    0  501  502  0.00000000000E+00 -0.00000000000E+00 -0.92125739551E+02  0.92125739551E+02  0.00000000000E+00 0.  1.
         23    2    1    2    0    0 -0.48353318950E+02  0.18954944414E+02  0.23210132444E+03  0.25489435809E+03  0.91666654831E+02 0.  0.
         24    2    1    2    0    0  0.57372730400E+02 -0.81967778252E+02 -0.61886834425E+01  0.12919523412E+03  0.81503140131E+02 0.  0.
        -13    1    4    4    0    0 -0.65531073362E+01 -0.52645036594E+02  0.16061458515E+02  0.55429356332E+02  0.00000000000E+00 0.  1.
         14    1    4    4    0    0  0.63925837736E+02 -0.29322741658E+02 -0.22250141958E+02  0.73765877787E+02  0.00000000000E+00 0. -1.
        -13    1    3    3    0    0  0.75879572594E+01 -0.24686465508E+02  0.11591648211E+03  0.11875870284E+03  0.00000000000E+00 0.  1.
         13    1    3    3    0    0 -0.55941276209E+02  0.43641409922E+02  0.11618484233E+03  0.13613565525E+03  0.00000000000E+00 0. -1.
         21    1    1    2  503  502  0.62199087461E+02 -0.74629924214E+01  0.14337551340E+03  0.15646392740E+03  0.00000000000E+00 0. -1.
          1    1    1    2  501    0 -0.71218498911E+02  0.70475826259E+02  0.38003199452E+03  0.39301810840E+03  0.00000000000E+00 0. -1.
<scales pt_clust_5="13000.00000" pt_clust_6="13000.00000" pt_clust_7="13000.00000" pt_clust_8="13000.00000" pt_clust_9="62.64521" pt_clust_10="75.66424"></scales>
<clustering>
<clus scale="   62.645">  1  9  2 -1</clus>
<clus scale="   75.664">  2 10  1 -1</clus>
<clus scale="   81.503">  5  6 -1 -1</clus>
<clus scale="   91.399">  2  5  1 -1</clus>
<clus scale="   91.667">  7  8 -1 -1</clus>
<clus scale="   75.664">  2  5  1 -1</clus>
</clustering>
</event>
<event>
10    4  0.3738096E-005  0.1618495E+03  0.7546771E-02  0.1192484E+00
         21   -1    0    0  501  502  0.00000000000E+00  0.00000000000E+00  0.44691012849E+03  0.44691012849E+03  0.00000000000E+00 0. -1.
          2   -1    0    0  503    0 -0.00000000000E+00 -0.00000000000E+00 -0.20361877147E+03  0.20361877147E+03  0.00000000000E+00 0. -1.
         24    2    1    2    0    0  0.44030206441E+02  0.69104152248E+02 -0.68756935964E+02  0.13411608458E+03  0.80904665885E+02 0.  0.
         23    2    1    2    0    0 -0.67302322083E+02 -0.21149021440E+03  0.18731763565E+03  0.31124148250E+03  0.11191805241E+03 0.  0.
        -11    1    3    3    0    0 -0.21801231588E+02  0.21528791583E+02 -0.34000094911E+02  0.45768865179E+02  0.00000000000E+00 0.  1.
         12    1    3    3    0    0  0.65831438029E+02  0.47575360665E+02 -0.34756841053E+02  0.88347219398E+02  0.00000000000E+00 0. -1.
        -11    1    4    4    0    0 -0.41272984925E+02 -0.21644780087E+03  0.15476583877E+03  0.26926859200E+03  0.00000000000E+00 0. -1.
         11    1    4    4    0    0 -0.26029337158E+02  0.49575864709E+01  0.32551796885E+02  0.41972890500E+02  0.00000000000E+00 0.  1.
         21    1    1    2  503  502 -0.10748254371E+02  0.34667871262E+02 -0.79002765082E+00  0.36304413142E+02  0.00000000000E+00 0. -1.
          1    1    1    2  501    0  0.34020370013E+02  0.10771819089E+03  0.12552068498E+03  0.16886691974E+03  0.00000000000E+00 0. -1.
<scales pt_clust_5="13000.00000" pt_clust_6="13000.00000" pt_clust_7="13000.00000" pt_clust_8="13000.00000" pt_clust_9="36.29582" pt_clust_10="116.48028"></scales>
<clustering>
<clus scale="   36.296">  2  9  1 -1</clus>
<clus scale="   80.905">  5  6 -1 -1</clus>
<clus scale="  111.918">  7  8 -1 -1</clus>
<clus scale="  116.480">  1 10  2 -1</clus>
<clus scale="  142.180">  2  5  1 -1</clus>
<clus scale="  116.480">  1  5  2 -1</clus>
</clustering>
</event>
<event>
10    4  0.3738096E-005  0.1153613E+03  0.7546771E-02  0.1252300E+00
          2   -1    0    0  503    0 -0.00000000000E+00  0.00000000000E+00  0.75381264596E+03  0.75381264596E+03  0.00000000000E+00 0. -1.
         21   -1    0    0  501  502  0.00000000000E+00 -0.00000000000E+00 -0.10059746082E+03  0.10059746082E+03  0.00000000000E+00 0. -1.
         24    2    1    2    0    0 -0.87081123277E+02  0.73379305800E+02  0.19638596426E+03  0.24316062098E+03  0.87132061194E+02 0.  0.
         23    2    1    2    0    0 -0.70282289888E+01 -0.48536573123E+02 -0.22312016985E+02  0.10578791795E+03  0.91038796943E+02 0.  0.
        -13    1    3    3    0    0 -0.43630773754E+02  0.87056380784E+02  0.12453445239E+03  0.15808632985E+03  0.00000000000E+00 0.  1.
         14    1    3    3    0    0 -0.43450349523E+02 -0.13677074984E+02  0.71851511866E+02  0.85074291129E+02  0.00000000000E+00 0. -1.
        -13    1    4    4    0    0 -0.30380827371E+02 -0.14235832265E+02  0.25748472460E+02  0.42292285657E+02  0.00000000000E+00 0.  1.
         13    1    4    4    0    0  0.23352598382E+02 -0.34300740858E+02 -0.48060489444E+02  0.63495632293E+02  0.00000000000E+00 0. -1.
         21    1    1    2  503  502  0.53272493109E+02 -0.65636990779E+02  0.15818581144E+03  0.17935697372E+03  0.00000000000E+00 0. -1.
          1    1    1    2  501    0  0.40836859157E+02  0.40794258103E+02  0.32095542643E+03  0.32610459413E+03  0.00000000000E+00 0. -1.
<scales pt_clust_5="13000.00000" pt_clust_6="13000.00000" pt_clust_7="13000.00000" pt_clust_8="13000.00000" pt_clust_9="84.12240" pt_clust_10="57.72195"></scales>
<clustering>
<clus scale="   57.722">  2 10  1 -1</clus>
<clus scale="   84.122">  1  9  2 -1</clus>
<clus scale="   87.132">  5  6 -1 -1</clus>
<clus scale="   91.039">  7  8 -1 -1</clus>
<clus scale="  112.304">  1  5  2 -1</clus>
<clus scale="   57.722">  2  5  1 -1</clus>
</clustering>
</event>
<event>
10    4  0.3738096E-005  0.1282914E+03  0.7546771E-02  0.1238454E+00
         21   -1    0    0  501  502  0.00000000000E+00  0.00000000000E+00  0.16135755692E+03  0.16135755692E+03  0.00000000000E+00 0. -1.
          2   -1    0    0  503    0 -0.00000000000E+00 -0.00000000000E+00 -0.27797380847E+03  0.27797380847E+03  0.00000000000E+00 0. -1.
         23    2    1    2    0    0 -0.19867278687E+02 -0.61135540882E+02  0.38321957484E+02  0.11639641917E+03  0.89147579043E+02 0.  0.
         24    2    1    2    0    0 -0.81336101242E+02  0.26444389827E+02 -0.37231644536E+02  0.12359972961E+03  0.81091495770E+02 0.  0.
        -11    1    4    4    0    0 -0.21264151657E+02  0.32049764515E+02  0.17393126809E+02  0.42212230590E+02  0.00000000000E+00 0.  1.
         12    1    4    4    0    0 -0.60071949585E+02 -0.56053746880E+01 -0.54624771344E+02  0.81387499020E+02  0.00000000000E+00 0. -1.
        -13    1    3    3    0    0  0.27496875879E+02 -0.24511224205E+01 -0.69106310348E+01  0.28457740696E+02  0.00000000000E+00 0.  1.
         13    1    3    3    0    0 -0.47364154566E+02 -0.58684418462E+02  0.45232588519E+02  0.87938678476E+02  0.00000000000E+00 0. -1.
         21    1    1    2  503  502 -0.21496504498E+02  0.30195692862E+02 -0.37193480497E+02  0.52509375968E+02  0.00000000000E+00 0. -1.
          1    1    1    2  501    0  0.12269988443E+03  0.44954581928E+01 -0.80513084006E+02  0.14682584064E+03  0.00000000000E+00 0. -1.
<scales pt_clust_5="13000.00000" pt_clust_6="13000.00000" pt_clust_7="13000.00000" pt_clust_8="13000.00000" pt_clust_9="37.06588" pt_clust_10="99.41261"></scales>
<clustering>
<clus scale="   37.066">  2  9  1 -1</clus>
<clus scale="   81.091">  5  6 -1 -1</clus>
<clus scale="   89.148">  7  8 -1 -1</clus>
<clus scale="  107.902">  2  7  1 -1</clus>
<clus scale="   99.413">  1 10  2 -1</clus>
<clus scale="   99.413">  1  5  2 -1</clus>
</clustering>
</event>
<event>
10    4  0.3738096E-005  0.1013845E+03  0.7546771E-02  0.1283625E+00
         21   -1    0    0  501  502  0.00000000000E+00  0.00000000000E+00  0.26334386718E+03  0.26334386718E+03  0.00000000000E+00 0. -1.
          2   -1    0    0  503    0 -0.00000000000E+00 -0.00000000000E+00 -0.13836777773E+03  0.13836777773E+03  0.00000000000E+00 0. -1.
         23    2    1    2    0    0  0.26820106364E+02  0.13425787285E+02 -0.39997630463E+02  0.10522337566E+03  0.92588219952E+02 0.  0.
         24    2    1    2    0    0 -0.67308659181E+02 -0.71719829722E+01  0.13160092369E+03  0.16825518752E+03  0.80056930196E+02 0.  0.
        -13    1    4    4    0    0  0.13514911741E+02 -0.17922387476E+02  0.20156423397E+02  0.30168629674E+02  0.00000000000E+00 0.  1.
         14    1    4    4    0    0 -0.80823570923E+02  0.10750404504E+02  0.11144450029E+03  0.13808655785E+03  0.00000000000E+00 0. -1.
        -13    1    3    3    0    0 -0.33147877891E+02  0.16724219825E+02 -0.18019707669E+02  0.41269737119E+02  0.00000000000E+00 0. -1.
         13    1    3    3    0    0  0.59967984254E+02 -0.32984325401E+01 -0.21977922795E+02  0.63953638545E+02  0.00000000000E+00 0.  1.
         21    1    1    2  503  502 -0.12182245436E+02  0.33603148472E+02 -0.22060513453E+02  0.42002915910E+02  0.00000000000E+00 0. -1.
          1    1    1    2  501    0  0.52670798254E+02 -0.39856952785E+02  0.55433309682E+02  0.86230165814E+02  0.00000000000E+00 0. -1.
<scales pt_clust_5="13000.00000" pt_clust_6="13000.00000" pt_clust_7="13000.00000" pt_clust_8="13000.00000" pt_clust_9="35.74323" pt_clust_10="61.77261"></scales>
<clustering>
<clus scale="   35.743">  2  9  1 -1</clus>
<clus scale="   61.773">  1 10  2 -1</clus>
<clus scale="   80.057">  5  6 -1 -1</clus>
<clus scale="   90.085">  1  5  2 -1</clus>
<clus scale="   92.588">  7  8 -1 -1</clus>
<clus scale="   61.773">  1  5  2 -1</clus>
</clustering>
</event>
<event>
10    4  0.3738096E-005  0.1002114E+03  0.7546771E-02  0.1290782E+00
          2   -1    0    0  503    0 -0.00000000000E+00  0.00000000000E+00  0.64203214746E+03  0.64203214746E+03  0.00000000000E+00 0. -1.
         21   -1    0    0  501  502  0.00000000000E+00 -0.00000000000E+00 -0.46969278594E+02  0.46969278594E+02  0.00000000000E+00 0.  1.
         24    2    1    2    0    0  0.28850744129E+02  0.37012098033E+02  0.22876865673E+03  0.24408646420E+03  0.70998893427E+02 0.  0.
         23    2    1    2    0    0 -0.42552905370E+01 -0.42499169460E+02  0.19348861769E+03  0.21839725986E+03  0.91843513851E+02 0.  0.
        -11    1    3    3    0    0 -0.22519174256E+02  0.21198899333E+02  0.72059716135E+02  0.78416256169E+02  0.00000000000E+00 0.  1.
         12    1    3    3    0    0  0.51369918385E+02  0.15813198701E+02  0.15670894059E+03  0.16567020803E+03  0.00000000000E+00 0. -1.
        -11    1    4    4    0    0  0.34284104621E+02  0.47981192871E+01  0.10769404387E+03  0.11312130155E+03  0.00000000000E+00 0. -1.
         11    1    4    4    0    0 -0.38539395158E+02 -0.47297288748E+02  0.85794573818E+02  0.10527595831E+03  0.00000000000E+00 0.  1.
         21    1    1    2  503  502 -0.51110176992E+02 -0.43226176150E+01  0.18768658223E+03  0.19456923797E+03  0.00000000000E+00 0.  1.
          1    1    1    2  501    0  0.26514723400E+02  0.98096890420E+01 -0.14880987781E+02  0.31948464023E+02  0.00000000000E+00 0. -1.
<scales pt_clust_5="13000.00000" pt_clust_6="13000.00000" pt_clust_7="13000.00000" pt_clust_8="13000.00000" pt_clust_9="47.32466" pt_clust_10="28.27120"></scales>
<clustering>
<clus scale="   28.271">  2 10  1 -1</clus>
<clus scale="   47.325">  1  9  2 -1</clus>
<clus scale="   70.999">  5  6 -1 -1</clus>
<clus scale="   81.535">  1  5  2 -1</clus>
<clus scale="   91.844">  7  8 -1 -1</clus>
<clus scale="   28.271">  2  5  1 -1</clus>
</clustering>
</event>
<event>
10    4  0.3738096E-005  0.2111000E+03  0.7546771E-02  0.1141987E+00
          2   -1    0    0  503    0 -0.00000000000E+00  0.00000000000E+00  0.13887219764E+04  0.13887219764E+04  0.00000000000E+00 0. -1.
         21   -1    0    0  501  502  0.00000000000E+00 -0.00000000000E+00 -0.82925743682E+02  0.82925743682E+02  0.00000000000E+00 0. -1.
         23    2    1    2    0    0  0.29270242033E+02  0.17645687806E+03  0.64016098064E+03  0.67099552982E+03  0.91843034659E+02 0.  0.
         24    2    1    2    0    0 -0.17897984779E+03 -0.14522551888E+03  0.26765269056E+03  0.36127006685E+03  0.75854210101E+02 0.  0.
        -13    1    4    4    0    0 -0.33932054009E+02 -0.30436457490E+01  0.15340806396E+02  0.37362928279E+02  0.00000000000E+00 0.  1.
         14    1    4    4    0    0 -0.14504779378E+03 -0.14218187313E+03  0.25231188416E+03  0.32390713857E+03  0.00000000000E+00 0. -1.
        -11    1    3    3    0    0  0.23127056477E+02  0.22931544290E+02  0.40540418720E+02  0.52002327013E+02  0.00000000000E+00 0.  1.
         11    1    3    3    0    0  0.61431855556E+01  0.15352533377E+03  0.59962056192E+03  0.61899320281E+03  0.00000000000E+00 0. -1.
         21    1    1    2  503  502  0.15686338292E+02  0.20603892114E+02  0.15452350744E+03  0.15667831991E+03  0.00000000000E+00 0. -1.
          1    1    1    2  501    0  0.13402326747E+03 -0.51835251299E+02  0.24345905404E+03  0.28270380346E+03  0.00000000000E+00 0. -1.
<scales pt_clust_5="13000.00000" pt_clust_6="13000.00000" pt_clust_7="13000.00000" pt_clust_8="13000.00000" pt_clust_9="25.89559" pt_clust_10="145.33063"></scales>
<clustering>
<clus scale="   25.896">  1  9  2 -1</clus>
<clus scale="   75.854">  5  6 -1 -1</clus>
<clus scale="   91.843">  7  8 -1 -1</clus>
<clus scale="  145.331">  2 10  1 -1</clus>
<clus scale="  204.651">  2  5  1 -1</clus>
<clus scale="  145.331">  2  5  1 -1</clus>
</clustering>
</event>
<event>
10    4  0.3738096E-005  0.2286670E+03  0.7546771E-02  0.1164600E+00
         21   -1    0    0  501  502  0.00000000000E+00  0.00000000000E+00  0.52850644768E+03  0.52850644768E+03  0.00000000000E+00 0. -1.
          2   -1    0    0  503    0 -0.00000000000E+00 -0.00000000000E+00 -0.58863189390E+03  0.58863189390E+03  0.00000000000E+00 0. -1.
         23    2    1    2    0    0  0.22677278646E+02  0.96321457017E+01  0.23417225532E+03  0.25252732848E+03  0.91248941206E+02 0.  0.
         24    2    1    2    0    0  0.65019882717E+02 -0.22641266621E+03  0.62544363089E+02  0.25664364586E+03  0.80398277563E+02 0.  0.
        -11    1    4    4    0    0  0.15306659891E+02 -0.20297125146E+02  0.34375801830E+02  0.42754682523E+02  0.00000000000E+00 0.  1.
         12    1    4    4    0    0  0.49713222825E+02 -0.20611554107E+03  0.28168561259E+02  0.21388896334E+03  0.00000000000E+00 0. -1.
        -11    1    3    3    0    0  0.45007017634E+02  0.25483603853E+02  0.75545105377E+02  0.91553856544E+02  0.00000000000E+00 0.  1.
         11    1    3    3    0    0 -0.22329738988E+02 -0.15851458151E+02  0.15862714994E+03  0.16097347194E+03  0.00000000000E+00 0. -1.
         21    1    1    2  503  502  0.97386082011E+02  0.96826090154E+02 -0.36218534390E+03  0.38734682655E+03  0.00000000000E+00 0. -1.
          1    1    1    2  501    0 -0.18508324337E+03  0.11995443036E+03  0.53432792714E+01  0.22062054069E+03  0.00000000000E+00 0. -1.
<scales pt_clust_5="13000.00000" pt_clust_6="13000.00000" pt_clust_7="13000.00000" pt_clust_8="13000.00000" pt_clust_9="152.23767" pt_clust_10="214.06721"></scales>
<clustering>
<clus scale="   80.398">  5  6 -1 -1</clus>
<clus scale="   91.249">  7  8 -1 -1</clus>
<clus scale="   94.517">  2  7  1 -1</clus>
<clus scale="  152.238">  2  9  1 -1</clus>
<clus scale="  214.067">  1 10  2 -1</clus>
<clus scale="  214.067">  1  5  2 -1</clus>
</clustering>
</event>
<event>
10    4  0.3738096E-005  0.4044113E+03  0.7546771E-02  0.1042263E+00
          2   -1    0    0  503    0 -0.00000000000E+00  0.00000000000E+00  0.31682003884E+03  0.31682003884E+03  0.00000000000E+00 0. -1.
         21   -1    0    0  501  502  0.00000000000E+00 -0.00000000000E+00 -0.65658141839E+03  0.65658141839E+03  0.00000000000E+00 0. -1.
         24    2    1    2    0    0  0.31619761907E+02 -0.45725338399E+02 -0.11273966279E+03  0.15627674565E+03  0.92852429956E+02 0.  0.
         23    2    1    2    0    0 -0.19626510948E+02 -0.27430621414E+03 -0.30211318549E+03  0.41776122500E+03  0.87309594062E+02 0.  0.
        -13    1    3    3    0    0  0.43796989350E+02  0.53136408098E+01 -0.87624380989E+02  0.98104246587E+02  0.00000000000E+00 0.  1.
         14    1    3    3    0    0 -0.12177227443E+02 -0.51038979208E+02 -0.25115281804E+02  0.58172499060E+02  0.00000000000E+00 0. -1.
        -11    1    4    4    0    0 -0.13663077502E+02 -0.28891534737E+02 -0.49934887899E+01  0.32347108010E+02  0.00000000000E+00 0.  1.
         11    1    4    4    0    0 -0.59634334463E+01 -0.24541467940E+03 -0.29711969670E+03  0.38541411699E+03  0.00000000000E+00 0. -1.
         21    1    1    2  503  502 -0.81588746199E+01 -0.35508667550E+02  0.29108328668E+01  0.36550043149E+02  0.00000000000E+00 0.  1.
          1    1    1    2  501    0 -0.38343763386E+01  0.35554022009E+03  0.72180635861E+02  0.36281344343E+03  0.00000000000E+00 0. -1.
<scales pt_clust_5="13000.00000" pt_clust_6="13000.00000" pt_clust_7="13000.00000" pt_clust_8="13000.00000" pt_clust_9="36.43395" pt_clust_10="329.69066"></scales>
<clustering>
<clus scale="   36.434">  1  9  2 -1</clus>
<clus scale="   87.310">  7  8 -1 -1</clus>
<clus scale="   92.852">  5  6 -1 -1</clus>
<clus scale="  101.801">  5  7 -1 -1</clus>
<clus scale="  329.691">  2 10  1 -1</clus>
<clus scale="  329.691">  2  5  1 -1</clus>
</clustering>
</event>
<event>
10    4  0.3738096E-005  0.9671570E+02  0.7546771E-02  0.1290163E+00
          2   -1    0    0  503    0 -0.00000000000E+00  0.00000000000E+00  0.16666309706E+04  0.16666309706E+04  0.00000000000E+00 0. -1.
         21   -1    0    0  501  502  0.00000000000E+00 -0.00000000000E+00 -0.17044816828E+02  0.17044816828E+02  0.00000000000E+00 0. -1.
         24    2    1    2    0    0 -0.27691125747E+02  0.18157751126E+02  0.11588633658E+04  0.11624734979E+04  0.85345359636E+02 0.  0.
         23    2    1    2    0    0  0.24246817486E+02 -0.29894107868E+02  0.22857087364E+03  0.24888692396E+03  0.90655892237E+02 0.  0.
        -13    1    3    3    0    0 -0.24438268938E+02  0.12784338844E+02  0.10410478923E+03  0.10769621836E+03  0.00000000000E+00 0.  1.
         14    1    3    3    0    0 -0.32528568090E+01  0.53734122815E+01  0.10547585765E+04  0.10547772795E+04  0.00000000000E+00 0. -1.
        -11    1    4    4    0    0  0.54967710858E+02 -0.19737237665E+02  0.18874116028E+03  0.19757083127E+03  0.00000000000E+00 0.  1.
         11    1    4    4    0    0 -0.30720893372E+02 -0.10156870203E+02  0.39829713369E+02  0.51316092689E+02  0.00000000000E+00 0. -1.
         21    1    1    2  503  502 -0.26552874598E+02  0.24185526889E+02  0.18743167004E+03  0.19084188689E+03  0.00000000000E+00 0. -1.
          1    1    1    2  501    0  0.29997182858E+02 -0.12449170147E+02  0.74720244323E+02  0.81473478681E+02  0.00000000000E+00 0. -1.
<scales pt_clust_5="13000.00000" pt_clust_6="13000.00000" pt_clust_7="13000.00000" pt_clust_8="13000.00000" pt_clust_9="32.13345" pt_clust_10="32.47788"></scales>
<clustering>
<clus scale="   32.478">  2 10  1 -1</clus>
<clus scale="   32.133">  2  9  1 -1</clus>
<clus scale="   85.345">  5  6 -1 -1</clus>
<clus scale="   90.656">  7  8 -1 -1</clus>
<clus scale="   91.757">  1  5  2 -1</clus>
<clus scale="   32.478">  2  5  1 -1</clus>
</clustering>
</event>
<event>
10    4  0.3738096E-005  0.4788273E+03  0.7546771E-02  0.1074367E+00
          2   -1    0    0  502    0 -0.00000000000E+00  0.00000000000E+00  0.13596128078E+04  0.13596128078E+04  0.00000000000E+00 0. -1.
         21   -1    0    0  503  502  0.00000000000E+00 -0.00000000000E+00 -0.24774638348E+03  0.24774638348E+03  0.00000000000E+00 0. -1.
         24    2    1    2    0    0 -0.83939627937E+01 -0.55184112785E+02  0.88858004095E+02  0.13295586253E+03  0.81644176611E+02 0.  0.
         23    2    1    2    0    0  0.37466719347E+03 -0.27120043664E+03  0.20021022127E+03  0.51221278306E+03  0.91392667856E+02 0.  0.
        -13    1    3    3    0    0 -0.90173006927E+01 -0.76606531887E+02  0.73882886593E+02  0.10681082984E+03  0.00000000000E+00 0.  1.
         14    1    3    3    0    0  0.62333789904E+00  0.21422419102E+02  0.14975117503E+02  0.26145032693E+02  0.00000000000E+00 0. -1.
        -13    1    4    4    0    0  0.76890244715E+02 -0.10532695242E+03  0.62071436896E+02  0.14442555147E+03  0.00000000000E+00 0.  1.
         13    1    4    4    0    0  0.29777694875E+03 -0.16587348421E+03  0.13813878438E+03  0.36778723159E+03  0.00000000000E+00 0. -1.
         21    1    1    2  503  501 -0.25228396054E+01  0.23363407482E+02  0.59745943106E+02  0.64201177921E+02  0.00000000000E+00 0. -1.
          1    1    1    2  501    0 -0.36375039107E+03  0.30302114194E+03  0.76305225586E+03  0.89798936778E+03  0.00000000000E+00 0. -1.
<scales pt_clust_5="13000.00000" pt_clust_6="13000.00000" pt_clust_7="13000.00000" pt_clust_8="13000.00000" pt_clust_9="20.08935" pt_clust_10="478.59587"></scales>
<clustering>
<clus scale="   20.089">  9 10 -1 -1</clus>
<clus scale="   81.644">  5  6 -1 -1</clus>
<clus scale="   91.393">  7  8 -1 -1</clus>
<clus scale="   98.902">  1  5  2 -1</clus>
<clus scale="  478.596">  2  9  1 -1</clus>
<clus scale="  478.596">  2  5  1 -1</clus>
</clustering>
</event>
<event>
10    4  0.3760424E-005  0.2104330E+03  0.7546771E-02  0.1182628E+00
         21   -1    0    0  501  502  0.00000000000E+00  0.00000000000E+00  0.21324111971E+03  0.21324111971E+03  0.00000000000E+00 0. -1.
          2   -1    0    0  503    0 -0.00000000000E+00 -0.00000000000E+00 -0.68177942662E+03  0.68177942662E+03  0.00000000000E+00 0. -1.
         24    2    1    2    0    0  0.16448851882E+01 -0.43415571273E+01 -0.34941037137E+03  0.35838974488E+03  0.79586725321E+02 0.  0.
         23    2    1    2    0    0 -0.55644897689E+02 -0.18042451035E+03  0.95006218511E+02  0.23159284054E+03  0.94655711180E+02 0.  0.
        -11    1    3    3    0    0 -0.11383497177E+02  0.35772102183E+02 -0.16674008485E+03  0.17091367177E+03  0.00000000000E+00 0.  1.
         12    1    3    3    0    0  0.13028382365E+02 -0.40113659310E+02 -0.18267028651E+03  0.18747607310E+03  0.00000000000E+00 0. -1.
        -13    1    4    4    0    0 -0.23202985592E+02  0.41634007847E+01  0.14009422836E+02  0.27422187634E+02  0.00000000000E+00 0.  1.
         13    1    4    4    0    0 -0.32441912097E+02 -0.18458791113E+03  0.80996795675E+02  0.20417065290E+03  0.00000000000E+00 0. -1.
         21    1    1    2  503  502 -0.23209597080E+02  0.15059713763E+02 -0.47553946195E+02  0.55016889897E+02  0.00000000000E+00 0.  1.
          1    1    1    2  501    0  0.77209609581E+02  0.16970635371E+03 -0.16658020787E+03  0.25002107102E+03  0.00000000000E+00 0. -1.
<scales pt_clust_5="13000.00000" pt_clust_6="13000.00000" pt_clust_7="13000.00000" pt_clust_8="13000.00000" pt_clust_9="27.66732" pt_clust_10="187.94244"></scales>
<clustering>
<clus scale="   27.667">  2  9  1 -1</clus>
<clus scale="   79.587">  5  6 -1 -1</clus>
<clus scale="   80.502">  2  5  1 -1</clus>
<clus scale="   94.656">  7  8 -1 -1</clus>
<clus scale="  187.942">  1 10  2 -1</clus>
<clus scale="  187.942">  1  5  2 -1</clus>
</clustering>
</event>
<event>
10    4  0.3738096E-005  0.2663207E+03  0.7546771E-02  0.1103429E+00
         21   -1    0    0  501  502  0.00000000000E+00  0.00000000000E+00  0.16682154280E+03  0.16682154280E+03  0.00000000000E+00 0. -1.
          2   -1    0    0  503    0 -0.00000000000E+00 -0.00000000000E+00 -0.12971951644E+04  0.12971951644E+04  0.00000000000E+00 0. -1.
         24    2    1    2    0    0  0.17425899423E+03 -0.11306130410E+03 -0.22728598938E+03  0.31824257937E+03  0.80438565353E+02 0.  0.
         23    2    1    2    0    0 -0.24311454222E+03  0.23139009292E+03 -0.19848779176E+03  0.39825116275E+03  0.80997095111E+02 0.  0.
        -11    1    3    3    0    0  0.99567183630E+02 -0.31050437746E+02 -0.69366594444E+02  0.12525764713E+03  0.00000000000E+00 0.  1.
         12    1    3    3    0    0  0.74691810599E+02 -0.82010866355E+02 -0.15791939494E+03  0.19298493223E+03  0.00000000000E+00 0. -1.
        -11    1    4    4    0    0 -0.57978745727E+02  0.22910443929E+02 -0.61607625314E+02  0.87646579476E+02  0.00000000000E+00 0.  1.
         11    1    4    4    0    0 -0.18513579649E+03  0.20847964899E+03 -0.13688016645E+03  0.31060458328E+03  0.00000000000E+00 0. -1.
         21    1    1    2  503  502 -0.48028037666E+02 -0.96065625222E+02 -0.49488365273E+03  0.50640411382E+03  0.00000000000E+00 0. -1.
          1    1    1    2  501    0  0.11688358565E+03 -0.22263163596E+02 -0.20971618775E+03  0.24111885131E+03  0.00000000000E+00 0. -1.
<scales pt_clust_5="13000.00000" pt_clust_6="13000.00000" pt_clust_7="13000.00000" pt_clust_8="13000.00000" pt_clust_9="107.40250" pt_clust_10="114.51837"></scales>
<clustering>
<clus scale="   80.439">  5  6 -1 -1</clus>
<clus scale="   80.997">  7  8 -1 -1</clus>
<clus scale="  107.402">  2  9  1 -1</clus>
<clus scale="  114.518">  1 10  2 -1</clus>
<clus scale="  266.151">  2  5  1 -1</clus>
<clus scale="  114.518">  1  5  2 -1</clus>
</clustering>
</event>
<event>
10    4  0.3738096E-005  0.1026477E+03  0.7546771E-02  0.1290708E+00
         21   -1    0    0  501  502  0.00000000000E+00  0.00000000000E+00  0.76104276747E+02  0.76104276747E+02  0.00000000000E+00 0. -1.
          2   -1    0    0  503    0 -0.00000000000E+00 -0.00000000000E+00 -0.26808630106E+03  0.26808630106E+03  0.00000000000E+00 0. -1.
         23    2    1    2    0    0 -0.21050894484E+02 -0.64788968365E+02 -0.16311839919E+03  0.19805511154E+03  0.89316652830E+02 0.  0.
         24    2    1    2    0    0  0.22699198314E+02  0.17576140878E+02  0.20323346345E+02  0.66705553506E+02  0.56678198010E+02 0.  0.
        -13    1    4    4    0    0 -0.11129764352E+02  0.25627234533E+02  0.37703397169E+01  0.28192947095E+02  0.00000000000E+00 0.  1.
         14    1    4    4    0    0  0.33828962666E+02 -0.80510936547E+01  0.16553006629E+02  0.38512606411E+02  0.00000000000E+00 0. -1.
        -11    1    3    3    0    0  0.17302576800E+02 -0.71066600786E+02 -0.99214160737E+02  0.12326106685E+03  0.00000000000E+00 0. -1.
         11    1    3    3    0    0 -0.38353471284E+02  0.62776324210E+01 -0.63904238456E+02  0.74794044690E+02  0.00000000000E+00 0.  1.
         21    1    1    2  503  502 -0.20544171035E+02  0.20507467549E+02 -0.28755678406E+02  0.40859616118E+02  0.00000000000E+00 0. -1.
          1    1    1    2  501    0  0.18895867204E+02  0.26705359938E+02 -0.20431293062E+02  0.38570296642E+02  0.00000000000E+00 0. -1.
<scales pt_clust_5="13000.00000" pt_clust_6="13000.00000" pt_clust_7="13000.00000" pt_clust_8="13000.00000" pt_clust_9="29.02790" pt_clust_10="33.52666"></scales>
<clustering>
<clus scale="   29.028">  2  9  1 -1</clus>
<clus scale="   33.527">  1 10  2 -1</clus>
<clus scale="   56.678">  5  6 -1 -1</clus>
<clus scale="   75.970">  1  5  2 -1</clus>
<clus scale="   89.317">  7  8 -1 -1</clus>
<clus scale="   33.527">  1  5  2 -1</clus>
</clustering>
</event>
<event>
10    4  0.3738096E-005  0.1430914E+03  0.7546771E-02  0.1227359E+00
         21   -1    0    0  501  502  0.00000000000E+00  0.00000000000E+00  0.11047970833E+03  0.11047970833E+03  0.00000000000E+00 0. -1.
          2   -1    0    0  503    0 -0.00000000000E+00 -0.00000000000E+00 -0.65687039681E+03  0.65687039681E+03  0.00000000000E+00 0. -1.
         23    2    1    2    0    0 -0.65631304165E+02 -0.97329814104E+02 -0.33118849888E+03  0.36311209015E+03  0.91564225665E+02 0.  0.
         24    2    1    2    0    0  0.18374530072E+02  0.19113361268E+02  0.28721995394E+02  0.90896993189E+02  0.82063185516E+02 0.  0.
        -11    1    4    4    0    0  0.98698647764E+01  0.43838338541E+02 -0.81766204719E+01  0.45673529304E+02  0.00000000000E+00 0.  1.
         12    1    4    4    0    0  0.85046652954E+01 -0.24724977273E+02  0.36898615866E+02  0.45223463885E+02  0.00000000000E+00 0. -1.
        -13    1    3    3    0    0 -0.29809363571E+02 -0.10752198156E+03 -0.25257120616E+03  0.27611915699E+03  0.00000000000E+00 0. -1.
         13    1    3    3    0    0 -0.35821940594E+02  0.10192167453E+02 -0.78617292720E+02  0.86992933161E+02  0.00000000000E+00 0.  1.
         21    1    1    2  503  502  0.11147553615E+03  0.32784014418E+02 -0.16589501182E+03  0.20254071618E+03  0.00000000000E+00 0.  1.
          1    1    1    2  501    0 -0.64218762060E+02  0.45432438417E+02 -0.78029173171E+02  0.11080030563E+03  0.00000000000E+00 0. -1.
<scales pt_clust_5="13000.00000" pt_clust_6="13000.00000" pt_clust_7="13000.00000" pt_clust_8="13000.00000" pt_clust_9="109.95975" pt_clust_10="78.66483"></scales>
<clustering>
<clus scale="   78.665">  1 10  2 -1</clus>
<clus scale="   82.063">  5  6 -1 -1</clus>
<clus scale="   91.564">  7  8 -1 -1</clus>
<clus scale="   97.680">  1  5  2 -1</clus>
<clus scale="  109.960">  1  9  2 -1</clus>
<clus scale="   78.665">  1  5  2 -1</clus>
</clustering>
</event>
<event>
10    4  0.3738096E-005  0.1389762E+03  0.7546771E-02  0.1218044E+00
          4   -1    0    0  503    0 -0.00000000000E+00  0.00000000000E+00  0.26632033474E+03  0.26632033474E+03  0.00000000000E+00 0. -1.
         21   -1    0    0  501  502  0.00000000000E+00 -0.00000000000E+00 -0.17970498004E+03  0.17970498004E+03  0.00000000000E+00 0. -1.
         24    2    1    2    0    0  0.11921253717E+03 -0.26096983779E+02  0.47279049031E+02  0.15317868368E+03  0.79597230341E+02 0.  0.
         23    2    1    2    0    0 -0.75088523901E+02  0.27586171863E+02 -0.39446818439E+02  0.12971685817E+03  0.94186668426E+02 0.  0.
        -11    1    3    3    0    0  0.20582754581E+02  0.92367295401E+01 -0.18754033455E+02  0.29337360645E+02  0.00000000000E+00 0.  1.
         12    1    3    3    0    0  0.98629782586E+02 -0.35333713319E+02  0.66033082486E+02  0.12384132304E+03  0.00000000000E+00 0. -1.
        -11    1    4    4    0    0  0.21819896050E+01  0.42491785291E+02 -0.26051727024E+02  0.49889932619E+02  0.00000000000E+00 0. -1.
         11    1    4    4    0    0 -0.77270513506E+02 -0.14905613428E+02 -0.13395091415E+02  0.79826925552E+02  0.00000000000E+00 0.  1.
         21    1    1    2  503  502 -0.20857408141E+02 -0.18399360651E+02  0.11418090355E+03  0.11751955872E+03  0.00000000000E+00 0. -1.
          3    1    1    2  501    0 -0.23266605125E+02  0.16910172567E+02 -0.35397779445E+02  0.45610214206E+02  0.00000000000E+00 0. -1.
<scales pt_clust_5="13000.00000" pt_clust_6="13000.00000" pt_clust_7="13000.00000" pt_clust_8="13000.00000" pt_clust_9="27.81309" pt_clust_10="28.98273"></scales>
<clustering>
<clus scale="   27.813">  1  9  2 -1</clus>
<clus scale="   28.983">  2 10  1 -1</clus>
<clus scale="   79.597">  5  6 -1 -1</clus>
<clus scale="   94.187">  7  8 -1 -1</clus>
<clus scale="  129.534">  1  5  2 -1</clus>
<clus scale="   28.983">  2  5  1 -1</clus>
</clustering>
</event>
<event>
10    4  0.3738096E-005  0.9506733E+02  0.7546771E-02  0.1296993E+00
          2   -1    0    0  503    0 -0.00000000000E+00  0.00000000000E+00  0.40799838796E+03  0.40799838796E+03  0.00000000000E+00 0. -1.
         21   -1    0    0  501  502  0.00000000000E+00 -0.00000000000E+00 -0.22961480923E+03  0.22961480923E+03  0.00000000000E+00 0. -1.
         24    2    1    2    0    0  0.56086203324E+01  0.52523828205E+01  0.28169154739E+03  0.29307715614E+03  0.80529792215E+02 0.  0.
         23    2    1    2    0    0  0.68481051659E+02  0.59286230514E+02 -0.33402061121E+02  0.13268653681E+03  0.91024764755E+02 0.  0.
        -13    1    3    3    0    0 -0.33698822424E+02  0.11855234637E+02  0.81952400916E+02  0.89399962175E+02  0.00000000000E+00 0.  1.
         14    1    3    3    0    0  0.39307442756E+02 -0.66028518162E+01  0.19973914647E+03  0.20367719397E+03  0.00000000000E+00 0. -1.
        -11    1    4    4    0    0  0.75087068777E+01  0.64947101453E+02 -0.61716348454E+01  0.65670356652E+02  0.00000000000E+00 0.  1.
         11    1    4    4    0    0  0.60972344782E+02 -0.56608709386E+01 -0.27230426276E+02  0.67016180159E+02  0.00000000000E+00 0. -1.
         21    1    1    2  503  502 -0.33882976775E+02  0.77755490526E+01  0.53182619269E+02  0.63536652969E+02  0.00000000000E+00 0. -1.
          1    1    1    2  501    0 -0.40206695217E+02 -0.72314162387E+02 -0.12308852681E+03  0.14831285128E+03  0.00000000000E+00 0. -1.
<scales pt_clust_5="13000.00000" pt_clust_6="13000.00000" pt_clust_7="13000.00000" pt_clust_8="13000.00000" pt_clust_9="34.76371" pt_clust_10="83.09758"></scales>
<clustering>
<clus scale="   34.764">  1  9  2 -1</clus>
<clus scale="   80.530">  5  6 -1 -1</clus>
<clus scale="   83.098">  2 10  1 -1</clus>
<clus scale="   85.073">  1  5  2 -1</clus>
<clus scale="   91.025">  7  8 -1 -1</clus>
<clus scale="   83.098">  2  5  1 -1</clus>
</clustering>
</event>
<event>
10    4  0.3738096E-005  0.1476409E+03  0.7546771E-02  0.1235275E+00
         21   -1    0    0  503  502  0.00000000000E+00  0.00000000000E+00  0.93555480004E+03  0.93555480004E+03  0.00000000000E+00 0. -1.
         -1   -1    0    0    0  501 -0.00000000000E+00 -0.00000000000E+00 -0.59238700735E+02  0.59238700735E+02  0.00000000000E+00 0.  1.
         24    2    1    2    0    0 -0.34195875818E+01 -0.73653021048E+01  0.55467233618E+02  0.94049545233E+02  0.75516631936E+02 0.  0.
         23    2    1    2    0    0  0.10418735136E+03 -0.54135936921E+02  0.71400172122E+03  0.72926666876E+03  0.90805905165E+02 0.  0.
        -11    1    3    3    0    0 -0.38601335308E+02  0.33607840389E+01  0.23486811883E+02  0.45309913809E+02  0.00000000000E+00 0.  1.
         12    1    3    3    0    0  0.35181747726E+02 -0.10726086144E+02  0.31980421735E+02  0.48739631424E+02  0.00000000000E+00 0. -1.
        -13    1    4    4    0    0  0.31664634759E+02  0.25501429268E+02  0.20519981079E+03  0.20918875289E+03  0.00000000000E+00 0. -1.
         13    1    4    4    0    0  0.72522716606E+02 -0.79637366189E+02  0.50880191043E+03  0.52007791587E+03  0.00000000000E+00 0.  1.
         21    1    1    2  503  501  0.43296243461E+01  0.19656381597E+02  0.23651516492E+02  0.31056613093E+02  0.00000000000E+00 0.  1.
         -2    1    1    2    0  502 -0.10509738813E+03  0.41844857429E+02  0.83195627980E+02  0.14042067369E+03  0.00000000000E+00 0.  1.
<scales pt_clust_5="13000.00000" pt_clust_6="13000.00000" pt_clust_7="13000.00000" pt_clust_8="13000.00000" pt_clust_9="20.12757" pt_clust_10="116.41370"></scales>
<clustering>
<clus scale="   20.128">  2  9  1 -1</clus>
<clus scale="   75.517">  5  6 -1 -1</clus>
<clus scale="   75.543">  2  5  1 -1</clus>
<clus scale="   90.806">  7  8 -1 -1</clus>
<clus scale="  116.414">  1 10  2 -1</clus>
<clus scale="  116.414">  1  5  2 -1</clus>
</clustering>
</event>
<event>
10    4  0.3738096E-005  0.1289174E+03  0.7546771E-02  0.1230048E+00
          2   -1    0    0  503    0 -0.00000000000E+00  0.00000000000E+00  0.94791182222E+03  0.94791182222E+03  0.00000000000E+00 0. -1.
         21   -1    0    0  501  502  0.00000000000E+00 -0.00000000000E+00 -0.15699469686E+03  0.15699469686E+03  0.00000000000E+00 0. -1.
         24    2    1    2    0    0 -0.40149175176E+02 -0.10454008590E+03  0.45659718553E+03  0.47962359669E+03  0.94959037733E+02 0.  0.
         23    2    1    2    0    0 -0.26419766165E+02  0.74667631710E+02  0.94085579673E+02  0.15324849721E+03  0.91431648374E+02 0.  0.
        -11    1    3    3    0    0 -0.17562686288E+02 -0.67825525019E+02  0.11041363589E+03  0.13076666542E+03  0.00000000000E+00 0.  1.
         12    1    3    3    0    0 -0.22586488888E+02 -0.36714560879E+02  0.34618354964E+03  0.34885693128E+03  0.00000000000E+00 0. -1.
        -13    1    4    4    0    0 -0.25058141221E+02  0.36084051516E+02 -0.75062015206E+01  0.44568063415E+02  0.00000000000E+00 0. -1.
         13    1    4    4    0    0 -0.13616249439E+01  0.38583580193E+02  0.10159178119E+03  0.10868043379E+03  0.00000000000E+00 0.  1.
         21    1    1    2  503  502 -0.49267071722E+02  0.43737799547E+02  0.32257909148E+03  0.32923777081E+03  0.00000000000E+00 0. -1.
          1    1    1    2  501    0  0.11583601306E+03 -0.13865345359E+02 -0.82344731317E+02  0.14279665437E+03  0.00000000000E+00 0. -1.
<scales pt_clust_5="13000.00000" pt_clust_6="13000.00000" pt_clust_7="13000.00000" pt_clust_8="13000.00000" pt_clust_9="65.88049" pt_clust_10="114.04776"></scales>
<clustering>
<clus scale="   65.880">  1  9  2 -1</clus>
<clus scale="   91.432">  7  8 -1 -1</clus>
<clus scale="   94.959">  5  6 -1 -1</clus>
<clus scale="  114.048">  2 10  1 -1</clus>
<clus scale="  126.342">  2  7  1 -1</clus>
<clus scale="  114.048">  2  5  1 -1</clus>
</clustering>
</event>
<event>
10    4  0.3738096E-005  0.1569013E+03  0.7546771E-02  0.1214602E+00
          2   -1    0    0  503    0 -0.00000000000E+00  0.00000000000E+00  0.22838104950E+03  0.22838104950E+03  0.00000000000E+00 0. -1.
         21   -1    0    0  501  502  0.00000000000E+00 -0.00000000000E+00 -0.66960192445E+03  0.66960192445E+03  0.00000000000E+00 0.  1.
         23    2    1    2    0    0  0.29764974963E+02  0.18294257601E+02 -0.14101860231E+03  0.17029430937E+03  0.88844088212E+02 0.  0.
         24    2    1    2    0    0 -0.62477070006E+02  0.11575755394E+03 -0.38541110597E+03  0.41520930013E+03  0.80955832027E+02 0.  0.
        -11    1    4    4    0    0 -0.31351565088E+02  0.11424196544E+03 -0.34071166183E+03  0.36071953622E+03  0.00000000000E+00 0.  1.
         12    1    4    4    0    0 -0.31125504918E+02  0.15155884990E+01 -0.44699444136E+02  0.54489763910E+02  0.00000000000E+00 0. -1.
        -11    1    3    3    0    0  0.58921781379E+02  0.91798503780E+01 -0.64189101313E+02  0.87614420623E+02  0.00000000000E+00 0. -1.
         11    1    3    3    0    0 -0.29156806416E+02  0.91144072232E+01 -0.76829501001E+02  0.82679888749E+02  0.00000000000E+00 0.  1.
         21    1    1    2  503  502  0.12569700118E+02  0.16141374560E+02  0.14730021651E+03  0.14871413893E+03  0.00000000000E+00 0. -1.
          1    1    1    2  501    0  0.20142394924E+02 -0.15019318610E+03 -0.62091383173E+02  0.16376522552E+03  0.00000000000E+00 0. -1.
<scales pt_clust_5="13000.00000" pt_clust_6="13000.00000" pt_clust_7="13000.00000" pt_clust_8="13000.00000" pt_clust_9="20.45828" pt_clust_10="134.40305"></scales>
<clustering>
<clus scale="   20.458">  1  9  2 -1</clus>
<clus scale="   80.956">  5  6 -1 -1</clus>
<clus scale="   88.844">  7  8 -1 -1</clus>
<clus scale="   96.807">  1  7  2 -1</clus>
<clus scale="  134.403">  2 10  1 -1</clus>
<clus scale="  134.403">  2  5  1 -1</clus>
</clustering>
</event>
<event>
10    4  0.3738096E-005  0.2809024E+03  0.7546771E-02  0.1095197E+00
          4   -1    0    0  503    0 -0.00000000000E+00  0.00000000000E+00  0.30935344661E+03  0.30935344661E+03  0.00000000000E+00 0. -1.
         21   -1    0    0  501  502  0.00000000000E+00 -0.00000000000E+00 -0.30736134208E+03  0.30736134208E+03  0.00000000000E+00 0. -1.
         24    2    1    2    0    0  0.11397858859E+03 -0.12683515836E+03  0.11966160294E+03  0.22330874534E+03  0.80433950993E+02 0.  0.
         23    2    1    2    0    0 -0.24360281504E+01 -0.29835637378E+02  0.24485405335E+02  0.97243638843E+02  0.89222702997E+02 0.  0.
        -13    1    3    3    0    0 -0.83939466899E+01 -0.30652821735E+02  0.29888328669E+02  0.43627583155E+02  0.00000000000E+00 0.  1.
         14    1    3    3    0    0  0.12237253528E+03 -0.96182336624E+02  0.89773274275E+02  0.17968116218E+03  0.00000000000E+00 0. -1.
        -13    1    4    4    0    0  0.17763041767E+02 -0.21892489200E+02 -0.28436980102E+02  0.40043333696E+02  0.00000000000E+00 0.  1.
         13    1    4    4    0    0 -0.20199069917E+02 -0.79431481786E+01  0.52922385437E+02  0.57200305147E+02  0.00000000000E+00 0. -1.
         21    1    1    2  503  502 -0.10948376812E+03  0.13656101212E+03 -0.24444711615E+02  0.17672902828E+03  0.00000000000E+00 0.  1.
          3    1    1    2  501    0 -0.20587923202E+01  0.20109783618E+02 -0.11771019214E+03  0.11943337623E+03  0.00000000000E+00 0. -1.
<scales pt_clust_5="13000.00000" pt_clust_6="13000.00000" pt_clust_7="13000.00000" pt_clust_8="13000.00000" pt_clust_9="184.16883" pt_clust_10="20.21490"></scales>
<clustering>
<clus scale="   20.215">  2 10  1 -1</clus>
<clus scale="   80.434">  5  6 -1 -1</clus>
<clus scale="   89.223">  7  8 -1 -1</clus>
<clus scale="   92.345">  5  7 -1 -1</clus>
<clus scale="  184.169">  2  9  1 -1</clus>
<clus scale="   20.215">  2  5  1 -1</clus>
</clustering>
</event>
<event>
10    4  0.3738096E-005  0.9045370E+02  0.7546771E-02  0.1307353E+00
         -1   -1    0    0    0  501 -0.00000000000E+00  0.00000000000E+00  0.25390448884E+03  0.25390448884E+03  0.00000000000E+00 0.  1.
         21   -1    0    0  503  502  0.00000000000E+00 -0.00000000000E+00 -0.12237802843E+03  0.12237802843E+03  0.00000000000E+00 0. -1.
         23    2    1    2    0    0 -0.13616760727E+02 -0.70764940746E+01  0.16072789828E+03  0.18505607227E+03  0.90425658178E+02 0.  0.
         24    2    1    2    0    0 -0.38749000989E+02 -0.20177348007E+02  0.75203001054E+01  0.92877556357E+02  0.81615409763E+02 0.  0.
        -13    1    4    4    0    0 -0.22905661208E+02 -0.51285189218E+02 -0.34793488780E+01  0.56275623649E+02  0.00000000000E+00 0.  1.
         14    1    4    4    0    0 -0.15843339781E+02  0.31107841210E+02  0.10999648983E+02  0.36601932708E+02  0.00000000000E+00 0. -1.
        -11    1    3    3    0    0 -0.43181617894E+02 -0.31386136554E+02  0.90298661985E+02  0.10489799830E+03  0.00000000000E+00 0. -1.
         11    1    3    3    0    0  0.29564857167E+02  0.24309642479E+02  0.70429236298E+02  0.80158073968E+02  0.00000000000E+00 0.  1.
         21    1    1    2  503  501  0.26335513121E+02  0.23185078444E+02  0.16643456236E+02  0.38834414496E+02  0.00000000000E+00 0. -1.
         -2    1    1    2    0  502  0.26030248595E+02  0.40687636380E+01 -0.53365194216E+02  0.59514474149E+02  0.00000000000E+00 0.  1.
<scales pt_clust_5="13000.00000" pt_clust_6="13000.00000" pt_clust_7="13000.00000" pt_clust_8="13000.00000" pt_clust_9="38.90007" pt_clust_10="26.34632"></scales>
<clustering>
<clus scale="   26.346">  2 10  1 -1</clus>
<clus scale="   38.900">  2  9  1 -1</clus>
<clus scale="   81.615">  5  6 -1 -1</clus>
<clus scale="   81.646">  2  5  1 -1</clus>
<clus scale="   90.426">  7  8 -1 -1</clus>
<clus scale="   26.346">  2  5  1 -1</clus>
</clustering>
</event>
<event>
10    4  0.3738096E-005  0.3032452E+03  0.7546771E-02  0.1112002E+00
         21   -1    0    0  501  502  0.00000000000E+00  0.00000000000E+00  0.16832391660E+03  0.16832391660E+03  0.00000000000E+00 0.  1.
          2   -1    0    0  503    0 -0.00000000000E+00 -0.00000000000E+00 -0.21046522690E+04  0.21046522690E+04  0.00000000000E+00 0. -1.
         24    2    1    2    0    0 -0.51990310593E+02 -0.93656475011E+02 -0.60555851736E+03  0.61966809086E+03  0.76242358093E+02 0.  0.
         23    2    1    2    0    0 -0.25852680768E+03  0.10683695244E+03 -0.50693544855E+02  0.29909272293E+03  0.92932108144E+02 0.  0.
        -13    1    3    3    0    0 -0.22877797249E+02 -0.99154709759E+02 -0.47859935352E+03  0.48929785537E+03  0.00000000000E+00 0.  1.
         14    1    3    3    0    0 -0.29112513344E+02  0.54982347472E+01 -0.12695916384E+03  0.13037023549E+03  0.00000000000E+00 0. -1.
        -11    1    4    4    0    0 -0.20775138502E+03  0.89361079903E+02 -0.13397516621E+01  0.22615887229E+03  0.00000000000E+00 0.  1.
         11    1    4    4    0    0 -0.50775422659E+02  0.17475872533E+02 -0.49353793192E+02  0.72933850642E+02  0.00000000000E+00 0. -1.
         21    1    1    2  503  502 -0.49863948813E+02 -0.21465931504E+02 -0.39240612422E+03  0.39614361781E+03  0.00000000000E+00 0. -1.
          1    1    1    2  501    0  0.36038106709E+03  0.82854540794E+01 -0.88767016601E+03  0.95807175404E+03  0.00000000000E+00 0. -1.
<scales pt_clust_5="13000.00000" pt_clust_6="13000.00000" pt_clust_7="13000.00000" pt_clust_8="13000.00000" pt_clust_9="54.28812" pt_clust_10="288.65440"></scales>
<clustering>
<clus scale="   54.288">  2  9  1 -1</clus>
<clus scale="   76.242">  5  6 -1 -1</clus>
<clus scale="   92.932">  7  8 -1 -1</clus>
<clus scale="  144.785">  2  5  1 -1</clus>
<clus scale="  288.654">  1 10  2 -1</clus>
<clus scale="  288.654">  1  5  2 -1</clus>
</clustering>
</event>
<event>
10    4  0.3738096E-005  0.2686583E+03  0.7546771E-02  0.1102414E+00
          2   -1    0    0  503    0 -0.00000000000E+00  0.00000000000E+00  0.63337691666E+03  0.63337691666E+03  0.00000000000E+00 0. -1.
         21   -1    0    0  501  502  0.00000000000E+00 -0.00000000000E+00 -0.27011202116E+03  0.27011202116E+03  0.00000000000E+00 0. -1.
         23    2    1    2    0    0 -0.74636288564E+02  0.17285980139E+03  0.93993429211E+02  0.22874331070E+03  0.89652947236E+02 0.  0.
         24    2    1    2    0    0  0.18201177375E+03 -0.29940859110E+03  0.21228412725E+03  0.41776724464E+03  0.81799326411E+02 0.  0.
        -13    1    4    4    0    0  0.11014236557E+03 -0.11884653397E+03  0.12538700024E+03  0.20488469723E+03  0.00000000000E+00 0.  1.
         14    1    4    4    0    0  0.71869408183E+02 -0.18056205714E+03  0.86897127009E+02  0.21288254741E+03  0.00000000000E+00 0. -1.
        -11    1    3    3    0    0 -0.43114487984E+01  0.54155573049E+02  0.70149134410E+02  0.88726071374E+02  0.00000000000E+00 0. -1.
         11    1    3    3    0    0 -0.70324839765E+02  0.11870422834E+03  0.23844294802E+02  0.14001723932E+03  0.00000000000E+00 0.  1.
         21    1    1    2  503  502  0.51390056389E+02  0.20548157139E+02  0.33359620143E+02  0.64622201398E+02  0.00000000000E+00 0. -1.
          1    1    1    2  501    0 -0.15876554158E+03  0.10600063258E+03  0.23627718897E+02  0.19235618108E+03  0.00000000000E+00 0. -1.
<scales pt_clust_5="13000.00000" pt_clust_6="13000.00000" pt_clust_7="13000.00000" pt_clust_8="13000.00000" pt_clust_9="55.34586" pt_clust_10="185.30183"></scales>
<clustering>
<clus scale="   55.346">  1  9  2 -1</clus>
<clus scale="   81.799">  5  6 -1 -1</clus>
<clus scale="   89.653">  7  8 -1 -1</clus>
<clus scale="  185.302">  2 10  1 -1</clus>
<clus scale="  266.140">  2  5  1 -1</clus>
<clus scale="  185.302">  2  5  1 -1</clus>
</clustering>
</event>
<event>
10    4  0.3738096E-005  0.1572088E+03  0.7546771E-02  0.1195690E+00
         21   -1    0    0  503  502  0.00000000000E+00  0.00000000000E+00  0.74046997099E+03  0.74046997099E+03  0.00000000000E+00 0.  1.
         -1   -1    0    0    0  501 -0.00000000000E+00 -0.00000000000E+00 -0.95955374069E+02  0.95955374069E+02  0.00000000000E+00 0.  1.
         24    2    1    2    0    0  0.16609282205E+02  0.99358546336E+02  0.94285230686E+02  0.15925705374E+03  0.79530594452E+02 0.  0.
         23    2    1    2    0    0  0.70050894008E+02 -0.12605966046E+03  0.32361238994E+03  0.36830750503E+03  0.10063435591E+03 0.  0.
        -11    1    3    3    0    0 -0.62599324586E+01  0.82306625225E+02  0.28117312852E+02  0.87201780901E+02  0.00000000000E+00 0.  1.
         12    1    3    3    0    0  0.22869214664E+02  0.17051921111E+02  0.66167917833E+02  0.72055272835E+02  0.00000000000E+00 0. -1.
        -13    1    4    4    0    0  0.95000398005E+02 -0.10438824351E+03  0.28025955201E+03  0.31379515212E+03  0.00000000000E+00 0.  1.
         13    1    4    4    0    0 -0.24949503997E+02 -0.21671416958E+02  0.43352837940E+02  0.54512352913E+02  0.00000000000E+00 0. -1.
         21    1    1    2  503  501 -0.29402249459E+02  0.46550343734E+02 -0.17155068215E+02  0.57669083055E+02  0.00000000000E+00 0. -1.
         -2    1    1    2    0  502 -0.57257926755E+02 -0.19849229606E+02  0.24377204451E+03  0.25119170324E+03  0.00000000000E+00 0.  1.
<scales pt_clust_5="13000.00000" pt_clust_6="13000.00000" pt_clust_7="13000.00000" pt_clust_8="13000.00000" pt_clust_9="55.05839" pt_clust_10="61.48899"></scales>
<clustering>
<clus scale="   55.058">  2  9  1 -1</clus>
<clus scale="   61.489">  1 10  2 -1</clus>
<clus scale="   79.531">  5  6 -1 -1</clus>
<clus scale="  100.634">  7  8 -1 -1</clus>
<clus scale="  144.611">  2  5  1 -1</clus>
<clus scale="   61.489">  1  5  2 -1</clus>
</clustering>
</event>
<event>
10    4  0.3738096E-005  0.2281028E+03  0.7546771E-02  0.1130976E+00
         -3   -1    0    0    0  501 -0.00000000000E+00  0.00000000000E+00  0.14577407613E+03  0.14577407613E+03  0.00000000000E+00 0.  1.
         21   -1    0    0  503  502  0.00000000000E+00 -0.00000000000E+00 -0.85732647400E+03  0.85732647400E+03  0.00000000000E+00 0. -1.
         23    2    1    2    0    0 -0.20653498951E+03 -0.12894291109E+03 -0.20841290015E+03  0.34031901015E+03  0.11444699870E+03 0.  0.
         24    2    1    2    0    0  0.10442792172E+03  0.11997688865E+03 -0.23530104058E+03  0.29435088958E+03  0.77306027261E+02 0.  0.
        -11    1    4    4    0    0  0.45457972244E+02  0.10677569804E+03 -0.14553145475E+03  0.18613672731E+03  0.00000000000E+00 0.  1.
         12    1    4    4    0    0  0.58969949475E+02  0.13201190613E+02 -0.89769585832E+02  0.10821416227E+03  0.00000000000E+00 0. -1.
        -13    1    3    3    0    0 -0.98058730429E+02 -0.16424988344E+02 -0.31587413964E+02  0.10432190363E+03  0.00000000000E+00 0. -1.
         13    1    3    3    0    0 -0.10847625908E+03 -0.11251792275E+03 -0.17682548619E+03  0.23599710653E+03  0.00000000000E+00 0.  1.
         21    1    1    2  503  501  0.43448271886E+01  0.28288045759E+02  0.37539029722E+02  0.47204552838E+02  0.00000000000E+00 0.  1.
         -4    1    1    2    0  502  0.97762240599E+02 -0.19322023319E+02 -0.30537748686E+03  0.32122609756E+03  0.00000000000E+00 0.  1.
<scales pt_clust_5="13000.00000" pt_clust_6="13000.00000" pt_clust_7="13000.00000" pt_clust_8="13000.00000" pt_clust_9="28.61977" pt_clust_10="99.58381"></scales>
<clustering>
<clus scale="   28.620">  1  9  2 -1</clus>
<clus scale="   77.306">  5  6 -1 -1</clus>
<clus scale="   99.584">  2 10  1 -1</clus>
<clus scale="  114.447">  7  8 -1 -1</clus>
<clus scale="  211.917">  2  5  1 -1</clus>
<clus scale="   99.584">  2  5  1 -1</clus>
</clustering>
</event>
<event>
10    4  0.3738096E-005  0.2660346E+03  0.7546771E-02  0.1147220E+00
         21   -1    0    0  503  502  0.00000000000E+00  0.00000000000E+00  0.51042922308E+03  0.51042922308E+03  0.00000000000E+00 0.  1.
         -1   -1    0    0    0  501 -0.00000000000E+00 -0.00000000000E+00 -0.27206541506E+03  0.27206541506E+03  0.00000000000E+00 0.  1.
         24    2    1    2    0    0 -0.42851032859E+02 -0.11267468426E+02 -0.76832018573E+01  0.91953996950E+02  0.80208098734E+02 0.  0.
         23    2    1    2    0    0  0.11238722978E+03  0.23989836591E+03 -0.40432617213E+02  0.28395528180E+03  0.93881255538E+02 0.  0.
        -11    1    3    3    0    0 -0.29228947663E+02  0.33624482440E+02 -0.97239152424E+00  0.44563244340E+02  0.00000000000E+00 0.  1.
         12    1    3    3    0    0 -0.13622085196E+02 -0.44891950866E+02 -0.67108103331E+01  0.47390752610E+02  0.00000000000E+00 0. -1.
        -11    1    4    4    0    0  0.79091592333E+02  0.23418730466E+03 -0.37994912055E+02  0.25008555933E+03  0.00000000000E+00 0.  1.
         11    1    4    4    0    0  0.33295637445E+02  0.57110612459E+01 -0.24377051579E+01  0.33869722465E+02  0.00000000000E+00 0. -1.
         21    1    1    2  503  501  0.35048127467E+02  0.81103153790E+00  0.23228384594E+02  0.42054570049E+02  0.00000000000E+00 0.  1.
         -2    1    1    2    0  502 -0.10458432439E+03 -0.22944192902E+03  0.26325124250E+03  0.36453078934E+03  0.00000000000E+00 0.  1.
<scales pt_clust_5="13000.00000" pt_clust_6="13000.00000" pt_clust_7="13000.00000" pt_clust_8="13000.00000" pt_clust_9="35.05751" pt_clust_10="248.91914"></scales>
<clustering>
<clus scale="   35.058">  1  9  2 -1</clus>
<clus scale="   80.208">  5  6 -1 -1</clus>
<clus scale="   90.220">  2  5  1 -1</clus>
<clus scale="   93.881">  7  8 -1 -1</clus>
<clus scale="  248.919">  1 10  2 -1</clus>
<clus scale="   35.058">  1  5  2 -1</clus>
</clustering>
</event>
<event>
10    4  0.3738096E-005  0.2449225E+03  0.7546771E-02  0.1153192E+00
         21   -1    0    0  501  502  0.00000000000E+00  0.00000000000E+00  0.10924744258E+03  0.10924744258E+03  0.00000000000E+00 0. -1.
          2   -1    0    0  503    0 -0.00000000000E+00 -0.00000000000E+00 -0.13744490000E+04  0.13744490000E+04  0.00000000000E+00 0. -1.
         24    2    1    2    0    0 -0.35164001862E+02 -0.55032489412E+02 -0.46963988458E+03  0.48045841559E+03  0.77547314596E+02 0.  0.
         23    2    1    2    0    0 -0.58757996263E+02  0.24965251953E+03 -0.64616799577E+03  0.70109178184E+03  0.90651669435E+02 0.  0.
        -13    1    3    3    0    0  0.12613419673E+02 -0.51688491162E+02 -0.26503693762E+03  0.27032457672E+03  0.00000000000E+00 0.  1.
         14    1    3    3    0    0 -0.47777421536E+02 -0.33439982505E+01 -0.20460294696E+03  0.21013383887E+03  0.00000000000E+00 0. -1.
        -11    1    4    4    0    0  0.69982021015E+01  0.14854486159E+03 -0.40516790959E+03  0.43159655432E+03  0.00000000000E+00 0. -1.
         11    1    4    4    0    0 -0.65756198365E+02  0.10110765794E+03 -0.24100008617E+03  0.26949522752E+03  0.00000000000E+00 0.  1.
         21    1    1    2  503  502  0.71886964990E+02 -0.21253937815E+03 -0.15564114931E+03  0.27306572535E+03  0.00000000000E+00 0. -1.
          1    1    1    2  501    0  0.22035033135E+02  0.17919348032E+02  0.62474722845E+01  0.29080519753E+02  0.00000000000E+00 0. -1.
<scales pt_clust_5="13000.00000" pt_clust_6="13000.00000" pt_clust_7="13000.00000" pt_clust_8="13000.00000" pt_clust_9="227.52865" pt_clust_10="28.40151"></scales>
<clustering>
<clus scale="   28.402">  1 10  2 -1</clus>
<clus scale="   77.547">  5  6 -1 -1</clus>
<clus scale="   90.652">  7  8 -1 -1</clus>
<clus scale="  100.367">  2  5  1 -1</clus>
<clus scale="  227.529">  1  9  2 -1</clus>
<clus scale="   28.402">  1  5  2 -1</clus>
</clustering>
</event>
<event>
10    4  0.3738096E-005  0.2113970E+03  0.7546771E-02  0.1141167E+00
          4   -1    0    0  503    0 -0.00000000000E+00  0.00000000000E+00  0.13800035413E+03  0.13800035413E+03  0.00000000000E+00 0. -1.
         21   -1    0    0  501  502  0.00000000000E+00 -0.00000000000E+00 -0.11309127835E+04  0.11309127835E+04  0.00000000000E+00 0. -1.
         24    2    1    2    0    0 -0.19770596628E+03 -0.55828686361E+02 -0.55861484368E+02  0.22799229341E+03  0.81581181023E+02 0.  0.
         23    2    1    2    0    0  0.10961644650E+03  0.94160223904E+02 -0.30391766249E+03  0.34840981814E+03  0.90230497564E+02 0.  0.
        -11    1    3    3    0    0 -0.44504406398E+02 -0.12118760292E+02 -0.50773118262E+02  0.68596035438E+02  0.00000000000E+00 0.  1.
         12    1    3    3    0    0 -0.15320155988E+03 -0.43709926069E+02 -0.50883661066E+01  0.15939625797E+03  0.00000000000E+00 0. -1.
        -11    1    4    4    0    0  0.10029939302E+03  0.40915751704E+02 -0.24806053878E+03  0.27068080441E+03  0.00000000000E+00 0. -1.
         11    1    4    4    0    0  0.93170534811E+01  0.53244472200E+02 -0.55857123717E+02  0.77729013730E+02  0.00000000000E+00 0.  1.
         21    1    1    2  503  502 -0.24173750537E+02 -0.71539512815E+01  0.18037734629E+02  0.30998533909E+02  0.00000000000E+00 0. -1.
          3    1    1    2  501    0  0.11226327032E+03 -0.31177586261E+02 -0.65117101712E+03  0.66151249216E+03  0.00000000000E+00 0. -1.
<scales pt_clust_5="13000.00000" pt_clust_6="13000.00000" pt_clust_7="13000.00000" pt_clust_8="13000.00000" pt_clust_9="25.21010" pt_clust_10="115.53970"></scales>
<clustering>
<clus scale="   25.210">  1  9  2 -1</clus>
<clus scale="   81.581">  5  6 -1 -1</clus>
<clus scale="   90.230">  7  8 -1 -1</clus>
<clus scale="  115.540">  2 10  1 -1</clus>
<clus scale="  207.852">  1  5  2 -1</clus>
<clus scale="  115.540">  2  5  1 -1</clus>
</clustering>
</event>
<event>
10    4  0.3738096E-005  0.1157966E+03  0.7546771E-02  0.1255291E+00
         21   -1    0    0  501  502  0.00000000000E+00  0.00000000000E+00  0.11059107853E+03  0.11059107853E+03  0.00000000000E+00 0.  1.
          2   -1    0    0  503    0 -0.00000000000E+00 -0.00000000000E+00 -0.78012136100E+03  0.78012136100E+03  0.00000000000E+00 0. -1.
         23    2    1    2    0    0  0.35197904936E+02 -0.61163437350E+02 -0.44949581127E+03  0.46460186705E+03  0.93960374287E+02 0.  0.
         24    2    1    2    0    0  0.46950685237E+02  0.53813195415E+02  0.35951132633E+02  0.11296857268E+03  0.79807190345E+02 0.  0.
        -11    1    4    4    0    0  0.46519777707E+02  0.70114747475E+02  0.43810901495E+02  0.94866024588E+02  0.00000000000E+00 0.  1.
         12    1    4    4    0    0  0.43090752952E+00 -0.16301552060E+02 -0.78597688615E+01  0.18102548092E+02  0.00000000000E+00 0. -1.
        -11    1    3    3    0    0 -0.32487959543E+02 -0.20387818208E+02 -0.13663032644E+03  0.14191186262E+03  0.00000000000E+00 0.  1.
         11    1    3    3    0    0  0.67685864479E+02 -0.40775619142E+02 -0.31286548482E+03  0.32269000443E+03  0.00000000000E+00 0. -1.
         21    1    1    2  503  502  0.24855328340E+02  0.12526842843E+02 -0.17917016112E+03  0.18131920961E+03  0.00000000000E+00 0. -1.
          1    1    1    2  501    0 -0.10700391851E+03 -0.51766009079E+01 -0.76815442722E+02  0.13182279019E+03  0.00000000000E+00 0. -1.
<scales pt_clust_5="13000.00000" pt_clust_6="13000.00000" pt_clust_7="13000.00000" pt_clust_8="13000.00000" pt_clust_9="27.83360" pt_clust_10="102.72532"></scales>
<clustering>
<clus scale="   27.834">  2  9  1 -1</clus>
<clus scale="   79.807">  5  6 -1 -1</clus>
<clus scale="   93.960">  7  8 -1 -1</clus>
<clus scale="  102.725">  1 10  2 -1</clus>
<clus scale="  104.640">  1  5  2 -1</clus>
<clus scale="  102.725">  1  5  2 -1</clus>
</clustering>
</event>
<event>
10    4  0.3738096E-005  0.9545617E+02  0.7546771E-02  0.1295534E+00
         21   -1    0    0  501  502  0.00000000000E+00  0.00000000000E+00  0.11229452927E+03  0.11229452927E+03  0.00000000000E+00 0.  1.
          2   -1    0    0  503    0 -0.00000000000E+00 -0.00000000000E+00 -0.18956839201E+03  0.18956839201E+03  0.00000000000E+00 0. -1.
         24    2    1    2    0    0  0.18550729779E+02  0.13360938009E+01 -0.46346605933E+02  0.95827558569E+02  0.81786297005E+02 0.  0.
         23    2    1    2    0    0 -0.31393644303E+02  0.48774374192E+02  0.23393176812E+02  0.11071415031E+03  0.91355798266E+02 0.  0.
        -11    1    3    3    0    0 -0.29565338442E+02 -0.54715700445E+01 -0.21567112244E+01  0.30144630023E+02  0.00000000000E+00 0.  1.
         12    1    3    3    0    0  0.48116068220E+02  0.68076638454E+01 -0.44189894708E+02  0.65682928546E+02  0.00000000000E+00 0. -1.
        -11    1    4    4    0    0 -0.21344701889E+02 -0.19462153157E+02  0.29729328984E+02  0.41451232866E+02  0.00000000000E+00 0.  1.
         11    1    4    4    0    0 -0.10048942414E+02  0.68236527350E+02 -0.63361521723E+01  0.69262917443E+02  0.00000000000E+00 0. -1.
         21    1    1    2  503  502 -0.17281668273E+02 -0.28216877270E+02 -0.46822175725E+02  0.57333797719E+02  0.00000000000E+00 0.  1.
          1    1    1    2  501    0  0.30124582797E+02 -0.21893590723E+02 -0.74982578936E+01  0.37987414691E+02  0.00000000000E+00 0. -1.
<scales pt_clust_5="13000.00000" pt_clust_6="13000.00000" pt_clust_7="13000.00000" pt_clust_8="13000.00000" pt_clust_9="33.08849" pt_clust_10="38.06473"></scales>
<clustering>
<clus scale="   33.088">  2  9  1 -1</clus>
<clus scale="   38.065">  1 10  2 -1</clus>
<clus scale="   81.786">  5  6 -1 -1</clus>
<clus scale="   86.342">  2  5  1 -1</clus>
<clus scale="   91.356">  7  8 -1 -1</clus>
<clus scale="   38.065">  1  5  2 -1</clus>
</clustering>
</event>
<event>
10    4  0.3738096E-005  0.1490682E+03  0.7546771E-02  0.1203832E+00
         21   -1    0    0  501  502  0.00000000000E+00  0.00000000000E+00  0.55509292919E+03  0.55509292919E+03  0.00000000000E+00 0.  1.
          2   -1    0    0  503    0 -0.00000000000E+00 -0.00000000000E+00 -0.25736471155E+03  0.25736471155E+03  0.00000000000E+00 0. -1.
         24    2    1    2    0    0 -0.94115803014E+02  0.10612979481E+03  0.22619332955E+03  0.27871987297E+03  0.80000172064E+02 0.  0.
         23    2    1    2    0    0  0.35717368182E+02 -0.85589283490E+02  0.28068533221E+03  0.30953225920E+03  0.91786207734E+02 0.  0.
        -11    1    3    3    0    0 -0.20741249565E+02  0.74007528507E+02  0.73774405892E+02  0.10653626929E+03  0.00000000000E+00 0.  1.
         12    1    3    3    0    0 -0.73374553449E+02  0.32122266299E+02  0.15241892366E+03  0.17218360368E+03  0.00000000000E+00 0. -1.
        -13    1    4    4    0    0 -0.23816367430E+02 -0.96745199933E+01  0.23429052874E+02  0.34781262387E+02  0.00000000000E+00 0. -1.
         13    1    4    4    0    0  0.59533735612E+02 -0.75914763497E+02  0.25725627934E+03  0.27475099682E+03  0.00000000000E+00 0.  1.
         21    1    1    2  503  502  0.30882735460E+01 -0.23648948464E+02 -0.44541164838E+02  0.50524504570E+02  0.00000000000E+00 0.  1.
          1    1    1    2  501    0  0.55310161286E+02  0.31084371484E+01 -0.16460927929E+03  0.17368100400E+03  0.00000000000E+00 0. -1.
<scales pt_clust_5="13000.00000" pt_clust_6="13000.00000" pt_clust_7="13000.00000" pt_clust_8="13000.00000" pt_clust_9="23.84974" pt_clust_10="59.96131"></scales>
<clustering>
<clus scale="   23.850">  2  9  1 -1</clus>
<clus scale="   59.961">  1 10  2 -1</clus>
<clus scale="   80.000">  5  6 -1 -1</clus>
<clus scale="   91.786">  7  8 -1 -1</clus>
<clus scale="  142.115">  2  5  1 -1</clus>
<clus scale="   59.961">  1  5  2 -1</clus>
</clustering>
</event>
<event>
10    4  0.3738096E-005  0.2220862E+03  0.7546771E-02  0.1147300E+00
         21   -1    0    0  501  502  0.00000000000E+00  0.00000000000E+00  0.75162782400E+03  0.75162782400E+03  0.00000000000E+00 0. -1.
          4   -1    0    0  503    0 -0.00000000000E+00 -0.00000000000E+00 -0.24071740526E+03  0.24071740526E+03  0.00000000000E+00 0. -1.
         24    2    1    2    0    0  0.14387052673E+03 -0.56520750914E+02 -0.90053295707E+02  0.19690748492E+03  0.82277808687E+02 0.  0.
         23    2    1    2    0    0 -0.20008383799E+03 -0.12371216093E+03  0.28473852441E+03  0.38046772457E+03  0.91331381086E+02 0.  0.
        -11    1    3    3    0    0  0.28499930318E+02 -0.37939880105E+02  0.29713457125E+01  0.47544814921E+02  0.00000000000E+00 0.  1.
         12    1    3    3    0    0  0.11537059642E+03 -0.18580870809E+02 -0.93024641419E+02  0.14936267000E+03  0.00000000000E+00 0. -1.
        -11    1    4    4    0    0 -0.14777063347E+03 -0.56126960651E+02  0.22962522877E+03  0.27877256234E+03  0.00000000000E+00 0.  1.
         11    1    4    4    0    0 -0.52313204516E+02 -0.67585200283E+02  0.55113295637E+02  0.10169516222E+03  0.00000000000E+00 0. -1.
         21    1    1    2  503  502 -0.35253202639E+02  0.81724948978E+01 -0.76555680434E+01  0.36988994190E+02  0.00000000000E+00 0.  1.
          3    1    1    2  501    0  0.91466513890E+02  0.17206041695E+03  0.32388075808E+03  0.37798102558E+03  0.00000000000E+00 0. -1.
<scales pt_clust_5="13000.00000" pt_clust_6="13000.00000" pt_clust_7="13000.00000" pt_clust_8="13000.00000" pt_clust_9="36.18809" pt_clust_10="202.43731"></scales>
<clustering>
<clus scale="   36.188">  2  9  1 -1</clus>
<clus scale="   82.278">  5  6 -1 -1</clus>
<clus scale="   91.331">  7  8 -1 -1</clus>
<clus scale="  154.781">  2  5  1 -1</clus>
<clus scale="  202.437">  1 10  2 -1</clus>
<clus scale="  202.437">  1  5  2 -1</clus>
</clustering>
</event>
<event>
10    4  0.3738096E-005  0.1161513E+03  0.7546771E-02  0.1251172E+00
         -3   -1    0    0    0  501 -0.00000000000E+00  0.00000000000E+00  0.51880765506E+03  0.51880765506E+03  0.00000000000E+00 0.  1.
         21   -1    0    0  503  502  0.00000000000E+00 -0.00000000000E+00 -0.11282047515E+03  0.11282047515E+03  0.00000000000E+00 0.  1.
         24    2    1    2    0    0 -0.34481671937E+02  0.82610208967E+02  0.18855576286E+03  0.22524400982E+03  0.84664962798E+02 0.  0.
         23    2    1    2    0    0  0.14465548389E+02 -0.29267640283E+02 -0.61531574585E+02  0.11335162717E+03  0.89423765599E+02 0.  0.
        -11    1    3    3    0    0 -0.37355708628E+02  0.99013625483E+02  0.17057467756E+03  0.20073581549E+03  0.00000000000E+00 0.  1.
         12    1    3    3    0    0  0.28740366916E+01 -0.16403416516E+02  0.17981085304E+02  0.24508194323E+02  0.00000000000E+00 0. -1.
        -13    1    4    4    0    0  0.17384928361E+02  0.30439247757E+02 -0.27592258170E+02  0.44610718992E+02  0.00000000000E+00 0.  1.
         13    1    4    4    0    0 -0.29193799718E+01 -0.59706888040E+02 -0.33939316415E+02  0.68740908181E+02  0.00000000000E+00 0. -1.
         21    1    1    2  503  501 -0.24993037501E+02 -0.27919955644E+02  0.13341135150E+03  0.13857403998E+03  0.00000000000E+00 0.  1.
         -4    1    1    2    0  502  0.45009161049E+02 -0.25422613040E+02  0.14555164013E+03  0.15445845324E+03  0.00000000000E+00 0.  1.
<scales pt_clust_5="13000.00000" pt_clust_6="13000.00000" pt_clust_7="13000.00000" pt_clust_8="13000.00000" pt_clust_9="37.47233" pt_clust_10="50.62030"></scales>
<clustering>
<clus scale="   37.472">  1  9  2 -1</clus>
<clus scale="   50.620">  2 10  1 -1</clus>
<clus scale="   84.665">  5  6 -1 -1</clus>
<clus scale="   89.424">  7  8 -1 -1</clus>
<clus scale="  112.529">  1  5  2 -1</clus>
<clus scale="   50.620">  2  5  1 -1</clus>
</clustering>
</event>
<event>
10    4  0.3738096E-005  0.1250369E+03  0.7546771E-02  0.1256843E+00
          2   -1    0    0  503    0 -0.00000000000E+00  0.00000000000E+00  0.73392312823E+03  0.73392312823E+03  0.00000000000E+00 0. -1.
         21   -1    0    0  501  502  0.00000000000E+00 -0.00000000000E+00 -0.67477261865E+02  0.67477261865E+02  0.00000000000E+00 0. -1.
         24    2    1    2    0    0 -0.15212595624E+02  0.29918610708E+01  0.43719658563E+03  0.44474543343E+03  0.80107875876E+02 0.  0.
         23    2    1    2    0    0  0.36911520821E+01  0.73707445380E+02  0.17958274559E+03  0.21497913450E+03  0.92301969911E+02 0.  0.
        -13    1    3    3    0    0  0.21506982191E+02  0.14276962901E+02  0.56526523314E+02  0.62142013088E+02  0.00000000000E+00 0.  1.
         14    1    3    3    0    0 -0.36719577815E+02 -0.11285101831E+02  0.38067006231E+03  0.38260342034E+03  0.00000000000E+00 0. -1.
        -13    1    4    4    0    0  0.29964050665E+02  0.83401133133E+02  0.12033004953E+03  0.14944200935E+03  0.00000000000E+00 0. -1.
         13    1    4    4    0    0 -0.26272898583E+02 -0.96936877528E+01  0.59252696059E+02  0.65537125146E+02  0.00000000000E+00 0.  1.
         21    1    1    2  503  502  0.24642963238E+02  0.90824042332E+01  0.48191998943E+02  0.54883826997E+02  0.00000000000E+00 0.  1.
          1    1    1    2  501    0 -0.13121519696E+02 -0.85781710684E+02  0.14745362036E+01  0.86791995161E+02  0.00000000000E+00 0. -1.
<scales pt_clust_5="13000.00000" pt_clust_6="13000.00000" pt_clust_7="13000.00000" pt_clust_8="13000.00000" pt_clust_9="26.26339" pt_clust_10="84.34799"></scales>
<clustering>
<clus scale="   26.263">  1  9  2 -1</clus>
<clus scale="   80.108">  5  6 -1 -1</clus>
<clus scale="   80.600">  1  5  2 -1</clus>
<clus scale="   84.348">  2 10  1 -1</clus>
<clus scale="   92.302">  7  8 -1 -1</clus>
<clus scale="   84.348">  2  5  1 -1</clus>
</clustering>
</event>
<event>
10    4  0.3738096E-005  0.1162701E+03  0.7546771E-02  0.1251643E+00
         21   -1    0    0  501  502  0.00000000000E+00  0.00000000000E+00  0.78836551508E+02  0.78836551508E+02  0.00000000000E+00 0. -1.
          4   -1    0    0  503    0 -0.00000000000E+00 -0.00000000000E+00 -0.69739009170E+03  0.69739009170E+03  0.00000000000E+00 0. -1.
         23    2    1    2    0    0  0.79275735670E+02  0.96145741255E+01 -0.29976664793E+03  0.32339070940E+03  0.91347826530E+02 0.  0.
         24    2    1    2    0    0 -0.42312548294E+02  0.84488803607E+02 -0.17890274243E+03  0.21934345063E+03  0.84715101400E+02 0.  0.
        -11    1    4    4    0    0 -0.64861701332E+02  0.54066872301E+02 -0.14830304050E+03  0.17065772412E+03  0.00000000000E+00 0.  1.
         12    1    4    4    0    0  0.22549153039E+02  0.30421931306E+02 -0.30599701930E+02  0.48685726505E+02  0.00000000000E+00 0. -1.
        -11    1    3    3    0    0  0.77974144648E+02 -0.28202460098E+02 -0.19070624162E+03  0.20795243827E+03  0.00000000000E+00 0.  1.
         11    1    3    3    0    0  0.13015910219E+01  0.37817034223E+02 -0.10906040631E+03  0.11543827113E+03  0.00000000000E+00 0. -1.
         21    1    1    2  503  502 -0.21330511506E+02 -0.53708750855E+02 -0.17077732672E+03  0.18029008837E+03  0.00000000000E+00 0.  1.
          3    1    1    2  501    0 -0.15632675870E+02 -0.40394626878E+02  0.30893176896E+02  0.53202394816E+02  0.00000000000E+00 0. -1.
<scales pt_clust_5="13000.00000" pt_clust_6="13000.00000" pt_clust_7="13000.00000" pt_clust_8="13000.00000" pt_clust_9="63.38928" pt_clust_10="43.31404"></scales>
<clustering>
<clus scale="   43.314">  1 10  2 -1</clus>
<clus scale="   63.389">  2  9  1 -1</clus>
<clus scale="   84.715">  5  6 -1 -1</clus>
<clus scale="   91.348">  7  8 -1 -1</clus>
<clus scale="  111.135">  1  5  2 -1</clus>
<clus scale="   43.314">  1  5  2 -1</clus>
</clustering>
</event>
<event>
10    4  0.3738096E-005  0.1261762E+03  0.7546771E-02  0.1236458E+00
         -3   -1    0    0    0  501 -0.00000000000E+00  0.00000000000E+00  0.78366475933E+03  0.78366475933E+03  0.00000000000E+00 0.  1.
         21   -1    0    0  503  502  0.00000000000E+00 -0.00000000000E+00 -0.71510325399E+02  0.71510325399E+02  0.00000000000E+00 0.  1.
         24    2    1    2    0    0  0.37009004147E+02  0.60988160568E+02  0.17597213496E+03  0.20590513862E+03  0.79633609170E+02 0.  0.
         23    2    1    2    0    0 -0.45177210217E+02 -0.14906889753E+03  0.13317345758E+03  0.22428558218E+03  0.91139102671E+02 0.  0.
        -13    1    3    3    0    0  0.25724835472E+02 -0.98288560592E+01  0.19380127576E+02  0.33674365864E+02  0.00000000000E+00 0.  1.
         14    1    3    3    0    0  0.11284168675E+02  0.70817016628E+02  0.15659200738E+03  0.17223077275E+03  0.00000000000E+00 0. -1.
        -11    1    4    4    0    0 -0.72839976373E+01 -0.43709537292E+02 -0.70232078938E+01  0.44865417874E+02  0.00000000000E+00 0.  1.
         11    1    4    4    0    0 -0.37893212579E+02 -0.10535936024E+03  0.14019666547E+03  0.17942016431E+03  0.00000000000E+00 0. -1.
         21    1    1    2  503  501 -0.40723583273E+00 -0.23230704570E+02  0.71883595626E+02  0.75545236752E+02  0.00000000000E+00 0.  1.
         -4    1    1    2    0  502  0.85754419024E+01  0.11131144153E+03  0.33112524577E+03  0.34943912718E+03  0.00000000000E+00 0.  1.
<scales pt_clust_5="13000.00000" pt_clust_6="13000.00000" pt_clust_7="13000.00000" pt_clust_8="13000.00000" pt_clust_9="23.23427" pt_clust_10="100.52683"></scales>
<clustering>
<clus scale="   23.234">  1  9  2 -1</clus>
<clus scale="   79.634">  5  6 -1 -1</clus>
<clus scale="   91.139">  7  8 -1 -1</clus>
<clus scale="  100.527">  2 10  1 -1</clus>
<clus scale="  118.134">  1  5  2 -1</clus>
<clus scale="  100.527">  2  5  1 -1</clus>
</clustering>
</event>
<event>
10    4  0.3738096E-005  0.9902967E+02  0.7546771E-02  0.1288401E+00
          2   -1    0    0  503    0 -0.00000000000E+00  0.00000000000E+00  0.13096150104E+04  0.13096150104E+04  0.00000000000E+00 0. -1.
         21   -1    0    0  501  502  0.00000000000E+00 -0.00000000000E+00 -0.29327290537E+02  0.29327290537E+02  0.00000000000E+00 0.  1.
         23    2    1    2    0    0 -0.54549717165E+02 -0.73731948029E+01  0.25821980363E+03  0.27918794746E+03  0.90765672900E+02 0.  0.
         24    2    1    2    0    0  0.13962605791E+02 -0.51809037656E+02  0.14619154807E+03  0.17460652495E+03  0.78970495030E+02 0.  0.
        -13    1    4    4    0    0 -0.69813563000E+00 -0.70941144783E+02  0.11598359676E+03  0.13596075954E+03  0.00000000000E+00 0.  1.
         14    1    4    4    0    0  0.14660741421E+02  0.19132107127E+02  0.30207951315E+02  0.38645765419E+02  0.00000000000E+00 0. -1.
        -11    1    3    3    0    0 -0.65158738114E+02 -0.31501996080E+02  0.13495820913E+03  0.15313965888E+03  0.00000000000E+00 0. -1.
         11    1    3    3    0    0  0.10609020948E+02  0.24128801277E+02  0.12326159450E+03  0.12604828858E+03  0.00000000000E+00 0.  1.
         21    1    1    2  503  502  0.13904016717E+02 -0.28071816944E+02  0.13048370218E+03  0.13419144951E+03  0.00000000000E+00 0.  1.
          1    1    1    2  501    0  0.26683094658E+02  0.87254049403E+02  0.74539266600E+03  0.75095637903E+03  0.00000000000E+00 0. -1.
<scales pt_clust_5="13000.00000" pt_clust_6="13000.00000" pt_clust_7="13000.00000" pt_clust_8="13000.00000" pt_clust_9="31.32648" pt_clust_10="77.97395"></scales>
<clustering>
<clus scale="   31.326">  1  9  2 -1</clus>
<clus scale="   77.974">  2 10  1 -1</clus>
<clus scale="   78.970">  5  6 -1 -1</clus>
<clus scale="   88.345">  2  5  1 -1</clus>
<clus scale="   90.766">  7  8 -1 -1</clus>
<clus scale="   77.974">  2  5  1 -1</clus>
</clustering>
</event>
<event>
10    4  0.3738096E-005  0.1695439E+03  0.7546771E-02  0.1179831E+00
          2   -1    0    0  503    0 -0.00000000000E+00  0.00000000000E+00  0.90770576637E+03  0.90770576637E+03  0.00000000000E+00 0. -1.
         21   -1    0    0  501  502  0.00000000000E+00 -0.00000000000E+00 -0.16043075078E+03  0.16043075078E+03  0.00000000000E+00 0. -1.
         23    2    1    2    0    0 -0.20226728242E+02 -0.18597374631E+03  0.40787429543E+03  0.45828130431E+03  0.93085756981E+02 0.  0.
         24    2    1    2    0    0  0.16114548605E+03  0.53468119615E+02 -0.21385574796E+02  0.18990283320E+03  0.82334900015E+02 0.  0.
        -11    1    4    4    0    0  0.21201515026E+02 -0.17763380640E+02  0.10650046719E+02  0.29638917427E+02  0.00000000000E+00 0.  1.
         12    1    4    4    0    0  0.13994397102E+03  0.71231500255E+02 -0.32035621515E+02  0.16026391578E+03  0.00000000000E+00 0. -1.
        -11    1    3    3    0    0  0.24689296837E+02 -0.69375202417E+02  0.87256794947E+02  0.11417630382E+03  0.00000000000E+00 0.  1.
         11    1    3    3    0    0 -0.44916025079E+02 -0.11659854390E+03  0.32061750049E+03  0.34410500050E+03  0.00000000000E+00 0. -1.
         21    1    1    2  503  502 -0.10347195721E+03  0.12282037725E+03  0.21049111274E+03  0.26475989036E+03  0.00000000000E+00 0. -1.
          1    1    1    2  501    0 -0.37446800594E+02  0.96852494519E+01  0.15029518221E+03  0.15519248927E+03  0.00000000000E+00 0. -1.
<scales pt_clust_5="13000.00000" pt_clust_6="13000.00000" pt_clust_7="13000.00000" pt_clust_8="13000.00000" pt_clust_9="166.05738" pt_clust_10="38.67904"></scales>
<clustering>
<clus scale="   38.679">  2 10  1 -1</clus>
<clus scale="   82.335">  5  6 -1 -1</clus>
<clus scale="   93.086">  7  8 -1 -1</clus>
<clus scale="  166.057">  1  9  2 -1</clus>
<clus scale="  163.888">  2  5  1 -1</clus>
<clus scale="   38.679">  2  5  1 -1</clus>
</clustering>
</event>
<event>
10    4  0.3738096E-005  0.1420824E+03  0.7546771E-02  0.1235457E+00
         -1   -1    0    0    0  501 -0.00000000000E+00  0.00000000000E+00  0.31961808940E+03  0.31961808940E+03  0.00000000000E+00 0.  1.
         21   -1    0    0  503  502  0.00000000000E+00 -0.00000000000E+00 -0.27315618514E+03  0.27315618514E+03  0.00000000000E+00 0. -1.
         24    2    1    2    0    0  0.90153136893E+01 -0.36589896858E+02  0.89945238193E+02  0.12639662635E+03  0.80410601582E+02 0.  0.
         23    2    1    2    0    0 -0.87123155375E+02  0.69662040965E+02 -0.20907634659E+03  0.25361656728E+03  0.90361498125E+02 0.  0.
        -13    1    3    3    0    0 -0.21722068755E+02 -0.31688401575E+02  0.87032439547E+02  0.95134896851E+02  0.00000000000E+00 0.  1.
         14    1    3    3    0    0  0.30737382444E+02 -0.49014952838E+01  0.29127986461E+01  0.31261729502E+02  0.00000000000E+00 0. -1.
        -13    1    4    4    0    0  0.14179827907E+02  0.27792096695E+02 -0.27868579163E+02  0.41834505647E+02  0.00000000000E+00 0.  1.
         13    1    4    4    0    0 -0.10130298328E+03  0.41869944270E+02 -0.18120776743E+03  0.21178206164E+03  0.00000000000E+00 0. -1.
         21    1    1    2  503  501  0.76386170589E+01  0.34785168162E+02  0.39868051379E+02  0.53458562602E+02  0.00000000000E+00 0.  1.
         -2    1    1    2    0  502  0.70469224627E+02 -0.67857312269E+02  0.12572496128E+03  0.15930251830E+03  0.00000000000E+00 0.  1.
<scales pt_clust_5="13000.00000" pt_clust_6="13000.00000" pt_clust_7="13000.00000" pt_clust_8="13000.00000" pt_clust_9="35.61399" pt_clust_10="109.64587"></scales>
<clustering>
<clus scale="   35.614">  1  9  2 -1</clus>
<clus scale="   80.411">  5  6 -1 -1</clus>
<clus scale="   84.445">  1  5  2 -1</clus>
<clus scale="   90.361">  7  8 -1 -1</clus>
<clus scale="  109.646">  2 10  1 -1</clus>
<clus scale="  109.646">  2  5  1 -1</clus>
</clustering>
</event>
<event>
10    4  0.3738096E-005  0.1159097E+03  0.7546771E-02  0.1252766E+00
          2   -1    0    0  503    0 -0.00000000000E+00  0.00000000000E+00  0.39391204359E+03  0.39391204359E+03  0.00000000000E+00 0. -1.
         21   -1    0    0  501  502  0.00000000000E+00 -0.00000000000E+00 -0.28651278039E+03  0.28651278039E+03  0.00000000000E+00 0. -1.
         23    2    1    2    0    0 -0.13007442798E+02 -0.55923433724E+02  0.31786553432E+03  0.33507850957E+03  0.89120624185E+02 0.  0.
         24    2    1    2    0    0  0.19290147450E+02  0.20648735896E+02 -0.56241221636E+02  0.10247847509E+03  0.80872014711E+02 0.  0.
        -13    1    4    4    0    0  0.45960053513E+02  0.29514584295E+02 -0.49182407214E+02  0.73500655673E+02  0.00000000000E+00 0.  1.
         14    1    4    4    0    0 -0.26669906063E+02 -0.88658483988E+01 -0.70588144218E+01  0.28977819419E+02  0.00000000000E+00 0. -1.
        -13    1    3    3    0    0  0.18086278367E+02  0.14261038975E+02  0.34368921740E+02  0.41372859212E+02  0.00000000000E+00 0.  1.
         13    1    3    3    0    0 -0.31093721165E+02 -0.70184472699E+02  0.28349661258E+03  0.29370565035E+03  0.00000000000E+00 0. -1.
         21    1    1    2  503  502  0.25878984386E+01 -0.32316732587E+02  0.31392171809E+02  0.45128005432E+02  0.00000000000E+00 0. -1.
          1    1    1    2  501    0 -0.88706030907E+01  0.67591430415E+02 -0.18561722130E+03  0.19773983389E+03  0.00000000000E+00 0. -1.
<scales pt_clust_5="13000.00000" pt_clust_6="13000.00000" pt_clust_7="13000.00000" pt_clust_8="13000.00000" pt_clust_9="32.42019" pt_clust_10="67.61921"></scales>
<clustering>
<clus scale="   32.420">  1  9  2 -1</clus>
<clus scale="   67.619">  2 10  1 -1</clus>
<clus scale="   80.872">  5  6 -1 -1</clus>
<clus scale="   89.121">  7  8 -1 -1</clus>
<clus scale="  109.694">  2  5  1 -1</clus>
<clus scale="   67.619">  2  5  1 -1</clus>
</clustering>
</event>
<event>
10    4  0.3738096E-005  0.1323856E+03  0.7546771E-02  0.1226854E+00
         -1   -1    0    0    0  501 -0.00000000000E+00  0.00000000000E+00  0.25042136790E+03  0.25042136790E+03  0.00000000000E+00 0.  1.
         21   -1    0    0  503  502  0.00000000000E+00 -0.00000000000E+00 -0.19298786878E+03  0.19298786878E+03  0.00000000000E+00 0.  1.
         24    2    1    2    0    0  0.11347861894E+03 -0.84855962803E+02  0.61665755093E+02  0.17369753188E+03  0.79311007113E+02 0.  0.
         23    2    1    2    0    0 -0.52566070637E+02  0.47854971136E+02 -0.41425676362E+02  0.12267462595E+03  0.90992786221E+02 0.  0.
        -13    1    3    3    0    0  0.76250662078E+02 -0.49475810520E+02 -0.32117077309E+01  0.90952374133E+02  0.00000000000E+00 0.  1.
         14    1    3    3    0    0  0.37227956865E+02 -0.35380152283E+02  0.64877462824E+02  0.82745157745E+02  0.00000000000E+00 0. -1.
        -13    1    4    4    0    0 -0.59982977722E+02  0.24730918354E+02 -0.62820091641E+02  0.90310242237E+02  0.00000000000E+00 0.  1.
         13    1    4    4    0    0  0.74169070858E+01  0.23124052782E+02  0.21394415278E+02  0.32364383709E+02  0.00000000000E+00 0. -1.
         21    1    1    2  503  501 -0.87585316207E+02 -0.53868332214E+01  0.40908443151E+02  0.96817902830E+02  0.00000000000E+00 0.  1.
         -2    1    1    2    0  502  0.26672767901E+02  0.42387824889E+02 -0.37150227575E+01  0.50219176023E+02  0.00000000000E+00 0.  1.
<scales pt_clust_5="13000.00000" pt_clust_6="13000.00000" pt_clust_7="13000.00000" pt_clust_8="13000.00000" pt_clust_9="83.11257" pt_clust_10="50.08158"></scales>
<clustering>
<clus scale="   50.082">  2 10  1 -1</clus>
<clus scale="   79.311">  5  6 -1 -1</clus>
<clus scale="   83.113">  1  9  2 -1</clus>
<clus scale="   90.993">  7  8 -1 -1</clus>
<clus scale="  124.646">  1  5  2 -1</clus>
<clus scale="   50.082">  2  5  1 -1</clus>
</clustering>
</event>
<event>
10    4  0.3738096E-005  0.1829803E+03  0.7546771E-02  0.1180095E+00
          4   -1    0    0  503    0 -0.00000000000E+00  0.00000000000E+00  0.55939653886E+02  0.55939653886E+02  0.00000000000E+00 0. -1.
         21   -1    0    0  501  502  0.00000000000E+00 -0.00000000000E+00 -0.15827907954E+04  0.15827907954E+04  0.00000000000E+00 0.  1.
         24    2    1    2    0    0 -0.88727805391E+02 -0.49102912292E+02 -0.13359432657E+03  0.17970570461E+03  0.64521134008E+02 0.  0.
         23    2    1    2    0    0  0.16473520182E+03 -0.70239586683E+02 -0.10947014904E+04  0.11131165568E+04  0.92659752520E+02 0.  0.
        -13    1    3    3    0    0 -0.99144403904E+02 -0.45250950062E+02 -0.12332902328E+03  0.16458222653E+03  0.00000000000E+00 0.  1.
         14    1    3    3    0    0  0.10416598514E+02 -0.38519622299E+01 -0.10265303287E+02  0.15123478079E+02  0.00000000000E+00 0. -1.
        -13    1    4    4    0    0  0.93395642158E+02 -0.87611475667E+02 -0.67452385862E+03  0.68657188443E+03  0.00000000000E+00 0.  1.
         13    1    4    4    0    0  0.71339559662E+02  0.17371888984E+02 -0.42017763176E+03  0.42654467237E+03  0.00000000000E+00 0. -1.
         21    1    1    2  503  502 -0.19013012487E+02 -0.15002358910E+02 -0.19876956464E+02  0.31331434934E+02  0.00000000000E+00 0. -1.
          3    1    1    2  501    0 -0.56994383942E+02  0.13434485788E+03 -0.27867836811E+03  0.31457675294E+03  0.00000000000E+00 0. -1.
<scales pt_clust_5="13000.00000" pt_clust_6="13000.00000" pt_clust_7="13000.00000" pt_clust_8="13000.00000" pt_clust_9="24.21911" pt_clust_10="157.78466"></scales>
<clustering>
<clus scale="   24.219">  1  9  2 -1</clus>
<clus scale="   64.521">  5  6 -1 -1</clus>
<clus scale="   92.660">  7  8 -1 -1</clus>
<clus scale="  129.600">  1  5  2 -1</clus>
<clus scale="  157.785">  2 10  1 -1</clus>
<clus scale="  157.785">  2  5  1 -1</clus>
</clustering>
</event>
<event>
10    4  0.3738096E-005  0.9218535E+02  0.7546771E-02  0.1302464E+00
         21   -1    0    0  501  502  0.00000000000E+00  0.00000000000E+00  0.56942899521E+02  0.56942899521E+02  0.00000000000E+00 0. -1.
          2   -1    0    0  503    0 -0.00000000000E+00 -0.00000000000E+00 -0.39482190114E+03  0.39482190114E+03  0.00000000000E+00 0. -1.
         24    2    1    2    0    0 -0.67082770170E+01  0.33898049204E+02 -0.10094856599E+03  0.13446098919E+03  0.81823382467E+02 0.  0.
         23    2    1    2    0    0  0.13306645539E+02  0.13393832676E+02 -0.48852532690E+02  0.10402686284E+03  0.89880791462E+02 0.  0.
        -13    1    3    3    0    0 -0.20527311375E+02 -0.79673302669E+01  0.23533083292E+01  0.22144681618E+02  0.00000000000E+00 0.  1.
         14    1    3    3    0    0  0.13819034358E+02  0.41865379471E+02 -0.10330187432E+03  0.11231630757E+03  0.00000000000E+00 0. -1.
        -11    1    4    4    0    0  0.68846685584E+01 -0.36695446363E+02 -0.36117843158E+02  0.51946636458E+02  0.00000000000E+00 0.  1.
         11    1    4    4    0    0  0.64219769811E+01  0.50089279039E+02 -0.12734689532E+02  0.52080226386E+02  0.00000000000E+00 0. -1.
         21    1    1    2  503  502 -0.39621024161E-01  0.25822709648E+02 -0.65397491308E+02  0.70311064370E+02  0.00000000000E+00 0. -1.
          1    1    1    2  501    0 -0.65587474983E+01 -0.73114591528E+02 -0.12268041162E+03  0.14296588425E+03  0.00000000000E+00 0. -1.
<scales pt_clust_5="13000.00000" pt_clust_6="13000.00000" pt_clust_7="13000.00000" pt_clust_8="13000.00000" pt_clust_9="25.82274" pt_clust_10="62.96893"></scales>
<clustering>
<clus scale="   25.823">  2  9  1 -1</clus>
<clus scale="   62.969">  1 10  2 -1</clus>
<clus scale="   81.823">  5  6 -1 -1</clus>
<clus scale="   84.348">  2  5  1 -1</clus>
<clus scale="   89.881">  7  8 -1 -1</clus>
<clus scale="   62.969">  1  5  2 -1</clus>
</clustering>
</event>
<event>
10    4  0.3738096E-005  0.2785551E+03  0.7546771E-02  0.1130130E+00
         21   -1    0    0  501  502  0.00000000000E+00  0.00000000000E+00  0.17440431679E+03  0.17440431679E+03  0.00000000000E+00 0.  1.
          2   -1    0    0  503    0 -0.00000000000E+00 -0.00000000000E+00 -0.13981513014E+04  0.13981513014E+04  0.00000000000E+00 0. -1.
         23    2    1    2    0    0  0.10396279967E+03 -0.23111829432E+03 -0.13611971024E+03  0.30325448627E+03  0.95972799486E+02 0.  0.
         24    2    1    2    0    0  0.62478866098E+02  0.54010251345E+02 -0.11396822873E+02  0.11722525536E+03  0.82408476285E+02 0.  0.
        -13    1    4    4    0    0  0.57744068053E+02  0.42074101377E+02 -0.42808889763E+02  0.83289906020E+02  0.00000000000E+00 0.  1.
         14    1    4    4    0    0  0.47347980450E+01  0.11936149969E+02  0.31412066890E+02  0.33935349341E+02  0.00000000000E+00 0. -1.
        -11    1    3    3    0    0  0.10290092391E+03 -0.20193840571E+03 -0.14911007595E+03  0.27129602760E+03  0.00000000000E+00 0.  1.
         11    1    3    3    0    0  0.10618757596E+01 -0.29179888613E+02  0.12990365703E+02  0.31958458672E+02  0.00000000000E+00 0. -1.
         21    1    1    2  503  502 -0.18671726982E+03  0.18892289993E+03 -0.10919748095E+04  0.11238167936E+04  0.00000000000E+00 0. -1.
          1    1    1    2  501    0  0.20275604052E+02 -0.11814856958E+02  0.15744357966E+02  0.28259083007E+02  0.00000000000E+00 0. -1.
<scales pt_clust_5="13000.00000" pt_clust_6="13000.00000" pt_clust_7="13000.00000" pt_clust_8="13000.00000" pt_clust_9="261.49980" pt_clust_10="23.46681"></scales>
<clustering>
<clus scale="   23.467">  1 10  2 -1</clus>
<clus scale="   82.408">  5  6 -1 -1</clus>
<clus scale="   95.973">  7  8 -1 -1</clus>
<clus scale="  118.806">  1  5  2 -1</clus>
<clus scale="  261.500">  2  9  1 -1</clus>
<clus scale="   23.467">  1  5  2 -1</clus>
</clustering>
</event>
<event>
10    4  0.3738096E-005  0.2243411E+03  0.7546771E-02  0.1135596E+00
         21   -1    0    0  501  502  0.00000000000E+00  0.00000000000E+00  0.22504227582E+03  0.22504227582E+03  0.00000000000E+00 0.  1.
          2   -1    0    0  503    0 -0.00000000000E+00 -0.00000000000E+00 -0.13875081617E+04  0.13875081617E+04  0.00000000000E+00 0. -1.
         23    2    1    2    0    0  0.41422522997E+02  0.22169594055E+03 -0.84104638329E+03  0.87533947488E+03  0.89416228843E+02 0.  0.
         24    2    1    2    0    0  0.12544048278E+03 -0.78029672029E+02  0.20923475814E+00  0.16878590092E+03  0.81637565694E+02 0.  0.
        -11    1    4    4    0    0  0.73936777159E+02 -0.89222239510E+02 -0.37018636821E+01  0.11593514926E+03  0.00000000000E+00 0.  1.
         12    1    4    4    0    0  0.51503705622E+02  0.11192567481E+02  0.39110984403E+01  0.52850751656E+02  0.00000000000E+00 0. -1.
        -11    1    3    3    0    0 -0.46167484701E+01  0.16433929743E+03 -0.49583714316E+03  0.52238222747E+03  0.00000000000E+00 0. -1.
         11    1    3    3    0    0  0.46039271467E+02  0.57356643114E+02 -0.34520924013E+03  0.35295724741E+03  0.00000000000E+00 0.  1.
         21    1    1    2  503  502 -0.20464605037E+03 -0.10519062465E+03 -0.40694664235E+03  0.46749400335E+03  0.00000000000E+00 0.  1.
          1    1    1    2  501    0  0.37783044597E+02 -0.38475643871E+02  0.85317904996E+02  0.10093105837E+03  0.00000000000E+00 0. -1.
<scales pt_clust_5="13000.00000" pt_clust_6="13000.00000" pt_clust_7="13000.00000" pt_clust_8="13000.00000" pt_clust_9="205.75148" pt_clust_10="53.92526"></scales>
<clustering>
<clus scale="   53.925">  1 10  2 -1</clus>
<clus scale="   81.638">  5  6 -1 -1</clus>
<clus scale="   89.416">  7  8 -1 -1</clus>
<clus scale="  198.996">  1  5  2 -1</clus>
<clus scale="  205.751">  1  9  2 -1</clus>
<clus scale="   53.925">  1  5  2 -1</clus>
</clustering>
</event>
<event>
10    4  0.3738096E-005  0.1769491E+03  0.7546771E-02  0.1172317E+00
          2   -1    0    0  503    0 -0.00000000000E+00  0.00000000000E+00  0.97091702259E+03  0.97091702259E+03  0.00000000000E+00 0. -1.
         21   -1    0    0  501  502  0.00000000000E+00 -0.00000000000E+00 -0.79484738137E+02  0.79484738137E+02  0.00000000000E+00 0.  1.
         24    2    1    2    0    0  0.11577641972E+03 -0.10302241427E+03  0.54558526509E+03  0.57296366885E+03  0.81279069481E+02 0.  0.
         23    2    1    2    0    0 -0.11437530102E+03  0.86269235304E+02  0.31651101292E+03  0.35974733195E+03  0.93353259717E+02 0.  0.
        -13    1    3    3    0    0 -0.42572774397E+01 -0.31333089775E+02  0.62361352048E+02  0.69920134120E+02  0.00000000000E+00 0.  1.
         14    1    3    3    0    0  0.12003369716E+03 -0.71689324498E+02  0.48322391304E+03  0.50304353473E+03  0.00000000000E+00 0. -1.
        -11    1    4    4    0    0 -0.74809530357E+02  0.84341318053E+02  0.14472723799E+03  0.18345543650E+03  0.00000000000E+00 0.  1.
         11    1    4    4    0    0 -0.39565770665E+02  0.19279172514E+01  0.17178377493E+03  0.17629189546E+03  0.00000000000E+00 0. -1.
         21    1    1    2  503  502  0.39854630816E+02  0.38559977019E+02  0.41737324182E+02  0.69406538994E+02  0.00000000000E+00 0.  1.
          1    1    1    2  501    0 -0.41255749513E+02 -0.21806798050E+02 -0.12401317742E+02  0.48284220930E+02  0.00000000000E+00 0. -1.
<scales pt_clust_5="13000.00000" pt_clust_6="13000.00000" pt_clust_7="13000.00000" pt_clust_8="13000.00000" pt_clust_9="42.99558" pt_clust_10="46.66448"></scales>
<clustering>
<clus scale="   46.664">  2 10  1 -1</clus>
<clus scale="   42.996">  2  9  1 -1</clus>
<clus scale="   81.279">  5  6 -1 -1</clus>
<clus scale="   93.353">  7  8 -1 -1</clus>
<clus scale="  170.887">  1  5  2 -1</clus>
<clus scale="   46.664">  2  5  1 -1</clus>
</clustering>
</event>
<event>
10    4  0.3738096E-005  0.1047562E+03  0.7546771E-02  0.1271105E+00
          2   -1    0    0  503    0 -0.00000000000E+00  0.00000000000E+00  0.44394170780E+03  0.44394170780E+03  0.00000000000E+00 0. -1.
         21   -1    0    0  501  502  0.00000000000E+00 -0.00000000000E+00 -0.11213921181E+03  0.11213921181E+03  0.00000000000E+00 0.  1.
         23    2    1    2    0    0 -0.27918677085E+02 -0.17210665498E+02  0.32226334415E+03  0.33502435851E+03  0.85510223224E+02 0.  0.
         24    2    1    2    0    0 -0.12711947869E+02  0.50422071460E+02 -0.40059556167E+02  0.10681296658E+03  0.84263057626E+02 0.  0.
        -11    1    4    4    0    0  0.25102382069E+02 -0.18346416937E+01 -0.33607609652E+02  0.41987699653E+02  0.00000000000E+00 0.  1.
         12    1    4    4    0    0 -0.37814329938E+02  0.52256713154E+02 -0.64519465155E+01  0.64825266927E+02  0.00000000000E+00 0. -1.
        -11    1    3    3    0    0 -0.36520596231E+02 -0.46264709697E+02  0.24598184559E+03  0.25294514360E+03  0.00000000000E+00 0. -1.
         11    1    3    3    0    0  0.86019191466E+01  0.29054044199E+02  0.76281498559E+02  0.82079214907E+02  0.00000000000E+00 0.  1.
         21    1    1    2  503  502  0.35185180133E+02 -0.53613784957E+02  0.62459553617E+02  0.89518884468E+02  0.00000000000E+00 0.  1.
          1    1    1    2  501    0  0.54454448213E+01  0.20402378995E+02 -0.12860845600E+02  0.24724710059E+02  0.00000000000E+00 0. -1.
<scales pt_clust_5="13000.00000" pt_clust_6="13000.00000" pt_clust_7="13000.00000" pt_clust_8="13000.00000" pt_clust_9="62.13097" pt_clust_10="21.11658"></scales>
<clustering>
<clus scale="   21.117">  2 10  1 -1</clus>
<clus scale="   62.131">  1  9  2 -1</clus>
<clus scale="   84.263">  5  6 -1 -1</clus>
<clus scale="   85.510">  7  8 -1 -1</clus>
<clus scale="  103.741">  2  5  1 -1</clus>
<clus scale="   21.117">  2  5  1 -1</clus>
</clustering>
</event>
<event>
10    4  0.3738096E-005  0.1203610E+03  0.7546771E-02  0.1242732E+00
         21   -1    0    0  501  502  0.00000000000E+00  0.00000000000E+00  0.87232920619E+02  0.87232920619E+02  0.00000000000E+00 0.  1.
          2   -1    0    0  503    0 -0.00000000000E+00 -0.00000000000E+00 -0.77602409203E+03  0.77602409203E+03  0.00000000000E+00 0. -1.
         24    2    1    2    0    0 -0.62235486357E+02 -0.95438631009E+00 -0.46943588338E+03  0.48040309454E+03  0.80888305849E+02 0.  0.
         23    2    1    2    0    0  0.11282964670E+03 -0.52487417401E+02 -0.44977014471E+02  0.15551449840E+03  0.81709052258E+02 0.  0.
        -11    1    3    3    0    0 -0.31712301250E+01  0.25881036576E+02 -0.54384464677E+02  0.60312144324E+02  0.00000000000E+00 0.  1.
         12    1    3    3    0    0 -0.59064256232E+02 -0.26835422886E+02 -0.41505141870E+03  0.42009095021E+03  0.00000000000E+00 0. -1.
        -11    1    4    4    0    0  0.11079214893E+03 -0.18686787675E+02 -0.46544753428E+02  0.12161624221E+03  0.00000000000E+00 0.  1.
         11    1    4    4    0    0  0.20374977734E+01 -0.33800629726E+02  0.15677389571E+01  0.33898256187E+02  0.00000000000E+00 0. -1.
         21    1    1    2  503  502 -0.23049484782E+02  0.26659800941E+02 -0.18431709657E+03  0.18765611054E+03  0.00000000000E+00 0. -1.
          1    1    1    2  501    0 -0.27544675565E+02  0.26782002770E+02  0.99388230042E+01  0.39683309174E+02  0.00000000000E+00 0. -1.
<scales pt_clust_5="13000.00000" pt_clust_6="13000.00000" pt_clust_7="13000.00000" pt_clust_8="13000.00000" pt_clust_9="35.24236" pt_clust_10="39.30360"></scales>
<clustering>
<clus scale="   35.242">  2  9  1 -1</clus>
<clus scale="   39.304">  1 10  2 -1</clus>
<clus scale="   80.888">  5  6 -1 -1</clus>
<clus scale="   81.709">  7  8 -1 -1</clus>
<clus scale="  119.805">  2  5  1 -1</clus>
<clus scale="   39.304">  1  5  2 -1</clus>
</clustering>
</event>
<event>
10    4  0.3738096E-005  0.1034641E+03  0.7546771E-02  0.1278650E+00
         21   -1    0    0  501  502  0.00000000000E+00  0.00000000000E+00  0.48468377545E+03  0.48468377545E+03  0.00000000000E+00 0.  1.
          2   -1    0    0  503    0 -0.00000000000E+00 -0.00000000000E+00 -0.36302719684E+03  0.36302719684E+03  0.00000000000E+00 0. -1.
         23    2    1    2    0    0 -0.42347584579E+02  0.56809856648E+02  0.97535222022E+02  0.15112653509E+03  0.91134144758E+02 0.  0.
         24    2    1    2    0    0  0.79753622332E+01 -0.26481205537E+01  0.34982863149E+03  0.35879091464E+03  0.79247902632E+02 0.  0.
        -13    1    4    4    0    0  0.20255062806E+02 -0.36732374578E+02  0.22196773658E+03  0.22589646079E+03  0.00000000000E+00 0.  1.
         14    1    4    4    0    0 -0.12279700572E+02  0.34084254025E+02  0.12786089491E+03  0.13289445386E+03  0.00000000000E+00 0. -1.
        -11    1    3    3    0    0 -0.65294065330E+02  0.21430971877E+02  0.39103112986E+02  0.79067407749E+02  0.00000000000E+00 0.  1.
         11    1    3    3    0    0  0.22946480751E+02  0.35378884771E+02  0.58432109036E+02  0.72059127339E+02  0.00000000000E+00 0. -1.
         21    1    1    2  503  502  0.73853179454E+00 -0.45066060496E+02 -0.25517320355E+03  0.25912325069E+03  0.00000000000E+00 0. -1.
          1    1    1    2  501    0  0.33633690552E+02 -0.90956755985E+01 -0.70534071352E+02  0.78670271871E+02  0.00000000000E+00 0. -1.
<scales pt_clust_5="13000.00000" pt_clust_6="13000.00000" pt_clust_7="13000.00000" pt_clust_8="13000.00000" pt_clust_9="45.11196" pt_clust_10="34.84190"></scales>
<clustering>
<clus scale="   34.842">  1 10  2 -1</clus>
<clus scale="   45.112">  2  9  1 -1</clus>
<clus scale="   79.248">  5  6 -1 -1</clus>
<clus scale="   91.134">  7  8 -1 -1</clus>
<clus scale="   93.164">  1  5  2 -1</clus>
<clus scale="   34.842">  1  5  2 -1</clus>
</clustering>
</event>
<event>
10    4  0.3738096E-005  0.1290387E+03  0.7546771E-02  0.1249477E+00
          2   -1    0    0  503    0 -0.00000000000E+00  0.00000000000E+00  0.13181367114E+04  0.13181367114E+04  0.00000000000E+00 0. -1.
         21   -1    0    0  501  502  0.00000000000E+00 -0.00000000000E+00 -0.12630740250E+03  0.12630740250E+03  0.00000000000E+00 0. -1.
         24    2    1    2    0    0  0.22856400052E+01  0.11733442533E+02  0.84220724889E+03  0.84646253646E+03  0.83921854875E+02 0.  0.
         23    2    1    2    0    0  0.52577012804E+02 -0.80136724831E+02  0.47573391052E+02  0.13976709708E+03  0.89918724130E+02 0.  0.
        -13    1    3    3    0    0  0.20988705940E+02  0.15300848504E+02  0.81967121293E+02  0.85984014300E+02  0.00000000000E+00 0.  1.
         14    1    3    3    0    0 -0.18703065935E+02 -0.35674059715E+01  0.76024012760E+03  0.76047852216E+03  0.00000000000E+00 0. -1.
        -11    1    4    4    0    0  0.72299469240E+02 -0.62417042940E+02  0.13301475389E+02  0.96436661852E+02  0.00000000000E+00 0.  1.
         11    1    4    4    0    0 -0.19722456436E+02 -0.17719681891E+02  0.34271915663E+02  0.43330435232E+02  0.00000000000E+00 0. -1.
         21    1    1    2  503  502 -0.72787274968E+02  0.50401062374E+02  0.37273314512E+03  0.38310344812E+03  0.00000000000E+00 0. -1.
          1    1    1    2  501    0  0.17924622158E+02  0.18002219925E+02 -0.70684476140E+02  0.75111032272E+02  0.00000000000E+00 0. -1.
<scales pt_clust_5="13000.00000" pt_clust_6="13000.00000" pt_clust_7="13000.00000" pt_clust_8="13000.00000" pt_clust_9="92.55057" pt_clust_10="25.40417"></scales>
<clustering>
<clus scale="   25.404">  2 10  1 -1</clus>
<clus scale="   83.922">  5  6 -1 -1</clus>
<clus scale="   84.893">  1  5  2 -1</clus>
<clus scale="   89.919">  7  8 -1 -1</clus>
<clus scale="   92.551">  1  9  2 -1</clus>
<clus scale="   25.404">  2  5  1 -1</clus>
</clustering>
</event>
<event>
10    4  0.3738096E-005  0.1731631E+03  0.7546771E-02  0.1175999E+00
          2   -1    0    0  503    0 -0.00000000000E+00  0.00000000000E+00  0.50720331231E+03  0.50720331231E+03  0.00000000000E+00 0. -1.
         21   -1    0    0  501  502  0.00000000000E+00 -0.00000000000E+00 -0.13011827766E+03  0.13011827766E+03  0.00000000000E+00 0.  1.
         23    2    1    2    0    0  0.10265586514E+03  0.10925003185E+03  0.23645412972E+03  0.29505556433E+03  0.93131275478E+02 0.  0.
         24    2    1    2    0    0 -0.42121822291E+02 -0.14382192500E+03  0.11379568660E+03  0.20548629402E+03  0.82560067335E+02 0.  0.
        -13    1    4    4    0    0  0.15249799151E+02 -0.92280170785E+02  0.69706827718E+02  0.11665002411E+03  0.00000000000E+00 0.  1.
         14    1    4    4    0    0 -0.57371621442E+02 -0.51541754215E+02  0.44088858885E+02  0.88836269914E+02  0.00000000000E+00 0. -1.
        -13    1    3    3    0    0  0.82098794624E+01  0.33807692651E+02  0.66802961911E+01  0.35425817709E+02  0.00000000000E+00 0.  1.
         13    1    3    3    0    0  0.94445985677E+02  0.75442339198E+02  0.22977383353E+03  0.25962974662E+03  0.00000000000E+00 0. -1.
         21    1    1    2  503  502 -0.62516867137E+02 -0.22876859517E+02  0.40195003397E+02  0.77764694277E+02  0.00000000000E+00 0. -1.
          1    1    1    2  501    0  0.19828242889E+01  0.57448752668E+02 -0.13359785078E+02  0.59015037343E+02  0.00000000000E+00 0. -1.
<scales pt_clust_5="13000.00000" pt_clust_6="13000.00000" pt_clust_7="13000.00000" pt_clust_8="13000.00000" pt_clust_9="63.15552" pt_clust_10="57.48296"></scales>
<clustering>
<clus scale="   57.483">  2 10  1 -1</clus>
<clus scale="   63.156">  2  9  1 -1</clus>
<clus scale="   82.560">  5  6 -1 -1</clus>
<clus scale="   93.131">  7  8 -1 -1</clus>
<clus scale="  167.715">  2  5  1 -1</clus>
<clus scale="   57.483">  2  5  1 -1</clus>
</clustering>
</event>
<event>
10    4  0.3738096E-005  0.2272922E+03  0.7546771E-02  0.1128560E+00
          2   -1    0    0  503    0 -0.00000000000E+00  0.00000000000E+00  0.11624675275E+03  0.11624675275E+03  0.00000000000E+00 0. -1.
         21   -1    0    0  501  502  0.00000000000E+00 -0.00000000000E+00 -0.43986895694E+03  0.43986895694E+03  0.00000000000E+00 0. -1.
         24    2    1    2    0    0  0.12239935494E+02 -0.46319640285E+02 -0.11951197426E+03  0.15668906806E+03  0.89291807915E+02 0.  0.
         23    2    1    2    0    0 -0.24596424754E+02 -0.10399316018E+03 -0.99466358220E+02  0.16559788177E+03  0.78163550033E+02 0.  0.
        -13    1    3    3    0    0 -0.23013801025E+02 -0.26360365501E+02 -0.10950432448E+03  0.11495956240E+03  0.00000000000E+00 0.  1.
         14    1    3    3    0    0  0.35253736519E+02 -0.19959274784E+02 -0.10007649777E+02  0.41729505659E+02  0.00000000000E+00 0. -1.
        -11    1    4    4    0    0  0.36918204311E+01 -0.69231050676E+02 -0.16446954229E+02  0.71253562853E+02  0.00000000000E+00 0.  1.
         11    1    4    4    0    0 -0.28288245185E+02 -0.34762109508E+02 -0.83019403991E+02  0.94344318918E+02  0.00000000000E+00 0. -1.
         21    1    1    2  503  502  0.32388942490E+02  0.22124924027E+02  0.28068252118E+02  0.48232588939E+02  0.00000000000E+00 0. -1.
          1    1    1    2  501    0 -0.20032453230E+02  0.12818787644E+03 -0.13271212383E+03  0.18559617092E+03  0.00000000000E+00 0. -1.
<scales pt_clust_5="13000.00000" pt_clust_6="13000.00000" pt_clust_7="13000.00000" pt_clust_8="13000.00000" pt_clust_9="39.22443" pt_clust_10="135.98155"></scales>
<clustering>
<clus scale="   39.224">  1  9  2 -1</clus>
<clus scale="   78.164">  7  8 -1 -1</clus>
<clus scale="   89.292">  5  6 -1 -1</clus>
<clus scale="   96.999">  5  7 -1 -1</clus>
<clus scale="  135.982">  2 10  1 -1</clus>
<clus scale="  135.982">  2  5  1 -1</clus>
</clustering>
</event>
<event>
10    4  0.3738096E-005  0.2203558E+03  0.7546771E-02  0.1133984E+00
          2   -1    0    0  503    0 -0.00000000000E+00  0.00000000000E+00  0.10031763016E+04  0.10031763016E+04  0.00000000000E+00 0. -1.
         21   -1    0    0  501  502  0.00000000000E+00 -0.00000000000E+00 -0.26208847147E+03  0.26208847147E+03  0.00000000000E+00 0.  1.
         23    2    1    2    0    0 -0.12519019744E+03  0.15735525451E+03  0.37256303383E+03  0.43280758931E+03  0.89921818984E+02 0.  0.
         24    2    1    2    0    0  0.83407969899E+02 -0.13238850297E+03 -0.19367648338E+03  0.26309802960E+03  0.85008163165E+02 0.  0.
        -13    1    4    4    0    0  0.76777917126E+02 -0.42146026751E+02 -0.95925783869E+02  0.12989569716E+03  0.00000000000E+00 0.  1.
         14    1    4    4    0    0  0.66300527730E+01 -0.90242476217E+02 -0.97750699507E+02  0.13320233244E+03  0.00000000000E+00 0. -1.
        -13    1    3    3    0    0 -0.85448242032E+02  0.14143385665E+03  0.34315482329E+03  0.38086765499E+03  0.00000000000E+00 0.  1.
         13    1    3    3    0    0 -0.39741955412E+02  0.15921397852E+02  0.29408210548E+02  0.51939934320E+02  0.00000000000E+00 0. -1.
         21    1    1    2  503  502  0.45308340697E+01  0.22678629750E+02  0.76854941712E+02  0.80259147580E+02  0.00000000000E+00 0. -1.
          1    1    1    2  501    0  0.37251393475E+02 -0.47645381288E+02  0.48534633795E+03  0.48910000658E+03  0.00000000000E+00 0. -1.
<scales pt_clust_5="13000.00000" pt_clust_6="13000.00000" pt_clust_7="13000.00000" pt_clust_8="13000.00000" pt_clust_9="23.12680" pt_clust_10="53.34208"></scales>
<clustering>
<clus scale="   23.127">  1  9  2 -1</clus>
<clus scale="   53.342">  2 10  1 -1</clus>
<clus scale="   85.008">  5  6 -1 -1</clus>
<clus scale="   89.922">  7  8 -1 -1</clus>
<clus scale="  218.397">  2  5  1 -1</clus>
<clus scale="   53.342">  2  5  1 -1</clus>
</clustering>
</event>
<event>
10    4  0.3738096E-005  0.1884214E+03  0.7546771E-02  0.1178882E+00
          2   -1    0    0  502    0 -0.00000000000E+00  0.00000000000E+00  0.16090521857E+03  0.16090521857E+03  0.00000000000E+00 0. -1.
         21   -1    0    0  503  502  0.00000000000E+00 -0.00000000000E+00 -0.40570225789E+03  0.40570225789E+03  0.00000000000E+00 0. -1.
         24    2    1    2    0    0  0.86909295708E+00 -0.90987686421E+02 -0.72665400332E+02  0.14198291389E+03  0.81236525211E+02 0.  0.
         23    2    1    2    0    0  0.11678457950E+03  0.15068796735E+03 -0.18553073920E+03  0.28114835133E+03  0.90979331452E+02 0.  0.
        -11    1    3    3    0    0  0.18846498103E+02 -0.20998557079E+02  0.12009954859E+02  0.30665435035E+02  0.00000000000E+00 0.  1.
         12    1    3    3    0    0 -0.17977405146E+02 -0.69989129342E+02 -0.84675355191E+02  0.11131747885E+03  0.00000000000E+00 0. -1.
        -11    1    4    4    0    0  0.97600977419E+02  0.63342280659E+02 -0.13577871903E+03  0.17881290740E+03  0.00000000000E+00 0. -1.
         11    1    4    4    0    0  0.19183602085E+02  0.87345686690E+02 -0.49752020177E+02  0.10233544393E+03  0.00000000000E+00 0.  1.
         21    1    1    2  503  501 -0.73242890887E+02 -0.63787192665E+02  0.78599965084E+00  0.97128496380E+02  0.00000000000E+00 0. -1.
          1    1    1    2  501    0 -0.44410781573E+02  0.40869117376E+01  0.12613100560E+02  0.46347714865E+02  0.00000000000E+00 0. -1.
<scales pt_clust_5="13000.00000" pt_clust_6="13000.00000" pt_clust_7="13000.00000" pt_clust_8="13000.00000" pt_clust_9="37.11155" pt_clust_10="173.85275"></scales>
<clustering>
<clus scale="   37.112">  9 10 -1 -1</clus>
<clus scale="   81.237">  5  6 -1 -1</clus>
<clus scale="   90.979">  7  8 -1 -1</clus>
<clus scale="  121.979">  1  5  2 -1</clus>
<clus scale="  173.853">  2  9  1 -1</clus>
<clus scale="  173.853">  2  5  1 -1</clus>
</clustering>
</event>
<event>
10    4  0.3738096E-005  0.2994598E+03  0.7546771E-02  0.1114211E+00
         21   -1    0    0  501  502  0.00000000000E+00  0.00000000000E+00  0.86774180630E+02  0.86774180630E+02  0.00000000000E+00 0.  1.
          2   -1    0    0  503    0 -0.00000000000E+00 -0.00000000000E+00 -0.20585445590E+04  0.20585445590E+04  0.00000000000E+00 0. -1.
         23    2    1    2    0    0  0.17493497559E+02 -0.10355517113E+03 -0.16567971436E+03  0.21811450234E+03  0.95364943531E+02 0.  0.
         24    2    1    2    0    0  0.64442923599E+02  0.34379572321E+03 -0.12033631956E+04  0.12557299804E+04  0.80164913953E+02 0.  0.
        -13    1    4    4    0    0  0.42201379081E+02  0.29052529361E+03 -0.89223950041E+03  0.93929613473E+03  0.00000000000E+00 0.  1.
         14    1    4    4    0    0  0.22241544518E+02  0.53270429603E+02 -0.31112369521E+03  0.31643384568E+03  0.00000000000E+00 0. -1.
        -11    1    3    3    0    0  0.47800898785E+02 -0.60591193053E+02 -0.52564779817E+02  0.93377056483E+02  0.00000000000E+00 0.  1.
         11    1    3    3    0    0 -0.30307401226E+02 -0.42963978077E+02 -0.11311493455E+03  0.12473744586E+03  0.00000000000E+00 0. -1.
         21    1    1    2  503  502  0.27236405776E+02  0.68692996274E+00 -0.96965755935E+02  0.10072066072E+03  0.00000000000E+00 0.  1.
          1    1    1    2  501    0 -0.10917282693E+03 -0.24092748204E+03 -0.50576171246E+03  0.57075359617E+03  0.00000000000E+00 0. -1.
<scales pt_clust_5="13000.00000" pt_clust_6="13000.00000" pt_clust_7="13000.00000" pt_clust_8="13000.00000" pt_clust_9="27.24507" pt_clust_10="288.53039"></scales>
<clustering>
<clus scale="   27.245">  2  9  1 -1</clus>
<clus scale="   80.165">  5  6 -1 -1</clus>
<clus scale="   95.365">  7  8 -1 -1</clus>
<clus scale="  142.164">  2  7  1 -1</clus>
<clus scale="  288.530">  1 10  2 -1</clus>
<clus scale="  288.530">  1  5  2 -1</clus>
</clustering>
</event>
<event>
10    4  0.3738096E-005  0.2066993E+03  0.7546771E-02  0.1144948E+00
          2   -1    0    0  503    0 -0.00000000000E+00  0.00000000000E+00  0.15233165428E+04  0.15233165428E+04  0.00000000000E+00 0. -1.
         21   -1    0    0  501  502  0.00000000000E+00 -0.00000000000E+00 -0.20037236617E+03  0.20037236617E+03  0.00000000000E+00 0.  1.
         24    2    1    2    0    0 -0.14333212675E+03  0.55978279196E+02  0.13054353387E+04  0.13174118597E+04  0.87948384798E+02 0.  0.
         23    2    1    2    0    0  0.15012811327E+03 -0.82948759879E+02 -0.36566222779E+02  0.19995025373E+03  0.96042012465E+02 0.  0.
        -13    1    3    3    0    0 -0.29246306532E+02  0.20207405796E+02  0.10132079393E+03  0.10737592364E+03  0.00000000000E+00 0.  1.
         14    1    3    3    0    0 -0.11408582022E+03  0.35770873399E+02  0.12041145448E+04  0.12100359361E+04  0.00000000000E+00 0. -1.
        -11    1    4    4    0    0  0.31469221978E+02 -0.58608773839E+02  0.15176387552E+02  0.68232126172E+02  0.00000000000E+00 0.  1.
         11    1    4    4    0    0  0.11865889129E+03 -0.24339986039E+02 -0.51742610331E+02  0.13171812756E+03  0.00000000000E+00 0. -1.
         21    1    1    2  503  502 -0.31550315470E+02  0.83116403123E+01  0.12485963382E+03  0.12905205899E+03  0.00000000000E+00 0. -1.
          1    1    1    2  501    0  0.24754328951E+02  0.18658840371E+02 -0.70784573061E+02  0.77274736552E+02  0.00000000000E+00 0. -1.
<scales pt_clust_5="13000.00000" pt_clust_6="13000.00000" pt_clust_7="13000.00000" pt_clust_8="13000.00000" pt_clust_9="32.31099" pt_clust_10="30.99886"></scales>
<clustering>
<clus scale="   30.999">  2 10  1 -1</clus>
<clus scale="   32.311">  1  9  2 -1</clus>
<clus scale="   87.948">  5  6 -1 -1</clus>
<clus scale="   96.042">  7  8 -1 -1</clus>
<clus scale="  203.065">  1  5  2 -1</clus>
<clus scale="   30.999">  2  5  1 -1</clus>
</clustering>
</event>
<event>
10    4  0.3738096E-005  0.9346376E+02  0.7546771E-02  0.1300176E+00
         21   -1    0    0  501  502  0.00000000000E+00  0.00000000000E+00  0.39628159708E+02  0.39628159708E+02  0.00000000000E+00 0.  1.
          2   -1    0    0  503    0 -0.00000000000E+00 -0.00000000000E+00 -0.58863793610E+03  0.58863793610E+03  0.00000000000E+00 0. -1.
         23    2    1    2    0    0  0.10769153684E+02  0.19141013708E+02 -0.17214525731E+03  0.19598015987E+03  0.91059762625E+02 0.  0.
         24    2    1    2    0    0  0.55214671925E+02  0.25619532707E+02 -0.14800079870E+03  0.17969803161E+03  0.81744270116E+02 0.  0.
        -11    1    4    4    0    0  0.76263886689E+02  0.14096827154E+02 -0.11921182391E+03  0.14221940764E+03  0.00000000000E+00 0.  1.
         12    1    4    4    0    0 -0.21049214764E+02  0.11522705553E+02 -0.28788974793E+02  0.37478623975E+02  0.00000000000E+00 0. -1.
        -11    1    3    3    0    0 -0.19375938260E+02  0.47955580887E+02 -0.88178382916E+02  0.10222813671E+03  0.00000000000E+00 0.  1.
         11    1    3    3    0    0  0.30145091943E+02 -0.28814567179E+02 -0.83966874398E+02  0.93752023158E+02  0.00000000000E+00 0. -1.
         21    1    1    2  503  502 -0.26003550875E+02 -0.70432691972E+01 -0.16973061182E+03  0.17185538364E+03  0.00000000000E+00 0. -1.
          1    1    1    2  501    0 -0.39980274734E+02 -0.37717277218E+02 -0.59133108563E+02  0.80732520690E+02  0.00000000000E+00 0. -1.
<scales pt_clust_5="13000.00000" pt_clust_6="13000.00000" pt_clust_7="13000.00000" pt_clust_8="13000.00000" pt_clust_9="26.94053" pt_clust_10="58.97681"></scales>
<clustering>
<clus scale="   26.941">  2  9  1 -1</clus>
<clus scale="   58.977">  1 10  2 -1</clus>
<clus scale="   81.744">  5  6 -1 -1</clus>
<clus scale="   84.414">  1  5  2 -1</clus>
<clus scale="   91.060">  7  8 -1 -1</clus>
<clus scale="   58.977">  1  5  2 -1</clus>
</clustering>
</event>
<event>
10    4  0.3738096E-005  0.1609775E+03  0.7546771E-02  0.1188355E+00
         21   -1    0    0  501  502  0.00000000000E+00  0.00000000000E+00  0.33756019424E+03  0.33756019424E+03  0.00000000000E+00 0. -1.
          2   -1    0    0  503    0 -0.00000000000E+00 -0.00000000000E+00 -0.40337855712E+03  0.40337855712E+03  0.00000000000E+00 0. -1.
         23    2    1    2    0    0  0.15883563812E+03 -0.70080997475E+02 -0.18436477955E+03  0.26680718189E+03  0.83997584648E+02 0.  0.
         24    2    1    2    0    0 -0.37427728468E+01  0.15664137470E+03  0.12214422460E+03  0.21370397393E+03  0.78737845135E+02 0.  0.
        -11    1    4    4    0    0 -0.30089872650E+02  0.19885410612E+02  0.23846927247E+02  0.43237783598E+02  0.00000000000E+00 0.  1.
         12    1    4    4    0    0  0.26347099804E+02  0.13675596408E+03  0.98297297354E+02  0.17046619034E+03  0.00000000000E+00 0. -1.
        -11    1    3    3    0    0  0.86739697389E+02 -0.41909950077E+02 -0.15796990833E+03  0.18502624397E+03  0.00000000000E+00 0. -1.
         11    1    3    3    0    0  0.72095940728E+02 -0.28171047399E+02 -0.26394871220E+02  0.81780937924E+02  0.00000000000E+00 0.  1.
         21    1    1    2  503  502 -0.84078205523E+02 -0.43687712921E+02 -0.96938039692E+02  0.13555347448E+03  0.00000000000E+00 0. -1.
          1    1    1    2  501    0 -0.71014659747E+02 -0.42872664300E+02  0.93340231766E+02  0.12487412106E+03  0.00000000000E+00 0. -1.
<scales pt_clust_5="13000.00000" pt_clust_6="13000.00000" pt_clust_7="13000.00000" pt_clust_8="13000.00000" pt_clust_9="101.74846" pt_clust_10="82.95268"></scales>
<clustering>
<clus scale="   78.738">  5  6 -1 -1</clus>
<clus scale="   82.953">  1 10  2 -1</clus>
<clus scale="   83.998">  7  8 -1 -1</clus>
<clus scale="  101.748">  2  9  1 -1</clus>
<clus scale="  158.297">  1  5  2 -1</clus>
<clus scale="   82.953">  1  5  2 -1</clus>
</clustering>
</event>
<event>
10    4  0.3738096E-005  0.9778010E+02  0.7546771E-02  0.1290786E+00
          2   -1    0    0  503    0 -0.00000000000E+00  0.00000000000E+00  0.13116057611E+03  0.13116057611E+03  0.00000000000E+00 0. -1.
         21   -1    0    0  501  502  0.00000000000E+00 -0.00000000000E+00 -0.27454955428E+03  0.27454955428E+03  0.00000000000E+00 0. -1.
         23    2    1    2    0    0 -0.26506688928E+02  0.41109155518E+02  0.18966874485E+01  0.10336186896E+03  0.91035769378E+02 0.  0.
         24    2    1    2    0    0  0.31262438455E+02 -0.47355961142E+01 -0.40695267584E+01  0.86286534022E+02  0.80181288197E+02 0.  0.
        -13    1    4    4    0    0  0.43602377561E+02  0.12331289211E+02 -0.28886993123E+02  0.53737197491E+02  0.00000000000E+00 0.  1.
         14    1    4    4    0    0 -0.12339939106E+02 -0.17066885326E+02  0.24817466364E+02  0.32549336531E+02  0.00000000000E+00 0. -1.
        -11    1    3    3    0    0 -0.44269390765E+02  0.61025490385E+02 -0.57238754970E+01  0.75608545722E+02  0.00000000000E+00 0.  1.
         11    1    3    3    0    0  0.17762701837E+02 -0.19916334868E+02  0.76205629455E+01  0.27753323237E+02  0.00000000000E+00 0. -1.
         21    1    1    2  503  502  0.23118660792E+02 -0.31620692558E+01  0.30813796229E+02  0.38651794225E+02  0.00000000000E+00 0.  1.
          1    1    1    2  501    0 -0.27874410318E+02 -0.33211490148E+02 -0.17202993509E+03  0.17740993319E+03  0.00000000000E+00 0. -1.
<scales pt_clust_5="13000.00000" pt_clust_6="13000.00000" pt_clust_7="13000.00000" pt_clust_8="13000.00000" pt_clust_9="23.33391" pt_clust_10="43.01528"></scales>
<clustering>
<clus scale="   23.334">  1  9  2 -1</clus>
<clus scale="   43.015">  2 10  1 -1</clus>
<clus scale="   80.181">  5  6 -1 -1</clus>
<clus scale="   87.764">  2  5  1 -1</clus>
<clus scale="   91.036">  7  8 -1 -1</clus>
<clus scale="   43.015">  2  5  1 -1</clus>
</clustering>
</event>
<event>
10    4  0.3738096E-005  0.2002622E+03  0.7546771E-02  0.1176855E+00
         21   -1    0    0  501  502  0.00000000000E+00  0.00000000000E+00  0.19770640870E+03  0.19770640870E+03  0.00000000000E+00 0.  1.
          4   -1    0    0  503    0 -0.00000000000E+00 -0.00000000000E+00 -0.77543812499E+03  0.77543812499E+03  0.00000000000E+00 0. -1.
         23    2    1    2    0    0  0.35733120046E+02  0.37636058433E+02  0.12459754706E+02  0.10707702271E+03  0.92827337261E+02 0.  0.
         24    2    1    2    0    0  0.18804603024E+03  0.32595984496E+02 -0.85340521360E+02  0.22369904395E+03  0.79589257984E+02 0.  0.
        -13    1    4    4    0    0  0.18931426426E+03  0.34213389353E+02 -0.64719013058E+02  0.20297536135E+03  0.00000000000E+00 0.  1.
         14    1    4    4    0    0 -0.12682340244E+01 -0.16174048574E+01 -0.20621508301E+02  0.20723682603E+02  0.00000000000E+00 0. -1.
        -13    1    3    3    0    0  0.37119266960E+02  0.77227590648E+01  0.47634919563E+02  0.60881578076E+02  0.00000000000E+00 0.  1.
         13    1    3    3    0    0 -0.13861469140E+01  0.29913299369E+02 -0.35175164858E+02  0.46195444636E+02  0.00000000000E+00 0. -1.
         21    1    1    2  503  502 -0.17692851991E+03  0.89233403103E+02 -0.14360450614E+03  0.24472138356E+03  0.00000000000E+00 0.  1.
          3    1    1    2  501    0 -0.46850630370E+02 -0.15946544603E+03 -0.36124644350E+03  0.39764708346E+03  0.00000000000E+00 0. -1.
<scales pt_clust_5="13000.00000" pt_clust_6="13000.00000" pt_clust_7="13000.00000" pt_clust_8="13000.00000" pt_clust_9="183.76750" pt_clust_10="142.67300"></scales>
<clustering>
<clus scale="   79.589">  5  6 -1 -1</clus>
<clus scale="   92.827">  7  8 -1 -1</clus>
<clus scale="  106.350">  2  7  1 -1</clus>
<clus scale="  142.673">  1 10  2 -1</clus>
<clus scale="  183.767">  2  9  1 -1</clus>
<clus scale="  142.673">  1  5  2 -1</clus>
</clustering>
</event>
<event>
10    4  0.3738096E-005  0.9387582E+02  0.7546771E-02  0.1300511E+00
         -1   -1    0    0    0  501 -0.00000000000E+00  0.00000000000E+00  0.33762585637E+03  0.33762585637E+03  0.00000000000E+00 0.  1.
         21   -1    0    0  503  502  0.00000000000E+00 -0.00000000000E+00 -0.95607746559E+02  0.95607746559E+02  0.00000000000E+00 0.  1.
         23    2    1    2    0    0  0.69486278388E+00  0.11741733006E+02  0.22307779110E+03  0.24081244301E+03  0.89936537058E+02 0.  0.
         24    2    1    2    0    0 -0.26829139668E+02 -0.14578772261E+02  0.15623178576E+02  0.85481846609E+02  0.78298908389E+02 0.  0.
        -13    1    4    4    0    0 -0.48093708235E+02  0.54770681176E+01 -0.64785171704E+01  0.48836197965E+02  0.00000000000E+00 0.  1.
         14    1    4    4    0    0  0.21264568567E+02 -0.20055840378E+02  0.22101695747E+02  0.36645648644E+02  0.00000000000E+00 0. -1.
        -11    1    3    3    0    0 -0.25169029753E+02  0.25508866270E+02  0.20088573694E+03  0.20405700582E+03  0.00000000000E+00 0.  1.
         11    1    3    3    0    0  0.25863892537E+02 -0.13767133264E+02  0.22192054165E+02  0.36755437197E+02  0.00000000000E+00 0. -1.
         21    1    1    2  503  501  0.12828510316E+02  0.18087315495E+02  0.50742373612E+02  0.55376079118E+02  0.00000000000E+00 0. -1.
         -2    1    1    2    0  502  0.13305766568E+02 -0.15250276240E+02 -0.47425233481E+02  0.51563234189E+02  0.00000000000E+00 0.  1.
<scales pt_clust_5="13000.00000" pt_clust_6="13000.00000" pt_clust_7="13000.00000" pt_clust_8="13000.00000" pt_clust_9="21.95883" pt_clust_10="20.23893"></scales>
<clustering>
<clus scale="   20.239">  2 10  1 -1</clus>
<clus scale="   21.959">  1  9  2 -1</clus>
<clus scale="   78.299">  5  6 -1 -1</clus>
<clus scale="   82.794">  2  5  1 -1</clus>
<clus scale="   89.937">  7  8 -1 -1</clus>
<clus scale="   20.239">  2  5  1 -1</clus>
</clustering>
</event>
<event>
10    4  0.5339312E-005  0.1022203E+03  0.7546771E-02  0.1281489E+00
         21   -1    0    0  501  502  0.00000000000E+00  0.00000000000E+00  0.27425851816E+03  0.27425851816E+03  0.00000000000E+00 0. -1.
          4   -1    0    0  503    0 -0.00000000000E+00 -0.00000000000E+00 -0.40804817458E+03  0.40804817458E+03  0.00000000000E+00 0. -1.
         24    2    1    2    0    0 -0.32301484130E+02 -0.42803249494E+02 -0.28067994121E+03  0.29678071049E+03  0.80137735672E+02 0.  0.
         23    2    1    2    0    0  0.25164955872E+02  0.51705938271E+02 -0.41236822888E+02  0.11619592760E+03  0.92164195718E+02 0.  0.
        -13    1    3    3    0    0  0.10433139980E+02 -0.45362862189E+02 -0.89664618816E+02  0.10102664769E+03  0.00000000000E+00 0.  1.
         14    1    3    3    0    0 -0.42734624110E+02  0.25596126952E+01 -0.19101532239E+03  0.19575406280E+03  0.00000000000E+00 0. -1.
        -11    1    4    4    0    0  0.43285047714E+02 -0.51759507597E+01 -0.35505753405E+02  0.56223165570E+02  0.00000000000E+00 0.  1.
         11    1    4    4    0    0 -0.18120091842E+02  0.56881889030E+02 -0.57310694832E+01  0.59972762030E+02  0.00000000000E+00 0. -1.
         21    1    1    2  503  502 -0.60692223332E+00  0.22751299669E+02 -0.36139118814E+02  0.42708616225E+02  0.00000000000E+00 0. -1.
          3    1    1    2  501    0  0.77434504916E+01 -0.31653988446E+02  0.22426622649E+03  0.22662143843E+03  0.00000000000E+00 0. -1.
<scales pt_clust_5="13000.00000" pt_clust_6="13000.00000" pt_clust_7="13000.00000" pt_clust_8="13000.00000" pt_clust_9="22.75939" pt_clust_10="32.51630"></scales>
<clustering>
<clus scale="   22.759">  2  9  1 -1</clus>
<clus scale="   32.516">  1 10  2 -1</clus>
<clus scale="   80.138">  5  6 -1 -1</clus>
<clus scale="   91.525">  2  5  1 -1</clus>
<clus scale="   92.164">  7  8 -1 -1</clus>
<clus scale="   32.516">  1  5  2 -1</clus>
</clustering>
</event>
<event>
10    4  0.3738096E-005  0.1600512E+03  0.7546771E-02  0.1190472E+00
         -1   -1    0    0    0  501 -0.00000000000E+00  0.00000000000E+00  0.17261524436E+03  0.17261524436E+03  0.00000000000E+00 0.  1.
         21   -1    0    0  503  502  0.00000000000E+00 -0.00000000000E+00 -0.11573855604E+04  0.11573855604E+04  0.00000000000E+00 0. -1.
         24    2    1    2    0    0 -0.95810387650E+02 -0.89979158620E+02  0.10664317748E+03  0.18753584264E+03  0.80752991294E+02 0.  0.
         23    2    1    2    0    0  0.15770393395E+03  0.90580077793E+02 -0.59429590322E+03  0.62831371147E+03  0.92277939767E+02 0.  0.
        -11    1    3    3    0    0 -0.23084700481E+02 -0.74764257807E+02  0.40730885011E+02  0.88213392609E+02  0.00000000000E+00 0.  1.
         12    1    3    3    0    0 -0.72725687169E+02 -0.15214900813E+02  0.65912292474E+02  0.99322450031E+02  0.00000000000E+00 0. -1.
        -13    1    4    4    0    0  0.52202674364E+02  0.68604419179E+02 -0.36372731822E+03  0.37380375541E+03  0.00000000000E+00 0. -1.
         13    1    4    4    0    0  0.10550125959E+03  0.21975658614E+02 -0.23056858500E+03  0.25450995606E+03  0.00000000000E+00 0.  1.
         21    1    1    2  503  501 -0.13240707107E+02  0.31509222699E+02 -0.37056179517E+02  0.50411386414E+02  0.00000000000E+00 0.  1.
         -2    1    1    2    0  502 -0.48652839194E+02 -0.32110141872E+02 -0.46006141084E+03  0.46373986428E+03  0.00000000000E+00 0.  1.
<scales pt_clust_5="13000.00000" pt_clust_6="13000.00000" pt_clust_7="13000.00000" pt_clust_8="13000.00000" pt_clust_9="34.17817" pt_clust_10="58.22504"></scales>
<clustering>
<clus scale="   34.178">  1  9  2 -1</clus>
<clus scale="   58.225">  2 10  1 -1</clus>
<clus scale="   80.753">  5  6 -1 -1</clus>
<clus scale="   92.278">  7  8 -1 -1</clus>
<clus scale="  153.695">  1  5  2 -1</clus>
<clus scale="   58.225">  2  5  1 -1</clus>
</clustering>
</event>
<event>
10    4  0.3738096E-005  0.1128240E+03  0.7546771E-02  0.1261142E+00
         21   -1    0    0  501  502  0.00000000000E+00  0.00000000000E+00  0.70449548672E+03  0.70449548672E+03  0.00000000000E+00 0.  1.
         -1   -1    0    0    0  501 -0.00000000000E+00 -0.00000000000E+00 -0.86323321430E+02  0.86323321430E+02  0.00000000000E+00 0.  1.
         23    2    1    2    0    0 -0.24590647468E+02 -0.36419549959E+02  0.25587012466E+02  0.10400304760E+03  0.90724060425E+02 0.  0.
         24    2    1    2    0    0 -0.52304354800E+02 -0.55029143658E+02  0.53144218331E+03  0.54254739975E+03  0.78504360334E+02 0.  0.
        -13    1    4    4    0    0 -0.24067974530E+02 -0.72171323256E+02  0.38097945204E+03  0.38850136444E+03  0.00000000000E+00 0.  1.
         14    1    4    4    0    0 -0.28236380270E+02  0.17142179598E+02  0.15046273128E+03  0.15404603531E+03  0.00000000000E+00 0. -1.
        -11    1    3    3    0    0  0.15685845633E+02  0.21543890707E+02  0.19767831830E+02  0.33180599079E+02  0.00000000000E+00 0. -1.
         11    1    3    3    0    0 -0.40276493102E+02 -0.57963440666E+02  0.58191806366E+01  0.70822448516E+02  0.00000000000E+00 0.  1.
         21    1    1    2  503  502  0.41677903626E+02  0.52956780534E+02  0.49221805621E+01  0.67569935005E+02  0.00000000000E+00 0.  1.
         -2    1    1    2    0  503  0.35217098643E+02  0.38491913083E+02  0.56220788950E+02  0.76698425797E+02  0.00000000000E+00 0.  1.
<scales pt_clust_5="13000.00000" pt_clust_6="13000.00000" pt_clust_7="13000.00000" pt_clust_8="13000.00000" pt_clust_9="46.55156" pt_clust_10="96.77560"></scales>
<clustering>
<clus scale="   46.552">  9 10 -1 -1</clus>
<clus scale="   78.504">  5  6 -1 -1</clus>
<clus scale="   90.724">  7  8 -1 -1</clus>
<clus scale="  100.806">  2  7  1 -1</clus>
<clus scale="   96.776">  1  9  2 -1</clus>
<clus scale="   96.776">  1  5  2 -1</clus>
</clustering>
</event>
<event>
10    4  0.3738096E-005  0.1249130E+03  0.7546771E-02  0.1235441E+00
         21   -1    0    0  501  502  0.00000000000E+00  0.00000000000E+00  0.23260107327E+03  0.23260107327E+03  0.00000000000E+00 0. -1.
          2   -1    0    0  503    0 -0.00000000000E+00 -0.00000000000E+00 -0.11854736169E+03  0.11854736169E+03  0.00000000000E+00 0. -1.
         24    2    1    2    0    0  0.84530616269E+02  0.50496459172E+02  0.29454271809E+02  0.13052908514E+03  0.80467201169E+02 0.  0.
         23    2    1    2    0    0 -0.90717699116E+02 -0.46515254503E+02  0.92919647440E+02  0.15922547514E+03  0.79531888070E+02 0.  0.
        -11    1    3    3    0    0  0.47654125363E+02  0.70235041459E+02  0.14476427428E+02  0.86101356923E+02  0.00000000000E+00 0.  1.
         12    1    3    3    0    0  0.36876490906E+02 -0.19738582287E+02  0.14977844381E+02  0.44427728217E+02  0.00000000000E+00 0. -1.
        -11    1    4    4    0    0 -0.37360093756E+02 -0.20820819205E+02 -0.67396279069E+01  0.43297871797E+02  0.00000000000E+00 0.  1.
         11    1    4    4    0    0 -0.53357605360E+02 -0.25694435297E+02  0.99659275347E+02  0.11592760335E+03  0.00000000000E+00 0. -1.
         21    1    1    2  503  502 -0.61564604564E+01 -0.27216104186E+02 -0.18172528514E+02  0.33299536408E+02  0.00000000000E+00 0. -1.
          1    1    1    2  501    0  0.12343543303E+02  0.23234899517E+02  0.98523208359E+01  0.28094338268E+02  0.00000000000E+00 0. -1.
<scales pt_clust_5="13000.00000" pt_clust_6="13000.00000" pt_clust_7="13000.00000" pt_clust_8="13000.00000" pt_clust_9="27.00606" pt_clust_10="26.31014"></scales>
<clustering>
<clus scale="   26.310">  1 10  2 -1</clus>
<clus scale="   27.006">  2  9  1 -1</clus>
<clus scale="   79.532">  7  8 -1 -1</clus>
<clus scale="   80.467">  5  6 -1 -1</clus>
<clus scale="  124.313">  1  7  2 -1</clus>
<clus scale="   26.310">  1  5  2 -1</clus>
</clustering>
</event>
<event>
10    4  0.3738096E-005  0.1769770E+03  0.7546771E-02  0.1173276E+00
          2   -1    0    0  503    0 -0.00000000000E+00  0.00000000000E+00  0.47267323426E+03  0.47267323426E+03  0.00000000000E+00 0. -1.
         21   -1    0    0  501  502  0.00000000000E+00 -0.00000000000E+00 -0.22698822658E+03  0.22698822658E+03  0.00000000000E+00 0. -1.
         23    2    1    2    0    0 -0.14822100076E+02  0.18541522257E+03  0.23614948775E+03  0.31508447565E+03  0.94409463609E+02 0.  0.
         24    2    1    2    0    0  0.34159365951E+02 -0.76903839623E+02 -0.14208372556E+03  0.18107714076E+03  0.74297261107E+02 0.  0.
        -13    1    4    4    0    0  0.20492464833E+02  0.11024982448E+02 -0.29301072915E+02  0.37417164869E+02  0.00000000000E+00 0.  1.
         14    1    4    4    0    0  0.13666901117E+02 -0.87928822071E+02 -0.11278265264E+03  0.14365997589E+03  0.00000000000E+00 0. -1.
        -11    1    3    3    0    0  0.25822737663E+02  0.12602602747E+03  0.10738374939E+03  0.16757279914E+03  0.00000000000E+00 0. -1.
         11    1    3    3    0    0 -0.40644837739E+02  0.59389195101E+02  0.12876573836E+03  0.14751167651E+03  0.00000000000E+00 0.  1.
         21    1    1    2  503  502  0.21343742423E+02 -0.28748071976E+02  0.83950323303E+02  0.91266991654E+02  0.00000000000E+00 0.  1.
          1    1    1    2  501    0 -0.40681008298E+02 -0.79763310969E+02  0.67668922180E+02  0.11223285277E+03  0.00000000000E+00 0. -1.
<scales pt_clust_5="13000.00000" pt_clust_6="13000.00000" pt_clust_7="13000.00000" pt_clust_8="13000.00000" pt_clust_9="35.80513" pt_clust_10="93.55609"></scales>
<clustering>
<clus scale="   35.805">  1  9  2 -1</clus>
<clus scale="   74.297">  5  6 -1 -1</clus>
<clus scale="   93.556">  2 10  1 -1</clus>
<clus scale="   94.409">  7  8 -1 -1</clus>
<clus scale="  167.116">  2  5  1 -1</clus>
<clus scale="   93.556">  2  5  1 -1</clus>
</clustering>
</event>
<event>
10    4  0.3738096E-005  0.1337630E+03  0.7546771E-02  0.1233949E+00
         21   -1    0    0  501  502  0.00000000000E+00  0.00000000000E+00  0.76304357869E+02  0.76304357869E+02  0.00000000000E+00 0. -1.
          2   -1    0    0  503    0 -0.00000000000E+00 -0.00000000000E+00 -0.51066045652E+03  0.51066045652E+03  0.00000000000E+00 0. -1.
         24    2    1    2    0    0  0.12065923601E+02 -0.66801028087E+02 -0.12089614673E+03  0.15988426808E+03  0.79618697679E+02 0.  0.
         23    2    1    2    0    0  0.39001263246E+02  0.80986357543E+02 -0.13520961948E+03  0.19924490496E+03  0.11548593988E+03 0.  0.
        -11    1    3    3    0    0 -0.25995093676E+02 -0.30570248108E+01 -0.53738530310E+02  0.59773906814E+02  0.00000000000E+00 0.  1.
         12    1    3    3    0    0  0.38061017278E+02 -0.63744003276E+02 -0.67157616417E+02  0.10011036127E+03  0.00000000000E+00 0. -1.
        -11    1    4    4    0    0  0.62777211013E+02  0.56921372706E+01 -0.36497740410E+02  0.72838614102E+02  0.00000000000E+00 0.  1.
         11    1    4    4    0    0 -0.23775947767E+02  0.75294220272E+02 -0.98711879069E+02  0.12640629086E+03  0.00000000000E+00 0. -1.
         21    1    1    2  503  502 -0.18739226470E+02  0.36903761329E+02 -0.15913234992E+03  0.16442673444E+03  0.00000000000E+00 0. -1.
          1    1    1    2  501    0 -0.32327960377E+02 -0.51089090785E+02 -0.19117982526E+02  0.63408906908E+02  0.00000000000E+00 0. -1.
<scales pt_clust_5="13000.00000" pt_clust_6="13000.00000" pt_clust_7="13000.00000" pt_clust_8="13000.00000" pt_clust_9="41.38896" pt_clust_10="58.10744"></scales>
<clustering>
<clus scale="   41.389">  2  9  1 -1</clus>
<clus scale="   58.107">  1 10  2 -1</clus>
<clus scale="   79.619">  5  6 -1 -1</clus>
<clus scale="  104.378">  2  5  1 -1</clus>
<clus scale="  115.486">  7  8 -1 -1</clus>
<clus scale="   58.107">  1  5  2 -1</clus>
</clustering>
</event>
<event>
10    4  0.3738096E-005  0.1021138E+03  0.7546771E-02  0.1277236E+00
         21   -1    0    0  501  502  0.00000000000E+00  0.00000000000E+00  0.15349406715E+03  0.15349406715E+03  0.00000000000E+00 0. -1.
          2   -1    0    0  503    0 -0.00000000000E+00 -0.00000000000E+00 -0.52436879144E+03  0.52436879144E+03  0.00000000000E+00 0. -1.
         23    2    1    2    0    0  0.59961319589E+01  0.51279966845E+02 -0.26824275882E+03  0.28814966663E+03  0.91708582589E+02 0.  0.
         24    2    1    2    0    0 -0.24174235554E+02 -0.80945524707E+02 -0.22584930418E+02  0.12466905073E+03  0.88857872433E+02 0.  0.
        -13    1    4    4    0    0  0.25443725127E+02 -0.61457205150E+02 -0.25608847843E+02  0.71275411616E+02  0.00000000000E+00 0.  1.
         14    1    4    4    0    0 -0.49617960681E+02 -0.19488319557E+02  0.30239174256E+01  0.53393639115E+02  0.00000000000E+00 0. -1.
        -13    1    3    3    0    0  0.38562404324E+02  0.17340297138E+02 -0.52856457968E+02  0.67687148566E+02  0.00000000000E+00 0.  1.
         13    1    3    3    0    0 -0.32566272365E+02  0.33939669707E+02 -0.21538630085E+03  0.22046251806E+03  0.00000000000E+00 0. -1.
         21    1    1    2  503  502 -0.47455319898E+02 -0.28142371098E+02 -0.14562632799E+03  0.15572741519E+03  0.00000000000E+00 0. -1.
          1    1    1    2  501    0  0.65633423493E+02  0.57807928960E+02  0.65579292942E+02  0.10931672604E+03  0.00000000000E+00 0. -1.
<scales pt_clust_5="13000.00000" pt_clust_6="13000.00000" pt_clust_7="13000.00000" pt_clust_8="13000.00000" pt_clust_9="55.17246" pt_clust_10="84.29101"></scales>
<clustering>
<clus scale="   55.172">  2  9  1 -1</clus>
<clus scale="   84.291">  1 10  2 -1</clus>
<clus scale="   88.858">  5  6 -1 -1</clus>
<clus scale="   91.709">  7  8 -1 -1</clus>
<clus scale="   99.561">  1  5  2 -1</clus>
<clus scale="   84.291">  1  5  2 -1</clus>
</clustering>
</event>
<event>
10    4  0.3738096E-005  0.1316617E+03  0.7546771E-02  0.1248746E+00
          2   -1    0    0  503    0 -0.00000000000E+00  0.00000000000E+00  0.87502304110E+03  0.87502304110E+03  0.00000000000E+00 0. -1.
         21   -1    0    0  501  502  0.00000000000E+00 -0.00000000000E+00 -0.31610869741E+03  0.31610869741E+03  0.00000000000E+00 0. -1.
         24    2    1    2    0    0  0.46549713354E+01 -0.40791135454E+01  0.38605231122E+03  0.39434358579E+03  0.80200802543E+02 0.  0.
         23    2    1    2    0    0  0.49520886732E+02 -0.14810804587E+01  0.47686589481E+02  0.11619130307E+03  0.93658402026E+02 0.  0.
        -13    1    3    3    0    0 -0.19042791464E+02 -0.35843246509E+02  0.20993653586E+03  0.21382402886E+03  0.00000000000E+00 0.  1.
         14    1    3    3    0    0  0.23697762799E+02  0.31764132963E+02  0.17611577536E+03  0.18051955693E+03  0.00000000000E+00 0. -1.
        -13    1    4    4    0    0  0.52173890912E+02 -0.31962067656E+02  0.57596692872E+02  0.84030159416E+02  0.00000000000E+00 0.  1.
         13    1    4    4    0    0 -0.26530041803E+01  0.30480987197E+02 -0.99101033911E+01  0.32161143651E+02  0.00000000000E+00 0. -1.
         21    1    1    2  503  502 -0.95259594134E+02  0.56259726042E+02  0.39127388760E+03  0.40661382436E+03  0.00000000000E+00 0. -1.
          1    1    1    2  501    0  0.41083736067E+02 -0.50699532038E+02 -0.26609844462E+03  0.27398302529E+03  0.00000000000E+00 0. -1.
<scales pt_clust_5="13000.00000" pt_clust_6="13000.00000" pt_clust_7="13000.00000" pt_clust_8="13000.00000" pt_clust_9="92.53601" pt_clust_10="65.25577"></scales>
<clustering>
<clus scale="   65.256">  2 10  1 -1</clus>
<clus scale="   80.201">  5  6 -1 -1</clus>
<clus scale="   81.096">  1  5  2 -1</clus>
<clus scale="   92.536">  1  9  2 -1</clus>
<clus scale="   93.658">  7  8 -1 -1</clus>
<clus scale="   65.256">  2  5  1 -1</clus>
</clustering>
</event>
<event>
10    4  0.3738096E-005  0.1219482E+03  0.7546771E-02  0.1243069E+00
         21   -1    0    0  503  502  0.00000000000E+00  0.00000000000E+00  0.16554263316E+03  0.16554263316E+03  0.00000000000E+00 0.  1.
         -3   -1    0    0    0  501 -0.00000000000E+00 -0.00000000000E+00 -0.61886844564E+03  0.61886844564E+03  0.00000000000E+00 0.  1.
         24    2    1    2    0    0  0.85728523772E+02  0.10537102472E+03 -0.53171874815E+02  0.16673299126E+03  0.80747813987E+02 0.  0.
         23    2    1    2    0    0 -0.63506528494E+02  0.61405565453E+02  0.43587013025E+02  0.13418897308E+03  0.91121513166E+02 0.  0.
        -13    1    3    3    0    0  0.88425684205E+02  0.11557959726E+03 -0.55791706050E+02  0.15585396817E+03  0.00000000000E+00 0.  1.
         14    1    3    3    0    0 -0.26971604330E+01 -0.10208572539E+02  0.26198312349E+01  0.10879023090E+02  0.00000000000E+00 0. -1.
        -11    1    4    4    0    0 -0.32926117304E+02  0.59485410993E+02 -0.13575607006E+02  0.69332102430E+02  0.00000000000E+00 0. -1.
         11    1    4    4    0    0 -0.30580411190E+02  0.19201544601E+01  0.57162620031E+02  0.64856870650E+02  0.00000000000E+00 0.  1.
         21    1    1    2  503  501 -0.12907851960E+02 -0.85162326772E+02 -0.34224172698E+03  0.35291448572E+03  0.00000000000E+00 0.  1.
         -4    1    1    2    0  502 -0.93141433172E+01 -0.81614263404E+02 -0.10149922371E+03  0.13057462874E+03  0.00000000000E+00 0.  1.
<scales pt_clust_5="13000.00000" pt_clust_6="13000.00000" pt_clust_7="13000.00000" pt_clust_8="13000.00000" pt_clust_9="89.03597" pt_clust_10="82.14407"></scales>
<clustering>
<clus scale="   80.748">  5  6 -1 -1</clus>
<clus scale="   82.144">  1 10  2 -1</clus>
<clus scale="   89.036">  2  9  1 -1</clus>
<clus scale="   91.122">  7  8 -1 -1</clus>
<clus scale="  114.405">  2  5  1 -1</clus>
<clus scale="   82.144">  1  5  2 -1</clus>
</clustering>
</event>
<event>
10    4  0.3738096E-005  0.9429991E+02  0.7546771E-02  0.1300871E+00
         21   -1    0    0  501  502  0.00000000000E+00  0.00000000000E+00  0.64195470316E+02  0.64195470316E+02  0.00000000000E+00 0.  1.
          2   -1    0    0  503    0 -0.00000000000E+00 -0.00000000000E+00 -0.42256575057E+03  0.42256575057E+03  0.00000000000E+00 0. -1.
         24    2    1    2    0    0  0.92971563868E+01 -0.63348326306E+01 -0.15886309467E+03  0.17818743760E+03  0.79916912155E+02 0.  0.
         23    2    1    2    0    0  0.40421154641E+02  0.46859652863E+01 -0.80015616724E+01  0.10205360953E+03  0.93247446159E+02 0.  0.
        -13    1    3    3    0    0  0.42290333345E+02 -0.10678950834E+02 -0.11595337988E+03  0.12388582886E+03  0.00000000000E+00 0.  1.
         14    1    3    3    0    0 -0.32993176958E+02  0.43441182031E+01 -0.42909714786E+02  0.54301608741E+02  0.00000000000E+00 0. -1.
        -13    1    4    4    0    0  0.70174141439E+02 -0.43718144560E+01 -0.93158781872E+01  0.70924667604E+02  0.00000000000E+00 0.  1.
         13    1    4    4    0    0 -0.29752986799E+02  0.90577797423E+01  0.13143165149E+01  0.31128941923E+02  0.00000000000E+00 0. -1.
         21    1    1    2  503  502 -0.25896957010E+02  0.40758056535E+01 -0.17611578094E+03  0.17805626322E+03  0.00000000000E+00 0. -1.
          1    1    1    2  501    0 -0.23821354017E+02 -0.24269383092E+01 -0.15389842970E+02  0.28463910543E+02  0.00000000000E+00 0. -1.
<scales pt_clust_5="13000.00000" pt_clust_6="13000.00000" pt_clust_7="13000.00000" pt_clust_8="13000.00000" pt_clust_9="26.60556" pt_clust_10="23.94466"></scales>
<clustering>
<clus scale="   23.945">  1 10  2 -1</clus>
<clus scale="   26.606">  2  9  1 -1</clus>
<clus scale="   79.917">  5  6 -1 -1</clus>
<clus scale="   81.142">  2  5  1 -1</clus>
<clus scale="   93.247">  7  8 -1 -1</clus>
<clus scale="   23.945">  1  5  2 -1</clus>
</clustering>
</event>
<event>
10    4  0.3738096E-005  0.1079451E+03  0.7546771E-02  0.1268699E+00
         21   -1    0    0  503  502  0.00000000000E+00  0.00000000000E+00  0.15574953907E+03  0.15574953907E+03  0.00000000000E+00 0.  1.
         -3   -1    0    0    0  501 -0.00000000000E+00 -0.00000000000E+00 -0.17800267285E+03  0.17800267285E+03  0.00000000000E+00 0.  1.
         23    2    1    2    0    0 -0.32634839871E+02 -0.13509668466E+02 -0.43117745121E+02  0.10733128230E+03  0.91724153311E+02 0.  0.
         24    2    1    2    0    0  0.93636968133E+02  0.13283061452E+01  0.47304915557E+02  0.13279869239E+03  0.81413091492E+02 0.  0.
        -13    1    4    4    0    0  0.46049716171E+02 -0.29323747679E+02 -0.61550398589E+01  0.54939448969E+02  0.00000000000E+00 0.  1.
         14    1    4    4    0    0  0.47587251962E+02  0.30652053824E+02  0.53459955416E+02  0.77859243421E+02  0.00000000000E+00 0. -1.
        -11    1    3    3    0    0  0.10142136597E+01 -0.41520717684E+02 -0.47772322475E+02  0.63302396645E+02  0.00000000000E+00 0. -1.
         11    1    3    3    0    0 -0.33649053530E+02  0.28011049218E+02  0.46545773537E+01  0.44028885656E+02  0.00000000000E+00 0.  1.
         21    1    1    2  503  501 -0.13715737789E+02 -0.19123178327E+02 -0.28394415956E+02  0.36878994969E+02  0.00000000000E+00 0. -1.
         -4    1    1    2    0  502 -0.47286390473E+02  0.31304540648E+02  0.19541117348E+01  0.56743242257E+02  0.00000000000E+00 0.  1.
<scales pt_clust_5="13000.00000" pt_clust_6="13000.00000" pt_clust_7="13000.00000" pt_clust_8="13000.00000" pt_clust_9="23.53333" pt_clust_10="57.04790"></scales>
<clustering>
<clus scale="   23.533">  2  9  1 -1</clus>
<clus scale="   57.048">  1 10  2 -1</clus>
<clus scale="   81.413">  5  6 -1 -1</clus>
<clus scale="   91.724">  7  8 -1 -1</clus>
<clus scale="   99.332">  1  5  2 -1</clus>
<clus scale="   57.048">  1  5  2 -1</clus>
</clustering>
</event>
<event>
10    4  0.3738096E-005  0.2394075E+03  0.7546771E-02  0.1120820E+00
          2   -1    0    0  503    0 -0.00000000000E+00  0.00000000000E+00  0.46872906539E+03  0.46872906539E+03  0.00000000000E+00 0. -1.
         21   -1    0    0  501  502  0.00000000000E+00 -0.00000000000E+00 -0.49471289854E+03  0.49471289854E+03  0.00000000000E+00 0.  1.
         24    2    1    2    0    0 -0.12326731316E+03  0.20173369883E+03  0.20032539267E+03  0.32018735094E+03  0.80612412308E+02 0.  0.
         23    2    1    2    0    0  0.87587057166E+02 -0.20976866893E+03 -0.15130265447E+03  0.28783333032E+03  0.91000800795E+02 0.  0.
        -13    1    3    3    0    0 -0.41212362584E+02  0.13313132702E+03  0.86647867599E+02  0.16410442414E+03  0.00000000000E+00 0.  1.
         14    1    3    3    0    0 -0.82054950572E+02  0.68602371806E+02  0.11367752507E+03  0.15608292680E+03  0.00000000000E+00 0. -1.
        -13    1    4    4    0    0  0.56320970613E+02 -0.10282952691E+03 -0.12879427286E+03  0.17416638038E+03  0.00000000000E+00 0.  1.
         13    1    4    4    0    0  0.31266086553E+02 -0.10693914202E+03 -0.22508381608E+02  0.11366694993E+03  0.00000000000E+00 0. -1.
         21    1    1    2  503  502  0.10113419934E+02 -0.18902640897E+02  0.13776992467E+03  0.13942791414E+03  0.00000000000E+00 0.  1.
          1    1    1    2  501    0  0.25566836056E+02  0.26937610999E+02 -0.21277649602E+03  0.21599336854E+03  0.00000000000E+00 0. -1.
<scales pt_clust_5="13000.00000" pt_clust_6="13000.00000" pt_clust_7="13000.00000" pt_clust_8="13000.00000" pt_clust_9="21.43808" pt_clust_10="37.10616"></scales>
<clustering>
<clus scale="   21.438">  1  9  2 -1</clus>
<clus scale="   37.106">  2 10  1 -1</clus>
<clus scale="   80.612">  5  6 -1 -1</clus>
<clus scale="   91.001">  7  8 -1 -1</clus>
<clus scale="  235.655">  1  5  2 -1</clus>
<clus scale="   37.106">  2  5  1 -1</clus>
</clustering>
</event>
<event>
10    4  0.3738096E-005  0.1338495E+03  0.7546771E-02  0.1245233E+00
         21   -1    0    0  501  502  0.00000000000E+00  0.00000000000E+00  0.53183127332E+03  0.53183127332E+03  0.00000000000E+00 0. -1.
          2   -1    0    0  503    0 -0.00000000000E+00 -0.00000000000E+00 -0.13667504898E+03  0.13667504898E+03  0.00000000000E+00 0. -1.
         24    2    1    2    0    0 -0.19600578591E+02  0.17688339921E+02 -0.30339666442E+02  0.90604419592E+02  0.81188702660E+02 0.  0.
         23    2    1    2    0    0  0.86784924483E+02  0.58675267970E+02  0.40920871711E+03  0.43192706408E+03  0.90193150150E+02 0.  0.
        -13    1    3    3    0    0 -0.15304366738E+02 -0.24427135593E+02  0.11545424021E+02  0.31051657128E+02  0.00000000000E+00 0.  1.
         14    1    3    3    0    0 -0.42962118527E+01  0.42115475515E+02 -0.41885090462E+02  0.59552762465E+02  0.00000000000E+00 0. -1.
        -13    1    4    4    0    0 -0.15573834075E+02  0.26277198878E+02  0.78835183501E+02  0.84545973566E+02  0.00000000000E+00 0.  1.
         13    1    4    4    0    0  0.10235875856E+03  0.32398069092E+02  0.33037353361E+03  0.34738109051E+03  0.00000000000E+00 0. -1.
         21    1    1    2  503  502  0.51615110137E+01 -0.29455376119E+02 -0.34697822992E+02  0.45806105473E+02  0.00000000000E+00 0. -1.
          1    1    1    2  501    0 -0.72345856906E+02 -0.46908231773E+02  0.50984996665E+02  0.10016873317E+03  0.00000000000E+00 0. -1.
<scales pt_clust_5="13000.00000" pt_clust_6="13000.00000" pt_clust_7="13000.00000" pt_clust_8="13000.00000" pt_clust_9="29.90419" pt_clust_10="98.89840"></scales>
<clustering>
<clus scale="   29.904">  2  9  1 -1</clus>
<clus scale="   81.189">  5  6 -1 -1</clus>
<clus scale="   82.825">  2  5  1 -1</clus>
<clus scale="   90.193">  7  8 -1 -1</clus>
<clus scale="   98.898">  1 10  2 -1</clus>
<clus scale="   98.898">  1  5  2 -1</clus>
</clustering>
</event>
<event>
10    4  0.3738096E-005  0.1497815E+03  0.7546771E-02  0.1217727E+00
         21   -1    0    0  501  502  0.00000000000E+00  0.00000000000E+00  0.57883055613E+02  0.57883055613E+02  0.00000000000E+00 0. -1.
          2   -1    0    0  503    0 -0.00000000000E+00 -0.00000000000E+00 -0.93387917169E+03  0.93387917169E+03  0.00000000000E+00 0. -1.
         23    2    1    2    0    0 -0.27943961613E+02  0.30546243016E+02 -0.60546707234E+02  0.11969794952E+03  0.94592586446E+02 0.  0.
         24    2    1    2    0    0  0.40880284646E+02  0.10013329184E+03 -0.42525320181E+03  0.44604362788E+03  0.80104672251E+02 0.  0.
        -11    1    4    4    0    0  0.23866649442E+02  0.10680720639E+02 -0.27283913621E+02  0.37790298906E+02  0.00000000000E+00 0.  1.
         12    1    4    4    0    0  0.17013635204E+02  0.89452571200E+02 -0.39796928819E+03  0.40825332898E+03  0.00000000000E+00 0. -1.
        -11    1    3    3    0    0  0.27260132634E+02 -0.45744471424E+01  0.38336603099E+01  0.27905865858E+02  0.00000000000E+00 0.  1.
         11    1    3    3    0    0 -0.55204094247E+02  0.35120690158E+02 -0.64380367544E+02  0.91792083667E+02  0.00000000000E+00 0. -1.
         21    1    1    2  503  502 -0.16211788171E+02  0.12939491390E+02 -0.10101848194E+03  0.10312606948E+03  0.00000000000E+00 0. -1.
          1    1    1    2  501    0  0.32754651376E+01 -0.14361902625E+03 -0.28917772509E+03  0.32289458041E+03  0.00000000000E+00 0. -1.
<scales pt_clust_5="13000.00000" pt_clust_6="13000.00000" pt_clust_7="13000.00000" pt_clust_8="13000.00000" pt_clust_9="20.74253" pt_clust_10="126.56121"></scales>
<clustering>
<clus scale="   20.743">  2  9  1 -1</clus>
<clus scale="   80.105">  5  6 -1 -1</clus>
<clus scale="   94.593">  7  8 -1 -1</clus>
<clus scale="  104.166">  2  7  1 -1</clus>
<clus scale="  126.561">  1 10  2 -1</clus>
<clus scale="  126.561">  1  5  2 -1</clus>
</clustering>
</event>
<event>
10    4  0.3738096E-005  0.1542932E+03  0.7546771E-02  0.1200914E+00
         21   -1    0    0  501  502  0.00000000000E+00  0.00000000000E+00  0.12335536396E+04  0.12335536396E+04  0.00000000000E+00 0. -1.
          4   -1    0    0  503    0 -0.00000000000E+00 -0.00000000000E+00 -0.12362454666E+03  0.12362454666E+03  0.00000000000E+00 0. -1.
         23    2    1    2    0    0 -0.13562269488E+03 -0.12538593185E+02  0.19403749971E+02  0.16458759868E+03  0.90342904768E+02 0.  0.
         24    2    1    2    0    0 -0.38926568135E+02 -0.87973860852E+02  0.77536544958E+03  0.78518124324E+03  0.77867364324E+02 0.  0.
        -11    1    4    4    0    0 -0.46308507037E+02 -0.18463272667E+02  0.22909300519E+03  0.23445463376E+03  0.00000000000E+00 0.  1.
         12    1    4    4    0    0  0.73819389018E+01 -0.69510588186E+02  0.54627244439E+03  0.55072660949E+03  0.00000000000E+00 0. -1.
        -11    1    3    3    0    0 -0.74991573103E+02  0.13005334844E+02 -0.30516019106E+02  0.82000623125E+02  0.00000000000E+00 0. -1.
         11    1    3    3    0    0 -0.60631121773E+02 -0.25543928029E+02  0.49919769077E+02  0.82586975555E+02  0.00000000000E+00 0.  1.
         21    1    1    2  503  502  0.68529339719E+02  0.12670723673E+03  0.21765559844E+03  0.26100757417E+03  0.00000000000E+00 0.  1.
          3    1    1    2  501    0  0.10601992329E+03 -0.26194782693E+02  0.97504294915E+02  0.14640177015E+03  0.00000000000E+00 0. -1.
<scales pt_clust_5="13000.00000" pt_clust_6="13000.00000" pt_clust_7="13000.00000" pt_clust_8="13000.00000" pt_clust_9="125.07822" pt_clust_10="109.20807"></scales>
<clustering>
<clus scale="   77.867">  5  6 -1 -1</clus>
<clus scale="   90.343">  7  8 -1 -1</clus>
<clus scale="  109.208">  1 10  2 -1</clus>
<clus scale="  136.513">  1  5  2 -1</clus>
<clus scale="  125.078">  1  9  2 -1</clus>
<clus scale="  109.208">  1  5  2 -1</clus>
</clustering>
</event>
<event>
10    4  0.3738096E-005  0.2611812E+03  0.7546771E-02  0.1132981E+00
         -1   -1    0    0    0  501 -0.00000000000E+00  0.00000000000E+00  0.28657228322E+03  0.28657228322E+03  0.00000000000E+00 0.  1.
         21   -1    0    0  501  502  0.00000000000E+00 -0.00000000000E+00 -0.46314944967E+03  0.46314944967E+03  0.00000000000E+00 0. -1.
         24    2    1    2    0    0 -0.45113105873E+02 -0.96766036212E+02 -0.11986353098E+03  0.18009082723E+03  0.81649139044E+02 0.  0.
         23    2    1    2    0    0  0.21927349143E+03 -0.10266010905E+03 -0.12159177118E+03  0.28601054045E+03  0.91637920049E+02 0.  0.
        -11    1    3    3    0    0 -0.55309284783E+02 -0.28235041955E+02 -0.75762606430E+02  0.97960742701E+02  0.00000000000E+00 0.  1.
         12    1    3    3    0    0  0.10196178910E+02 -0.68530994257E+02 -0.44100924555E+02  0.82130084529E+02  0.00000000000E+00 0. -1.
        -13    1    4    4    0    0  0.63523121288E+02  0.12630945553E+02 -0.24261270287E+02  0.69161672620E+02  0.00000000000E+00 0. -1.
         13    1    4    4    0    0  0.15575037014E+03 -0.11529105461E+03 -0.97330500898E+02  0.21684886783E+03  0.00000000000E+00 0.  1.
         21    1    1    2  503  502 -0.36643955347E+01  0.26006087688E+02 -0.11562725797E+02  0.28695662029E+02  0.00000000000E+00 0. -1.
         -2    1    1    2    0  503 -0.17049599002E+03  0.17342005758E+03  0.76440861507E+02  0.25492470318E+03  0.00000000000E+00 0.  1.
<scales pt_clust_5="13000.00000" pt_clust_6="13000.00000" pt_clust_7="13000.00000" pt_clust_8="13000.00000" pt_clust_9="25.72646" pt_clust_10="256.80130"></scales>
<clustering>
<clus scale="   25.726">  9 10 -1 -1</clus>
<clus scale="   81.649">  5  6 -1 -1</clus>
<clus scale="   91.638">  7  8 -1 -1</clus>
<clus scale="  134.408">  1  5  2 -1</clus>
<clus scale="  256.801">  2  9  1 -1</clus>
<clus scale="  256.801">  2  5  1 -1</clus>
</clustering>
</event>
<event>
10    4  0.3738096E-005  0.9463983E+02  0.7546771E-02  0.1296240E+00
         21   -1    0    0  501  502  0.00000000000E+00  0.00000000000E+00  0.13703280429E+03  0.13703280429E+03  0.00000000000E+00 0.  1.
          2   -1    0    0  503    0 -0.00000000000E+00 -0.00000000000E+00 -0.20855140411E+03  0.20855140411E+03  0.00000000000E+00 0. -1.
         23    2    1    2    0    0  0.56367292002E+02 -0.48192689821E+02 -0.39528120242E+02  0.12255378638E+03  0.89202866025E+02 0.  0.
         24    2    1    2    0    0 -0.13703691545E+02 -0.15829499933E+02 -0.22032721640E+02  0.87007699695E+02  0.81526282592E+02 0.  0.
        -13    1    4    4    0    0 -0.19890302816E+02 -0.27859732666E+02  0.22168492574E+02  0.40782728125E+02  0.00000000000E+00 0.  1.
         14    1    4    4    0    0  0.61866112712E+01  0.12030232733E+02 -0.44201214214E+02  0.46224971570E+02  0.00000000000E+00 0. -1.
        -13    1    3    3    0    0  0.38721767904E+02 -0.58559723458E+02  0.81435160079E+01  0.70674842582E+02  0.00000000000E+00 0. -1.
         13    1    3    3    0    0  0.17645524098E+02  0.10367033637E+02 -0.47671636250E+02  0.51878943801E+02  0.00000000000E+00 0.  1.
         21    1    1    2  503  502 -0.61463674932E+02  0.41393220575E+02 -0.47731043309E+02  0.88144395971E+02  0.00000000000E+00 0. -1.
          1    1    1    2  501    0  0.18800074475E+02  0.22628969179E+02  0.37773285367E+02  0.47878326347E+02  0.00000000000E+00 0. -1.
<scales pt_clust_5="13000.00000" pt_clust_6="13000.00000" pt_clust_7="13000.00000" pt_clust_8="13000.00000" pt_clust_9="73.73686" pt_clust_10="29.41960"></scales>
<clustering>
<clus scale="   29.420">  1 10  2 -1</clus>
<clus scale="   73.737">  2  9  1 -1</clus>
<clus scale="   81.526">  5  6 -1 -1</clus>
<clus scale="   87.442">  1  5  2 -1</clus>
<clus scale="   89.203">  7  8 -1 -1</clus>
<clus scale="   29.420">  1  5  2 -1</clus>
</clustering>
</event>
<event>
10    4  0.3738096E-005  0.1762173E+03  0.7546771E-02  0.1181228E+00
          2   -1    0    0  503    0 -0.00000000000E+00  0.00000000000E+00  0.58862787165E+03  0.58862787165E+03  0.00000000000E+00 0. -1.
         21   -1    0    0  501  502  0.00000000000E+00 -0.00000000000E+00 -0.28967333674E+03  0.28967333674E+03  0.00000000000E+00 0. -1.
         24    2    1    2    0    0 -0.52380548239E+02 -0.76803921840E+02  0.39460970984E+03  0.41427449741E+03  0.85228937901E+02 0.  0.
         23    2    1    2    0    0 -0.91021192564E+02  0.12822532006E+03 -0.17029215102E+03  0.24881402556E+03  0.90456688069E+02 0.  0.
        -11    1    3    3    0    0 -0.29497484324E+02 -0.69590168425E+02  0.14502727722E+03  0.16354144509E+03  0.00000000000E+00 0.  1.
         12    1    3    3    0    0 -0.22883063915E+02 -0.72137534148E+01  0.24958243262E+03  0.25073305232E+03  0.00000000000E+00 0. -1.
        -13    1    4    4    0    0 -0.64300324862E+02  0.11073388749E+03 -0.75189910592E+02  0.14849258658E+03  0.00000000000E+00 0. -1.
         13    1    4    4    0    0 -0.26720867703E+02  0.17491432573E+02 -0.95102240425E+02  0.10032143898E+03  0.00000000000E+00 0.  1.
         21    1    1    2  503  502 -0.21606848978E+02 -0.18037945320E+02  0.29803336655E+02  0.40993441791E+02  0.00000000000E+00 0. -1.
          1    1    1    2  501    0  0.16500858978E+03 -0.33383452902E+02  0.44833639427E+02  0.17421924364E+03  0.00000000000E+00 0. -1.
<scales pt_clust_5="13000.00000" pt_clust_6="13000.00000" pt_clust_7="13000.00000" pt_clust_8="13000.00000" pt_clust_9="28.14646" pt_clust_10="151.22883"></scales>
<clustering>
<clus scale="   28.146">  1  9  2 -1</clus>
<clus scale="   85.229">  5  6 -1 -1</clus>
<clus scale="   90.457">  7  8 -1 -1</clus>
<clus scale="  141.458">  1  5  2 -1</clus>
<clus scale="  151.229">  2 10  1 -1</clus>
<clus scale="  151.229">  2  5  1 -1</clus>
</clustering>
</event>
<event>
10    4  0.3738096E-005  0.2551996E+03  0.7546771E-02  0.1110840E+00
         21   -1    0    0  501  502  0.00000000000E+00  0.00000000000E+00  0.57251936551E+03  0.57251936551E+03  0.00000000000E+00 0.  1.
          4   -1    0    0  503    0 -0.00000000000E+00 -0.00000000000E+00 -0.22472915364E+03  0.22472915364E+03  0.00000000000E+00 0. -1.
         23    2    1    2    0    0  0.14989356943E+03  0.20217653380E+03  0.43649074385E+02  0.27226930655E+03  0.94243835959E+02 0.  0.
         24    2    1    2    0    0 -0.13365381303E+03 -0.16974197530E+03  0.32431379062E+03  0.39775322274E+03  0.79702644219E+02 0.  0.
        -13    1    4    4    0    0 -0.11610549791E+03 -0.96651254734E+02  0.24968961889E+03  0.29183361264E+03  0.00000000000E+00 0.  1.
         14    1    4    4    0    0 -0.17548315123E+02 -0.73090720570E+02  0.74624171738E+02  0.10591961010E+03  0.00000000000E+00 0. -1.
        -11    1    3    3    0    0  0.13861434325E+03  0.11384987491E+03  0.22820154713E+02  0.18082170675E+03  0.00000000000E+00 0.  1.
         11    1    3    3    0    0  0.11279226185E+02  0.88326658889E+02  0.20828919672E+02  0.91447599797E+02  0.00000000000E+00 0. -1.
         21    1    1    2  503  502 -0.48694260243E+02  0.21809267687E+02  0.14282880467E+02  0.55233828512E+02  0.00000000000E+00 0.  1.
          3    1    1    2  501    0  0.32454503843E+02 -0.54243826185E+02 -0.34455533605E+02  0.71992161344E+02  0.00000000000E+00 0. -1.
<scales pt_clust_5="13000.00000" pt_clust_6="13000.00000" pt_clust_7="13000.00000" pt_clust_8="13000.00000" pt_clust_9="53.35518" pt_clust_10="52.42945"></scales>
<clustering>
<clus scale="   53.355">  2  9  1 -1</clus>
<clus scale="   52.429">  1 10  2 -1</clus>
<clus scale="   79.703">  5  6 -1 -1</clus>
<clus scale="   94.244">  7  8 -1 -1</clus>
<clus scale="  250.195">  1  5  2 -1</clus>
<clus scale="   52.429">  1  5  2 -1</clus>
</clustering>
</event>
<event>
10    4  0.3738096E-005  0.2581495E+03  0.7546771E-02  0.1136680E+00
         21   -1    0    0  501  502  0.00000000000E+00  0.00000000000E+00  0.47850513286E+03  0.47850513286E+03  0.00000000000E+00 0. -1.
          2   -1    0    0  503    0 -0.00000000000E+00 -0.00000000000E+00 -0.61462738336E+03  0.61462738336E+03  0.00000000000E+00 0. -1.
         23    2    1    2    0    0  0.16376974588E+02 -0.88942752660E+02 -0.69699285970E+02  0.14656179786E+03  0.91887711806E+02 0.  0.
         24    2    1    2    0    0 -0.14805313871E+03 -0.19235788919E+03  0.33914399823E+03  0.42417709803E+03  0.77370986390E+02 0.  0.
        -11    1    4    4    0    0 -0.24896936059E+02 -0.44613496821E+02  0.27673574912E+02  0.58103771583E+02  0.00000000000E+00 0.  1.
         12    1    4    4    0    0 -0.12315620265E+03 -0.14774439237E+03  0.31147042332E+03  0.36607332644E+03  0.00000000000E+00 0. -1.
        -11    1    3    3    0    0  0.42981425071E+02 -0.13586763665E+02 -0.84210902697E+01  0.45857581809E+02  0.00000000000E+00 0.  1.
         11    1    3    3    0    0 -0.26604450483E+02 -0.75355988996E+02 -0.61278195700E+02  0.10070421606E+03  0.00000000000E+00 0. -1.
         21    1    1    2  503  502  0.23747307214E+02  0.17085402745E+02 -0.10033170866E+03  0.10450979547E+03  0.00000000000E+00 0.  1.
          1    1    1    2  501    0  0.10792885691E+03  0.26421523911E+03 -0.30523525411E+03  0.41788382486E+03  0.00000000000E+00 0. -1.
<scales pt_clust_5="13000.00000" pt_clust_6="13000.00000" pt_clust_7="13000.00000" pt_clust_8="13000.00000" pt_clust_9="29.25484" pt_clust_10="246.28230"></scales>
<clustering>
<clus scale="   29.255">  2  9  1 -1</clus>
<clus scale="   77.371">  5  6 -1 -1</clus>
<clus scale="   91.888">  7  8 -1 -1</clus>
<clus scale="  127.213">  2  7  1 -1</clus>
<clus scale="  246.282">  1 10  2 -1</clus>
<clus scale="  246.282">  1  5  2 -1</clus>
</clustering>
</event>
<event>
10    4  0.3738096E-005  0.1804990E+03  0.7546771E-02  0.1168804E+00
         21   -1    0    0  501  502  0.00000000000E+00  0.00000000000E+00  0.20484226083E+03  0.20484226083E+03  0.00000000000E+00 0. -1.
          2   -1    0    0  503    0 -0.00000000000E+00 -0.00000000000E+00 -0.74850765391E+03  0.74850765391E+03  0.00000000000E+00 0. -1.
         24    2    1    2    0    0  0.95752544338E+02 -0.17907670699E+03 -0.19970114935E+02  0.21921325818E+03  0.80116355009E+02 0.  0.
         23    2    1    2    0    0 -0.88141734836E+02  0.99880836819E+02  0.21441516623E+02  0.16360863803E+03  0.92535943397E+02 0.  0.
        -11    1    3    3    0    0  0.48875837640E+01 -0.87669794790E+02  0.49281292803E+01  0.87944117779E+02  0.00000000000E+00 0.  1.
         12    1    3    3    0    0  0.90864960574E+02 -0.91406912199E+02 -0.24898244216E+02  0.13126914041E+03  0.00000000000E+00 0. -1.
        -11    1    4    4    0    0 -0.65158143596E+02  0.60423771045E+02 -0.30961225499E+02  0.94102142742E+02  0.00000000000E+00 0. -1.
         11    1    4    4    0    0 -0.22983591240E+02  0.39457065774E+02  0.52402742122E+02  0.69506495292E+02  0.00000000000E+00 0.  1.
         21    1    1    2  503  502 -0.40028646807E+02  0.90465178220E+02 -0.51632654655E+03  0.52571793170E+03  0.00000000000E+00 0. -1.
          1    1    1    2  501    0  0.32417837305E+02 -0.11269308050E+02 -0.28810248210E+02  0.44810086826E+02  0.00000000000E+00 0. -1.
<scales pt_clust_5="13000.00000" pt_clust_6="13000.00000" pt_clust_7="13000.00000" pt_clust_8="13000.00000" pt_clust_9="98.36850" pt_clust_10="34.32076"></scales>
<clustering>
<clus scale="   34.321">  1 10  2 -1</clus>
<clus scale="   80.116">  5  6 -1 -1</clus>
<clus scale="   92.536">  7  8 -1 -1</clus>
<clus scale="   98.368">  2  9  1 -1</clus>
<clus scale="  174.458">  2  5  1 -1</clus>
<clus scale="   34.321">  1  5  2 -1</clus>
</clustering>
</event>
<event>
10    4  0.3738096E-005  0.1116600E+03  0.7546771E-02  0.1261165E+00
         21   -1    0    0  503  502  0.00000000000E+00  0.00000000000E+00  0.49402125290E+03  0.49402125290E+03  0.00000000000E+00 0.  1.
         -1   -1    0    0    0  501 -0.00000000000E+00 -0.00000000000E+00 -0.26731897762E+03  0.26731897762E+03  0.00000000000E+00 0.  1.
         23    2    1    2    0    0  0.25550850167E+01 -0.75647830940E+02 -0.83401356533E+02  0.14454982921E+03  0.90607638015E+02 0.  0.
         24    2    1    2    0    0 -0.29964173004E+01  0.53439230725E+02 -0.34012757543E+02  0.10280136828E+03  0.80910591073E+02 0.  0.
        -11    1    4    4    0    0  0.30713496688E+02  0.48793936343E+02 -0.37214214597E+02  0.68622626522E+02  0.00000000000E+00 0.  1.
         12    1    4    4    0    0 -0.33709913989E+02  0.46452943822E+01  0.32014570545E+01  0.34178741760E+02  0.00000000000E+00 0. -1.
        -13    1    3    3    0    0 -0.37886004359E+02 -0.20609223936E+02 -0.99707270409E+01  0.44266294573E+02  0.00000000000E+00 0. -1.
         13    1    3    3    0    0  0.40441089376E+02 -0.55038607004E+02 -0.73430629492E+02  0.10028353463E+03  0.00000000000E+00 0.  1.
         21    1    1    2  503  501 -0.16057152416E+02  0.91942756198E+02 -0.55104820886E+02  0.10838747089E+03  0.00000000000E+00 0.  1.
         -2    1    1    2    0  502  0.16498484700E+02 -0.69734155983E+02  0.39922121024E+03  0.40560156214E+03  0.00000000000E+00 0.  1.
<scales pt_clust_5="13000.00000" pt_clust_6="13000.00000" pt_clust_7="13000.00000" pt_clust_8="13000.00000" pt_clust_9="72.54226" pt_clust_10="71.65928"></scales>
<clustering>
<clus scale="   71.659">  1 10  2 -1</clus>
<clus scale="   72.542">  1  9  2 -1</clus>
<clus scale="   80.911">  5  6 -1 -1</clus>
<clus scale="   90.608">  7  8 -1 -1</clus>
<clus scale="  103.946">  1  5  2 -1</clus>
<clus scale="   71.659">  1  5  2 -1</clus>
</clustering>
</event>
<event>
10    4  0.3738096E-005  0.1606077E+03  0.7546771E-02  0.1200602E+00
          2   -1    0    0  503    0 -0.00000000000E+00  0.00000000000E+00  0.59216881214E+03  0.59216881214E+03  0.00000000000E+00 0. -1.
         21   -1    0    0  501  502  0.00000000000E+00 -0.00000000000E+00 -0.15862244065E+03  0.15862244065E+03  0.00000000000E+00 0. -1.
         24    2    1    2    0    0 -0.18530533512E+02  0.88718204172E+02  0.19044439168E+03  0.22609372466E+03  0.81455543610E+02 0.  0.
         23    2    1    2    0    0 -0.46213386420E+02  0.11811631920E+03  0.67926892476E+02  0.17057552623E+03  0.91623171098E+02 0.  0.
        -13    1    3    3    0    0 -0.29717711905E+02 -0.20806575968E+01  0.56757764497E+02  0.64100821895E+02  0.00000000000E+00 0.  1.
         14    1    3    3    0    0  0.11187178393E+02  0.90798861769E+02  0.13368662718E+03  0.16199290276E+03  0.00000000000E+00 0. -1.
        -11    1    4    4    0    0 -0.58742650521E+02  0.38881877454E+02  0.54887734582E+02  0.89303766953E+02  0.00000000000E+00 0.  1.
         11    1    4    4    0    0  0.12529264101E+02  0.79234441743E+02  0.13039157894E+02  0.81271759276E+02  0.00000000000E+00 0. -1.
         21    1    1    2  503  502 -0.52546872238E+02 -0.12309228971E+03  0.16091576135E+03  0.20930066368E+03  0.00000000000E+00 0. -1.
          1    1    1    2  501    0  0.11729079217E+03 -0.83742233659E+02  0.14259325987E+02  0.14482133822E+03  0.00000000000E+00 0. -1.
<scales pt_clust_5="13000.00000" pt_clust_6="13000.00000" pt_clust_7="13000.00000" pt_clust_8="13000.00000" pt_clust_9="101.14547" pt_clust_10="131.90916"></scales>
<clustering>
<clus scale="   81.456">  5  6 -1 -1</clus>
<clus scale="   91.623">  7  8 -1 -1</clus>
<clus scale="  121.858">  1  5  2 -1</clus>
<clus scale="  101.145">  1  9  2 -1</clus>
<clus scale="  131.909">  2 10  1 -1</clus>
<clus scale="  131.909">  2  5  1 -1</clus>
</clustering>
</event>
<event>
10    4  0.3738096E-005  0.1611075E+03  0.7546771E-02  0.1189451E+00
         -1   -1    0    0    0  501 -0.00000000000E+00  0.00000000000E+00  0.56898531020E+03  0.56898531020E+03  0.00000000000E+00 0.  1.
         21   -1    0    0  503  502  0.00000000000E+00 -0.00000000000E+00 -0.20148057874E+03  0.20148057874E+03  0.00000000000E+00 0. -1.
         23    2    1    2    0    0  0.14046248124E+03 -0.39333570630E+02  0.17201534013E+03  0.24262971341E+03  0.89459835540E+02 0.  0.
         24    2    1    2    0    0 -0.16392757258E+03  0.24702898471E+02 -0.93212973913E+02  0.20487515758E+03  0.76175386069E+02 0.  0.
        -13    1    4    4    0    0 -0.55801832661E+02 -0.27556243961E+02 -0.35282010059E+02  0.71540277770E+02  0.00000000000E+00 0.  1.
         14    1    4    4    0    0 -0.10812573992E+03  0.52259142433E+02 -0.57930963854E+02  0.13333487981E+03  0.00000000000E+00 0. -1.
        -13    1    3    3    0    0  0.22568586766E+02  0.24964622179E+02  0.55168001412E+02  0.64622610973E+02  0.00000000000E+00 0. -1.
         13    1    3    3    0    0  0.11789389447E+03 -0.64298192809E+02  0.11684733872E+03  0.17800710244E+03  0.00000000000E+00 0.  1.
         21    1    1    2  503  501 -0.34529877280E+02  0.57046128791E+02  0.92605985016E+02  0.11411591342E+03  0.00000000000E+00 0. -1.
         -2    1    1    2    0  502  0.57994968625E+02 -0.42415456632E+02  0.19609638023E+03  0.20884510453E+03  0.00000000000E+00 0.  1.
<scales pt_clust_5="13000.00000" pt_clust_6="13000.00000" pt_clust_7="13000.00000" pt_clust_8="13000.00000" pt_clust_9="66.68263" pt_clust_10="46.44773"></scales>
<clustering>
<clus scale="   66.683">  1  9  2 -1</clus>
<clus scale="   46.448">  2 10  1 -1</clus>
<clus scale="   76.175">  5  6 -1 -1</clus>
<clus scale="   89.460">  7  8 -1 -1</clus>
<clus scale="  154.127">  2  5  1 -1</clus>
<clus scale="   46.448">  2  5  1 -1</clus>
</clustering>
</event>
<event>
10    4  0.3738096E-005  0.2751741E+03  0.7546771E-02  0.1128843E+00
          2   -1    0    0  503    0 -0.00000000000E+00  0.00000000000E+00  0.39151806927E+03  0.39151806927E+03  0.00000000000E+00 0. -1.
         21   -1    0    0  501  502  0.00000000000E+00 -0.00000000000E+00 -0.62802932477E+03  0.62802932477E+03  0.00000000000E+00 0.  1.
         23    2    1    2    0    0 -0.77687866896E+02  0.31958196800E+02 -0.11526877270E+03  0.16918186445E+03  0.90988363503E+02 0.  0.
         24    2    1    2    0    0 -0.79859976413E+02  0.17697666579E+03 -0.20920986050E+02  0.21143601694E+03  0.81050265500E+02 0.  0.
        -11    1    4    4    0    0 -0.85063548902E+02  0.10296569045E+03  0.26618994792E+01  0.13358452931E+03  0.00000000000E+00 0.  1.
         12    1    4    4    0    0  0.52035724896E+01  0.74010975338E+02 -0.23582885529E+02  0.77851487635E+02  0.00000000000E+00 0. -1.
        -13    1    3    3    0    0 -0.46088443462E+02 -0.20798976632E+02 -0.88892445178E+02  0.10226734014E+03  0.00000000000E+00 0. -1.
         13    1    3    3    0    0 -0.31599423434E+02  0.52757173431E+02 -0.26376327522E+02  0.66914524308E+02  0.00000000000E+00 0.  1.
         21    1    1    2  503  502 -0.14037381315E+02  0.51934070714E+02  0.19915072184E+03  0.20628913152E+03  0.00000000000E+00 0.  1.
          1    1    1    2  501    0  0.17158522462E+03 -0.26086893330E+03 -0.29947221860E+03  0.43264038113E+03  0.00000000000E+00 0. -1.
<scales pt_clust_5="13000.00000" pt_clust_6="13000.00000" pt_clust_7="13000.00000" pt_clust_8="13000.00000" pt_clust_9="53.79773" pt_clust_10="262.96694"></scales>
<clustering>
<clus scale="   53.798">  1  9  2 -1</clus>
<clus scale="   81.050">  5  6 -1 -1</clus>
<clus scale="   90.988">  7  8 -1 -1</clus>
<clus scale="  127.201">  1  7  2 -1</clus>
<clus scale="  262.967">  2 10  1 -1</clus>
<clus scale="  262.967">  2  5  1 -1</clus>
</clustering>
</event>
<event>
10    4  0.3738096E-005  0.1384345E+03  0.7546771E-02  0.1217345E+00
          2   -1    0    0  503    0 -0.00000000000E+00  0.00000000000E+00  0.21920262345E+03  0.21920262345E+03  0.00000000000E+00 0. -1.
         21   -1    0    0  501  502  0.00000000000E+00 -0.00000000000E+00 -0.22222253208E+03  0.22222253208E+03  0.00000000000E+00 0.  1.
         23    2    1    2    0    0  0.64263025678E+02 -0.10250949968E+03  0.61846743719E+02  0.16273658455E+03  0.89555805232E+02 0.  0.
         24    2    1    2    0    0 -0.12296071063E+02  0.91040488758E+02 -0.43789398983E+02  0.13001404666E+03  0.80910919594E+02 0.  0.
        -11    1    4    4    0    0 -0.39909219244E+02  0.17348666950E+02 -0.19220232572E+02  0.47572464364E+02  0.00000000000E+00 0.  1.
         12    1    4    4    0    0  0.27613148180E+02  0.73691821808E+02 -0.24569166411E+02  0.82441582299E+02  0.00000000000E+00 0. -1.
        -13    1    3    3    0    0  0.41888440849E+02 -0.64559206634E+01 -0.63129144668E+01  0.42850592498E+02  0.00000000000E+00 0. -1.
         13    1    3    3    0    0  0.22374584829E+02 -0.96053579012E+02  0.68159658186E+02  0.11988599206E+03  0.00000000000E+00 0.  1.
         21    1    1    2  503  502  0.11884702015E+02  0.16153236046E+02  0.49486059037E+02  0.53395160977E+02  0.00000000000E+00 0. -1.
          1    1    1    2  501    0 -0.63851656630E+02 -0.46842251289E+01 -0.70563312400E+02  0.95279363329E+02  0.00000000000E+00 0. -1.
<scales pt_clust_5="13000.00000" pt_clust_6="13000.00000" pt_clust_7="13000.00000" pt_clust_8="13000.00000" pt_clust_9="20.05426" pt_clust_10="63.07305"></scales>
<clustering>
<clus scale="   20.054">  1  9  2 -1</clus>
<clus scale="   63.073">  2 10  1 -1</clus>
<clus scale="   80.911">  5  6 -1 -1</clus>
<clus scale="   89.556">  7  8 -1 -1</clus>
<clus scale="  133.005">  2  5  1 -1</clus>
<clus scale="   63.073">  2  5  1 -1</clus>
</clustering>
</event>
<event>
10    4  0.3738096E-005  0.4011604E+03  0.7546771E-02  0.1092156E+00
          2   -1    0    0  503    0 -0.00000000000E+00  0.00000000000E+00  0.21942753512E+04  0.21942753512E+04  0.00000000000E+00 0. -1.
         21   -1    0    0  501  502  0.00000000000E+00 -0.00000000000E+00 -0.69385607573E+03  0.69385607573E+03  0.00000000000E+00 0. -1.
         24    2    1    2    0    0 -0.56729603689E+02 -0.21105855661E+02  0.14587275775E+03  0.17941711665E+03  0.85134806137E+02 0.  0.
         23    2    1    2    0    0 -0.14794921206E+02 -0.36880665303E+03  0.18341531444E+04  0.18731283002E+04  0.90855019998E+02 0.  0.
        -13    1    3    3    0    0 -0.67831278695E+02 -0.41324706088E+02  0.96970344482E+02  0.12534776189E+03  0.00000000000E+00 0.  1.
         14    1    3    3    0    0  0.11101675006E+02  0.20218850426E+02  0.48902413268E+02  0.54069354758E+02  0.00000000000E+00 0. -1.
        -11    1    4    4    0    0 -0.25800494543E+02 -0.18538125444E+03  0.11298813965E+04  0.11452789377E+04  0.00000000000E+00 0.  1.
         11    1    4    4    0    0  0.11005573336E+02 -0.18342539859E+03  0.70427174793E+03  0.72784936245E+03  0.00000000000E+00 0. -1.
         21    1    1    2  503  502  0.18184239826E+03  0.23162042403E+02  0.42403664361E+02  0.18815208945E+03  0.00000000000E+00 0. -1.
          1    1    1    2  501    0 -0.11031787336E+03  0.36675046629E+03 -0.52201029104E+03  0.64743392069E+03  0.00000000000E+00 0. -1.
<scales pt_clust_5="13000.00000" pt_clust_6="13000.00000" pt_clust_7="13000.00000" pt_clust_8="13000.00000" pt_clust_9="179.96884" pt_clust_10="390.73650"></scales>
<clustering>
<clus scale="   85.135">  5  6 -1 -1</clus>
<clus scale="   90.855">  7  8 -1 -1</clus>
<clus scale="  104.459">  1  5  2 -1</clus>
<clus scale="  179.969">  2  9  1 -1</clus>
<clus scale="  390.736">  2 10  1 -1</clus>
<clus scale="  179.969">  2  5  1 -1</clus>
</clustering>
</event>
<event>
10    4  0.3738096E-005  0.3503586E+03  0.7546771E-02  0.1062853E+00
         21   -1    0    0  501  502  0.00000000000E+00  0.00000000000E+00  0.16013070043E+03  0.16013070043E+03  0.00000000000E+00 0. -1.
          2   -1    0    0  503    0 -0.00000000000E+00 -0.00000000000E+00 -0.12300301893E+04  0.12300301893E+04  0.00000000000E+00 0. -1.
         24    2    1    2    0    0 -0.31983994639E+03  0.15449841726E+03 -0.56111334888E+03  0.66877999109E+03  0.79064112921E+02 0.  0.
         23    2    1    2    0    0  0.32350061843E+03 -0.56617613909E+02 -0.31109094829E+03  0.46204875540E+03  0.94091816496E+02 0.  0.
        -11    1    3    3    0    0 -0.11536072007E+03  0.15029810739E+02 -0.18426549115E+03  0.21791686988E+03  0.00000000000E+00 0.  1.
         12    1    3    3    0    0 -0.20447922632E+03  0.13946860652E+03 -0.37684785773E+03  0.45086312122E+03  0.00000000000E+00 0. -1.
        -13    1    4    4    0    0  0.13534279911E+02 -0.22380323767E+02 -0.45250495967E+02  0.52265313640E+02  0.00000000000E+00 0.  1.
         13    1    4    4    0    0  0.30996633852E+03 -0.34237290142E+02 -0.26584045232E+03  0.40978344176E+03  0.00000000000E+00 0. -1.
         21    1    1    2  503  502  0.24141828093E+02  0.67985293044E+01 -0.12823369532E+03  0.13066341676E+03  0.00000000000E+00 0.  1.
          1    1    1    2  501    0 -0.27802500134E+02 -0.10467933265E+03 -0.69461496434E+02  0.12866872652E+03  0.00000000000E+00 0. -1.
<scales pt_clust_5="13000.00000" pt_clust_6="13000.00000" pt_clust_7="13000.00000" pt_clust_8="13000.00000" pt_clust_9="25.08083" pt_clust_10="107.17691"></scales>
<clustering>
<clus scale="   25.081">  2  9  1 -1</clus>
<clus scale="   79.064">  5  6 -1 -1</clus>
<clus scale="   94.092">  7  8 -1 -1</clus>
<clus scale="  107.177">  1 10  2 -1</clus>
<clus scale="  346.625">  2  5  1 -1</clus>
<clus scale="  107.177">  1  5  2 -1</clus>
</clustering>
</event>
<event>
10    4  0.3738096E-005  0.1083901E+03  0.7546771E-02  0.1265316E+00
          2   -1    0    0  503    0 -0.00000000000E+00  0.00000000000E+00  0.39353120482E+03  0.39353120482E+03  0.00000000000E+00 0. -1.
         21   -1    0    0  501  502  0.00000000000E+00 -0.00000000000E+00 -0.10864445601E+03  0.10864445601E+03  0.00000000000E+00 0. -1.
         23    2    1    2    0    0  0.10762548489E+02  0.40323961622E+02  0.20267752995E+03  0.22588063915E+03  0.90565046594E+02 0.  0.
         24    2    1    2    0    0 -0.31397097382E+02 -0.61237920399E+02  0.51942047329E+02  0.12192815495E+03  0.86212748882E+02 0.  0.
        -13    1    4    4    0    0  0.19623614439E+02 -0.41326520002E+02 -0.99237464134E+00  0.45759723628E+02  0.00000000000E+00 0.  1.
         14    1    4    4    0    0 -0.51020711822E+02 -0.19911400397E+02  0.52934421970E+02  0.76168431321E+02  0.00000000000E+00 0. -1.
        -11    1    3    3    0    0 -0.23150289428E+02  0.33103650602E+01  0.78170890097E+01  0.24657682333E+02  0.00000000000E+00 0.  1.
         11    1    3    3    0    0  0.33912837917E+02  0.37013596562E+02  0.19486044094E+03  0.20122295682E+03  0.00000000000E+00 0. -1.
         21    1    1    2  503  502 -0.22842871763E+01  0.26295827853E+02  0.88077122818E+02  0.91947093995E+02  0.00000000000E+00 0. -1.
          1    1    1    2  501    0  0.22918836069E+02 -0.53818690764E+01 -0.57809951280E+02  0.62419772737E+02  0.00000000000E+00 0. -1.
<scales pt_clust_5="13000.00000" pt_clust_6="13000.00000" pt_clust_7="13000.00000" pt_clust_8="13000.00000" pt_clust_9="26.11722" pt_clust_10="23.54225"></scales>
<clustering>
<clus scale="   23.542">  2 10  1 -1</clus>
<clus scale="   26.117">  1  9  2 -1</clus>
<clus scale="   86.213">  5  6 -1 -1</clus>
<clus scale="   90.565">  7  8 -1 -1</clus>
<clus scale="  104.781">  2  5  1 -1</clus>
<clus scale="   23.542">  2  5  1 -1</clus>
</clustering>
</event>
<event>
10    4  0.3738096E-005  0.4428122E+03  0.7546771E-02  0.1057634E+00
         21   -1    0    0  501  502  0.00000000000E+00  0.00000000000E+00  0.46410222071E+03  0.46410222071E+03  0.00000000000E+00 0. -1.
          2   -1    0    0  503    0 -0.00000000000E+00 -0.00000000000E+00 -0.11561348561E+04  0.11561348561E+04  0.00000000000E+00 0. -1.
         24    2    1    2    0    0  0.81928087834E+02 -0.15361113652E+03 -0.24789069742E+02  0.19297400302E+03  0.79472479662E+02 0.  0.
         23    2    1    2    0    0  0.43015802955E+03  0.21027447145E+03  0.57416080782E+02  0.49033472736E+03  0.88770799204E+02 0.  0.
        -11    1    3    3    0    0  0.42807298719E+02 -0.64061751358E+02 -0.50254818546E+02  0.91988692772E+02  0.00000000000E+00 0.  1.
         12    1    3    3    0    0  0.39120789114E+02 -0.89549385157E+02  0.25465748804E+02  0.10098531024E+03  0.00000000000E+00 0. -1.
        -13    1    4    4    0    0  0.70623941712E+02  0.23095664203E+02  0.40538102840E+02  0.84643302333E+02  0.00000000000E+00 0.  1.
         13    1    4    4    0    0  0.35953408784E+03  0.18717880724E+03  0.16877977942E+02  0.40569142503E+03  0.00000000000E+00 0. -1.
         21    1    1    2  503  502 -0.12338005798E+03 -0.11776509121E+03 -0.36908569629E+03  0.40659009656E+03  0.00000000000E+00 0. -1.
          1    1    1    2  501    0 -0.38870605941E+03  0.61101756276E+02 -0.35557395009E+03  0.53033824983E+03  0.00000000000E+00 0. -1.
<scales pt_clust_5="13000.00000" pt_clust_6="13000.00000" pt_clust_7="13000.00000" pt_clust_8="13000.00000" pt_clust_9="170.56159" pt_clust_10="433.82325"></scales>
<clustering>
<clus scale="   79.472">  5  6 -1 -1</clus>
<clus scale="   88.771">  7  8 -1 -1</clus>
<clus scale="  170.562">  2  9  1 -1</clus>
<clus scale="  198.673">  2  5  1 -1</clus>
<clus scale="  433.823">  1 10  2 -1</clus>
<clus scale="  433.823">  1  5  2 -1</clus>
</clustering>
</event>
<event>
10    4  0.3738096E-005  0.9799597E+02  0.7546771E-02  0.1290233E+00
          2   -1    0    0  503    0 -0.00000000000E+00  0.00000000000E+00  0.23840960941E+03  0.23840960941E+03  0.00000000000E+00 0. -1.
         21   -1    0    0  501  502  0.00000000000E+00 -0.00000000000E+00 -0.14043224445E+03  0.14043224445E+03  0.00000000000E+00 0. -1.
         24    2    1    2    0    0 -0.19723191933E+02  0.82829213076E+01  0.11728266326E+03  0.14390922661E+03  0.80604164387E+02 0.  0.
         23    2    1    2    0    0  0.41366703023E+02  0.16247143234E+02 -0.78787053529E+02  0.12854120966E+03  0.91325073193E+02 0.  0.
        -13    1    3    3    0    0  0.68055053178E+01 -0.27303338871E+02  0.13865974674E+02  0.31369610610E+02  0.00000000000E+00 0.  1.
         14    1    3    3    0    0 -0.26528697251E+02  0.35586260179E+02  0.10341668858E+03  0.11253961600E+03  0.00000000000E+00 0. -1.
        -13    1    4    4    0    0 -0.12168897091E+02  0.40192551141E+02 -0.41525474617E+02  0.59058346284E+02  0.00000000000E+00 0. -1.
         13    1    4    4    0    0  0.53535600113E+02 -0.23945407906E+02 -0.37261578912E+02  0.69482863372E+02  0.00000000000E+00 0.  1.
         21    1    1    2  503  502 -0.13479709929E+02  0.21991552272E+02  0.52700905654E+02  0.58674665810E+02  0.00000000000E+00 0.  1.
          1    1    1    2  501    0 -0.81638011609E+01 -0.46521616814E+02  0.67808495791E+01  0.47716751790E+02  0.00000000000E+00 0. -1.
<scales pt_clust_5="13000.00000" pt_clust_6="13000.00000" pt_clust_7="13000.00000" pt_clust_8="13000.00000" pt_clust_9="25.79401" pt_clust_10="44.42285"></scales>
<clustering>
<clus scale="   25.794">  1  9  2 -1</clus>
<clus scale="   44.423">  2 10  1 -1</clus>
<clus scale="   80.604">  5  6 -1 -1</clus>
<clus scale="   88.091">  1  5  2 -1</clus>
<clus scale="   91.325">  7  8 -1 -1</clus>
<clus scale="   44.423">  2  5  1 -1</clus>
</clustering>
</event>
<event>
10    4  0.3738096E-005  0.2355674E+03  0.7546771E-02  0.1123464E+00
         21   -1    0    0  501  502  0.00000000000E+00  0.00000000000E+00  0.73132597977E+02  0.73132597977E+02  0.00000000000E+00 0. -1.
          2   -1    0    0  503    0 -0.00000000000E+00 -0.00000000000E+00 -0.15964477488E+04  0.15964477488E+04  0.00000000000E+00 0. -1.
         23    2    1    2    0    0 -0.19713248720E+02 -0.22583372682E+03 -0.77544887751E+03  0.81306659475E+03  0.91470440714E+02 0.  0.
         24    2    1    2    0    0  0.10886337434E+03  0.20381395404E+03 -0.25971342826E+03  0.35687125306E+03  0.80713470407E+02 0.  0.
        -11    1    4    4    0    0 -0.76849573900E+01  0.20730291280E+02 -0.51795483113E+02  0.56316743669E+02  0.00000000000E+00 0.  1.
         12    1    4    4    0    0  0.11654833173E+03  0.18308366276E+03 -0.20791794515E+03  0.30055450939E+03  0.00000000000E+00 0. -1.
        -13    1    3    3    0    0 -0.22363839890E+02 -0.51463259248E+01 -0.94401656419E+02  0.97150907046E+02  0.00000000000E+00 0. -1.
         13    1    3    3    0    0  0.26505911696E+01 -0.22068740089E+03 -0.68104722110E+03  0.71591568771E+03  0.00000000000E+00 0.  1.
         21    1    1    2  503  502 -0.27448406417E+02  0.28023527433E+02 -0.11840327333E+03  0.12473198563E+03  0.00000000000E+00 0. -1.
          1    1    1    2  501    0 -0.61701719198E+02 -0.60037546596E+01 -0.36974957167E+03  0.37491051329E+03  0.00000000000E+00 0. -1.
<scales pt_clust_5="13000.00000" pt_clust_6="13000.00000" pt_clust_7="13000.00000" pt_clust_8="13000.00000" pt_clust_9="39.22669" pt_clust_10="68.63939"></scales>
<clustering>
<clus scale="   39.227">  2  9  1 -1</clus>
<clus scale="   68.639">  1 10  2 -1</clus>
<clus scale="   80.713">  5  6 -1 -1</clus>
<clus scale="   91.470">  7  8 -1 -1</clus>
<clus scale="  231.603">  1  5  2 -1</clus>
<clus scale="   68.639">  1  5  2 -1</clus>
</clustering>
</event>
<event>
10    4  0.3738096E-005  0.1096976E+03  0.7546771E-02  0.1265679E+00
         21   -1    0    0  503  502  0.00000000000E+00  0.00000000000E+00  0.89012993380E+03  0.89012993380E+03  0.00000000000E+00 0.  1.
         -1   -1    0    0    0  501 -0.00000000000E+00 -0.00000000000E+00 -0.31798893582E+02  0.31798893582E+02  0.00000000000E+00 0.  1.
         24    2    1    2    0    0  0.71215656706E+02 -0.22303680013E+02  0.26991069878E+03  0.29150683321E+03  0.80964959019E+02 0.  0.
         23    2    1    2    0    0 -0.55393096646E+02  0.14480795357E+02  0.44195404175E+03  0.45510110264E+03  0.92279737840E+02 0.  0.
        -13    1    3    3    0    0 -0.11510020526E+01  0.23465452488E+02  0.43376127158E+02  0.49329916616E+02  0.00000000000E+00 0.  1.
         14    1    3    3    0    0  0.72366658758E+02 -0.45769132501E+02  0.22653457162E+03  0.24217691659E+03  0.00000000000E+00 0. -1.
        -13    1    4    4    0    0 -0.62846021322E+02  0.37409167847E+02  0.40068993907E+03  0.40731007293E+03  0.00000000000E+00 0.  1.
         13    1    4    4    0    0  0.74529246757E+01 -0.22928372490E+02  0.41264102681E+02  0.47791029717E+02  0.00000000000E+00 0. -1.
         21    1    1    2  503  501 -0.47884778909E+02  0.19516102449E+02  0.12429882000E+03  0.13462550635E+03  0.00000000000E+00 0.  1.
         -2    1    1    2    0  502  0.32062218849E+02 -0.11693217792E+02  0.22167479693E+02  0.40695385190E+02  0.00000000000E+00 0.  1.
<scales pt_clust_5="13000.00000" pt_clust_6="13000.00000" pt_clust_7="13000.00000" pt_clust_8="13000.00000" pt_clust_9="46.56775" pt_clust_10="34.12797"></scales>
<clustering>
<clus scale="   34.128">  1 10  2 -1</clus>
<clus scale="   46.568">  2  9  1 -1</clus>
<clus scale="   80.965">  5  6 -1 -1</clus>
<clus scale="   92.280">  7  8 -1 -1</clus>
<clus scale="  100.366">  2  5  1 -1</clus>
<clus scale="   34.128">  1  5  2 -1</clus>
</clustering>
</event>
<event>
10    4  0.3738096E-005  0.1285855E+03  0.7546771E-02  0.1230319E+00
         21   -1    0    0  503  502  0.00000000000E+00  0.00000000000E+00  0.43466434252E+02  0.43466434252E+02  0.00000000000E+00 0.  1.
         -1   -1    0    0    0  501 -0.00000000000E+00 -0.00000000000E+00 -0.76936859191E+03  0.76936859191E+03  0.00000000000E+00 0.  1.
         23    2    1    2    0    0 -0.94453350000E+02  0.11954181034E+02 -0.31800347278E+03  0.34209777555E+03  0.82706357502E+02 0.  0.
         24    2    1    2    0    0  0.11139564159E+03  0.38439925613E+02 -0.24696831664E+03  0.28498458712E+03  0.79600556687E+02 0.  0.
        -11    1    4    4    0    0  0.80784023466E+02  0.42976937884E+02 -0.10320701187E+03  0.13793028288E+03  0.00000000000E+00 0.  1.
         12    1    4    4    0    0  0.30611618119E+02 -0.45370122717E+01 -0.14376130477E+03  0.14705430424E+03  0.00000000000E+00 0. -1.
        -13    1    3    3    0    0 -0.33027621359E+02  0.40833831068E+02 -0.19106369112E+03  0.19815034595E+03  0.00000000000E+00 0.  1.
         13    1    3    3    0    0 -0.61425728641E+02 -0.28879650034E+02 -0.12693978165E+03  0.14394742961E+03  0.00000000000E+00 0. -1.
         21    1    1    2  503  501  0.15384817822E+02  0.13569109357E+02 -0.45050757881E+02  0.49501354868E+02  0.00000000000E+00 0. -1.
         -2    1    1    2    0  502 -0.32327109407E+02 -0.63963216004E+02 -0.11587961036E+03  0.13625130862E+03  0.00000000000E+00 0.  1.
<scales pt_clust_5="13000.00000" pt_clust_6="13000.00000" pt_clust_7="13000.00000" pt_clust_8="13000.00000" pt_clust_9="20.51374" pt_clust_10="68.35535"></scales>
<clustering>
<clus scale="   20.514">  2  9  1 -1</clus>
<clus scale="   68.355">  1 10  2 -1</clus>
<clus scale="   79.601">  5  6 -1 -1</clus>
<clus scale="   82.706">  7  8 -1 -1</clus>
<clus scale="  126.610">  1  5  2 -1</clus>
<clus scale="   68.355">  1  5  2 -1</clus>
</clustering>
</event>
<event>
10    4  0.3738096E-005  0.1009329E+03  0.7546771E-02  0.1283699E+00
         21   -1    0    0  501  502  0.00000000000E+00  0.00000000000E+00  0.27195960386E+03  0.27195960386E+03  0.00000000000E+00 0.  1.
          2   -1    0    0  503    0 -0.00000000000E+00 -0.00000000000E+00 -0.14088834854E+03  0.14088834854E+03  0.00000000000E+00 0. -1.
         24    2    1    2    0    0  0.32480177901E+02  0.13999821209E+02 -0.81663004815E+02  0.12047977520E+03  0.81213132719E+02 0.  0.
         23    2    1    2    0    0 -0.56427140159E+02  0.74491962460E+01  0.15463846426E+03  0.18874111343E+03  0.92036083152E+02 0.  0.
        -13    1    3    3    0    0 -0.18880291106E+02  0.27643077977E+02 -0.19668719559E+02  0.38826069610E+02  0.00000000000E+00 0.  1.
         14    1    3    3    0    0  0.51360469007E+02 -0.13643256768E+02 -0.61994285257E+02  0.81653705588E+02  0.00000000000E+00 0. -1.
        -11    1    4    4    0    0 -0.75737163059E+02  0.25889434763E+02  0.12841365322E+03  0.15131571972E+03  0.00000000000E+00 0.  1.
         11    1    4    4    0    0  0.19310022900E+02 -0.18440238517E+02  0.26224811035E+02  0.37425393716E+02  0.00000000000E+00 0. -1.
         21    1    1    2  503  502 -0.47288969503E+01  0.21818304687E+02 -0.40137902937E+01  0.22682843700E+02  0.00000000000E+00 0.  1.
          1    1    1    2  501    0  0.28675859209E+02 -0.43267322142E+02  0.62109586174E+02  0.80944220062E+02  0.00000000000E+00 0. -1.
<scales pt_clust_5="13000.00000" pt_clust_6="13000.00000" pt_clust_7="13000.00000" pt_clust_8="13000.00000" pt_clust_9="22.32489" pt_clust_10="50.37508"></scales>
<clustering>
<clus scale="   22.325">  2  9  1 -1</clus>
<clus scale="   50.375">  1 10  2 -1</clus>
<clus scale="   81.213">  5  6 -1 -1</clus>
<clus scale="   91.172">  2  5  1 -1</clus>
<clus scale="   92.036">  7  8 -1 -1</clus>
<clus scale="   50.375">  1  5  2 -1</clus>
</clustering>
</event>
<event>
10    4  0.3738096E-005  0.2839603E+03  0.7546771E-02  0.1093967E+00
         21   -1    0    0  501  502  0.00000000000E+00  0.00000000000E+00  0.58610840855E+03  0.58610840855E+03  0.00000000000E+00 0.  1.
          2   -1    0    0  503    0 -0.00000000000E+00 -0.00000000000E+00 -0.37789772362E+03  0.37789772362E+03  0.00000000000E+00 0. -1.
         24    2    1    2    0    0 -0.18096504704E+03  0.24123446722E+03  0.11961836661E+03  0.33394698165E+03  0.79180909922E+02 0.  0.
         23    2    1    2    0    0  0.13726593628E+03 -0.17299549226E+03  0.30667370898E+03  0.38839647545E+03  0.89630802490E+02 0.  0.
        -13    1    3    3    0    0 -0.31807934890E+02  0.97484090233E+02  0.58077033101E+02  0.11784665606E+03  0.00000000000E+00 0.  1.
         14    1    3    3    0    0 -0.14915711216E+03  0.14375037698E+03  0.61541333507E+02  0.21610032559E+03  0.00000000000E+00 0. -1.
        -11    1    4    4    0    0  0.99569245014E+02 -0.59595337156E+02  0.18076523114E+03  0.21480620930E+03  0.00000000000E+00 0. -1.
         11    1    4    4    0    0  0.37696691269E+02 -0.11340015510E+03  0.12590847783E+03  0.17359026615E+03  0.00000000000E+00 0.  1.
         21    1    1    2  503  502  0.17615422388E+02  0.10670949645E+02 -0.52477719020E+02  0.56374491269E+02  0.00000000000E+00 0. -1.
          1    1    1    2  501    0  0.26083688373E+02 -0.78909924600E+02 -0.16560367163E+03  0.18528818381E+03  0.00000000000E+00 0. -1.
<scales pt_clust_5="13000.00000" pt_clust_6="13000.00000" pt_clust_7="13000.00000" pt_clust_8="13000.00000" pt_clust_9="20.59544" pt_clust_10="81.34449"></scales>
<clustering>
<clus scale="   20.595">  2  9  1 -1</clus>
<clus scale="   79.181">  5  6 -1 -1</clus>
<clus scale="   81.344">  1 10  2 -1</clus>
<clus scale="   89.631">  7  8 -1 -1</clus>
<clus scale="  280.837">  2  5  1 -1</clus>
<clus scale="   81.344">  1  5  2 -1</clus>
</clustering>
</event>
<event>
10    4  0.3738096E-005  0.2738929E+03  0.7546771E-02  0.1099437E+00
         21   -1    0    0  501  502  0.00000000000E+00  0.00000000000E+00  0.56578507869E+03  0.56578507869E+03  0.00000000000E+00 0. -1.
          4   -1    0    0  503    0 -0.00000000000E+00 -0.00000000000E+00 -0.35948145684E+03  0.35948145684E+03  0.00000000000E+00 0. -1.
         23    2    1    2    0    0 -0.20350539180E+03  0.20118858549E+03  0.12232413284E+03  0.32387925827E+03  0.89684385698E+02 0.  0.
         24    2    1    2    0    0  0.22213441553E+03 -0.10826820127E+03  0.27767926086E+03  0.38053411128E+03  0.81453888608E+02 0.  0.
        -11    1    4    4    0    0  0.34136914502E+02 -0.52592222260E+02  0.85136334541E+02  0.10573299501E+03  0.00000000000E+00 0.  1.
         12    1    4    4    0    0  0.18799750103E+03 -0.55675979007E+02  0.19254292632E+03  0.27480111628E+03  0.00000000000E+00 0. -1.
        -11    1    3    3    0    0 -0.18563447034E+02  0.30607655117E+02 -0.13138473084E+02  0.38132002210E+02  0.00000000000E+00 0.  1.
         11    1    3    3    0    0 -0.18494194477E+03  0.17058093037E+03  0.13546260593E+03  0.28574725606E+03  0.00000000000E+00 0. -1.
         21    1    1    2  503  502 -0.46622717639E+01 -0.71393952278E+02 -0.17512298079E+03  0.18917423609E+03  0.00000000000E+00 0. -1.
          3    1    1    2  501    0 -0.13966751963E+02 -0.21526431944E+02 -0.18576791068E+02  0.31678929891E+02  0.00000000000E+00 0. -1.
<scales pt_clust_5="13000.00000" pt_clust_6="13000.00000" pt_clust_7="13000.00000" pt_clust_8="13000.00000" pt_clust_9="71.82749" pt_clust_10="25.66044"></scales>
<clustering>
<clus scale="   25.660">  1 10  2 -1</clus>
<clus scale="   71.827">  2  9  1 -1</clus>
<clus scale="   81.454">  5  6 -1 -1</clus>
<clus scale="   89.684">  7  8 -1 -1</clus>
<clus scale="  271.309">  1  5  2 -1</clus>
<clus scale="   25.660">  1  5  2 -1</clus>
</clustering>
</event>
<event>
10    4  0.3738096E-005  0.2158363E+03  0.7546771E-02  0.1137875E+00
          4   -1    0    0  503    0 -0.00000000000E+00  0.00000000000E+00  0.13120039862E+03  0.13120039862E+03  0.00000000000E+00 0. -1.
         21   -1    0    0  501  502  0.00000000000E+00 -0.00000000000E+00 -0.69976711829E+03  0.69976711829E+03  0.00000000000E+00 0. -1.
         24    2    1    2    0    0  0.21039156905E+03  0.28361761998E+02 -0.20442032180E+03  0.30503408519E+03  0.78670981252E+02 0.  0.
         23    2    1    2    0    0 -0.19305464454E+03 -0.50451366563E+02 -0.31186767120E+03  0.38097838094E+03  0.89820077040E+02 0.  0.
        -11    1    3    3    0    0  0.95152305474E+02  0.26058778483E+02 -0.45314966156E+02  0.10856549788E+03  0.00000000000E+00 0.  1.
         12    1    3    3    0    0  0.11523926357E+03  0.23029835152E+01 -0.15910535565E+03  0.19646858731E+03  0.00000000000E+00 0. -1.
        -11    1    4    4    0    0 -0.68523547365E+02 -0.63200280802E+02 -0.14488740186E+03  0.17228497106E+03  0.00000000000E+00 0.  1.
         11    1    4    4    0    0 -0.12453109718E+03  0.12748914238E+02 -0.16698026934E+03  0.20869340988E+03  0.00000000000E+00 0. -1.
         21    1    1    2  503  502 -0.65868186169E+02 -0.35198561466E+01 -0.60455358433E+02  0.89475458645E+02  0.00000000000E+00 0.  1.
          3    1    1    2  501    0  0.48531261662E+02  0.25609460712E+02  0.81766317620E+01  0.55479592134E+02  0.00000000000E+00 0. -1.
<scales pt_clust_5="13000.00000" pt_clust_6="13000.00000" pt_clust_7="13000.00000" pt_clust_8="13000.00000" pt_clust_9="60.49103" pt_clust_10="54.87377"></scales>
<clustering>
<clus scale="   54.874">  2 10  1 -1</clus>
<clus scale="   60.491">  1  9  2 -1</clus>
<clus scale="   78.671">  5  6 -1 -1</clus>
<clus scale="   89.820">  7  8 -1 -1</clus>
<clus scale="  211.440">  1  5  2 -1</clus>
<clus scale="   54.874">  2  5  1 -1</clus>
</clustering>
</event>
<event>
10    4  0.3738096E-005  0.1389822E+03  0.7546771E-02  0.1225853E+00
          4   -1    0    0  503    0 -0.00000000000E+00  0.00000000000E+00  0.99573897105E+03  0.99573897105E+03  0.00000000000E+00 0. -1.
         21   -1    0    0  501  502  0.00000000000E+00 -0.00000000000E+00 -0.10972707846E+03  0.10972707846E+03  0.00000000000E+00 0. -1.
         23    2    1    2    0    0 -0.29210885515E+02 -0.98396008403E+02  0.25716069593E+03  0.28824165861E+03  0.80103557531E+02 0.  0.
         24    2    1    2    0    0  0.20889713741E+02 -0.98474683498E+02  0.22197858760E+02  0.13037620098E+03  0.79822086038E+02 0.  0.
        -11    1    4    4    0    0 -0.21800691240E+02 -0.52871814329E+01 -0.75114243145E+01  0.23656836671E+02  0.00000000000E+00 0.  1.
         12    1    4    4    0    0  0.42690404981E+02 -0.93187502065E+02  0.29709283075E+02  0.10671936431E+03  0.00000000000E+00 0. -1.
        -13    1    3    3    0    0  0.27499805555E+02 -0.25734839474E+02  0.65134971429E+02  0.75240187210E+02  0.00000000000E+00 0.  1.
         13    1    3    3    0    0 -0.56710691070E+02 -0.72661168929E+02  0.19202572450E+03  0.21300147140E+03  0.00000000000E+00 0. -1.
         21    1    1    2  503  502  0.82747439941E+02  0.72459457759E+02  0.48583648512E+03  0.49813110936E+03  0.00000000000E+00 0. -1.
          3    1    1    2  501    0 -0.74426268167E+02  0.12441123414E+03  0.12081685278E+03  0.18871708054E+03  0.00000000000E+00 0. -1.
<scales pt_clust_5="13000.00000" pt_clust_6="13000.00000" pt_clust_7="13000.00000" pt_clust_8="13000.00000" pt_clust_9="109.98869" pt_clust_10="113.77391"></scales>
<clustering>
<clus scale="   79.822">  5  6 -1 -1</clus>
<clus scale="   80.104">  7  8 -1 -1</clus>
<clus scale="  109.989">  1  9  2 -1</clus>
<clus scale="  109.989">  1  7  2 -1</clus>
<clus scale="  113.774">  2 10  1 -1</clus>
<clus scale="  113.774">  2  5  1 -1</clus>
</clustering>
</event>
<event>
10    4  0.3738096E-005  0.9543703E+02  0.7546771E-02  0.1298110E+00
          4   -1    0    0  503    0 -0.00000000000E+00  0.00000000000E+00  0.14649993940E+03  0.14649993940E+03  0.00000000000E+00 0. -1.
         21   -1    0    0  501  502  0.00000000000E+00 -0.00000000000E+00 -0.24032634914E+03  0.24032634914E+03  0.00000000000E+00 0. -1.
         24    2    1    2    0    0 -0.19497747618E+01 -0.51981646563E+01  0.30831822162E+02  0.86408819714E+02  0.80529872278E+02 0.  0.
         23    2    1    2    0    0 -0.31237662236E+02 -0.28538652545E+02 -0.17294284247E+03  0.20126701656E+03  0.93855947918E+02 0.  0.
        -13    1    3    3    0    0 -0.36884386539E+02  0.74916567230E+01 -0.73525924488E+00  0.37644700782E+02  0.00000000000E+00 0.  1.
         14    1    3    3    0    0  0.34934611777E+02 -0.12689821379E+02  0.31567081407E+02  0.48764118932E+02  0.00000000000E+00 0. -1.
        -13    1    4    4    0    0 -0.47468803557E+02 -0.41828426327E+02 -0.16827534271E+03  0.17977623738E+03  0.00000000000E+00 0. -1.
         13    1    4    4    0    0  0.16231141321E+02  0.13289773782E+02 -0.46674997614E+01  0.21490779180E+02  0.00000000000E+00 0.  1.
         21    1    1    2  503  502  0.31926703286E+02 -0.16665451070E+02  0.17104794115E+02  0.39870109403E+02  0.00000000000E+00 0. -1.
          3    1    1    2  501    0  0.12607337120E+01  0.50402268271E+02  0.31179816450E+02  0.59280342865E+02  0.00000000000E+00 0. -1.
<scales pt_clust_5="13000.00000" pt_clust_6="13000.00000" pt_clust_7="13000.00000" pt_clust_8="13000.00000" pt_clust_9="36.01460" pt_clust_10="46.03795"></scales>
<clustering>
<clus scale="   36.015">  1  9  2 -1</clus>
<clus scale="   46.038">  2 10  1 -1</clus>
<clus scale="   80.530">  5  6 -1 -1</clus>
<clus scale="   82.367">  1  5  2 -1</clus>
<clus scale="   93.856">  7  8 -1 -1</clus>
<clus scale="   46.038">  2  5  1 -1</clus>
</clustering>
</event>
<event>
10    4  0.3738096E-005  0.2091376E+03  0.7546771E-02  0.1142251E+00
         21   -1    0    0  501  502  0.00000000000E+00  0.00000000000E+00  0.14608532793E+03  0.14608532793E+03  0.00000000000E+00 0.  1.
          2   -1    0    0  503    0 -0.00000000000E+00 -0.00000000000E+00 -0.31840966747E+03  0.31840966747E+03  0.00000000000E+00 0. -1.
         24    2    1    2    0    0 -0.58225892503E+02 -0.78364742930E+02 -0.35894904506E+01  0.12697025799E+03  0.81100397531E+02 0.  0.
         23    2    1    2    0    0 -0.16262765105E+02 -0.23460936902E+02 -0.33211820925E+02  0.99554877698E+02  0.89405008446E+02 0.  0.
        -13    1    3    3    0    0 -0.76157677666E+02 -0.63276826573E+02  0.10589884540E+02  0.99579587784E+02  0.00000000000E+00 0.  1.
         14    1    3    3    0    0  0.17931785163E+02 -0.15087916356E+02 -0.14179374990E+02  0.27390670204E+02  0.00000000000E+00 0. -1.
        -11    1    4    4    0    0 -0.41984430720E+02 -0.42052595694E+02 -0.32672530398E+02  0.67813033188E+02  0.00000000000E+00 0. -1.
         11    1    4    4    0    0  0.25721665615E+02  0.18591658792E+02 -0.53929052652E+00  0.31741844510E+02  0.00000000000E+00 0.  1.
         21    1    1    2  503  502  0.98731939961E+02  0.10749648979E+02 -0.52336592761E+02  0.11226161349E+03  0.00000000000E+00 0. -1.
          1    1    1    2  501    0 -0.24243282353E+02  0.91076030853E+02 -0.83186435404E+02  0.12570824623E+03  0.00000000000E+00 0. -1.
<scales pt_clust_5="13000.00000" pt_clust_6="13000.00000" pt_clust_7="13000.00000" pt_clust_8="13000.00000" pt_clust_9="98.46957" pt_clust_10="94.24749"></scales>
<clustering>
<clus scale="   81.100">  5  6 -1 -1</clus>
<clus scale="   89.405">  7  8 -1 -1</clus>
<clus scale="   89.889">  5  7 -1 -1</clus>
<clus scale="   94.247">  1 10  2 -1</clus>
<clus scale="   98.470">  2  9  1 -1</clus>
<clus scale="   94.247">  1  5  2 -1</clus>
</clustering>
</event>
<event>
10    4  0.3738096E-005  0.1625691E+03  0.7546771E-02  0.1204707E+00
         -3   -1    0    0    0  501 -0.00000000000E+00  0.00000000000E+00  0.43034016948E+03  0.43034016948E+03  0.00000000000E+00 0.  1.
         21   -1    0    0  503  502  0.00000000000E+00 -0.00000000000E+00 -0.21955088825E+03  0.21955088825E+03  0.00000000000E+00 0. -1.
         24    2    1    2    0    0  0.54600634871E+02 -0.63969061027E+02 -0.20934075324E+02  0.11911081981E+03  0.81706069470E+02 0.  0.
         23    2    1    2    0    0 -0.48031929961E+02 -0.15842428591E+03  0.90949790464E+02  0.20958726914E+03  0.90827519720E+02 0.  0.
        -11    1    3    3    0    0  0.35424850289E+02  0.13065335928E+02 -0.42985008132E+01  0.38001317479E+02  0.00000000000E+00 0.  1.
         12    1    3    3    0    0  0.19175784582E+02 -0.77034396954E+02 -0.16635574510E+02  0.81109502327E+02  0.00000000000E+00 0. -1.
        -11    1    4    4    0    0  0.17742765699E+02 -0.27927525362E+02  0.46059823152E+02  0.56712077341E+02  0.00000000000E+00 0. -1.
         11    1    4    4    0    0 -0.65774695660E+02 -0.13049676055E+03  0.44889967311E+02  0.15287519180E+03  0.00000000000E+00 0.  1.
         21    1    1    2  503  501 -0.62161086677E+01  0.96354237210E+02  0.16657860303E+03  0.19253885328E+03  0.00000000000E+00 0.  1.
         -4    1    1    2    0  502 -0.35259624266E+00  0.12603910972E+03 -0.25805036937E+02  0.12865411550E+03  0.00000000000E+00 0.  1.
<scales pt_clust_5="13000.00000" pt_clust_6="13000.00000" pt_clust_7="13000.00000" pt_clust_8="13000.00000" pt_clust_9="96.55454" pt_clust_10="134.82979"></scales>
<clustering>
<clus scale="   81.706">  5  6 -1 -1</clus>
<clus scale="   90.828">  7  8 -1 -1</clus>
<clus scale="   96.555">  1  9  2 -1</clus>
<clus scale="  107.520">  1  5  2 -1</clus>
<clus scale="  134.830">  2 10  1 -1</clus>
<clus scale="  134.830">  2  5  1 -1</clus>
</clustering>
</event>
<event>
10    4  0.3738096E-005  0.1500688E+03  0.7546771E-02  0.1210890E+00
         21   -1    0    0  501  502  0.00000000000E+00  0.00000000000E+00  0.40652557273E+03  0.40652557273E+03  0.00000000000E+00 0. -1.
          2   -1    0    0  503    0 -0.00000000000E+00 -0.00000000000E+00 -0.17481418061E+03  0.17481418061E+03  0.00000000000E+00 0. -1.
         24    2    1    2    0    0 -0.83282544852E+02 -0.61409948410E+02 -0.28965530366E+02  0.13457832451E+03  0.81025671468E+02 0.  0.
         23    2    1    2    0    0  0.30230477307E+02 -0.79222214758E+02  0.14365767052E+02  0.12560470347E+03  0.91543023777E+02 0.  0.
        -13    1    3    3    0    0 -0.30098181765E+02 -0.13830916758E+02  0.27918138947E+02  0.43319940977E+02  0.00000000000E+00 0.  1.
         14    1    3    3    0    0 -0.53184363087E+02 -0.47579031653E+02 -0.56883669313E+02  0.91258383530E+02  0.00000000000E+00 0. -1.
        -11    1    4    4    0    0  0.18752489195E+02 -0.98887726487E+02  0.43914605758E+01  0.10074583479E+03  0.00000000000E+00 0. -1.
         11    1    4    4    0    0  0.11477988112E+02  0.19665511730E+02  0.99743064765E+01  0.24858868687E+02  0.00000000000E+00 0.  1.
         21    1    1    2  503  502  0.27570707671E+02  0.11314085522E+02 -0.11229857026E+02  0.31847482499E+02  0.00000000000E+00 0.  1.
          1    1    1    2  501    0  0.25481359874E+02  0.12931807765E+03  0.25754101246E+03  0.28930924286E+03  0.00000000000E+00 0. -1.
<scales pt_clust_5="13000.00000" pt_clust_6="13000.00000" pt_clust_7="13000.00000" pt_clust_8="13000.00000" pt_clust_9="29.80189" pt_clust_10="118.91393"></scales>
<clustering>
<clus scale="   29.802">  2  9  1 -1</clus>
<clus scale="   81.026">  5  6 -1 -1</clus>
<clus scale="   91.543">  7  8 -1 -1</clus>
<clus scale="  119.724">  2  5  1 -1</clus>
<clus scale="  118.914">  1 10  2 -1</clus>
<clus scale="  118.914">  1  5  2 -1</clus>
</clustering>
</event>
<event>
10    4  0.3738096E-005  0.1028790E+03  0.7546771E-02  0.1280274E+00
         21   -1    0    0  501  502  0.00000000000E+00  0.00000000000E+00  0.72179881852E+02  0.72179881852E+02  0.00000000000E+00 0.  1.
          2   -1    0    0  503    0 -0.00000000000E+00 -0.00000000000E+00 -0.93237638137E+03  0.93237638137E+03  0.00000000000E+00 0. -1.
         24    2    1    2    0    0 -0.26384286663E+02  0.22217337293E+02 -0.66623215860E+03  0.67193489029E+03  0.80258750230E+02 0.  0.
         23    2    1    2    0    0  0.78049787818E+02  0.58767400061E+02 -0.13284012666E+03  0.18914634716E+03  0.92652386396E+02 0.  0.
        -11    1    3    3    0    0  0.20404272842E+02 -0.43401971392E+00 -0.58010961940E+02  0.61496296055E+02  0.00000000000E+00 0.  1.
         12    1    3    3    0    0 -0.46788559505E+02  0.22651357007E+02 -0.60822119666E+03  0.61043859424E+03  0.00000000000E+00 0. -1.
        -13    1    4    4    0    0  0.77226416306E+02  0.17842334239E+02 -0.42433606066E+02  0.89904834076E+02  0.00000000000E+00 0.  1.
         13    1    4    4    0    0  0.82337151146E+00  0.40925065822E+02 -0.90406520597E+02  0.99241513086E+02  0.00000000000E+00 0. -1.
         21    1    1    2  503  502 -0.11252913385E+02 -0.32525680726E+02 -0.71665743180E+02  0.79501740308E+02  0.00000000000E+00 0. -1.
          1    1    1    2  501    0 -0.40412587769E+02 -0.48459056628E+02  0.10541528926E+02  0.63973285452E+02  0.00000000000E+00 0. -1.
<scales pt_clust_5="13000.00000" pt_clust_6="13000.00000" pt_clust_7="13000.00000" pt_clust_8="13000.00000" pt_clust_9="34.41726" pt_clust_10="64.10353"></scales>
<clustering>
<clus scale="   34.417">  2  9  1 -1</clus>
<clus scale="   64.104">  1 10  2 -1</clus>
<clus scale="   80.259">  5  6 -1 -1</clus>
<clus scale="   91.875">  2  5  1 -1</clus>
<clus scale="   92.652">  7  8 -1 -1</clus>
<clus scale="   64.104">  1  5  2 -1</clus>
</clustering>
</event>
<event>
10    4  0.3738096E-005  0.2275172E+03  0.7546771E-02  0.1150363E+00
         21   -1    0    0  501  502  0.00000000000E+00  0.00000000000E+00  0.10828020458E+03  0.10828020458E+03  0.00000000000E+00 0. -1.
          2   -1    0    0  503    0 -0.00000000000E+00 -0.00000000000E+00 -0.26543175169E+04  0.26543175169E+04  0.00000000000E+00 0. -1.
         24    2    1    2    0    0  0.78823951280E+02  0.71893469548E+02 -0.48051429296E+03  0.49881155232E+03  0.80852289595E+02 0.  0.
         23    2    1    2    0    0 -0.87947402410E+02 -0.58562130783E+02 -0.11658543755E+03  0.18191356706E+03  0.91302315848E+02 0.  0.
        -11    1    3    3    0    0  0.21783643879E+02 -0.17383167143E+02 -0.10568717664E+03  0.10929995859E+03  0.00000000000E+00 0.  1.
         12    1    3    3    0    0  0.57040307401E+02  0.89276636691E+02 -0.37482711631E+03  0.38951159373E+03  0.00000000000E+00 0. -1.
        -13    1    4    4    0    0  0.62495391583E+00 -0.50259570570E+02 -0.35417091480E+02  0.61488091288E+02  0.00000000000E+00 0.  1.
         13    1    4    4    0    0 -0.88572356326E+02 -0.83025602132E+01 -0.81168346069E+02  0.12042547577E+03  0.00000000000E+00 0. -1.
         21    1    1    2  503  502  0.23554836714E+03 -0.50329600526E+01 -0.17892074849E+04  0.18046528165E+04  0.00000000000E+00 0. -1.
          1    1    1    2  501    0 -0.22642491601E+03 -0.82983787115E+01 -0.15973009686E+03  0.27721978558E+03  0.00000000000E+00 0. -1.
<scales pt_clust_5="13000.00000" pt_clust_6="13000.00000" pt_clust_7="13000.00000" pt_clust_8="13000.00000" pt_clust_9="227.51716" pt_clust_10="13000.00000"></scales>
<clustering>
<clus scale="   80.852">  5  6 -1 -1</clus>
<clus scale="   91.302">  7  8 -1 -1</clus>
<clus scale="  133.862">  2  5  1 -1</clus>
<clus scale="  134.231">  2  7  1 -1</clus>
<clus scale="  227.517">  2  9  1 -1</clus>
<clus scale="  227.517">  1  5  2 -1</clus>
</clustering>
</event>
<event>
10    4  0.3738096E-005  0.1176736E+03  0.7546771E-02  0.1251606E+00
         21   -1    0    0  501  502  0.00000000000E+00  0.00000000000E+00  0.10315025448E+03  0.10315025448E+03  0.00000000000E+00 0.  1.
          4   -1    0    0  503    0 -0.00000000000E+00 -0.00000000000E+00 -0.61383445072E+03  0.61383445072E+03  0.00000000000E+00 0. -1.
         23    2    1    2    0    0  0.90733327441E+02  0.46101195697E+01 -0.20265291670E+03  0.24021270343E+03  0.91543150120E+02 0.  0.
         24    2    1    2    0    0 -0.21892595750E+02  0.67814581608E+01  0.56304526768E+02  0.98683832208E+02  0.77736896524E+02 0.  0.
        -11    1    4    4    0    0 -0.20558714572E+02 -0.21730076873E+02  0.62666896854E+02  0.69440600134E+02  0.00000000000E+00 0.  1.
         12    1    4    4    0    0 -0.13338811780E+01  0.28511535034E+02 -0.63623700853E+01  0.29243232073E+02  0.00000000000E+00 0. -1.
        -11    1    3    3    0    0  0.92877051281E+02  0.25767222997E+02 -0.11516206346E+03  0.15017455609E+03  0.00000000000E+00 0.  1.
         11    1    3    3    0    0 -0.21437238393E+01 -0.21157103427E+02 -0.87490853239E+02  0.90038147348E+02  0.00000000000E+00 0. -1.
         21    1    1    2  503  502 -0.10780878851E+02 -0.35300835541E+02 -0.10642103555E+03  0.11264019330E+03  0.00000000000E+00 0. -1.
          3    1    1    2  501    0 -0.58059852841E+02  0.23909257811E+02 -0.25791477076E+03  0.26544797625E+03  0.00000000000E+00 0. -1.
<scales pt_clust_5="13000.00000" pt_clust_6="13000.00000" pt_clust_7="13000.00000" pt_clust_8="13000.00000" pt_clust_9="36.91038" pt_clust_10="63.89918"></scales>
<clustering>
<clus scale="   36.910">  2  9  1 -1</clus>
<clus scale="   63.899">  1 10  2 -1</clus>
<clus scale="   77.737">  5  6 -1 -1</clus>
<clus scale="   91.543">  7  8 -1 -1</clus>
<clus scale="  107.284">  1  5  2 -1</clus>
<clus scale="   63.899">  1  5  2 -1</clus>
</clustering>
</event>
<event>
10    4  0.3738096E-005  0.1966530E+03  0.7546771E-02  0.1184566E+00
         21   -1    0    0  503  502  0.00000000000E+00  0.00000000000E+00  0.61589489013E+03  0.61589489013E+03  0.00000000000E+00 0.  1.
          2   -1    0    0  502    0 -0.00000000000E+00 -0.00000000000E+00 -0.14537899881E+03  0.14537899881E+03  0.00000000000E+00 0. -1.
         24    2    1    2    0    0 -0.55249780359E+02  0.95901368089E+01  0.12285953902E+03  0.15660325943E+03  0.79281811180E+02 0.  0.
         23    2    1    2    0    0  0.57276568559E+02 -0.15487089922E+03  0.35199513103E+03  0.39926040429E+03  0.90789302446E+02 0.  0.
        -11    1    3    3    0    0 -0.34336137335E+02  0.29834673978E+02  0.11880494077E+03  0.12721514080E+03  0.00000000000E+00 0.  1.
         12    1    3    3    0    0 -0.20913643024E+02 -0.20244537169E+02  0.40545982485E+01  0.29388118631E+02  0.00000000000E+00 0. -1.
        -13    1    4    4    0    0  0.33093188552E+02 -0.15916382886E+03  0.31998291019E+03  0.35891133496E+03  0.00000000000E+00 0.  1.
         13    1    4    4    0    0  0.24183380007E+02  0.42929296400E+01  0.32012220833E+02  0.40349069335E+02  0.00000000000E+00 0. -1.
         21    1    1    2  503  501  0.17417645725E+02 -0.17683903476E+02  0.28755208078E+02  0.37986271419E+02  0.00000000000E+00 0.  1.
          1    1    1    2  501    0 -0.19444433925E+02  0.16296466589E+03 -0.33093986802E+02  0.16742395379E+03  0.00000000000E+00 0. -1.
<scales pt_clust_5="13000.00000" pt_clust_6="13000.00000" pt_clust_7="13000.00000" pt_clust_8="13000.00000" pt_clust_9="24.82126" pt_clust_10="174.44118"></scales>
<clustering>
<clus scale="   24.821">  1  9  2 -1</clus>
<clus scale="   79.282">  5  6 -1 -1</clus>
<clus scale="   90.789">  7  8 -1 -1</clus>
<clus scale="   94.459">  2  5  1 -1</clus>
<clus scale="  174.441">  1 10  2 -1</clus>
<clus scale="   24.821">  1  5  2 -1</clus>
</clustering>
</event>
<event>
10    4  0.3738096E-005  0.1622736E+03  0.7546771E-02  0.1188017E+00
          2   -1    0    0  502    0 -0.00000000000E+00  0.00000000000E+00  0.10616886561E+04  0.10616886561E+04  0.00000000000E+00 0. -1.
         21   -1    0    0  503  502  0.00000000000E+00 -0.00000000000E+00 -0.70467942545E+02  0.70467942545E+02  0.00000000000E+00 0.  1.
         23    2    1    2    0    0  0.31633980512E+01 -0.11187002148E+03  0.24956729302E+03  0.28784950488E+03  0.89713961692E+02 0.  0.
         24    2    1    2    0    0  0.24236693169E+02  0.18708583519E+03  0.19989814062E+03  0.28549067548E+03  0.77182460047E+02 0.  0.
        -13    1    4    4    0    0  0.33703074866E+02  0.16818239509E+03  0.13820830200E+03  0.22027880065E+03  0.00000000000E+00 0.  1.
         14    1    4    4    0    0 -0.94663816975E+01  0.18903440096E+02  0.61689838617E+02  0.65211874828E+02  0.00000000000E+00 0. -1.
        -11    1    3    3    0    0 -0.27128458058E+02 -0.28892211970E+02  0.14813563659E+03  0.15334562262E+03  0.00000000000E+00 0. -1.
         11    1    3    3    0    0  0.30291856109E+02 -0.82977809505E+02  0.10143165643E+03  0.13450388226E+03  0.00000000000E+00 0.  1.
         21    1    1    2  503  501  0.27570473250E+02  0.59673453603E+01  0.50236054801E+02  0.57614246570E+02  0.00000000000E+00 0. -1.
          1    1    1    2  501    0 -0.54970564470E+02 -0.81183159072E+02  0.49151922508E+03  0.50120217168E+03  0.00000000000E+00 0. -1.
<scales pt_clust_5="13000.00000" pt_clust_6="13000.00000" pt_clust_7="13000.00000" pt_clust_8="13000.00000" pt_clust_9="28.20887" pt_clust_10="96.57462"></scales>
<clustering>
<clus scale="   28.209">  2  9  1 -1</clus>
<clus scale="   77.182">  5  6 -1 -1</clus>
<clus scale="   89.714">  7  8 -1 -1</clus>
<clus scale="   96.575">  2 10  1 -1</clus>
<clus scale="  155.696">  2  5  1 -1</clus>
<clus scale="   28.209">  2  5  1 -1</clus>
</clustering>
</event>
<event>
10    4  0.3738096E-005  0.1049005E+03  0.7546771E-02  0.1282814E+00
         21   -1    0    0  501  502  0.00000000000E+00  0.00000000000E+00  0.24021794959E+03  0.24021794959E+03  0.00000000000E+00 0.  1.
          2   -1    0    0  503    0 -0.00000000000E+00 -0.00000000000E+00 -0.23484959659E+03  0.23484959659E+03  0.00000000000E+00 0. -1.
         23    2    1    2    0    0  0.44355592024E+02  0.24380972734E+02 -0.14471943766E+03  0.17936264088E+03  0.93088081588E+02 0.  0.
         24    2    1    2    0    0 -0.32369492540E+02 -0.19807315993E+02 -0.78206321637E+01  0.77350649366E+02  0.66946597044E+02 0.  0.
        -13    1    4    4    0    0 -0.51254918038E+02 -0.43443078468E+01 -0.11384802803E+02  0.52683520845E+02  0.00000000000E+00 0.  1.
         14    1    4    4    0    0  0.18885425497E+02 -0.15463008146E+02  0.35641706389E+01  0.24667128521E+02  0.00000000000E+00 0. -1.
        -11    1    3    3    0    0  0.52936293499E+02  0.53035331994E+02 -0.91041770578E+02  0.11791353442E+03  0.00000000000E+00 0.  1.
         11    1    3    3    0    0 -0.85807014746E+01 -0.28654359259E+02 -0.53677667079E+02  0.61449106465E+02  0.00000000000E+00 0. -1.
         21    1    1    2  503  502 -0.10022806607E+02  0.25898524002E+02 -0.22276042311E+02  0.35600733964E+02  0.00000000000E+00 0.  1.
          1    1    1    2  501    0 -0.19632928767E+01 -0.30472180744E+02  0.18018446513E+03  0.18275352197E+03  0.00000000000E+00 0. -1.
<scales pt_clust_5="13000.00000" pt_clust_6="13000.00000" pt_clust_7="13000.00000" pt_clust_8="13000.00000" pt_clust_9="27.77031" pt_clust_10="30.37824"></scales>
<clustering>
<clus scale="   27.770">  2  9  1 -1</clus>
<clus scale="   30.378">  1 10  2 -1</clus>
<clus scale="   66.947">  5  6 -1 -1</clus>
<clus scale="   82.587">  1  5  2 -1</clus>
<clus scale="   93.088">  7  8 -1 -1</clus>
<clus scale="   30.378">  1  5  2 -1</clus>
</clustering>
</event>
<event>
10    4  0.3738096E-005  0.1303596E+03  0.7546771E-02  0.1230790E+00
         21   -1    0    0  503  502  0.00000000000E+00  0.00000000000E+00  0.35585738663E+03  0.35585738663E+03  0.00000000000E+00 0.  1.
         -1   -1    0    0    0  501 -0.00000000000E+00 -0.00000000000E+00 -0.15944673046E+03  0.15944673046E+03  0.00000000000E+00 0.  1.
         23    2    1    2    0    0 -0.18206082022E+02  0.89287696518E+02 -0.99124815294E+02  0.16384648341E+03  0.93360521358E+02 0.  0.
         24    2    1    2    0    0  0.75546329321E+01 -0.90312052722E+02  0.18210290847E+03  0.21812511646E+03  0.78763937246E+02 0.  0.
        -11    1    4    4    0    0 -0.27079132687E+02 -0.45923316407E+02  0.13348390879E+03  0.14373651005E+03  0.00000000000E+00 0.  1.
         12    1    4    4    0    0  0.34633765619E+02 -0.44388736315E+02  0.48618999681E+02  0.74388606403E+02  0.00000000000E+00 0. -1.
        -11    1    3    3    0    0  0.36575062723E+02  0.46413313434E+02 -0.59170848446E+02  0.83624877776E+02  0.00000000000E+00 0. -1.
         11    1    3    3    0    0 -0.54781144746E+02  0.42874383083E+02 -0.39953966848E+02  0.80221605639E+02  0.00000000000E+00 0.  1.
         21    1    1    2  503  501 -0.18975939352E+02  0.19345866601E+02  0.20183682854E+02  0.33789493669E+02  0.00000000000E+00 0.  1.
         -2    1    1    2    0  502  0.29627388442E+02 -0.18321510397E+02  0.93248880147E+02  0.99543023552E+02  0.00000000000E+00 0.  1.
<scales pt_clust_5="13000.00000" pt_clust_6="13000.00000" pt_clust_7="13000.00000" pt_clust_8="13000.00000" pt_clust_9="27.09887" pt_clust_10="27.18800"></scales>
<clustering>
<clus scale="   27.099">  1  9  2 -1</clus>
<clus scale="   27.188">  1 10  2 -1</clus>
<clus scale="   78.764">  5  6 -1 -1</clus>
<clus scale="   93.361">  7  8 -1 -1</clus>
<clus scale="  120.338">  1  5  2 -1</clus>
<clus scale="   27.099">  1  5  2 -1</clus>
</clustering>
</event>
<event>
10    4  0.3738096E-005  0.1865804E+03  0.7546771E-02  0.1175128E+00
         21   -1    0    0  501  502  0.00000000000E+00  0.00000000000E+00  0.15703756388E+03  0.15703756388E+03  0.00000000000E+00 0. -1.
          4   -1    0    0  503    0 -0.00000000000E+00 -0.00000000000E+00 -0.64778004417E+03  0.64778004417E+03  0.00000000000E+00 0. -1.
         23    2    1    2    0    0 -0.30590300813E+02  0.85124848541E+02 -0.70940583603E+02  0.14667657389E+03  0.91101287500E+02 0.  0.
         24    2    1    2    0    0  0.16309527608E+03  0.30498795881E+02 -0.48416673224E+02  0.19151182537E+03  0.82476417126E+02 0.  0.
        -11    1    4    4    0    0  0.41090672951E+02 -0.25698657000E+02  0.75069512937E+00  0.48470897643E+02  0.00000000000E+00 0.  1.
         12    1    4    4    0    0  0.12200460313E+03  0.56197452881E+02 -0.49167368353E+02  0.14304092773E+03  0.00000000000E+00 0. -1.
        -13    1    3    3    0    0 -0.63424670227E+01  0.87215490910E+02 -0.82059794345E+02  0.11991905016E+03  0.00000000000E+00 0.  1.
         13    1    3    3    0    0 -0.24247833790E+02 -0.20906423691E+01  0.11119210741E+02  0.26757523737E+02  0.00000000000E+00 0. -1.
         21    1    1    2  503  502 -0.10219822777E+02  0.48730061034E+02 -0.17829303065E+03  0.18511474388E+03  0.00000000000E+00 0. -1.
          3    1    1    2  501    0 -0.12228515249E+03 -0.16435370546E+03 -0.19309219282E+03  0.28151446489E+03  0.00000000000E+00 0. -1.
<scales pt_clust_5="13000.00000" pt_clust_6="13000.00000" pt_clust_7="13000.00000" pt_clust_8="13000.00000" pt_clust_9="49.79020" pt_clust_10="167.36165"></scales>
<clustering>
<clus scale="   49.790">  2  9  1 -1</clus>
<clus scale="   82.476">  5  6 -1 -1</clus>
<clus scale="   91.101">  7  8 -1 -1</clus>
<clus scale="  136.746">  2  7  1 -1</clus>
<clus scale="  167.362">  1 10  2 -1</clus>
<clus scale="  167.362">  1  5  2 -1</clus>
</clustering>
</event>
<event>
10    4  0.3738096E-005  0.1941176E+03  0.7546771E-02  0.1155837E+00
          2   -1    0    0  503    0 -0.00000000000E+00  0.00000000000E+00  0.60882820946E+03  0.60882820946E+03  0.00000000000E+00 0. -1.
         21   -1    0    0  501  502  0.00000000000E+00 -0.00000000000E+00 -0.14582689310E+03  0.14582689310E+03  0.00000000000E+00 0. -1.
         24    2    1    2    0    0 -0.11509699187E+03 -0.11064878665E+03  0.38154761895E+03  0.42118972376E+03  0.79572145565E+02 0.  0.
         23    2    1    2    0    0  0.77302802598E+02  0.12466913613E+03 -0.43076199721E+02  0.17747629331E+03  0.90134116257E+02 0.  0.
        -11    1    3    3    0    0 -0.92687147687E+02 -0.62639982347E+02  0.32493195964E+03  0.34365019006E+03  0.00000000000E+00 0.  1.
         12    1    3    3    0    0 -0.22409844179E+02 -0.48008804302E+02  0.56615659310E+02  0.77539533696E+02  0.00000000000E+00 0. -1.
        -11    1    4    4    0    0  0.59982858441E+01  0.55803071274E+02  0.20453722583E+02  0.59735391220E+02  0.00000000000E+00 0. -1.
         11    1    4    4    0    0  0.71304516754E+02  0.68866064855E+02 -0.63529922303E+02  0.11774090209E+03  0.00000000000E+00 0.  1.
         21    1    1    2  503  502  0.11447850704E+01 -0.34662285096E+02  0.10311050779E+03  0.10878677014E+03  0.00000000000E+00 0.  1.
          1    1    1    2  501    0  0.36649404198E+02  0.20641935616E+02  0.21419389343E+02  0.47202315344E+02  0.00000000000E+00 0. -1.
<scales pt_clust_5="13000.00000" pt_clust_6="13000.00000" pt_clust_7="13000.00000" pt_clust_8="13000.00000" pt_clust_9="34.68118" pt_clust_10="41.02387"></scales>
<clustering>
<clus scale="   34.681">  1  9  2 -1</clus>
<clus scale="   41.024">  2 10  1 -1</clus>
<clus scale="   79.572">  5  6 -1 -1</clus>
<clus scale="   90.134">  7  8 -1 -1</clus>
<clus scale="  189.445">  1  5  2 -1</clus>
<clus scale="   41.024">  2  5  1 -1</clus>
</clustering>
</event>
<event>
10    4  0.3738096E-005  0.1358157E+03  0.7546771E-02  0.1219972E+00
          2   -1    0    0  503    0 -0.00000000000E+00  0.00000000000E+00  0.92198955974E+03  0.92198955974E+03  0.00000000000E+00 0. -1.
         21   -1    0    0  501  502  0.00000000000E+00 -0.00000000000E+00 -0.68185578044E+02  0.68185578044E+02  0.00000000000E+00 0. -1.
         23    2    1    2    0    0 -0.45715402622E+02  0.66004980241E+02  0.52531798453E+03  0.53925320499E+03  0.91588638911E+02 0.  0.
         24    2    1    2    0    0  0.11694188182E+03 -0.58789857055E+02  0.20210700318E+03  0.25628749448E+03  0.87774643683E+02 0.  0.
        -13    1    4    4    0    0  0.39562287637E+02 -0.53773217443E+02  0.14611347374E+03  0.16064208890E+03  0.00000000000E+00 0.  1.
         14    1    4    4    0    0  0.77379594184E+02 -0.50166396113E+01  0.55993529445E+02  0.95645405581E+02  0.00000000000E+00 0. -1.
        -11    1    3    3    0    0 -0.45022103992E+02  0.88348372875E+02  0.44224055820E+03  0.45322084700E+03  0.00000000000E+00 0. -1.
         11    1    3    3    0    0 -0.69329863044E+00 -0.22343392634E+02  0.83077426328E+02  0.86032357998E+02  0.00000000000E+00 0.  1.
         21    1    1    2  503  502 -0.12971626389E+02  0.18854328897E+02  0.12875027435E+03  0.13076842874E+03  0.00000000000E+00 0. -1.
          1    1    1    2  501    0 -0.58254852810E+02 -0.26069452083E+02 -0.23712803660E+01  0.63866009570E+02  0.00000000000E+00 0. -1.
<scales pt_clust_5="13000.00000" pt_clust_6="13000.00000" pt_clust_7="13000.00000" pt_clust_8="13000.00000" pt_clust_9="22.88556" pt_clust_10="63.98856"></scales>
<clustering>
<clus scale="   22.886">  1  9  2 -1</clus>
<clus scale="   63.989">  2 10  1 -1</clus>
<clus scale="   87.775">  5  6 -1 -1</clus>
<clus scale="   91.589">  7  8 -1 -1</clus>
<clus scale="  133.274">  2  5  1 -1</clus>
<clus scale="   63.989">  2  5  1 -1</clus>
</clustering>
</event>
<event>
10    4  0.3738096E-005  0.1341433E+03  0.7546771E-02  0.1222413E+00
         -3   -1    0    0    0  501 -0.00000000000E+00  0.00000000000E+00  0.11096236214E+03  0.11096236214E+03  0.00000000000E+00 0.  1.
         21   -1    0    0  503  502  0.00000000000E+00 -0.00000000000E+00 -0.82679913390E+03  0.82679913390E+03  0.00000000000E+00 0. -1.
         24    2    1    2    0    0 -0.45436415579E+02 -0.81153881397E+02  0.83522903853E+00  0.12120476040E+03  0.77714065718E+02 0.  0.
         23    2    1    2    0    0  0.10541074209E+03  0.52660383456E+02 -0.16012938350E+03  0.21514607810E+03  0.82230620379E+02 0.  0.
        -11    1    3    3    0    0 -0.30573340472E+02 -0.34151875232E+02  0.37942160894E+02  0.59503674700E+02  0.00000000000E+00 0.  1.
         12    1    3    3    0    0 -0.14863075107E+02 -0.47002006165E+02 -0.37106931856E+02  0.61701085703E+02  0.00000000000E+00 0. -1.
        -11    1    4    4    0    0  0.81784602498E+02  0.73730209034E+01 -0.56695640943E+02  0.99787165232E+02  0.00000000000E+00 0. -1.
         11    1    4    4    0    0  0.23626139594E+02  0.45287362552E+02 -0.10343374256E+03  0.11535891287E+03  0.00000000000E+00 0.  1.
         21    1    1    2  503  501 -0.15483542255E+01 -0.32453994402E+02  0.55941531228E+01  0.32968980916E+02  0.00000000000E+00 0. -1.
         -4    1    1    2    0  502 -0.58425972287E+02  0.60947492343E+02 -0.56213677042E+03  0.56844167662E+03  0.00000000000E+00 0.  1.
<scales pt_clust_5="13000.00000" pt_clust_6="13000.00000" pt_clust_7="13000.00000" pt_clust_8="13000.00000" pt_clust_9="32.49091" pt_clust_10="83.66381"></scales>
<clustering>
<clus scale="   32.491">  1  9  2 -1</clus>
<clus scale="   77.714">  5  6 -1 -1</clus>
<clus scale="   82.231">  7  8 -1 -1</clus>
<clus scale="   83.664">  2 10  1 -1</clus>
<clus scale="  131.423">  1  5  2 -1</clus>
<clus scale="   83.664">  2  5  1 -1</clus>
</clustering>
</event>
<event>
10    4  0.3738096E-005  0.1056477E+03  0.7546771E-02  0.1273955E+00
         21   -1    0    0  501  502  0.00000000000E+00  0.00000000000E+00  0.95492998908E+02  0.95492998908E+02  0.00000000000E+00 0.  1.
          2   -1    0    0  503    0 -0.00000000000E+00 -0.00000000000E+00 -0.32730493881E+03  0.32730493881E+03  0.00000000000E+00 0. -1.
         23    2    1    2    0    0  0.58319800478E+00 -0.29251524016E+02 -0.91250918548E+02  0.13264321142E+03  0.91714228031E+02 0.  0.
         24    2    1    2    0    0 -0.26444918093E+02  0.74532810018E+02 -0.11654996027E+03  0.16202939370E+03  0.80094679747E+02 0.  0.
        -13    1    4    4    0    0 -0.20157303852E+02 -0.54986884842E+00  0.33300024499E+01  0.20437910134E+02  0.00000000000E+00 0.  1.
         14    1    4    4    0    0 -0.62876142409E+01  0.75082678866E+02 -0.11987996272E+03  0.14159148357E+03  0.00000000000E+00 0. -1.
        -11    1    3    3    0    0  0.39748418814E+02  0.83513881838E+01 -0.50218079475E+02  0.64587444515E+02  0.00000000000E+00 0. -1.
         11    1    3    3    0    0 -0.39165220809E+02 -0.37602912200E+02 -0.41032839073E+02  0.68055766907E+02  0.00000000000E+00 0.  1.
         21    1    1    2  503  502 -0.11420395126E+02 -0.64721774095E+02 -0.46437372315E+02  0.80472125698E+02  0.00000000000E+00 0.  1.
          1    1    1    2  501    0  0.37282115213E+02  0.19440488093E+02  0.22426311228E+02  0.47653206895E+02  0.00000000000E+00 0. -1.
<scales pt_clust_5="13000.00000" pt_clust_6="13000.00000" pt_clust_7="13000.00000" pt_clust_8="13000.00000" pt_clust_9="59.25657" pt_clust_10="42.04627"></scales>
<clustering>
<clus scale="   42.046">  1 10  2 -1</clus>
<clus scale="   59.257">  1  9  2 -1</clus>
<clus scale="   80.095">  5  6 -1 -1</clus>
<clus scale="   91.714">  7  8 -1 -1</clus>
<clus scale="   95.735">  1  5  2 -1</clus>
<clus scale="   42.046">  1  5  2 -1</clus>
</clustering>
</event>
<event>
10    4  0.3738096E-005  0.1391954E+03  0.7546771E-02  0.1217731E+00
          2   -1    0    0  503    0 -0.00000000000E+00  0.00000000000E+00  0.44491201126E+03  0.44491201126E+03  0.00000000000E+00 0. -1.
         21   -1    0    0  501  502  0.00000000000E+00 -0.00000000000E+00 -0.84085035237E+02  0.84085035237E+02  0.00000000000E+00 0. -1.
         24    2    1    2    0    0  0.70873716401E+02  0.99268337982E+02  0.19263537703E+03  0.24181624959E+03  0.80556957995E+02 0.  0.
         23    2    1    2    0    0 -0.46971733282E+02 -0.55763220562E+02  0.76587283725E+02  0.14214261947E+03  0.94989640198E+02 0.  0.
        -11    1    3    3    0    0 -0.44715451264E+01  0.61291048264E+02  0.73057916833E+02  0.95467515549E+02  0.00000000000E+00 0.  1.
         12    1    3    3    0    0  0.75345261528E+02  0.37977289717E+02  0.11957746020E+03  0.14634873404E+03  0.00000000000E+00 0. -1.
        -13    1    4    4    0    0 -0.80467301138E+01 -0.35508195774E+02 -0.15934577619E+02  0.39742830757E+02  0.00000000000E+00 0. -1.
         13    1    4    4    0    0 -0.38925003168E+02 -0.20255024788E+02  0.92521861345E+02  0.10239978871E+03  0.00000000000E+00 0.  1.
         21    1    1    2  503  502 -0.18110167527E+01  0.20753357712E+02  0.71059911047E+02  0.74050608344E+02  0.00000000000E+00 0. -1.
          1    1    1    2  501    0 -0.22090966367E+02 -0.64258475131E+02  0.20544404217E+02  0.70987569093E+02  0.00000000000E+00 0. -1.
<scales pt_clust_5="13000.00000" pt_clust_6="13000.00000" pt_clust_7="13000.00000" pt_clust_8="13000.00000" pt_clust_9="20.83223" pt_clust_10="65.61810"></scales>
<clustering>
<clus scale="   20.832">  1  9  2 -1</clus>
<clus scale="   65.618">  2 10  1 -1</clus>
<clus scale="   80.557">  5  6 -1 -1</clus>
<clus scale="   94.990">  7  8 -1 -1</clus>
<clus scale="  129.776">  1  5  2 -1</clus>
<clus scale="   65.618">  2  5  1 -1</clus>
</clustering>
</event>
<event>
10    4  0.3738096E-005  0.1253145E+03  0.7546771E-02  0.1236038E+00
          2   -1    0    0  503    0 -0.00000000000E+00  0.00000000000E+00  0.62060531216E+03  0.62060531216E+03  0.00000000000E+00 0. -1.
         21   -1    0    0  501  502  0.00000000000E+00 -0.00000000000E+00 -0.24186885837E+03  0.24186885837E+03  0.00000000000E+00 0.  1.
         23    2    1    2    0    0  0.12872753912E+03  0.17096360181E+01  0.35305975081E+03  0.38651254167E+03  0.90371760184E+02 0.  0.
         24    2    1    2    0    0 -0.24168059645E+02 -0.88429985383E+02  0.50619896936E+02  0.13229419817E+03  0.80841966094E+02 0.  0.
        -13    1    4    4    0    0  0.26072081731E+02 -0.13801704908E+02  0.91784909460E+00  0.29514114439E+02  0.00000000000E+00 0.  1.
         14    1    4    4    0    0 -0.50240141376E+02 -0.74628280475E+02  0.49702047841E+02  0.10278008373E+03  0.00000000000E+00 0. -1.
        -11    1    3    3    0    0  0.11489524236E+03 -0.13242059479E+02  0.34621888142E+03  0.36502572883E+03  0.00000000000E+00 0.  1.
         11    1    3    3    0    0  0.13832296768E+02  0.14951695497E+02  0.68408693982E+01  0.21486812845E+02  0.00000000000E+00 0. -1.
         21    1    1    2  503  502 -0.32986410157E+02 -0.11059077757E+02  0.13703326381E+03  0.14138076901E+03  0.00000000000E+00 0. -1.
          1    1    1    2  501    0 -0.71573069323E+02  0.97779427122E+02 -0.16197645777E+03  0.20228666167E+03  0.00000000000E+00 0. -1.
<scales pt_clust_5="13000.00000" pt_clust_6="13000.00000" pt_clust_7="13000.00000" pt_clust_8="13000.00000" pt_clust_9="34.79090" pt_clust_10="121.62561"></scales>
<clustering>
<clus scale="   34.791">  1  9  2 -1</clus>
<clus scale="   80.842">  5  6 -1 -1</clus>
<clus scale="   90.372">  7  8 -1 -1</clus>
<clus scale="  121.626">  2 10  1 -1</clus>
<clus scale="  121.626">  2  5  1 -1</clus>
<clus scale="  121.626">  2  5  1 -1</clus>
</clustering>
</event>
<event>
10    4  0.3738096E-005  0.2289210E+03  0.7546771E-02  0.1128482E+00
         21   -1    0    0  501  502  0.00000000000E+00  0.00000000000E+00  0.69816385593E+03  0.69816385593E+03  0.00000000000E+00 0.  1.
          2   -1    0    0  503    0 -0.00000000000E+00 -0.00000000000E+00 -0.52588797885E+03  0.52588797885E+03  0.00000000000E+00 0. -1.
         24    2    1    2    0    0  0.68709428167E+02  0.13783509024E+03 -0.36687806826E+03  0.40505566957E+03  0.75835881093E+02 0.  0.
         23    2    1    2    0    0 -0.74777499042E+02 -0.22851173235E+03  0.61817927977E+03  0.66964559424E+03  0.92034307530E+02 0.  0.
        -13    1    3    3    0    0  0.55265950829E+02  0.39272570691E+02 -0.10569982086E+03  0.12557512595E+03  0.00000000000E+00 0.  1.
         14    1    3    3    0    0  0.13443477338E+02  0.98562519546E+02 -0.26117824741E+03  0.27948054362E+03  0.00000000000E+00 0. -1.
        -13    1    4    4    0    0 -0.36643280700E+02 -0.67853742844E+02  0.10312100800E+03  0.12876646586E+03  0.00000000000E+00 0. -1.
         13    1    4    4    0    0 -0.38134218342E+02 -0.16065798951E+03  0.51505827177E+03  0.54087912839E+03  0.00000000000E+00 0.  1.
         21    1    1    2  503  502  0.29383977090E+02  0.52667038203E+02 -0.85146275731E+02  0.10434137863E+03  0.00000000000E+00 0. -1.
          1    1    1    2  501    0 -0.23315906215E+02  0.38009603914E+02  0.61209413028E+01  0.45009192337E+02  0.00000000000E+00 0. -1.
<scales pt_clust_5="13000.00000" pt_clust_6="13000.00000" pt_clust_7="13000.00000" pt_clust_8="13000.00000" pt_clust_9="60.62358" pt_clust_10="44.59107"></scales>
<clustering>
<clus scale="   44.591">  1 10  2 -1</clus>
<clus scale="   60.624">  2  9  1 -1</clus>
<clus scale="   75.836">  5  6 -1 -1</clus>
<clus scale="   92.034">  7  8 -1 -1</clus>
<clus scale="  222.903">  2  5  1 -1</clus>
<clus scale="   44.591">  1  5  2 -1</clus>
</clustering>
</event>
<event>
10    4  0.3738096E-005  0.1267961E+03  0.7546771E-02  0.1234712E+00
         21   -1    0    0  503  502  0.00000000000E+00  0.00000000000E+00  0.34442093673E+03  0.34442093673E+03  0.00000000000E+00 0.  1.
          2   -1    0    0  502    0 -0.00000000000E+00 -0.00000000000E+00 -0.28868342667E+03  0.28868342667E+03  0.00000000000E+00 0. -1.
         23    2    1    2    0    0 -0.41409137954E+02  0.76492163070E+02 -0.20910895937E+03  0.24291097017E+03  0.87826048643E+02 0.  0.
         24    2    1    2    0    0  0.10079673841E+03 -0.10372453301E+03  0.14611441648E+03  0.22013402559E+03  0.78681670645E+02 0.  0.
        -11    1    4    4    0    0  0.69421778454E+02 -0.90229371303E+02  0.14704774925E+03  0.18596710282E+03  0.00000000000E+00 0.  1.
         12    1    4    4    0    0  0.31374959954E+02 -0.13495161705E+02 -0.93333276966E+00  0.34166922771E+02  0.00000000000E+00 0. -1.
        -11    1    3    3    0    0 -0.55294017662E+02  0.54936989027E+02 -0.20167706498E+03  0.21621549364E+03  0.00000000000E+00 0. -1.
         11    1    3    3    0    0  0.13884879708E+02  0.21555174043E+02 -0.74318943913E+01  0.26695476522E+02  0.00000000000E+00 0.  1.
         21    1    1    2  503  501  0.22770426458E+02 -0.10178441416E+02  0.60311964783E+01  0.25660637593E+02  0.00000000000E+00 0.  1.
          1    1    1    2  501    0 -0.82158026912E+02  0.37410811354E+02  0.11270085647E+03  0.14439873006E+03  0.00000000000E+00 0. -1.
<scales pt_clust_5="13000.00000" pt_clust_6="13000.00000" pt_clust_7="13000.00000" pt_clust_8="13000.00000" pt_clust_9="24.94179" pt_clust_10="80.51682"></scales>
<clustering>
<clus scale="   24.942">  1  9  2 -1</clus>
<clus scale="   78.682">  5  6 -1 -1</clus>
<clus scale="   80.517">  1 10  2 -1</clus>
<clus scale="   87.826">  7  8 -1 -1</clus>
<clus scale="  120.643">  1  5  2 -1</clus>
<clus scale="   24.942">  1  5  2 -1</clus>
</clustering>
</event>
<event>
10    4  0.3738096E-005  0.1030444E+03  0.7546771E-02  0.1279999E+00
          2   -1    0    0  503    0 -0.00000000000E+00  0.00000000000E+00  0.34605581732E+03  0.34605581732E+03  0.00000000000E+00 0. -1.
         21   -1    0    0  501  502  0.00000000000E+00 -0.00000000000E+00 -0.11326369896E+03  0.11326369896E+03  0.00000000000E+00 0. -1.
         24    2    1    2    0    0  0.38797143954E+02 -0.16632021304E+02  0.82099030962E+02  0.12239887692E+03  0.80370340761E+02 0.  0.
         23    2    1    2    0    0 -0.39483671427E+02 -0.88225302350E-02 -0.56931033967E+02  0.11588511048E+03  0.92893787824E+02 0.  0.
        -13    1    3    3    0    0  0.28543723738E+02 -0.44641005055E+01 -0.87344929878E+01  0.30182175632E+02  0.00000000000E+00 0.  1.
         14    1    3    3    0    0  0.10253420216E+02 -0.12167920799E+02  0.90833523950E+02  0.92216701285E+02  0.00000000000E+00 0. -1.
        -11    1    4    4    0    0  0.27029284248E+02  0.15164097870E+02 -0.82379837852E+01  0.32068620925E+02  0.00000000000E+00 0.  1.
         11    1    4    4    0    0 -0.66512955675E+02 -0.15172920401E+02 -0.48693050181E+02  0.83816489559E+02  0.00000000000E+00 0. -1.
         21    1    1    2  503  502 -0.55472983219E+00 -0.24139592614E+02  0.13992273367E+03  0.14199084144E+03  0.00000000000E+00 0.  1.
          1    1    1    2  501    0  0.12412573054E+01  0.40780436448E+02  0.67701387697E+02  0.79044687441E+02  0.00000000000E+00 0. -1.
<scales pt_clust_5="13000.00000" pt_clust_6="13000.00000" pt_clust_7="13000.00000" pt_clust_8="13000.00000" pt_clust_9="24.14597" pt_clust_10="32.16156"></scales>
<clustering>
<clus scale="   24.146">  1  9  2 -1</clus>
<clus scale="   32.162">  2 10  1 -1</clus>
<clus scale="   80.370">  5  6 -1 -1</clus>
<clus scale="   91.915">  1  5  2 -1</clus>
<clus scale="   92.894">  7  8 -1 -1</clus>
<clus scale="   32.162">  2  5  1 -1</clus>
</clustering>
</event>
<event>
10    4  0.3738096E-005  0.1779235E+03  0.7546771E-02  0.1172645E+00
         -3   -1    0    0    0  501 -0.00000000000E+00  0.00000000000E+00  0.71779347395E+02  0.71779347395E+02  0.00000000000E+00 0.  1.
         21   -1    0    0  503  502  0.00000000000E+00 -0.00000000000E+00 -0.67116548687E+03  0.67116548687E+03  0.00000000000E+00 0.  1.
         24    2    1    2    0    0  0.14320248973E+03  0.76250890461E+01 -0.16898540842E+03  0.23654575972E+03  0.82660348034E+02 0.  0.
         23    2    1    2    0    0 -0.15162097269E+03 -0.39164411413E+02 -0.40951791658E+03  0.45042293952E+03  0.10321400083E+03 0.  0.
        -11    1    3    3    0    0  0.77130905066E+02  0.32594961482E+02 -0.48180496139E+02  0.96607288744E+02  0.00000000000E+00 0.  1.
         12    1    3    3    0    0  0.66071584669E+02 -0.24969872436E+02 -0.12080491228E+03  0.13993847098E+03  0.00000000000E+00 0. -1.
        -11    1    4    4    0    0 -0.64929233748E+02  0.13874331225E+02 -0.26857570161E+03  0.27666082115E+03  0.00000000000E+00 0.  1.
         11    1    4    4    0    0 -0.86691738942E+02 -0.53038742638E+02 -0.14094221496E+03  0.17376211837E+03  0.00000000000E+00 0. -1.
         21    1    1    2  503  501 -0.10861963663E+02  0.17512459181E+02 -0.24330876475E+02  0.31885106730E+02  0.00000000000E+00 0.  1.
         -4    1    1    2    0  502  0.19280446619E+02  0.14026863186E+02  0.34480619912E+01  0.24091028292E+02  0.00000000000E+00 0.  1.
<scales pt_clust_5="13000.00000" pt_clust_6="13000.00000" pt_clust_7="13000.00000" pt_clust_8="13000.00000" pt_clust_9="20.60749" pt_clust_10="24.50652"></scales>
<clustering>
<clus scale="   20.607">  1  9  2 -1</clus>
<clus scale="   24.507">  2 10  1 -1</clus>
<clus scale="   82.660">  5  6 -1 -1</clus>
<clus scale="  103.214">  7  8 -1 -1</clus>
<clus scale="  166.842">  1  5  2 -1</clus>
<clus scale="   24.507">  2  5  1 -1</clus>
</clustering>
</event>
<event>
10    4  0.3738096E-005  0.1856239E+03  0.7546771E-02  0.1163514E+00
         21   -1    0    0  501  502  0.00000000000E+00  0.00000000000E+00  0.21806999562E+03  0.21806999562E+03  0.00000000000E+00 0.  1.
          2   -1    0    0  503    0 -0.00000000000E+00 -0.00000000000E+00 -0.44296438844E+03  0.44296438844E+03  0.00000000000E+00 0. -1.
         23    2    1    2    0    0  0.15408168864E+03  0.27761858651E+02 -0.32434525857E+03  0.37144314507E+03  0.90875055414E+02 0.  0.
         24    2    1    2    0    0 -0.14945077331E+03 -0.32155172254E+02  0.13379487609E+03  0.21886273080E+03  0.81426883294E+02 0.  0.
        -13    1    4    4    0    0 -0.10852232013E+03 -0.51501857541E+02  0.65203044411E+02  0.13667835343E+03  0.00000000000E+00 0.  1.
         14    1    4    4    0    0 -0.40928453176E+02  0.19346685287E+02  0.68591831678E+02  0.82184377371E+02  0.00000000000E+00 0. -1.
        -11    1    3    3    0    0  0.10829526959E+03  0.17556825868E+02 -0.12349756509E+03  0.16519006064E+03  0.00000000000E+00 0.  1.
         11    1    3    3    0    0  0.45786419046E+02  0.10205032783E+02 -0.20084769348E+03  0.20625308444E+03  0.00000000000E+00 0. -1.
         21    1    1    2  503  502  0.11931091170E+02 -0.25074320545E+02 -0.12282918223E+02  0.30363507165E+02  0.00000000000E+00 0. -1.
          1    1    1    2  501    0 -0.16562006499E+02  0.29467634148E+02 -0.22061092119E+02  0.40365001016E+02  0.00000000000E+00 0. -1.
<scales pt_clust_5="13000.00000" pt_clust_6="13000.00000" pt_clust_7="13000.00000" pt_clust_8="13000.00000" pt_clust_9="27.76819" pt_clust_10="31.75243"></scales>
<clustering>
<clus scale="   27.768">  2  9  1 -1</clus>
<clus scale="   31.752">  1 10  2 -1</clus>
<clus scale="   81.427">  5  6 -1 -1</clus>
<clus scale="   90.875">  7  8 -1 -1</clus>
<clus scale="  181.186">  1  5  2 -1</clus>
<clus scale="   31.752">  1  5  2 -1</clus>
</clustering>
</event>
<event>
10    4  0.3738096E-005  0.2354137E+03  0.7546771E-02  0.1159737E+00
          4   -1    0    0  503    0 -0.00000000000E+00  0.00000000000E+00  0.27567599872E+03  0.27567599872E+03  0.00000000000E+00 0. -1.
         21   -1    0    0  501  502  0.00000000000E+00 -0.00000000000E+00 -0.78065847416E+03  0.78065847416E+03  0.00000000000E+00 0. -1.
         23    2    1    2    0    0  0.99998161163E+02  0.18380738356E+03 -0.44743427845E+03  0.50114848851E+03  0.84661605872E+02 0.  0.
         24    2    1    2    0    0 -0.39719279289E+02  0.22742748620E+02 -0.15171835653E+03  0.17775864739E+03  0.80528400278E+02 0.  0.
        -11    1    4    4    0    0 -0.49694781453E+02  0.18323489822E+02 -0.42262007341E+02  0.67759861625E+02  0.00000000000E+00 0.  1.
         12    1    4    4    0    0  0.99755021644E+01  0.44192587983E+01 -0.10945634919E+03  0.10999878576E+03  0.00000000000E+00 0. -1.
        -13    1    3    3    0    0 -0.12394895592E+02  0.43119820641E+02 -0.73408624356E+02  0.86033589363E+02  0.00000000000E+00 0.  1.
         13    1    3    3    0    0  0.11239305675E+03  0.14068756292E+03 -0.37402565410E+03  0.41511489914E+03  0.00000000000E+00 0. -1.
         21    1    1    2  503  502 -0.28396568823E+02 -0.22045002443E+03  0.17923022831E+03  0.28553117716E+03  0.00000000000E+00 0. -1.
          3    1    1    2  501    0 -0.31882313051E+02  0.13899892251E+02 -0.85060068765E+02  0.91896159814E+02  0.00000000000E+00 0. -1.
<scales pt_clust_5="13000.00000" pt_clust_6="13000.00000" pt_clust_7="13000.00000" pt_clust_8="13000.00000" pt_clust_9="219.66346" pt_clust_10="34.78058"></scales>
<clustering>
<clus scale="   34.781">  2 10  1 -1</clus>
<clus scale="   80.528">  5  6 -1 -1</clus>
<clus scale="   84.662">  7  8 -1 -1</clus>
<clus scale="   96.961">  2  5  1 -1</clus>
<clus scale="  219.663">  1  9  2 -1</clus>
<clus scale="   34.781">  2  5  1 -1</clus>
</clustering>
</event>
<event>
10    4  0.3738096E-005  0.3004959E+03  0.7546771E-02  0.1119847E+00
          2   -1    0    0  503    0 -0.00000000000E+00  0.00000000000E+00  0.85255628808E+03  0.85255628808E+03  0.00000000000E+00 0. -1.
         21   -1    0    0  501  502  0.00000000000E+00 -0.00000000000E+00 -0.31981839682E+03  0.31981839682E+03  0.00000000000E+00 0. -1.
         24    2    1    2    0    0  0.61400131105E+02 -0.67243558466E+02  0.24260132642E+03  0.27172987623E+03  0.81792724598E+02 0.  0.
         23    2    1    2    0    0 -0.32558341202E+03  0.16045500618E+03  0.30223448462E+03  0.48112997032E+03  0.91596929274E+02 0.  0.
        -13    1    3    3    0    0  0.61281098871E+02 -0.50991478191E+02  0.98519735080E+02  0.12673453407E+03  0.00000000000E+00 0.  1.
         14    1    3    3    0    0  0.11903223414E+00 -0.16252080276E+02  0.14408159134E+03  0.14499534215E+03  0.00000000000E+00 0. -1.
        -13    1    4    4    0    0 -0.26999344298E+02  0.39003522943E+02  0.66958162679E+02  0.82058728627E+02  0.00000000000E+00 0.  1.
         13    1    4    4    0    0 -0.29858406772E+03  0.12145148324E+03  0.23527632194E+03  0.39907124169E+03  0.00000000000E+00 0. -1.
         21    1    1    2  503  502  0.21248818168E+02  0.23549532847E+02  0.11659380948E+03  0.12083132533E+03  0.00000000000E+00 0. -1.
          1    1    1    2  501    0  0.24293446275E+03 -0.11676098056E+03 -0.12869172927E+03  0.29868351303E+03  0.00000000000E+00 0. -1.
<scales pt_clust_5="13000.00000" pt_clust_6="13000.00000" pt_clust_7="13000.00000" pt_clust_8="13000.00000" pt_clust_9="31.71897" pt_clust_10="286.19539"></scales>
<clustering>
<clus scale="   31.719">  1  9  2 -1</clus>
<clus scale="   81.793">  5  6 -1 -1</clus>
<clus scale="   91.597">  7  8 -1 -1</clus>
<clus scale="  122.106">  1  5  2 -1</clus>
<clus scale="  286.195">  2 10  1 -1</clus>
<clus scale="  286.195">  2  5  1 -1</clus>
</clustering>
</event>
<event>
10    4  0.3738096E-005  0.1287123E+03  0.7546771E-02  0.1233192E+00
         21   -1    0    0  501  502  0.00000000000E+00  0.00000000000E+00  0.40293400322E+03  0.40293400322E+03  0.00000000000E+00 0.  1.
          4   -1    0    0  503    0 -0.00000000000E+00 -0.00000000000E+00 -0.15211407718E+03  0.15211407718E+03  0.00000000000E+00 0. -1.
         23    2    1    2    0    0 -0.51016265139E+02 -0.29365109386E+02 -0.44514574234E+01  0.11120962667E+03  0.94248589557E+02 0.  0.
         24    2    1    2    0    0  0.15663854502E+03  0.23071249345E+02  0.19931440430E+03  0.26696094962E+03  0.80461174044E+02 0.  0.
        -11    1    4    4    0    0  0.16047351739E+03  0.35669485807E+02  0.18600486010E+03  0.24823752734E+03  0.00000000000E+00 0.  1.
         12    1    4    4    0    0 -0.38349723665E+01 -0.12598236462E+02  0.13309544199E+02  0.18723422277E+02  0.00000000000E+00 0. -1.
        -11    1    3    3    0    0 -0.43512223821E+02 -0.63029173486E+02 -0.16801196327E+01  0.76608179290E+02  0.00000000000E+00 0.  1.
         11    1    3    3    0    0 -0.75040413185E+01  0.33664064100E+02 -0.27713377907E+01  0.34601447383E+02  0.00000000000E+00 0. -1.
         21    1    1    2  503  502 -0.77110689574E+00 -0.48785304538E+02  0.98137139652E+01  0.49768559619E+02  0.00000000000E+00 0. -1.
          3    1    1    2  501    0 -0.10485117298E+03  0.55079164580E+02  0.46143265194E+02  0.12710894449E+03  0.00000000000E+00 0. -1.
<scales pt_clust_5="13000.00000" pt_clust_6="13000.00000" pt_clust_7="13000.00000" pt_clust_8="13000.00000" pt_clust_9="48.79140" pt_clust_10="112.49007"></scales>
<clustering>
<clus scale="   48.791">  2  9  1 -1</clus>
<clus scale="   80.461">  5  6 -1 -1</clus>
<clus scale="   94.249">  7  8 -1 -1</clus>
<clus scale="  112.490">  1 10  2 -1</clus>
<clus scale="  118.988">  1  5  2 -1</clus>
<clus scale="  112.490">  1  5  2 -1</clus>
</clustering>
</event>
<event>
10    4  0.4561313E-005  0.2265406E+03  0.7546771E-02  0.1168281E+00
         -3   -1    0    0    0  501 -0.00000000000E+00  0.00000000000E+00  0.35933497257E+03  0.35933497257E+03  0.00000000000E+00 0.  1.
         21   -1    0    0  503  502  0.00000000000E+00 -0.00000000000E+00 -0.48962578461E+03  0.48962578461E+03  0.00000000000E+00 0.  1.
         24    2    1    2    0    0  0.36445294793E+02  0.69577347609E+01 -0.20283864138E+02  0.91316948962E+02  0.80936273931E+02 0.  0.
         23    2    1    2    0    0 -0.11531753210E+03 -0.17827877864E+03  0.21027168871E+03  0.31267334456E+03  0.92027067768E+02 0.  0.
        -13    1    3    3    0    0  0.57971506924E+02 -0.89188233192E+01 -0.15735636552E+01  0.58674671938E+02  0.00000000000E+00 0.  1.
         14    1    3    3    0    0 -0.21526212131E+02  0.15876558080E+02 -0.18710300483E+02  0.32642277024E+02  0.00000000000E+00 0. -1.
        -13    1    4    4    0    0 -0.87619613225E+02 -0.10599674947E+03  0.18645498181E+03  0.23168506159E+03  0.00000000000E+00 0.  1.
         13    1    4    4    0    0 -0.27697918877E+02 -0.72282029172E+02  0.23816706894E+02  0.80988282971E+02  0.00000000000E+00 0. -1.
         21    1    1    2  503  501  0.96550643217E+01 -0.23754172282E+02  0.29157840612E+02  0.38828605911E+02  0.00000000000E+00 0.  1.
         -4    1    1    2    0  502  0.69217172986E+02  0.19507521616E+03 -0.34943647722E+03  0.40614185774E+03  0.00000000000E+00 0.  1.
<scales pt_clust_5="13000.00000" pt_clust_6="13000.00000" pt_clust_7="13000.00000" pt_clust_8="13000.00000" pt_clust_9="25.64139" pt_clust_10="207.00638"></scales>
<clustering>
<clus scale="   25.641">  1  9  2 -1</clus>
<clus scale="   80.936">  5  6 -1 -1</clus>
<clus scale="   89.308">  1  5  2 -1</clus>
<clus scale="   92.027">  7  8 -1 -1</clus>
<clus scale="  207.006">  2 10  1 -1</clus>
<clus scale="  207.006">  2  5  1 -1</clus>
</clustering>
</event>
<event>
10    4  0.3738096E-005  0.1471694E+03  0.7546771E-02  0.1221340E+00
         21   -1    0    0  501  502  0.00000000000E+00  0.00000000000E+00  0.13935592602E+03  0.13935592602E+03  0.00000000000E+00 0.  1.
          2   -1    0    0  503    0 -0.00000000000E+00 -0.00000000000E+00 -0.68267985849E+03  0.68267985849E+03  0.00000000000E+00 0. -1.
         23    2    1    2    0    0 -0.99036604401E+01  0.43819175229E+02  0.37236991903E+02  0.10838238987E+03  0.91334255682E+02 0.  0.
         24    2    1    2    0    0 -0.58993694434E+02  0.16261251476E+02 -0.19198677270E+03  0.21767185088E+03  0.82325144951E+02 0.  0.
        -11    1    4    4    0    0 -0.75199769112E+02  0.26953353759E+01 -0.11193121621E+03  0.13487352324E+03  0.00000000000E+00 0.  1.
         12    1    4    4    0    0  0.16206074679E+02  0.13565916100E+02 -0.80055556486E+02  0.82798327643E+02  0.00000000000E+00 0. -1.
        -13    1    3    3    0    0 -0.33809433195E+02  0.38244586835E+02  0.57256031207E+02  0.76707100745E+02  0.00000000000E+00 0.  1.
         13    1    3    3    0    0  0.23905772755E+02  0.55745883946E+01 -0.20019039304E+02  0.31675289129E+02  0.00000000000E+00 0. -1.
         21    1    1    2  503  502 -0.74092541745E+02 -0.12932120463E+03 -0.19936406824E+03  0.24891707538E+03  0.00000000000E+00 0.  1.
          1    1    1    2  501    0  0.14298989662E+03  0.69240777927E+02 -0.18921008343E+03  0.24706446838E+03  0.00000000000E+00 0. -1.
<scales pt_clust_5="13000.00000" pt_clust_6="13000.00000" pt_clust_7="13000.00000" pt_clust_8="13000.00000" pt_clust_9="13000.00000" pt_clust_10="147.16942"></scales>
<clustering>
<clus scale="   82.325">  5  6 -1 -1</clus>
<clus scale="   91.334">  7  8 -1 -1</clus>
<clus scale="  101.785">  2  7  1 -1</clus>
<clus scale="  107.449">  2  5  1 -1</clus>
<clus scale="  147.169">  1 10  2 -1</clus>
<clus scale="  147.169">  1  5  2 -1</clus>
</clustering>
</event>
<event>
10    4  0.3738096E-005  0.1281351E+03  0.7546771E-02  0.1233078E+00
          4   -1    0    0  503    0 -0.00000000000E+00  0.00000000000E+00  0.96573004812E+02  0.96573004812E+02  0.00000000000E+00 0. -1.
         21   -1    0    0  501  502  0.00000000000E+00 -0.00000000000E+00 -0.52383257483E+03  0.52383257483E+03  0.00000000000E+00 0.  1.
         24    2    1    2    0    0 -0.74213369741E+02  0.87303481738E+02 -0.86878681635E+02  0.16456301994E+03  0.80022247135E+02 0.  0.
         23    2    1    2    0    0  0.47157430536E+02 -0.51236719699E+02 -0.32276228723E+03  0.34239379799E+03  0.90603499628E+02 0.  0.
        -13    1    3    3    0    0 -0.22226814267E+02 -0.38775914485E+01  0.71255804556E+01  0.23660956970E+02  0.00000000000E+00 0.  1.
         14    1    3    3    0    0 -0.51986555474E+02  0.91181073186E+02 -0.94004262091E+02  0.14090206297E+03  0.00000000000E+00 0. -1.
        -13    1    4    4    0    0  0.71306520039E+02 -0.27710828623E+02 -0.17774645986E+03  0.19351050053E+03  0.00000000000E+00 0. -1.
         13    1    4    4    0    0 -0.24149089503E+02 -0.23525891077E+02 -0.14501582738E+03  0.14888329747E+03  0.00000000000E+00 0.  1.
         21    1    1    2  503  502  0.31438658228E+02 -0.79286653832E+01  0.38611185173E+02  0.50419010169E+02  0.00000000000E+00 0.  1.
          3    1    1    2  501    0 -0.43827190235E+01 -0.28138096655E+02 -0.56229786319E+02  0.63029751537E+02  0.00000000000E+00 0. -1.
<scales pt_clust_5="13000.00000" pt_clust_6="13000.00000" pt_clust_7="13000.00000" pt_clust_8="13000.00000" pt_clust_9="32.45850" pt_clust_10="28.47737"></scales>
<clustering>
<clus scale="   28.477">  2 10  1 -1</clus>
<clus scale="   32.458">  1  9  2 -1</clus>
<clus scale="   80.022">  5  6 -1 -1</clus>
<clus scale="   90.603">  7  8 -1 -1</clus>
<clus scale="  120.885">  1  5  2 -1</clus>
<clus scale="   28.477">  2  5  1 -1</clus>
</clustering>
</event>
<event>
10    4  0.3738096E-005  0.3575949E+03  0.7546771E-02  0.1059737E+00
         21   -1    0    0  501  502  0.00000000000E+00  0.00000000000E+00  0.14540721809E+04  0.14540721809E+04  0.00000000000E+00 0.  1.
          4   -1    0    0  503    0 -0.00000000000E+00 -0.00000000000E+00 -0.13548373194E+03  0.13548373194E+03  0.00000000000E+00 0. -1.
         24    2    1    2    0    0 -0.76661589433E+02 -0.33740503328E+03  0.31623201524E+03  0.47571748561E+03  0.81149755853E+02 0.  0.
         23    2    1    2    0    0  0.14015729312E+03  0.32201403917E+03  0.93392766336E+03  0.10017694389E+04  0.89353343460E+02 0.  0.
        -11    1    3    3    0    0 -0.68099624898E+02 -0.18146325158E+03  0.21566889092E+03  0.28996472389E+03  0.00000000000E+00 0.  1.
         12    1    3    3    0    0 -0.85619645346E+01 -0.15594178170E+03  0.10056312432E+03  0.18575276173E+03  0.00000000000E+00 0. -1.
        -11    1    4    4    0    0  0.94182856592E+02  0.29206764444E+03  0.81247090184E+03  0.86849460893E+03  0.00000000000E+00 0.  1.
         11    1    4    4    0    0  0.45974436525E+02  0.29946394730E+02  0.12145676153E+03  0.13327482992E+03  0.00000000000E+00 0. -1.
         21    1    1    2  503  502 -0.40911969008E+02  0.78646419918E+01  0.76353352877E+02  0.86979746477E+02  0.00000000000E+00 0. -1.
          3    1    1    2  501    0 -0.22583734675E+02  0.75263521204E+01 -0.79245825560E+01  0.25089241854E+02  0.00000000000E+00 0. -1.
<scales pt_clust_5="13000.00000" pt_clust_6="13000.00000" pt_clust_7="13000.00000" pt_clust_8="13000.00000" pt_clust_9="42.99465" pt_clust_10="23.80487"></scales>
<clustering>
<clus scale="   23.805">  1 10  2 -1</clus>
<clus scale="   42.995">  1  9  2 -1</clus>
<clus scale="   81.150">  5  6 -1 -1</clus>
<clus scale="   89.353">  7  8 -1 -1</clus>
<clus scale="  355.634">  2  5  1 -1</clus>
<clus scale="   23.805">  1  5  2 -1</clus>
</clustering>
</event>
<event>
10    4  0.3738096E-005  0.1146822E+03  0.7546771E-02  0.1256056E+00
         -1   -1    0    0    0  501 -0.00000000000E+00  0.00000000000E+00  0.62009570939E+03  0.62009570939E+03  0.00000000000E+00 0.  1.
         21   -1    0    0  503  502  0.00000000000E+00 -0.00000000000E+00 -0.10044164711E+03  0.10044164711E+03  0.00000000000E+00 0.  1.
         24    2    1    2    0    0 -0.65153535701E+02  0.73381519370E+02  0.40860254657E+03  0.42785299962E+03  0.80450715489E+02 0.  0.
         23    2    1    2    0    0 -0.49834991983E+01 -0.58984121709E+02  0.99174683960E+02  0.14733167915E+03  0.91471546753E+02 0.  0.
        -11    1    3    3    0    0 -0.49258521472E+02 -0.27933791369E+00  0.20253513501E+03  0.20843934581E+03  0.00000000000E+00 0.  1.
         12    1    3    3    0    0 -0.15895014229E+02  0.73660857283E+02  0.20606741156E+03  0.21941365382E+03  0.00000000000E+00 0. -1.
        -11    1    4    4    0    0 -0.44883191863E+02 -0.47074374181E+02  0.74634400449E+02  0.98998946189E+02  0.00000000000E+00 0.  1.
         11    1    4    4    0    0  0.39899692664E+02 -0.11909747528E+02  0.24540283511E+02  0.48332732963E+02  0.00000000000E+00 0. -1.
         21    1    1    2  503  501  0.38771723813E+02 -0.10182057188E+02  0.69143375699E+02  0.79923258561E+02  0.00000000000E+00 0. -1.
         -2    1    1    2    0  502  0.31365311086E+02 -0.42153404729E+01 -0.57266543959E+02  0.65429419161E+02  0.00000000000E+00 0.  1.
<scales pt_clust_5="13000.00000" pt_clust_6="13000.00000" pt_clust_7="13000.00000" pt_clust_8="13000.00000" pt_clust_9="44.41986" pt_clust_10="31.64730"></scales>
<clustering>
<clus scale="   31.647">  2 10  1 -1</clus>
<clus scale="   44.420">  1  9  2 -1</clus>
<clus scale="   80.451">  5  6 -1 -1</clus>
<clus scale="   91.472">  7  8 -1 -1</clus>
<clus scale="  106.100">  1  5  2 -1</clus>
<clus scale="   31.647">  2  5  1 -1</clus>
</clustering>
</event>
<event>
10    4  0.3738096E-005  0.1033051E+03  0.7546771E-02  0.1278420E+00
         -1   -1    0    0    0  501 -0.00000000000E+00  0.00000000000E+00  0.33184419564E+03  0.33184419564E+03  0.00000000000E+00 0.  1.
         21   -1    0    0  503  502  0.00000000000E+00 -0.00000000000E+00 -0.82815771156E+02  0.82815771156E+02  0.00000000000E+00 0.  1.
         23    2    1    2    0    0 -0.50705567469E+02  0.66469788184E+02  0.18230576623E+03  0.22042158333E+03  0.91438474856E+02 0.  0.
         24    2    1    2    0    0  0.28289828189E+02 -0.24470656009E+02  0.83315928881E+01  0.89412454588E+02  0.80783935352E+02 0.  0.
        -11    1    4    4    0    0 -0.29479505021E+01 -0.44685288755E+02 -0.12860748593E+02  0.46592534784E+02  0.00000000000E+00 0.  1.
         12    1    4    4    0    0  0.31237778691E+02  0.20214632746E+02  0.21192341481E+02  0.42819919804E+02  0.00000000000E+00 0. -1.
        -11    1    3    3    0    0  0.14756642977E+02  0.50160830827E+02  0.52299182140E+02  0.73953173791E+02  0.00000000000E+00 0. -1.
         11    1    3    3    0    0 -0.65462210445E+02  0.16308957356E+02  0.13000658409E+03  0.14646840954E+03  0.00000000000E+00 0.  1.
         21    1    1    2  503  501  0.74357478325E+01 -0.55910806671E+02  0.62270757789E+02  0.84017592943E+02  0.00000000000E+00 0.  1.
         -2    1    1    2    0  502  0.14979991447E+02  0.13911674496E+02 -0.38796924220E+01  0.20808335934E+02  0.00000000000E+00 0.  1.
<scales pt_clust_5="13000.00000" pt_clust_6="13000.00000" pt_clust_7="13000.00000" pt_clust_8="13000.00000" pt_clust_9="54.64070" pt_clust_10="20.44345"></scales>
<clustering>
<clus scale="   20.443">  2 10  1 -1</clus>
<clus scale="   54.641">  1  9  2 -1</clus>
<clus scale="   80.784">  5  6 -1 -1</clus>
<clus scale="   91.438">  7  8 -1 -1</clus>
<clus scale="   94.005">  2  5  1 -1</clus>
<clus scale="   20.443">  2  5  1 -1</clus>
</clustering>
</event>
<event>
10    4  0.3738096E-005  0.1425935E+03  0.7546771E-02  0.1212137E+00
         21   -1    0    0  501  502  0.00000000000E+00  0.00000000000E+00  0.41680831727E+02  0.41680831727E+02  0.00000000000E+00 0.  1.
          2   -1    0    0  503    0 -0.00000000000E+00 -0.00000000000E+00 -0.73618456004E+03  0.73618456004E+03  0.00000000000E+00 0. -1.
         23    2    1    2    0    0  0.98337363500E+02  0.53635817332E+02 -0.39206825103E+03  0.41803572231E+03  0.92137471752E+02 0.  0.
         24    2    1    2    0    0 -0.81670535891E+02 -0.66642277125E+02 -0.22331092506E+03  0.26000720960E+03  0.81392323103E+02 0.  0.
        -13    1    4    4    0    0 -0.63565329731E+02 -0.80146974971E+02 -0.13813702606E+03  0.17188928620E+03  0.00000000000E+00 0.  1.
         14    1    4    4    0    0 -0.18105206159E+02  0.13504697846E+02 -0.85173899000E+02  0.88117923403E+02  0.00000000000E+00 0. -1.
        -13    1    3    3    0    0  0.65646924021E+02 -0.16357978664E+02 -0.19201547558E+03  0.20358547335E+03  0.00000000000E+00 0.  1.
         13    1    3    3    0    0  0.32690439479E+02  0.69993795996E+02 -0.20005277545E+03  0.21445024896E+03  0.00000000000E+00 0. -1.
         21    1    1    2  503  502  0.20997533950E+02  0.66512661385E+01 -0.36101066954E+02  0.42289748266E+02  0.00000000000E+00 0. -1.
          1    1    1    2  501    0 -0.37664361559E+02  0.63551936545E+01 -0.43023485269E+02  0.57532711589E+02  0.00000000000E+00 0. -1.
<scales pt_clust_5="13000.00000" pt_clust_6="13000.00000" pt_clust_7="13000.00000" pt_clust_8="13000.00000" pt_clust_9="22.02580" pt_clust_10="34.56382"></scales>
<clustering>
<clus scale="   22.026">  1  9  2 -1</clus>
<clus scale="   34.564">  1 10  2 -1</clus>
<clus scale="   81.392">  5  6 -1 -1</clus>
<clus scale="   92.137">  7  8 -1 -1</clus>
<clus scale="  135.898">  1  5  2 -1</clus>
<clus scale="   22.026">  1  5  2 -1</clus>
</clustering>
</event>
<event>
10    4  0.3738096E-005  0.1063809E+03  0.7546771E-02  0.1274138E+00
         -3   -1    0    0    0  501 -0.00000000000E+00  0.00000000000E+00  0.13875894803E+03  0.13875894803E+03  0.00000000000E+00 0.  1.
         21   -1    0    0  503  502  0.00000000000E+00 -0.00000000000E+00 -0.33943850845E+03  0.33943850845E+03  0.00000000000E+00 0.  1.
         23    2    1    2    0    0  0.19931376525E+02  0.14977593016E+02  0.41325951515E+02  0.10604924417E+03  0.94429973301E+02 0.  0.
         24    2    1    2    0    0 -0.50583596098E+02 -0.12223471873E+02 -0.16636033847E+03  0.19161172327E+03  0.79568692455E+02 0.  0.
        -11    1    4    4    0    0 -0.40913808117E+02  0.24916980785E+02 -0.50706317153E+02  0.69756191304E+02  0.00000000000E+00 0.  1.
         12    1    4    4    0    0 -0.96697879814E+01 -0.37140452658E+02 -0.11565402132E+03  0.12185553197E+03  0.00000000000E+00 0. -1.
        -13    1    3    3    0    0  0.22823984061E+02  0.53581641111E+02  0.31031848370E+02  0.65991682247E+02  0.00000000000E+00 0.  1.
         13    1    3    3    0    0 -0.28926075353E+01 -0.38604048095E+02  0.10294103146E+02  0.40057561923E+02  0.00000000000E+00 0. -1.
         21    1    1    2  503  501 -0.89306858266E+01  0.54115285835E+02  0.23425275202E+02  0.59640295344E+02  0.00000000000E+00 0.  1.
         -4    1    1    2    0  502  0.39582905399E+02 -0.56869406978E+02 -0.99070448664E+02  0.12089619369E+03  0.00000000000E+00 0.  1.
<scales pt_clust_5="13000.00000" pt_clust_6="13000.00000" pt_clust_7="13000.00000" pt_clust_8="13000.00000" pt_clust_9="54.84725" pt_clust_10="63.78579"></scales>
<clustering>
<clus scale="   54.847">  1  9  2 -1</clus>
<clus scale="   63.786">  2 10  1 -1</clus>
<clus scale="   79.569">  5  6 -1 -1</clus>
<clus scale="   93.440">  2  5  1 -1</clus>
<clus scale="   94.430">  7  8 -1 -1</clus>
<clus scale="   63.786">  2  5  1 -1</clus>
</clustering>
</event>
<event>
10    4  0.3738096E-005  0.1197230E+03  0.7546771E-02  0.1247830E+00
          2   -1    0    0  503    0 -0.00000000000E+00  0.00000000000E+00  0.17782676015E+03  0.17782676015E+03  0.00000000000E+00 0. -1.
         21   -1    0    0  501  502  0.00000000000E+00 -0.00000000000E+00 -0.57930934027E+03  0.57930934027E+03  0.00000000000E+00 0. -1.
         24    2    1    2    0    0  0.93781412707E+02 -0.50865309189E+02  0.10677789667E+03  0.17067247105E+03  0.79657643128E+02 0.  0.
         23    2    1    2    0    0 -0.10977117940E+02 -0.28335469486E+01 -0.11906217826E+03  0.15137806607E+03  0.92795422776E+02 0.  0.
        -13    1    3    3    0    0  0.10433998575E+03 -0.37062077351E+02  0.72820393733E+02  0.13252637453E+03  0.00000000000E+00 0.  1.
         14    1    3    3    0    0 -0.10558573041E+02 -0.13803231838E+02  0.33957502933E+02  0.38146096514E+02  0.00000000000E+00 0. -1.
        -11    1    4    4    0    0 -0.19863909812E+02  0.40253368328E+02 -0.83530852514E+02  0.94827801285E+02  0.00000000000E+00 0.  1.
         11    1    4    4    0    0  0.88867918718E+01 -0.43086915277E+02 -0.35531325742E+02  0.56550264781E+02  0.00000000000E+00 0. -1.
         21    1    1    2  503  502 -0.23965350696E+02 -0.58620838951E+01  0.10426663656E+02  0.26784648151E+02  0.00000000000E+00 0.  1.
          1    1    1    2  501    0 -0.58838944071E+02  0.59560940033E+02 -0.39962496218E+03  0.40830091515E+03  0.00000000000E+00 0. -1.
<scales pt_clust_5="13000.00000" pt_clust_6="13000.00000" pt_clust_7="13000.00000" pt_clust_8="13000.00000" pt_clust_9="24.67189" pt_clust_10="84.07015"></scales>
<clustering>
<clus scale="   24.672">  1  9  2 -1</clus>
<clus scale="   79.658">  5  6 -1 -1</clus>
<clus scale="   84.070">  2 10  1 -1</clus>
<clus scale="   92.795">  7  8 -1 -1</clus>
<clus scale="  109.854">  1  5  2 -1</clus>
<clus scale="   84.070">  2  5  1 -1</clus>
</clustering>
</event>
<event>
10    4  0.3738096E-005  0.9425982E+02  0.7546771E-02  0.1299894E+00
         21   -1    0    0  501  502  0.00000000000E+00  0.00000000000E+00  0.55612575074E+02  0.55612575074E+02  0.00000000000E+00 0. -1.
          2   -1    0    0  503    0 -0.00000000000E+00 -0.00000000000E+00 -0.83880781122E+03  0.83880781122E+03  0.00000000000E+00 0. -1.
         24    2    1    2    0    0 -0.24817569342E+01 -0.23101733483E+02 -0.44271139315E+03  0.45056559214E+03  0.80474380928E+02 0.  0.
         23    2    1    2    0    0 -0.56333997438E+01 -0.26904438568E+02 -0.69750776619E+01  0.96552463311E+02  0.92293783407E+02 0.  0.
        -11    1    3    3    0    0  0.20165064387E+01  0.30174087864E+02 -0.16783868409E+03  0.17054139014E+03  0.00000000000E+00 0.  1.
         12    1    3    3    0    0 -0.44982633728E+01 -0.53275821347E+02 -0.27487270907E+03  0.28002420200E+03  0.00000000000E+00 0. -1.
        -11    1    4    4    0    0  0.80526301373E+01 -0.58332573981E+02 -0.16162963036E+02  0.61063699638E+02  0.00000000000E+00 0. -1.
         11    1    4    4    0    0 -0.13686029881E+02  0.31428135412E+02  0.91878853736E+01  0.35488763673E+02  0.00000000000E+00 0.  1.
         21    1    1    2  503  502  0.38731217314E+02  0.20397485843E+02 -0.89812863452E+02  0.99912537075E+02  0.00000000000E+00 0. -1.
          1    1    1    2  501    0 -0.30616060636E+02  0.29608686208E+02 -0.24369590188E+03  0.24738979377E+03  0.00000000000E+00 0. -1.
<scales pt_clust_5="13000.00000" pt_clust_6="13000.00000" pt_clust_7="13000.00000" pt_clust_8="13000.00000" pt_clust_9="42.69506" pt_clust_10="42.59131"></scales>
<clustering>
<clus scale="   42.591">  1 10  2 -1</clus>
<clus scale="   42.695">  2  9  1 -1</clus>
<clus scale="   80.474">  5  6 -1 -1</clus>
<clus scale="   82.722">  2  5  1 -1</clus>
<clus scale="   92.294">  7  8 -1 -1</clus>
<clus scale="   42.591">  1  5  2 -1</clus>
</clustering>
</event>
<event>
10    4  0.3738096E-005  0.1242973E+03  0.7546771E-02  0.1239428E+00
          2   -1    0    0  503    0 -0.00000000000E+00  0.00000000000E+00  0.87098009951E+03  0.87098009951E+03  0.00000000000E+00 0. -1.
         21   -1    0    0  501  502  0.00000000000E+00 -0.00000000000E+00 -0.43106383404E+02  0.43106383404E+02  0.00000000000E+00 0.  1.
         24    2    1    2    0    0 -0.87370591062E+02 -0.55133842399E+02  0.49597072061E+03  0.51282202011E+03  0.79536833277E+02 0.  0.
         23    2    1    2    0    0  0.43659906705E+02 -0.19835221233E+02  0.77050925257E+02  0.12838811454E+03  0.90813211694E+02 0.  0.
        -11    1    3    3    0    0 -0.10221314084E+03 -0.46528142345E+02  0.40688756531E+03  0.42210174721E+03  0.00000000000E+00 0.  1.
         12    1    3    3    0    0  0.14842549783E+02 -0.86057000542E+01  0.89083155301E+02  0.90720272905E+02  0.00000000000E+00 0. -1.
        -13    1    4    4    0    0  0.42972137262E+02  0.32946234758E+01 -0.47667842542E+01  0.43361058069E+02  0.00000000000E+00 0.  1.
         13    1    4    4    0    0  0.68776944293E+00 -0.23129844709E+02  0.81817709511E+02  0.85027056475E+02  0.00000000000E+00 0. -1.
         21    1    1    2  503  502  0.23144538159E+02  0.17710898701E+02  0.39451703336E+02  0.49048776494E+02  0.00000000000E+00 0. -1.
          1    1    1    2  501    0  0.20566146198E+02  0.57258164932E+02  0.21540036690E+03  0.22382757177E+03  0.00000000000E+00 0. -1.
<scales pt_clust_5="13000.00000" pt_clust_6="13000.00000" pt_clust_7="13000.00000" pt_clust_8="13000.00000" pt_clust_9="29.14353" pt_clust_10="63.55740"></scales>
<clustering>
<clus scale="   29.144">  2  9  1 -1</clus>
<clus scale="   63.557">  2 10  1 -1</clus>
<clus scale="   79.537">  5  6 -1 -1</clus>
<clus scale="   90.813">  7  8 -1 -1</clus>
<clus scale="  116.314">  1  5  2 -1</clus>
<clus scale="   29.144">  2  5  1 -1</clus>
</clustering>
</event>
<event>
10    4  0.3738096E-005  0.1705954E+03  0.7546771E-02  0.1178629E+00
          2   -1    0    0  503    0 -0.00000000000E+00  0.00000000000E+00  0.19245117535E+03  0.19245117535E+03  0.00000000000E+00 0. -1.
         21   -1    0    0  501  502  0.00000000000E+00 -0.00000000000E+00 -0.33418022433E+03  0.33418022433E+03  0.00000000000E+00 0. -1.
         23    2    1    2    0    0 -0.99306263056E+02 -0.52119556928E+02 -0.55720931074E+02  0.15689136900E+03  0.94508716053E+02 0.  0.
         24    2    1    2    0    0  0.17809488965E+03 -0.11949980046E+01 -0.13160429236E+03  0.24444538622E+03  0.10351154205E+03 0.  0.
        -13    1    4    4    0    0  0.23863634373E+02  0.22163429220E+01 -0.77247909752E+02  0.80880311464E+02  0.00000000000E+00 0.  1.
         14    1    4    4    0    0  0.15423125527E+03 -0.34113409266E+01 -0.54356382613E+02  0.16356507476E+03  0.00000000000E+00 0. -1.
        -13    1    3    3    0    0 -0.73280125640E+02 -0.30828561030E+02 -0.82002408707E+02  0.11421371206E+03  0.00000000000E+00 0. -1.
         13    1    3    3    0    0 -0.26026137416E+02 -0.21290995898E+02  0.26281477633E+02  0.42677656937E+02  0.00000000000E+00 0.  1.
         21    1    1    2  503  502 -0.31322530543E+02  0.34101153758E+02 -0.12392287496E+02  0.47932852999E+02  0.00000000000E+00 0.  1.
          1    1    1    2  501    0 -0.47466096048E+02  0.19213401174E+02  0.57988461951E+02  0.77361791462E+02  0.00000000000E+00 0. -1.
<scales pt_clust_5="13000.00000" pt_clust_6="13000.00000" pt_clust_7="13000.00000" pt_clust_8="13000.00000" pt_clust_9="46.30324" pt_clust_10="67.85037"></scales>
<clustering>
<clus scale="   46.303">  1  9  2 -1</clus>
<clus scale="   67.850">  2 10  1 -1</clus>
<clus scale="   94.509">  7  8 -1 -1</clus>
<clus scale="  103.512">  5  6 -1 -1</clus>
<clus scale="  165.288">  1  7  2 -1</clus>
<clus scale="   67.850">  2  5  1 -1</clus>
</clustering>
</event>
<event>
10    4  0.3738096E-005  0.1185460E+03  0.7546771E-02  0.1250960E+00
          2   -1    0    0  503    0 -0.00000000000E+00  0.00000000000E+00  0.47265331052E+03  0.47265331052E+03  0.00000000000E+00 0. -1.
         21   -1    0    0  501  502  0.00000000000E+00 -0.00000000000E+00 -0.24621398795E+03  0.24621398795E+03  0.00000000000E+00 0. -1.
         24    2    1    2    0    0  0.50935552857E+02 -0.56624526873E+02 -0.34251902654E+02  0.11634198192E+03  0.81003063723E+02 0.  0.
         23    2    1    2    0    0 -0.24642091939E+01  0.72119173593E+02 -0.14270850504E+03  0.18678669467E+03  0.96521004790E+02 0.  0.
        -11    1    3    3    0    0  0.50850704084E+02 -0.22646319613E+01 -0.35347965940E+02  0.61970971913E+02  0.00000000000E+00 0.  1.
         12    1    3    3    0    0  0.84848772322E-01 -0.54359894912E+02  0.10960632857E+01  0.54371010004E+02  0.00000000000E+00 0. -1.
        -11    1    4    4    0    0  0.27696918411E+02 -0.71599448002E+01 -0.67931605940E+02  0.73709478255E+02  0.00000000000E+00 0.  1.
         11    1    4    4    0    0 -0.30161127605E+02  0.79279118393E+02 -0.74776899104E+02  0.11307721641E+03  0.00000000000E+00 0. -1.
         21    1    1    2  503  502 -0.57075944906E+01  0.31963351450E+02  0.19766526243E+03  0.20031422426E+03  0.00000000000E+00 0. -1.
          1    1    1    2  501    0 -0.42763749172E+02 -0.47457998171E+02  0.20573446784E+03  0.21542439762E+03  0.00000000000E+00 0. -1.
<scales pt_clust_5="13000.00000" pt_clust_6="13000.00000" pt_clust_7="13000.00000" pt_clust_8="13000.00000" pt_clust_9="32.46895" pt_clust_10="52.40575"></scales>
<clustering>
<clus scale="   32.469">  1  9  2 -1</clus>
<clus scale="   52.406">  2 10  1 -1</clus>
<clus scale="   81.003">  5  6 -1 -1</clus>
<clus scale="   96.521">  7  8 -1 -1</clus>
<clus scale="  106.294">  1  5  2 -1</clus>
<clus scale="   52.406">  2  5  1 -1</clus>
</clustering>
</event>
<event>
10    4  0.3738096E-005  0.1296647E+03  0.7546771E-02  0.1230290E+00
         21   -1    0    0  501  502  0.00000000000E+00  0.00000000000E+00  0.52645744606E+03  0.52645744606E+03  0.00000000000E+00 0. -1.
          2   -1    0    0  503    0 -0.00000000000E+00 -0.00000000000E+00 -0.15343338797E+03  0.15343338797E+03  0.00000000000E+00 0. -1.
         24    2    1    2    0    0 -0.30776135860E+02  0.95057938553E+02 -0.37424545060E+02  0.13486762105E+03  0.82495432691E+02 0.  0.
         23    2    1    2    0    0 -0.11470297427E+02 -0.10470854851E+03  0.66850931328E+02  0.15465503800E+03  0.91398500563E+02 0.  0.
        -13    1    3    3    0    0  0.27010490488E+02  0.42428850921E+02 -0.23337847661E+02  0.55447534844E+02  0.00000000000E+00 0.  1.
         14    1    3    3    0    0 -0.57786626348E+02  0.52629087631E+02 -0.14086697399E+02  0.79420086207E+02  0.00000000000E+00 0. -1.
        -13    1    4    4    0    0  0.27394776985E+02 -0.95475068891E+02  0.44028779607E+02  0.10864849755E+03  0.00000000000E+00 0.  1.
         13    1    4    4    0    0 -0.38865074412E+02 -0.92334796146E+01  0.22822151721E+02  0.46006540449E+02  0.00000000000E+00 0. -1.
         21    1    1    2  503  502 -0.34687310200E+01 -0.21191270440E+02 -0.15866088944E+02  0.26698966574E+02  0.00000000000E+00 0.  1.
          1    1    1    2  501    0  0.45715164308E+02  0.30841880393E+02  0.35946376077E+03  0.36366920841E+03  0.00000000000E+00 0. -1.
<scales pt_clust_5="13000.00000" pt_clust_6="13000.00000" pt_clust_7="13000.00000" pt_clust_8="13000.00000" pt_clust_9="21.47329" pt_clust_10="54.91238"></scales>
<clustering>
<clus scale="   21.473">  2  9  1 -1</clus>
<clus scale="   54.912">  1 10  2 -1</clus>
<clus scale="   82.495">  5  6 -1 -1</clus>
<clus scale="   91.399">  7  8 -1 -1</clus>
<clus scale="  123.551">  2  5  1 -1</clus>
<clus scale="   54.912">  1  5  2 -1</clus>
</clustering>
</event>
<event>
10    4  0.3738096E-005  0.1020721E+03  0.7546771E-02  0.1281172E+00
         21   -1    0    0  501  502  0.00000000000E+00  0.00000000000E+00  0.12353672351E+03  0.12353672351E+03  0.00000000000E+00 0. -1.
          2   -1    0    0  503    0 -0.00000000000E+00 -0.00000000000E+00 -0.10853553603E+04  0.10853553603E+04  0.00000000000E+00 0. -1.
         24    2    1    2    0    0  0.17824810104E+02  0.60844800190E+02 -0.62114664999E+03  0.62937262559E+03  0.79163927855E+02 0.  0.
         23    2    1    2    0    0  0.17152427085E+02 -0.34888664600E+02 -0.15733594036E+03  0.18547030268E+03  0.90184313344E+02 0.  0.
        -11    1    3    3    0    0 -0.86497537718E+01  0.56195230276E+02 -0.21673628023E+03  0.22406993844E+03  0.00000000000E+00 0.  1.
         12    1    3    3    0    0  0.26474563876E+02  0.46495699139E+01 -0.40441036976E+03  0.40530268714E+03  0.00000000000E+00 0. -1.
        -11    1    4    4    0    0  0.45391109639E+02  0.53173098068E+01 -0.51931262295E+02  0.69177182809E+02  0.00000000000E+00 0. -1.
         11    1    4    4    0    0 -0.28238682554E+02 -0.40205974407E+02 -0.10540467807E+03  0.11629311987E+03  0.00000000000E+00 0.  1.
         21    1    1    2  503  502  0.50097826073E+02 -0.34270753388E+02 -0.26737402678E+03  0.27417721808E+03  0.00000000000E+00 0. -1.
          1    1    1    2  501    0 -0.85075063262E+02  0.83146177988E+01  0.84037980330E+02  0.11987193748E+03  0.00000000000E+00 0. -1.
<scales pt_clust_5="13000.00000" pt_clust_6="13000.00000" pt_clust_7="13000.00000" pt_clust_8="13000.00000" pt_clust_9="60.69824" pt_clust_10="84.31284"></scales>
<clustering>
<clus scale="   60.698">  2  9  1 -1</clus>
<clus scale="   79.164">  5  6 -1 -1</clus>
<clus scale="   84.313">  1 10  2 -1</clus>
<clus scale="   90.184">  7  8 -1 -1</clus>
<clus scale="   92.479">  2  5  1 -1</clus>
<clus scale="   84.313">  1  5  2 -1</clus>
</clustering>
</event>
<event>
10    4  0.3738096E-005  0.1212215E+03  0.7546771E-02  0.1241253E+00
         21   -1    0    0  501  502  0.00000000000E+00  0.00000000000E+00  0.96262168266E+02  0.96262168266E+02  0.00000000000E+00 0. -1.
          2   -1    0    0  503    0 -0.00000000000E+00 -0.00000000000E+00 -0.43277510154E+03  0.43277510154E+03  0.00000000000E+00 0. -1.
         23    2    1    2    0    0  0.42970247027E+02  0.11736721968E+03 -0.10845964686E+03  0.18780708920E+03  0.88805975991E+02 0.  0.
         24    2    1    2    0    0 -0.41179501133E+02 -0.28873638177E+02 -0.31186579685E+02  0.10627838696E+03  0.88278278688E+02 0.  0.
        -13    1    4    4    0    0  0.16219200753E+02  0.18525561798E+02  0.21474989928E+01  0.24715797882E+02  0.00000000000E+00 0.  1.
         14    1    4    4    0    0 -0.57398701887E+02 -0.47399199975E+02 -0.33334078678E+02  0.81562589083E+02  0.00000000000E+00 0. -1.
        -11    1    3    3    0    0  0.37363031988E+02  0.26132868455E+01 -0.36155338279E+02  0.52057986069E+02  0.00000000000E+00 0.  1.
         11    1    3    3    0    0  0.56072150386E+01  0.11475393283E+03 -0.72304308582E+02  0.13574910313E+03  0.00000000000E+00 0. -1.
         21    1    1    2  503  502 -0.41694752674E+02 -0.15900524343E+02 -0.81628851367E+02  0.93029825596E+02  0.00000000000E+00 0. -1.
          1    1    1    2  501    0  0.39904006781E+02 -0.72593057161E+02 -0.11523785536E+03  0.14192196804E+03  0.00000000000E+00 0. -1.
<scales pt_clust_5="13000.00000" pt_clust_6="13000.00000" pt_clust_7="13000.00000" pt_clust_8="13000.00000" pt_clust_9="44.62375" pt_clust_10="82.21111"></scales>
<clustering>
<clus scale="   44.624">  2  9  1 -1</clus>
<clus scale="   82.211">  1 10  2 -1</clus>
<clus scale="   88.278">  5  6 -1 -1</clus>
<clus scale="   88.806">  7  8 -1 -1</clus>
<clus scale="  120.835">  1  5  2 -1</clus>
<clus scale="   82.211">  1  5  2 -1</clus>
</clustering>
</event>
<event>
10    4  0.3738096E-005  0.2517400E+03  0.7546771E-02  0.1112695E+00
         21   -1    0    0  501  502  0.00000000000E+00  0.00000000000E+00  0.32962497723E+03  0.32962497723E+03  0.00000000000E+00 0.  1.
          2   -1    0    0  503    0 -0.00000000000E+00 -0.00000000000E+00 -0.39218323415E+03  0.39218323415E+03  0.00000000000E+00 0. -1.
         23    2    1    2    0    0 -0.22959063259E+03  0.16952009068E+01  0.33035639842E+02  0.24895861523E+03  0.90411870452E+02 0.  0.
         24    2    1    2    0    0  0.24426316884E+03  0.46566505965E+02  0.81260801523E+02  0.27399194588E+03  0.81457555894E+02 0.  0.
        -11    1    4    4    0    0  0.89130390762E+02  0.93050954271E+01 -0.10031382177E+02  0.90174497430E+02  0.00000000000E+00 0.  1.
         12    1    4    4    0    0  0.15513277808E+03  0.37261410538E+02  0.91292183699E+02  0.18381744845E+03  0.00000000000E+00 0. -1.
        -13    1    3    3    0    0 -0.66032161172E+02 -0.19863887574E+02 -0.26067271750E+02  0.73717860760E+02  0.00000000000E+00 0. -1.
         13    1    3    3    0    0 -0.16355847142E+03  0.21559088480E+02  0.59102911592E+02  0.17524075447E+03  0.00000000000E+00 0.  1.
         21    1    1    2  503  502  0.24160166091E+02  0.26673478226E+01 -0.29759664823E+02  0.38424809958E+02  0.00000000000E+00 0.  1.
          1    1    1    2  501    0 -0.38832702345E+02 -0.50929054695E+02 -0.14709503346E+03  0.16043284032E+03  0.00000000000E+00 0. -1.
<scales pt_clust_5="13000.00000" pt_clust_6="13000.00000" pt_clust_7="13000.00000" pt_clust_8="13000.00000" pt_clust_9="24.30696" pt_clust_10="57.34368"></scales>
<clustering>
<clus scale="   24.307">  2  9  1 -1</clus>
<clus scale="   57.344">  1 10  2 -1</clus>
<clus scale="   81.458">  5  6 -1 -1</clus>
<clus scale="   90.412">  7  8 -1 -1</clus>
<clus scale="  248.665">  1  5  2 -1</clus>
<clus scale="   57.344">  1  5  2 -1</clus>
</clustering>
</event>
<event>
10    4  0.3738096E-005  0.1769134E+03  0.7546771E-02  0.1172423E+00
          2   -1    0    0  503    0 -0.00000000000E+00  0.00000000000E+00  0.62019465119E+03  0.62019465119E+03  0.00000000000E+00 0. -1.
         21   -1    0    0  501  502  0.00000000000E+00 -0.00000000000E+00 -0.76599132765E+03  0.76599132765E+03  0.00000000000E+00 0.  1.
         24    2    1    2    0    0  0.11937857995E+03 -0.26335628439E+02  0.48548692222E+03  0.50718659579E+03  0.81215027069E+02 0.  0.
         23    2    1    2    0    0 -0.16096229508E+03 -0.18842948679E+02 -0.55694933523E+03  0.58758276703E+03  0.93792478086E+02 0.  0.
        -13    1    3    3    0    0  0.10724705687E+03 -0.50553560224E+02  0.36848071145E+03  0.38708607360E+03  0.00000000000E+00 0.  1.
         14    1    3    3    0    0  0.12131523075E+02  0.24217931785E+02  0.11700621077E+03  0.12010052219E+03  0.00000000000E+00 0. -1.
        -11    1    4    4    0    0 -0.52490447540E+02  0.35758454164E+02 -0.23697449998E+03  0.24533819060E+03  0.00000000000E+00 0. -1.
         11    1    4    4    0    0 -0.10847184754E+03 -0.54601402842E+02 -0.31997483525E+03  0.34224457643E+03  0.00000000000E+00 0.  1.
         21    1    1    2  503  502  0.29852333776E+02  0.44207125589E+01  0.10390605814E+03  0.10819969247E+03  0.00000000000E+00 0. -1.
          1    1    1    2  501    0  0.11731381362E+02  0.40757864559E+02 -0.17824032160E+03  0.18321692355E+03  0.00000000000E+00 0. -1.
<scales pt_clust_5="13000.00000" pt_clust_6="13000.00000" pt_clust_7="13000.00000" pt_clust_8="13000.00000" pt_clust_9="30.17788" pt_clust_10="42.47333"></scales>
<clustering>
<clus scale="   30.178">  1  9  2 -1</clus>
<clus scale="   42.473">  2 10  1 -1</clus>
<clus scale="   81.215">  5  6 -1 -1</clus>
<clus scale="   93.792">  7  8 -1 -1</clus>
<clus scale="  170.579">  1  5  2 -1</clus>
<clus scale="   42.473">  2  5  1 -1</clus>
</clustering>
</event>
<event>
10    4  0.3738096E-005  0.1012923E+03  0.7546771E-02  0.1282949E+00
          4   -1    0    0  503    0 -0.00000000000E+00  0.00000000000E+00  0.38036299625E+03  0.38036299625E+03  0.00000000000E+00 0. -1.
         21   -1    0    0  501  502  0.00000000000E+00 -0.00000000000E+00 -0.10648051896E+03  0.10648051896E+03  0.00000000000E+00 0. -1.
         24    2    1    2    0    0  0.13609688224E+02  0.37790732316E+02  0.20503004535E+03  0.22405580644E+03  0.80934058609E+02 0.  0.
         23    2    1    2    0    0 -0.42967977229E+02  0.35165015836E+02 -0.31933174435E+02  0.11198857947E+03  0.91863425236E+02 0.  0.
        -11    1    3    3    0    0  0.46806296811E+00  0.60647265195E+02  0.16789272039E+03  0.17851127533E+03  0.00000000000E+00 0.  1.
         12    1    3    3    0    0  0.13141625256E+02 -0.22856532879E+02  0.37137324959E+02  0.45544531118E+02  0.00000000000E+00 0. -1.
        -11    1    4    4    0    0 -0.25631724666E+02 -0.40612085628E+00  0.29394706064E+02  0.39002551046E+02  0.00000000000E+00 0.  1.
         11    1    4    4    0    0 -0.17336252562E+02  0.35571136692E+02 -0.61327880499E+02  0.72986028423E+02  0.00000000000E+00 0. -1.
         21    1    1    2  503  502  0.13978613043E+02  0.16183387156E+02  0.24018756624E+02  0.32159047128E+02  0.00000000000E+00 0.  1.
          3    1    1    2  501    0  0.15379675962E+02 -0.89139135308E+02  0.76766849751E+02  0.11864008217E+03  0.00000000000E+00 0. -1.
<scales pt_clust_5="13000.00000" pt_clust_6="13000.00000" pt_clust_7="13000.00000" pt_clust_8="13000.00000" pt_clust_9="21.38466" pt_clust_10="86.81337"></scales>
<clustering>
<clus scale="   21.385">  1  9  2 -1</clus>
<clus scale="   80.934">  5  6 -1 -1</clus>
<clus scale="   86.813">  2 10  1 -1</clus>
<clus scale="   91.496">  1  5  2 -1</clus>
<clus scale="   91.863">  7  8 -1 -1</clus>
<clus scale="   86.813">  2  5  1 -1</clus>
</clustering>
</event>
<event>
10    4  0.3738096E-005  0.1412776E+03  0.7546771E-02  0.1223030E+00
         -3   -1    0    0    0  501 -0.00000000000E+00  0.00000000000E+00  0.68235857069E+03  0.68235857069E+03  0.00000000000E+00 0.  1.
         21   -1    0    0  501  502  0.00000000000E+00 -0.00000000000E+00 -0.60072958951E+02  0.60072958951E+02  0.00000000000E+00 0.  1.
         24    2    1    2    0    0  0.74013532705E+02  0.10053840537E+02  0.77591173194E+02  0.13547902260E+03  0.82189370813E+02 0.  0.
         23    2    1    2    0    0  0.23890588100E+02  0.83192555804E+02  0.27952995866E+03  0.30659423892E+03  0.91494633773E+02 0.  0.
        -11    1    3    3    0    0  0.41525770499E+02 -0.16152517283E+02  0.82185805717E+02  0.93486897967E+02  0.00000000000E+00 0.  1.
         12    1    3    3    0    0  0.32487762207E+02  0.26206357821E+02 -0.45946325226E+01  0.41992124636E+02  0.00000000000E+00 0. -1.
        -13    1    4    4    0    0  0.90204707234E+01  0.10130865395E+03  0.23959927247E+03  0.26029334150E+03  0.00000000000E+00 0.  1.
         13    1    4    4    0    0  0.14870117377E+02 -0.18116098147E+02  0.39930686180E+02  0.46300897418E+02  0.00000000000E+00 0. -1.
         21    1    1    2  503  502 -0.30375844719E+02 -0.20108924951E+02  0.39612368576E+02  0.53816359494E+02  0.00000000000E+00 0. -1.
         -4    1    1    2    0  503 -0.67528276087E+02 -0.73137471391E+02  0.22555211132E+03  0.24654190863E+03  0.00000000000E+00 0.  1.
<scales pt_clust_5="13000.00000" pt_clust_6="13000.00000" pt_clust_7="13000.00000" pt_clust_8="13000.00000" pt_clust_9="24.36932" pt_clust_10="114.93867"></scales>
<clustering>
<clus scale="   24.369">  9 10 -1 -1</clus>
<clus scale="   82.189">  5  6 -1 -1</clus>
<clus scale="   91.495">  7  8 -1 -1</clus>
<clus scale="  111.059">  1  5  2 -1</clus>
<clus scale="  114.939">  2  9  1 -1</clus>
<clus scale="  114.939">  2  5  1 -1</clus>
</clustering>
</event>
<event>
10    4  0.3738096E-005  0.9032233E+02  0.7546771E-02  0.1308944E+00
         21   -1    0    0  501  502  0.00000000000E+00  0.00000000000E+00  0.77475431789E+02  0.77475431789E+02  0.00000000000E+00 0.  1.
          2   -1    0    0  503    0 -0.00000000000E+00 -0.00000000000E+00 -0.19972219467E+03  0.19972219467E+03  0.00000000000E+00 0. -1.
         23    2    1    2    0    0 -0.51221228717E+01  0.13681662166E+02 -0.41291885443E+02  0.98380446706E+02  0.88092385984E+02 0.  0.
         24    2    1    2    0    0  0.15104149527E+02 -0.16721596731E+02 -0.21053662695E+02  0.83061850594E+02  0.77125010088E+02 0.  0.
        -11    1    4    4    0    0 -0.23989691579E+02 -0.10905391392E+02  0.14344697794E+02  0.30003386780E+02  0.00000000000E+00 0.  1.
         12    1    4    4    0    0  0.39093841106E+02 -0.58162053394E+01 -0.35398360489E+02  0.53058463814E+02  0.00000000000E+00 0. -1.
        -11    1    3    3    0    0 -0.22823434776E+02 -0.22900180228E+02 -0.47305262777E+02  0.57298475685E+02  0.00000000000E+00 0.  1.
         11    1    3    3    0    0  0.17701311904E+02  0.36581842393E+02  0.60133773346E+01  0.41081971021E+02  0.00000000000E+00 0. -1.
         21    1    1    2  503  502 -0.37691706822E+02  0.17706523008E+02 -0.44071097540E+02  0.60633714702E+02  0.00000000000E+00 0.  1.
          1    1    1    2  501    0  0.27709680166E+02 -0.14666588443E+02 -0.15830117207E+02  0.35121614460E+02  0.00000000000E+00 0. -1.
<scales pt_clust_5="13000.00000" pt_clust_6="13000.00000" pt_clust_7="13000.00000" pt_clust_8="13000.00000" pt_clust_9="37.82060" pt_clust_10="31.35181"></scales>
<clustering>
<clus scale="   31.352">  1 10  2 -1</clus>
<clus scale="   37.821">  2  9  1 -1</clus>
<clus scale="   77.125">  5  6 -1 -1</clus>
<clus scale="   79.663">  1  5  2 -1</clus>
<clus scale="   88.092">  7  8 -1 -1</clus>
<clus scale="   31.352">  1  5  2 -1</clus>
</clustering>
</event>
<event>
10    4  0.3738096E-005  0.1745751E+03  0.7546771E-02  0.1199620E+00
         -3   -1    0    0    0  501 -0.00000000000E+00  0.00000000000E+00  0.28115698292E+03  0.28115698292E+03  0.00000000000E+00 0.  1.
         21   -1    0    0  503  502  0.00000000000E+00 -0.00000000000E+00 -0.20548376080E+03  0.20548376080E+03  0.00000000000E+00 0.  1.
         24    2    1    2    0    0 -0.45373234567E+02  0.32036836154E+02 -0.35309665734E+02  0.10399572229E+03  0.80518621917E+02 0.  0.
         23    2    1    2    0    0 -0.12117746703E+03  0.17199091437E+01  0.90219262525E+02  0.17473618170E+03  0.87785427376E+02 0.  0.
        -11    1    3    3    0    0 -0.41329453532E+02  0.28139620991E+02 -0.60328158112E+02  0.78354633941E+02  0.00000000000E+00 0.  1.
         12    1    3    3    0    0 -0.40437810347E+01  0.38972151627E+01  0.25018492378E+02  0.25641088353E+02  0.00000000000E+00 0. -1.
        -13    1    4    4    0    0 -0.70798817047E+02  0.36449682224E+02  0.79672359385E+02  0.11264429271E+03  0.00000000000E+00 0. -1.
         13    1    4    4    0    0 -0.50378649984E+02 -0.34729773080E+02  0.10546903140E+02  0.62091888989E+02  0.00000000000E+00 0.  1.
         21    1    1    2  503  501 -0.18686923853E+01 -0.23149559109E+02  0.31128392202E+02  0.38837750955E+02  0.00000000000E+00 0. -1.
         -4    1    1    2    0  502  0.16841939398E+03 -0.10607186189E+02 -0.10364766871E+02  0.16907108878E+03  0.00000000000E+00 0.  1.
<scales pt_clust_5="13000.00000" pt_clust_6="13000.00000" pt_clust_7="13000.00000" pt_clust_8="13000.00000" pt_clust_9="23.22486" pt_clust_10="150.89789"></scales>
<clustering>
<clus scale="   23.225">  1  9  2 -1</clus>
<clus scale="   80.519">  5  6 -1 -1</clus>
<clus scale="   87.785">  7  8 -1 -1</clus>
<clus scale="   96.931">  1  5  2 -1</clus>
<clus scale="  150.898">  2 10  1 -1</clus>
<clus scale="  150.898">  2  5  1 -1</clus>
</clustering>
</event>
<event>
10    4  0.3738096E-005  0.1584066E+03  0.7546771E-02  0.1194287E+00
          2   -1    0    0  503    0 -0.00000000000E+00  0.00000000000E+00  0.33693284744E+03  0.33693284744E+03  0.00000000000E+00 0. -1.
         21   -1    0    0  501  502  0.00000000000E+00 -0.00000000000E+00 -0.15733932396E+03  0.15733932396E+03  0.00000000000E+00 0. -1.
         24    2    1    2    0    0  0.15362763036E+02  0.13059367868E+03  0.91621676845E+02  0.17536679746E+03  0.71191703037E+02 0.  0.
         23    2    1    2    0    0  0.49364062625E+02 -0.13710415814E+03 -0.43714290861E+01  0.17368429541E+03  0.94407437312E+02 0.  0.
        -13    1    3    3    0    0  0.36176649965E+02  0.76136878948E+02  0.79398631064E+02  0.11580033227E+03  0.00000000000E+00 0.  1.
         14    1    3    3    0    0 -0.20813886929E+02  0.54456799737E+02  0.12223045781E+02  0.59566465187E+02  0.00000000000E+00 0. -1.
        -13    1    4    4    0    0 -0.26851379339E+02 -0.47543575324E+02  0.89532700676E+01  0.55331267579E+02  0.00000000000E+00 0.  1.
         13    1    4    4    0    0  0.76215441963E+02 -0.89560582820E+02 -0.13324699154E+02  0.11835302783E+03  0.00000000000E+00 0. -1.
         21    1    1    2  503  502 -0.73319611493E+01 -0.19544421086E+02  0.77774838758E+02  0.80527433796E+02  0.00000000000E+00 0.  1.
          1    1    1    2  501    0 -0.57394864511E+02  0.26054900545E+02  0.14568436962E+02  0.64693644744E+02  0.00000000000E+00 0. -1.
<scales pt_clust_5="13000.00000" pt_clust_6="13000.00000" pt_clust_7="13000.00000" pt_clust_8="13000.00000" pt_clust_9="20.87444" pt_clust_10="62.89788"></scales>
<clustering>
<clus scale="   20.874">  1  9  2 -1</clus>
<clus scale="   62.898">  2 10  1 -1</clus>
<clus scale="   71.192">  5  6 -1 -1</clus>
<clus scale="   94.407">  7  8 -1 -1</clus>
<clus scale="  145.767">  1  5  2 -1</clus>
<clus scale="   62.898">  2  5  1 -1</clus>
</clustering>
</event>
<event>
10    4  0.3738096E-005  0.1637196E+03  0.7546771E-02  0.1204825E+00
          2   -1    0    0  503    0 -0.00000000000E+00  0.00000000000E+00  0.28513555869E+03  0.28513555869E+03  0.00000000000E+00 0. -1.
         21   -1    0    0  501  502  0.00000000000E+00 -0.00000000000E+00 -0.24355990603E+03  0.24355990603E+03  0.00000000000E+00 0. -1.
         24    2    1    2    0    0 -0.22521111683E+02 -0.72646600365E+02  0.77167743918E+02  0.13513354532E+03  0.80755714062E+02 0.  0.
         23    2    1    2    0    0  0.14225282282E+03 -0.28410863692E+02  0.46812025630E+02  0.17772108262E+03  0.91380384584E+02 0.  0.
        -13    1    3    3    0    0 -0.11794987353E+02 -0.48435917554E+02 -0.37508969779E+01  0.49992290047E+02  0.00000000000E+00 0.  1.
         14    1    3    3    0    0 -0.10726124330E+02 -0.24210682811E+02  0.80918640895E+02  0.85141255274E+02  0.00000000000E+00 0. -1.
        -13    1    4    4    0    0  0.92877938884E+02  0.18500629321E+02  0.54363067756E+02  0.10919673966E+03  0.00000000000E+00 0.  1.
         13    1    4    4    0    0  0.49374883940E+02 -0.46911493013E+02 -0.75510421260E+01  0.68524342959E+02  0.00000000000E+00 0. -1.
         21    1    1    2  503  502 -0.73126453946E+01  0.25043175233E+02  0.29907289249E+02  0.39687294675E+02  0.00000000000E+00 0. -1.
          1    1    1    2  501    0 -0.11241906575E+03  0.76014288824E+02 -0.11231140614E+03  0.17615354211E+03  0.00000000000E+00 0. -1.
<scales pt_clust_5="13000.00000" pt_clust_6="13000.00000" pt_clust_7="13000.00000" pt_clust_8="13000.00000" pt_clust_9="26.08899" pt_clust_10="135.84448"></scales>
<clustering>
<clus scale="   26.089">  1  9  2 -1</clus>
<clus scale="   80.756">  5  6 -1 -1</clus>
<clus scale="   91.380">  7  8 -1 -1</clus>
<clus scale="  105.002">  1  5  2 -1</clus>
<clus scale="  135.844">  2 10  1 -1</clus>
<clus scale="  135.844">  2  5  1 -1</clus>
</clustering>
</event>
<event>
10    4  0.3738096E-005  0.1408043E+03  0.7546771E-02  0.1226264E+00
          2   -1    0    0  503    0 -0.00000000000E+00  0.00000000000E+00  0.33581709727E+03  0.33581709727E+03  0.00000000000E+00 0. -1.
         21   -1    0    0  501  502  0.00000000000E+00 -0.00000000000E+00 -0.18961167595E+03  0.18961167595E+03  0.00000000000E+00 0. -1.
         23    2    1    2    0    0  0.22416986898E+02  0.65619804311E+02  0.10453115392E+03  0.15552009126E+03  0.91930716450E+02 0.  0.
         24    2    1    2    0    0  0.78941274303E+02  0.54203528014E+02  0.57203906778E+01  0.12947476579E+03  0.86955418858E+02 0.  0.
        -11    1    4    4    0    0  0.33436891685E+02 -0.10502784539E+02 -0.26623671872E+02  0.44013112961E+02  0.00000000000E+00 0.  1.
         12    1    4    4    0    0  0.45504382618E+02  0.64706312553E+02  0.32344062550E+02  0.85461652827E+02  0.00000000000E+00 0. -1.
        -11    1    3    3    0    0 -0.20991637444E+02  0.46075070716E+01 -0.57254790135E+01  0.22240932398E+02  0.00000000000E+00 0.  1.
         11    1    3    3    0    0  0.43408624342E+02  0.61012297239E+02  0.11025663293E+03  0.13327915886E+03  0.00000000000E+00 0. -1.
         21    1    1    2  503  502 -0.22982522466E+02 -0.28938097692E+02  0.98426667137E+02  0.10513523977E+03  0.00000000000E+00 0. -1.
          1    1    1    2  501    0 -0.78375738734E+02 -0.90885234634E+02 -0.62472790415E+02  0.13529867641E+03  0.00000000000E+00 0. -1.
<scales pt_clust_5="13000.00000" pt_clust_6="13000.00000" pt_clust_7="13000.00000" pt_clust_8="13000.00000" pt_clust_9="36.95416" pt_clust_10="110.74565"></scales>
<clustering>
<clus scale="   36.954">  1  9  2 -1</clus>
<clus scale="   86.955">  5  6 -1 -1</clus>
<clus scale="   91.931">  7  8 -1 -1</clus>
<clus scale="  104.875">  1  7  2 -1</clus>
<clus scale="  110.746">  2 10  1 -1</clus>
<clus scale="  110.746">  2  5  1 -1</clus>
</clustering>
</event>
<event>
10    4  0.3738096E-005  0.9365480E+02  0.7546771E-02  0.1299697E+00
         21   -1    0    0  501  502  0.00000000000E+00  0.00000000000E+00  0.15978224100E+03  0.15978224100E+03  0.00000000000E+00 0. -1.
          2   -1    0    0  503    0 -0.00000000000E+00 -0.00000000000E+00 -0.19259440431E+03  0.19259440431E+03  0.00000000000E+00 0. -1.
         24    2    1    2    0    0  0.25470063080E+02 -0.68385701292E-01 -0.14031745982E+03  0.16400347906E+03  0.80990263763E+02 0.  0.
         23    2    1    2    0    0 -0.16412477466E+02  0.11849079401E+02  0.86124308287E+02  0.12646553944E+03  0.90367948352E+02 0.  0.
        -11    1    3    3    0    0  0.51532720538E+02  0.16057280757E+02 -0.95730581632E+02  0.10989905282E+03  0.00000000000E+00 0.  1.
         12    1    3    3    0    0 -0.26062657457E+02 -0.16125666458E+02 -0.44586878190E+02  0.54104426244E+02  0.00000000000E+00 0. -1.
        -13    1    4    4    0    0  0.14352119508E+02  0.41172695644E+02  0.66815550000E+02  0.79784033006E+02  0.00000000000E+00 0. -1.
         13    1    4    4    0    0 -0.30764596975E+02 -0.29323616243E+02  0.19308758287E+02  0.46681506436E+02  0.00000000000E+00 0.  1.
         21    1    1    2  503  502  0.88104288159E+01 -0.27624148986E+02 -0.12295653945E+01  0.29021183542E+02  0.00000000000E+00 0.  1.
          1    1    1    2  501    0 -0.17868014430E+02  0.15843455286E+02  0.22610553620E+02  0.32886443257E+02  0.00000000000E+00 0. -1.
<scales pt_clust_5="13000.00000" pt_clust_6="13000.00000" pt_clust_7="13000.00000" pt_clust_8="13000.00000" pt_clust_9="26.86587" pt_clust_10="23.88056"></scales>
<clustering>
<clus scale="   23.881">  1 10  2 -1</clus>
<clus scale="   26.866">  1  9  2 -1</clus>
<clus scale="   80.990">  5  6 -1 -1</clus>
<clus scale="   84.642">  2  5  1 -1</clus>
<clus scale="   90.368">  7  8 -1 -1</clus>
<clus scale="   23.881">  1  5  2 -1</clus>
</clustering>
</event>
<event>
10    4  0.3738096E-005  0.2748581E+03  0.7546771E-02  0.1143735E+00
         21   -1    0    0  501  502  0.00000000000E+00  0.00000000000E+00  0.55413243364E+03  0.55413243364E+03  0.00000000000E+00 0. -1.
          2   -1    0    0  503    0 -0.00000000000E+00 -0.00000000000E+00 -0.60277763501E+03  0.60277763501E+03  0.00000000000E+00 0. -1.
         24    2    1    2    0    0  0.69468700729E+01 -0.34067189682E+02 -0.29298142064E+03  0.30391327946E+03  0.72913209864E+02 0.  0.
         23    2    1    2    0    0 -0.20139090234E+03 -0.14384702020E+03  0.30918675735E+03  0.40655534074E+03  0.91872375603E+02 0.  0.
        -13    1    3    3    0    0  0.25487989636E+02  0.12464089044E+02 -0.73434356587E+02  0.78724810948E+02  0.00000000000E+00 0.  1.
         14    1    3    3    0    0 -0.18541119564E+02 -0.46531278727E+02 -0.21954706406E+03  0.22518846851E+03  0.00000000000E+00 0. -1.
        -13    1    4    4    0    0 -0.96213101226E+02 -0.23549322387E+02  0.80856235435E+02  0.12786423363E+03  0.00000000000E+00 0. -1.
         13    1    4    4    0    0 -0.10517780111E+03 -0.12029769781E+03  0.22833052192E+03  0.27869110711E+03  0.00000000000E+00 0.  1.
         21    1    1    2  503  502 -0.86592342520E+01 -0.25664675821E+02 -0.14532334662E+03  0.14782602272E+03  0.00000000000E+00 0. -1.
          1    1    1    2  501    0  0.20310326651E+03  0.20357888570E+03  0.80472808541E+02  0.29861542573E+03  0.00000000000E+00 0. -1.
<scales pt_clust_5="13000.00000" pt_clust_6="13000.00000" pt_clust_7="13000.00000" pt_clust_8="13000.00000" pt_clust_9="27.08612" pt_clust_10="259.04920"></scales>
<clustering>
<clus scale="   27.086">  2  9  1 -1</clus>
<clus scale="   72.913">  5  6 -1 -1</clus>
<clus scale="   88.907">  2  5  1 -1</clus>
<clus scale="   91.872">  7  8 -1 -1</clus>
<clus scale="  259.049">  1 10  2 -1</clus>
<clus scale="  259.049">  1  5  2 -1</clus>
</clustering>
</event>
<event>
10    4  0.3738096E-005  0.2145171E+03  0.7546771E-02  0.1139330E+00
          2   -1    0    0  503    0 -0.00000000000E+00  0.00000000000E+00  0.78244717965E+03  0.78244717965E+03  0.00000000000E+00 0. -1.
         21   -1    0    0  501  502  0.00000000000E+00 -0.00000000000E+00 -0.93029224111E+02  0.93029224111E+02  0.00000000000E+00 0. -1.
         23    2    1    2    0    0  0.96661326186E+02 -0.17267568024E+03  0.19652712503E+03  0.29324001747E+03  0.90589703880E+02 0.  0.
         24    2    1    2    0    0 -0.78162560559E+02  0.16937145428E+03  0.27243210386E+03  0.33828333151E+03  0.73622590055E+02 0.  0.
        -13    1    4    4    0    0  0.95700519352E+01  0.19046271548E+02  0.59874200860E+02  0.63555222308E+02  0.00000000000E+00 0.  1.
         14    1    4    4    0    0 -0.87732612494E+02  0.15032518274E+03  0.21255790300E+03  0.27472810920E+03  0.00000000000E+00 0. -1.
        -13    1    3    3    0    0  0.10665515631E+03 -0.15375749186E+03  0.14274030707E+03  0.23535395457E+03  0.00000000000E+00 0. -1.
         13    1    3    3    0    0 -0.99938301203E+01 -0.18918188377E+02  0.53786817958E+02  0.57886062899E+02  0.00000000000E+00 0.  1.
         21    1    1    2  503  502 -0.41833936816E+02  0.38690023777E+02  0.16211076264E+03  0.17183391858E+03  0.00000000000E+00 0. -1.
          1    1    1    2  501    0  0.23335171189E+02 -0.35385797824E+02  0.58347964019E+02  0.72119136207E+02  0.00000000000E+00 0. -1.
<scales pt_clust_5="13000.00000" pt_clust_6="13000.00000" pt_clust_7="13000.00000" pt_clust_8="13000.00000" pt_clust_9="54.66263" pt_clust_10="42.38734"></scales>
<clustering>
<clus scale="   42.387">  2 10  1 -1</clus>
<clus scale="   54.663">  1  9  2 -1</clus>
<clus scale="   73.623">  5  6 -1 -1</clus>
<clus scale="   90.590">  7  8 -1 -1</clus>
<clus scale="  207.922">  2  5  1 -1</clus>
<clus scale="   42.387">  2  5  1 -1</clus>
</clustering>
</event>
<event>
10    4  0.3738096E-005  0.1442502E+03  0.7546771E-02  0.1218964E+00
          2   -1    0    0  503    0 -0.00000000000E+00  0.00000000000E+00  0.35810438304E+03  0.35810438304E+03  0.00000000000E+00 0. -1.
         21   -1    0    0  501  502  0.00000000000E+00 -0.00000000000E+00 -0.54508885199E+03  0.54508885199E+03  0.00000000000E+00 0.  1.
         23    2    1    2    0    0  0.13661852276E+02 -0.51867670294E+02  0.18663780063E+03  0.21417732705E+03  0.90340231181E+02 0.  0.
         24    2    1    2    0    0  0.73022348378E+02 -0.72203815600E+02 -0.33583330026E+03  0.36102892387E+03  0.83739022900E+02 0.  0.
        -13    1    4    4    0    0  0.80734700017E+02 -0.73808347402E+02 -0.33578274956E+03  0.35315126905E+03  0.00000000000E+00 0.  1.
         14    1    4    4    0    0 -0.77123516390E+01  0.16045318018E+01 -0.50550707994E-01  0.78776548211E+01  0.00000000000E+00 0. -1.
        -13    1    3    3    0    0 -0.36569555296E+02 -0.24653063208E+02  0.53741034021E+02  0.69521253137E+02  0.00000000000E+00 0.  1.
         13    1    3    3    0    0  0.50231407572E+02 -0.27214607086E+02  0.13289676661E+03  0.14465607391E+03  0.00000000000E+00 0. -1.
         21    1    1    2  503  502 -0.51084038922E+01 -0.20487414973E+02  0.10618196611E+03  0.10826098045E+03  0.00000000000E+00 0.  1.
          1    1    1    2  501    0 -0.81575796761E+02  0.14455890087E+03 -0.14397093542E+03  0.21972600366E+03  0.00000000000E+00 0. -1.
<scales pt_clust_5="13000.00000" pt_clust_6="13000.00000" pt_clust_7="13000.00000" pt_clust_8="13000.00000" pt_clust_9="21.11469" pt_clust_10="117.45604"></scales>
<clustering>
<clus scale="   21.115">  1  9  2 -1</clus>
<clus scale="   83.739">  5  6 -1 -1</clus>
<clus scale="   90.340">  7  8 -1 -1</clus>
<clus scale="  113.617">  1  7  2 -1</clus>
<clus scale="  117.456">  2 10  1 -1</clus>
<clus scale="  117.456">  2  5  1 -1</clus>
</clustering>
</event>
<event>
10    4  0.3738096E-005  0.4023717E+03  0.7546771E-02  0.1043117E+00
         21   -1    0    0  501  502  0.00000000000E+00  0.00000000000E+00  0.18165448049E+03  0.18165448049E+03  0.00000000000E+00 0.  1.
          2   -1    0    0  503    0 -0.00000000000E+00 -0.00000000000E+00 -0.13699198670E+04  0.13699198670E+04  0.00000000000E+00 0. -1.
         23    2    1    2    0    0 -0.22411952993E+03  0.27074656850E+03 -0.47636573967E+03  0.59886234724E+03  0.90435197548E+02 0.  0.
         24    2    1    2    0    0  0.18214989164E+03 -0.41082972108E+03 -0.51191777817E+03  0.68611014687E+03  0.82022431587E+02 0.  0.
        -13    1    4    4    0    0  0.57366168317E+02 -0.16589272823E+03 -0.25692280433E+03  0.31116009052E+03  0.00000000000E+00 0.  1.
         14    1    4    4    0    0  0.12478372333E+03 -0.24493699286E+03 -0.25499497384E+03  0.37495005635E+03  0.00000000000E+00 0. -1.
        -11    1    3    3    0    0 -0.94158825372E+02  0.54656767945E+02 -0.11660348826E+03  0.15952937081E+03  0.00000000000E+00 0. -1.
         11    1    3    3    0    0 -0.12996070455E+03  0.21608980055E+03 -0.35976225141E+03  0.43933297642E+03  0.00000000000E+00 0.  1.
         21    1    1    2  503  502 -0.58399187477E+01  0.30413843888E+02 -0.11693287598E+03  0.12096447427E+03  0.00000000000E+00 0.  1.
          1    1    1    2  501    0  0.47809557032E+02  0.10966930870E+03 -0.83048992721E+02  0.14563737915E+03  0.00000000000E+00 0. -1.
<scales pt_clust_5="13000.00000" pt_clust_6="13000.00000" pt_clust_7="13000.00000" pt_clust_8="13000.00000" pt_clust_9="30.96945" pt_clust_10="121.98291"></scales>
<clustering>
<clus scale="   30.969">  2  9  1 -1</clus>
<clus scale="   82.022">  5  6 -1 -1</clus>
<clus scale="   90.435">  7  8 -1 -1</clus>
<clus scale="  121.983">  1 10  2 -1</clus>
<clus scale="  400.565">  1  5  2 -1</clus>
<clus scale="  121.983">  1  5  2 -1</clus>
</clustering>
</event>
<event>
10    4  0.3738096E-005  0.1528276E+03  0.7546771E-02  0.1199082E+00
          2   -1    0    0  502    0 -0.00000000000E+00  0.00000000000E+00  0.32984670831E+03  0.32984670831E+03  0.00000000000E+00 0. -1.
         21   -1    0    0  503  502  0.00000000000E+00 -0.00000000000E+00 -0.18449162851E+03  0.18449162851E+03  0.00000000000E+00 0. -1.
         24    2    1    2    0    0 -0.40454505264E+02  0.13576317019E+03  0.21409656536E+03  0.26871019043E+03  0.79370156629E+02 0.  0.
         23    2    1    2    0    0  0.75291563505E+02 -0.37344166637E+02 -0.46373171673E+02  0.13229113666E+03  0.91033331655E+02 0.  0.
        -11    1    3    3    0    0 -0.22945150587E+02 -0.98417529241E+00  0.18933466492E+02  0.29764487059E+02  0.00000000000E+00 0.  1.
         12    1    3    3    0    0 -0.17509354677E+02  0.13674734548E+03  0.19516309887E+03  0.23894570337E+03  0.00000000000E+00 0. -1.
        -11    1    4    4    0    0  0.63543365112E+02 -0.10047718539E+02 -0.69448508827E+02  0.94666843594E+02  0.00000000000E+00 0. -1.
         11    1    4    4    0    0  0.11748198392E+02 -0.27296448099E+02  0.23075337155E+02  0.37624293071E+02  0.00000000000E+00 0.  1.
         21    1    1    2  503  501 -0.30166032467E+02 -0.39063617069E+02  0.10281731284E+01  0.49366110169E+02  0.00000000000E+00 0. -1.
          1    1    1    2  501    0 -0.46710257738E+01 -0.59355386483E+02 -0.23396487008E+02  0.63970899561E+02  0.00000000000E+00 0. -1.
<scales pt_clust_5="13000.00000" pt_clust_6="13000.00000" pt_clust_7="13000.00000" pt_clust_8="13000.00000" pt_clust_9="34.61013" pt_clust_10="111.10777"></scales>
<clustering>
<clus scale="   34.610">  9 10 -1 -1</clus>
<clus scale="   79.370">  5  6 -1 -1</clus>
<clus scale="   91.033">  7  8 -1 -1</clus>
<clus scale="  111.108">  2  9  1 -1</clus>
<clus scale="  146.181">  1  5  2 -1</clus>
<clus scale="  111.108">  2  5  1 -1</clus>
</clustering>
</event>
<event>
10    4  0.3738096E-005  0.1113487E+03  0.7546771E-02  0.1261044E+00
         21   -1    0    0  501  502  0.00000000000E+00  0.00000000000E+00  0.16845182072E+03  0.16845182072E+03  0.00000000000E+00 0.  1.
          2   -1    0    0  503    0 -0.00000000000E+00 -0.00000000000E+00 -0.40361252989E+03  0.40361252989E+03  0.00000000000E+00 0. -1.
         24    2    1    2    0    0 -0.29252815562E+02 -0.28605833897E+02 -0.23476461678E+02  0.92875040346E+02  0.80003799380E+02 0.  0.
         23    2    1    2    0    0  0.10921674048E+03  0.10149643853E+02  0.76155871296E+02  0.15997115712E+03  0.88089401770E+02 0.  0.
        -13    1    3    3    0    0 -0.55492238385E+02 -0.30484074851E+02 -0.19639710689E+02  0.66290161988E+02  0.00000000000E+00 0.  1.
         14    1    3    3    0    0  0.26239422823E+02  0.18782409538E+01 -0.38367509889E+01  0.26584878358E+02  0.00000000000E+00 0. -1.
        -13    1    4    4    0    0  0.15799344626E+02  0.19883234465E+02 -0.14659005707E+02  0.29323177722E+02  0.00000000000E+00 0. -1.
         13    1    4    4    0    0  0.93417395858E+02 -0.97335906116E+01  0.90814877003E+02  0.13064797940E+03  0.00000000000E+00 0.  1.
         21    1    1    2  503  502 -0.52356901695E+02 -0.34458736950E+02 -0.22050142682E+03  0.22923684027E+03  0.00000000000E+00 0. -1.
          1    1    1    2  501    0 -0.27607023227E+02  0.52914926994E+02 -0.67338691972E+02  0.89981312875E+02  0.00000000000E+00 0. -1.
<scales pt_clust_5="13000.00000" pt_clust_6="13000.00000" pt_clust_7="13000.00000" pt_clust_8="13000.00000" pt_clust_9="62.53311" pt_clust_10="59.68367"></scales>
<clustering>
<clus scale="   59.684">  1 10  2 -1</clus>
<clus scale="   62.533">  2  9  1 -1</clus>
<clus scale="   80.004">  5  6 -1 -1</clus>
<clus scale="   88.089">  7  8 -1 -1</clus>
<clus scale="  105.069">  2  5  1 -1</clus>
<clus scale="   59.684">  1  5  2 -1</clus>
</clustering>
</event>
<event>
10    4  0.3738096E-005  0.9324685E+02  0.7546771E-02  0.1301366E+00
         -1   -1    0    0    0  501 -0.00000000000E+00  0.00000000000E+00  0.11778053855E+03  0.11778053855E+03  0.00000000000E+00 0.  1.
         21   -1    0    0  503  502  0.00000000000E+00 -0.00000000000E+00 -0.33104388530E+03  0.33104388530E+03  0.00000000000E+00 0.  1.
         24    2    1    2    0    0 -0.32592775051E+02  0.55119951718E+02  0.38904727572E+00  0.10230486261E+03  0.79784932744E+02 0.  0.
         23    2    1    2    0    0 -0.12699927258E+01  0.32592091302E+02 -0.60254925939E+02  0.11331028945E+03  0.90248037646E+02 0.  0.
        -11    1    3    3    0    0 -0.82612615854E+01  0.70222409887E+02  0.11407087788E+02  0.71620925330E+02  0.00000000000E+00 0.  1.
         12    1    3    3    0    0 -0.24331513465E+02 -0.15102458169E+02 -0.11018040512E+02  0.30683937280E+02  0.00000000000E+00 0. -1.
        -11    1    4    4    0    0 -0.36094987999E+02  0.10637640416E+01 -0.55336807214E+02  0.66076788551E+02  0.00000000000E+00 0. -1.
         11    1    4    4    0    0  0.34824995273E+02  0.31528327260E+02 -0.49181187243E+01  0.47233500901E+02  0.00000000000E+00 0.  1.
         21    1    1    2  503  501  0.31005137487E+01 -0.37264994036E+02  0.25199375562E+02  0.45092144490E+02  0.00000000000E+00 0.  1.
         -2    1    1    2    0  502  0.30762254028E+02 -0.50447048984E+02 -0.17859684365E+03  0.18811712730E+03  0.00000000000E+00 0.  1.
<scales pt_clust_5="13000.00000" pt_clust_6="13000.00000" pt_clust_7="13000.00000" pt_clust_8="13000.00000" pt_clust_9="37.39376" pt_clust_10="61.01993"></scales>
<clustering>
<clus scale="   37.394">  1  9  2 -1</clus>
<clus scale="   61.020">  2 10  1 -1</clus>
<clus scale="   79.785">  5  6 -1 -1</clus>
<clus scale="   83.162">  1  5  2 -1</clus>
<clus scale="   90.248">  7  8 -1 -1</clus>
<clus scale="   61.020">  2  5  1 -1</clus>
</clustering>
</event>
<event>
10    4  0.3738096E-005  0.2248474E+03  0.7546771E-02  0.1130898E+00
         21   -1    0    0  501  502  0.00000000000E+00  0.00000000000E+00  0.18343253908E+03  0.18343253908E+03  0.00000000000E+00 0.  1.
          2   -1    0    0  503    0 -0.00000000000E+00 -0.00000000000E+00 -0.45901873644E+03  0.45901873644E+03  0.00000000000E+00 0. -1.
         23    2    1    2    0    0 -0.12976038229E+03  0.14733031478E+03 -0.22212548001E+03  0.30967955483E+03  0.89541718454E+02 0.  0.
         24    2    1    2    0    0  0.11221366542E+03 -0.19963414733E+03 -0.84371934435E+02  0.25723167506E+03  0.81263840939E+02 0.  0.
        -11    1    4    4    0    0  0.94132273420E+02 -0.19032077998E+03 -0.96847186717E+02  0.23337151019E+03  0.00000000000E+00 0.  1.
         12    1    4    4    0    0  0.18081392001E+02 -0.93133673510E+01  0.12475252283E+02  0.23860164870E+02  0.00000000000E+00 0. -1.
        -13    1    3    3    0    0 -0.83180056248E+02  0.12962417608E+03 -0.11725595823E+03  0.19357248907E+03  0.00000000000E+00 0.  1.
         13    1    3    3    0    0 -0.46580326038E+02  0.17706138698E+02 -0.10486952178E+03  0.11610706576E+03  0.00000000000E+00 0. -1.
         21    1    1    2  503  502  0.14901259125E+02  0.31431580281E+02 -0.37569434004E+01  0.34987231760E+02  0.00000000000E+00 0. -1.
          1    1    1    2  501    0  0.26454577406E+01  0.20872252271E+02  0.34668160486E+02  0.40552813872E+02  0.00000000000E+00 0. -1.
<scales pt_clust_5="13000.00000" pt_clust_6="13000.00000" pt_clust_7="13000.00000" pt_clust_8="13000.00000" pt_clust_9="36.93256" pt_clust_10="21.03923"></scales>
<clustering>
<clus scale="   21.039">  1 10  2 -1</clus>
<clus scale="   36.933">  1  9  2 -1</clus>
<clus scale="   81.264">  5  6 -1 -1</clus>
<clus scale="   89.542">  7  8 -1 -1</clus>
<clus scale="  221.681">  1  5  2 -1</clus>
<clus scale="   21.039">  1  5  2 -1</clus>
</clustering>
</event>
<event>
10    4  0.3738096E-005  0.1389994E+03  0.7546771E-02  0.1215155E+00
         21   -1    0    0  503  502  0.00000000000E+00  0.00000000000E+00  0.11931123565E+03  0.11931123565E+03  0.00000000000E+00 0.  1.
         -3   -1    0    0    0  501 -0.00000000000E+00 -0.00000000000E+00 -0.40043877438E+03  0.40043877438E+03  0.00000000000E+00 0.  1.
         23    2    1    2    0    0  0.81497770977E+02  0.48365460739E+02 -0.27607958332E+03  0.30487546535E+03  0.88022773094E+02 0.  0.
         24    2    1    2    0    0 -0.80361020596E+02 -0.31640460100E+02  0.15682962744E+02  0.12584236420E+03  0.90173903991E+02 0.  0.
        -11    1    4    4    0    0 -0.52948353597E+02 -0.36486814514E+02 -0.31080735676E+02  0.71420080595E+02  0.00000000000E+00 0.  1.
         12    1    4    4    0    0 -0.27412666998E+02  0.48463544138E+01  0.46763698420E+02  0.54422283607E+02  0.00000000000E+00 0. -1.
        -13    1    3    3    0    0  0.53496760673E+02  0.10790928817E+02 -0.50083693832E+02  0.74072423580E+02  0.00000000000E+00 0.  1.
         13    1    3    3    0    0  0.28001010304E+02  0.37574531922E+02 -0.22599588949E+03  0.23080304177E+03  0.00000000000E+00 0. -1.
         21    1    1    2  503  501  0.19973167731E+02  0.87907767356E+01 -0.43621036766E+02  0.48774993935E+02  0.00000000000E+00 0. -1.
         -4    1    1    2    0  502 -0.21109918112E+02 -0.25515777374E+02  0.22890118610E+02  0.40257186534E+02  0.00000000000E+00 0.  1.
<scales pt_clust_5="13000.00000" pt_clust_6="13000.00000" pt_clust_7="13000.00000" pt_clust_8="13000.00000" pt_clust_9="21.82213" pt_clust_10="32.63896"></scales>
<clustering>
<clus scale="   21.822">  2  9  1 -1</clus>
<clus scale="   32.639">  1 10  2 -1</clus>
<clus scale="   88.023">  7  8 -1 -1</clus>
<clus scale="   90.174">  5  6 -1 -1</clus>
<clus scale="  137.614">  2  7  1 -1</clus>
<clus scale="   32.639">  1  5  2 -1</clus>
</clustering>
</event>
<event>
10    4  0.3738096E-005  0.1416751E+03  0.7546771E-02  0.1224684E+00
         -3   -1    0    0    0  501 -0.00000000000E+00  0.00000000000E+00  0.29536726571E+03  0.29536726571E+03  0.00000000000E+00 0.  1.
         21   -1    0    0  503  502  0.00000000000E+00 -0.00000000000E+00 -0.23081544074E+03  0.23081544074E+03  0.00000000000E+00 0.  1.
         23    2    1    2    0    0 -0.79048037710E+02  0.57518621707E+02  0.16751204522E+03  0.23024879774E+03  0.12408561341E+03 0.  0.
         24    2    1    2    0    0 -0.15337390894E+02 -0.83107667168E+02 -0.19488771308E+02  0.11902503829E+03  0.81517038902E+02 0.  0.
        -13    1    4    4    0    0  0.13035763074E+01 -0.79189281853E+02 -0.42871622163E+02  0.90058967674E+02  0.00000000000E+00 0.  1.
         14    1    4    4    0    0 -0.16640967201E+02 -0.39183853152E+01  0.23382850855E+02  0.28966070616E+02  0.00000000000E+00 0. -1.
        -13    1    3    3    0    0 -0.95120169217E+02  0.50739010383E+01  0.13878448448E+03  0.16832921373E+03  0.00000000000E+00 0.  1.
         13    1    3    3    0    0  0.16072131506E+02  0.52444720669E+02  0.28727560747E+02  0.61919584007E+02  0.00000000000E+00 0. -1.
         21    1    1    2  503  501  0.10179182880E+02 -0.31020192250E+02  0.14627955895E+02  0.35774923969E+02  0.00000000000E+00 0. -1.
         -4    1    1    2    0  502  0.84206245724E+02  0.56609237712E+02 -0.98099404839E+02  0.14113394646E+03  0.00000000000E+00 0.  1.
<scales pt_clust_5="13000.00000" pt_clust_6="13000.00000" pt_clust_7="13000.00000" pt_clust_8="13000.00000" pt_clust_9="32.64764" pt_clust_10="100.79125"></scales>
<clustering>
<clus scale="   32.648">  1  9  2 -1</clus>
<clus scale="   81.517">  5  6 -1 -1</clus>
<clus scale="  100.791">  2 10  1 -1</clus>
<clus scale="  106.394">  2  5  1 -1</clus>
<clus scale="  124.086">  7  8 -1 -1</clus>
<clus scale="  100.791">  2  5  1 -1</clus>
</clustering>
</event>
<event>
10    4  0.3738096E-005  0.1232782E+03  0.7546771E-02  0.1241329E+00
          2   -1    0    0  503    0 -0.00000000000E+00  0.00000000000E+00  0.21911068724E+03  0.21911068724E+03  0.00000000000E+00 0. -1.
         21   -1    0    0  501  502  0.00000000000E+00 -0.00000000000E+00 -0.27791297120E+03  0.27791297120E+03  0.00000000000E+00 0. -1.
         23    2    1    2    0    0 -0.62841386324E+02 -0.64794017120E+02 -0.70402160291E+02  0.14666630940E+03  0.91690990017E+02 0.  0.
         24    2    1    2    0    0  0.41271113457E+02  0.64113578709E+02 -0.14240634751E+03  0.18017111196E+03  0.79801040054E+02 0.  0.
        -13    1    4    4    0    0 -0.10754407150E+02  0.32964223722E+02 -0.10089138654E+03  0.10668350012E+03  0.00000000000E+00 0.  1.
         14    1    4    4    0    0  0.52025520607E+02  0.31149354987E+02 -0.41514960965E+02  0.73487611844E+02  0.00000000000E+00 0. -1.
        -11    1    3    3    0    0 -0.53793935558E+02 -0.42276536238E+02 -0.91677556202E+02  0.11439347591E+03  0.00000000000E+00 0. -1.
         11    1    3    3    0    0 -0.90474507658E+01 -0.22517480882E+02  0.21275395910E+02  0.32272833495E+02  0.00000000000E+00 0.  1.
         21    1    1    2  503  502  0.15250186467E+02  0.20421337464E+02  0.14856382661E+02  0.29501039251E+02  0.00000000000E+00 0. -1.
          1    1    1    2  501    0  0.63200863993E+01 -0.19740899053E+02  0.13914984117E+03  0.14068519782E+03  0.00000000000E+00 0. -1.
<scales pt_clust_5="13000.00000" pt_clust_6="13000.00000" pt_clust_7="13000.00000" pt_clust_8="13000.00000" pt_clust_9="25.17320" pt_clust_10="20.72793"></scales>
<clustering>
<clus scale="   20.728">  2 10  1 -1</clus>
<clus scale="   25.173">  1  9  2 -1</clus>
<clus scale="   79.801">  5  6 -1 -1</clus>
<clus scale="   91.691">  7  8 -1 -1</clus>
<clus scale="  114.710">  2  5  1 -1</clus>
<clus scale="   20.728">  2  5  1 -1</clus>
</clustering>
</event>
<event>
10    4  0.3738096E-005  0.5211846E+03  0.7546771E-02  0.1008393E+00
         21   -1    0    0  503  502  0.00000000000E+00  0.00000000000E+00  0.30155801771E+03  0.30155801771E+03  0.00000000000E+00 0.  1.
         -3   -1    0    0    0  501 -0.00000000000E+00 -0.00000000000E+00 -0.97260708855E+03  0.97260708855E+03  0.00000000000E+00 0.  1.
         24    2    1    2    0    0 -0.12563203053E+03 -0.14970046055E+03 -0.14647027942E+03  0.25727847018E+03  0.80901381193E+02 0.  0.
         23    2    1    2    0    0 -0.17766561364E+03 -0.17778032530E+03 -0.80045780932E+02  0.27912168446E+03  0.91272522448E+02 0.  0.
        -11    1    3    3    0    0 -0.55953569368E+02 -0.13411218869E+02 -0.29673639792E+02  0.64739382258E+02  0.00000000000E+00 0.  1.
         12    1    3    3    0    0 -0.69678461157E+02 -0.13628924169E+03 -0.11679663963E+03  0.19253908792E+03  0.00000000000E+00 0. -1.
        -13    1    4    4    0    0 -0.14261566486E+03 -0.16117422003E+03 -0.97889475638E+02  0.23642907289E+03  0.00000000000E+00 0.  1.
         13    1    4    4    0    0 -0.35049948784E+02 -0.16606105274E+02  0.17843694706E+02  0.42692611573E+02  0.00000000000E+00 0. -1.
         21    1    1    2  503  501  0.34700900200E+03  0.37862800765E+03 -0.42783261774E+03  0.66844234190E+03  0.00000000000E+00 0.  1.
         -4    1    1    2    0  502 -0.43711357828E+02 -0.51147221798E+02 -0.16700392760E+02  0.69322609726E+02  0.00000000000E+00 0.  1.
<scales pt_clust_5="13000.00000" pt_clust_6="13000.00000" pt_clust_7="13000.00000" pt_clust_8="13000.00000" pt_clust_9="484.20137" pt_clust_10="67.28091"></scales>
<clustering>
<clus scale="   67.281">  1 10  2 -1</clus>
<clus scale="   80.901">  5  6 -1 -1</clus>
<clus scale="   91.273">  7  8 -1 -1</clus>
<clus scale="  117.840">  5  7 -1 -1</clus>
<clus scale="  484.201">  2  9  1 -1</clus>
<clus scale="   67.281">  1  5  2 -1</clus>
</clustering>
</event>
<event>
10    4  0.3738096E-005  0.4662370E+03  0.7546771E-02  0.1022988E+00
         21   -1    0    0  501  502  0.00000000000E+00  0.00000000000E+00  0.13020914597E+03  0.13020914597E+03  0.00000000000E+00 0. -1.
          2   -1    0    0  503    0 -0.00000000000E+00 -0.00000000000E+00 -0.25271500238E+04  0.25271500238E+04  0.00000000000E+00 0. -1.
         24    2    1    2    0    0  0.19858399852E+03  0.12884823101E+03 -0.10010420513E+04  0.10315810382E+04  0.77696710946E+02 0.  0.
         23    2    1    2    0    0  0.20337566358E+03 -0.45268990352E+02 -0.63074356821E+03  0.67197547273E+03  0.10150194620E+03 0.  0.
        -11    1    3    3    0    0  0.11174677515E+02  0.34923075741E+02 -0.10102612430E+03  0.10747451990E+03  0.00000000000E+00 0.  1.
         12    1    3    3    0    0  0.18740932101E+03  0.93925155272E+02 -0.90001592698E+03  0.92410651833E+03  0.00000000000E+00 0. -1.
        -13    1    4    4    0    0  0.14721200583E+03 -0.57199843339E+02 -0.55435991090E+03  0.57641834422E+03  0.00000000000E+00 0.  1.
         13    1    4    4    0    0  0.56163657744E+02  0.11930852987E+02 -0.76383657313E+02  0.95557128508E+02  0.00000000000E+00 0. -1.
         21    1    1    2  503  502 -0.25518863122E+02 -0.60103477354E+02 -0.47095243774E+03  0.47545750492E+03  0.00000000000E+00 0. -1.
          1    1    1    2  501    0 -0.37644079898E+03 -0.23475763308E+02 -0.29420282057E+03  0.47834515387E+03  0.00000000000E+00 0. -1.
<scales pt_clust_5="13000.00000" pt_clust_6="13000.00000" pt_clust_7="13000.00000" pt_clust_8="13000.00000" pt_clust_9="65.29656" pt_clust_10="382.82308"></scales>
<clustering>
<clus scale="   65.297">  2  9  1 -1</clus>
<clus scale="   77.697">  5  6 -1 -1</clus>
<clus scale="  101.502">  7  8 -1 -1</clus>
<clus scale="  214.418">  5  7 -1 -1</clus>
<clus scale="  382.823">  1 10  2 -1</clus>
<clus scale="  382.823">  1  5  2 -1</clus>
</clustering>
</event>
<event>
10    4  0.3738096E-005  0.5700775E+03  0.7546771E-02  0.9970344E-01
          2   -1    0    0  503    0 -0.00000000000E+00  0.00000000000E+00  0.17835060132E+04  0.17835060132E+04  0.00000000000E+00 0. -1.
         21   -1    0    0  501  502  0.00000000000E+00 -0.00000000000E+00 -0.45480556892E+03  0.45480556892E+03  0.00000000000E+00 0.  1.
         24    2    1    2    0    0 -0.39389282669E+02  0.52089392942E+03  0.12894202339E+04  0.13936272339E+04  0.81916579435E+02 0.  0.
         23    2    1    2    0    0  0.17173146712E+02 -0.56197739621E+03 -0.14360242112E+03  0.58750821417E+03  0.91819036975E+02 0.  0.
        -13    1    3    3    0    0  0.12594383643E+02  0.28763807534E+02  0.11484129382E+03  0.11905670031E+03  0.00000000000E+00 0.  1.
         14    1    3    3    0    0 -0.51983666311E+02  0.49213012188E+03  0.11745789401E+04  0.12745705335E+04  0.00000000000E+00 0. -1.
        -11    1    4    4    0    0 -0.18424984043E+02 -0.46645255552E+03 -0.10483318145E+03  0.47844274738E+03  0.00000000000E+00 0. -1.
         11    1    4    4    0    0  0.35598130755E+02 -0.95524840685E+02 -0.38769239672E+02  0.10906546679E+03  0.00000000000E+00 0.  1.
         21    1    1    2  503  502  0.10659950404E+01  0.48801209002E+02  0.21359151553E+03  0.21909821964E+03  0.00000000000E+00 0. -1.
          1    1    1    2  501    0  0.21150140916E+02 -0.77177422117E+01 -0.30708884078E+02  0.38077914425E+02  0.00000000000E+00 0. -1.
<scales pt_clust_5="13000.00000" pt_clust_6="13000.00000" pt_clust_7="13000.00000" pt_clust_8="13000.00000" pt_clust_9="48.76554" pt_clust_10="22.51426"></scales>
<clustering>
<clus scale="   22.514">  2 10  1 -1</clus>
<clus scale="   48.766">  1  9  2 -1</clus>
<clus scale="   81.917">  5  6 -1 -1</clus>
<clus scale="   91.819">  7  8 -1 -1</clus>
<clus scale="  568.567">  1  5  2 -1</clus>
<clus scale="   22.514">  2  5  1 -1</clus>
</clustering>
</event>
<event>
10    4  0.3738096E-005  0.1011920E+03  0.7546771E-02  0.1281509E+00
         21   -1    0    0  501  502  0.00000000000E+00  0.00000000000E+00  0.41767718366E+03  0.41767718366E+03  0.00000000000E+00 0.  1.
          2   -1    0    0  503    0 -0.00000000000E+00 -0.00000000000E+00 -0.84350812577E+02  0.84350812577E+02  0.00000000000E+00 0. -1.
         23    2    1    2    0    0  0.42824301972E+02 -0.17262871589E+02  0.96992844106E+02  0.13935383789E+03  0.88769097955E+02 0.  0.
         24    2    1    2    0    0 -0.45874256861E+02  0.42887615647E+01  0.25426178973E+03  0.27075118959E+03  0.80835066829E+02 0.  0.
        -11    1    4    4    0    0  0.11363527885E+02  0.24021694614E+02  0.12793142350E+03  0.13066223899E+03  0.00000000000E+00 0.  1.
         12    1    4    4    0    0 -0.57237784746E+02 -0.19732933049E+02  0.12633036623E+03  0.14008895060E+03  0.00000000000E+00 0. -1.
        -11    1    3    3    0    0  0.50884623549E+02 -0.41413415524E+02  0.92648718412E+02  0.11352577206E+03  0.00000000000E+00 0.  1.
         11    1    3    3    0    0 -0.80603215764E+01  0.24150543935E+02  0.43441256942E+01  0.25828065826E+02  0.00000000000E+00 0. -1.
         21    1    1    2  503  502  0.99345242733E-01 -0.34409984007E+02 -0.26812472179E+02  0.43622993171E+02  0.00000000000E+00 0. -1.
          1    1    1    2  501    0  0.29506096459E+01  0.47384094031E+02  0.88842094233E+01  0.48299975585E+02  0.00000000000E+00 0. -1.
<scales pt_clust_5="13000.00000" pt_clust_6="13000.00000" pt_clust_7="13000.00000" pt_clust_8="13000.00000" pt_clust_9="34.41013" pt_clust_10="33.71473"></scales>
<clustering>
<clus scale="   34.410">  2  9  1 -1</clus>
<clus scale="   33.715">  1 10  2 -1</clus>
<clus scale="   80.835">  5  6 -1 -1</clus>
<clus scale="   88.769">  7  8 -1 -1</clus>
<clus scale="   94.309">  1  5  2 -1</clus>
<clus scale="   33.715">  1  5  2 -1</clus>
</clustering>
</event>
<event>
10    4  0.3738096E-005  0.2512483E+03  0.7546771E-02  0.1113150E+00
          2   -1    0    0  503    0 -0.00000000000E+00  0.00000000000E+00  0.85277900590E+03  0.85277900590E+03  0.00000000000E+00 0. -1.
         21   -1    0    0  501  502  0.00000000000E+00 -0.00000000000E+00 -0.29994059374E+03  0.29994059374E+03  0.00000000000E+00 0. -1.
         24    2    1    2    0    0 -0.10842707573E+03 -0.20509198975E+03  0.60193882346E+02  0.25307725815E+03  0.81275089111E+02 0.  0.
         23    2    1    2    0    0  0.19539722131E+03  0.13684953712E+03 -0.78242040699E+02  0.26762448247E+03  0.92699389324E+02 0.  0.
        -11    1    3    3    0    0 -0.12478903794E+02 -0.88698061313E+02  0.48304746245E+02  0.10176648579E+03  0.00000000000E+00 0.  1.
         12    1    3    3    0    0 -0.95948171932E+02 -0.11639392844E+03  0.11889136101E+02  0.15131077236E+03  0.00000000000E+00 0. -1.
        -13    1    4    4    0    0  0.17236191266E+03  0.15005644194E+03 -0.76583847460E+02  0.24102002073E+03  0.00000000000E+00 0. -1.
         13    1    4    4    0    0  0.23035308650E+02 -0.13206904821E+02 -0.16581932389E+01  0.26604461738E+02  0.00000000000E+00 0.  1.
         21    1    1    2  503  502 -0.12132104030E+03  0.75766327508E+02  0.57859894713E+03  0.59601683938E+03  0.00000000000E+00 0. -1.
          1    1    1    2  501    0  0.34350894719E+02 -0.75238748699E+01 -0.77123766206E+01  0.36001019627E+02  0.00000000000E+00 0. -1.
<scales pt_clust_5="13000.00000" pt_clust_6="13000.00000" pt_clust_7="13000.00000" pt_clust_8="13000.00000" pt_clust_9="141.99932" pt_clust_10="35.16522"></scales>
<clustering>
<clus scale="   35.165">  2 10  1 -1</clus>
<clus scale="   81.275">  5  6 -1 -1</clus>
<clus scale="   92.699">  7  8 -1 -1</clus>
<clus scale="  141.999">  1  9  2 -1</clus>
<clus scale="  247.261">  1  5  2 -1</clus>
<clus scale="   35.165">  2  5  1 -1</clus>
</clustering>
</event>
<event>
10    4  0.3738096E-005  0.1502779E+03  0.7546771E-02  0.1222486E+00
         21   -1    0    0  501  502  0.00000000000E+00  0.00000000000E+00  0.24304417103E+03  0.24304417103E+03  0.00000000000E+00 0. -1.
          2   -1    0    0  503    0 -0.00000000000E+00 -0.00000000000E+00 -0.64264517901E+03  0.64264517901E+03  0.00000000000E+00 0. -1.
         24    2    1    2    0    0 -0.49085784587E+02 -0.30782800314E+01 -0.39540265136E+02  0.10136135851E+03  0.79320882342E+02 0.  0.
         23    2    1    2    0    0 -0.60347557388E+02 -0.69656061933E+02  0.68612692856E+02  0.15672690475E+03  0.10659186838E+03 0.  0.
        -13    1    3    3    0    0 -0.59620755832E+02 -0.26646956853E+02 -0.18001947053E+02  0.67740423185E+02  0.00000000000E+00 0.  1.
         14    1    3    3    0    0  0.10534971246E+02  0.23568676822E+02 -0.21538318082E+02  0.33620935325E+02  0.00000000000E+00 0. -1.
        -13    1    4    4    0    0 -0.24958199572E+02 -0.29085257917E+02  0.90754150195E+02  0.98514870611E+02  0.00000000000E+00 0. -1.
         13    1    4    4    0    0 -0.35389357817E+02 -0.40570804016E+02 -0.22141457339E+02  0.58212034136E+02  0.00000000000E+00 0.  1.
         21    1    1    2  503  502  0.26848648625E+02  0.11896900375E+03 -0.49643624310E+03  0.51119802156E+03  0.00000000000E+00 0. -1.
          1    1    1    2  501    0  0.82584693350E+02 -0.46234661786E+02  0.67762807394E+02  0.11640306522E+03  0.00000000000E+00 0. -1.
<scales pt_clust_5="13000.00000" pt_clust_6="13000.00000" pt_clust_7="13000.00000" pt_clust_8="13000.00000" pt_clust_9="105.93220" pt_clust_10="92.89645"></scales>
<clustering>
<clus scale="   79.321">  5  6 -1 -1</clus>
<clus scale="   93.331">  2  5  1 -1</clus>
<clus scale="   92.896">  1 10  2 -1</clus>
<clus scale="  105.932">  2  9  1 -1</clus>
<clus scale="  106.592">  7  8 -1 -1</clus>
<clus scale="   92.896">  1  5  2 -1</clus>
</clustering>
</event>
<event>
10    4  0.3738096E-005  0.9314009E+02  0.7546771E-02  0.1308165E+00
         21   -1    0    0  501  502  0.00000000000E+00  0.00000000000E+00  0.41222644521E+02  0.41222644521E+02  0.00000000000E+00 0. -1.
          2   -1    0    0  503    0 -0.00000000000E+00 -0.00000000000E+00 -0.10202860224E+04  0.10202860224E+04  0.00000000000E+00 0. -1.
         24    2    1    2    0    0  0.60610868609E+01 -0.41810481842E+01 -0.46988997778E+03  0.47509326130E+03  0.69733763501E+02 0.  0.
         23    2    1    2    0    0 -0.46348937264E+02 -0.13312619376E+02 -0.38784637577E+03  0.40107169898E+03  0.90045803360E+02 0.  0.
        -11    1    3    3    0    0  0.90869837230E+01  0.19103384963E+02 -0.46878207755E+02  0.51430331057E+02  0.00000000000E+00 0.  1.
         12    1    3    3    0    0 -0.30258968622E+01 -0.23284433147E+02 -0.42301177003E+03  0.42366293024E+03  0.00000000000E+00 0. -1.
        -13    1    4    4    0    0  0.20438224091E+02  0.18929002081E+02 -0.97249983667E+02  0.10116119536E+03  0.00000000000E+00 0.  1.
         13    1    4    4    0    0 -0.66787161355E+02 -0.32241621456E+02 -0.29059639210E+03  0.29991050362E+03  0.00000000000E+00 0. -1.
         21    1    1    2  503  502  0.19362890969E+02  0.85395252442E+01 -0.14844171699E+03  0.14994261696E+03  0.00000000000E+00 0.  1.
          1    1    1    2  501    0  0.20924959435E+02  0.89541423157E+01  0.27114692670E+02  0.35401089680E+02  0.00000000000E+00 0. -1.
<scales pt_clust_5="13000.00000" pt_clust_6="13000.00000" pt_clust_7="13000.00000" pt_clust_8="13000.00000" pt_clust_9="21.16235" pt_clust_10="22.86093"></scales>
<clustering>
<clus scale="   21.162">  2  9  1 -1</clus>
<clus scale="   22.861">  1 10  2 -1</clus>
<clus scale="   69.734">  5  6 -1 -1</clus>
<clus scale="   73.686">  2  5  1 -1</clus>
<clus scale="   90.046">  7  8 -1 -1</clus>
<clus scale="   22.861">  1  5  2 -1</clus>
</clustering>
</event>
<event>
10    4  0.3738096E-005  0.1630494E+03  0.7546771E-02  0.1187048E+00
         -1   -1    0    0    0  501 -0.00000000000E+00  0.00000000000E+00  0.14360417540E+04  0.14360417540E+04  0.00000000000E+00 0.  1.
         21   -1    0    0  503  502  0.00000000000E+00 -0.00000000000E+00 -0.73641670190E+02  0.73641670190E+02  0.00000000000E+00 0. -1.
         23    2    1    2    0    0  0.10840616169E+02  0.13796086849E+03  0.47044233683E+03  0.49878799253E+03  0.91229101842E+02 0.  0.
         24    2    1    2    0    0 -0.45318508360E+02 -0.12579693736E+03  0.31677166349E+03  0.35292039928E+03  0.79560573084E+02 0.  0.
        -11    1    4    4    0    0 -0.39946411334E+02 -0.42631148662E+02  0.20706563214E+03  0.21514949832E+03  0.00000000000E+00 0.  1.
         12    1    4    4    0    0 -0.53720970269E+01 -0.83165788702E+02  0.10970603135E+03  0.13777090096E+03  0.00000000000E+00 0. -1.
        -13    1    3    3    0    0  0.43874870563E+02  0.86995494586E+02  0.21219712524E+03  0.23349698136E+03  0.00000000000E+00 0.  1.
         13    1    3    3    0    0 -0.33034254394E+02  0.50965373902E+02  0.25824521159E+03  0.26529101117E+03  0.00000000000E+00 0. -1.
         21    1    1    2  503  501  0.13628575415E+03  0.96791382196E+02  0.35033287136E+03  0.38816942075E+03  0.00000000000E+00 0. -1.
         -2    1    1    2    0  502 -0.10180786196E+03 -0.10895531332E+03  0.22485321212E+03  0.26980561161E+03  0.00000000000E+00 0.  1.
<scales pt_clust_5="13000.00000" pt_clust_6="13000.00000" pt_clust_7="13000.00000" pt_clust_8="13000.00000" pt_clust_9="113.68041" pt_clust_10="149.11774"></scales>
<clustering>
<clus scale="   79.561">  5  6 -1 -1</clus>
<clus scale="   91.229">  7  8 -1 -1</clus>
<clus scale="  149.118">  2 10  1 -1</clus>
<clus scale="  113.680">  2  9  1 -1</clus>
<clus scale="  156.819">  2  5  1 -1</clus>
<clus scale="  149.118">  2  5  1 -1</clus>
</clustering>
</event>
<event>
10    4  0.3738096E-005  0.3193993E+03  0.7546771E-02  0.1076211E+00
          2   -1    0    0  503    0 -0.00000000000E+00  0.00000000000E+00  0.15884577261E+04  0.15884577261E+04  0.00000000000E+00 0. -1.
         21   -1    0    0  501  502  0.00000000000E+00 -0.00000000000E+00 -0.19654892894E+03  0.19654892894E+03  0.00000000000E+00 0. -1.
         23    2    1    2    0    0  0.31167603004E+03  0.12798230148E+03  0.11223547091E+04  0.11753037258E+04  0.90207193872E+02 0.  0.
         24    2    1    2    0    0 -0.20373502121E+03 -0.55812501106E+02 -0.52441530586E+01  0.22632237399E+03  0.81063689037E+02 0.  0.
        -13    1    4    4    0    0 -0.33580938285E+02 -0.24570770609E+02  0.28006611583E+02  0.50157476778E+02  0.00000000000E+00 0.  1.
         14    1    4    4    0    0 -0.17015408292E+03 -0.31241730497E+02 -0.33250764641E+02  0.17616489721E+03  0.00000000000E+00 0. -1.
        -13    1    3    3    0    0  0.55166347291E+02  0.31685032830E+01  0.10424215153E+03  0.11798216578E+03  0.00000000000E+00 0.  1.
         13    1    3    3    0    0  0.25650968275E+03  0.12481379819E+03  0.10181125575E+04  0.10573215601E+04  0.00000000000E+00 0. -1.
         21    1    1    2  503  502 -0.38097474140E+02  0.66475696004E+02  0.19354418718E+03  0.20815808437E+03  0.00000000000E+00 0. -1.
          1    1    1    2  501    0 -0.69843534691E+02 -0.13864549637E+03  0.81254053984E+02  0.17522247085E+03  0.00000000000E+00 0. -1.
<scales pt_clust_5="13000.00000" pt_clust_6="13000.00000" pt_clust_7="13000.00000" pt_clust_8="13000.00000" pt_clust_9="76.61877" pt_clust_10="151.45665"></scales>
<clustering>
<clus scale="   76.619">  1  9  2 -1</clus>
<clus scale="   81.064">  5  6 -1 -1</clus>
<clus scale="   90.207">  7  8 -1 -1</clus>
<clus scale="  151.457">  2 10  1 -1</clus>
<clus scale="  316.938">  2  5  1 -1</clus>
<clus scale="  151.457">  2  5  1 -1</clus>
</clustering>
</event>
<event>
10    4  0.3738096E-005  0.1041543E+03  0.7546771E-02  0.1277750E+00
          4   -1    0    0  503    0 -0.00000000000E+00  0.00000000000E+00  0.63827661006E+03  0.63827661006E+03  0.00000000000E+00 0. -1.
         21   -1    0    0  501  502  0.00000000000E+00 -0.00000000000E+00 -0.37435274783E+02  0.37435274783E+02  0.00000000000E+00 0. -1.
         23    2    1    2    0    0 -0.28114276703E+02  0.44635211207E+02  0.26579124239E+03  0.28648820136E+03  0.92993496293E+02 0.  0.
         24    2    1    2    0    0  0.42709822825E+02 -0.12996938661E+02  0.82415115562E+02  0.12335455621E+03  0.80193802034E+02 0.  0.
        -11    1    4    4    0    0  0.20809760392E+02 -0.10189734639E+02  0.95106030195E+02  0.97887863390E+02  0.00000000000E+00 0.  1.
         12    1    4    4    0    0  0.21900062433E+02 -0.28072040224E+01 -0.12690914633E+02  0.25466692821E+02  0.00000000000E+00 0. -1.
        -13    1    3    3    0    0 -0.23570683301E+01  0.48611168562E+02  0.25266028291E+03  0.25730491647E+03  0.00000000000E+00 0. -1.
         13    1    3    3    0    0 -0.25757208373E+02 -0.39759573544E+01  0.13130959482E+02  0.29183284890E+02  0.00000000000E+00 0.  1.
         21    1    1    2  503  502  0.18908371616E+02  0.14529324962E+02  0.10313918757E+03  0.10585990655E+03  0.00000000000E+00 0. -1.
          3    1    1    2  501    0 -0.33503917738E+02 -0.46167597509E+02  0.14949578975E+03  0.16000922072E+03  0.00000000000E+00 0. -1.
<scales pt_clust_5="13000.00000" pt_clust_6="13000.00000" pt_clust_7="13000.00000" pt_clust_8="13000.00000" pt_clust_9="23.84592" pt_clust_10="50.45274"></scales>
<clustering>
<clus scale="   23.846">  1  9  2 -1</clus>
<clus scale="   50.453">  2 10  1 -1</clus>
<clus scale="   80.194">  5  6 -1 -1</clus>
<clus scale="   92.905">  2  5  1 -1</clus>
<clus scale="   92.993">  7  8 -1 -1</clus>
<clus scale="   50.453">  2  5  1 -1</clus>
</clustering>
</event>
<event>
10    4  0.3738096E-005  0.1512559E+03  0.7546771E-02  0.1205295E+00
         21   -1    0    0  501  502  0.00000000000E+00  0.00000000000E+00  0.50442932374E+03  0.50442932374E+03  0.00000000000E+00 0. -1.
          2   -1    0    0  503    0 -0.00000000000E+00 -0.00000000000E+00 -0.17095075585E+03  0.17095075585E+03  0.00000000000E+00 0. -1.
         23    2    1    2    0    0 -0.69346459190E+02  0.36857663967E+02  0.70988709668E+00  0.11905536345E+03  0.89477689018E+02 0.  0.
         24    2    1    2    0    0  0.83703684715E+02  0.10179784802E+03  0.53514060050E+02  0.16323620328E+03  0.80082424677E+02 0.  0.
        -11    1    4    4    0    0  0.10521147072E+02  0.69153525858E+02  0.63103166981E+01  0.70233359390E+02  0.00000000000E+00 0.  1.
         12    1    4    4    0    0  0.73182537644E+02  0.32644322160E+02  0.47203743352E+02  0.93002843890E+02  0.00000000000E+00 0. -1.
        -11    1    3    3    0    0 -0.89898985021E+01  0.38240833883E+02 -0.31750128141E+02  0.50509902872E+02  0.00000000000E+00 0.  1.
         11    1    3    3    0    0 -0.60356560688E+02 -0.13831699163E+01  0.32460015237E+02  0.68545460581E+02  0.00000000000E+00 0. -1.
         21    1    1    2  503  502 -0.45257783749E+02 -0.33613368213E+01 -0.29809148884E+02  0.54296877740E+02  0.00000000000E+00 0. -1.
          1    1    1    2  501    0  0.30900558224E+02 -0.13529417516E+03  0.30906376963E+03  0.33879163512E+03  0.00000000000E+00 0. -1.
<scales pt_clust_5="13000.00000" pt_clust_6="13000.00000" pt_clust_7="13000.00000" pt_clust_8="13000.00000" pt_clust_9="45.38244" pt_clust_10="128.31663"></scales>
<clustering>
<clus scale="   45.382">  2  9  1 -1</clus>
<clus scale="   80.082">  5  6 -1 -1</clus>
<clus scale="   89.478">  7  8 -1 -1</clus>
<clus scale="  131.816">  2  7  1 -1</clus>
<clus scale="  128.317">  1 10  2 -1</clus>
<clus scale="  128.317">  1  5  2 -1</clus>
</clustering>
</event>
<event>
10    4  0.3738096E-005  0.1097883E+03  0.7546771E-02  0.1265369E+00
         -3   -1    0    0    0  501 -0.00000000000E+00  0.00000000000E+00  0.14103085321E+03  0.14103085321E+03  0.00000000000E+00 0.  1.
         21   -1    0    0  503  502  0.00000000000E+00 -0.00000000000E+00 -0.19309319278E+03  0.19309319278E+03  0.00000000000E+00 0. -1.
         23    2    1    2    0    0 -0.41647385099E+02 -0.61591682485E+02  0.59743665541E+02  0.13225633511E+03  0.91620917735E+02 0.  0.
         24    2    1    2    0    0  0.17121548555E+02  0.42990698159E+02 -0.11886715426E+03  0.15085412914E+03  0.80537074476E+02 0.  0.
        -13    1    4    4    0    0 -0.19816993082E+02  0.73322280367E+01  0.26284282239E+00  0.21131584634E+02  0.00000000000E+00 0.  1.
         14    1    4    4    0    0  0.36938541637E+02  0.35658470123E+02 -0.11912999708E+03  0.12972254451E+03  0.00000000000E+00 0. -1.
        -13    1    3    3    0    0  0.98299165724E+01 -0.38637536009E+02  0.64356224233E+02  0.75704755770E+02  0.00000000000E+00 0.  1.
         13    1    3    3    0    0 -0.51477301671E+02 -0.22954146476E+02 -0.46125586918E+01  0.56551579337E+02  0.00000000000E+00 0. -1.
         21    1    1    2  503  501 -0.43279115798E+01  0.19580116074E+02  0.92033691295E+01  0.22063856586E+02  0.00000000000E+00 0.  1.
         -4    1    1    2    0  502  0.28853748123E+02 -0.97913174849E+00 -0.21422199802E+01  0.28949725149E+02  0.00000000000E+00 0.  1.
<scales pt_clust_5="13000.00000" pt_clust_6="13000.00000" pt_clust_7="13000.00000" pt_clust_8="13000.00000" pt_clust_9="20.05272" pt_clust_10="28.41299"></scales>
<clustering>
<clus scale="   20.053">  1  9  2 -1</clus>
<clus scale="   28.413">  2 10  1 -1</clus>
<clus scale="   80.537">  5  6 -1 -1</clus>
<clus scale="   91.621">  7  8 -1 -1</clus>
<clus scale="  100.724">  2  5  1 -1</clus>
<clus scale="   28.413">  2  5  1 -1</clus>
</clustering>
</event>
<event>
10    4  0.3738096E-005  0.1470384E+03  0.7546771E-02  0.1206545E+00
          2   -1    0    0  503    0 -0.00000000000E+00  0.00000000000E+00  0.55019186416E+03  0.55019186416E+03  0.00000000000E+00 0. -1.
         21   -1    0    0  501  502  0.00000000000E+00 -0.00000000000E+00 -0.13772687120E+03  0.13772687120E+03  0.00000000000E+00 0.  1.
         24    2    1    2    0    0  0.84924020751E+02 -0.84038461484E+02  0.27349344753E+03  0.30889017189E+03  0.79623615449E+02 0.  0.
         23    2    1    2    0    0 -0.10740839221E+03  0.13164379366E+03 -0.12465508978E+02  0.19357470796E+03  0.91919135771E+02 0.  0.
        -13    1    3    3    0    0 -0.23998346523E+01 -0.43276409559E+02  0.12068239326E+03  0.12822966456E+03  0.00000000000E+00 0.  1.
         14    1    3    3    0    0  0.87323855404E+02 -0.40762051925E+02  0.15281105427E+03  0.18066050732E+03  0.00000000000E+00 0. -1.
        -13    1    4    4    0    0 -0.53748329988E+02  0.11349493282E+03 -0.38337148522E+02  0.13130011314E+03  0.00000000000E+00 0.  1.
         13    1    4    4    0    0 -0.53660062222E+02  0.18148860834E+02  0.25871639544E+02  0.62274594820E+02  0.00000000000E+00 0. -1.
         21    1    1    2  503  502 -0.96780788568E+01  0.23195212018E+02  0.62213936779E+02  0.67098859905E+02  0.00000000000E+00 0. -1.
          1    1    1    2  501    0  0.32162450316E+02 -0.70800544194E+02  0.89223117619E+02  0.11835499561E+03  0.00000000000E+00 0. -1.
<scales pt_clust_5="13000.00000" pt_clust_6="13000.00000" pt_clust_7="13000.00000" pt_clust_8="13000.00000" pt_clust_9="25.13331" pt_clust_10="72.39364"></scales>
<clustering>
<clus scale="   25.133">  1  9  2 -1</clus>
<clus scale="   72.394">  2 10  1 -1</clus>
<clus scale="   79.624">  5  6 -1 -1</clus>
<clus scale="   91.919">  7  8 -1 -1</clus>
<clus scale="  139.682">  1  5  2 -1</clus>
<clus scale="   72.394">  2  5  1 -1</clus>
</clustering>
</event>
<event>
10    4  0.3738096E-005  0.2950659E+03  0.7546771E-02  0.1125236E+00
         -3   -1    0    0    0  501 -0.00000000000E+00  0.00000000000E+00  0.66953751585E+03  0.66953751585E+03  0.00000000000E+00 0.  1.
         21   -1    0    0  503  502  0.00000000000E+00 -0.00000000000E+00 -0.22537120989E+03  0.22537120989E+03  0.00000000000E+00 0.  1.
         23    2    1    2    0    0  0.11776961160E+01  0.68324792898E+02  0.40367510901E+02  0.12043032091E+03  0.90577381089E+02 0.  0.
         24    2    1    2    0    0 -0.16863430858E+03 -0.22476165634E+03  0.20319429958E+03  0.35595881683E+03  0.80395420935E+02 0.  0.
        -13    1    4    4    0    0 -0.11545925059E+03 -0.97121625787E+02  0.80036343225E+02  0.17079011968E+03  0.00000000000E+00 0.  1.
         14    1    4    4    0    0 -0.53175057985E+02 -0.12764003055E+03  0.12315795636E+03  0.18516869715E+03  0.00000000000E+00 0. -1.
        -13    1    3    3    0    0 -0.32998076200E+02  0.54828869934E+02  0.51385007213E+02  0.82070073580E+02  0.00000000000E+00 0. -1.
         13    1    3    3    0    0  0.34175772316E+02  0.13495922964E+02 -0.11017496312E+02  0.38360247328E+02  0.00000000000E+00 0.  1.
         21    1    1    2  503  501 -0.71682333674E+02 -0.12352954384E+02  0.57400675013E+02  0.92659537744E+02  0.00000000000E+00 0.  1.
         -4    1    1    2    0  502  0.23913894613E+03  0.16878981783E+03  0.14320382047E+03  0.32586005026E+03  0.00000000000E+00 0.  1.
<scales pt_clust_5="13000.00000" pt_clust_6="13000.00000" pt_clust_7="13000.00000" pt_clust_8="13000.00000" pt_clust_9="72.73893" pt_clust_10="283.90225"></scales>
<clustering>
<clus scale="   72.739">  1  9  2 -1</clus>
<clus scale="   80.395">  5  6 -1 -1</clus>
<clus scale="   90.577">  7  8 -1 -1</clus>
<clus scale="  112.781">  1  7  2 -1</clus>
<clus scale="  283.902">  2 10  1 -1</clus>
<clus scale="  283.902">  2  5  1 -1</clus>
</clustering>
</event>
<event>
10    4  0.3738096E-005  0.1888207E+03  0.7546771E-02  0.1160846E+00
          2   -1    0    0  503    0 -0.00000000000E+00  0.00000000000E+00  0.22768458178E+04  0.22768458178E+04  0.00000000000E+00 0. -1.
         21   -1    0    0  501  502  0.00000000000E+00 -0.00000000000E+00 -0.59639135649E+02  0.59639135649E+02  0.00000000000E+00 0.  1.
         24    2    1    2    0    0  0.15049242401E+03  0.16025289937E+02  0.69196559989E+03  0.71238515258E+03  0.75969958369E+02 0.  0.
         23    2    1    2    0    0 -0.21666697274E+03 -0.17091565566E+03  0.51758553656E+03  0.59324657550E+03  0.88825521458E+02 0.  0.
        -13    1    3    3    0    0  0.14944433863E+03  0.20323907139E+02  0.54867611320E+03  0.56902737082E+03  0.00000000000E+00 0.  1.
         14    1    3    3    0    0  0.10480853855E+01 -0.42986172017E+01  0.14328948670E+03  0.14335778176E+03  0.00000000000E+00 0. -1.
        -11    1    4    4    0    0 -0.10256935211E+03 -0.95602470102E+02  0.17402202092E+03  0.22348147138E+03  0.00000000000E+00 0. -1.
         11    1    4    4    0    0 -0.11409762062E+03 -0.75313185557E+02  0.34356351564E+03  0.36976510412E+03  0.00000000000E+00 0.  1.
         21    1    1    2  503  502 -0.40515665932E+02  0.48634702480E+02  0.39031070151E+03  0.39541028968E+03  0.00000000000E+00 0. -1.
          1    1    1    2  501    0  0.10669021466E+03  0.10625566324E+03  0.61734484417E+03  0.63544293567E+03  0.00000000000E+00 0. -1.
<scales pt_clust_5="13000.00000" pt_clust_6="13000.00000" pt_clust_7="13000.00000" pt_clust_8="13000.00000" pt_clust_9="63.29971" pt_clust_10="153.87653"></scales>
<clustering>
<clus scale="   63.300">  1  9  2 -1</clus>
<clus scale="   75.970">  5  6 -1 -1</clus>
<clus scale="   88.826">  7  8 -1 -1</clus>
<clus scale="  153.877">  2 10  1 -1</clus>
<clus scale="  183.125">  1  5  2 -1</clus>
<clus scale="  153.877">  2  5  1 -1</clus>
</clustering>
</event>
<event>
10    4  0.3738096E-005  0.1896086E+03  0.7546771E-02  0.1182801E+00
         21   -1    0    0  501  502  0.00000000000E+00  0.00000000000E+00  0.19361722466E+03  0.19361722466E+03  0.00000000000E+00 0.  1.
          2   -1    0    0  503    0 -0.00000000000E+00 -0.00000000000E+00 -0.12108811443E+04  0.12108811443E+04  0.00000000000E+00 0. -1.
         23    2    1    2    0    0  0.16257226800E+03  0.20732950520E+02  0.74379922573E+02  0.20185651572E+03  0.91400670098E+02 0.  0.
         24    2    1    2    0    0 -0.22804888099E+02 -0.65907599280E+02 -0.49253155930E+02  0.11773132295E+03  0.81061189666E+02 0.  0.
        -11    1    4    4    0    0 -0.41538554030E+02 -0.70508723779E+02 -0.53770092688E+02  0.97919122073E+02  0.00000000000E+00 0.  1.
         12    1    4    4    0    0  0.18733665931E+02  0.46011244987E+01  0.45169367584E+01  0.19812200876E+02  0.00000000000E+00 0. -1.
        -11    1    3    3    0    0  0.39341237569E+01 -0.22671137013E+02  0.12039233629E+02  0.25969230439E+02  0.00000000000E+00 0. -1.
         11    1    3    3    0    0  0.15863814424E+03  0.43404087533E+02  0.62340688944E+02  0.17588728528E+03  0.00000000000E+00 0.  1.
         21    1    1    2  503  502 -0.15154446269E+03  0.71148283849E+02 -0.10430340734E+04  0.10563843433E+04  0.00000000000E+00 0. -1.
          1    1    1    2  501    0  0.11777082792E+02 -0.25973635089E+02  0.64338711318E+00  0.28526187018E+02  0.00000000000E+00 0. -1.
<scales pt_clust_5="13000.00000" pt_clust_6="13000.00000" pt_clust_7="13000.00000" pt_clust_8="13000.00000" pt_clust_9="166.12450" pt_clust_10="28.51893"></scales>
<clustering>
<clus scale="   28.519">  1 10  2 -1</clus>
<clus scale="   81.061">  5  6 -1 -1</clus>
<clus scale="   91.401">  7  8 -1 -1</clus>
<clus scale="  109.620">  1  5  2 -1</clus>
<clus scale="  166.124">  2  9  1 -1</clus>
<clus scale="   28.519">  1  5  2 -1</clus>
</clustering>
</event>
<event>
10    4  0.3738096E-005  0.1221212E+03  0.7546771E-02  0.1243034E+00
          2   -1    0    0  503    0 -0.00000000000E+00  0.00000000000E+00  0.70128179369E+03  0.70128179369E+03  0.00000000000E+00 0. -1.
         21   -1    0    0  501  502  0.00000000000E+00 -0.00000000000E+00 -0.95983717369E+02  0.95983717369E+02  0.00000000000E+00 0. -1.
         24    2    1    2    0    0  0.79959005592E+02  0.36290578037E+02  0.47557662706E+03  0.49028287443E+03  0.80583621941E+02 0.  0.
         23    2    1    2    0    0 -0.12447823733E+02 -0.49379136277E+02  0.24369196406E+02  0.10769617584E+03  0.91713473061E+02 0.  0.
        -13    1    3    3    0    0  0.24103025506E+02 -0.65235734511E+01  0.29324932772E+02  0.38515769903E+02  0.00000000000E+00 0.  1.
         14    1    3    3    0    0  0.55855980086E+02  0.42814151488E+02  0.44625169429E+03  0.45176710453E+03  0.00000000000E+00 0. -1.
        -11    1    4    4    0    0  0.16071226176E+02 -0.65057365125E+02  0.32011719459E+02  0.74266380351E+02  0.00000000000E+00 0. -1.
         11    1    4    4    0    0 -0.28519049909E+02  0.15678228848E+02 -0.76425230528E+01  0.33429795484E+02  0.00000000000E+00 0.  1.
         21    1    1    2  503  502  0.11391020634E+02 -0.18073711459E+02  0.11216392797E+03  0.11418038857E+03  0.00000000000E+00 0.  1.
          1    1    1    2  501    0 -0.78902202493E+02  0.31162269699E+02 -0.68116751135E+01  0.85106072221E+02  0.00000000000E+00 0. -1.
<scales pt_clust_5="13000.00000" pt_clust_6="13000.00000" pt_clust_7="13000.00000" pt_clust_8="13000.00000" pt_clust_9="21.36386" pt_clust_10="83.69010"></scales>
<clustering>
<clus scale="   21.364">  1  9  2 -1</clus>
<clus scale="   80.584">  5  6 -1 -1</clus>
<clus scale="   83.690">  2 10  1 -1</clus>
<clus scale="   91.713">  7  8 -1 -1</clus>
<clus scale="  114.000">  1  5  2 -1</clus>
<clus scale="   83.690">  2  5  1 -1</clus>
</clustering>
</event>
<event>
10    4  0.3738096E-005  0.1658870E+03  0.7546771E-02  0.1184558E+00
          2   -1    0    0  503    0 -0.00000000000E+00  0.00000000000E+00  0.18190194830E+03  0.18190194830E+03  0.00000000000E+00 0. -1.
         21   -1    0    0  501  502  0.00000000000E+00 -0.00000000000E+00 -0.35421670759E+03  0.35421670759E+03  0.00000000000E+00 0. -1.
         24    2    1    2    0    0 -0.27863983621E+02  0.12818045265E+03  0.19771144807E+02  0.15478954266E+03  0.79763866024E+02 0.  0.
         23    2    1    2    0    0  0.93913978997E+02 -0.11796566358E+03 -0.12480261650E+02  0.17888406679E+03  0.95435942839E+02 0.  0.
        -11    1    3    3    0    0  0.19189008845E+02  0.75173356047E+02  0.29989857335E+02  0.83178380982E+02  0.00000000000E+00 0.  1.
         12    1    3    3    0    0 -0.47052992466E+02  0.53007096605E+02 -0.10218712528E+02  0.71611161674E+02  0.00000000000E+00 0. -1.
        -13    1    4    4    0    0  0.38958195964E+02 -0.50571190443E+02 -0.52976981282E+02  0.82956295008E+02  0.00000000000E+00 0.  1.
         13    1    4    4    0    0  0.54955783032E+02 -0.67394473136E+02  0.40496719632E+02  0.95927771782E+02  0.00000000000E+00 0. -1.
         21    1    1    2  503  502 -0.10468840170E+02 -0.18374251945E+02 -0.92791444241E+01  0.23093554735E+02  0.00000000000E+00 0.  1.
          1    1    1    2  501    0 -0.55581155205E+02  0.81594628724E+01 -0.17032649803E+03  0.17935149171E+03  0.00000000000E+00 0. -1.
<scales pt_clust_5="13000.00000" pt_clust_6="13000.00000" pt_clust_7="13000.00000" pt_clust_8="13000.00000" pt_clust_9="21.14733" pt_clust_10="61.01075"></scales>
<clustering>
<clus scale="   21.147">  2  9  1 -1</clus>
<clus scale="   61.011">  2 10  1 -1</clus>
<clus scale="   79.764">  5  6 -1 -1</clus>
<clus scale="   95.436">  7  8 -1 -1</clus>
<clus scale="  157.394">  1  5  2 -1</clus>
<clus scale="   21.147">  2  5  1 -1</clus>
</clustering>
</event>
<event>
10    4  0.3738096E-005  0.3683833E+03  0.7546771E-02  0.1055313E+00
         21   -1    0    0  501  502  0.00000000000E+00  0.00000000000E+00  0.73202966065E+03  0.73202966065E+03  0.00000000000E+00 0. -1.
          4   -1    0    0  503    0 -0.00000000000E+00 -0.00000000000E+00 -0.19094207998E+03  0.19094207998E+03  0.00000000000E+00 0. -1.
         24    2    1    2    0    0 -0.12725042098E+03  0.49450178023E+00  0.12873774733E+03  0.19907331041E+03  0.82848422805E+02 0.  0.
         23    2    1    2    0    0 -0.20378049641E+03 -0.38547359324E+01  0.81945735393E+02  0.23742112464E+03  0.90068513749E+02 0.  0.
        -13    1    3    3    0    0 -0.70794226470E+02  0.34795642018E+02  0.39995948798E+02  0.88443400687E+02  0.00000000000E+00 0.  1.
         14    1    3    3    0    0 -0.56456194506E+02 -0.34301140237E+02  0.88741798528E+02  0.11062990972E+03  0.00000000000E+00 0. -1.
        -11    1    4    4    0    0 -0.63302281956E+02  0.12815451904E+02  0.70321451134E+02  0.95480475481E+02  0.00000000000E+00 0.  1.
         11    1    4    4    0    0 -0.14047821445E+03 -0.16670187837E+02  0.11624284258E+02  0.14194064916E+03  0.00000000000E+00 0. -1.
         21    1    1    2  503  502  0.29881163057E+03 -0.30008416483E+02  0.23837979144E+03  0.38342381328E+03  0.00000000000E+00 0. -1.
          3    1    1    2  501    0  0.32219286814E+02  0.33368650635E+02  0.92024306506E+02  0.10305349230E+03  0.00000000000E+00 0. -1.
<scales pt_clust_5="13000.00000" pt_clust_6="13000.00000" pt_clust_7="13000.00000" pt_clust_8="13000.00000" pt_clust_9="314.89547" pt_clust_10="46.38480"></scales>
<clustering>
<clus scale="   46.385">  1 10  2 -1</clus>
<clus scale="   82.848">  5  6 -1 -1</clus>
<clus scale="   90.069">  7  8 -1 -1</clus>
<clus scale="  107.527">  5  7 -1 -1</clus>
<clus scale="  314.895">  1  9  2 -1</clus>
<clus scale="   46.385">  1  5  2 -1</clus>
</clustering>
</event>
<event>
10    4  0.3738096E-005  0.2284156E+03  0.7546771E-02  0.1160012E+00
         21   -1    0    0  501  502  0.00000000000E+00  0.00000000000E+00  0.16126160185E+03  0.16126160185E+03  0.00000000000E+00 0. -1.
          2   -1    0    0  503    0 -0.00000000000E+00 -0.00000000000E+00 -0.10870609558E+04  0.10870609558E+04  0.00000000000E+00 0. -1.
         24    2    1    2    0    0  0.49408017252E+02 -0.58438855930E+02 -0.49445574143E+03  0.50648672647E+03  0.78651584936E+02 0.  0.
         23    2    1    2    0    0  0.16856683532E+03  0.11383869185E+03  0.98763941325E+01  0.22342804114E+03  0.91915834720E+02 0.  0.
        -13    1    3    3    0    0 -0.17309375308E+02 -0.30721472169E+02 -0.11778365405E+03  0.12294882060E+03  0.00000000000E+00 0.  1.
         14    1    3    3    0    0  0.66717392560E+02 -0.27717383761E+02 -0.37667208738E+03  0.38353790587E+03  0.00000000000E+00 0. -1.
        -13    1    4    4    0    0  0.84309037998E+02  0.36907896945E+02 -0.38162193758E+02  0.99632122217E+02  0.00000000000E+00 0.  1.
         13    1    4    4    0    0  0.84257797326E+02  0.76930794903E+02  0.48038587890E+02  0.12379591892E+03  0.00000000000E+00 0. -1.
         21    1    1    2  503  502  0.41034111153E+01  0.20704567339E+02 -0.11252895344E+03  0.11449140778E+03  0.00000000000E+00 0. -1.
          1    1    1    2  501    0 -0.22207826369E+03 -0.76104403257E+02 -0.32869105323E+03  0.40391638228E+03  0.00000000000E+00 0. -1.
<scales pt_clust_5="13000.00000" pt_clust_6="13000.00000" pt_clust_7="13000.00000" pt_clust_8="13000.00000" pt_clust_9="21.10728" pt_clust_10="209.10574"></scales>
<clustering>
<clus scale="   21.107">  2  9  1 -1</clus>
<clus scale="   78.652">  5  6 -1 -1</clus>
<clus scale="   91.916">  7  8 -1 -1</clus>
<clus scale="  105.473">  2  5  1 -1</clus>
<clus scale="  209.106">  1 10  2 -1</clus>
<clus scale="  209.106">  1  5  2 -1</clus>
</clustering>
</event>
<event>
10    4  0.3738096E-005  0.1013640E+03  0.7546771E-02  0.1281262E+00
         -1   -1    0    0    0  501 -0.00000000000E+00  0.00000000000E+00  0.29652186963E+03  0.29652186963E+03  0.00000000000E+00 0.  1.
         21   -1    0    0  503  502  0.00000000000E+00 -0.00000000000E+00 -0.55837352895E+02  0.55837352895E+02  0.00000000000E+00 0. -1.
         23    2    1    2    0    0  0.40445286961E+02  0.33787704758E+02  0.10478004567E+03  0.14858381114E+03  0.91218752082E+02 0.  0.
         24    2    1    2    0    0 -0.25684652166E+02 -0.23113937524E+02  0.56694722307E+02  0.10649516161E+03  0.83264472882E+02 0.  0.
        -11    1    4    4    0    0  0.24541693413E+02  0.12278380574E+01  0.42194951158E+02  0.48828436439E+02  0.00000000000E+00 0.  1.
         12    1    4    4    0    0 -0.50226345579E+02 -0.24341775581E+02  0.14499771149E+02  0.57666725172E+02  0.00000000000E+00 0. -1.
        -11    1    3    3    0    0 -0.42629850777E+01  0.55309440215E+02  0.50123956553E+02  0.74764418270E+02  0.00000000000E+00 0.  1.
         11    1    3    3    0    0  0.44708272039E+02 -0.21521735457E+02  0.54656089119E+02  0.73819392869E+02  0.00000000000E+00 0. -1.
         21    1    1    2  503  501 -0.31885921306E+01 -0.28208898625E+02  0.20760193881E+02  0.35169514233E+02  0.00000000000E+00 0. -1.
         -2    1    1    2    0  502 -0.11572042664E+02  0.17535131391E+02  0.58449554875E+02  0.62110735541E+02  0.00000000000E+00 0.  1.
<scales pt_clust_5="13000.00000" pt_clust_6="13000.00000" pt_clust_7="13000.00000" pt_clust_8="13000.00000" pt_clust_9="26.29894" pt_clust_10="21.00937"></scales>
<clustering>
<clus scale="   21.009">  2 10  1 -1</clus>
<clus scale="   26.299">  2  9  1 -1</clus>
<clus scale="   83.264">  5  6 -1 -1</clus>
<clus scale="   91.219">  7  8 -1 -1</clus>
<clus scale="   94.270">  2  5  1 -1</clus>
<clus scale="   21.009">  2  5  1 -1</clus>
</clustering>
</event>
<event>
10    4  0.3738096E-005  0.2390157E+03  0.7546771E-02  0.1121003E+00
          2   -1    0    0  503    0 -0.00000000000E+00  0.00000000000E+00  0.16125278612E+04  0.16125278612E+04  0.00000000000E+00 0. -1.
         21   -1    0    0  501  502  0.00000000000E+00 -0.00000000000E+00 -0.94962465683E+02  0.94962465683E+02  0.00000000000E+00 0. -1.
         23    2    1    2    0    0 -0.17616423524E+03  0.15347118092E+03  0.11731906522E+04  0.11996534006E+04  0.90579986203E+02 0.  0.
         24    2    1    2    0    0  0.11052237127E+03 -0.18593943326E+03  0.23180348822E+03  0.32736893914E+03  0.81540773692E+02 0.  0.
        -11    1    4    4    0    0  0.23154815402E+02  0.25667062241E+01  0.20539619857E+02  0.31058162229E+02  0.00000000000E+00 0.  1.
         12    1    4    4    0    0  0.87367555867E+02 -0.18850613948E+03  0.21126386836E+03  0.29631077691E+03  0.00000000000E+00 0. -1.
        -11    1    3    3    0    0 -0.11914408624E+03  0.13257670307E+03  0.10083314670E+04  0.10239649617E+04  0.00000000000E+00 0. -1.
         11    1    3    3    0    0 -0.57020149003E+02  0.20894477857E+02  0.16485918526E+03  0.17568843890E+03  0.00000000000E+00 0.  1.
         21    1    1    2  503  502  0.37347903282E+02  0.18594288223E+02  0.13531793704E+03  0.14160352227E+03  0.00000000000E+00 0. -1.
          1    1    1    2  501    0  0.28293960686E+02  0.13873964110E+02 -0.22746681961E+02  0.38864464897E+02  0.00000000000E+00 0. -1.
<scales pt_clust_5="13000.00000" pt_clust_6="13000.00000" pt_clust_7="13000.00000" pt_clust_8="13000.00000" pt_clust_9="43.26430" pt_clust_10="31.51246"></scales>
<clustering>
<clus scale="   31.512">  2 10  1 -1</clus>
<clus scale="   43.264">  1  9  2 -1</clus>
<clus scale="   81.541">  5  6 -1 -1</clus>
<clus scale="   90.580">  7  8 -1 -1</clus>
<clus scale="  235.739">  2  5  1 -1</clus>
<clus scale="   31.512">  2  5  1 -1</clus>
</clustering>
</event>
<event>
10    4  0.3738096E-005  0.1041367E+03  0.7546771E-02  0.1276630E+00
         21   -1    0    0  503  502  0.00000000000E+00  0.00000000000E+00  0.50663520344E+02  0.50663520344E+02  0.00000000000E+00 0.  1.
         -1   -1    0    0    0  501 -0.00000000000E+00 -0.00000000000E+00 -0.73639495465E+03  0.73639495465E+03  0.00000000000E+00 0.  1.
         23    2    1    2    0    0 -0.24492386665E+01  0.14709126362E+01 -0.16627314647E+03  0.18966761982E+03  0.91207918602E+02 0.  0.
         24    2    1    2    0    0  0.82687675720E+02  0.55150755172E+02 -0.14638397783E+03  0.19442158167E+03  0.80576826340E+02 0.  0.
        -11    1    4    4    0    0  0.74888195239E+02  0.75701282198E+01 -0.11301017762E+03  0.13578235847E+03  0.00000000000E+00 0.  1.
         12    1    4    4    0    0  0.77994804815E+01  0.47580626952E+02 -0.33373800212E+02  0.58639223200E+02  0.00000000000E+00 0. -1.
        -11    1    3    3    0    0 -0.41860088472E+02  0.14397121091E+02 -0.53087596688E+02  0.69121899748E+02  0.00000000000E+00 0. -1.
         11    1    3    3    0    0  0.39410849805E+02 -0.12926208455E+02 -0.11318554979E+03  0.12054572007E+03  0.00000000000E+00 0.  1.
         21    1    1    2  503  501 -0.41527830760E+02 -0.68845150639E+02 -0.34339654885E+03  0.35268315137E+03  0.00000000000E+00 0. -1.
         -2    1    1    2    0  502 -0.38710606294E+02  0.12223482832E+02 -0.29677761143E+02  0.50286122128E+02  0.00000000000E+00 0.  1.
<scales pt_clust_5="13000.00000" pt_clust_6="13000.00000" pt_clust_7="13000.00000" pt_clust_8="13000.00000" pt_clust_9="81.62287" pt_clust_10="40.59464"></scales>
<clustering>
<clus scale="   40.595">  1 10  2 -1</clus>
<clus scale="   80.577">  5  6 -1 -1</clus>
<clus scale="   81.623">  2  9  1 -1</clus>
<clus scale="   91.208">  7  8 -1 -1</clus>
<clus scale="   94.964">  1  5  2 -1</clus>
<clus scale="   40.595">  1  5  2 -1</clus>
</clustering>
</event>
<event>
10    4  0.3738096E-005  0.1724751E+03  0.7546771E-02  0.1202595E+00
         21   -1    0    0  501  502  0.00000000000E+00  0.00000000000E+00  0.78422136192E+02  0.78422136192E+02  0.00000000000E+00 0. -1.
          2   -1    0    0  503    0 -0.00000000000E+00 -0.00000000000E+00 -0.10218211348E+04  0.10218211348E+04  0.00000000000E+00 0. -1.
         23    2    1    2    0    0  0.49106824857E+02 -0.87962194406E+01 -0.68430194612E+02  0.11967894031E+03  0.84566562506E+02 0.  0.
         24    2    1    2    0    0 -0.15460584605E+01  0.15255475274E+03 -0.20532917099E+03  0.26753970272E+03  0.78371430959E+02 0.  0.
        -11    1    4    4    0    0  0.27015880199E+02  0.14747377849E+02 -0.36899475483E+02  0.48051162601E+02  0.00000000000E+00 0.  1.
         12    1    4    4    0    0 -0.28561938659E+02  0.13780737489E+03 -0.16842969551E+03  0.21948854012E+03  0.00000000000E+00 0. -1.
        -13    1    3    3    0    0 -0.22514164936E+02 -0.36692549547E+01 -0.39067800958E+01  0.23143335659E+02  0.00000000000E+00 0.  1.
         13    1    3    3    0    0  0.71620989793E+02 -0.51269644859E+01 -0.64523414516E+02  0.96535604647E+02  0.00000000000E+00 0. -1.
         21    1    1    2  503  502 -0.55130591871E+02  0.11159559303E+02 -0.38303052809E+03  0.38713861002E+03  0.00000000000E+00 0.  1.
          1    1    1    2  501    0  0.75698254744E+01 -0.15491809260E+03 -0.28660910494E+03  0.32588601796E+03  0.00000000000E+00 0. -1.
<scales pt_clust_5="13000.00000" pt_clust_6="13000.00000" pt_clust_7="13000.00000" pt_clust_8="13000.00000" pt_clust_9="56.24871" pt_clust_10="153.64110"></scales>
<clustering>
<clus scale="   56.249">  2  9  1 -1</clus>
<clus scale="   78.371">  5  6 -1 -1</clus>
<clus scale="   84.567">  7  8 -1 -1</clus>
<clus scale="   94.237">  2  7  1 -1</clus>
<clus scale="  153.641">  1 10  2 -1</clus>
<clus scale="  153.641">  1  5  2 -1</clus>
</clustering>
</event>
<event>
10    4  0.3738096E-005  0.9562976E+02  0.7546771E-02  0.1296807E+00
         21   -1    0    0  501  502  0.00000000000E+00  0.00000000000E+00  0.14598600628E+03  0.14598600628E+03  0.00000000000E+00 0.  1.
          2   -1    0    0  503    0 -0.00000000000E+00 -0.00000000000E+00 -0.37347319979E+03  0.37347319979E+03  0.00000000000E+00 0. -1.
         23    2    1    2    0    0  0.27336629984E+02  0.45640524583E+01 -0.66092917865E+02  0.11572032221E+03  0.90855914869E+02 0.  0.
         24    2    1    2    0    0  0.16868376315E+02 -0.67942398157E+02  0.83363785517E+02  0.13414143137E+03  0.78381702511E+02 0.  0.
        -13    1    4    4    0    0  0.11263881895E+02 -0.84525844780E+02  0.57269092596E+02  0.10271924084E+03  0.00000000000E+00 0.  1.
         14    1    4    4    0    0  0.56044944205E+01  0.16583446623E+02  0.26094692921E+02  0.31422190538E+02  0.00000000000E+00 0. -1.
        -11    1    3    3    0    0 -0.23252233516E+02 -0.38149644183E+01  0.86310234489E+01  0.25094120482E+02  0.00000000000E+00 0.  1.
         11    1    3    3    0    0  0.50588863500E+02  0.83790168766E+01 -0.74723941313E+02  0.90626201727E+02  0.00000000000E+00 0. -1.
         21    1    1    2  503  502 -0.33709850392E+02  0.26767162605E+02 -0.22000085489E+03  0.22417228009E+03  0.00000000000E+00 0. -1.
          1    1    1    2  501    0 -0.10495155907E+02  0.36611183094E+02 -0.24757206277E+02  0.45425172401E+02  0.00000000000E+00 0. -1.
<scales pt_clust_5="13000.00000" pt_clust_6="13000.00000" pt_clust_7="13000.00000" pt_clust_8="13000.00000" pt_clust_9="43.52232" pt_clust_10="38.08580"></scales>
<clustering>
<clus scale="   38.086">  1 10  2 -1</clus>
<clus scale="   43.522">  2  9  1 -1</clus>
<clus scale="   78.382">  5  6 -1 -1</clus>
<clus scale="   83.869">  1  5  2 -1</clus>
<clus scale="   90.856">  7  8 -1 -1</clus>
<clus scale="   38.086">  1  5  2 -1</clus>
</clustering>
</event>
<event>
10    4  0.3738096E-005  0.1209012E+03  0.7546771E-02  0.1245165E+00
         21   -1    0    0  503  502  0.00000000000E+00  0.00000000000E+00  0.22513987036E+03  0.22513987036E+03  0.00000000000E+00 0. -1.
         -1   -1    0    0    0  501 -0.00000000000E+00 -0.00000000000E+00 -0.15581303005E+03  0.15581303005E+03  0.00000000000E+00 0.  1.
         23    2    1    2    0    0 -0.37979028137E+02 -0.39576923030E+02  0.29768855025E+02  0.11054226904E+03  0.91239624615E+02 0.  0.
         24    2    1    2    0    0  0.57653604733E+02  0.94055429170E+02  0.10770322963E+03  0.17362033485E+03  0.79835287335E+02 0.  0.
        -13    1    4    4    0    0  0.63852879258E+02  0.91603862192E+02  0.62570944589E+02  0.12799836274E+03  0.00000000000E+00 0.  1.
         14    1    4    4    0    0 -0.61992745251E+01  0.24515669775E+01  0.45132285045E+02  0.45621972104E+02  0.00000000000E+00 0. -1.
        -11    1    3    3    0    0 -0.55715339158E+02  0.67933108430E+01  0.22028644428E+02  0.60296013674E+02  0.00000000000E+00 0.  1.
         11    1    3    3    0    0  0.17736311021E+02 -0.46370233873E+02  0.77402105975E+01  0.50246255365E+02  0.00000000000E+00 0. -1.
         21    1    1    2  503  501  0.12592626543E+01 -0.33671447641E+02 -0.54953241534E+02  0.64460925248E+02  0.00000000000E+00 0.  1.
         -2    1    1    2    0  502 -0.20933839250E+02 -0.20807058499E+02 -0.13192002805E+02  0.32329371276E+02  0.00000000000E+00 0.  1.
<scales pt_clust_5="13000.00000" pt_clust_6="13000.00000" pt_clust_7="13000.00000" pt_clust_8="13000.00000" pt_clust_9="34.13961" pt_clust_10="29.51542"></scales>
<clustering>
<clus scale="   29.515">  1 10  2 -1</clus>
<clus scale="   34.140">  2  9  1 -1</clus>
<clus scale="   79.835">  5  6 -1 -1</clus>
<clus scale="   91.240">  7  8 -1 -1</clus>
<clus scale="  112.544">  1  5  2 -1</clus>
<clus scale="   29.515">  1  5  2 -1</clus>
</clustering>
</event>
<event>
10    4  0.3738096E-005  0.2716567E+03  0.7546771E-02  0.1133055E+00
          2   -1    0    0  503    0 -0.00000000000E+00  0.00000000000E+00  0.35749566876E+03  0.35749566876E+03  0.00000000000E+00 0. -1.
         21   -1    0    0  501  502  0.00000000000E+00 -0.00000000000E+00 -0.51337186198E+03  0.51337186198E+03  0.00000000000E+00 0. -1.
         24    2    1    2    0    0 -0.36390788521E+02  0.72660755687E+02  0.10407929410E+03  0.15472848891E+03  0.80650672113E+02 0.  0.
         23    2    1    2    0    0 -0.23013139812E+03 -0.18923511561E+03 -0.63624900919E+01  0.31150822682E+03  0.90700081128E+02 0.  0.
        -13    1    3    3    0    0  0.76484675648E+01  0.23589032496E+02  0.81254207566E+02  0.84954033203E+02  0.00000000000E+00 0.  1.
         14    1    3    3    0    0 -0.44039256085E+02  0.49071723191E+02  0.22825086538E+02  0.69774455705E+02  0.00000000000E+00 0. -1.
        -13    1    4    4    0    0 -0.16418404166E+03 -0.83928126517E+02  0.16653462311E+02  0.18514229058E+03  0.00000000000E+00 0. -1.
         13    1    4    4    0    0 -0.65947356460E+02 -0.10530698909E+03 -0.23015952403E+02  0.12636593623E+03  0.00000000000E+00 0.  1.
         21    1    1    2  503  502  0.35365346638E+02  0.31259407719E+02  0.49754595984E+01  0.47461705742E+02  0.00000000000E+00 0. -1.
          1    1    1    2  501    0  0.23115684000E+03  0.85314952201E+02 -0.25856845683E+03  0.35716910927E+03  0.00000000000E+00 0. -1.
<scales pt_clust_5="13000.00000" pt_clust_6="13000.00000" pt_clust_7="13000.00000" pt_clust_8="13000.00000" pt_clust_9="47.20019" pt_clust_10="256.06811"></scales>
<clustering>
<clus scale="   47.200">  1  9  2 -1</clus>
<clus scale="   80.651">  5  6 -1 -1</clus>
<clus scale="   90.700">  7  8 -1 -1</clus>
<clus scale="  119.237">  1  5  2 -1</clus>
<clus scale="  256.068">  2 10  1 -1</clus>
<clus scale="  256.068">  2  5  1 -1</clus>
</clustering>
</event>
<event>
10    4  0.3738096E-005  0.1515552E+03  0.7546771E-02  0.1221829E+00
         21   -1    0    0  501  502  0.00000000000E+00  0.00000000000E+00  0.49744521523E+02  0.49744521523E+02  0.00000000000E+00 0. -1.
          2   -1    0    0  503    0 -0.00000000000E+00 -0.00000000000E+00 -0.89809747358E+03  0.89809747358E+03  0.00000000000E+00 0. -1.
         24    2    1    2    0    0 -0.13552552097E+02  0.25290423915E+02 -0.15834735930E+03  0.18274830971E+03  0.86601277660E+02 0.  0.
         23    2    1    2    0    0 -0.10354264289E+03 -0.74008320138E+02 -0.19061245298E+03  0.24712224559E+03  0.92401226650E+02 0.  0.
        -13    1    3    3    0    0  0.18402187648E+02 -0.25365447218E+02 -0.54703560582E+02  0.63043841596E+02  0.00000000000E+00 0.  1.
         14    1    3    3    0    0 -0.31954739744E+02  0.50655871134E+02 -0.10364379872E+03  0.11970446811E+03  0.00000000000E+00 0. -1.
        -11    1    4    4    0    0 -0.87936811213E+02 -0.10353176641E+02 -0.13346925901E+03  0.16016901739E+03  0.00000000000E+00 0.  1.
         11    1    4    4    0    0 -0.15605831682E+02 -0.63655143498E+02 -0.57143193975E+02  0.86953228197E+02  0.00000000000E+00 0. -1.
         21    1    1    2  503  502  0.84608422612E+01  0.19163675633E+02 -0.13399308143E+03  0.13562071444E+03  0.00000000000E+00 0. -1.
          1    1    1    2  501    0  0.10863435273E+03  0.29554220590E+02 -0.36540005834E+03  0.38235072536E+03  0.00000000000E+00 0. -1.
<scales pt_clust_5="13000.00000" pt_clust_6="13000.00000" pt_clust_7="13000.00000" pt_clust_8="13000.00000" pt_clust_9="20.94832" pt_clust_10="120.12918"></scales>
<clustering>
<clus scale="   20.948">  2  9  1 -1</clus>
<clus scale="   86.601">  5  6 -1 -1</clus>
<clus scale="   92.251">  2  5  1 -1</clus>
<clus scale="   92.401">  7  8 -1 -1</clus>
<clus scale="  120.129">  1 10  2 -1</clus>
<clus scale="  120.129">  1  5  2 -1</clus>
</clustering>
</event>
<event>
10    4  0.3738096E-005  0.4048638E+03  0.7546771E-02  0.1042437E+00
         21   -1    0    0  501  502  0.00000000000E+00  0.00000000000E+00  0.33186377212E+03  0.33186377212E+03  0.00000000000E+00 0.  1.
          2   -1    0    0  503    0 -0.00000000000E+00 -0.00000000000E+00 -0.13895310753E+04  0.13895310753E+04  0.00000000000E+00 0. -1.
         23    2    1    2    0    0  0.46331195983E+03 -0.11524446404E+03 -0.60323709702E+03  0.77558076825E+03  0.98444269779E+02 0.  0.
         24    2    1    2    0    0 -0.21054212278E+03  0.16915279724E+03  0.59800482646E+02  0.28830217923E+03  0.81248966395E+02 0.  0.
        -13    1    4    4    0    0 -0.19574567323E+03  0.17788411994E+03  0.52618926298E+02  0.26968107112E+03  0.00000000000E+00 0.  1.
         14    1    4    4    0    0 -0.14796449554E+02 -0.87313226997E+01  0.71815563486E+01  0.18621108106E+02  0.00000000000E+00 0. -1.
        -13    1    3    3    0    0  0.11997089422E+03  0.12861492557E+02 -0.16239243419E+03  0.20231098866E+03  0.00000000000E+00 0.  1.
         13    1    3    3    0    0  0.34334106561E+03 -0.12810595660E+03 -0.44084466283E+03  0.57326977959E+03  0.00000000000E+00 0. -1.
         21    1    1    2  503  502 -0.47973755095E+02 -0.39959226023E+02 -0.43182946897E+03  0.43631973505E+03  0.00000000000E+00 0.  1.
          1    1    1    2  501    0 -0.20479608195E+03 -0.13949107176E+02 -0.82401219833E+02  0.22119216488E+03  0.00000000000E+00 0. -1.
<scales pt_clust_5="13000.00000" pt_clust_6="13000.00000" pt_clust_7="13000.00000" pt_clust_8="13000.00000" pt_clust_9="62.43573" pt_clust_10="213.38540"></scales>
<clustering>
<clus scale="   62.436">  2  9  1 -1</clus>
<clus scale="   81.249">  5  6 -1 -1</clus>
<clus scale="   98.444">  7  8 -1 -1</clus>
<clus scale="  213.385">  1 10  2 -1</clus>
<clus scale="  401.030">  1  5  2 -1</clus>
<clus scale="  213.385">  1  5  2 -1</clus>
</clustering>
</event>
<event>
10    4  0.3738096E-005  0.1490862E+03  0.7546771E-02  0.1223520E+00
          2   -1    0    0  503    0 -0.00000000000E+00  0.00000000000E+00  0.14256012302E+04  0.14256012302E+04  0.00000000000E+00 0. -1.
         21   -1    0    0  501  502  0.00000000000E+00 -0.00000000000E+00 -0.49080766174E+02  0.49080766174E+02  0.00000000000E+00 0. -1.
         24    2    1    2    0    0  0.30589633576E+02 -0.31934323737E+02  0.48995126006E+03  0.49880141831E+03  0.82432341709E+02 0.  0.
         23    2    1    2    0    0 -0.11022933329E+02  0.15909422760E+03  0.25369371678E+03  0.31213542980E+03  0.87381612968E+02 0.  0.
        -13    1    3    3    0    0 -0.66831569715E+01 -0.46760453865E+02  0.17339491310E+03  0.17971366259E+03  0.00000000000E+00 0.  1.
         14    1    3    3    0    0  0.37272790548E+02  0.14826130128E+02  0.31655634696E+03  0.31908775572E+03  0.00000000000E+00 0. -1.
        -13    1    4    4    0    0 -0.33101525862E+02  0.13742941972E+03  0.16016565404E+03  0.21362488889E+03  0.00000000000E+00 0. -1.
         13    1    4    4    0    0  0.22078592533E+02  0.21664807871E+02  0.93528062748E+02  0.98510540907E+02  0.00000000000E+00 0.  1.
         21    1    1    2  503  502 -0.84141498347E+02 -0.54713235639E+02  0.37545529374E+03  0.38863865929E+03  0.00000000000E+00 0. -1.
          1    1    1    2  501    0  0.64574798100E+02 -0.72446668220E+02  0.25742019346E+03  0.27510648899E+03  0.00000000000E+00 0. -1.
<scales pt_clust_5="13000.00000" pt_clust_6="13000.00000" pt_clust_7="13000.00000" pt_clust_8="13000.00000" pt_clust_9="98.61139" pt_clust_10="120.79393"></scales>
<clustering>
<clus scale="   82.432">  5  6 -1 -1</clus>
<clus scale="   87.382">  7  8 -1 -1</clus>
<clus scale="   93.545">  1  5  2 -1</clus>
<clus scale="   98.611">  1  9  2 -1</clus>
<clus scale="  120.794">  2 10  1 -1</clus>
<clus scale="  120.794">  2  5  1 -1</clus>
</clustering>
</event>
<event>
10    4  0.3738096E-005  0.1938202E+03  0.7546771E-02  0.1179504E+00
         -1   -1    0    0    0  501 -0.00000000000E+00  0.00000000000E+00  0.48472279161E+03  0.48472279161E+03  0.00000000000E+00 0.  1.
         21   -1    0    0  503  502  0.00000000000E+00 -0.00000000000E+00 -0.28443810894E+03  0.28443810894E+03  0.00000000000E+00 0. -1.
         24    2    1    2    0    0  0.42762862252E+02 -0.27615950860E+02 -0.16681344992E+03  0.19195154539E+03  0.80170852395E+02 0.  0.
         23    2    1    2    0    0 -0.16253482752E+03 -0.41785006314E+02  0.18369271180E+03  0.26591581888E+03  0.93833114906E+02 0.  0.
        -13    1    3    3    0    0 -0.20288611476E+02 -0.19233011985E+01 -0.74555059380E+02  0.77290256322E+02  0.00000000000E+00 0.  1.
         14    1    3    3    0    0  0.63051473728E+02 -0.25692649661E+02 -0.92258390540E+02  0.11466128907E+03  0.00000000000E+00 0. -1.
        -13    1    4    4    0    0 -0.14250608944E+03  0.36680852214E+01  0.13879638989E+03  0.19896200196E+03  0.00000000000E+00 0. -1.
         13    1    4    4    0    0 -0.20028738076E+02 -0.45453091536E+02  0.44896321904E+02  0.66953816916E+02  0.00000000000E+00 0.  1.
         21    1    1    2  503  501 -0.11105849161E+02 -0.57700901109E+02  0.10023306204E+02  0.59608728737E+02  0.00000000000E+00 0. -1.
         -2    1    1    2    0  502  0.13087781443E+03  0.12710185828E+03  0.17338211460E+03  0.25168480755E+03  0.00000000000E+00 0.  1.
<scales pt_clust_5="13000.00000" pt_clust_6="13000.00000" pt_clust_7="13000.00000" pt_clust_8="13000.00000" pt_clust_9="58.75997" pt_clust_10="169.59251"></scales>
<clustering>
<clus scale="   58.760">  2  9  1 -1</clus>
<clus scale="   80.171">  5  6 -1 -1</clus>
<clus scale="   93.833">  7  8 -1 -1</clus>
<clus scale="  110.509">  1  5  2 -1</clus>
<clus scale="  169.593">  2 10  1 -1</clus>
<clus scale="   58.760">  2  5  1 -1</clus>
</clustering>
</event>
<event>
10    4  0.3738096E-005  0.9198439E+02  0.7546771E-02  0.1307558E+00
         -3   -1    0    0    0  501 -0.00000000000E+00  0.00000000000E+00  0.82901920413E+02  0.82901920413E+02  0.00000000000E+00 0.  1.
         21   -1    0    0  503  502  0.00000000000E+00 -0.00000000000E+00 -0.62188182101E+03  0.62188182101E+03  0.00000000000E+00 0.  1.
         23    2    1    2    0    0 -0.22803075536E+02  0.45631042519E+01  0.24469065514E+02  0.95918771464E+02  0.89782366741E+02 0.  0.
         24    2    1    2    0    0  0.33861608012E+02 -0.36043279994E+01 -0.35802413226E+03  0.36731936974E+03  0.74717069179E+02 0.  0.
        -11    1    4    4    0    0  0.41601579022E+02 -0.32108409279E+02 -0.23339787168E+03  0.23924089916E+03  0.00000000000E+00 0.  1.
         12    1    4    4    0    0 -0.77399710101E+01  0.28504081279E+02 -0.12462626058E+03  0.12807847058E+03  0.00000000000E+00 0. -1.
        -11    1    3    3    0    0  0.18218214862E+02 -0.24516323448E+02  0.32945909529E+02  0.44926455712E+02  0.00000000000E+00 0.  1.
         11    1    3    3    0    0 -0.41021290399E+02  0.29079427699E+02 -0.84768440142E+01  0.50992315752E+02  0.00000000000E+00 0. -1.
         21    1    1    2  503  501  0.91044552162E+01 -0.19302770986E+02  0.10584808303E+02  0.23822809224E+02  0.00000000000E+00 0.  1.
         -4    1    1    2    0  502 -0.20162987692E+02  0.18343994733E+02 -0.21600964215E+03  0.21772279099E+03  0.00000000000E+00 0.  1.
<scales pt_clust_5="13000.00000" pt_clust_6="13000.00000" pt_clust_7="13000.00000" pt_clust_8="13000.00000" pt_clust_9="21.34217" pt_clust_10="27.00195"></scales>
<clustering>
<clus scale="   21.342">  1  9  2 -1</clus>
<clus scale="   27.002">  2 10  1 -1</clus>
<clus scale="   74.717">  5  6 -1 -1</clus>
<clus scale="   77.349">  2  5  1 -1</clus>
<clus scale="   89.782">  7  8 -1 -1</clus>
<clus scale="   27.002">  2  5  1 -1</clus>
</clustering>
</event>
<event>
10    4  0.3738096E-005  0.1555605E+03  0.7546771E-02  0.1223095E+00
          2   -1    0    0  502    0 -0.00000000000E+00  0.00000000000E+00  0.32297956321E+03  0.32297956321E+03  0.00000000000E+00 0. -1.
         21   -1    0    0  503  502  0.00000000000E+00 -0.00000000000E+00 -0.13829233953E+03  0.13829233953E+03  0.00000000000E+00 0.  1.
         24    2    1    2    0    0 -0.16570148866E+01  0.15676675291E+02 -0.36280013584E+02  0.90655496080E+02  0.81570066429E+02 0.  0.
         23    2    1    2    0    0  0.48190497214E+02  0.10879470346E+03  0.14170125737E+03  0.20563002440E+03  0.89698657020E+02 0.  0.
        -11    1    3    3    0    0  0.11890013126E+02 -0.27146899917E+02 -0.34808605142E+02  0.45716141341E+02  0.00000000000E+00 0.  1.
         12    1    3    3    0    0 -0.13547028012E+02  0.42823575207E+02 -0.14714084425E+01  0.44939354738E+02  0.00000000000E+00 0. -1.
        -11    1    4    4    0    0  0.65976235041E+02  0.80084525571E+02  0.66631825245E+02  0.12331340139E+03  0.00000000000E+00 0. -1.
         11    1    4    4    0    0 -0.17785737828E+02  0.28710177893E+02  0.75069432127E+02  0.82316623015E+02  0.00000000000E+00 0.  1.
         21    1    1    2  503  501 -0.26084527384E+02 -0.21254233955E+02  0.40958258365E+02  0.53006829353E+02  0.00000000000E+00 0.  1.
          1    1    1    2  501    0 -0.20448954944E+02 -0.10321714480E+03  0.38307721534E+02  0.11197955290E+03  0.00000000000E+00 0. -1.
<scales pt_clust_5="13000.00000" pt_clust_6="13000.00000" pt_clust_7="13000.00000" pt_clust_8="13000.00000" pt_clust_9="32.38062" pt_clust_10="139.39923"></scales>
<clustering>
<clus scale="   32.381">  9 10 -1 -1</clus>
<clus scale="   81.570">  5  6 -1 -1</clus>
<clus scale="   83.079">  1  5  2 -1</clus>
<clus scale="   89.699">  7  8 -1 -1</clus>
<clus scale="  139.399">  2  9  1 -1</clus>
<clus scale="  139.399">  2  5  1 -1</clus>
</clustering>
</event>
<event>
10    4  0.3738096E-005  0.3170672E+03  0.7546771E-02  0.1115305E+00
         21   -1    0    0  501  502  0.00000000000E+00  0.00000000000E+00  0.11259558793E+03  0.11259558793E+03  0.00000000000E+00 0. -1.
          2   -1    0    0  503    0 -0.00000000000E+00 -0.00000000000E+00 -0.17033466872E+04  0.17033466872E+04  0.00000000000E+00 0. -1.
         24    2    1    2    0    0 -0.56927455009E+02  0.82300059489E+02 -0.33290400633E+03  0.35614314070E+03  0.77452077545E+02 0.  0.
         23    2    1    2    0    0 -0.24322995561E+03 -0.18781928684E+03 -0.74542168646E+03  0.81172209958E+03  0.93821002333E+02 0.  0.
        -11    1    3    3    0    0 -0.51075535342E+02  0.29059087513E+02 -0.25446138798E+03  0.26115845544E+03  0.00000000000E+00 0.  1.
         12    1    3    3    0    0 -0.58519196666E+01  0.53240971976E+02 -0.78442618350E+02  0.94984685262E+02  0.00000000000E+00 0. -1.
        -11    1    4    4    0    0 -0.21688272242E+03 -0.12521155994E+03 -0.62763873901E+03  0.67575619622E+03  0.00000000000E+00 0. -1.
         11    1    4    4    0    0 -0.26347233191E+02 -0.62607726904E+02 -0.11778294746E+03  0.13596590336E+03  0.00000000000E+00 0.  1.
         21    1    1    2  503  502  0.37034416536E+02 -0.42416310611E+02 -0.22258267358E+03  0.22959472554E+03  0.00000000000E+00 0. -1.
          1    1    1    2  501    0  0.26312299409E+03  0.14793553796E+03 -0.28984273294E+03  0.41848230936E+03  0.00000000000E+00 0. -1.
<scales pt_clust_5="13000.00000" pt_clust_6="13000.00000" pt_clust_7="13000.00000" pt_clust_8="13000.00000" pt_clust_9="56.30889" pt_clust_10="302.86834"></scales>
<clustering>
<clus scale="   56.309">  2  9  1 -1</clus>
<clus scale="   77.452">  5  6 -1 -1</clus>
<clus scale="   93.821">  7  8 -1 -1</clus>
<clus scale="  116.506">  2  5  1 -1</clus>
<clus scale="  302.868">  1 10  2 -1</clus>
<clus scale="  302.868">  1  5  2 -1</clus>
</clustering>
</event>
<event>
10    4  0.3738096E-005  0.2471173E+03  0.7546771E-02  0.1115823E+00
          2   -1    0    0  503    0 -0.00000000000E+00  0.00000000000E+00  0.10160523329E+04  0.10160523329E+04  0.00000000000E+00 0. -1.
         21   -1    0    0  501  502  0.00000000000E+00 -0.00000000000E+00 -0.90784032223E+02  0.90784032223E+02  0.00000000000E+00 0. -1.
         24    2    1    2    0    0 -0.40708582391E+02 -0.22435209650E+03  0.44161610433E+03  0.50335645551E+03  0.79698719064E+02 0.  0.
         23    2    1    2    0    0  0.37009926042E+02  0.21718812776E+03  0.19180191866E+03  0.30618095179E+03  0.91751739870E+02 0.  0.
        -11    1    3    3    0    0  0.17437337094E+02 -0.55881857160E+02  0.15684642002E+03  0.16741458168E+03  0.00000000000E+00 0.  1.
         12    1    3    3    0    0 -0.58145919485E+02 -0.16847023934E+03  0.28476968430E+03  0.33594187383E+03  0.00000000000E+00 0. -1.
        -13    1    4    4    0    0  0.64380455161E+02  0.16053846103E+03  0.16027635937E+03  0.23580914285E+03  0.00000000000E+00 0. -1.
         13    1    4    4    0    0 -0.27370529119E+02  0.56649666733E+02  0.31525559289E+02  0.70371808941E+02  0.00000000000E+00 0.  1.
         21    1    1    2  503  502 -0.17906472971E+02 -0.16330011650E+02  0.14593779216E+03  0.14793630465E+03  0.00000000000E+00 0. -1.
          1    1    1    2  501    0  0.21605129320E+02  0.23493980385E+02  0.14591248551E+03  0.14936265314E+03  0.00000000000E+00 0. -1.
<scales pt_clust_5="13000.00000" pt_clust_6="13000.00000" pt_clust_7="13000.00000" pt_clust_8="13000.00000" pt_clust_9="24.23450" pt_clust_10="27.81935"></scales>
<clustering>
<clus scale="   24.235">  1  9  2 -1</clus>
<clus scale="   27.819">  2 10  1 -1</clus>
<clus scale="   79.699">  5  6 -1 -1</clus>
<clus scale="   91.752">  7  8 -1 -1</clus>
<clus scale="  242.900">  1  5  2 -1</clus>
<clus scale="   27.819">  2  5  1 -1</clus>
</clustering>
</event>
<event>
10    4  0.3738096E-005  0.4363843E+03  0.7546771E-02  0.1077623E+00
         21   -1    0    0  501  502  0.00000000000E+00  0.00000000000E+00  0.77666891522E+03  0.77666891522E+03  0.00000000000E+00 0. -1.
          2   -1    0    0  503    0 -0.00000000000E+00 -0.00000000000E+00 -0.34779048984E+03  0.34779048984E+03  0.00000000000E+00 0. -1.
         23    2    1    2    0    0  0.24068408712E+02 -0.67761299753E+02  0.89151840420E+01  0.11669358357E+03  0.91471470408E+02 0.  0.
         24    2    1    2    0    0 -0.32212967885E+03 -0.26438357393E+03  0.12964455358E+03  0.44382194967E+03  0.80647433800E+02 0.  0.
        -13    1    4    4    0    0 -0.58759631429E+02 -0.73036106342E+02  0.89053227184E+00  0.93743053945E+02  0.00000000000E+00 0.  1.
         14    1    4    4    0    0 -0.26337004742E+03 -0.19134746759E+03  0.12875402131E+03  0.35007889573E+03  0.00000000000E+00 0. -1.
        -11    1    3    3    0    0  0.33077476449E+02  0.41562604008E+01  0.25940695829E+02  0.42241136927E+02  0.00000000000E+00 0. -1.
         11    1    3    3    0    0 -0.90090677375E+01 -0.71917560154E+02 -0.17025511787E+02  0.74452446646E+02  0.00000000000E+00 0.  1.
         21    1    1    2  503  502  0.31162595651E+02 -0.22240129617E+02  0.11577811590E+02  0.39997205581E+02  0.00000000000E+00 0.  1.
          1    1    1    2  501    0  0.26689867448E+03  0.35438500330E+03  0.27874087617E+03  0.52394666623E+03  0.00000000000E+00 0. -1.
<scales pt_clust_5="13000.00000" pt_clust_6="13000.00000" pt_clust_7="13000.00000" pt_clust_8="13000.00000" pt_clust_9="38.28486" pt_clust_10="428.86742"></scales>
<clustering>
<clus scale="   38.285">  2  9  1 -1</clus>
<clus scale="   80.647">  5  6 -1 -1</clus>
<clus scale="   91.471">  7  8 -1 -1</clus>
<clus scale="  119.605">  2  7  1 -1</clus>
<clus scale="  428.867">  1 10  2 -1</clus>
<clus scale="  428.867">  1  5  2 -1</clus>
</clustering>
</event>
<event>
10    4  0.3738096E-005  0.1313200E+03  0.7546771E-02  0.1248095E+00
         -1   -1    0    0    0  501 -0.00000000000E+00  0.00000000000E+00  0.16443176291E+03  0.16443176291E+03  0.00000000000E+00 0.  1.
         21   -1    0    0  503  502  0.00000000000E+00 -0.00000000000E+00 -0.47151383460E+03  0.47151383460E+03  0.00000000000E+00 0.  1.
         24    2    1    2    0    0 -0.72901035069E+01  0.22993566178E+01  0.18183161064E+02  0.84737790458E+02  0.82410151896E+02 0.  0.
         23    2    1    2    0    0  0.85803882401E+02  0.48674893996E+02 -0.39469798860E+03  0.41626966484E+03  0.88104370580E+02 0.  0.
        -11    1    3    3    0    0 -0.17010523482E+02 -0.32836333586E+02 -0.10397127562E+02  0.38414619275E+02  0.00000000000E+00 0.  1.
         12    1    3    3    0    0  0.97204199751E+01  0.35135690204E+02  0.28580288626E+02  0.46323171184E+02  0.00000000000E+00 0. -1.
        -13    1    4    4    0    0  0.49974550104E+02 -0.19885136560E+02 -0.13586242719E+03  0.14612143387E+03  0.00000000000E+00 0. -1.
         13    1    4    4    0    0  0.35829332297E+02  0.68560030556E+02 -0.25883556141E+03  0.27014823097E+03  0.00000000000E+00 0.  1.
         21    1    1    2  503  501  0.74619488953E+01 -0.24693572240E+02  0.14970480073E+02  0.29825634359E+02  0.00000000000E+00 0.  1.
         -2    1    1    2    0  502 -0.85975727789E+02 -0.26280678374E+02  0.54462275772E+02  0.10511250785E+03  0.00000000000E+00 0.  1.
<scales pt_clust_5="13000.00000" pt_clust_6="13000.00000" pt_clust_7="13000.00000" pt_clust_8="13000.00000" pt_clust_9="25.79638" pt_clust_10="97.37850"></scales>
<clustering>
<clus scale="   25.796">  1  9  2 -1</clus>
<clus scale="   82.410">  5  6 -1 -1</clus>
<clus scale="   82.805">  1  5  2 -1</clus>
<clus scale="   88.104">  7  8 -1 -1</clus>
<clus scale="   97.379">  2 10  1 -1</clus>
<clus scale="   97.379">  2  5  1 -1</clus>
</clustering>
</event>
<event>
10    4  0.3738096E-005  0.1159717E+03  0.7546771E-02  0.1254453E+00
         21   -1    0    0  501  502  0.00000000000E+00  0.00000000000E+00  0.87428762731E+02  0.87428762731E+02  0.00000000000E+00 0.  1.
          2   -1    0    0  503    0 -0.00000000000E+00 -0.00000000000E+00 -0.65784928616E+03  0.65784928616E+03  0.00000000000E+00 0. -1.
         23    2    1    2    0    0  0.19720172958E+02  0.77773421916E+01 -0.27844927392E+03  0.29429852448E+03  0.92888379745E+02 0.  0.
         24    2    1    2    0    0 -0.57956881257E+02  0.84662424963E+02 -0.76686276075E+02  0.15100838912E+03  0.79975135893E+02 0.  0.
        -13    1    4    4    0    0 -0.40611618746E+02  0.82755094477E+02 -0.23640330687E+02  0.95166036347E+02  0.00000000000E+00 0.  1.
         14    1    4    4    0    0 -0.17345262511E+02  0.19073304856E+01 -0.53045945389E+02  0.55842352774E+02  0.00000000000E+00 0. -1.
        -11    1    3    3    0    0 -0.30757835257E+02 -0.73850387639E+01 -0.17872734943E+03  0.18150495492E+03  0.00000000000E+00 0.  1.
         11    1    3    3    0    0  0.50478008215E+02  0.15162380956E+02 -0.99721924490E+02  0.11279356956E+03  0.00000000000E+00 0. -1.
         21    1    1    2  503  502  0.41183019441E+02 -0.68967502294E+02 -0.24738275271E+03  0.26009764283E+03  0.00000000000E+00 0. -1.
          1    1    1    2  501    0 -0.29463111425E+01 -0.23472264861E+02  0.32097779277E+02  0.39873492467E+02  0.00000000000E+00 0. -1.
<scales pt_clust_5="13000.00000" pt_clust_6="13000.00000" pt_clust_7="13000.00000" pt_clust_8="13000.00000" pt_clust_9="82.65125" pt_clust_10="23.65646"></scales>
<clustering>
<clus scale="   23.656">  1 10  2 -1</clus>
<clus scale="   79.975">  5  6 -1 -1</clus>
<clus scale="   82.651">  2  9  1 -1</clus>
<clus scale="   92.888">  7  8 -1 -1</clus>
<clus scale="  105.911">  1  5  2 -1</clus>
<clus scale="   23.656">  1  5  2 -1</clus>
</clustering>
</event>
<event>
10    4  0.3738096E-005  0.9966897E+02  0.7546771E-02  0.1286858E+00
         21   -1    0    0  501  502  0.00000000000E+00  0.00000000000E+00  0.85389424244E+02  0.85389424244E+02  0.00000000000E+00 0. -1.
          2   -1    0    0  503    0 -0.00000000000E+00 -0.00000000000E+00 -0.39842804399E+03  0.39842804399E+03  0.00000000000E+00 0. -1.
         23    2    1    2    0    0 -0.29930391398E+02 -0.25585982254E+02 -0.18236319887E+03  0.20777435976E+03  0.91451503297E+02 0.  0.
         24    2    1    2    0    0  0.30692280149E+02  0.10772486378E+02 -0.63755986474E+02  0.10728526712E+03  0.79920211495E+02 0.  0.
        -11    1    4    4    0    0  0.45970753368E+02  0.29849393823E+02 -0.22327562296E+02  0.59184596939E+02  0.00000000000E+00 0.  1.
         12    1    4    4    0    0 -0.15278473219E+02 -0.19076907445E+02 -0.41428424178E+02  0.48100670177E+02  0.00000000000E+00 0. -1.
        -11    1    3    3    0    0 -0.54667790762E+02 -0.20783800981E+02 -0.63748453365E+02  0.86512421285E+02  0.00000000000E+00 0. -1.
         11    1    3    3    0    0  0.24737399364E+02 -0.48021812727E+01 -0.11861474550E+03  0.12126193848E+03  0.00000000000E+00 0.  1.
         21    1    1    2  503  502 -0.21958086019E+02  0.14329427314E+02 -0.11407801174E+03  0.11705247879E+03  0.00000000000E+00 0. -1.
          1    1    1    2  501    0  0.21196197268E+02  0.48406856238E+00  0.47158577339E+02  0.51705362562E+02  0.00000000000E+00 0. -1.
<scales pt_clust_5="13000.00000" pt_clust_6="13000.00000" pt_clust_7="13000.00000" pt_clust_8="13000.00000" pt_clust_9="25.50160" pt_clust_10="21.20172"></scales>
<clustering>
<clus scale="   21.202">  1 10  2 -1</clus>
<clus scale="   25.502">  2  9  1 -1</clus>
<clus scale="   79.920">  5  6 -1 -1</clus>
<clus scale="   89.206">  1  5  2 -1</clus>
<clus scale="   91.452">  7  8 -1 -1</clus>
<clus scale="   21.202">  1  5  2 -1</clus>
</clustering>
</event>
<event>
10    4  0.3738096E-005  0.2003642E+03  0.7546771E-02  0.1174699E+00
          2   -1    0    0  503    0 -0.00000000000E+00  0.00000000000E+00  0.19426113434E+04  0.19426113434E+04  0.00000000000E+00 0. -1.
         21   -1    0    0  501  502  0.00000000000E+00 -0.00000000000E+00 -0.90844282180E+02  0.90844282180E+02  0.00000000000E+00 0.  1.
         24    2    1    2    0    0  0.33126177416E+02  0.69580734745E+02  0.80523114956E+03  0.81291420478E+03  0.80582118586E+02 0.  0.
         23    2    1    2    0    0  0.63200199254E+02 -0.13047259393E+03  0.45838400525E+02  0.17685563339E+03  0.90329359257E+02 0.  0.
        -13    1    3    3    0    0 -0.14676515410E+02  0.23739770709E+02  0.81252437498E+02  0.85912370572E+02  0.00000000000E+00 0.  1.
         14    1    3    3    0    0  0.47802692826E+02  0.45840964036E+02  0.72397871206E+03  0.72700183421E+03  0.00000000000E+00 0. -1.
        -11    1    4    4    0    0  0.53593874555E+02 -0.97773696443E+02 -0.94591041541E+01  0.11189939123E+03  0.00000000000E+00 0.  1.
         11    1    4    4    0    0  0.96063246990E+01 -0.32698897491E+02  0.55297504679E+02  0.64956242156E+02  0.00000000000E+00 0. -1.
         21    1    1    2  503  502 -0.59593886892E+01  0.16127541817E+03  0.54604837548E+03  0.56939801825E+03  0.00000000000E+00 0. -1.
          1    1    1    2  501    0 -0.90366987981E+02 -0.10038355898E+03  0.45464913568E+03  0.47428776919E+03  0.00000000000E+00 0. -1.
<scales pt_clust_5="13000.00000" pt_clust_6="13000.00000" pt_clust_7="13000.00000" pt_clust_8="13000.00000" pt_clust_9="178.84742" pt_clust_10="105.18057"></scales>
<clustering>
<clus scale="   80.582">  5  6 -1 -1</clus>
<clus scale="   90.329">  7  8 -1 -1</clus>
<clus scale="  111.500">  1  5  2 -1</clus>
<clus scale="  105.181">  2 10  1 -1</clus>
<clus scale="  178.847">  1  9  2 -1</clus>
<clus scale="  105.181">  2  5  1 -1</clus>
</clustering>
</event>
<event>
10    4  0.3738096E-005  0.2835897E+03  0.7546771E-02  0.1128918E+00
          4   -1    0    0  503    0 -0.00000000000E+00  0.00000000000E+00  0.75747979722E+03  0.75747979722E+03  0.00000000000E+00 0. -1.
         21   -1    0    0  501  502  0.00000000000E+00 -0.00000000000E+00 -0.44788338695E+03  0.44788338695E+03  0.00000000000E+00 0.  1.
         23    2    1    2    0    0 -0.69563931051E+02  0.90346878784E+00 -0.44518340849E+02  0.12424514459E+03  0.92817113313E+02 0.  0.
         24    2    1    2    0    0  0.15723725674E+03  0.92615015338E+02 -0.12482106968E+03  0.23563149184E+03  0.81491131641E+02 0.  0.
        -13    1    4    4    0    0  0.49959647149E+02 -0.86917120783E+01 -0.45395483823E+02  0.68060724016E+02  0.00000000000E+00 0.  1.
         14    1    4    4    0    0  0.10727760959E+03  0.10130672742E+03 -0.79425585858E+02  0.16757076782E+03  0.00000000000E+00 0. -1.
        -13    1    3    3    0    0 -0.35045592668E+02  0.39408083564E+02 -0.49455292087E+02  0.72298108765E+02  0.00000000000E+00 0.  1.
         13    1    3    3    0    0 -0.34518338383E+02 -0.38504614776E+02  0.49369512378E+01  0.51947035828E+02  0.00000000000E+00 0. -1.
         21    1    1    2  503  502 -0.25939739033E+03 -0.28259885317E+03  0.44548584529E+03  0.58788328457E+03  0.00000000000E+00 0.  1.
          3    1    1    2  501    0  0.17172406464E+03  0.18908036904E+03  0.33449975506E+02  0.25760326317E+03  0.00000000000E+00 0. -1.
<scales pt_clust_5="13000.00000" pt_clust_6="13000.00000" pt_clust_7="13000.00000" pt_clust_8="13000.00000" pt_clust_9="283.58966" pt_clust_10="13000.00000"></scales>
<clustering>
<clus scale="   81.491">  5  6 -1 -1</clus>
<clus scale="   92.817">  7  8 -1 -1</clus>
<clus scale="  115.996">  1  7  2 -1</clus>
<clus scale="  195.690">  1  5  2 -1</clus>
<clus scale="  283.590">  1  9  2 -1</clus>
<clus scale="  283.590">  2  5  1 -1</clus>
</clustering>
</event>
<event>
10    4  0.3738096E-005  0.1437103E+03  0.7546771E-02  0.1221551E+00
         21   -1    0    0  501  502  0.00000000000E+00  0.00000000000E+00  0.89318271768E+03  0.89318271768E+03  0.00000000000E+00 0. -1.
          2   -1    0    0  503    0 -0.00000000000E+00 -0.00000000000E+00 -0.35962942853E+03  0.35962942853E+03  0.00000000000E+00 0. -1.
         24    2    1    2    0    0 -0.56752854204E+02 -0.44119071891E+02 -0.87707374745E+02  0.13968190866E+03  0.81554111229E+02 0.  0.
         23    2    1    2    0    0  0.12070544522E+03 -0.13564315337E+03 -0.14789709621E+03  0.25149236786E+03  0.91684188731E+02 0.  0.
        -13    1    3    3    0    0 -0.74294005838E+02 -0.39479118367E+02 -0.50082435392E+02  0.97910420412E+02  0.00000000000E+00 0.  1.
         14    1    3    3    0    0  0.17541151635E+02 -0.46399535240E+01 -0.37624939354E+02  0.41771488251E+02  0.00000000000E+00 0. -1.
        -13    1    4    4    0    0  0.13152568866E+03 -0.11319717155E+03 -0.14550418444E+03  0.22645987308E+03  0.00000000000E+00 0. -1.
         13    1    4    4    0    0 -0.10820243445E+02 -0.22445981829E+02 -0.23929117699E+01  0.25032494786E+02  0.00000000000E+00 0.  1.
         21    1    1    2  503  502 -0.36521686551E+02  0.73582431141E+02 -0.25400224090E+01  0.82186735395E+02  0.00000000000E+00 0.  1.
          1    1    1    2  501    0 -0.27430904464E+02  0.10617979413E+03  0.77169778251E+03  0.77945113428E+03  0.00000000000E+00 0. -1.
<scales pt_clust_5="13000.00000" pt_clust_6="13000.00000" pt_clust_7="13000.00000" pt_clust_8="13000.00000" pt_clust_9="82.14748" pt_clust_10="110.66469"></scales>
<clustering>
<clus scale="   81.554">  5  6 -1 -1</clus>
<clus scale="   82.147">  2  9  1 -1</clus>
<clus scale="   91.684">  7  8 -1 -1</clus>
<clus scale="  108.830">  2  5  1 -1</clus>
<clus scale="  110.665">  1 10  2 -1</clus>
<clus scale="  110.665">  1  5  2 -1</clus>
</clustering>
</event>
<event>
10    4  0.3738096E-005  0.1421967E+03  0.7546771E-02  0.1216869E+00
         21   -1    0    0  501  502  0.00000000000E+00  0.00000000000E+00  0.93524648581E+02  0.93524648581E+02  0.00000000000E+00 0. -1.
          2   -1    0    0  503    0 -0.00000000000E+00 -0.00000000000E+00 -0.37382579253E+03  0.37382579253E+03  0.00000000000E+00 0. -1.
         23    2    1    2    0    0  0.80487052929E+02  0.40454120624E+02 -0.13003371872E+03  0.19059059392E+03  0.10630759579E+03 0.  0.
         24    2    1    2    0    0 -0.84326283521E+02 -0.23880798608E+02 -0.14728410939E+02  0.11977687953E+03  0.80301682096E+02 0.  0.
        -13    1    4    4    0    0 -0.72644670305E+01 -0.23035945596E+02 -0.32689425048E+02  0.40645120011E+02  0.00000000000E+00 0.  1.
         14    1    4    4    0    0 -0.77061816491E+02 -0.84485301219E+00  0.17961014109E+02  0.79131759523E+02  0.00000000000E+00 0. -1.
        -13    1    3    3    0    0  0.78354885659E+02  0.62515440829E+01 -0.13474818091E+03  0.15599885310E+03  0.00000000000E+00 0. -1.
         13    1    3    3    0    0  0.21321672702E+01  0.34202576541E+02  0.47144621872E+01  0.34591740821E+02  0.00000000000E+00 0.  1.
         21    1    1    2  503  502  0.36157973846E+02 -0.71007841602E+01 -0.34498096324E+02  0.50477112222E+02  0.00000000000E+00 0.  1.
          1    1    1    2  501    0 -0.32318743254E+02 -0.94725378560E+01 -0.10104091796E+03  0.10650585543E+03  0.00000000000E+00 0. -1.
<scales pt_clust_5="13000.00000" pt_clust_6="13000.00000" pt_clust_7="13000.00000" pt_clust_8="13000.00000" pt_clust_9="34.24582" pt_clust_10="33.67835"></scales>
<clustering>
<clus scale="   33.678">  1 10  2 -1</clus>
<clus scale="   34.246">  2  9  1 -1</clus>
<clus scale="   80.302">  5  6 -1 -1</clus>
<clus scale="  106.308">  7  8 -1 -1</clus>
<clus scale="  123.964">  1  5  2 -1</clus>
<clus scale="   33.678">  1  5  2 -1</clus>
</clustering>
</event>
<event>
10    4  0.3738096E-005  0.2414573E+03  0.7546771E-02  0.1148685E+00
         21   -1    0    0  501  502  0.00000000000E+00  0.00000000000E+00  0.32599818609E+03  0.32599818609E+03  0.00000000000E+00 0.  1.
          2   -1    0    0  503    0 -0.00000000000E+00 -0.00000000000E+00 -0.63277808924E+03  0.63277808924E+03  0.00000000000E+00 0. -1.
         24    2    1    2    0    0  0.71799410252E+01 -0.75880027203E+02 -0.12548701441E+03  0.16780058974E+03  0.81244797057E+02 0.  0.
         23    2    1    2    0    0 -0.24736833289E+03  0.88823911467E+02  0.11196286303E+03  0.29903706601E+03  0.88355558878E+02 0.  0.
        -11    1    3    3    0    0 -0.13929721243E+01 -0.45586221206E+02 -0.12832577822E+03  0.13618938759E+03  0.00000000000E+00 0.  1.
         12    1    3    3    0    0  0.85729131495E+01 -0.30293805996E+02  0.28387638063E+01  0.31611202153E+02  0.00000000000E+00 0. -1.
        -11    1    4    4    0    0 -0.10673675804E+03 -0.72108072188E+01  0.44569756791E+02  0.11589303033E+03  0.00000000000E+00 0.  1.
         11    1    4    4    0    0 -0.14063157485E+03  0.96034718685E+02  0.67393106238E+02  0.18314403568E+03  0.00000000000E+00 0. -1.
         21    1    1    2  503  502  0.21389933100E+03  0.75721395928E+02 -0.32305120663E+03  0.39477681759E+03  0.00000000000E+00 0. -1.
          1    1    1    2  501    0  0.26289060867E+02 -0.88665280192E+02  0.29795454872E+02  0.97161801979E+02  0.00000000000E+00 0. -1.
<scales pt_clust_5="13000.00000" pt_clust_6="13000.00000" pt_clust_7="13000.00000" pt_clust_8="13000.00000" pt_clust_9="224.71073" pt_clust_10="92.48052"></scales>
<clustering>
<clus scale="   81.245">  5  6 -1 -1</clus>
<clus scale="   88.356">  7  8 -1 -1</clus>
<clus scale="   92.481">  1 10  2 -1</clus>
<clus scale="  116.535">  2  5  1 -1</clus>
<clus scale="  224.711">  2  9  1 -1</clus>
<clus scale="   92.481">  1  5  2 -1</clus>
</clustering>
</event>
<event>
10    4  0.3738096E-005  0.1566652E+03  0.7546771E-02  0.1193175E+00
         -3   -1    0    0    0  501 -0.00000000000E+00  0.00000000000E+00  0.22627153947E+03  0.22627153947E+03  0.00000000000E+00 0.  1.
         21   -1    0    0  503  502  0.00000000000E+00 -0.00000000000E+00 -0.45023174169E+03  0.45023174169E+03  0.00000000000E+00 0.  1.
         23    2    1    2    0    0  0.12495065738E+03 -0.51129628188E+02  0.76583590070E+02  0.17963292934E+03  0.90421443129E+02 0.  0.
         24    2    1    2    0    0 -0.44539025596E+02  0.13207690708E+03 -0.16982222409E+03  0.23609329669E+03  0.86443176486E+02 0.  0.
        -13    1    4    4    0    0 -0.35889972121E+02  0.91884795240E+02 -0.16814703290E+03  0.19494699374E+03  0.00000000000E+00 0.  1.
         14    1    4    4    0    0 -0.86490534753E+01  0.40192111844E+02 -0.16751911838E+01  0.41146302945E+02  0.00000000000E+00 0. -1.
        -11    1    3    3    0    0  0.10872631257E+03 -0.75915185232E+02  0.58595793647E+02  0.14497583739E+03  0.00000000000E+00 0.  1.
         11    1    3    3    0    0  0.16224344817E+02  0.24785557044E+02  0.17987796423E+02  0.34657091956E+02  0.00000000000E+00 0. -1.
         21    1    1    2  503  501 -0.93953552135E+02 -0.50840283380E+02 -0.17531235618E+03  0.20529594882E+03  0.00000000000E+00 0.  1.
         -4    1    1    2    0  502  0.13541920348E+02 -0.30106995517E+02  0.44590787971E+02  0.55481106312E+02  0.00000000000E+00 0.  1.
<scales pt_clust_5="13000.00000" pt_clust_6="13000.00000" pt_clust_7="13000.00000" pt_clust_8="13000.00000" pt_clust_9="108.77760" pt_clust_10="33.01236"></scales>
<clustering>
<clus scale="   33.012">  2 10  1 -1</clus>
<clus scale="   86.443">  5  6 -1 -1</clus>
<clus scale="   90.421">  7  8 -1 -1</clus>
<clus scale="  108.778">  2  9  1 -1</clus>
<clus scale="  154.403">  2  5  1 -1</clus>
<clus scale="   33.012">  2  5  1 -1</clus>
</clustering>
</event>
<event>
10    4  0.3738096E-005  0.1069315E+03  0.7546771E-02  0.1270083E+00
         21   -1    0    0  501  502  0.00000000000E+00  0.00000000000E+00  0.11576352296E+03  0.11576352296E+03  0.00000000000E+00 0.  1.
          2   -1    0    0  503    0 -0.00000000000E+00 -0.00000000000E+00 -0.42574350314E+03  0.42574350314E+03  0.00000000000E+00 0. -1.
         24    2    1    2    0    0 -0.15313200652E+02 -0.58012071707E+02 -0.25860010731E+03  0.27731775565E+03  0.80194934514E+02 0.  0.
         23    2    1    2    0    0  0.31405990015E+02  0.26551512975E+02 -0.24106224816E+02  0.10119841317E+03  0.89267517629E+02 0.  0.
        -11    1    3    3    0    0 -0.47067061488E+02 -0.24665045805E+02 -0.11916134569E+03  0.13047259891E+03  0.00000000000E+00 0.  1.
         12    1    3    3    0    0  0.31753860836E+02 -0.33347025902E+02 -0.13943876162E+03  0.14684515674E+03  0.00000000000E+00 0. -1.
        -13    1    4    4    0    0 -0.29315336467E+01 -0.27481462197E+02  0.90760791693E+01  0.29089514728E+02  0.00000000000E+00 0. -1.
         13    1    4    4    0    0  0.34337523662E+02  0.54032975172E+02 -0.33182303985E+02  0.72108898445E+02  0.00000000000E+00 0.  1.
         21    1    1    2  503  502 -0.48717388778E+02  0.19480216485E+02 -0.82481061499E+02  0.97754735484E+02  0.00000000000E+00 0.  1.
          1    1    1    2  501    0  0.32624599415E+02  0.11980342248E+02  0.55207413448E+02  0.65236121796E+02  0.00000000000E+00 0. -1.
<scales pt_clust_5="13000.00000" pt_clust_6="13000.00000" pt_clust_7="13000.00000" pt_clust_8="13000.00000" pt_clust_9="49.01841" pt_clust_10="34.75476"></scales>
<clustering>
<clus scale="   34.755">  1 10  2 -1</clus>
<clus scale="   49.018">  2  9  1 -1</clus>
<clus scale="   80.195">  5  6 -1 -1</clus>
<clus scale="   89.268">  7  8 -1 -1</clus>
<clus scale="   99.483">  2  5  1 -1</clus>
<clus scale="   34.755">  1  5  2 -1</clus>
</clustering>
</event>
<event>
10    4  0.3738096E-005  0.1120556E+03  0.7546771E-02  0.1261064E+00
         21   -1    0    0  501  502  0.00000000000E+00  0.00000000000E+00  0.16746309312E+03  0.16746309312E+03  0.00000000000E+00 0. -1.
          2   -1    0    0  503    0 -0.00000000000E+00 -0.00000000000E+00 -0.51824037504E+03  0.51824037504E+03  0.00000000000E+00 0. -1.
         24    2    1    2    0    0 -0.59815896008E+01  0.67725978965E+02 -0.46549321082E+03  0.47695693554E+03  0.78621888846E+02 0.  0.
         23    2    1    2    0    0 -0.34456454237E+01 -0.34264607352E+02  0.12041304040E+03  0.15428300564E+03  0.90099998574E+02 0.  0.
        -11    1    3    3    0    0  0.36034852653E+02  0.24294983791E+02 -0.18720991883E+03  0.19218821648E+03  0.00000000000E+00 0.  1.
         12    1    3    3    0    0 -0.42016442254E+02  0.43430995174E+02 -0.27828329198E+03  0.28476871907E+03  0.00000000000E+00 0. -1.
        -11    1    4    4    0    0  0.37964555869E+02 -0.39332112483E+02  0.65322215963E+02  0.85178133772E+02  0.00000000000E+00 0.  1.
         11    1    4    4    0    0 -0.41410201293E+02  0.50675051304E+01  0.55090824435E+02  0.69104871871E+02  0.00000000000E+00 0. -1.
         21    1    1    2  503  502  0.24542932187E+02 -0.10887168415E+02 -0.48422433607E+01  0.27282471977E+02  0.00000000000E+00 0.  1.
          1    1    1    2  501    0 -0.15115697163E+02 -0.22574203198E+02 -0.85486814105E+00  0.27181054988E+02  0.00000000000E+00 0. -1.
<scales pt_clust_5="13000.00000" pt_clust_6="13000.00000" pt_clust_7="13000.00000" pt_clust_8="13000.00000" pt_clust_9="26.84932" pt_clust_10="26.87187"></scales>
<clustering>
<clus scale="   26.849">  1  9  2 -1</clus>
<clus scale="   26.872">  1 10  2 -1</clus>
<clus scale="   78.622">  5  6 -1 -1</clus>
<clus scale="   90.100">  7  8 -1 -1</clus>
<clus scale="  103.053">  2  5  1 -1</clus>
<clus scale="   26.849">  1  5  2 -1</clus>
</clustering>
</event>
<event>
10    4  0.3738096E-005  0.3614265E+03  0.7546771E-02  0.1058236E+00
          2   -1    0    0  503    0 -0.00000000000E+00  0.00000000000E+00  0.68040598030E+03  0.68040598030E+03  0.00000000000E+00 0. -1.
         21   -1    0    0  501  502  0.00000000000E+00 -0.00000000000E+00 -0.11556194907E+04  0.11556194907E+04  0.00000000000E+00 0. -1.
         23    2    1    2    0    0 -0.78527080979E+02  0.23923347807E+03  0.25666748888E+03  0.37114194595E+03  0.92027086878E+02 0.  0.
         24    2    1    2    0    0  0.32840605322E+03 -0.20831657326E+03 -0.48522457054E+03  0.62736513126E+03  0.83052956479E+02 0.  0.
        -13    1    4    4    0    0  0.20620069263E+02  0.49869216685E+01 -0.42547537804E+02  0.47543134282E+02  0.00000000000E+00 0.  1.
         14    1    4    4    0    0  0.30778598396E+03 -0.21330349492E+03 -0.44267703273E+03  0.57982199698E+03  0.00000000000E+00 0. -1.
        -13    1    3    3    0    0  0.16217660876E+02  0.74498743207E+02  0.54778209389E+02  0.93881454439E+02  0.00000000000E+00 0.  1.
         13    1    3    3    0    0 -0.94744741855E+02  0.16473473486E+03  0.20188927949E+03  0.27726049151E+03  0.00000000000E+00 0. -1.
         21    1    1    2  503  502 -0.16517492889E+03  0.52412636810E+02  0.26257741509E+03  0.31460569059E+03  0.00000000000E+00 0. -1.
          1    1    1    2  501    0 -0.84704043354E+02 -0.83329541623E+02 -0.50923384383E+03  0.52291270320E+03  0.00000000000E+00 0. -1.
<scales pt_clust_5="13000.00000" pt_clust_6="13000.00000" pt_clust_7="13000.00000" pt_clust_8="13000.00000" pt_clust_9="175.60207" pt_clust_10="118.82166"></scales>
<clustering>
<clus scale="   83.053">  5  6 -1 -1</clus>
<clus scale="   92.027">  7  8 -1 -1</clus>
<clus scale="  118.822">  2 10  1 -1</clus>
<clus scale="  175.602">  1  9  2 -1</clus>
<clus scale="  359.246">  2  5  1 -1</clus>
<clus scale="  118.822">  2  5  1 -1</clus>
</clustering>
</event>
<event>
10    4  0.3738096E-005  0.1325136E+03  0.7546771E-02  0.1227199E+00
         21   -1    0    0  501  502  0.00000000000E+00  0.00000000000E+00  0.13285064720E+03  0.13285064720E+03  0.00000000000E+00 0.  1.
          2   -1    0    0  503    0 -0.00000000000E+00 -0.00000000000E+00 -0.31015602068E+03  0.31015602068E+03  0.00000000000E+00 0. -1.
         24    2    1    2    0    0 -0.86127499383E+02 -0.13154779838E+02 -0.11398582444E+03  0.16350666117E+03  0.78426179878E+02 0.  0.
         23    2    1    2    0    0  0.10489943604E+03 -0.40088009878E+01  0.44313291905E+02  0.14651769210E+03  0.92107568055E+02 0.  0.
        -11    1    3    3    0    0 -0.42058171307E+02 -0.19738146648E+02 -0.61969490763E+01  0.46870954595E+02  0.00000000000E+00 0.  1.
         12    1    3    3    0    0 -0.44069328076E+02  0.65833668093E+01 -0.10778887536E+03  0.11663570657E+03  0.00000000000E+00 0. -1.
        -13    1    4    4    0    0  0.42059729443E+02 -0.50351818784E+01  0.67364132258E+02  0.79575751409E+02  0.00000000000E+00 0.  1.
         13    1    4    4    0    0  0.62839706597E+02  0.10263808906E+01 -0.23050840353E+02  0.66941940694E+02  0.00000000000E+00 0. -1.
         21    1    1    2  503  502 -0.74235418553E+01 -0.19796702151E+02 -0.86242650475E+02  0.88796470373E+02  0.00000000000E+00 0. -1.
          1    1    1    2  501    0 -0.11348394801E+02  0.36960282977E+02 -0.21390190471E+02  0.44185844234E+02  0.00000000000E+00 0. -1.
<scales pt_clust_5="13000.00000" pt_clust_6="13000.00000" pt_clust_7="13000.00000" pt_clust_8="13000.00000" pt_clust_9="21.14281" pt_clust_10="36.24699"></scales>
<clustering>
<clus scale="   21.143">  2  9  1 -1</clus>
<clus scale="   36.247">  1 10  2 -1</clus>
<clus scale="   78.426">  5  6 -1 -1</clus>
<clus scale="   92.108">  7  8 -1 -1</clus>
<clus scale="  123.397">  2  5  1 -1</clus>
<clus scale="   36.247">  1  5  2 -1</clus>
</clustering>
</event>
<event>
10    4  0.3738096E-005  0.2690793E+03  0.7546771E-02  0.1115871E+00
          2   -1    0    0  503    0 -0.00000000000E+00  0.00000000000E+00  0.62402125454E+03  0.62402125454E+03  0.00000000000E+00 0. -1.
         21   -1    0    0  501  502  0.00000000000E+00 -0.00000000000E+00 -0.34497151700E+03  0.34497151700E+03  0.00000000000E+00 0. -1.
         24    2    1    2    0    0  0.70986982357E+02  0.17672238607E+03  0.65533178390E+02  0.21482527828E+03  0.74735194622E+02 0.  0.
         23    2    1    2    0    0 -0.19610009314E+03  0.12653311495E+01  0.25036122223E+03  0.33183451542E+03  0.94744690804E+02 0.  0.
        -13    1    3    3    0    0 -0.82567367336E+01  0.25450604902E+02 -0.93698054873E+01  0.28349607515E+02  0.00000000000E+00 0.  1.
         14    1    3    3    0    0  0.79243719091E+02  0.15127178116E+03  0.74902983878E+02  0.18647567076E+03  0.00000000000E+00 0. -1.
        -11    1    4    4    0    0 -0.12006413327E+03 -0.42196189732E+02  0.12092771523E+03  0.17555462636E+03  0.00000000000E+00 0.  1.
         11    1    4    4    0    0 -0.76035959872E+02  0.43461520881E+02  0.12943350700E+03  0.15627988906E+03  0.00000000000E+00 0. -1.
         21    1    1    2  503  502 -0.11485727431E+03 -0.35115802571E+02  0.49651477360E+02  0.12996377286E+03  0.00000000000E+00 0. -1.
          1    1    1    2  501    0  0.23997038509E+03 -0.14287191464E+03 -0.86496140432E+02  0.29236920499E+03  0.00000000000E+00 0. -1.
<scales pt_clust_5="13000.00000" pt_clust_6="13000.00000" pt_clust_7="13000.00000" pt_clust_8="13000.00000" pt_clust_9="120.10542" pt_clust_10="251.84737"></scales>
<clustering>
<clus scale="   74.735">  5  6 -1 -1</clus>
<clus scale="   94.745">  7  8 -1 -1</clus>
<clus scale="  120.105">  1  9  2 -1</clus>
<clus scale="  187.917">  1  5  2 -1</clus>
<clus scale="  251.847">  2 10  1 -1</clus>
<clus scale="  251.847">  2  5  1 -1</clus>
</clustering>
</event>
<event>
10    4  0.3738096E-005  0.1162223E+03  0.7546771E-02  0.1253396E+00
         -1   -1    0    0    0  501 -0.00000000000E+00  0.00000000000E+00  0.73524304759E+03  0.73524304759E+03  0.00000000000E+00 0.  1.
         21   -1    0    0  503  502  0.00000000000E+00 -0.00000000000E+00 -0.10176650056E+03  0.10176650056E+03  0.00000000000E+00 0. -1.
         23    2    1    2    0    0  0.16062143211E+02  0.90903758402E+02  0.27735171419E+03  0.30647030374E+03  0.92079248328E+02 0.  0.
         24    2    1    2    0    0  0.57166851978E+02 -0.32416232485E+02  0.23561541750E+02  0.10673514763E+03  0.80736512162E+02 0.  0.
        -11    1    4    4    0    0 -0.41784910113E+01 -0.40448995849E+02  0.18453877392E+02  0.44655645143E+02  0.00000000000E+00 0.  1.
         12    1    4    4    0    0  0.61345342989E+02  0.80327633638E+01  0.51076643575E+01  0.62079502486E+02  0.00000000000E+00 0. -1.
        -13    1    3    3    0    0 -0.38702250538E+02  0.37792097419E+02  0.11590332916E+03  0.12790499808E+03  0.00000000000E+00 0.  1.
         13    1    3    3    0    0  0.54764393748E+02  0.53111660983E+02  0.16144838503E+03  0.17856530566E+03  0.00000000000E+00 0. -1.
         21    1    1    2  503  501 -0.73617056583E+02 -0.32739889725E+02  0.36983098887E+03  0.37850539194E+03  0.00000000000E+00 0.  1.
         -2    1    1    2    0  502  0.38806139426E+00 -0.25747636192E+02 -0.37267697792E+02  0.45298704836E+02  0.00000000000E+00 0.  1.
<scales pt_clust_5="13000.00000" pt_clust_6="13000.00000" pt_clust_7="13000.00000" pt_clust_8="13000.00000" pt_clust_9="81.31163" pt_clust_10="25.75056"></scales>
<clustering>
<clus scale="   25.751">  2 10  1 -1</clus>
<clus scale="   80.737">  5  6 -1 -1</clus>
<clus scale="   81.312">  1  9  2 -1</clus>
<clus scale="   92.079">  7  8 -1 -1</clus>
<clus scale="  107.459">  2  5  1 -1</clus>
<clus scale="   25.751">  2  5  1 -1</clus>
</clustering>
</event>
<event>
10    4  0.3738096E-005  0.3723532E+03  0.7546771E-02  0.1054093E+00
         21   -1    0    0  501  502  0.00000000000E+00  0.00000000000E+00  0.18177739177E+03  0.18177739177E+03  0.00000000000E+00 0. -1.
          2   -1    0    0  503    0 -0.00000000000E+00 -0.00000000000E+00 -0.19203215453E+04  0.19203215453E+04  0.00000000000E+00 0. -1.
         24    2    1    2    0    0  0.21688695169E+03  0.28353354267E+03 -0.12161656391E+04  0.12697958151E+04  0.76755005145E+02 0.  0.
         23    2    1    2    0    0 -0.15190101490E+03 -0.37963402296E+03 -0.30485256060E+03  0.51800096214E+03  0.90520734429E+02 0.  0.
        -13    1    3    3    0    0  0.17700235425E+03  0.19874764551E+03 -0.98605865415E+03  0.10213432966E+04  0.00000000000E+00 0.  1.
         14    1    3    3    0    0  0.39884597431E+02  0.84785897165E+02 -0.23010698493E+03  0.24845251857E+03  0.00000000000E+00 0. -1.
        -13    1    4    4    0    0 -0.23318753015E+02 -0.37470388374E+02 -0.35074921731E+01  0.44272979891E+02  0.00000000000E+00 0.  1.
         13    1    4    4    0    0 -0.12858226188E+03 -0.34216363459E+03 -0.30134506843E+03  0.47372798225E+03  0.00000000000E+00 0. -1.
         21    1    1    2  503  502  0.30610894959E+02 -0.32558099896E+02 -0.11664317060E+03  0.12491071214E+03  0.00000000000E+00 0.  1.
          1    1    1    2  501    0 -0.95596831748E+02  0.12865858018E+03 -0.10088278329E+03  0.18939144769E+03  0.00000000000E+00 0. -1.
<scales pt_clust_5="13000.00000" pt_clust_6="13000.00000" pt_clust_7="13000.00000" pt_clust_8="13000.00000" pt_clust_9="44.68844" pt_clust_10="156.70694"></scales>
<clustering>
<clus scale="   44.688">  2  9  1 -1</clus>
<clus scale="   76.755">  5  6 -1 -1</clus>
<clus scale="   90.521">  7  8 -1 -1</clus>
<clus scale="  156.707">  1 10  2 -1</clus>
<clus scale="  369.248">  2  5  1 -1</clus>
<clus scale="  156.707">  1  5  2 -1</clus>
</clustering>
</event>
<event>
10    4  0.3738096E-005  0.9686437E+02  0.7546771E-02  0.1296382E+00
         -3   -1    0    0    0  501 -0.00000000000E+00  0.00000000000E+00  0.45734779460E+03  0.45734779460E+03  0.00000000000E+00 0.  1.
         21   -1    0    0  503  502  0.00000000000E+00 -0.00000000000E+00 -0.90355194240E+02  0.90355194240E+02  0.00000000000E+00 0.  1.
         23    2    1    2    0    0  0.20357955009E+02 -0.12304470056E+02  0.22232480973E+03  0.24300651618E+03  0.95173523467E+02 0.  0.
         24    2    1    2    0    0 -0.37079492318E+02 -0.23656034615E+02  0.29697362886E+02  0.95436178859E+02  0.79319821915E+02 0.  0.
        -13    1    4    4    0    0 -0.20402358935E+02 -0.40236795351E+02  0.47823359231E+02  0.65744426672E+02  0.00000000000E+00 0.  1.
         14    1    4    4    0    0 -0.16677133383E+02  0.16580760737E+02 -0.18125996345E+02  0.29691752188E+02  0.00000000000E+00 0. -1.
        -11    1    3    3    0    0 -0.18059133548E+02 -0.38028038937E+02  0.15975262794E+03  0.16520643506E+03  0.00000000000E+00 0. -1.
         11    1    3    3    0    0  0.38417088557E+02  0.25723568880E+02  0.62572181791E+02  0.77800081126E+02  0.00000000000E+00 0.  1.
         21    1    1    2  503  501 -0.21307173572E+02 -0.16335775703E+02  0.13802489898E+03  0.14061196945E+03  0.00000000000E+00 0.  1.
         -4    1    1    2    0  502  0.38028710881E+02  0.52296280374E+02 -0.23054471237E+02  0.68648324351E+02  0.00000000000E+00 0.  1.
<scales pt_clust_5="13000.00000" pt_clust_6="13000.00000" pt_clust_7="13000.00000" pt_clust_8="13000.00000" pt_clust_9="26.84871" pt_clust_10="62.81836"></scales>
<clustering>
<clus scale="   26.849">  1  9  2 -1</clus>
<clus scale="   62.818">  2 10  1 -1</clus>
<clus scale="   79.320">  5  6 -1 -1</clus>
<clus scale="   81.341">  2  5  1 -1</clus>
<clus scale="   95.174">  7  8 -1 -1</clus>
<clus scale="   62.818">  2  5  1 -1</clus>
</clustering>
</event>
<event>
10    4  0.3738096E-005  0.2487552E+03  0.7546771E-02  0.1145730E+00
          2   -1    0    0  503    0 -0.00000000000E+00  0.00000000000E+00  0.17090944317E+04  0.17090944317E+04  0.00000000000E+00 0. -1.
         21   -1    0    0  501  502  0.00000000000E+00 -0.00000000000E+00 -0.81456511260E+02  0.81456511260E+02  0.00000000000E+00 0. -1.
         24    2    1    2    0    0  0.44899731760E+02  0.73372690235E+02  0.91039033595E+02  0.14785797929E+03  0.78576961103E+02 0.  0.
         23    2    1    2    0    0 -0.51653982043E+02 -0.26631635372E+03  0.10190343224E+04  0.10584142576E+04  0.90649083731E+02 0.  0.
        -11    1    3    3    0    0 -0.10787065800E+02  0.31538781621E+02  0.65827501086E+02  0.73785604517E+02  0.00000000000E+00 0.  1.
         12    1    3    3    0    0  0.55686797561E+02  0.41833908615E+02  0.25211532509E+02  0.74072374770E+02  0.00000000000E+00 0. -1.
        -11    1    4    4    0    0  0.23479111241E+02 -0.65485546659E+02  0.30759943434E+03  0.31536809841E+03  0.00000000000E+00 0.  1.
         11    1    4    4    0    0 -0.75133093284E+02 -0.20083080706E+03  0.71143488802E+03  0.74304615918E+03  0.00000000000E+00 0. -1.
         21    1    1    2  503  502 -0.48220083394E+02 -0.16323688626E+02  0.14195279085E+03  0.15080528533E+03  0.00000000000E+00 0. -1.
          1    1    1    2  501    0  0.54974333677E+02  0.20926735211E+03  0.37561177367E+03  0.43347342080E+03  0.00000000000E+00 0. -1.
<scales pt_clust_5="13000.00000" pt_clust_6="13000.00000" pt_clust_7="13000.00000" pt_clust_8="13000.00000" pt_clust_9="50.90815" pt_clust_10="231.65033"></scales>
<clustering>
<clus scale="   50.908">  1  9  2 -1</clus>
<clus scale="   78.577">  5  6 -1 -1</clus>
<clus scale="   90.649">  7  8 -1 -1</clus>
<clus scale="  114.346">  1  5  2 -1</clus>
<clus scale="  231.650">  2 10  1 -1</clus>
<clus scale="  231.650">  2  5  1 -1</clus>
</clustering>
</event>
<event>
10    4  0.3738096E-005  0.2924750E+03  0.7546771E-02  0.1125707E+00
         21   -1    0    0  503  502  0.00000000000E+00  0.00000000000E+00  0.61678445144E+03  0.61678445144E+03  0.00000000000E+00 0.  1.
         -3   -1    0    0    0  501 -0.00000000000E+00 -0.00000000000E+00 -0.22675916005E+03  0.22675916005E+03  0.00000000000E+00 0.  1.
         23    2    1    2    0    0 -0.75230583342E+01 -0.75094732637E+02  0.40372962641E+02  0.12429322015E+03  0.90127760351E+02 0.  0.
         24    2    1    2    0    0 -0.16875656959E+03  0.25597155772E+03  0.13214656317E+03  0.34321742674E+03  0.79594407579E+02 0.  0.
        -11    1    4    4    0    0 -0.17048642717E+03  0.23320023063E+03  0.13724397645E+03  0.31981850867E+03  0.00000000000E+00 0.  1.
         12    1    4    4    0    0  0.17298575768E+01  0.22771327094E+02 -0.50974132816E+01  0.23398918073E+02  0.00000000000E+00 0. -1.
        -11    1    3    3    0    0  0.38499520216E+02 -0.14019085315E+02  0.11571607609E+02  0.42575226512E+02  0.00000000000E+00 0.  1.
         11    1    3    3    0    0 -0.46022578550E+02 -0.61075647322E+02  0.28801355033E+02  0.81717993636E+02  0.00000000000E+00 0. -1.
         21    1    1    2  503  501  0.11845061557E+02  0.33966964770E+02  0.21033081668E+02  0.41670741575E+02  0.00000000000E+00 0. -1.
         -4    1    1    2    0  502  0.16443456637E+03 -0.21484378986E+03  0.19647268391E+03  0.33436222302E+03  0.00000000000E+00 0.  1.
<scales pt_clust_5="13000.00000" pt_clust_6="13000.00000" pt_clust_7="13000.00000" pt_clust_8="13000.00000" pt_clust_9="35.97305" pt_clust_10="281.43622"></scales>
<clustering>
<clus scale="   35.973">  1  9  2 -1</clus>
<clus scale="   79.594">  5  6 -1 -1</clus>
<clus scale="   90.128">  7  8 -1 -1</clus>
<clus scale="  114.464">  2  7  1 -1</clus>
<clus scale="  281.436">  1 10  2 -1</clus>
<clus scale="   35.973">  1  5  2 -1</clus>
</clustering>
</event>
<event>
10    4  0.3738096E-005  0.1176834E+03  0.7546771E-02  0.1250737E+00
         21   -1    0    0  501  502  0.00000000000E+00  0.00000000000E+00  0.48898434907E+02  0.48898434907E+02  0.00000000000E+00 0. -1.
          2   -1    0    0  503    0 -0.00000000000E+00 -0.00000000000E+00 -0.85616993023E+03  0.85616993023E+03  0.00000000000E+00 0. -1.
         24    2    1    2    0    0  0.91940794923E+02  0.45314879090E+01 -0.40498249543E+03  0.42304559966E+03  0.80517784540E+02 0.  0.
         23    2    1    2    0    0 -0.55639718089E+02 -0.51289599623E+01 -0.32211634803E+03  0.33956384467E+03  0.91774606921E+02 0.  0.
        -11    1    3    3    0    0  0.42485869310E+02  0.12199002562E+02 -0.60393596175E+02  0.74841507290E+02  0.00000000000E+00 0.  1.
         12    1    3    3    0    0  0.49454925613E+02 -0.76675146531E+01 -0.34458889926E+03  0.34820409237E+03  0.00000000000E+00 0. -1.
        -11    1    4    4    0    0 -0.63849015319E+02 -0.35563713081E+02 -0.18596604314E+03  0.19981202078E+03  0.00000000000E+00 0.  1.
         11    1    4    4    0    0  0.82092972297E+01  0.30434753119E+02 -0.13615030489E+03  0.13975182389E+03  0.00000000000E+00 0. -1.
         21    1    1    2  503  502 -0.18619494329E+02  0.17642382564E+02 -0.10467201864E+03  0.10776906197E+03  0.00000000000E+00 0.  1.
          1    1    1    2  501    0 -0.17681582505E+02 -0.17044910511E+02  0.24499366781E+02  0.34689858848E+02  0.00000000000E+00 0. -1.
<scales pt_clust_5="13000.00000" pt_clust_6="13000.00000" pt_clust_7="13000.00000" pt_clust_8="13000.00000" pt_clust_9="25.81462" pt_clust_10="24.55947"></scales>
<clustering>
<clus scale="   24.559">  1 10  2 -1</clus>
<clus scale="   25.815">  2  9  1 -1</clus>
<clus scale="   80.518">  5  6 -1 -1</clus>
<clus scale="   91.775">  7  8 -1 -1</clus>
<clus scale="  109.133">  2  5  1 -1</clus>
<clus scale="   24.559">  1  5  2 -1</clus>
</clustering>
</event>
<event>
10    4  0.7576551E-005  0.1329969E+03  0.7546771E-02  0.1241833E+00
          2   -1    0    0  503    0 -0.00000000000E+00  0.00000000000E+00  0.59060355642E+03  0.59060355642E+03  0.00000000000E+00 0. -1.
         21   -1    0    0  501  502  0.00000000000E+00 -0.00000000000E+00 -0.61760413826E+03  0.61760413826E+03  0.00000000000E+00 0. -1.
         24    2    1    2    0    0 -0.27551226870E+02 -0.35868732036E+02  0.42210174655E+03  0.43201298574E+03  0.80123026478E+02 0.  0.
         23    2    1    2    0    0  0.98261759838E+02 -0.94189805094E+02  0.85419836513E+02  0.18291662968E+03  0.87377640808E+02 0.  0.
        -13    1    3    3    0    0 -0.47277540815E+02 -0.33286191752E+02  0.17918151550E+03  0.18827945168E+03  0.00000000000E+00 0.  1.
         14    1    3    3    0    0  0.19726313945E+02 -0.25825402843E+01  0.24292023105E+03  0.24373353407E+03  0.00000000000E+00 0. -1.
        -13    1    4    4    0    0  0.64870056487E+02 -0.68550533751E+01  0.18079383816E+02  0.67690325044E+02  0.00000000000E+00 0.  1.
         13    1    4    4    0    0  0.33391703352E+02 -0.87334751719E+02  0.67340452697E+02  0.11522630464E+03  0.00000000000E+00 0. -1.
         21    1    1    2  503  502 -0.18999605595E+02  0.45409027189E+02  0.41131253967E+00  0.49225338404E+02  0.00000000000E+00 0.  1.
          1    1    1    2  501    0 -0.51710927374E+02  0.84649509942E+02 -0.53493347744E+03  0.54405274085E+03  0.00000000000E+00 0. -1.
<scales pt_clust_5="13000.00000" pt_clust_6="13000.00000" pt_clust_7="13000.00000" pt_clust_8="13000.00000" pt_clust_9="49.22362" pt_clust_10="100.26625"></scales>
<clustering>
<clus scale="   49.224">  1  9  2 -1</clus>
<clus scale="   80.123">  5  6 -1 -1</clus>
<clus scale="   87.378">  7  8 -1 -1</clus>
<clus scale="   90.428">  1  5  2 -1</clus>
<clus scale="  100.266">  2 10  1 -1</clus>
<clus scale="  100.266">  2  5  1 -1</clus>
</clustering>
</event>
<event>
10    4  0.3738096E-005  0.1186359E+03  0.7546771E-02  0.1251258E+00
         21   -1    0    0  503  502  0.00000000000E+00  0.00000000000E+00  0.36515922538E+03  0.36515922538E+03  0.00000000000E+00 0.  1.
         -1   -1    0    0    0  501 -0.00000000000E+00 -0.00000000000E+00 -0.13014329559E+03  0.13014329559E+03  0.00000000000E+00 0.  1.
         24    2    1    2    0    0  0.45320288803E+02 -0.19497605487E+02 -0.48431735981E+02  0.10874445751E+03  0.83938303480E+02 0.  0.
         23    2    1    2    0    0  0.42790493203E+02 -0.29837112143E+02  0.16569945111E+03  0.19578468526E+03  0.90299807934E+02 0.  0.
        -11    1    3    3    0    0  0.24385474247E+02  0.15721465695E+02 -0.59592400655E+02  0.66280238787E+02  0.00000000000E+00 0.  1.
         12    1    3    3    0    0  0.20934814556E+02 -0.35219071182E+02  0.11160664674E+02  0.42464218718E+02  0.00000000000E+00 0. -1.
        -13    1    4    4    0    0 -0.13889906181E+02 -0.35082158155E+02  0.28625376457E+02  0.47361371305E+02  0.00000000000E+00 0. -1.
         13    1    4    4    0    0  0.56680399384E+02  0.52450460125E+01  0.13707407466E+03  0.14842331395E+03  0.00000000000E+00 0.  1.
         21    1    1    2  503  501  0.15223350376E+02 -0.19673539872E+02  0.12048290243E+02  0.27639823906E+02  0.00000000000E+00 0.  1.
         -2    1    1    2    0  502 -0.10333413238E+03  0.69008257502E+02  0.10569992442E+03  0.16313355431E+03  0.00000000000E+00 0.  1.
<scales pt_clust_5="13000.00000" pt_clust_6="13000.00000" pt_clust_7="13000.00000" pt_clust_8="13000.00000" pt_clust_9="24.87566" pt_clust_10="76.94431"></scales>
<clustering>
<clus scale="   24.876">  2  9  1 -1</clus>
<clus scale="   83.938">  5  6 -1 -1</clus>
<clus scale="   90.300">  7  8 -1 -1</clus>
<clus scale="  105.424">  2  5  1 -1</clus>
<clus scale="   76.944">  1 10  2 -1</clus>
<clus scale="   76.944">  1  5  2 -1</clus>
</clustering>
</event>
<event>
10    4  0.3738096E-005  0.1727346E+03  0.7546771E-02  0.1175324E+00
          2   -1    0    0  503    0 -0.00000000000E+00  0.00000000000E+00  0.45453703416E+03  0.45453703416E+03  0.00000000000E+00 0. -1.
         21   -1    0    0  501  502  0.00000000000E+00 -0.00000000000E+00 -0.25599982440E+03  0.25599982440E+03  0.00000000000E+00 0. -1.
         23    2    1    2    0    0  0.41557613191E+02 -0.12654836444E+03  0.98487629604E+02  0.18938520630E+03  0.91790083467E+02 0.  0.
         24    2    1    2    0    0 -0.12006864553E+03  0.11027157691E+03  0.34314692782E+02  0.18915321219E+03  0.89583141424E+02 0.  0.
        -11    1    4    4    0    0 -0.49732434952E+02  0.34728179126E+02 -0.29862584670E+02  0.67610172865E+02  0.00000000000E+00 0.  1.
         12    1    4    4    0    0 -0.70336210578E+02  0.75543397782E+02  0.64177277452E+02  0.12154303932E+03  0.00000000000E+00 0. -1.
        -11    1    3    3    0    0  0.55099523982E+02 -0.78633196389E+02  0.10122330124E+03  0.13951807708E+03  0.00000000000E+00 0.  1.
         11    1    3    3    0    0 -0.13541910790E+02 -0.47915168051E+02 -0.27356716393E+01  0.49867129218E+02  0.00000000000E+00 0. -1.
         21    1    1    2  503  502  0.65124016503E+02 -0.64582252781E+01  0.19208281205E+03  0.20292523965E+03  0.00000000000E+00 0.  1.
          1    1    1    2  501    0  0.13387015836E+02  0.22735012810E+02 -0.12634792467E+03  0.12907320043E+03  0.00000000000E+00 0. -1.
<scales pt_clust_5="13000.00000" pt_clust_6="13000.00000" pt_clust_7="13000.00000" pt_clust_8="13000.00000" pt_clust_9="65.91936" pt_clust_10="26.38357"></scales>
<clustering>
<clus scale="   26.384">  2 10  1 -1</clus>
<clus scale="   65.919">  1  9  2 -1</clus>
<clus scale="   89.583">  5  6 -1 -1</clus>
<clus scale="   91.790">  7  8 -1 -1</clus>
<clus scale="  171.572">  2  5  1 -1</clus>
<clus scale="   26.384">  2  5  1 -1</clus>
</clustering>
</event>
<event>
10    4  0.3738096E-005  0.1288176E+03  0.7546771E-02  0.1241009E+00
         21   -1    0    0  503  502  0.00000000000E+00  0.00000000000E+00  0.41848638007E+03  0.41848638007E+03  0.00000000000E+00 0. -1.
         -1   -1    0    0    0  501 -0.00000000000E+00 -0.00000000000E+00 -0.24707688272E+03  0.24707688272E+03  0.00000000000E+00 0.  1.
         23    2    1    2    0    0  0.66155480364E+02  0.24393739772E+02  0.56725269897E+02  0.12772294761E+03  0.90132086283E+02 0.  0.
         24    2    1    2    0    0 -0.50587868430E+01  0.71263488277E+02 -0.86212435721E+01  0.10704847066E+03  0.79252590767E+02 0.  0.
        -13    1    4    4    0    0  0.20945519111E+02  0.76615713881E+02 -0.11839366177E+02  0.80304750643E+02  0.00000000000E+00 0.  1.
         14    1    4    4    0    0 -0.26004305954E+02 -0.53522256043E+01  0.32181226045E+01  0.26743720013E+02  0.00000000000E+00 0. -1.
        -11    1    3    3    0    0  0.68179784976E+02  0.52616388723E+02  0.41711409199E+02  0.95691217461E+02  0.00000000000E+00 0. -1.
         11    1    3    3    0    0 -0.20243046125E+01 -0.28222648951E+02  0.15013860698E+02  0.32031730144E+02  0.00000000000E+00 0.  1.
         21    1    1    2  503  501 -0.85778136944E+02  0.88617030537E+01 -0.12980587262E+03  0.15583960705E+03  0.00000000000E+00 0.  1.
         -2    1    1    2    0  502  0.24681443423E+02 -0.10451893110E+03  0.25311134365E+03  0.27495223747E+03  0.00000000000E+00 0.  1.
<scales pt_clust_5="13000.00000" pt_clust_6="13000.00000" pt_clust_7="13000.00000" pt_clust_8="13000.00000" pt_clust_9="86.23467" pt_clust_10="101.55300"></scales>
<clustering>
<clus scale="   79.253">  5  6 -1 -1</clus>
<clus scale="   86.235">  2  9  1 -1</clus>
<clus scale="   90.132">  7  8 -1 -1</clus>
<clus scale="  101.194">  2  7  1 -1</clus>
<clus scale="  101.553">  1 10  2 -1</clus>
<clus scale="  101.553">  1  5  2 -1</clus>
</clustering>
</event>
<event>
10    4  0.3738096E-005  0.1684983E+03  0.7546771E-02  0.1212741E+00
         21   -1    0    0  501  502  0.00000000000E+00  0.00000000000E+00  0.11627401686E+03  0.11627401686E+03  0.00000000000E+00 0. -1.
          2   -1    0    0  503    0 -0.00000000000E+00 -0.00000000000E+00 -0.13799298108E+04  0.13799298108E+04  0.00000000000E+00 0. -1.
         24    2    1    2    0    0 -0.75194537562E+01 -0.70159865827E+01  0.21053464225E+02  0.83992128251E+02  0.80657690270E+02 0.  0.
         23    2    1    2    0    0 -0.15987193391E+03  0.34504842061E+02 -0.94752944627E+03  0.96585164068E+03  0.91146699768E+02 0.  0.
        -13    1    3    3    0    0  0.13442505586E+02  0.32739682014E+02  0.28648697623E+01  0.35507678233E+02  0.00000000000E+00 0.  1.
         14    1    3    3    0    0 -0.20961959342E+02 -0.39755668596E+02  0.18188594463E+02  0.48484450018E+02  0.00000000000E+00 0. -1.
        -11    1    4    4    0    0 -0.20789811094E+02  0.42509412254E+02 -0.20802053396E+03  0.21333496882E+03  0.00000000000E+00 0.  1.
         11    1    4    4    0    0 -0.13908212282E+03 -0.80045701933E+01 -0.73950891232E+03  0.75251667186E+03  0.00000000000E+00 0. -1.
         21    1    1    2  503  502  0.35812621032E+02 -0.81239881863E+02 -0.27898894389E+03  0.29277515783E+03  0.00000000000E+00 0.  1.
          1    1    1    2  501    0  0.13157876663E+03  0.53751026385E+02 -0.58190868016E+02  0.15358490091E+03  0.00000000000E+00 0. -1.
<scales pt_clust_5="13000.00000" pt_clust_6="13000.00000" pt_clust_7="13000.00000" pt_clust_8="13000.00000" pt_clust_9="89.52492" pt_clust_10="141.71782"></scales>
<clustering>
<clus scale="   80.658">  5  6 -1 -1</clus>
<clus scale="   81.311">  2  5  1 -1</clus>
<clus scale="   89.525">  2  9  1 -1</clus>
<clus scale="   91.147">  7  8 -1 -1</clus>
<clus scale="  141.718">  1 10  2 -1</clus>
<clus scale="  141.718">  1  5  2 -1</clus>
</clustering>
</event>
<event>
10    4  0.3738096E-005  0.1021723E+03  0.7546771E-02  0.1278052E+00
         21   -1    0    0  501  502  0.00000000000E+00  0.00000000000E+00  0.51569454000E+02  0.51569454000E+02  0.00000000000E+00 0. -1.
          2   -1    0    0  503    0 -0.00000000000E+00 -0.00000000000E+00 -0.65841967257E+03  0.65841967257E+03  0.00000000000E+00 0. -1.
         23    2    1    2    0    0  0.49675048239E+02  0.53678430930E+01 -0.14172151094E+03  0.16922563471E+03  0.77819693038E+02 0.  0.
         24    2    1    2    0    0 -0.78835178865E+02  0.50326004740E+01 -0.86404800767E+02  0.14361823061E+03  0.83187102812E+02 0.  0.
        -13    1    4    4    0    0 -0.27082029361E+02  0.37779382311E+02 -0.62463966156E+02  0.77861833462E+02  0.00000000000E+00 0.  1.
         14    1    4    4    0    0 -0.51753149503E+02 -0.32746781837E+02 -0.23940834611E+02  0.65756397149E+02  0.00000000000E+00 0. -1.
        -11    1    3    3    0    0 -0.15905005392E+02 -0.15975299223E+02 -0.46235494537E+02  0.51438315845E+02  0.00000000000E+00 0. -1.
         11    1    3    3    0    0  0.65580053632E+02  0.21343142316E+02 -0.95486016399E+02  0.11778731887E+03  0.00000000000E+00 0.  1.
         21    1    1    2  503  502 -0.24802719627E+01 -0.40197204732E+02 -0.32750223032E+03  0.32996920748E+03  0.00000000000E+00 0. -1.
          1    1    1    2  501    0  0.31640402588E+02  0.29796761165E+02 -0.51221676541E+02  0.67176053766E+02  0.00000000000E+00 0. -1.
<scales pt_clust_5="13000.00000" pt_clust_6="13000.00000" pt_clust_7="13000.00000" pt_clust_8="13000.00000" pt_clust_9="40.27365" pt_clust_10="38.50891"></scales>
<clustering>
<clus scale="   40.274">  2  9  1 -1</clus>
<clus scale="   38.509">  1 10  2 -1</clus>
<clus scale="   77.820">  7  8 -1 -1</clus>
<clus scale="   83.187">  5  6 -1 -1</clus>
<clus scale="   97.852">  2  7  1 -1</clus>
<clus scale="   38.509">  1  5  2 -1</clus>
</clustering>
</event>
<event>
10    4  0.3738096E-005  0.2806855E+03  0.7546771E-02  0.1117183E+00
         21   -1    0    0  501  502  0.00000000000E+00  0.00000000000E+00  0.97550808994E+03  0.97550808994E+03  0.00000000000E+00 0. -1.
          2   -1    0    0  503    0 -0.00000000000E+00 -0.00000000000E+00 -0.26265723331E+03  0.26265723331E+03  0.00000000000E+00 0. -1.
         23    2    1    2    0    0 -0.79888881662E+02 -0.10680023779E+03  0.51252195344E+03  0.53697782395E+03  0.88757571252E+02 0.  0.
         24    2    1    2    0    0 -0.13044851526E+03 -0.13219286813E+03 -0.37363663262E+02  0.20589992530E+03  0.80665769598E+02 0.  0.
        -11    1    4    4    0    0 -0.54945839299E+02 -0.44893580873E+02 -0.54162082740E+02  0.89263710805E+02  0.00000000000E+00 0.  1.
         12    1    4    4    0    0 -0.75502675965E+02 -0.87299287258E+02  0.16798419478E+02  0.11663621449E+03  0.00000000000E+00 0. -1.
        -13    1    3    3    0    0 -0.88568325445E+02 -0.52199763596E+02  0.28974325235E+03  0.30744156498E+03  0.00000000000E+00 0. -1.
         13    1    3    3    0    0  0.86794437837E+01 -0.54600474198E+02  0.22277870109E+03  0.22953625898E+03  0.00000000000E+00 0.  1.
         21    1    1    2  503  502  0.20830161633E+02 -0.14743435752E+02 -0.57150481003E+02  0.62589472040E+02  0.00000000000E+00 0. -1.
          1    1    1    2  501    0  0.18950723529E+03  0.25373654168E+03  0.29484304745E+03  0.43269810196E+03  0.00000000000E+00 0. -1.
<scales pt_clust_5="13000.00000" pt_clust_6="13000.00000" pt_clust_7="13000.00000" pt_clust_8="13000.00000" pt_clust_9="25.51989" pt_clust_10="268.84449"></scales>
<clustering>
<clus scale="   25.520">  2  9  1 -1</clus>
<clus scale="   80.666">  5  6 -1 -1</clus>
<clus scale="   88.758">  7  8 -1 -1</clus>
<clus scale="  160.181">  2  7  1 -1</clus>
<clus scale="  268.844">  1 10  2 -1</clus>
<clus scale="  268.844">  1  5  2 -1</clus>
</clustering>
</event>
<event>
10    4  0.3738096E-005  0.1093814E+03  0.7546771E-02  0.1265065E+00
         21   -1    0    0  501  502  0.00000000000E+00  0.00000000000E+00  0.12022562129E+03  0.12022562129E+03  0.00000000000E+00 0.  1.
          2   -1    0    0  503    0 -0.00000000000E+00 -0.00000000000E+00 -0.52580728523E+03  0.52580728523E+03  0.00000000000E+00 0. -1.
         24    2    1    2    0    0  0.44416212372E+02  0.35599552057E+02 -0.12521104503E+03  0.15912177747E+03  0.80011288200E+02 0.  0.
         23    2    1    2    0    0 -0.70621228063E+02  0.28761658330E+01  0.47742867410E+02  0.12305860615E+03  0.88704052765E+02 0.  0.
        -13    1    3    3    0    0  0.96412347147E+01 -0.20662501070E+02 -0.73257850817E+01  0.23949101953E+02  0.00000000000E+00 0.  1.
         14    1    3    3    0    0  0.34774977657E+02  0.56262053128E+02 -0.11788525994E+03  0.13517267551E+03  0.00000000000E+00 0. -1.
        -13    1    4    4    0    0 -0.89486513981E+02 -0.58424682799E+01  0.49087101826E+02  0.10223264736E+03  0.00000000000E+00 0.  1.
         13    1    4    4    0    0  0.18865285919E+02  0.87186341129E+01 -0.13442344160E+01  0.20825958795E+02  0.00000000000E+00 0. -1.
         21    1    1    2  503  502  0.50848137409E+02 -0.76259936186E+02 -0.12051785499E+03  0.15141223305E+03  0.00000000000E+00 0.  1.
          1    1    1    2  501    0 -0.24643121718E+02  0.37784218296E+02 -0.20759563133E+03  0.21244028984E+03  0.00000000000E+00 0. -1.
<scales pt_clust_5="13000.00000" pt_clust_6="13000.00000" pt_clust_7="13000.00000" pt_clust_8="13000.00000" pt_clust_9="85.74274" pt_clust_10="45.11023"></scales>
<clustering>
<clus scale="   45.110">  1 10  2 -1</clus>
<clus scale="   80.011">  5  6 -1 -1</clus>
<clus scale="   85.743">  2  9  1 -1</clus>
<clus scale="   88.704">  7  8 -1 -1</clus>
<clus scale="  102.458">  2  5  1 -1</clus>
<clus scale="   45.110">  1  5  2 -1</clus>
</clustering>
</event>
<event>
10    4  0.3738096E-005  0.9912185E+02  0.7546771E-02  0.1288426E+00
         21   -1    0    0  503  502  0.00000000000E+00  0.00000000000E+00  0.25670651199E+03  0.25670651199E+03  0.00000000000E+00 0. -1.
         -1   -1    0    0    0  501 -0.00000000000E+00 -0.00000000000E+00 -0.19400298410E+03  0.19400298410E+03  0.00000000000E+00 0.  1.
         24    2    1    2    0    0 -0.40344608338E+00 -0.30304588318E+02 -0.68419000922E+02  0.10951677279E+03  0.79963948089E+02 0.  0.
         23    2    1    2    0    0  0.35000312198E+01  0.22339226218E+02  0.19394252344E+03  0.21584802351E+03  0.92007475830E+02 0.  0.
        -11    1    3    3    0    0  0.36725067962E+02 -0.23572503760E+02 -0.53251742466E+02  0.68848686451E+02  0.00000000000E+00 0.  1.
         12    1    3    3    0    0 -0.37128514045E+02 -0.67320845585E+01 -0.15167258456E+02  0.40668086342E+02  0.00000000000E+00 0. -1.
        -13    1    4    4    0    0 -0.22835591222E+02 -0.26073628375E+02  0.43444357296E+02  0.55576168490E+02  0.00000000000E+00 0.  1.
         13    1    4    4    0    0  0.26335622442E+02  0.48412854593E+02  0.15049816614E+03  0.16027185502E+03  0.00000000000E+00 0. -1.
         21    1    1    2  503  501  0.20816419730E+02 -0.59590251839E+01 -0.86348803247E+02  0.89022183380E+02  0.00000000000E+00 0. -1.
         -2    1    1    2    0  502 -0.23913004867E+02  0.13924387284E+02  0.23528808628E+02  0.36322516411E+02  0.00000000000E+00 0.  1.
<scales pt_clust_5="13000.00000" pt_clust_6="13000.00000" pt_clust_7="13000.00000" pt_clust_8="13000.00000" pt_clust_9="21.65256" pt_clust_10="26.41083"></scales>
<clustering>
<clus scale="   21.653">  2  9  1 -1</clus>
<clus scale="   26.411">  1 10  2 -1</clus>
<clus scale="   79.964">  5  6 -1 -1</clus>
<clus scale="   88.057">  2  5  1 -1</clus>
<clus scale="   92.007">  7  8 -1 -1</clus>
<clus scale="   26.411">  1  5  2 -1</clus>
</clustering>
</event>
<event>
10    4  0.3738096E-005  0.1420493E+03  0.7546771E-02  0.1227860E+00
          2   -1    0    0  503    0 -0.00000000000E+00  0.00000000000E+00  0.29675060662E+03  0.29675060662E+03  0.00000000000E+00 0. -1.
         21   -1    0    0  501  502  0.00000000000E+00 -0.00000000000E+00 -0.28219882467E+03  0.28219882467E+03  0.00000000000E+00 0. -1.
         24    2    1    2    0    0 -0.39474222245E+02 -0.46164522087E+02  0.17903859075E+03  0.20535277193E+03  0.80159632243E+02 0.  0.
         23    2    1    2    0    0  0.28345376879E+01  0.10332994727E+03 -0.58365390710E+02  0.14897677455E+03  0.90013598515E+02 0.  0.
        -11    1    3    3    0    0  0.15221396302E+02 -0.31635967616E+02  0.30887382525E+02  0.46760621806E+02  0.00000000000E+00 0.  1.
         12    1    3    3    0    0 -0.54695618548E+02 -0.14528554471E+02  0.14815120823E+03  0.15859215013E+03  0.00000000000E+00 0. -1.
        -11    1    4    4    0    0  0.46051827962E+02  0.53221252468E+02 -0.23614023128E+02  0.74235400323E+02  0.00000000000E+00 0.  1.
         11    1    4    4    0    0 -0.43217290274E+02  0.50108694798E+02 -0.34751367582E+02  0.74741374230E+02  0.00000000000E+00 0. -1.
         21    1    1    2  503  502 -0.12205542925E+01  0.67215091989E+02 -0.45428100623E+02  0.81136124322E+02  0.00000000000E+00 0. -1.
          1    1    1    2  501    0  0.37860238850E+02 -0.12438051717E+03 -0.60693317465E+02  0.14348376048E+03  0.00000000000E+00 0. -1.
<scales pt_clust_5="13000.00000" pt_clust_6="13000.00000" pt_clust_7="13000.00000" pt_clust_8="13000.00000" pt_clust_9="67.22617" pt_clust_10="109.88879"></scales>
<clustering>
<clus scale="   67.226">  2  9  1 -1</clus>
<clus scale="   80.160">  5  6 -1 -1</clus>
<clus scale="   90.014">  7  8 -1 -1</clus>
<clus scale="   98.813">  1  5  2 -1</clus>
<clus scale="  109.889">  2 10  1 -1</clus>
<clus scale="   67.226">  2  5  1 -1</clus>
</clustering>
</event>
<event>
10    4  0.3738096E-005  0.1561566E+03  0.7546771E-02  0.1195292E+00
         21   -1    0    0  501  502  0.00000000000E+00  0.00000000000E+00  0.15108778125E+03  0.15108778125E+03  0.00000000000E+00 0. -1.
          2   -1    0    0  503    0 -0.00000000000E+00 -0.00000000000E+00 -0.57044295358E+03  0.57044295358E+03  0.00000000000E+00 0. -1.
         24    2    1    2    0    0 -0.10030584477E+03 -0.11423618727E+03 -0.16795433110E+03  0.23999035608E+03  0.79218335639E+02 0.  0.
         23    2    1    2    0    0  0.13177478236E+03 -0.30034635419E+02 -0.74460637416E+02  0.17976857788E+03  0.92226256994E+02 0.  0.
        -11    1    3    3    0    0 -0.16032354562E+02 -0.30647210285E+02 -0.32192744059E+00  0.34588893135E+02  0.00000000000E+00 0.  1.
         12    1    3    3    0    0 -0.84273490204E+02 -0.83588976985E+02 -0.16763240365E+03  0.20540146294E+03  0.00000000000E+00 0. -1.
        -13    1    4    4    0    0  0.10338031060E+03 -0.85682500862E+01 -0.75874411785E+01  0.10401188774E+03  0.00000000000E+00 0. -1.
         13    1    4    4    0    0  0.28394471766E+02 -0.21466385333E+02 -0.66873196237E+02  0.75756690141E+02  0.00000000000E+00 0.  1.
         21    1    1    2  503  502 -0.30753953198E+02  0.65450182946E+02 -0.20556291720E+03  0.21791201209E+03  0.00000000000E+00 0. -1.
          1    1    1    2  501    0 -0.71498439749E+00  0.78820639743E+02  0.28622713379E+02  0.83859788775E+02  0.00000000000E+00 0. -1.
<scales pt_clust_5="13000.00000" pt_clust_6="13000.00000" pt_clust_7="13000.00000" pt_clust_8="13000.00000" pt_clust_9="72.31550" pt_clust_10="83.91663"></scales>
<clustering>
<clus scale="   72.316">  2  9  1 -1</clus>
<clus scale="   79.218">  5  6 -1 -1</clus>
<clus scale="   83.917">  1 10  2 -1</clus>
<clus scale="   92.226">  7  8 -1 -1</clus>
<clus scale="  148.845">  2  5  1 -1</clus>
<clus scale="   83.917">  1  5  2 -1</clus>
</clustering>
</event>
<event>
10    4  0.3738096E-005  0.9424829E+02  0.7546771E-02  0.1303700E+00
         21   -1    0    0  501  502  0.00000000000E+00  0.00000000000E+00  0.13023593429E+03  0.13023593429E+03  0.00000000000E+00 0. -1.
          2   -1    0    0  503    0 -0.00000000000E+00 -0.00000000000E+00 -0.30919888505E+03  0.30919888505E+03  0.00000000000E+00 0. -1.
         24    2    1    2    0    0 -0.25820726291E+02 -0.90799204252E+01 -0.41551887951E+02  0.91435983615E+02  0.76712612042E+02 0.  0.
         23    2    1    2    0    0  0.24803837340E+01  0.30586821787E+02  0.26881924214E+02  0.10236273639E+03  0.93881765964E+02 0.  0.
        -11    1    3    3    0    0 -0.17367401319E+02 -0.25982261163E+02  0.12890845963E+02  0.33806485079E+02  0.00000000000E+00 0.  1.
         12    1    3    3    0    0 -0.84533249720E+01  0.16902340738E+02 -0.54442733914E+02  0.57629498536E+02  0.00000000000E+00 0. -1.
        -11    1    4    4    0    0  0.27123372534E+02 -0.25127353920E+02  0.16806871186E+02  0.40614433047E+02  0.00000000000E+00 0.  1.
         11    1    4    4    0    0 -0.24642988800E+02  0.55714175707E+02  0.10075053027E+02  0.61748303339E+02  0.00000000000E+00 0. -1.
         21    1    1    2  503  502  0.42086269418E+02  0.37723992789E+02 -0.17382494685E+03  0.18278256441E+03  0.00000000000E+00 0. -1.
          1    1    1    2  501    0 -0.18745926862E+02 -0.59230894151E+02  0.95319598237E+01  0.62853534935E+02  0.00000000000E+00 0. -1.
<scales pt_clust_5="13000.00000" pt_clust_6="13000.00000" pt_clust_7="13000.00000" pt_clust_8="13000.00000" pt_clust_9="56.51861" pt_clust_10="52.54165"></scales>
<clustering>
<clus scale="   56.519">  2  9  1 -1</clus>
<clus scale="   52.542">  1 10  2 -1</clus>
<clus scale="   76.713">  5  6 -1 -1</clus>
<clus scale="   77.161">  2  5  1 -1</clus>
<clus scale="   93.882">  7  8 -1 -1</clus>
<clus scale="   52.542">  1  5  2 -1</clus>
</clustering>
</event>
<event>
10    4  0.3738096E-005  0.3678893E+03  0.7546771E-02  0.1101940E+00
         21   -1    0    0  501  502  0.00000000000E+00  0.00000000000E+00  0.12870830551E+04  0.12870830551E+04  0.00000000000E+00 0.  1.
          2   -1    0    0  503    0 -0.00000000000E+00 -0.00000000000E+00 -0.49553985089E+03  0.49553985089E+03  0.00000000000E+00 0. -1.
         23    2    1    2    0    0  0.43511152283E+02 -0.47304204840E+02 -0.15740919676E+03  0.19276115555E+03  0.90820150270E+02 0.  0.
         24    2    1    2    0    0 -0.34849939631E+03  0.11463783783E+03  0.10081472305E+04  0.10757672449E+04  0.79502601991E+02 0.  0.
        -11    1    4    4    0    0 -0.35217493825E+03  0.11061103931E+03  0.10000755138E+04  0.10660267456E+04  0.00000000000E+00 0.  1.
         12    1    4    4    0    0  0.36755419398E+01  0.40267985189E+01  0.80717166936E+01  0.97404992297E+01  0.00000000000E+00 0. -1.
        -11    1    3    3    0    0  0.66738492222E+02 -0.53106760135E+02 -0.13660193721E+03  0.16104174480E+03  0.00000000000E+00 0.  1.
         11    1    3    3    0    0 -0.23227339940E+02  0.58025552953E+01 -0.20807259541E+02  0.31719410749E+02  0.00000000000E+00 0. -1.
         21    1    1    2  503  502 -0.16973765825E+02  0.14510674086E+02 -0.16418510843E+03  0.16569676587E+03  0.00000000000E+00 0. -1.
          1    1    1    2  501    0  0.32196200985E+03 -0.81844307075E+02  0.10499027897E+03  0.34839773975E+03  0.00000000000E+00 0. -1.
<scales pt_clust_5="13000.00000" pt_clust_6="13000.00000" pt_clust_7="13000.00000" pt_clust_8="13000.00000" pt_clust_9="22.33088" pt_clust_10="359.19628"></scales>
<clustering>
<clus scale="   22.331">  2  9  1 -1</clus>
<clus scale="   79.503">  5  6 -1 -1</clus>
<clus scale="   90.820">  7  8 -1 -1</clus>
<clus scale="  104.927">  2  7  1 -1</clus>
<clus scale="  359.196">  1 10  2 -1</clus>
<clus scale="  359.196">  1  5  2 -1</clus>
</clustering>
</event>
<event>
10    4  0.3738096E-005  0.1220808E+03  0.7546771E-02  0.1241944E+00
          2   -1    0    0  503    0 -0.00000000000E+00  0.00000000000E+00  0.21551527797E+03  0.21551527797E+03  0.00000000000E+00 0. -1.
         21   -1    0    0  501  502  0.00000000000E+00 -0.00000000000E+00 -0.24538481178E+03  0.24538481178E+03  0.00000000000E+00 0.  1.
         23    2    1    2    0    0 -0.26327139168E+02  0.10606619153E+03 -0.49780659483E+02  0.14893741592E+03  0.88097017881E+02 0.  0.
         24    2    1    2    0    0 -0.17713785439E+02 -0.63795543837E+02 -0.11112286740E+03  0.15230988441E+03  0.80413678075E+02 0.  0.
        -11    1    4    4    0    0 -0.42142726829E+01 -0.59866295342E+02 -0.12104203621E+03  0.13510332321E+03  0.00000000000E+00 0.  1.
         12    1    4    4    0    0 -0.13499512756E+02 -0.39292484950E+01  0.99191688114E+01  0.17206561199E+02  0.00000000000E+00 0. -1.
        -13    1    3    3    0    0  0.21107412821E+02  0.27756752239E+02 -0.45441660102E+02  0.57279181590E+02  0.00000000000E+00 0. -1.
         13    1    3    3    0    0 -0.47434551988E+02  0.78309439293E+02 -0.43389993805E+01  0.91658234329E+02  0.00000000000E+00 0.  1.
         21    1    1    2  503  502  0.12791755626E+02 -0.23597400672E+02  0.11795627967E+03  0.12097169191E+03  0.00000000000E+00 0. -1.
          1    1    1    2  501    0  0.31249168980E+02 -0.18673247024E+02  0.13077713401E+02  0.38681097504E+02  0.00000000000E+00 0. -1.
<scales pt_clust_5="13000.00000" pt_clust_6="13000.00000" pt_clust_7="13000.00000" pt_clust_8="13000.00000" pt_clust_9="26.84150" pt_clust_10="42.78262"></scales>
<clustering>
<clus scale="   26.842">  1  9  2 -1</clus>
<clus scale="   42.783">  2 10  1 -1</clus>
<clus scale="   80.414">  5  6 -1 -1</clus>
<clus scale="   88.097">  7  8 -1 -1</clus>
<clus scale="  116.658">  2  5  1 -1</clus>
<clus scale="   42.783">  2  5  1 -1</clus>
</clustering>
</event>
<event>
10    4  0.3738096E-005  0.2906998E+03  0.7546771E-02  0.1090403E+00
         21   -1    0    0  501  502  0.00000000000E+00  0.00000000000E+00  0.11481998305E+04  0.11481998305E+04  0.00000000000E+00 0. -1.
          2   -1    0    0  503    0 -0.00000000000E+00 -0.00000000000E+00 -0.26517152724E+03  0.26517152724E+03  0.00000000000E+00 0. -1.
         24    2    1    2    0    0 -0.12836313312E+03  0.22244257366E+03  0.90825943142E+02  0.28425546809E+03  0.81203612419E+02 0.  0.
         23    2    1    2    0    0  0.11181682266E+03 -0.22454241294E+03  0.51085369844E+03  0.57648693214E+03  0.91887891931E+02 0.  0.
        -13    1    3    3    0    0 -0.89171954807E+02  0.79726233469E+02  0.56693296402E+02  0.13237084152E+03  0.00000000000E+00 0.  1.
         14    1    3    3    0    0 -0.39191178313E+02  0.14271634019E+03  0.34132646740E+02  0.15188462657E+03  0.00000000000E+00 0. -1.
        -11    1    4    4    0    0  0.65325578017E+02 -0.20079786532E+03  0.44410473697E+03  0.49174813803E+03  0.00000000000E+00 0.  1.
         11    1    4    4    0    0  0.46491244640E+02 -0.23744547618E+02  0.66748961477E+02  0.84738794114E+02  0.00000000000E+00 0. -1.
         21    1    1    2  503  502 -0.15041947363E+02  0.50574590109E+02 -0.12839836588E+03  0.13881710884E+03  0.00000000000E+00 0. -1.
          1    1    1    2  501    0  0.31588257827E+02 -0.48474750834E+02  0.40974702751E+03  0.41381184862E+03  0.00000000000E+00 0. -1.
<scales pt_clust_5="13000.00000" pt_clust_6="13000.00000" pt_clust_7="13000.00000" pt_clust_8="13000.00000" pt_clust_9="52.76409" pt_clust_10="57.07766"></scales>
<clustering>
<clus scale="   52.764">  2  9  1 -1</clus>
<clus scale="   57.078">  1 10  2 -1</clus>
<clus scale="   81.204">  5  6 -1 -1</clus>
<clus scale="   91.888">  7  8 -1 -1</clus>
<clus scale="  287.501">  2  5  1 -1</clus>
<clus scale="   57.078">  1  5  2 -1</clus>
</clustering>
</event>
<event>
10    4  0.3738096E-005  0.3620559E+03  0.7546771E-02  0.1112912E+00
          2   -1    0    0  503    0 -0.00000000000E+00  0.00000000000E+00  0.87246462128E+03  0.87246462128E+03  0.00000000000E+00 0. -1.
         21   -1    0    0  501  502  0.00000000000E+00 -0.00000000000E+00 -0.22202252196E+03  0.22202252196E+03  0.00000000000E+00 0. -1.
         24    2    1    2    0    0  0.82100832271E+01  0.18639573011E+02  0.13962694987E+03  0.16176533461E+03  0.79104356405E+02 0.  0.
         23    2    1    2    0    0  0.14624849893E+03  0.29178461226E+03  0.23261426429E+03  0.41100737134E+03  0.91053720176E+02 0.  0.
        -11    1    3    3    0    0 -0.33380131409E+02  0.68265217132E+01  0.88359955245E+02  0.94701194620E+02  0.00000000000E+00 0.  1.
         12    1    3    3    0    0  0.41590214636E+02  0.11813051298E+02  0.51266994625E+02  0.67064139988E+02  0.00000000000E+00 0. -1.
        -13    1    4    4    0    0  0.10774392710E+03  0.15017473972E+03  0.87027389510E+02  0.20429139189E+03  0.00000000000E+00 0. -1.
         13    1    4    4    0    0  0.38504571830E+02  0.14160987253E+03  0.14558687478E+03  0.20671597945E+03  0.00000000000E+00 0.  1.
         21    1    1    2  503  502  0.65507992078E-02  0.28067770254E+02  0.10976076119E+03  0.11329264966E+03  0.00000000000E+00 0. -1.
          1    1    1    2  501    0 -0.15446513295E+03 -0.33849195552E+03  0.16844012398E+03  0.40842178764E+03  0.00000000000E+00 0. -1.
<scales pt_clust_5="13000.00000" pt_clust_6="13000.00000" pt_clust_7="13000.00000" pt_clust_8="13000.00000" pt_clust_9="28.06777" pt_clust_10="350.41933"></scales>
<clustering>
<clus scale="   28.068">  1  9  2 -1</clus>
<clus scale="   79.104">  5  6 -1 -1</clus>
<clus scale="   83.129">  1  5  2 -1</clus>
<clus scale="   91.054">  7  8 -1 -1</clus>
<clus scale="  350.419">  2 10  1 -1</clus>
<clus scale="  350.419">  2  5  1 -1</clus>
</clustering>
</event>
<event>
10    4  0.3738096E-005  0.1194813E+03  0.7546771E-02  0.1250844E+00
         21   -1    0    0  501  502  0.00000000000E+00  0.00000000000E+00  0.10546636896E+04  0.10546636896E+04  0.00000000000E+00 0.  1.
          2   -1    0    0  503    0 -0.00000000000E+00 -0.00000000000E+00 -0.67015563506E+02  0.67015563506E+02  0.00000000000E+00 0. -1.
         23    2    1    2    0    0  0.79569826806E+02 -0.33770798147E+02  0.43942502931E+02  0.13878403921E+03  0.99288679259E+02 0.  0.
         24    2    1    2    0    0 -0.37784912462E+02 -0.29248275688E+02  0.16423662189E+03  0.18885830585E+03  0.80066412909E+02 0.  0.
        -11    1    4    4    0    0  0.20639632531E+02  0.51090762990E+01  0.18711163574E+02  0.28323218990E+02  0.00000000000E+00 0.  1.
         12    1    4    4    0    0 -0.58424544993E+02 -0.34357351987E+02  0.14552545832E+03  0.16053508686E+03  0.00000000000E+00 0. -1.
        -13    1    3    3    0    0  0.70298182935E+02  0.20947409762E+02  0.10801696218E+02  0.74143813909E+02  0.00000000000E+00 0. -1.
         13    1    3    3    0    0  0.92716438709E+01 -0.54718207909E+02  0.33140806713E+02  0.64640225297E+02  0.00000000000E+00 0.  1.
         21    1    1    2  503  502 -0.31880393091E+02  0.89463201660E+02  0.73663674878E+03  0.74273395208E+03  0.00000000000E+00 0.  1.
          1    1    1    2  501    0 -0.99045212534E+01 -0.26444127824E+02  0.42832252443E+02  0.51302955929E+02  0.00000000000E+00 0. -1.
<scales pt_clust_5="13000.00000" pt_clust_6="13000.00000" pt_clust_7="13000.00000" pt_clust_8="13000.00000" pt_clust_9="80.24886" pt_clust_10="28.23813"></scales>
<clustering>
<clus scale="   28.238">  1 10  2 -1</clus>
<clus scale="   80.066">  5  6 -1 -1</clus>
<clus scale="   80.249">  1  9  2 -1</clus>
<clus scale="   99.289">  7  8 -1 -1</clus>
<clus scale="  104.058">  1  5  2 -1</clus>
<clus scale="   28.238">  1  5  2 -1</clus>
</clustering>
</event>
<event>
10    4  0.3738096E-005  0.8617135E+02  0.7546771E-02  0.1312541E+00
         -1   -1    0    0    0  501 -0.00000000000E+00  0.00000000000E+00  0.60219444644E+03  0.60219444644E+03  0.00000000000E+00 0.  1.
         21   -1    0    0  503  502  0.00000000000E+00 -0.00000000000E+00 -0.55048444248E+02  0.55048444248E+02  0.00000000000E+00 0.  1.
         23    2    1    2    0    0  0.17787006628E+02  0.60295461064E+02  0.28804052463E+03  0.30626934132E+03  0.82955683207E+02 0.  0.
         24    2    1    2    0    0 -0.78907957627E+01  0.73948884025E+01  0.29935779455E+02  0.89068989634E+02  0.83187649267E+02 0.  0.
        -13    1    4    4    0    0 -0.38792931796E+02 -0.19041771050E+02  0.15948078908E+02  0.46063237217E+02  0.00000000000E+00 0.  1.
         14    1    4    4    0    0  0.30902136033E+02  0.26436659452E+02  0.13987700547E+02  0.43005752417E+02  0.00000000000E+00 0. -1.
        -11    1    3    3    0    0 -0.14364489174E+02  0.68922337498E+02  0.20759198916E+03  0.21920552256E+03  0.00000000000E+00 0.  1.
         11    1    3    3    0    0  0.32151495802E+02 -0.86268764340E+01  0.80448535463E+02  0.87063818762E+02  0.00000000000E+00 0. -1.
         21    1    1    2  503  501 -0.50995034668E+02 -0.42889245698E+02  0.18514662914E+03  0.19677208958E+03  0.00000000000E+00 0.  1.
         -2    1    1    2    0  502  0.41098823803E+02 -0.24801103769E+02  0.44023068974E+02  0.65132470151E+02  0.00000000000E+00 0.  1.
<scales pt_clust_5="13000.00000" pt_clust_6="13000.00000" pt_clust_7="13000.00000" pt_clust_8="13000.00000" pt_clust_9="64.88165" pt_clust_10="48.00217"></scales>
<clustering>
<clus scale="   48.002">  2 10  1 -1</clus>
<clus scale="   64.882">  1  9  2 -1</clus>
<clus scale="   82.956">  7  8 -1 -1</clus>
<clus scale="   83.188">  5  6 -1 -1</clus>
<clus scale="   85.947">  1  7  2 -1</clus>
<clus scale="   48.002">  2  5  1 -1</clus>
</clustering>
</event>
<event>
10    4  0.3738096E-005  0.1073396E+03  0.7546771E-02  0.1270027E+00
         -1   -1    0    0    0  501 -0.00000000000E+00  0.00000000000E+00  0.11642456490E+03  0.11642456490E+03  0.00000000000E+00 0.  1.
         21   -1    0    0  503  502  0.00000000000E+00 -0.00000000000E+00 -0.70444575877E+03  0.70444575877E+03  0.00000000000E+00 0.  1.
         23    2    1    2    0    0 -0.19840792430E+02  0.41434441145E+02  0.60749604056E+02  0.12043922177E+03  0.93298562641E+02 0.  0.
         24    2    1    2    0    0  0.95862314630E+02 -0.40204514278E+02 -0.32137180214E+03  0.34779727926E+03  0.82928438522E+02 0.  0.
        -11    1    4    4    0    0  0.76613209167E+02  0.11233750860E+02 -0.20433613672E+03  0.21851553205E+03  0.00000000000E+00 0.  1.
         12    1    4    4    0    0  0.19249105462E+02 -0.51438265138E+02 -0.11703566542E+03  0.12928174721E+03  0.00000000000E+00 0. -1.
        -13    1    3    3    0    0 -0.30891721268E+02  0.65244360115E+02  0.60500911707E+02  0.94188562401E+02  0.00000000000E+00 0.  1.
         13    1    3    3    0    0  0.11050928838E+02 -0.23809918970E+02  0.24869234886E+00  0.26250659371E+02  0.00000000000E+00 0. -1.
         21    1    1    2  503  501 -0.24086855208E+02 -0.30829916261E+02 -0.30040679944E+02  0.49326491685E+02  0.00000000000E+00 0.  1.
         -2    1    1    2    0  502 -0.51934666991E+02  0.29599989393E+02 -0.29735831585E+03  0.30330733095E+03  0.00000000000E+00 0.  1.
<scales pt_clust_5="13000.00000" pt_clust_6="13000.00000" pt_clust_7="13000.00000" pt_clust_8="13000.00000" pt_clust_9="39.12365" pt_clust_10="59.94504"></scales>
<clustering>
<clus scale="   39.124">  1  9  2 -1</clus>
<clus scale="   59.945">  2 10  1 -1</clus>
<clus scale="   82.928">  5  6 -1 -1</clus>
<clus scale="   93.299">  7  8 -1 -1</clus>
<clus scale="   98.460">  2  5  1 -1</clus>
<clus scale="   59.945">  2  5  1 -1</clus>
</clustering>
</event>
<event>
10    4  0.3738096E-005  0.1333463E+03  0.7546771E-02  0.1246953E+00
          2   -1    0    0  503    0 -0.00000000000E+00  0.00000000000E+00  0.25479864224E+03  0.25479864224E+03  0.00000000000E+00 0. -1.
         21   -1    0    0  501  502  0.00000000000E+00 -0.00000000000E+00 -0.68319496001E+03  0.68319496001E+03  0.00000000000E+00 0. -1.
         24    2    1    2    0    0  0.76923592526E+01 -0.33143942464E+01 -0.52348562172E+02  0.96024719403E+02  0.80063831877E+02 0.  0.
         23    2    1    2    0    0  0.68191392733E+02  0.78307270467E+01  0.11679667683E+03  0.16287325115E+03  0.90414854382E+02 0.  0.
        -13    1    3    3    0    0  0.24004491079E+02 -0.15844045771E+02 -0.65550943481E+02  0.71583347013E+02  0.00000000000E+00 0.  1.
         14    1    3    3    0    0 -0.16312131826E+02  0.12529651524E+02  0.13202381309E+02  0.24441372389E+02  0.00000000000E+00 0. -1.
        -13    1    4    4    0    0  0.27983841686E+02  0.21292229616E+02 -0.34862395730E+01  0.35335652023E+02  0.00000000000E+00 0.  1.
         13    1    4    4    0    0  0.40207551047E+02 -0.13461502570E+02  0.12028291641E+03  0.12753759913E+03  0.00000000000E+00 0. -1.
         21    1    1    2  503  502  0.22795109830E+02 -0.11510077567E+02  0.87104153436E+02  0.90770217933E+02  0.00000000000E+00 0. -1.
          1    1    1    2  501    0 -0.98678861815E+02  0.69937447671E+01 -0.57994858586E+03  0.58832541376E+03  0.00000000000E+00 0. -1.
<scales pt_clust_5="13000.00000" pt_clust_6="13000.00000" pt_clust_7="13000.00000" pt_clust_8="13000.00000" pt_clust_9="25.53623" pt_clust_10="98.01220"></scales>
<clustering>
<clus scale="   25.536">  1  9  2 -1</clus>
<clus scale="   80.064">  5  6 -1 -1</clus>
<clus scale="   80.919">  1  5  2 -1</clus>
<clus scale="   90.415">  7  8 -1 -1</clus>
<clus scale="   98.012">  2 10  1 -1</clus>
<clus scale="   98.012">  2  5  1 -1</clus>
</clustering>
</event>
<event>
10    4  0.3738096E-005  0.1584092E+03  0.7546771E-02  0.1218298E+00
         21   -1    0    0  501  502  0.00000000000E+00  0.00000000000E+00  0.76483984681E+03  0.76483984681E+03  0.00000000000E+00 0. -1.
          2   -1    0    0  503    0 -0.00000000000E+00 -0.00000000000E+00 -0.10041546024E+03  0.10041546024E+03  0.00000000000E+00 0. -1.
         23    2    1    2    0    0  0.10727112056E+02  0.53842781503E+01  0.10048371130E+03  0.13269374002E+03  0.85828847249E+02 0.  0.
         24    2    1    2    0    0  0.63408460009E+02 -0.11121513038E+03  0.39195296579E+03  0.41990555175E+03  0.79398406619E+02 0.  0.
        -13    1    4    4    0    0  0.62669542916E+02 -0.51708549837E+02  0.29641533721E+03  0.30734882116E+03  0.00000000000E+00 0.  1.
         14    1    4    4    0    0  0.73891709224E+00 -0.59506580543E+02  0.95537628576E+02  0.11255673059E+03  0.00000000000E+00 0. -1.
        -11    1    3    3    0    0 -0.22810453144E+02  0.17309280016E+02  0.91650522581E+02  0.96019509667E+02  0.00000000000E+00 0.  1.
         11    1    3    3    0    0  0.33537565200E+02 -0.11925001866E+02  0.88331887150E+01  0.36674230352E+02  0.00000000000E+00 0. -1.
         21    1    1    2  503  502  0.11884237637E+02 -0.21005283826E+02 -0.42600181090E+02  0.48961540843E+02  0.00000000000E+00 0. -1.
          1    1    1    2  501    0 -0.86019809702E+02  0.12683613606E+03  0.21458789058E+03  0.26369447445E+03  0.00000000000E+00 0. -1.
<scales pt_clust_5="13000.00000" pt_clust_6="13000.00000" pt_clust_7="13000.00000" pt_clust_8="13000.00000" pt_clust_9="24.13415" pt_clust_10="137.07436"></scales>
<clustering>
<clus scale="   24.134">  2  9  1 -1</clus>
<clus scale="   79.398">  5  6 -1 -1</clus>
<clus scale="   85.829">  7  8 -1 -1</clus>
<clus scale="   87.004">  2  7  1 -1</clus>
<clus scale="  137.074">  1 10  2 -1</clus>
<clus scale="  137.074">  1  5  2 -1</clus>
</clustering>
</event>
<event>
10    4  0.3738096E-005  0.1987405E+03  0.7546771E-02  0.1151922E+00
          2   -1    0    0  503    0 -0.00000000000E+00  0.00000000000E+00  0.80200981074E+03  0.80200981074E+03  0.00000000000E+00 0. -1.
         21   -1    0    0  501  502  0.00000000000E+00 -0.00000000000E+00 -0.17860827971E+03  0.17860827971E+03  0.00000000000E+00 0. -1.
         23    2    1    2    0    0 -0.14918497938E+03  0.13615959555E+03  0.64169770822E+03  0.67881103367E+03  0.90624925664E+02 0.  0.
         24    2    1    2    0    0  0.14295898429E+03 -0.63248889324E+02 -0.77810533065E+02  0.19150675746E+03  0.78629930093E+02 0.  0.
        -11    1    4    4    0    0  0.10228466882E+01 -0.28500859671E+02 -0.17224739222E+02  0.33317215649E+02  0.00000000000E+00 0.  1.
         12    1    4    4    0    0  0.14193613760E+03 -0.34748029652E+02 -0.60585793842E+02  0.15818954181E+03  0.00000000000E+00 0. -1.
        -11    1    3    3    0    0 -0.12659226493E+03  0.78178682382E+02  0.53489318855E+03  0.55520107266E+03  0.00000000000E+00 0. -1.
         11    1    3    3    0    0 -0.22592714450E+02  0.57980913170E+02  0.10680451967E+03  0.12360996101E+03  0.00000000000E+00 0.  1.
         21    1    1    2  503  502  0.11349243968E+02 -0.24587028130E+02  0.55237000318E+02  0.61517911985E+02  0.00000000000E+00 0.  1.
          1    1    1    2  501    0 -0.51232488764E+01 -0.48323678099E+02  0.42773555436E+01  0.48782387339E+02  0.00000000000E+00 0. -1.
<scales pt_clust_5="13000.00000" pt_clust_6="13000.00000" pt_clust_7="13000.00000" pt_clust_8="13000.00000" pt_clust_9="27.08002" pt_clust_10="49.42657"></scales>
<clustering>
<clus scale="   27.080">  1  9  2 -1</clus>
<clus scale="   49.427">  2 10  1 -1</clus>
<clus scale="   78.630">  5  6 -1 -1</clus>
<clus scale="   90.625">  7  8 -1 -1</clus>
<clus scale="  193.565">  2  5  1 -1</clus>
<clus scale="   49.427">  2  5  1 -1</clus>
</clustering>
</event>
<event>
10    4  0.3738096E-005  0.2221523E+03  0.7546771E-02  0.1170210E+00
         21   -1    0    0  503  502  0.00000000000E+00  0.00000000000E+00  0.28456265065E+03  0.28456265065E+03  0.00000000000E+00 0.  1.
         -1   -1    0    0    0  501 -0.00000000000E+00 -0.00000000000E+00 -0.45320246214E+03  0.45320246214E+03  0.00000000000E+00 0.  1.
         24    2    1    2    0    0 -0.22058310196E+02  0.27121814223E+02 -0.69067704902E+02  0.11164349877E+03  0.80447256643E+02 0.  0.
         23    2    1    2    0    0  0.18515777182E+03 -0.86997707599E+02  0.74230906869E+01  0.22443902993E+03  0.92009642378E+02 0.  0.
        -11    1    3    3    0    0  0.20680388370E+01  0.23811626095E+02 -0.81051533716E+02  0.84502197839E+02  0.00000000000E+00 0.  1.
         12    1    3    3    0    0 -0.24126349033E+02  0.33101881287E+01  0.11983828814E+02  0.27141300929E+02  0.00000000000E+00 0. -1.
        -11    1    4    4    0    0  0.82861367593E+02 -0.88717116991E+02 -0.42168594646E+01  0.12146816451E+03  0.00000000000E+00 0. -1.
         11    1    4    4    0    0  0.10229640422E+03  0.17194093920E+01  0.11639950151E+02  0.10297086542E+03  0.00000000000E+00 0.  1.
         21    1    1    2  503  501  0.41749274084E+02  0.41561295745E+02 -0.17532949743E+03  0.18496155238E+03  0.00000000000E+00 0.  1.
         -2    1    1    2    0  502 -0.20484873570E+03  0.18314597630E+02  0.68334300153E+02  0.21672103171E+03  0.00000000000E+00 0.  1.
<scales pt_clust_5="13000.00000" pt_clust_6="13000.00000" pt_clust_7="13000.00000" pt_clust_8="13000.00000" pt_clust_9="58.90962" pt_clust_10="202.20258"></scales>
<clustering>
<clus scale="   58.910">  2  9  1 -1</clus>
<clus scale="   80.447">  5  6 -1 -1</clus>
<clus scale="   90.612">  2  5  1 -1</clus>
<clus scale="   92.010">  7  8 -1 -1</clus>
<clus scale="  202.203">  1 10  2 -1</clus>
<clus scale="  202.203">  1  5  2 -1</clus>
</clustering>
</event>
<event>
10    4  0.3738096E-005  0.1244312E+03  0.7546771E-02  0.1238257E+00
         21   -1    0    0  501  502  0.00000000000E+00  0.00000000000E+00  0.12016776024E+03  0.12016776024E+03  0.00000000000E+00 0. -1.
          2   -1    0    0  503    0 -0.00000000000E+00 -0.00000000000E+00 -0.63762767256E+03  0.63762767256E+03  0.00000000000E+00 0. -1.
         24    2    1    2    0    0  0.29434573456E+02  0.63656818349E+02 -0.51276565952E+03  0.52406043717E+03  0.82414413676E+02 0.  0.
         23    2    1    2    0    0  0.30741760171E+00 -0.72790259121E+02  0.59784960208E+02  0.13057494383E+03  0.90427087541E+02 0.  0.
        -13    1    3    3    0    0  0.33461917821E+02 -0.26882702731E+01 -0.89130295639E+02  0.95242513312E+02  0.00000000000E+00 0.  1.
         14    1    3    3    0    0 -0.40273443642E+01  0.66345088622E+02 -0.42363536388E+03  0.42881792385E+03  0.00000000000E+00 0. -1.
        -13    1    4    4    0    0  0.35748891397E+02 -0.42858568174E+02  0.62887789443E+02  0.84081592296E+02  0.00000000000E+00 0. -1.
         13    1    4    4    0    0 -0.35441473795E+02 -0.29931690947E+02 -0.31028292350E+01  0.46493351535E+02  0.00000000000E+00 0.  1.
         21    1    1    2  503  502  0.13823517988E+02  0.14881437155E+02 -0.54410858467E+02  0.58078294917E+02  0.00000000000E+00 0.  1.
          1    1    1    2  501    0 -0.43565509046E+02 -0.57479963835E+01 -0.10068354538E+02  0.45081756886E+02  0.00000000000E+00 0. -1.
<scales pt_clust_5="13000.00000" pt_clust_6="13000.00000" pt_clust_7="13000.00000" pt_clust_8="13000.00000" pt_clust_9="20.31125" pt_clust_10="43.20509"></scales>
<clustering>
<clus scale="   20.311">  2  9  1 -1</clus>
<clus scale="   43.205">  1 10  2 -1</clus>
<clus scale="   82.414">  5  6 -1 -1</clus>
<clus scale="   90.427">  7  8 -1 -1</clus>
<clus scale="  118.736">  2  5  1 -1</clus>
<clus scale="   43.205">  1  5  2 -1</clus>
</clustering>
</event>
<event>
10    4  0.3738096E-005  0.9167139E+02  0.7546771E-02  0.1305937E+00
         21   -1    0    0  503  502  0.00000000000E+00  0.00000000000E+00  0.68726124922E+03  0.68726124922E+03  0.00000000000E+00 0.  1.
         -3   -1    0    0    0  501 -0.00000000000E+00 -0.00000000000E+00 -0.13470447977E+03  0.13470447977E+03  0.00000000000E+00 0.  1.
         23    2    1    2    0    0 -0.10727466267E+02 -0.32164160100E+01 -0.49052088037E+02  0.10402824957E+03  0.91051334440E+02 0.  0.
         24    2    1    2    0    0  0.29159282647E+02 -0.26670127279E+02  0.37565266367E+03  0.38605903395E+03  0.79781542473E+02 0.  0.
        -11    1    4    4    0    0  0.43582342322E+01  0.22672962582E+02  0.42557832882E+02  0.48417213649E+02  0.00000000000E+00 0.  1.
         12    1    4    4    0    0  0.24801048415E+02 -0.49343089862E+02  0.33309483079E+03  0.33764182030E+03  0.00000000000E+00 0. -1.
        -11    1    3    3    0    0 -0.22763664121E+02 -0.38347223501E+02 -0.27576370574E+01  0.44679956542E+02  0.00000000000E+00 0. -1.
         11    1    3    3    0    0  0.12036197853E+02  0.35130807491E+02 -0.46294450980E+02  0.59348293027E+02  0.00000000000E+00 0.  1.
         21    1    1    2  503  501  0.27502000952E+02  0.10997376589E+01 -0.46525226279E+02  0.54057063919E+02  0.00000000000E+00 0.  1.
         -4    1    1    2    0  502 -0.45933817332E+02  0.28786805630E+02  0.27248142009E+03  0.27782138155E+03  0.00000000000E+00 0.  1.
<scales pt_clust_5="13000.00000" pt_clust_6="13000.00000" pt_clust_7="13000.00000" pt_clust_8="13000.00000" pt_clust_9="27.52398" pt_clust_10="53.49245"></scales>
<clustering>
<clus scale="   27.524">  2  9  1 -1</clus>
<clus scale="   53.492">  1 10  2 -1</clus>
<clus scale="   79.782">  5  6 -1 -1</clus>
<clus scale="   80.488">  1  5  2 -1</clus>
<clus scale="   91.051">  7  8 -1 -1</clus>
<clus scale="   53.492">  1  5  2 -1</clus>
</clustering>
</event>
<event>
10    4  0.3738096E-005  0.1227583E+03  0.7546771E-02  0.1252020E+00
          2   -1    0    0  503    0 -0.00000000000E+00  0.00000000000E+00  0.79786560874E+03  0.79786560874E+03  0.00000000000E+00 0. -1.
         21   -1    0    0  501  502  0.00000000000E+00 -0.00000000000E+00 -0.94150078801E+02  0.94150078801E+02  0.00000000000E+00 0.  1.
         24    2    1    2    0    0 -0.21166917513E+02  0.63816984782E+01  0.10828651254E+00  0.94482858514E+02  0.91859862587E+02 0.  0.
         23    2    1    2    0    0 -0.87682863921E+02 -0.14015444119E+02  0.58915638426E+02  0.13771547382E+03  0.87234064329E+02 0.  0.
        -11    1    3    3    0    0 -0.22403474221E+02  0.47899365051E+02  0.18265365561E+01  0.52911256508E+02  0.00000000000E+00 0.  1.
         12    1    3    3    0    0  0.12365567076E+01 -0.41517666573E+02 -0.17182500436E+01  0.41571602006E+02  0.00000000000E+00 0. -1.
        -13    1    4    4    0    0 -0.85121597500E+02 -0.42939602633E+02  0.42791709018E+02  0.10450179997E+03  0.00000000000E+00 0.  1.
         13    1    4    4    0    0 -0.25612664202E+01  0.28924158514E+02  0.16123929408E+02  0.33213673856E+02  0.00000000000E+00 0. -1.
         21    1    1    2  503  502  0.41049572783E+02 -0.32417111689E+02  0.14910098156E+03  0.15800961761E+03  0.00000000000E+00 0.  1.
          1    1    1    2  501    0  0.67800208651E+02  0.40050857330E+02  0.49559062345E+03  0.50180773760E+03  0.00000000000E+00 0. -1.
<scales pt_clust_5="13000.00000" pt_clust_6="13000.00000" pt_clust_7="13000.00000" pt_clust_8="13000.00000" pt_clust_9="52.30618" pt_clust_10="86.37024"></scales>
<clustering>
<clus scale="   52.306">  1  9  2 -1</clus>
<clus scale="   87.234">  7  8 -1 -1</clus>
<clus scale="   91.860">  5  6 -1 -1</clus>
<clus scale="   93.722">  1  5  2 -1</clus>
<clus scale="   86.370">  2 10  1 -1</clus>
<clus scale="   86.370">  2  5  1 -1</clus>
</clustering>
</event>
<event>
10    4  0.3738096E-005  0.1003675E+03  0.7546771E-02  0.1283476E+00
         21   -1    0    0  501  502  0.00000000000E+00  0.00000000000E+00  0.25331427921E+03  0.25331427921E+03  0.00000000000E+00 0.  1.
          2   -1    0    0  503    0 -0.00000000000E+00 -0.00000000000E+00 -0.93206590531E+02  0.93206590531E+02  0.00000000000E+00 0. -1.
         24    2    1    2    0    0 -0.51948128166E+01  0.46309378806E+02  0.10181068424E+01  0.97143895806E+02  0.85231187398E+02 0.  0.
         23    2    1    2    0    0  0.17927737265E+02 -0.36830560838E+02  0.14679314762E+03  0.17858845091E+03  0.93100551206E+02 0.  0.
        -11    1    3    3    0    0  0.35042555009E+02  0.19117543816E+02 -0.19496480592E+02  0.44424924295E+02  0.00000000000E+00 0.  1.
         12    1    3    3    0    0 -0.40237367825E+02  0.27191834989E+02  0.20514587434E+02  0.52718971511E+02  0.00000000000E+00 0. -1.
        -13    1    4    4    0    0  0.10454773343E+02  0.19444434558E+02  0.10701924052E+03  0.10927262312E+03  0.00000000000E+00 0.  1.
         13    1    4    4    0    0  0.74729639219E+01 -0.56274995396E+02  0.39773907095E+02  0.69315827790E+02  0.00000000000E+00 0. -1.
         21    1    1    2  503  502  0.25857096751E+02 -0.16218466313E+02  0.46414301654E+01  0.30873467183E+02  0.00000000000E+00 0.  1.
          1    1    1    2  501    0 -0.38590021199E+02  0.67396483452E+01  0.76550040511E+01  0.39915055843E+02  0.00000000000E+00 0. -1.
<scales pt_clust_5="13000.00000" pt_clust_6="13000.00000" pt_clust_7="13000.00000" pt_clust_8="13000.00000" pt_clust_9="30.52258" pt_clust_10="33.56269"></scales>
<clustering>
<clus scale="   30.523">  2  9  1 -1</clus>
<clus scale="   33.563">  1 10  2 -1</clus>
<clus scale="   85.231">  5  6 -1 -1</clus>
<clus scale="   93.101">  7  8 -1 -1</clus>
<clus scale="   93.114">  2  5  1 -1</clus>
<clus scale="   33.563">  1  5  2 -1</clus>
</clustering>
</event>
<event>
10    4  0.3738096E-005  0.9875149E+02  0.7546771E-02  0.1285815E+00
         21   -1    0    0  501  502  0.00000000000E+00  0.00000000000E+00  0.70800031360E+02  0.70800031360E+02  0.00000000000E+00 0. -1.
          2   -1    0    0  503    0 -0.00000000000E+00 -0.00000000000E+00 -0.33358818643E+03  0.33358818643E+03  0.00000000000E+00 0. -1.
         24    2    1    2    0    0 -0.11050060538E+02 -0.33918599491E+02 -0.15165175213E+03  0.17702219472E+03  0.84059670879E+02 0.  0.
         23    2    1    2    0    0 -0.31895655484E+02  0.28591050109E+02 -0.35766529092E+02  0.10574949383E+03  0.89827222244E+02 0.  0.
        -13    1    3    3    0    0  0.12511689813E+02  0.22213253040E+02 -0.74524140959E+02  0.78764323004E+02  0.00000000000E+00 0.  1.
         14    1    3    3    0    0 -0.23561750351E+02 -0.56131852531E+02 -0.77127611172E+02  0.98257871712E+02  0.00000000000E+00 0. -1.
        -13    1    4    4    0    0  0.46384330679E+01 -0.29520096253E+02 -0.17852596526E+02  0.34808998073E+02  0.00000000000E+00 0. -1.
         13    1    4    4    0    0 -0.36534088552E+02  0.58111146362E+02 -0.17913932566E+02  0.70940495754E+02  0.00000000000E+00 0.  1.
         21    1    1    2  503  502  0.30155560778E+02 -0.18614332934E+02 -0.85571025816E+02  0.92618851729E+02  0.00000000000E+00 0.  1.
          1    1    1    2  501    0  0.12790155244E+02  0.23941882316E+02  0.10201151970E+02  0.28997677519E+02  0.00000000000E+00 0. -1.
<scales pt_clust_5="13000.00000" pt_clust_6="13000.00000" pt_clust_7="13000.00000" pt_clust_8="13000.00000" pt_clust_9="35.37071" pt_clust_10="27.14409"></scales>
<clustering>
<clus scale="   27.144">  1 10  2 -1</clus>
<clus scale="   35.371">  2  9  1 -1</clus>
<clus scale="   84.060">  5  6 -1 -1</clus>
<clus scale="   89.827">  7  8 -1 -1</clus>
<clus scale="   93.536">  2  5  1 -1</clus>
<clus scale="   27.144">  1  5  2 -1</clus>
</clustering>
</event>
<event>
10    4  0.3738096E-005  0.9930171E+02  0.7546771E-02  0.1283718E+00
          2   -1    0    0  503    0 -0.00000000000E+00  0.00000000000E+00  0.56325621475E+03  0.56325621475E+03  0.00000000000E+00 0. -1.
         21   -1    0    0  501  502  0.00000000000E+00 -0.00000000000E+00 -0.85190297379E+02  0.85190297379E+02  0.00000000000E+00 0.  1.
         23    2    1    2    0    0 -0.24106942017E+02 -0.23502649556E+02  0.18457064248E+03  0.20834833993E+03  0.90604577686E+02 0.  0.
         24    2    1    2    0    0  0.53381083644E+02 -0.49067368297E+02  0.13163594331E+02  0.11374674595E+03  0.86648111781E+02 0.  0.
        -11    1    4    4    0    0  0.55796473097E+02 -0.14970775631E+02 -0.24618466934E+02  0.62796810804E+02  0.00000000000E+00 0.  1.
         12    1    4    4    0    0 -0.24153894527E+01 -0.34096592666E+02  0.37782061264E+02  0.50949935143E+02  0.00000000000E+00 0. -1.
        -11    1    3    3    0    0  0.29637996155E+02 -0.32604261748E+01  0.25520440785E+02  0.39247090246E+02  0.00000000000E+00 0.  1.
         11    1    3    3    0    0 -0.53744938172E+02 -0.20242223381E+02  0.15905020169E+03  0.16910124968E+03  0.00000000000E+00 0. -1.
         21    1    1    2  503  502 -0.47904199911E+01  0.56643214012E+02  0.29005077495E+03  0.29556869568E+03  0.00000000000E+00 0. -1.
          1    1    1    2  501    0 -0.24483721635E+02  0.15926803840E+02 -0.97190943877E+01  0.30782730571E+02  0.00000000000E+00 0. -1.
<scales pt_clust_5="13000.00000" pt_clust_6="13000.00000" pt_clust_7="13000.00000" pt_clust_8="13000.00000" pt_clust_9="57.61565" pt_clust_10="29.20814"></scales>
<clustering>
<clus scale="   29.208">  2 10  1 -1</clus>
<clus scale="   57.616">  1  9  2 -1</clus>
<clus scale="   86.648">  5  6 -1 -1</clus>
<clus scale="   90.605">  7  8 -1 -1</clus>
<clus scale="   95.705">  2  5  1 -1</clus>
<clus scale="   29.208">  2  5  1 -1</clus>
</clustering>
</event>
<event>
10    4  0.3738096E-005  0.1461043E+03  0.7546771E-02  0.1206927E+00
         21   -1    0    0  501  502  0.00000000000E+00  0.00000000000E+00  0.30591983992E+03  0.30591983992E+03  0.00000000000E+00 0. -1.
          2   -1    0    0  503    0 -0.00000000000E+00 -0.00000000000E+00 -0.15523404303E+03  0.15523404303E+03  0.00000000000E+00 0. -1.
         23    2    1    2    0    0 -0.84508335079E+01 -0.13555947552E+03 -0.31749909599E+02  0.16489479395E+03  0.87945712368E+02 0.  0.
         24    2    1    2    0    0  0.43317434847E+02  0.72247750861E+02  0.17283358295E+03  0.20808049267E+03  0.79560708695E+02 0.  0.
        -11    1    4    4    0    0 -0.86023576949E+01  0.61616247666E+02  0.82199152496E+02  0.10308861822E+03  0.00000000000E+00 0.  1.
         12    1    4    4    0    0  0.51919792542E+02  0.10631503195E+02  0.90634430456E+02  0.10499187446E+03  0.00000000000E+00 0. -1.
        -11    1    3    3    0    0 -0.63355717001E+01 -0.69879924401E+02  0.28507309029E+02  0.75736450743E+02  0.00000000000E+00 0.  1.
         11    1    3    3    0    0 -0.21152618078E+01 -0.65679551118E+02 -0.60257218627E+02  0.89158343212E+02  0.00000000000E+00 0. -1.
         21    1    1    2  503  502 -0.32143138108E+02  0.13062149169E+02 -0.65865107773E+01  0.35315480919E+02  0.00000000000E+00 0. -1.
          1    1    1    2  501    0 -0.27234632314E+01  0.50249575489E+02  0.16188634314E+02  0.52863115399E+02  0.00000000000E+00 0. -1.
<scales pt_clust_5="13000.00000" pt_clust_6="13000.00000" pt_clust_7="13000.00000" pt_clust_8="13000.00000" pt_clust_9="34.69584" pt_clust_10="52.51723"></scales>
<clustering>
<clus scale="   34.696">  2  9  1 -1</clus>
<clus scale="   52.517">  1 10  2 -1</clus>
<clus scale="   79.561">  5  6 -1 -1</clus>
<clus scale="   87.946">  7  8 -1 -1</clus>
<clus scale="  141.216">  1  5  2 -1</clus>
<clus scale="   52.517">  1  5  2 -1</clus>
</clustering>
</event>
<event>
10    4  0.3738096E-005  0.1897885E+03  0.7546771E-02  0.1175636E+00
         21   -1    0    0  501  502  0.00000000000E+00  0.00000000000E+00  0.45105842341E+03  0.45105842341E+03  0.00000000000E+00 0.  1.
          2   -1    0    0  503    0 -0.00000000000E+00 -0.00000000000E+00 -0.21083410171E+03  0.21083410171E+03  0.00000000000E+00 0. -1.
         24    2    1    2    0    0  0.53971766686E+02  0.10113123153E+03  0.77221309684E+02  0.16032428722E+03  0.81242038459E+02 0.  0.
         23    2    1    2    0    0  0.11626979107E+03 -0.17537292006E+03  0.56715480689E+02  0.23767071906E+03  0.94849351829E+02 0.  0.
        -13    1    3    3    0    0  0.45198318560E+02  0.93831712974E+02  0.93822619769E+02  0.14017832336E+03  0.00000000000E+00 0.  1.
         14    1    3    3    0    0  0.87734481264E+01  0.72995185567E+01 -0.16601310085E+02  0.20145963857E+02  0.00000000000E+00 0. -1.
        -11    1    4    4    0    0 -0.12840834988E+02 -0.45987471313E+02  0.16476455785E+02  0.50509485804E+02  0.00000000000E+00 0.  1.
         11    1    4    4    0    0  0.12911062605E+03 -0.12938544875E+03  0.40239024904E+02  0.18716123325E+03  0.00000000000E+00 0. -1.
         21    1    1    2  503  502 -0.71904443176E+02 -0.34364783571E+02 -0.50920632925E+01  0.79856849468E+02  0.00000000000E+00 0. -1.
          1    1    1    2  501    0 -0.98337114577E+02  0.10860647210E+03  0.11137959462E+03  0.18404066937E+03  0.00000000000E+00 0. -1.
<scales pt_clust_5="13000.00000" pt_clust_6="13000.00000" pt_clust_7="13000.00000" pt_clust_8="13000.00000" pt_clust_9="79.69434" pt_clust_10="164.38761"></scales>
<clustering>
<clus scale="   79.694">  2  9  1 -1</clus>
<clus scale="   81.242">  5  6 -1 -1</clus>
<clus scale="   94.849">  7  8 -1 -1</clus>
<clus scale="  128.439">  2  5  1 -1</clus>
<clus scale="  164.388">  1 10  2 -1</clus>
<clus scale="  164.388">  1  5  2 -1</clus>
</clustering>
</event>
