<event>
 9    2  0.6469128E-005  0.9217476E+02  0.7546771E-02  0.1306231E+00
         -1   -1    0    0    0  501 -0.00000000000E+00  0.00000000000E+00  0.15974912445E+03  0.15974912445E+03  0.00000000000E+00 0.  1.
         21   -1    0    0  501  502  0.00000000000E+00 -0.00000000000E+00 -0.73859184327E+02  0.73859184327E+02  0.00000000000E+00 0.  1.
         23    2    1    2    0    0  0.42918666874E+01  0.89546139801E+01  0.62460891884E+02  0.11151099259E+03  0.91840803685E+02 0.  0.
         24    2    1    2    0    0  0.23053913085E+02  0.66081745189E+00 -0.45467543642E+01  0.81812161055E+02  0.78362217509E+02 0.  0.
        -13    1    4    4    0    0  0.44197470205E+02  0.19640617897E+02 -0.16337895059E+02  0.51049946708E+02  0.00000000000E+00 0.  1.
         14    1    4    4    0    0 -0.21143557120E+02 -0.18979800445E+02  0.11791140695E+02  0.30762214347E+02  0.00000000000E+00 0. -1.
        -13    1    3    3    0    0  0.17581542539E+02  0.38700816034E+02  0.66247130138E+02  0.78711791056E+02  0.00000000000E+00 0.  1.
         13    1    3    3    0    0 -0.13289675852E+02 -0.29746202054E+02 -0.37862382542E+01  0.32799201530E+02  0.00000000000E+00 0. -1.
         -2    1    1    2    0  502 -0.27345779773E+02 -0.96154314320E+01  0.27975802605E+02  0.40285155137E+02  0.00000000000E+00 0.  1.
<scales pt_clust_5="13000.00000" pt_clust_6="13000.00000" pt_clust_7="13000.00000" pt_clust_8="13000.00000" pt_clust_9="28.98705"></scales>
<clustering>
<clus scale="   28.987">  2  9  1 -1</clus>
<clus scale="   78.362">  5  6 -1 -1</clus>
<clus scale="   78.753">  2  5  1 -1</clus>
<clus scale="   91.841">  7  8 -1 -1</clus>
<clus scale="   28.987">  2  5  1 -1</clus>
</clustering>
</event>
<event>
 9    2  0.6469128E-005  0.1016792E+03  0.7546771E-02  0.1283774E+00
         21   -1    0    0  501  502  0.00000000000E+00  0.00000000000E+00  0.37789022750E+03  0.37789022750E+03  0.00000000000E+00 0. -1.
          2   -1    0    0  502    0 -0.00000000000E+00 -0.00000000000E+00 -0.33753378847E+03  0.33753378847E+03  0.00000000000E+00 0. -1.
         24    2    1    2    0    0 -0.19600247022E+02  0.36761089388E+02 -0.31214343498E+03  0.32475716244E+03  0.79360841591E+02 0.  0.
         23    2    1    2    0    0  0.19515604218E+02  0.26461365003E+02  0.26380770589E+03  0.28174767895E+03  0.93306946495E+02 0.  0.
        -13    1    3    3    0    0 -0.14689749133E+02 -0.22670167839E+02 -0.62463392082E+02  0.68054394346E+02  0.00000000000E+00 0.  1.
         14    1    3    3    0    0 -0.49104978896E+01  0.59431257226E+02 -0.24968004290E+03  0.25670276809E+03  0.00000000000E+00 0. -1.
        -13    1    4    4    0    0  0.33137748592E+02 -0.21477317783E+02  0.59228081808E+02  0.71185330199E+02  0.00000000000E+00 0.  1.
         13    1    4    4    0    0 -0.13622144374E+02  0.47938682786E+02  0.20457962408E+03  0.21056234875E+03  0.00000000000E+00 0. -1.
          1    1    1    2  501    0  0.84642804195E-01 -0.63222454390E+02  0.88692168122E+02  0.10891917457E+03  0.00000000000E+00 0. -1.
<scales pt_clust_5="13000.00000" pt_clust_6="13000.00000" pt_clust_7="13000.00000" pt_clust_8="13000.00000" pt_clust_9="63.22251"></scales>
<clustering>
<clus scale="   63.223">  1  9  2 -1</clus>
<clus scale="   79.361">  5  6 -1 -1</clus>
<clus scale="   89.054">  2  5  1 -1</clus>
<clus scale="   93.307">  7  8 -1 -1</clus>
<clus scale="   63.223">  1  5  2 -1</clus>
</clustering>
</event>
<event>
 9    2  0.6469128E-005  0.9989733E+02  0.7546771E-02  0.1288607E+00
         -3   -1    0    0    0  501 -0.00000000000E+00  0.00000000000E+00  0.79237683935E+02  0.79237683935E+02  0.00000000000E+00 0.  1.
         21   -1    0    0  501  502  0.00000000000E+00 -0.00000000000E+00 -0.30526772621E+03  0.30526772621E+03  0.00000000000E+00 0.  1.
         23    2    1    2    0    0  0.30867067325E+02 -0.73801703554E+01 -0.48186447535E+01  0.10024453049E+03  0.94965803301E+02 0.  0.
         24    2    1    2    0    0 -0.21282526299E+02 -0.54316392677E+02 -0.71590703232E+02  0.12213536816E+03  0.79928736557E+02 0.  0.
        -11    1    4    4    0    0 -0.32818059122E+02  0.94069657077E+01 -0.26659652601E+02  0.43315737154E+02  0.00000000000E+00 0.  1.
         12    1    4    4    0    0  0.11535532823E+02 -0.63723358385E+02 -0.44931050631E+02  0.78819631007E+02  0.00000000000E+00 0. -1.
        -13    1    3    3    0    0  0.54914653385E+02  0.84134561212E+01 -0.28993461065E+02  0.62665989059E+02  0.00000000000E+00 0. -1.
         13    1    3    3    0    0 -0.24047586060E+02 -0.15793626477E+02  0.24174816311E+02  0.37578541433E+02  0.00000000000E+00 0.  1.
         -4    1    1    2    0  502 -0.95845410260E+01  0.61696563032E+02 -0.14962069429E+03  0.16212551149E+03  0.00000000000E+00 0.  1.
<scales pt_clust_5="13000.00000" pt_clust_6="13000.00000" pt_clust_7="13000.00000" pt_clust_8="13000.00000" pt_clust_9="62.43660"></scales>
<clustering>
<clus scale="   62.437">  2  9  1 -1</clus>
<clus scale="   79.929">  5  6 -1 -1</clus>
<clus scale="   85.730">  2  5  1 -1</clus>
<clus scale="   94.966">  7  8 -1 -1</clus>
<clus scale="   62.437">  2  5  1 -1</clus>
</clustering>
</event>
<event>
 9    2  0.6469128E-005  0.9792038E+02  0.7546771E-02  0.1293049E+00
         21   -1    0    0  501  502  0.00000000000E+00  0.00000000000E+00  0.26815323441E+03  0.26815323441E+03  0.00000000000E+00 0.  1.
          2   -1    0    0  502    0 -0.00000000000E+00 -0.00000000000E+00 -0.99614534647E+02  0.99614534647E+02  0.00000000000E+00 0. -1.
         24    2    1    2    0    0  0.35118433682E+01 -0.17049491933E+01 -0.56820148126E+02  0.10102986779E+03  0.83446180602E+02 0.  0.
         23    2    1    2    0    0 -0.12860261432E+02  0.32012047427E+02  0.12977677108E+03  0.16603116599E+03  0.97643127062E+02 0.  0.
        -11    1    3    3    0    0 -0.14057886627E+02  0.37274422705E+02 -0.19860315988E+02  0.44513356598E+02  0.00000000000E+00 0.  1.
         12    1    3    3    0    0  0.17569729996E+02 -0.38979371899E+02 -0.36959832137E+02  0.56516511192E+02  0.00000000000E+00 0. -1.
        -13    1    4    4    0    0 -0.31369156851E+02  0.59303525870E+02  0.65354736734E+02  0.93659883599E+02  0.00000000000E+00 0.  1.
         13    1    4    4    0    0  0.18508895419E+02 -0.27291478443E+02  0.64422034346E+02  0.72371282389E+02  0.00000000000E+00 0. -1.
          1    1    1    2  501    0  0.93484180638E+01 -0.30307098234E+02  0.95582076812E+02  0.10070673528E+03  0.00000000000E+00 0. -1.
<scales pt_clust_5="13000.00000" pt_clust_6="13000.00000" pt_clust_7="13000.00000" pt_clust_8="13000.00000" pt_clust_9="31.71613"></scales>
<clustering>
<clus scale="   31.716">  1  9  2 -1</clus>
<clus scale="   83.446">  5  6 -1 -1</clus>
<clus scale="   83.770">  2  5  1 -1</clus>
<clus scale="   97.643">  7  8 -1 -1</clus>
<clus scale="   31.716">  1  5  2 -1</clus>
</clustering>
</event>
<event>
 9    2  0.6469128E-005  0.1486385E+03  0.7546771E-02  0.1203746E+00
         21   -1    0    0  501  502  0.00000000000E+00  0.00000000000E+00  0.22763744755E+03  0.22763744755E+03  0.00000000000E+00 0. -1.
          2   -1    0    0  502    0 -0.00000000000E+00 -0.00000000000E+00 -0.21073576927E+03  0.21073576927E+03  0.00000000000E+00 0. -1.
         24    2    1    2    0    0 -0.11215938665E+03  0.55089703097E+02 -0.14790116057E+03  0.20854303482E+03  0.77465093237E+02 0.  0.
         23    2    1    2    0    0  0.83958389780E+02 -0.53629834622E+02  0.13830636381E+03  0.19110692504E+03  0.86417799960E+02 0.  0.
        -13    1    3    3    0    0 -0.34852794950E+02  0.33644673259E+02 -0.10703444658E+02  0.49610937122E+02  0.00000000000E+00 0.  1.
         14    1    3    3    0    0 -0.77306591704E+02  0.21445029838E+02 -0.13719771592E+03  0.15893209770E+03  0.00000000000E+00 0. -1.
        -13    1    4    4    0    0  0.59689402653E+02  0.81033338107E+01  0.39263451658E+02  0.71903459193E+02  0.00000000000E+00 0. -1.
         13    1    4    4    0    0  0.24268987127E+02 -0.61733168433E+02  0.99042912154E+02  0.11920346584E+03  0.00000000000E+00 0.  1.
          1    1    1    2  501    0  0.28200996875E+02 -0.14598684746E+01  0.26496475042E+02  0.38723256970E+02  0.00000000000E+00 0. -1.
<scales pt_clust_5="13000.00000" pt_clust_6="13000.00000" pt_clust_7="13000.00000" pt_clust_8="13000.00000" pt_clust_9="28.23876"></scales>
<clustering>
<clus scale="   28.239">  1  9  2 -1</clus>
<clus scale="   77.465">  5  6 -1 -1</clus>
<clus scale="   86.418">  7  8 -1 -1</clus>
<clus scale="  143.618">  2  5  1 -1</clus>
<clus scale="   28.239">  1  5  2 -1</clus>
</clustering>
</event>
<event>
 9    2  0.6469128E-005  0.2091832E+03  0.7546771E-02  0.1175648E+00
          2   -1    0    0  502    0 -0.00000000000E+00  0.00000000000E+00  0.16208878734E+04  0.16208878734E+04  0.00000000000E+00 0. -1.
         21   -1    0    0  501  502  0.00000000000E+00 -0.00000000000E+00 -0.46808634509E+02  0.46808634509E+02  0.00000000000E+00 0. -1.
         24    2    1    2    0    0 -0.33876101620E+02 -0.41551219910E+02  0.25232839634E+03  0.26993718971E+03  0.79513348895E+02 0.  0.
         23    2    1    2    0    0 -0.10564357255E+03  0.16795220415E+03  0.10136309804E+04  0.10366765053E+04  0.88780093379E+02 0.  0.
        -13    1    3    3    0    0 -0.46403757238E+02 -0.19431216729E+02  0.23198780462E+03  0.23737991145E+03  0.00000000000E+00 0.  1.
         14    1    3    3    0    0  0.12527655618E+02 -0.22120003181E+02  0.20340591720E+02  0.32557278258E+02  0.00000000000E+00 0. -1.
        -11    1    4    4    0    0 -0.68440814665E+02  0.16650939140E+03  0.85225620142E+03  0.87106265870E+03  0.00000000000E+00 0. -1.
         11    1    4    4    0    0 -0.37202757884E+02  0.14428127519E+01  0.16137477899E+03  0.16561384664E+03  0.00000000000E+00 0.  1.
          1    1    1    2  501    0  0.13951967417E+03 -0.12640098424E+03  0.30811986217E+03  0.36108281288E+03  0.00000000000E+00 0. -1.
<scales pt_clust_5="13000.00000" pt_clust_6="13000.00000" pt_clust_7="13000.00000" pt_clust_8="13000.00000" pt_clust_9="189.40887"></scales>
<clustering>
<clus scale="   79.513">  5  6 -1 -1</clus>
<clus scale="   88.780">  7  8 -1 -1</clus>
<clus scale="   95.898">  1  5  2 -1</clus>
<clus scale="  189.409">  2  9  1 -1</clus>
<clus scale="  189.409">  2  5  1 -1</clus>
</clustering>
</event>
<event>
 9    2  0.6469128E-005  0.9414048E+02  0.7546771E-02  0.1299170E+00
          2   -1    0    0  502    0 -0.00000000000E+00  0.00000000000E+00  0.19862302621E+04  0.19862302621E+04  0.00000000000E+00 0. -1.
         21   -1    0    0  501  502  0.00000000000E+00 -0.00000000000E+00 -0.15257837452E+03  0.15257837452E+03  0.00000000000E+00 0. -1.
         24    2    1    2    0    0 -0.13389193277E+02 -0.20773955620E+02  0.18946383022E+04  0.18965116746E+04  0.80569274419E+02 0.  0.
         23    2    1    2    0    0 -0.49050990415E+02  0.38523058821E+02  0.44104813608E+02  0.11877379248E+03  0.90950280235E+02 0.  0.
        -11    1    3    3    0    0  0.61494712704E+01 -0.19083738246E+02  0.11297145061E+03  0.11473688908E+03  0.00000000000E+00 0.  1.
         12    1    3    3    0    0 -0.19538664548E+02 -0.16902173734E+01  0.17816668516E+04  0.17817747855E+04  0.00000000000E+00 0. -1.
        -11    1    4    4    0    0 -0.59948469435E+02 -0.18779415784E+01  0.47899110526E+02  0.76757217520E+02  0.00000000000E+00 0. -1.
         11    1    4    4    0    0  0.10897479020E+02  0.40401000399E+02 -0.37942969181E+01  0.42016574959E+02  0.00000000000E+00 0.  1.
          1    1    1    2  501    0  0.62440183692E+02 -0.17749103201E+02 -0.10509122814E+03  0.12352316964E+03  0.00000000000E+00 0. -1.
<scales pt_clust_5="13000.00000" pt_clust_6="13000.00000" pt_clust_7="13000.00000" pt_clust_8="13000.00000" pt_clust_9="64.91384"></scales>
<clustering>
<clus scale="   64.914">  2  9  1 -1</clus>
<clus scale="   80.569">  5  6 -1 -1</clus>
<clus scale="   84.154">  1  5  2 -1</clus>
<clus scale="   90.950">  7  8 -1 -1</clus>
<clus scale="   64.914">  2  5  1 -1</clus>
</clustering>
</event>
<event>
 9    2  0.6469128E-005  0.1196757E+03  0.7546771E-02  0.1248656E+00
         21   -1    0    0  501  502  0.00000000000E+00  0.00000000000E+00  0.55578318327E+02  0.55578318327E+02  0.00000000000E+00 0.  1.
          2   -1    0    0  502    0 -0.00000000000E+00 -0.00000000000E+00 -0.83927324334E+03  0.83927324334E+03  0.00000000000E+00 0. -1.
         24    2    1    2    0    0  0.69381988327E+02  0.14463585634E+01 -0.65358244612E+03  0.66214582739E+03  0.80318930508E+02 0.  0.
         23    2    1    2    0    0 -0.90879149687E+02 -0.33566484406E+02 -0.13756929066E+03  0.19334287776E+03  0.95238804732E+02 0.  0.
        -13    1    3    3    0    0 -0.10935846897E+02  0.19564474797E+02 -0.10054581410E+03  0.10301369887E+03  0.00000000000E+00 0.  1.
         14    1    3    3    0    0  0.80317835224E+02 -0.18118116233E+02 -0.55303663202E+03  0.55913212852E+03  0.00000000000E+00 0. -1.
        -13    1    4    4    0    0 -0.41824245092E+02 -0.54536517410E+01  0.25410152784E+01  0.42254781427E+02  0.00000000000E+00 0.  1.
         13    1    4    4    0    0 -0.49054904596E+02 -0.28112832665E+02 -0.14011030594E+03  0.15108809634E+03  0.00000000000E+00 0. -1.
          1    1    1    2  501    0  0.21497161360E+02  0.32120125843E+02  0.74568117692E+01  0.39362856508E+02  0.00000000000E+00 0. -1.
<scales pt_clust_5="13000.00000" pt_clust_6="13000.00000" pt_clust_7="13000.00000" pt_clust_8="13000.00000" pt_clust_9="38.65010"></scales>
<clustering>
<clus scale="   38.650">  1  9  2 -1</clus>
<clus scale="   80.319">  5  6 -1 -1</clus>
<clus scale="   95.239">  7  8 -1 -1</clus>
<clus scale="  108.180">  2  5  1 -1</clus>
<clus scale="   38.650">  1  5  2 -1</clus>
</clustering>
</event>
<event>
 9    2  0.6469128E-005  0.2200570E+03  0.7546771E-02  0.1135341E+00
          2   -1    0    0  502    0 -0.00000000000E+00  0.00000000000E+00  0.67588187296E+03  0.67588187296E+03  0.00000000000E+00 0. -1.
         21   -1    0    0  501  502  0.00000000000E+00 -0.00000000000E+00 -0.12654107790E+03  0.12654107790E+03  0.00000000000E+00 0. -1.
         24    2    1    2    0    0  0.18154921365E+03  0.12953581017E+03  0.37213715918E+03  0.44128441140E+03  0.80661164191E+02 0.  0.
         23    2    1    2    0    0 -0.10057223559E+03 -0.13671297948E+03  0.19595531590E+03  0.27770947833E+03  0.99593449581E+02 0.  0.
        -13    1    3    3    0    0  0.85141827093E+02  0.25791652883E+02  0.95588830839E+02  0.13058163983E+03  0.00000000000E+00 0.  1.
         14    1    3    3    0    0  0.96407386559E+02  0.10374415729E+03  0.27654832834E+03  0.31070277157E+03  0.00000000000E+00 0. -1.
        -11    1    4    4    0    0 -0.64662486071E+02 -0.27040491852E+02  0.12182932864E+03  0.14055180761E+03  0.00000000000E+00 0.  1.
         11    1    4    4    0    0 -0.35909749514E+02 -0.10967248762E+03  0.74125987252E+02  0.13715767072E+03  0.00000000000E+00 0. -1.
          1    1    1    2  501    0 -0.80976978067E+02  0.71771693071E+01 -0.18751680015E+02  0.83429061121E+02  0.00000000000E+00 0. -1.
<scales pt_clust_5="13000.00000" pt_clust_6="13000.00000" pt_clust_7="13000.00000" pt_clust_8="13000.00000" pt_clust_9="81.29442"></scales>
<clustering>
<clus scale="   80.661">  5  6 -1 -1</clus>
<clus scale="   81.294">  2  9  1 -1</clus>
<clus scale="   99.593">  7  8 -1 -1</clus>
<clus scale="  212.161">  1  5  2 -1</clus>
<clus scale="   81.294">  2  5  1 -1</clus>
</clustering>
</event>
<event>
 9    2  0.6469128E-005  0.1848063E+03  0.7546771E-02  0.1164176E+00
         21   -1    0    0  501  502  0.00000000000E+00  0.00000000000E+00  0.57475746252E+03  0.57475746252E+03  0.00000000000E+00 0. -1.
          2   -1    0    0  502    0 -0.00000000000E+00 -0.00000000000E+00 -0.55790166941E+03  0.55790166941E+03  0.00000000000E+00 0. -1.
         23    2    1    2    0    0 -0.10171406672E+03 -0.12939835325E+03 -0.52438228101E+03  0.55681085162E+03  0.89285287988E+02 0.  0.
         24    2    1    2    0    0  0.53173345690E+02  0.89947653543E+02  0.32633590598E+03  0.35202803730E+03  0.80688477761E+02 0.  0.
        -11    1    4    4    0    0  0.20225417970E+02 -0.14657460622E+01  0.13283500764E+02  0.24241850922E+02  0.00000000000E+00 0.  1.
         12    1    4    4    0    0  0.32947927720E+02  0.91413399605E+02  0.31305240521E+03  0.32778618637E+03  0.00000000000E+00 0. -1.
        -11    1    3    3    0    0 -0.41582046042E+02 -0.57060718306E+02 -0.10181620952E+03  0.12390130204E+03  0.00000000000E+00 0.  1.
         11    1    3    3    0    0 -0.60132020677E+02 -0.72337634947E+02 -0.42256607150E+03  0.43290954959E+03  0.00000000000E+00 0. -1.
          1    1    1    2  501    0  0.48540721029E+02  0.39450699710E+02  0.21490216815E+03  0.22382024301E+03  0.00000000000E+00 0. -1.
<scales pt_clust_5="13000.00000" pt_clust_6="13000.00000" pt_clust_7="13000.00000" pt_clust_8="13000.00000" pt_clust_9="62.55045"></scales>
<clustering>
<clus scale="   62.550">  1  9  2 -1</clus>
<clus scale="   80.688">  5  6 -1 -1</clus>
<clus scale="   89.285">  7  8 -1 -1</clus>
<clus scale="  180.810">  1  5  2 -1</clus>
<clus scale="   62.550">  1  5  2 -1</clus>
</clustering>
</event>
<event>
 9    2  0.6469128E-005  0.1327786E+03  0.7546771E-02  0.1226038E+00
         21   -1    0    0  501  502  0.00000000000E+00  0.00000000000E+00  0.25802863956E+02  0.25802863956E+02  0.00000000000E+00 0. -1.
          2   -1    0    0  502    0 -0.00000000000E+00 -0.00000000000E+00 -0.11343144236E+04  0.11343144236E+04  0.00000000000E+00 0. -1.
         23    2    1    2    0    0 -0.63113216104E+02 -0.33468770696E+02 -0.40550688319E+03  0.42168924895E+03  0.91008536469E+02 0.  0.
         24    2    1    2    0    0  0.10193008217E+03  0.89445952393E+02 -0.50698536898E+03  0.53090993611E+03  0.80255067408E+02 0.  0.
        -11    1    4    4    0    0  0.24324462774E+02  0.46850301610E+02 -0.31632654141E+03  0.32070096827E+03  0.00000000000E+00 0.  1.
         12    1    4    4    0    0  0.77605619391E+02  0.42595650782E+02 -0.19065882757E+03  0.21020896783E+03  0.00000000000E+00 0. -1.
        -11    1    3    3    0    0 -0.44200600269E+02 -0.56370208351E+02 -0.36194513829E+03  0.36896554932E+03  0.00000000000E+00 0.  1.
         11    1    3    3    0    0 -0.18912615835E+02  0.22901437655E+02 -0.43561744901E+02  0.52723699635E+02  0.00000000000E+00 0. -1.
          1    1    1    2  501    0 -0.38816866061E+02 -0.55977181697E+02 -0.19601930747E+03  0.20751810250E+03  0.00000000000E+00 0. -1.
<scales pt_clust_5="13000.00000" pt_clust_6="13000.00000" pt_clust_7="13000.00000" pt_clust_8="13000.00000" pt_clust_9="68.11897"></scales>
<clustering>
<clus scale="   68.119">  1  9  2 -1</clus>
<clus scale="   80.255">  5  6 -1 -1</clus>
<clus scale="   91.009">  7  8 -1 -1</clus>
<clus scale="  125.652">  1  5  2 -1</clus>
<clus scale="   68.119">  1  5  2 -1</clus>
</clustering>
</event>
<event>
 9    2  0.6469128E-005  0.9451406E+02  0.7546771E-02  0.1299038E+00
          2   -1    0    0  502    0 -0.00000000000E+00  0.00000000000E+00  0.80268462098E+03  0.80268462098E+03  0.00000000000E+00 0. -1.
         21   -1    0    0  501  502  0.00000000000E+00 -0.00000000000E+00 -0.12794036988E+03  0.12794036988E+03  0.00000000000E+00 0. -1.
         24    2    1    2    0    0 -0.23898539859E+02  0.13867940163E+01  0.73846310810E+03  0.74312362010E+03  0.79573169565E+02 0.  0.
         23    2    1    2    0    0  0.48891471579E+02 -0.53039342652E+02 -0.26960519176E+02  0.11935588070E+03  0.91188863360E+02 0.  0.
        -11    1    3    3    0    0 -0.33525608148E+02 -0.73308060469E+00  0.12042050197E+03  0.12500240439E+03  0.00000000000E+00 0.  1.
         12    1    3    3    0    0  0.96270682885E+01  0.21198746210E+01  0.61804260614E+03  0.61812121571E+03  0.00000000000E+00 0. -1.
        -11    1    4    4    0    0  0.20563682464E+02  0.19269303600E+02 -0.30614637340E+02  0.41610420776E+02  0.00000000000E+00 0.  1.
         11    1    4    4    0    0  0.28327789115E+02 -0.72308646252E+02  0.36541181645E+01  0.77745459922E+02  0.00000000000E+00 0. -1.
          1    1    1    2  501    0 -0.24992931720E+02  0.51652548636E+02 -0.36758337821E+02  0.68145490063E+02  0.00000000000E+00 0. -1.
<scales pt_clust_5="13000.00000" pt_clust_6="13000.00000" pt_clust_7="13000.00000" pt_clust_8="13000.00000" pt_clust_9="57.38146"></scales>
<clustering>
<clus scale="   57.381">  2  9  1 -1</clus>
<clus scale="   79.573">  5  6 -1 -1</clus>
<clus scale="   83.363">  1  5  2 -1</clus>
<clus scale="   91.189">  7  8 -1 -1</clus>
<clus scale="   57.381">  2  5  1 -1</clus>
</clustering>
</event>
<event>
 9    2  0.6469128E-005  0.1353101E+03  0.7546771E-02  0.1223493E+00
          2   -1    0    0  502    0 -0.00000000000E+00  0.00000000000E+00  0.21311692291E+03  0.21311692291E+03  0.00000000000E+00 0. -1.
         21   -1    0    0  501  502  0.00000000000E+00 -0.00000000000E+00 -0.13249763067E+03  0.13249763067E+03  0.00000000000E+00 0. -1.
         24    2    1    2    0    0 -0.96626629511E+02  0.38263723402E+02  0.11093098740E+03  0.16969620471E+03  0.75434076304E+02 0.  0.
         23    2    1    2    0    0  0.83905075477E+02 -0.22128908784E+02 -0.60264447905E+02  0.13959566206E+03  0.91243601908E+02 0.  0.
        -11    1    3    3    0    0 -0.62207343076E+02  0.57987694552E+01  0.17361623551E+02  0.64844469556E+02  0.00000000000E+00 0.  1.
         12    1    3    3    0    0 -0.34419286435E+02  0.32464953947E+02  0.93569363848E+02  0.10485173515E+03  0.00000000000E+00 0. -1.
        -13    1    4    4    0    0  0.27459479972E+02 -0.34113512939E+02 -0.68505215071E+02  0.81306329995E+02  0.00000000000E+00 0. -1.
         13    1    4    4    0    0  0.56445595506E+02  0.11984604155E+02  0.82407671666E+01  0.58289332062E+02  0.00000000000E+00 0.  1.
          1    1    1    2  501    0  0.12721554033E+02 -0.16134814618E+02  0.29952752745E+02  0.36322686805E+02  0.00000000000E+00 0. -1.
<scales pt_clust_5="13000.00000" pt_clust_6="13000.00000" pt_clust_7="13000.00000" pt_clust_8="13000.00000" pt_clust_9="20.54679"></scales>
<clustering>
<clus scale="   20.547">  2  9  1 -1</clus>
<clus scale="   75.434">  5  6 -1 -1</clus>
<clus scale="   91.244">  7  8 -1 -1</clus>
<clus scale="  125.195">  1  5  2 -1</clus>
<clus scale="   20.547">  2  5  1 -1</clus>
</clustering>
</event>
<event>
 9    2  0.6469128E-005  0.1165779E+03  0.7546771E-02  0.1259881E+00
         21   -1    0    0  501  502  0.00000000000E+00  0.00000000000E+00  0.29151971084E+03  0.29151971084E+03  0.00000000000E+00 0. -1.
          4   -1    0    0  502    0 -0.00000000000E+00 -0.00000000000E+00 -0.89062556338E+02  0.89062556338E+02  0.00000000000E+00 0. -1.
         24    2    1    2    0    0 -0.37708671310E+02  0.36717077652E+02  0.75459252941E+02  0.12028414611E+03  0.77486058545E+02 0.  0.
         23    2    1    2    0    0  0.98401194263E+01  0.59658622652E+02  0.11526901355E+03  0.15929070249E+03  0.91818316302E+02 0.  0.
        -13    1    3    3    0    0  0.16953615092E+02  0.13861183008E+02 -0.28537081708E+01  0.22083955928E+02  0.00000000000E+00 0.  1.
         14    1    3    3    0    0 -0.54662286402E+02  0.22855894643E+02  0.78312961112E+02  0.98200190187E+02  0.00000000000E+00 0. -1.
        -13    1    4    4    0    0  0.22680945656E+02 -0.68495738310E+01  0.78956872272E+02  0.82435002496E+02  0.00000000000E+00 0.  1.
         13    1    4    4    0    0 -0.12840826229E+02  0.66508196483E+02  0.36312141278E+02  0.76855699996E+02  0.00000000000E+00 0. -1.
          3    1    1    2  501    0  0.27868551884E+02 -0.96375700304E+02  0.11728888014E+02  0.10100741858E+03  0.00000000000E+00 0. -1.
<scales pt_clust_5="13000.00000" pt_clust_6="13000.00000" pt_clust_7="13000.00000" pt_clust_8="13000.00000" pt_clust_9="71.83182"></scales>
<clustering>
<clus scale="   77.486">  5  6 -1 -1</clus>
<clus scale="   91.818">  7  8 -1 -1</clus>
<clus scale="   93.671">  2  5  1 -1</clus>
<clus scale="   71.832">  1  9  2 -1</clus>
<clus scale="   71.832">  1  5  2 -1</clus>
</clustering>
</event>
<event>
 9    2  0.6469128E-005  0.1378360E+03  0.7546771E-02  0.1241279E+00
          2   -1    0    0  502    0 -0.00000000000E+00  0.00000000000E+00  0.94054131153E+03  0.94054131153E+03  0.00000000000E+00 0. -1.
         21   -1    0    0  501  502  0.00000000000E+00 -0.00000000000E+00 -0.98779715583E+02  0.98779715583E+02  0.00000000000E+00 0. -1.
         24    2    1    2    0    0 -0.10201814563E+02  0.13357194272E+02  0.61322147524E+03  0.61869979493E+03  0.80413723264E+02 0.  0.
         23    2    1    2    0    0  0.35548695462E+01 -0.11558540553E+03  0.27213284734E+03  0.30928788196E+03  0.90719811835E+02 0.  0.
        -13    1    3    3    0    0  0.17473222994E+02 -0.11405430458E+02  0.49004119487E+02  0.53261628706E+02  0.00000000000E+00 0.  1.
         14    1    3    3    0    0 -0.27675037557E+02  0.24762624730E+02  0.56421735575E+03  0.56543816622E+03  0.00000000000E+00 0. -1.
        -11    1    4    4    0    0  0.39518305125E+02 -0.22319739938E+02  0.64757621010E+02  0.79078547721E+02  0.00000000000E+00 0.  1.
         11    1    4    4    0    0 -0.35963435579E+02 -0.93265665596E+02  0.20737522633E+03  0.23020933424E+03  0.00000000000E+00 0. -1.
          1    1    1    2  501    0  0.66469450165E+01  0.10222821126E+03 -0.43592726632E+02  0.11133335022E+03  0.00000000000E+00 0. -1.
<scales pt_clust_5="13000.00000" pt_clust_6="13000.00000" pt_clust_7="13000.00000" pt_clust_8="13000.00000" pt_clust_9="103.77231"></scales>
<clustering>
<clus scale="   80.414">  5  6 -1 -1</clus>
<clus scale="   82.151">  1  5  2 -1</clus>
<clus scale="   90.720">  7  8 -1 -1</clus>
<clus scale="  103.772">  2  9  1 -1</clus>
<clus scale="  103.772">  2  5  1 -1</clus>
</clustering>
</event>
<event>
 9    2  0.6469128E-005  0.2882135E+03  0.7546771E-02  0.1091760E+00
         21   -1    0    0  501  502  0.00000000000E+00  0.00000000000E+00  0.19842240091E+03  0.19842240091E+03  0.00000000000E+00 0.  1.
         -1   -1    0    0    0  501 -0.00000000000E+00 -0.00000000000E+00 -0.72768699918E+03  0.72768699918E+03  0.00000000000E+00 0.  1.
         23    2    1    2    0    0 -0.18261843069E+03  0.22798984795E+03 -0.53387958873E+03  0.61532916273E+03  0.90959888108E+02 0.  0.
         24    2    1    2    0    0  0.15497771927E+03 -0.15856324015E+03 -0.53442533221E+01  0.23539290862E+03  0.78872465330E+02 0.  0.
        -11    1    4    4    0    0  0.16233635819E+03 -0.13797138032E+03 -0.89260650086E+01  0.21323430684E+03  0.00000000000E+00 0.  1.
         12    1    4    4    0    0 -0.73586389150E+01 -0.20591859826E+02  0.35818116865E+01  0.22158601777E+02  0.00000000000E+00 0. -1.
        -11    1    3    3    0    0 -0.37292186876E+02  0.41746829444E+02 -0.19037322218E+03  0.19843252933E+03  0.00000000000E+00 0. -1.
         11    1    3    3    0    0 -0.14532624381E+03  0.18624301850E+03 -0.34350636655E+03  0.41689663341E+03  0.00000000000E+00 0.  1.
         -2    1    1    2    0  502  0.27640711418E+02 -0.69426607800E+02  0.99592437790E+01  0.75387328743E+02  0.00000000000E+00 0.  1.
<scales pt_clust_5="13000.00000" pt_clust_6="13000.00000" pt_clust_7="13000.00000" pt_clust_8="13000.00000" pt_clust_9="74.72659"></scales>
<clustering>
<clus scale="   74.727">  1  9  2 -1</clus>
<clus scale="   78.872">  5  6 -1 -1</clus>
<clus scale="   90.960">  7  8 -1 -1</clus>
<clus scale="  284.630">  1  5  2 -1</clus>
<clus scale="   74.727">  1  5  2 -1</clus>
</clustering>
</event>
<event>
 9    2  0.6469128E-005  0.1715215E+03  0.7546771E-02  0.1177698E+00
         21   -1    0    0  501  502  0.00000000000E+00  0.00000000000E+00  0.58558979655E+02  0.58558979655E+02  0.00000000000E+00 0. -1.
          2   -1    0    0  502    0 -0.00000000000E+00 -0.00000000000E+00 -0.28463150946E+04  0.28463150946E+04  0.00000000000E+00 0. -1.
         24    2    1    2    0    0 -0.34561710952E+02 -0.14703215889E+03 -0.26325309549E+04  0.26381024079E+04  0.80945155647E+02 0.  0.
         23    2    1    2    0    0 -0.13876729775E+02  0.94076697168E+02 -0.14180752723E+03  0.19376073334E+03  0.91601628946E+02 0.  0.
        -11    1    3    3    0    0 -0.80408270209E+01 -0.20434238609E+02 -0.10538863564E+03  0.10765211344E+03  0.00000000000E+00 0.  1.
         12    1    3    3    0    0 -0.26520883931E+02 -0.12659792028E+03 -0.25271423193E+04  0.25304502945E+04  0.00000000000E+00 0. -1.
        -13    1    4    4    0    0  0.19022361101E+02  0.96928510512E+02 -0.11118593409E+03  0.14872558055E+03  0.00000000000E+00 0.  1.
         13    1    4    4    0    0 -0.32899090876E+02 -0.28518133444E+01 -0.30621593139E+02  0.45035152783E+02  0.00000000000E+00 0. -1.
          1    1    1    2  501    0  0.48438440727E+02  0.52955461720E+02 -0.13417632733E+02  0.73010932977E+02  0.00000000000E+00 0. -1.
<scales pt_clust_5="13000.00000" pt_clust_6="13000.00000" pt_clust_7="13000.00000" pt_clust_8="13000.00000" pt_clust_9="71.76743"></scales>
<clustering>
<clus scale="   71.767">  1  9  2 -1</clus>
<clus scale="   80.945">  5  6 -1 -1</clus>
<clus scale="   91.602">  7  8 -1 -1</clus>
<clus scale="  166.075">  2  5  1 -1</clus>
<clus scale="   71.767">  1  5  2 -1</clus>
</clustering>
</event>
<event>
 9    2  0.6469128E-005  0.1048618E+03  0.7546771E-02  0.1276018E+00
         21   -1    0    0  501  502  0.00000000000E+00  0.00000000000E+00  0.11043190865E+02  0.11043190865E+02  0.00000000000E+00 0.  1.
         -3   -1    0    0    0  501 -0.00000000000E+00 -0.00000000000E+00 -0.13300289744E+04  0.13300289744E+04  0.00000000000E+00 0.  1.
         24    2    1    2    0    0  0.54636924715E+02 -0.15693930713E+01 -0.53333544442E+03  0.54207957441E+03  0.80099389414E+02 0.  0.
         23    2    1    2    0    0 -0.36748663842E+02  0.34383853050E+02 -0.50481234873E+03  0.51567870926E+03  0.92500324895E+02 0.  0.
        -11    1    3    3    0    0  0.18399330931E+02  0.21684276487E+02 -0.56010052508E+02  0.62816154033E+02  0.00000000000E+00 0.  1.
         12    1    3    3    0    0  0.36237593784E+02 -0.23253669558E+02 -0.47732539191E+03  0.47926342038E+03  0.00000000000E+00 0. -1.
        -13    1    4    4    0    0  0.27429118887E+02  0.29952117521E+02 -0.21650677785E+03  0.22028316041E+03  0.00000000000E+00 0.  1.
         13    1    4    4    0    0 -0.64177782729E+02  0.44317355285E+01 -0.28830557088E+03  0.29539554885E+03  0.00000000000E+00 0. -1.
         -4    1    1    2    0  502 -0.17888260873E+02 -0.32814459978E+02 -0.28083799042E+03  0.28331388163E+03  0.00000000000E+00 0.  1.
<scales pt_clust_5="13000.00000" pt_clust_6="13000.00000" pt_clust_7="13000.00000" pt_clust_8="13000.00000" pt_clust_9="37.37352"></scales>
<clustering>
<clus scale="   37.374">  1  9  2 -1</clus>
<clus scale="   80.099">  5  6 -1 -1</clus>
<clus scale="   92.500">  7  8 -1 -1</clus>
<clus scale="   94.104">  2  5  1 -1</clus>
<clus scale="   37.374">  1  5  2 -1</clus>
</clustering>
</event>
<event>
 9    2  0.6469128E-005  0.3657410E+03  0.7546771E-02  0.1056334E+00
          2   -1    0    0  502    0 -0.00000000000E+00  0.00000000000E+00  0.62176432529E+03  0.62176432529E+03  0.00000000000E+00 0. -1.
         21   -1    0    0  501  502  0.00000000000E+00 -0.00000000000E+00 -0.18836647342E+03  0.18836647342E+03  0.00000000000E+00 0. -1.
         24    2    1    2    0    0 -0.18132731153E+03  0.18663235721E+02  0.12405835689E+03  0.23442460471E+03  0.79602192853E+02 0.  0.
         23    2    1    2    0    0 -0.11232417641E+03 -0.56934710158E+02  0.21659855315E+03  0.26538896210E+03  0.87510491663E+02 0.  0.
        -11    1    3    3    0    0 -0.11904299954E+03 -0.25415279074E+02  0.86845247975E+02  0.14953016166E+03  0.00000000000E+00 0.  1.
         12    1    3    3    0    0 -0.62284311985E+02  0.44078514795E+02  0.37213108915E+02  0.84894443052E+02  0.00000000000E+00 0. -1.
        -13    1    4    4    0    0 -0.81285999843E+02 -0.38080606211E+02  0.21013221655E+03  0.22850184851E+03  0.00000000000E+00 0.  1.
         13    1    4    4    0    0 -0.31038176565E+02 -0.18854103948E+02  0.64663366023E+01  0.36887113592E+02  0.00000000000E+00 0. -1.
          1    1    1    2  501    0  0.29365148793E+03  0.38271474437E+02  0.92740941825E+02  0.31031723190E+03  0.00000000000E+00 0. -1.
<scales pt_clust_5="13000.00000" pt_clust_6="13000.00000" pt_clust_7="13000.00000" pt_clust_8="13000.00000" pt_clust_9="296.13494"></scales>
<clustering>
<clus scale="   79.602">  5  6 -1 -1</clus>
<clus scale="   87.510">  7  8 -1 -1</clus>
<clus scale="  141.145">  5  7 -1 -1</clus>
<clus scale="  296.135">  2  9  1 -1</clus>
<clus scale="  296.135">  2  5  1 -1</clus>
</clustering>
</event>
<event>
 9    2  0.6469128E-005  0.1143628E+03  0.7546771E-02  0.1257580E+00
         21   -1    0    0  501  502  0.00000000000E+00  0.00000000000E+00  0.15408815706E+03  0.15408815706E+03  0.00000000000E+00 0.  1.
         -1   -1    0    0    0  501 -0.00000000000E+00 -0.00000000000E+00 -0.19358456081E+03  0.19358456081E+03  0.00000000000E+00 0.  1.
         23    2    1    2    0    0 -0.85380263127E+02  0.43852703334E+02 -0.10096568510E+03  0.16603205422E+03  0.90331193619E+02 0.  0.
         24    2    1    2    0    0  0.42318560135E+02 -0.95681093467E-01 -0.92939163294E+01  0.87958128421E+02  0.76546624928E+02 0.  0.
        -13    1    4    4    0    0  0.50515156450E+02 -0.15886458973E+01 -0.34643989322E+02  0.61274063217E+02  0.00000000000E+00 0.  1.
         14    1    4    4    0    0 -0.81965963157E+01  0.14929648039E+01  0.25350072993E+02  0.26684065204E+02  0.00000000000E+00 0. -1.
        -13    1    3    3    0    0 -0.39905181183E+02  0.43539624062E+01  0.85521446222E+01  0.41042900135E+02  0.00000000000E+00 0.  1.
         13    1    3    3    0    0 -0.45475081945E+02  0.39498740928E+02 -0.10951782972E+03  0.12498915409E+03  0.00000000000E+00 0. -1.
         -2    1    1    2    0  502  0.43061702993E+02 -0.43757022241E+02  0.70763197681E+02  0.93682535224E+02  0.00000000000E+00 0.  1.
<scales pt_clust_5="13000.00000" pt_clust_6="13000.00000" pt_clust_7="13000.00000" pt_clust_8="13000.00000" pt_clust_9="61.39208"></scales>
<clustering>
<clus scale="   61.392">  1  9  2 -1</clus>
<clus scale="   76.547">  5  6 -1 -1</clus>
<clus scale="   90.331">  7  8 -1 -1</clus>
<clus scale="  103.820">  1  5  2 -1</clus>
<clus scale="   61.392">  1  5  2 -1</clus>
</clustering>
</event>
<event>
 9    2  0.6469128E-005  0.1224478E+03  0.7546771E-02  0.1239337E+00
         21   -1    0    0  501  502  0.00000000000E+00  0.00000000000E+00  0.31114185668E+02  0.31114185668E+02  0.00000000000E+00 0.  1.
          2   -1    0    0  502    0 -0.00000000000E+00 -0.00000000000E+00 -0.98789978606E+03  0.98789978606E+03  0.00000000000E+00 0. -1.
         23    2    1    2    0    0 -0.57405381825E+02 -0.58449042185E+01 -0.23469447277E+03  0.25589215943E+03  0.84081870486E+02 0.  0.
         24    2    1    2    0    0  0.12433008864E+03 -0.51842218402E+02 -0.45112217357E+03  0.47811147115E+03  0.83269302922E+02 0.  0.
        -13    1    4    4    0    0  0.38297764434E+02 -0.14129451312E+02 -0.42887625472E+02  0.59209024427E+02  0.00000000000E+00 0.  1.
         14    1    4    4    0    0  0.86032324203E+02 -0.37712767091E+02 -0.40823454809E+03  0.41890244672E+03  0.00000000000E+00 0. -1.
        -11    1    3    3    0    0 -0.31604392504E+02 -0.34183968301E+02 -0.54546354784E+02  0.71712524252E+02  0.00000000000E+00 0.  1.
         11    1    3    3    0    0 -0.25800989321E+02  0.28339064083E+02 -0.18014811798E+03  0.18417963518E+03  0.00000000000E+00 0. -1.
          1    1    1    2  501    0 -0.66924706812E+02  0.57687122621E+02 -0.27096895406E+03  0.28501034115E+03  0.00000000000E+00 0. -1.
<scales pt_clust_5="13000.00000" pt_clust_6="13000.00000" pt_clust_7="13000.00000" pt_clust_8="13000.00000" pt_clust_9="88.35569"></scales>
<clustering>
<clus scale="   83.269">  5  6 -1 -1</clus>
<clus scale="   84.082">  7  8 -1 -1</clus>
<clus scale="   88.356">  1  9  2 -1</clus>
<clus scale="  121.891">  1  5  2 -1</clus>
<clus scale="   88.356">  1  5  2 -1</clus>
</clustering>
</event>
<event>
 9    2  0.6469128E-005  0.9524959E+02  0.7546771E-02  0.1296941E+00
         21   -1    0    0  501  502  0.00000000000E+00  0.00000000000E+00  0.58173893368E+02  0.58173893368E+02  0.00000000000E+00 0.  1.
          2   -1    0    0  502    0 -0.00000000000E+00 -0.00000000000E+00 -0.23866134949E+03  0.23866134949E+03  0.00000000000E+00 0. -1.
         23    2    1    2    0    0  0.60065216893E+01  0.31298702766E+02 -0.15140195096E+03  0.17959026265E+03  0.91183466646E+02 0.  0.
         24    2    1    2    0    0  0.17071209647E+02 -0.19814339881E+02 -0.34300660292E+02  0.90945358197E+02  0.80065527022E+02 0.  0.
        -13    1    4    4    0    0  0.27686985937E+02  0.19667006908E+02  0.48902692687E+01  0.34311442472E+02  0.00000000000E+00 0.  1.
         14    1    4    4    0    0 -0.10615776290E+02 -0.39481346789E+02 -0.39190929560E+02  0.56633915725E+02  0.00000000000E+00 0. -1.
        -13    1    3    3    0    0 -0.34107385176E+02 -0.10442138682E+02 -0.80551490610E+02  0.88095939880E+02  0.00000000000E+00 0.  1.
         13    1    3    3    0    0  0.40113906865E+02  0.41740841448E+02 -0.70850460345E+02  0.91494322774E+02  0.00000000000E+00 0. -1.
          1    1    1    2  501    0 -0.23077731337E+02 -0.11484362885E+02  0.52151551285E+01  0.26299622004E+02  0.00000000000E+00 0. -1.
<scales pt_clust_5="13000.00000" pt_clust_6="13000.00000" pt_clust_7="13000.00000" pt_clust_8="13000.00000" pt_clust_9="25.77736"></scales>
<clustering>
<clus scale="   25.777">  1  9  2 -1</clus>
<clus scale="   80.066">  5  6 -1 -1</clus>
<clus scale="   84.667">  1  5  2 -1</clus>
<clus scale="   91.183">  7  8 -1 -1</clus>
<clus scale="   25.777">  1  5  2 -1</clus>
</clustering>
</event>
<event>
 9    2  0.6469128E-005  0.9983118E+02  0.7546771E-02  0.1285674E+00
         -1   -1    0    0    0  501 -0.00000000000E+00  0.00000000000E+00  0.20538974718E+03  0.20538974718E+03  0.00000000000E+00 0.  1.
         21   -1    0    0  501  502  0.00000000000E+00 -0.00000000000E+00 -0.53805025142E+03  0.53805025142E+03  0.00000000000E+00 0.  1.
         23    2    1    2    0    0  0.15833318343E+02  0.32331480463E+01  0.80766425058E+02  0.12309098373E+03  0.91471458080E+02 0.  0.
         24    2    1    2    0    0 -0.65408669814E+02 -0.35783065847E+02  0.71652890271E+02  0.13165724701E+03  0.81490932728E+02 0.  0.
        -11    1    4    4    0    0 -0.48708666274E+02  0.10944295977E+02  0.64436956331E+02  0.81513392310E+02  0.00000000000E+00 0.  1.
         12    1    4    4    0    0 -0.16700003540E+02 -0.46727361824E+02  0.72159339399E+01  0.50143854697E+02  0.00000000000E+00 0. -1.
        -13    1    3    3    0    0  0.27856296412E+00 -0.23961736319E+02 -0.10821104004E+02  0.26293320380E+02  0.00000000000E+00 0. -1.
         13    1    3    3    0    0  0.15554755378E+02  0.27194884365E+02  0.91587529062E+02  0.96797663351E+02  0.00000000000E+00 0.  1.
         -2    1    1    2    0  502  0.49575351472E+02  0.32549917800E+02 -0.48507981956E+03  0.48869176786E+03  0.00000000000E+00 0.  1.
<scales pt_clust_5="13000.00000" pt_clust_6="13000.00000" pt_clust_7="13000.00000" pt_clust_8="13000.00000" pt_clust_9="59.30609"></scales>
<clustering>
<clus scale="   59.306">  2  9  1 -1</clus>
<clus scale="   81.491">  5  6 -1 -1</clus>
<clus scale="   90.774">  2  5  1 -1</clus>
<clus scale="   91.471">  7  8 -1 -1</clus>
<clus scale="   59.306">  2  5  1 -1</clus>
</clustering>
</event>
<event>
 9    2  0.6469128E-005  0.1426856E+03  0.7546771E-02  0.1211924E+00
          2   -1    0    0  502    0 -0.00000000000E+00  0.00000000000E+00  0.10924582593E+03  0.10924582593E+03  0.00000000000E+00 0. -1.
         21   -1    0    0  501  502  0.00000000000E+00 -0.00000000000E+00 -0.35013137529E+03  0.35013137529E+03  0.00000000000E+00 0.  1.
         24    2    1    2    0    0  0.22618973877E+02 -0.10396143694E+03 -0.41065100483E+01  0.13432528521E+03  0.81895179795E+02 0.  0.
         23    2    1    2    0    0  0.35497779928E+02  0.12036925439E+03 -0.13212041340E+03  0.20422062236E+03  0.92203086601E+02 0.  0.
        -11    1    3    3    0    0  0.16901795269E+02 -0.18571302550E+02 -0.35227361589E+02  0.43261194693E+02  0.00000000000E+00 0.  1.
         12    1    3    3    0    0  0.57171786071E+01 -0.85390134385E+02  0.31120851540E+02  0.91064090520E+02  0.00000000000E+00 0. -1.
        -11    1    4    4    0    0  0.39529849871E+02  0.13918642148E+02 -0.11840175821E+02  0.43549137690E+02  0.00000000000E+00 0. -1.
         11    1    4    4    0    0 -0.40320699429E+01  0.10645061224E+03 -0.12028023758E+03  0.16067148467E+03  0.00000000000E+00 0.  1.
          1    1    1    2  501    0 -0.58116753805E+02 -0.16407817450E+02 -0.10465862592E+03  0.12083129365E+03  0.00000000000E+00 0. -1.
<scales pt_clust_5="13000.00000" pt_clust_6="13000.00000" pt_clust_7="13000.00000" pt_clust_8="13000.00000" pt_clust_9="60.38852"></scales>
<clustering>
<clus scale="   60.389">  2  9  1 -1</clus>
<clus scale="   81.895">  5  6 -1 -1</clus>
<clus scale="   92.203">  7  8 -1 -1</clus>
<clus scale="  136.252">  1  5  2 -1</clus>
<clus scale="   60.389">  2  5  1 -1</clus>
</clustering>
</event>
<event>
 9    2  0.6469128E-005  0.1140422E+03  0.7546771E-02  0.1256687E+00
         21   -1    0    0  501  502  0.00000000000E+00  0.00000000000E+00  0.27415369123E+03  0.27415369123E+03  0.00000000000E+00 0.  1.
          2   -1    0    0  502    0 -0.00000000000E+00 -0.00000000000E+00 -0.65594272496E+03  0.65594272496E+03  0.00000000000E+00 0. -1.
         24    2    1    2    0    0  0.68056906090E+02  0.10825184282E+02 -0.61859502568E+03  0.62775202916E+03  0.81632574636E+02 0.  0.
         23    2    1    2    0    0 -0.43246474107E+02 -0.96639202898E+01  0.25309267658E+03  0.27264317215E+03  0.91185237296E+02 0.  0.
        -11    1    3    3    0    0  0.25767090325E+02 -0.22314587290E+02 -0.86849913638E+02  0.93299470785E+02  0.00000000000E+00 0.  1.
         12    1    3    3    0    0  0.42289815764E+02  0.33139771572E+02 -0.53174511204E+03  0.53445255838E+03  0.00000000000E+00 0. -1.
        -13    1    4    4    0    0 -0.61423966356E+02  0.20453267556E+02  0.14082528162E+03  0.15499354741E+03  0.00000000000E+00 0. -1.
         13    1    4    4    0    0  0.18177492249E+02 -0.30117187846E+02  0.11226739497E+03  0.11764962474E+03  0.00000000000E+00 0.  1.
          1    1    1    2  501    0 -0.24810431983E+02 -0.11612639919E+01 -0.16286684629E+02  0.29701214882E+02  0.00000000000E+00 0. -1.
<scales pt_clust_5="13000.00000" pt_clust_6="13000.00000" pt_clust_7="13000.00000" pt_clust_8="13000.00000" pt_clust_9="24.83761"></scales>
<clustering>
<clus scale="   24.838">  1  9  2 -1</clus>
<clus scale="   81.633">  5  6 -1 -1</clus>
<clus scale="   91.185">  7  8 -1 -1</clus>
<clus scale="  106.559">  2  5  1 -1</clus>
<clus scale="   24.838">  1  5  2 -1</clus>
</clustering>
</event>
<event>
 9    2  0.6469128E-005  0.9579222E+02  0.7546771E-02  0.1295597E+00
         21   -1    0    0  501  502  0.00000000000E+00  0.00000000000E+00  0.80258509205E+02  0.80258509205E+02  0.00000000000E+00 0. -1.
          2   -1    0    0  502    0 -0.00000000000E+00 -0.00000000000E+00 -0.34530360651E+03  0.34530360651E+03  0.00000000000E+00 0. -1.
         24    2    1    2    0    0 -0.13475706110E+02 -0.31645349510E+02 -0.26068973173E+03  0.27485720784E+03  0.80027030864E+02 0.  0.
         23    2    1    2    0    0  0.24834941616E+02 -0.40309504118E+01 -0.36548441905E+02  0.10132652423E+03  0.91094747496E+02 0.  0.
        -11    1    3    3    0    0 -0.29983937925E+02 -0.21863246225E+02 -0.45050812825E+02  0.58366204307E+02  0.00000000000E+00 0.  1.
         12    1    3    3    0    0  0.16508231816E+02 -0.97821032855E+01 -0.21563891891E+03  0.21649100353E+03  0.00000000000E+00 0. -1.
        -11    1    4    4    0    0  0.15339423968E+02  0.42674215276E+02 -0.88537470011E+01  0.46203629869E+02  0.00000000000E+00 0.  1.
         11    1    4    4    0    0  0.94955176479E+01 -0.46705165688E+02 -0.27694694904E+02  0.55122894365E+02  0.00000000000E+00 0. -1.
          1    1    1    2  501    0 -0.11359235506E+02  0.35676299922E+02  0.32193076333E+02  0.49378383643E+02  0.00000000000E+00 0. -1.
<scales pt_clust_5="13000.00000" pt_clust_6="13000.00000" pt_clust_7="13000.00000" pt_clust_8="13000.00000" pt_clust_9="37.44103"></scales>
<clustering>
<clus scale="   37.441">  1  9  2 -1</clus>
<clus scale="   80.027">  5  6 -1 -1</clus>
<clus scale="   85.336">  2  5  1 -1</clus>
<clus scale="   91.095">  7  8 -1 -1</clus>
<clus scale="   37.441">  1  5  2 -1</clus>
</clustering>
</event>
<event>
 9    2  0.6469128E-005  0.2524079E+03  0.7546771E-02  0.1148680E+00
         21   -1    0    0  501  502  0.00000000000E+00  0.00000000000E+00  0.51883043566E+03  0.51883043566E+03  0.00000000000E+00 0. -1.
          2   -1    0    0  502    0 -0.00000000000E+00 -0.00000000000E+00 -0.31890899073E+03  0.31890899073E+03  0.00000000000E+00 0. -1.
         24    2    1    2    0    0 -0.38481374583E+02 -0.49105765510E+02  0.44216298364E+02  0.11119894688E+03  0.80733712604E+02 0.  0.
         23    2    1    2    0    0  0.23663800065E+03 -0.40486107276E+02  0.35073483616E+03  0.43442863116E+03  0.89870139896E+02 0.  0.
        -13    1    3    3    0    0 -0.58492186765E+02 -0.45752573893E+02  0.50678155366E+02  0.89905001872E+02  0.00000000000E+00 0.  1.
         14    1    3    3    0    0  0.20010812182E+02 -0.33531916167E+01 -0.64618570023E+01  0.21293945011E+02  0.00000000000E+00 0. -1.
        -11    1    4    4    0    0  0.10002877100E+02  0.19470277708E+02  0.31671061773E+02  0.38499421010E+02  0.00000000000E+00 0.  1.
         11    1    4    4    0    0  0.22663512355E+03 -0.59956384984E+02  0.31906377439E+03  0.39592921015E+03  0.00000000000E+00 0. -1.
          1    1    1    2  501    0 -0.19815662607E+03  0.89591872786E+02 -0.19502968959E+03  0.29211184835E+03  0.00000000000E+00 0. -1.
<scales pt_clust_5="13000.00000" pt_clust_6="13000.00000" pt_clust_7="13000.00000" pt_clust_8="13000.00000" pt_clust_9="235.86680"></scales>
<clustering>
<clus scale="   80.734">  5  6 -1 -1</clus>
<clus scale="   89.870">  7  8 -1 -1</clus>
<clus scale="  102.030">  2  5  1 -1</clus>
<clus scale="  235.867">  1  9  2 -1</clus>
<clus scale="  235.867">  1  5  2 -1</clus>
</clustering>
</event>
<event>
 9    2  0.6469128E-005  0.2543111E+03  0.7546771E-02  0.1111319E+00
         21   -1    0    0  501  502  0.00000000000E+00  0.00000000000E+00  0.14767741741E+03  0.14767741741E+03  0.00000000000E+00 0. -1.
          2   -1    0    0  502    0 -0.00000000000E+00 -0.00000000000E+00 -0.94735077482E+03  0.94735077482E+03  0.00000000000E+00 0. -1.
         23    2    1    2    0    0 -0.16759724178E+03  0.14311279814E+02 -0.19652024569E+03  0.27540697878E+03  0.94525916088E+02 0.  0.
         24    2    1    2    0    0  0.29874884405E+03 -0.12947047026E+03 -0.53639383268E+03  0.63275446077E+03  0.81525391090E+02 0.  0.
        -13    1    4    4    0    0  0.12135971073E+03 -0.80675432853E+02 -0.17929218661E+03  0.23104630063E+03  0.00000000000E+00 0.  1.
         14    1    4    4    0    0  0.17738913331E+03 -0.48795037411E+02 -0.35710164608E+03  0.40170816014E+03  0.00000000000E+00 0. -1.
        -13    1    3    3    0    0 -0.73051365480E+02  0.38469752050E+02 -0.41943161995E+02  0.92604819850E+02  0.00000000000E+00 0.  1.
         13    1    3    3    0    0 -0.94545876304E+02 -0.24158472236E+02 -0.15457708369E+03  0.18280215893E+03  0.00000000000E+00 0. -1.
          1    1    1    2  501    0 -0.13115160226E+03  0.11515919045E+03 -0.66759279038E+02  0.18686675269E+03  0.00000000000E+00 0. -1.
<scales pt_clust_5="13000.00000" pt_clust_6="13000.00000" pt_clust_7="13000.00000" pt_clust_8="13000.00000" pt_clust_9="174.53476"></scales>
<clustering>
<clus scale="   81.525">  5  6 -1 -1</clus>
<clus scale="   94.526">  7  8 -1 -1</clus>
<clus scale="  174.535">  1  9  2 -1</clus>
<clus scale="  249.771">  1  5  2 -1</clus>
<clus scale="  174.535">  1  5  2 -1</clus>
</clustering>
</event>
<event>
 9    2  0.6469128E-005  0.2713274E+03  0.7546771E-02  0.1139194E+00
         21   -1    0    0  501  502  0.00000000000E+00  0.00000000000E+00  0.12277398452E+03  0.12277398452E+03  0.00000000000E+00 0.  1.
         -1   -1    0    0    0  501 -0.00000000000E+00 -0.00000000000E+00 -0.13713845165E+04  0.13713845165E+04  0.00000000000E+00 0.  1.
         24    2    1    2    0    0  0.36727400672E+02  0.50332440983E+02 -0.37716834126E+03  0.39100409962E+03  0.82133986271E+02 0.  0.
         23    2    1    2    0    0  0.41504781459E+02  0.24196557460E+03 -0.10869021090E+03  0.28257595484E+03  0.88122767370E+02 0.  0.
        -11    1    3    3    0    0 -0.20831160029E+02  0.27482795196E+02 -0.74906476268E+02  0.82463455221E+02  0.00000000000E+00 0.  1.
         12    1    3    3    0    0  0.57558560701E+02  0.22849645787E+02 -0.30226186499E+03  0.30854064440E+03  0.00000000000E+00 0. -1.
        -11    1    4    4    0    0  0.48640665936E+02  0.57716210210E+02 -0.42799483606E+02  0.86769067649E+02  0.00000000000E+00 0. -1.
         11    1    4    4    0    0 -0.71358844767E+01  0.18424936439E+03 -0.65890727299E+02  0.19580688719E+03  0.00000000000E+00 0.  1.
         -2    1    1    2    0  502 -0.78232182131E+02 -0.29229801559E+03 -0.76275197978E+03  0.82057844652E+03  0.00000000000E+00 0.  1.
<scales pt_clust_5="13000.00000" pt_clust_6="13000.00000" pt_clust_7="13000.00000" pt_clust_8="13000.00000" pt_clust_9="256.61842"></scales>
<clustering>
<clus scale="   82.134">  5  6 -1 -1</clus>
<clus scale="   88.123">  7  8 -1 -1</clus>
<clus scale="  103.093">  2  5  1 -1</clus>
<clus scale="  256.618">  1  9  2 -1</clus>
<clus scale="  256.618">  1  5  2 -1</clus>
</clustering>
</event>
<event>
 9    2  0.6469128E-005  0.9348940E+02  0.7546771E-02  0.1301420E+00
         21   -1    0    0  501  502  0.00000000000E+00  0.00000000000E+00  0.69535891294E+02  0.69535891294E+02  0.00000000000E+00 0. -1.
          2   -1    0    0  502    0 -0.00000000000E+00 -0.00000000000E+00 -0.37220829744E+03  0.37220829744E+03  0.00000000000E+00 0. -1.
         23    2    1    2    0    0 -0.43641882625E+01  0.65125809274E+01 -0.27781682115E+03  0.29289350054E+03  0.92428116367E+02 0.  0.
         24    2    1    2    0    0 -0.68829204471E+01 -0.54107795632E+02 -0.15636067841E+02  0.99083214741E+02  0.81227881197E+02 0.  0.
        -13    1    4    4    0    0  0.31838164321E+02 -0.29466822928E+02  0.12627594298E+02  0.45182059476E+02  0.00000000000E+00 0.  1.
         14    1    4    4    0    0 -0.38721084768E+02 -0.24640972704E+02 -0.28263662138E+02  0.53901155264E+02  0.00000000000E+00 0. -1.
        -13    1    3    3    0    0 -0.29540009461E+02 -0.31957771511E+02 -0.96860255369E+02  0.10618766590E+03  0.00000000000E+00 0. -1.
         13    1    3    3    0    0  0.25175821198E+02  0.38470352439E+02 -0.18095656578E+03  0.18670583464E+03  0.00000000000E+00 0.  1.
          1    1    1    2  501    0  0.11247108710E+02  0.47595214704E+02 -0.92195171527E+01  0.49767473450E+02  0.00000000000E+00 0. -1.
<scales pt_clust_5="13000.00000" pt_clust_6="13000.00000" pt_clust_7="13000.00000" pt_clust_8="13000.00000" pt_clust_9="48.90605"></scales>
<clustering>
<clus scale="   48.906">  1  9  2 -1</clus>
<clus scale="   81.228">  5  6 -1 -1</clus>
<clus scale="   82.433">  1  5  2 -1</clus>
<clus scale="   92.428">  7  8 -1 -1</clus>
<clus scale="   48.906">  1  5  2 -1</clus>
</clustering>
</event>
<event>
 9    2  0.6469128E-005  0.1006170E+03  0.7546771E-02  0.1287923E+00
          2   -1    0    0  502    0 -0.00000000000E+00  0.00000000000E+00  0.50336071089E+03  0.50336071089E+03  0.00000000000E+00 0. -1.
         21   -1    0    0  501  502  0.00000000000E+00 -0.00000000000E+00 -0.27803998995E+02  0.27803998995E+02  0.00000000000E+00 0.  1.
         23    2    1    2    0    0  0.34292111632E+02 -0.13883854536E+02  0.35375904771E+03  0.36827035216E+03  0.95440442725E+02 0.  0.
         24    2    1    2    0    0 -0.12111737987E+02  0.23290886055E+02  0.10315132574E+03  0.13242885011E+03  0.78791146511E+02 0.  0.
        -13    1    4    4    0    0 -0.23451833633E+02  0.32963263579E+02  0.15187805064E+02  0.43211510841E+02  0.00000000000E+00 0.  1.
         14    1    4    4    0    0  0.11340095645E+02 -0.96723775235E+01  0.87963520673E+02  0.89217339264E+02  0.00000000000E+00 0. -1.
        -11    1    3    3    0    0 -0.17305135553E+02  0.29861596172E+02  0.10882943322E+03  0.11417104790E+03  0.00000000000E+00 0.  1.
         11    1    3    3    0    0  0.51597247185E+02 -0.43745450708E+02  0.24492961449E+03  0.25409930426E+03  0.00000000000E+00 0. -1.
          1    1    1    2  501    0 -0.22180373645E+02 -0.94070315190E+01  0.18646338449E+02  0.30465507621E+02  0.00000000000E+00 0. -1.
<scales pt_clust_5="13000.00000" pt_clust_6="13000.00000" pt_clust_7="13000.00000" pt_clust_8="13000.00000" pt_clust_9="24.09276"></scales>
<clustering>
<clus scale="   24.093">  2  9  1 -1</clus>
<clus scale="   78.791">  5  6 -1 -1</clus>
<clus scale="   84.988">  2  5  1 -1</clus>
<clus scale="   95.440">  7  8 -1 -1</clus>
<clus scale="   24.093">  2  5  1 -1</clus>
</clustering>
</event>
<event>
 9    2  0.6469128E-005  0.1257861E+03  0.7546771E-02  0.1250315E+00
          2   -1    0    0  502    0 -0.00000000000E+00  0.00000000000E+00  0.61871766698E+03  0.61871766698E+03  0.00000000000E+00 0. -1.
         21   -1    0    0  501  502  0.00000000000E+00 -0.00000000000E+00 -0.60025325277E+02  0.60025325277E+02  0.00000000000E+00 0.  1.
         24    2    1    2    0    0 -0.65508236304E+01  0.44471279605E+02  0.52086055502E+03  0.52871396537E+03  0.78880488126E+02 0.  0.
         23    2    1    2    0    0 -0.53676809712E+01 -0.27047788890E+02  0.20875737582E+02  0.12295253557E+03  0.11798785828E+03 0.  0.
        -11    1    3    3    0    0 -0.17664278605E+02  0.30733562431E+02  0.80028781944E+02  0.87528192816E+02  0.00000000000E+00 0.  1.
         12    1    3    3    0    0  0.11113454975E+02  0.13737717174E+02  0.44083177308E+03  0.44118577256E+03  0.00000000000E+00 0. -1.
        -13    1    4    4    0    0  0.22906850104E+02 -0.65073202619E+02 -0.46230996322E+01  0.69142017117E+02  0.00000000000E+00 0.  1.
         13    1    4    4    0    0 -0.28274531075E+02  0.38025413729E+02  0.25498837214E+02  0.53810518452E+02  0.00000000000E+00 0. -1.
          1    1    1    2  501    0  0.11918504602E+02 -0.17423490715E+02  0.16956049097E+02  0.27076491309E+02  0.00000000000E+00 0. -1.
<scales pt_clust_5="13000.00000" pt_clust_6="13000.00000" pt_clust_7="13000.00000" pt_clust_8="13000.00000" pt_clust_9="21.10992"></scales>
<clustering>
<clus scale="   21.110">  2  9  1 -1</clus>
<clus scale="   78.880">  5  6 -1 -1</clus>
<clus scale="   90.129">  1  5  2 -1</clus>
<clus scale="  117.988">  7  8 -1 -1</clus>
<clus scale="   21.110">  2  5  1 -1</clus>
</clustering>
</event>
<event>
 9    2  0.6469128E-005  0.1259010E+03  0.7546771E-02  0.1237958E+00
         21   -1    0    0  501  502  0.00000000000E+00  0.00000000000E+00  0.45215662905E+03  0.45215662905E+03  0.00000000000E+00 0. -1.
          4   -1    0    0  502    0 -0.00000000000E+00 -0.00000000000E+00 -0.79197274323E+02  0.79197274323E+02  0.00000000000E+00 0. -1.
         24    2    1    2    0    0  0.48318136030E+02  0.74241005784E+02  0.11262405456E+02  0.12028028271E+03  0.80586198711E+02 0.  0.
         23    2    1    2    0    0 -0.77850781184E+02 -0.20791583581E+02  0.17658257097E+03  0.21614709369E+03  0.95105876064E+02 0.  0.
        -13    1    3    3    0    0  0.46074268599E+02  0.72933717638E+01  0.23425902657E+02  0.52199659136E+02  0.00000000000E+00 0.  1.
         14    1    3    3    0    0  0.22438674310E+01  0.66947634020E+02 -0.12163497201E+02  0.68080623573E+02  0.00000000000E+00 0. -1.
        -11    1    4    4    0    0 -0.53506628924E+02  0.48807358643E+01  0.17233174393E+03  0.18051318757E+03  0.00000000000E+00 0. -1.
         11    1    4    4    0    0 -0.24344152260E+02 -0.25672319445E+02  0.42508270433E+01  0.35633906122E+02  0.00000000000E+00 0.  1.
          3    1    1    2  501    0  0.29532645154E+02 -0.53449422203E+02  0.18511437830E+03  0.19492652697E+03  0.00000000000E+00 0. -1.
<scales pt_clust_5="13000.00000" pt_clust_6="13000.00000" pt_clust_7="13000.00000" pt_clust_8="13000.00000" pt_clust_9="61.06568"></scales>
<clustering>
<clus scale="   61.066">  1  9  2 -1</clus>
<clus scale="   80.586">  5  6 -1 -1</clus>
<clus scale="   95.106">  7  8 -1 -1</clus>
<clus scale="  115.326">  2  5  1 -1</clus>
<clus scale="   61.066">  1  5  2 -1</clus>
</clustering>
</event>
<event>
 9    2  0.6469128E-005  0.1077418E+03  0.7546771E-02  0.1269321E+00
          2   -1    0    0  502    0 -0.00000000000E+00  0.00000000000E+00  0.20727764980E+03  0.20727764980E+03  0.00000000000E+00 0. -1.
         21   -1    0    0  501  502  0.00000000000E+00 -0.00000000000E+00 -0.13629143278E+03  0.13629143278E+03  0.00000000000E+00 0.  1.
         23    2    1    2    0    0 -0.54287734556E+02 -0.64638018483E+02 -0.42628576849E+01  0.12484280495E+03  0.91882111619E+02 0.  0.
         24    2    1    2    0    0  0.42219759138E+02 -0.41739323456E+01 -0.26522654184E+02  0.95283151412E+02  0.81089444350E+02 0.  0.
        -11    1    4    4    0    0  0.64446371240E+02 -0.58817650750E+01 -0.60155353159E+01  0.64993204195E+02  0.00000000000E+00 0.  1.
         12    1    4    4    0    0 -0.22226612101E+02  0.17078327294E+01 -0.20507118869E+02  0.30289947217E+02  0.00000000000E+00 0. -1.
        -13    1    3    3    0    0 -0.50652526098E+02  0.18596331419E+01  0.19247077371E+02  0.54217954802E+02  0.00000000000E+00 0. -1.
         13    1    3    3    0    0 -0.36352084578E+01 -0.66497651625E+02 -0.23509935056E+02  0.70624850149E+02  0.00000000000E+00 0.  1.
          1    1    1    2  501    0  0.12067975418E+02  0.68811950829E+02  0.10177172890E+03  0.12344312622E+03  0.00000000000E+00 0. -1.
<scales pt_clust_5="13000.00000" pt_clust_6="13000.00000" pt_clust_7="13000.00000" pt_clust_8="13000.00000" pt_clust_9="69.86219"></scales>
<clustering>
<clus scale="   69.862">  2  9  1 -1</clus>
<clus scale="   81.089">  5  6 -1 -1</clus>
<clus scale="   91.882">  7  8 -1 -1</clus>
<clus scale="   98.699">  2  5  1 -1</clus>
<clus scale="   69.862">  2  5  1 -1</clus>
</clustering>
</event>
<event>
 9    2  0.6469128E-005  0.1311908E+03  0.7546771E-02  0.1246944E+00
         21   -1    0    0  501  502  0.00000000000E+00  0.00000000000E+00  0.39849836097E+02  0.39849836097E+02  0.00000000000E+00 0. -1.
          2   -1    0    0  502    0 -0.00000000000E+00 -0.00000000000E+00 -0.63178047654E+03  0.63178047654E+03  0.00000000000E+00 0. -1.
         24    2    1    2    0    0  0.45932002508E+01 -0.25294698628E+02 -0.10397883838E+03  0.13429379377E+03  0.81008054829E+02 0.  0.
         23    2    1    2    0    0  0.59559028319E+02  0.82418801955E+02 -0.31504694989E+03  0.34426979591E+03  0.94482670185E+02 0.  0.
        -13    1    3    3    0    0 -0.32278009858E+02 -0.13207337889E+02 -0.16471535698E+02  0.38569614760E+02  0.00000000000E+00 0.  1.
         14    1    3    3    0    0  0.36871210108E+02 -0.12087360739E+02 -0.87507302682E+02  0.95724179010E+02  0.00000000000E+00 0. -1.
        -13    1    4    4    0    0  0.28261544478E+02  0.20683141997E+02 -0.18215963475E+02  0.39475670792E+02  0.00000000000E+00 0.  1.
         13    1    4    4    0    0  0.31297483841E+02  0.61735659958E+02 -0.29683098642E+03  0.30479412511E+03  0.00000000000E+00 0. -1.
          1    1    1    2  501    0 -0.64152228570E+02 -0.57124103327E+02 -0.17290485217E+03  0.19306672296E+03  0.00000000000E+00 0. -1.
<scales pt_clust_5="13000.00000" pt_clust_6="13000.00000" pt_clust_7="13000.00000" pt_clust_8="13000.00000" pt_clust_9="91.01674"></scales>
<clustering>
<clus scale="   81.008">  5  6 -1 -1</clus>
<clus scale="   84.990">  2  5  1 -1</clus>
<clus scale="   91.017">  1  9  2 -1</clus>
<clus scale="   94.483">  7  8 -1 -1</clus>
<clus scale="   91.017">  1  5  2 -1</clus>
</clustering>
</event>
<event>
 9    2  0.6469128E-005  0.1097138E+03  0.7546771E-02  0.1264760E+00
         21   -1    0    0  501  502  0.00000000000E+00  0.00000000000E+00  0.63905552506E+02  0.63905552506E+02  0.00000000000E+00 0.  1.
          2   -1    0    0  502    0 -0.00000000000E+00 -0.00000000000E+00 -0.75483122249E+03  0.75483122249E+03  0.00000000000E+00 0. -1.
         24    2    1    2    0    0  0.72385767376E+02  0.13093962425E+02 -0.86327164216E+02  0.13862628700E+03  0.79710206341E+02 0.  0.
         23    2    1    2    0    0 -0.96193866059E+01 -0.86833839200E+02 -0.83787178825E+02  0.15037316983E+03  0.89214071994E+02 0.  0.
        -11    1    3    3    0    0  0.82959407348E+02  0.29120629713E+02 -0.78586781409E+02  0.11792436794E+03  0.00000000000E+00 0.  1.
         12    1    3    3    0    0 -0.10573639972E+02 -0.16026667288E+02 -0.77403828075E+01  0.20701919057E+02  0.00000000000E+00 0. -1.
        -13    1    4    4    0    0 -0.24669894484E+02 -0.37849451478E+02  0.73922753872E+01  0.45780240349E+02  0.00000000000E+00 0.  1.
         13    1    4    4    0    0  0.15050507878E+02 -0.48984387722E+02 -0.91179454212E+02  0.10459292949E+03  0.00000000000E+00 0. -1.
          1    1    1    2  501    0 -0.62766380770E+02  0.73739876775E+02 -0.52081132695E+03  0.52973731817E+03  0.00000000000E+00 0. -1.
<scales pt_clust_5="13000.00000" pt_clust_6="13000.00000" pt_clust_7="13000.00000" pt_clust_8="13000.00000" pt_clust_9="96.83593"></scales>
<clustering>
<clus scale="   79.710">  5  6 -1 -1</clus>
<clus scale="   89.214">  7  8 -1 -1</clus>
<clus scale="   96.836">  1  9  2 -1</clus>
<clus scale="  102.136">  2  5  1 -1</clus>
<clus scale="   96.836">  1  5  2 -1</clus>
</clustering>
</event>
<event>
 9    2  0.6469128E-005  0.9332253E+02  0.7546771E-02  0.1301114E+00
         21   -1    0    0  501  502  0.00000000000E+00  0.00000000000E+00  0.12043116638E+03  0.12043116638E+03  0.00000000000E+00 0.  1.
          2   -1    0    0  502    0 -0.00000000000E+00 -0.00000000000E+00 -0.13610850407E+03  0.13610850407E+03  0.00000000000E+00 0. -1.
         24    2    1    2    0    0  0.78747175015E+01 -0.23075832199E+02 -0.43789137993E+02  0.95185534865E+02  0.80921518980E+02 0.  0.
         23    2    1    2    0    0  0.46152414279E+02  0.66303916778E+01  0.17039118793E+02  0.10380426366E+03  0.91164610166E+02 0.  0.
        -13    1    3    3    0    0 -0.17133476632E+02  0.18509625016E+02  0.57179714054E+01  0.25862278258E+02  0.00000000000E+00 0.  1.
         14    1    3    3    0    0  0.25008194133E+02 -0.41585457215E+02 -0.49507109399E+02  0.69323256607E+02  0.00000000000E+00 0. -1.
        -11    1    4    4    0    0  0.38360881059E+02  0.27945721616E+02  0.46615123358E+02  0.66524358531E+02  0.00000000000E+00 0.  1.
         11    1    4    4    0    0  0.77915332203E+01 -0.21315329938E+02 -0.29576004565E+02  0.37279905127E+02  0.00000000000E+00 0. -1.
          1    1    1    2  501    0 -0.54027131781E+02  0.16445440521E+02  0.11072681508E+02  0.57549871922E+02  0.00000000000E+00 0. -1.
<scales pt_clust_5="13000.00000" pt_clust_6="13000.00000" pt_clust_7="13000.00000" pt_clust_8="13000.00000" pt_clust_9="56.47463"></scales>
<clustering>
<clus scale="   56.475">  1  9  2 -1</clus>
<clus scale="   80.922">  5  6 -1 -1</clus>
<clus scale="   83.345">  2  5  1 -1</clus>
<clus scale="   91.165">  7  8 -1 -1</clus>
<clus scale="   56.475">  1  5  2 -1</clus>
</clustering>
</event>
<event>
 9    2  0.6469128E-005  0.9505754E+02  0.7546771E-02  0.1296418E+00
          2   -1    0    0  502    0 -0.00000000000E+00  0.00000000000E+00  0.25395124134E+03  0.25395124134E+03  0.00000000000E+00 0. -1.
         21   -1    0    0  501  502  0.00000000000E+00 -0.00000000000E+00 -0.55006087427E+02  0.55006087427E+02  0.00000000000E+00 0.  1.
         23    2    1    2    0    0  0.45549862083E+01 -0.16163168110E+02  0.11316325308E+03  0.14672316393E+03  0.91868215836E+02 0.  0.
         24    2    1    2    0    0  0.33465269118E+02  0.33260670859E+02  0.50396087863E+02  0.10755308791E+03  0.82472447421E+02 0.  0.
        -13    1    4    4    0    0  0.43491227695E+02  0.47268924315E+02  0.11827873094E+02  0.65312607314E+02  0.00000000000E+00 0.  1.
         14    1    4    4    0    0 -0.10025958577E+02 -0.14008253456E+02  0.38568214769E+02  0.42240480594E+02  0.00000000000E+00 0. -1.
        -13    1    3    3    0    0  0.47142287581E+02 -0.10091050075E+02  0.43984261154E+02  0.65259787000E+02  0.00000000000E+00 0. -1.
         13    1    3    3    0    0 -0.42587301373E+02 -0.60721180353E+01  0.69178991931E+02  0.81463376926E+02  0.00000000000E+00 0.  1.
          1    1    1    2  501    0 -0.38020255326E+02 -0.17097502749E+02  0.35385812965E+02  0.54681076933E+02  0.00000000000E+00 0. -1.
<scales pt_clust_5="13000.00000" pt_clust_6="13000.00000" pt_clust_7="13000.00000" pt_clust_8="13000.00000" pt_clust_9="41.68772"></scales>
<clustering>
<clus scale="   41.688">  2  9  1 -1</clus>
<clus scale="   82.472">  5  6 -1 -1</clus>
<clus scale="   86.011">  2  5  1 -1</clus>
<clus scale="   91.868">  7  8 -1 -1</clus>
<clus scale="   41.688">  2  5  1 -1</clus>
</clustering>
</event>
<event>
 9    2  0.6469128E-005  0.1188840E+03  0.7546771E-02  0.1248292E+00
          2   -1    0    0  502    0 -0.00000000000E+00  0.00000000000E+00  0.60901280856E+02  0.60901280856E+02  0.00000000000E+00 0. -1.
         21   -1    0    0  501  502  0.00000000000E+00 -0.00000000000E+00 -0.60593068815E+03  0.60593068815E+03  0.00000000000E+00 0. -1.
         23    2    1    2    0    0  0.58261036547E+02  0.39529357958E+02 -0.26756667275E+03  0.29111472117E+03  0.90547987245E+02 0.  0.
         24    2    1    2    0    0 -0.87611257107E+02 -0.13522344420E+02 -0.30514780824E+03  0.32771450307E+03  0.80143773789E+02 0.  0.
        -13    1    4    4    0    0 -0.31645740282E+01 -0.29766679103E+02 -0.11828006125E+03  0.12200919065E+03  0.00000000000E+00 0.  1.
         14    1    4    4    0    0 -0.84446683079E+02  0.16244334683E+02 -0.18686774699E+03  0.20570531242E+03  0.00000000000E+00 0. -1.
        -11    1    3    3    0    0  0.53177268246E+02 -0.41342938182E+01 -0.21988570661E+03  0.22626232168E+03  0.00000000000E+00 0. -1.
         11    1    3    3    0    0  0.50837683009E+01  0.43663651776E+02 -0.47680966142E+02  0.64852399484E+02  0.00000000000E+00 0.  1.
          1    1    1    2  501    0  0.29350220560E+02 -0.26007013539E+02  0.27685073694E+02  0.48002744772E+02  0.00000000000E+00 0. -1.
<scales pt_clust_5="13000.00000" pt_clust_6="13000.00000" pt_clust_7="13000.00000" pt_clust_8="13000.00000" pt_clust_9="39.21482"></scales>
<clustering>
<clus scale="   39.215">  2  9  1 -1</clus>
<clus scale="   80.144">  5  6 -1 -1</clus>
<clus scale="   90.548">  7  8 -1 -1</clus>
<clus scale="  111.164">  2  5  1 -1</clus>
<clus scale="   39.215">  2  5  1 -1</clus>
</clustering>
</event>
<event>
 9    2  0.6469128E-005  0.1151320E+03  0.7546771E-02  0.1254609E+00
          2   -1    0    0  502    0 -0.00000000000E+00  0.00000000000E+00  0.69791952865E+03  0.69791952865E+03  0.00000000000E+00 0. -1.
         21   -1    0    0  501  502  0.00000000000E+00 -0.00000000000E+00 -0.27580156969E+02  0.27580156969E+02  0.00000000000E+00 0. -1.
         24    2    1    2    0    0 -0.15089316454E+02 -0.70944957785E+02  0.34843325565E+03  0.36490549512E+03  0.80556888062E+02 0.  0.
         23    2    1    2    0    0 -0.12574442764E+02  0.72759656274E+02  0.30863128744E+03  0.32985662751E+03  0.90000216303E+02 0.  0.
        -11    1    3    3    0    0  0.13838786894E+02 -0.35805638105E+02  0.50075633892E+02  0.63096155608E+02  0.00000000000E+00 0.  1.
         12    1    3    3    0    0 -0.28928103348E+02 -0.35139319679E+02  0.29835762176E+03  0.30180933951E+03  0.00000000000E+00 0. -1.
        -11    1    4    4    0    0 -0.31583312658E+02  0.25984615698E+02  0.24615241704E+03  0.24952698913E+03  0.00000000000E+00 0. -1.
         11    1    4    4    0    0  0.19008869894E+02  0.46775040576E+02  0.62478870398E+02  0.80329638376E+02  0.00000000000E+00 0.  1.
          1    1    1    2  501    0  0.27663759218E+02 -0.18146984887E+01  0.13274828588E+02  0.30737562992E+02  0.00000000000E+00 0. -1.
<scales pt_clust_5="13000.00000" pt_clust_6="13000.00000" pt_clust_7="13000.00000" pt_clust_8="13000.00000" pt_clust_9="27.72322"></scales>
<clustering>
<clus scale="   27.723">  2  9  1 -1</clus>
<clus scale="   80.557">  5  6 -1 -1</clus>
<clus scale="   90.000">  7  8 -1 -1</clus>
<clus scale="  107.911">  1  5  2 -1</clus>
<clus scale="   27.723">  2  5  1 -1</clus>
</clustering>
</event>
<event>
 9    2  0.6469128E-005  0.9128112E+02  0.7546771E-02  0.1306084E+00
         -3   -1    0    0    0  501 -0.00000000000E+00  0.00000000000E+00  0.48633525556E+03  0.48633525556E+03  0.00000000000E+00 0.  1.
         21   -1    0    0  501  502  0.00000000000E+00 -0.00000000000E+00 -0.24309991030E+02  0.24309991030E+02  0.00000000000E+00 0. -1.
         24    2    1    2    0    0  0.16837052781E+02  0.73716629800E+01  0.31752926177E+03  0.32797758874E+03  0.80041482229E+02 0.  0.
         23    2    1    2    0    0 -0.59254925076E+01  0.98359453970E+01  0.12427440480E+03  0.15396091722E+03  0.90155305211E+02 0.  0.
        -13    1    3    3    0    0  0.18099668705E+02  0.42874356791E+02  0.17376092081E+03  0.17988514691E+03  0.00000000000E+00 0.  1.
         14    1    3    3    0    0 -0.12626159240E+01 -0.35502693811E+02  0.14376834096E+03  0.14809244183E+03  0.00000000000E+00 0. -1.
        -11    1    4    4    0    0 -0.12214753626E+02 -0.37758505570E+02  0.76779024968E+02  0.86428719903E+02  0.00000000000E+00 0.  1.
         11    1    4    4    0    0  0.62892611186E+01  0.47594450967E+02  0.47495379835E+02  0.67532197313E+02  0.00000000000E+00 0. -1.
         -4    1    1    2    0  502 -0.10911560273E+02 -0.17207608377E+02  0.20221597965E+02  0.28706740635E+02  0.00000000000E+00 0.  1.
<scales pt_clust_5="13000.00000" pt_clust_6="13000.00000" pt_clust_7="13000.00000" pt_clust_8="13000.00000" pt_clust_9="20.37557"></scales>
<clustering>
<clus scale="   20.376">  2  9  1 -1</clus>
<clus scale="   80.041">  5  6 -1 -1</clus>
<clus scale="   81.307">  1  5  2 -1</clus>
<clus scale="   90.155">  7  8 -1 -1</clus>
<clus scale="   20.376">  2  5  1 -1</clus>
</clustering>
</event>
<event>
 9    2  0.6469128E-005  0.1253979E+03  0.7546771E-02  0.1254530E+00
          2   -1    0    0  502    0 -0.00000000000E+00  0.00000000000E+00  0.73632564348E+03  0.73632564348E+03  0.00000000000E+00 0. -1.
         21   -1    0    0  501  502  0.00000000000E+00 -0.00000000000E+00 -0.66449920319E+02  0.66449920319E+02  0.00000000000E+00 0. -1.
         24    2    1    2    0    0 -0.14201273350E+02 -0.16411840907E+01  0.25103650444E+03  0.26460644138E+03  0.82418885024E+02 0.  0.
         23    2    1    2    0    0 -0.25601415905E+02  0.78362919790E+02  0.43341556095E+03  0.45051669203E+03  0.91214371796E+02 0.  0.
        -13    1    3    3    0    0  0.29729466693E+02 -0.12010431000E+02  0.15772226942E+03  0.16094845732E+03  0.00000000000E+00 0.  1.
         14    1    3    3    0    0 -0.43930740043E+02  0.10369246909E+02  0.93314235026E+02  0.10365798407E+03  0.00000000000E+00 0. -1.
        -13    1    4    4    0    0 -0.12608554124E+02 -0.16952130300E+02  0.37103386286E+02  0.42696740306E+02  0.00000000000E+00 0.  1.
         13    1    4    4    0    0 -0.12992861781E+02  0.95315050090E+02  0.39631217467E+03  0.40781995172E+03  0.00000000000E+00 0. -1.
          1    1    1    2  501    0  0.39802689254E+02 -0.76721735699E+02 -0.14576342235E+02  0.87652430391E+02  0.00000000000E+00 0. -1.
<scales pt_clust_5="13000.00000" pt_clust_6="13000.00000" pt_clust_7="13000.00000" pt_clust_8="13000.00000" pt_clust_9="86.04985"></scales>
<clustering>
<clus scale="   82.419">  5  6 -1 -1</clus>
<clus scale="   83.650">  1  5  2 -1</clus>
<clus scale="   86.050">  2  9  1 -1</clus>
<clus scale="   91.214">  7  8 -1 -1</clus>
<clus scale="   86.050">  2  5  1 -1</clus>
</clustering>
</event>
<event>
 9    2  0.6469128E-005  0.9362133E+02  0.7546771E-02  0.1299636E+00
          2   -1    0    0  502    0 -0.00000000000E+00  0.00000000000E+00  0.55573955409E+03  0.55573955409E+03  0.00000000000E+00 0. -1.
         21   -1    0    0  501  502  0.00000000000E+00 -0.00000000000E+00 -0.27204880266E+02  0.27204880266E+02  0.00000000000E+00 0.  1.
         24    2    1    2    0    0 -0.27280500663E+02  0.31509970464E+02  0.24410043230E+03  0.26005393998E+03  0.79409865229E+02 0.  0.
         23    2    1    2    0    0 -0.13066790063E+02 -0.15302712622E+02  0.10822201990E+03  0.14139303951E+03  0.88741602489E+02 0.  0.
        -11    1    3    3    0    0  0.32489312502E+01  0.43755462881E+02  0.68131560308E+02  0.81037063102E+02  0.00000000000E+00 0.  1.
         12    1    3    3    0    0 -0.30529431913E+02 -0.12245492417E+02  0.17596887199E+03  0.17901687688E+03  0.00000000000E+00 0. -1.
        -13    1    4    4    0    0 -0.46678965294E+02 -0.80821494122E+01  0.30328213697E+02  0.56249866542E+02  0.00000000000E+00 0.  1.
         13    1    4    4    0    0  0.33612175230E+02 -0.72205632095E+01  0.77893806208E+02  0.85143172964E+02  0.00000000000E+00 0. -1.
          1    1    1    2  501    0  0.40347290727E+02 -0.16207257842E+02  0.17621222162E+03  0.18149745487E+03  0.00000000000E+00 0. -1.
<scales pt_clust_5="13000.00000" pt_clust_6="13000.00000" pt_clust_7="13000.00000" pt_clust_8="13000.00000" pt_clust_9="43.48081"></scales>
<clustering>
<clus scale="   43.481">  2  9  1 -1</clus>
<clus scale="   79.410">  5  6 -1 -1</clus>
<clus scale="   84.828">  1  5  2 -1</clus>
<clus scale="   88.742">  7  8 -1 -1</clus>
<clus scale="   43.481">  2  5  1 -1</clus>
</clustering>
</event>
<event>
 9    2  0.6469128E-005  0.9622901E+02  0.7546771E-02  0.1295013E+00
         21   -1    0    0  501  502  0.00000000000E+00  0.00000000000E+00  0.13014963805E+03  0.13014963805E+03  0.00000000000E+00 0.  1.
          2   -1    0    0  502    0 -0.00000000000E+00 -0.00000000000E+00 -0.95242837434E+03  0.95242837434E+03  0.00000000000E+00 0. -1.
         24    2    1    2    0    0 -0.86511694759E+01 -0.30620748272E+02 -0.91203666654E+03  0.91603172138E+03  0.79314314634E+02 0.  0.
         23    2    1    2    0    0  0.48818036282E+01  0.13449313709E+00  0.24649424590E+02  0.94555059726E+02  0.91154896150E+02 0.  0.
        -11    1    3    3    0    0 -0.21359263976E+02 -0.34749920592E+02 -0.21317296697E+03  0.21704029346E+03  0.00000000000E+00 0.  1.
         12    1    3    3    0    0  0.12708094500E+02  0.41291723202E+01 -0.69886369957E+03  0.69899142792E+03  0.00000000000E+00 0. -1.
        -11    1    4    4    0    0  0.26152097871E+02  0.29795218252E+02  0.38740591797E+02  0.55430322988E+02  0.00000000000E+00 0.  1.
         11    1    4    4    0    0 -0.21270294243E+02 -0.29660725115E+02 -0.14091167208E+02  0.39124736738E+02  0.00000000000E+00 0. -1.
          1    1    1    2  501    0  0.37693658478E+01  0.30486255135E+02  0.65108505664E+02  0.71991231277E+02  0.00000000000E+00 0. -1.
<scales pt_clust_5="13000.00000" pt_clust_6="13000.00000" pt_clust_7="13000.00000" pt_clust_8="13000.00000" pt_clust_9="30.71840"></scales>
<clustering>
<clus scale="   30.718">  1  9  2 -1</clus>
<clus scale="   79.314">  5  6 -1 -1</clus>
<clus scale="   85.097">  2  5  1 -1</clus>
<clus scale="   91.155">  7  8 -1 -1</clus>
<clus scale="   30.718">  1  5  2 -1</clus>
</clustering>
</event>
<event>
 9    2  0.6469128E-005  0.1650571E+03  0.7546771E-02  0.1184505E+00
          2   -1    0    0  502    0 -0.00000000000E+00  0.00000000000E+00  0.10722545689E+04  0.10722545689E+04  0.00000000000E+00 0. -1.
         21   -1    0    0  501  502  0.00000000000E+00 -0.00000000000E+00 -0.37441459355E+02  0.37441459355E+02  0.00000000000E+00 0. -1.
         23    2    1    2    0    0 -0.13238671644E+03 -0.91519444131E+02  0.66696306302E+03  0.69228118173E+03  0.92257551446E+02 0.  0.
         24    2    1    2    0    0  0.95058410250E+02  0.40874398480E+02  0.22163643713E+03  0.25823965165E+03  0.82814187250E+02 0.  0.
        -11    1    4    4    0    0  0.37187364128E+02  0.15065344065E+02  0.17505655538E+03  0.17959583019E+03  0.00000000000E+00 0.  1.
         12    1    4    4    0    0  0.57871046123E+02  0.25809054414E+02  0.46579881756E+02  0.78643821458E+02  0.00000000000E+00 0. -1.
        -13    1    3    3    0    0 -0.26550719521E+01 -0.21745327071E+02  0.23314861924E+02  0.31992052811E+02  0.00000000000E+00 0.  1.
         13    1    3    3    0    0 -0.12973164449E+03 -0.69774117059E+02  0.64364820110E+03  0.66028912892E+03  0.00000000000E+00 0. -1.
          1    1    1    2  501    0  0.37328306192E+02  0.50645045651E+02  0.14621360940E+03  0.15917519488E+03  0.00000000000E+00 0. -1.
<scales pt_clust_5="13000.00000" pt_clust_6="13000.00000" pt_clust_7="13000.00000" pt_clust_8="13000.00000" pt_clust_9="62.91521"></scales>
<clustering>
<clus scale="   62.915">  2  9  1 -1</clus>
<clus scale="   82.814">  5  6 -1 -1</clus>
<clus scale="   92.258">  7  8 -1 -1</clus>
<clus scale="  159.971">  2  5  1 -1</clus>
<clus scale="   62.915">  2  5  1 -1</clus>
</clustering>
</event>
<event>
 9    2  0.6469128E-005  0.9493573E+02  0.7546771E-02  0.1299998E+00
         21   -1    0    0  501  502  0.00000000000E+00  0.00000000000E+00  0.18247322208E+03  0.18247322208E+03  0.00000000000E+00 0.  1.
         -3   -1    0    0    0  501 -0.00000000000E+00 -0.00000000000E+00 -0.66582762007E+02  0.66582762007E+02  0.00000000000E+00 0.  1.
         23    2    1    2    0    0  0.91890303147E+01 -0.24583912103E+02  0.15652864533E+02  0.98705277001E+02  0.93855807105E+02 0.  0.
         24    2    1    2    0    0  0.82720729384E+01 -0.63836193497E+00  0.61203306475E+02  0.10070467041E+03  0.79540877686E+02 0.  0.
        -11    1    4    4    0    0 -0.10174061325E+02 -0.35074323124E+02  0.46120712271E+02  0.58828902478E+02  0.00000000000E+00 0.  1.
         12    1    4    4    0    0  0.18446134264E+02  0.34435961189E+02  0.15082594204E+02  0.41875767936E+02  0.00000000000E+00 0. -1.
        -13    1    3    3    0    0 -0.30356915529E+02 -0.41351270268E+02  0.20980286117E+02  0.55422398709E+02  0.00000000000E+00 0.  1.
         13    1    3    3    0    0  0.39545945843E+02  0.16767358164E+02 -0.53274215845E+01  0.43282878291E+02  0.00000000000E+00 0. -1.
         -4    1    1    2    0  502 -0.17461103253E+02  0.25222274038E+02  0.39034289065E+02  0.49646036672E+02  0.00000000000E+00 0.  1.
<scales pt_clust_5="13000.00000" pt_clust_6="13000.00000" pt_clust_7="13000.00000" pt_clust_8="13000.00000" pt_clust_9="30.67659"></scales>
<clustering>
<clus scale="   30.677">  1  9  2 -1</clus>
<clus scale="   79.541">  5  6 -1 -1</clus>
<clus scale="   80.812">  1  5  2 -1</clus>
<clus scale="   93.856">  7  8 -1 -1</clus>
<clus scale="   30.677">  1  5  2 -1</clus>
</clustering>
</event>
<event>
 9    2  0.6469128E-005  0.9280962E+02  0.7546771E-02  0.1301391E+00
         -1   -1    0    0    0  501 -0.00000000000E+00  0.00000000000E+00  0.16595577209E+03  0.16595577209E+03  0.00000000000E+00 0.  1.
         21   -1    0    0  501  502  0.00000000000E+00 -0.00000000000E+00 -0.14800043577E+03  0.14800043577E+03  0.00000000000E+00 0.  1.
         23    2    1    2    0    0  0.40036865257E+02  0.19622361765E+02 -0.13177181887E+02  0.10264813574E+03  0.91515102513E+02 0.  0.
         24    2    1    2    0    0  0.17485695963E+02  0.36626087981E+02 -0.43091933062E+02  0.10184573927E+03  0.82875931537E+02 0.  0.
        -11    1    4    4    0    0  0.37284469390E+02  0.27230207254E+02 -0.58889382963E+02  0.74830309839E+02  0.00000000000E+00 0.  1.
         12    1    4    4    0    0 -0.19798773428E+02  0.93958807270E+01  0.15797449901E+02  0.27015429430E+02  0.00000000000E+00 0. -1.
        -13    1    3    3    0    0  0.56838941393E+01  0.26422500203E+02  0.34290065426E+02  0.43660780530E+02  0.00000000000E+00 0.  1.
         13    1    3    3    0    0  0.34352971118E+02 -0.68001384387E+01 -0.47467247313E+02  0.58987355212E+02  0.00000000000E+00 0. -1.
         -2    1    1    2    0  502 -0.57522561220E+02 -0.56248449746E+02  0.74224451266E+02  0.10946233285E+03  0.00000000000E+00 0.  1.
<scales pt_clust_5="13000.00000" pt_clust_6="13000.00000" pt_clust_7="13000.00000" pt_clust_8="13000.00000" pt_clust_9="80.45334"></scales>
<clustering>
<clus scale="   80.453">  2  9  1 -1</clus>
<clus scale="   82.876">  5  6 -1 -1</clus>
<clus scale="   84.303">  2  5  1 -1</clus>
<clus scale="   91.515">  7  8 -1 -1</clus>
<clus scale="   80.453">  2  5  1 -1</clus>
</clustering>
</event>
<event>
 9    2  0.6469128E-005  0.9292396E+02  0.7546771E-02  0.1303279E+00
          2   -1    0    0  502    0 -0.00000000000E+00  0.00000000000E+00  0.69469933683E+03  0.69469933683E+03  0.00000000000E+00 0. -1.
         21   -1    0    0  501  502  0.00000000000E+00 -0.00000000000E+00 -0.22762544648E+02  0.22762544648E+02  0.00000000000E+00 0.  1.
         24    2    1    2    0    0 -0.20782280623E+02  0.20857714315E+02  0.37564202153E+03  0.38492868648E+03  0.78716058687E+02 0.  0.
         23    2    1    2    0    0 -0.31133628366E+02 -0.11361347690E+02  0.16846064418E+03  0.19423277391E+03  0.90823998951E+02 0.  0.
        -13    1    3    3    0    0  0.26103576388E+02  0.10700486860E+02  0.68806857235E+02  0.74365857232E+02  0.00000000000E+00 0.  1.
         14    1    3    3    0    0 -0.46885857011E+02  0.10157227455E+02  0.30683516430E+03  0.31056282924E+03  0.00000000000E+00 0. -1.
        -11    1    4    4    0    0 -0.36808082686E+02 -0.36996717510E+02  0.15724962445E+03  0.16568354308E+03  0.00000000000E+00 0. -1.
         11    1    4    4    0    0  0.56744543197E+01  0.25635369819E+02  0.11211019734E+02  0.28549230832E+02  0.00000000000E+00 0.  1.
          1    1    1    2  501    0  0.51915908989E+02 -0.94963666250E+01  0.12783412647E+03  0.13830042109E+03  0.00000000000E+00 0. -1.
<scales pt_clust_5="13000.00000" pt_clust_6="13000.00000" pt_clust_7="13000.00000" pt_clust_8="13000.00000" pt_clust_9="52.77729"></scales>
<clustering>
<clus scale="   52.777">  2  9  1 -1</clus>
<clus scale="   78.716">  5  6 -1 -1</clus>
<clus scale="   81.130">  1  5  2 -1</clus>
<clus scale="   90.824">  7  8 -1 -1</clus>
<clus scale="   52.777">  2  5  1 -1</clus>
</clustering>
</event>
<event>
 9    2  0.6469128E-005  0.1619405E+03  0.7546771E-02  0.1187972E+00
         -3   -1    0    0    0  501 -0.00000000000E+00  0.00000000000E+00  0.13143571919E+03  0.13143571919E+03  0.00000000000E+00 0.  1.
         21   -1    0    0  501  502  0.00000000000E+00 -0.00000000000E+00 -0.34822392238E+03  0.34822392238E+03  0.00000000000E+00 0.  1.
         24    2    1    2    0    0  0.35455346372E+02 -0.17105724907E+03 -0.38117571927E+02  0.19586598828E+03  0.79955437765E+02 0.  0.
         23    2    1    2    0    0 -0.32986009033E+02  0.77547730827E+02 -0.12755089429E+03  0.17719461419E+03  0.89593377634E+02 0.  0.
        -11    1    3    3    0    0  0.52503902487E+02 -0.16017833696E+03 -0.21976132158E+02  0.16999032264E+03  0.00000000000E+00 0.  1.
         12    1    3    3    0    0 -0.17048556115E+02 -0.10878912115E+02 -0.16141439769E+02  0.25875665638E+02  0.00000000000E+00 0. -1.
        -13    1    4    4    0    0 -0.38010195796E+02 -0.60386939062E+01 -0.31229375832E+02  0.49563239638E+02  0.00000000000E+00 0. -1.
         13    1    4    4    0    0  0.50241867634E+01  0.83586424734E+02 -0.96321518455E+02  0.12763137455E+03  0.00000000000E+00 0.  1.
         -4    1    1    2    0  502 -0.24693373397E+01  0.93509518247E+02 -0.51119736979E+02  0.10659903911E+03  0.00000000000E+00 0.  1.
<scales pt_clust_5="13000.00000" pt_clust_6="13000.00000" pt_clust_7="13000.00000" pt_clust_8="13000.00000" pt_clust_9="93.54212"></scales>
<clustering>
<clus scale="   79.955">  5  6 -1 -1</clus>
<clus scale="   89.593">  7  8 -1 -1</clus>
<clus scale="   93.542">  2  9  1 -1</clus>
<clus scale="  156.814">  1  5  2 -1</clus>
<clus scale="   93.542">  2  5  1 -1</clus>
</clustering>
</event>
<event>
 9    2  0.6469128E-005  0.4355883E+03  0.7546771E-02  0.1046027E+00
         -1   -1    0    0    0  501 -0.00000000000E+00  0.00000000000E+00  0.26263734169E+03  0.26263734169E+03  0.00000000000E+00 0.  1.
         21   -1    0    0  501  502  0.00000000000E+00 -0.00000000000E+00 -0.14675147135E+04  0.14675147135E+04  0.00000000000E+00 0.  1.
         24    2    1    2    0    0  0.75030623252E+02 -0.26931417343E+03 -0.14330454875E+03  0.32377014711E+03  0.78301954204E+02 0.  0.
         23    2    1    2    0    0 -0.37852576813E+03 -0.13628078987E+03 -0.53743220798E+03  0.67745121071E+03  0.90843568224E+02 0.  0.
        -13    1    3    3    0    0 -0.12109783831E+02 -0.42824733803E+02 -0.58934019693E+01  0.44892503567E+02  0.00000000000E+00 0.  1.
         14    1    3    3    0    0  0.87140407083E+02 -0.22648943962E+03 -0.13741114678E+03  0.27887764354E+03  0.00000000000E+00 0. -1.
        -13    1    4    4    0    0 -0.13832038155E+03 -0.61742054366E+02 -0.13505936101E+03  0.20294245545E+03  0.00000000000E+00 0. -1.
         13    1    4    4    0    0 -0.24020538658E+03 -0.74538735499E+02 -0.40237284697E+03  0.47450875525E+03  0.00000000000E+00 0.  1.
         -2    1    1    2    0  502  0.30349514488E+03  0.40559496329E+03 -0.52414061508E+03  0.72893069739E+03  0.00000000000E+00 0.  1.
<scales pt_clust_5="13000.00000" pt_clust_6="13000.00000" pt_clust_7="13000.00000" pt_clust_8="13000.00000" pt_clust_9="426.01028"></scales>
<clustering>
<clus scale="   78.302">  5  6 -1 -1</clus>
<clus scale="   90.844">  7  8 -1 -1</clus>
<clus scale="  290.329">  1  5  2 -1</clus>
<clus scale="  426.010">  2  9  1 -1</clus>
<clus scale="  426.010">  2  5  1 -1</clus>
</clustering>
</event>
<event>
 9    2  0.6469128E-005  0.1780149E+03  0.7546771E-02  0.1170578E+00
         21   -1    0    0  501  502  0.00000000000E+00  0.00000000000E+00  0.59706532483E+02  0.59706532483E+02  0.00000000000E+00 0. -1.
          2   -1    0    0  502    0 -0.00000000000E+00 -0.00000000000E+00 -0.11327945065E+04  0.11327945065E+04  0.00000000000E+00 0. -1.
         24    2    1    2    0    0  0.10126511985E+03 -0.10546522361E+03 -0.68822111045E+03  0.70822055845E+03  0.80935311475E+02 0.  0.
         23    2    1    2    0    0 -0.15986417608E+03  0.11285789733E+03 -0.21212964929E+03  0.30172460906E+03  0.88007339578E+02 0.  0.
        -13    1    3    3    0    0  0.68701923208E+02 -0.20754863633E+02 -0.38802510052E+03  0.39460638268E+03  0.00000000000E+00 0.  1.
         14    1    3    3    0    0  0.32563196641E+02 -0.84710359977E+02 -0.30019600994E+03  0.31361417577E+03  0.00000000000E+00 0. -1.
        -11    1    4    4    0    0 -0.68327037831E+02  0.10083564102E+03 -0.13015561877E+03  0.17826075198E+03  0.00000000000E+00 0. -1.
         11    1    4    4    0    0 -0.91537138249E+02  0.12022256314E+02 -0.81974030522E+02  0.12346385708E+03  0.00000000000E+00 0.  1.
          1    1    1    2  501    0  0.58599056230E+02 -0.73926737218E+01 -0.17273721425E+03  0.18255587145E+03  0.00000000000E+00 0. -1.
<scales pt_clust_5="13000.00000" pt_clust_6="13000.00000" pt_clust_7="13000.00000" pt_clust_8="13000.00000" pt_clust_9="59.06356"></scales>
<clustering>
<clus scale="   59.064">  1  9  2 -1</clus>
<clus scale="   80.935">  5  6 -1 -1</clus>
<clus scale="   88.007">  7  8 -1 -1</clus>
<clus scale="  174.627">  2  5  1 -1</clus>
<clus scale="   59.064">  1  5  2 -1</clus>
</clustering>
</event>
<event>
 9    2  0.6469128E-005  0.9069491E+02  0.7546771E-02  0.1308573E+00
         21   -1    0    0  501  502  0.00000000000E+00  0.00000000000E+00  0.42963850979E+03  0.42963850979E+03  0.00000000000E+00 0.  1.
          4   -1    0    0  502    0 -0.00000000000E+00 -0.00000000000E+00 -0.53750286922E+03  0.53750286922E+03  0.00000000000E+00 0. -1.
         24    2    1    2    0    0  0.83048923980E+01  0.82186328465E+01 -0.49795473998E+03  0.50422025005E+03  0.78374870509E+02 0.  0.
         23    2    1    2    0    0 -0.26666990428E+02  0.40284803687E+02  0.39761331255E+03  0.41051555191E+03  0.89959314472E+02 0.  0.
        -11    1    3    3    0    0 -0.22522693649E+02  0.65111437822E-01 -0.46775230702E+02  0.51915298092E+02  0.00000000000E+00 0.  1.
         12    1    3    3    0    0  0.30827586047E+02  0.81535214087E+01 -0.45117950928E+03  0.45230495196E+03  0.00000000000E+00 0. -1.
        -13    1    4    4    0    0  0.23866340439E+01  0.59774256459E+02  0.31764969727E+03  0.32323364295E+03  0.00000000000E+00 0.  1.
         13    1    4    4    0    0 -0.29053624472E+02 -0.19489452772E+02  0.79963615279E+02  0.87281908967E+02  0.00000000000E+00 0. -1.
          3    1    1    2  501    0  0.18362098030E+02 -0.48503436534E+02 -0.75229320037E+01  0.52405577046E+02  0.00000000000E+00 0. -1.
<scales pt_clust_5="13000.00000" pt_clust_6="13000.00000" pt_clust_7="13000.00000" pt_clust_8="13000.00000" pt_clust_9="51.86283"></scales>
<clustering>
<clus scale="   51.863">  1  9  2 -1</clus>
<clus scale="   78.375">  5  6 -1 -1</clus>
<clus scale="   79.218">  2  5  1 -1</clus>
<clus scale="   89.959">  7  8 -1 -1</clus>
<clus scale="   51.863">  1  5  2 -1</clus>
</clustering>
</event>
<event>
 9    2  0.6469128E-005  0.9453176E+02  0.7546771E-02  0.1292721E+00
          2   -1    0    0  502    0 -0.00000000000E+00  0.00000000000E+00  0.53010010456E+03  0.53010010456E+03  0.00000000000E+00 0. -1.
         21   -1    0    0  501  502  0.00000000000E+00 -0.00000000000E+00 -0.42052558583E+02  0.42052558583E+02  0.00000000000E+00 0.  1.
         24    2    1    2    0    0  0.19003610975E+02  0.36321069341E+02  0.34837464695E+03  0.36008005357E+03  0.81316622152E+02 0.  0.
         23    2    1    2    0    0 -0.55276506528E+02 -0.54694549801E+02  0.75458725384E+02  0.13606755820E+03  0.82300517661E+02 0.  0.
        -11    1    3    3    0    0 -0.30449398854E+02  0.25714762324E+01  0.13860034525E+03  0.14192897550E+03  0.00000000000E+00 0.  1.
         12    1    3    3    0    0  0.49453009829E+02  0.33749593109E+02  0.20977430169E+03  0.21815107808E+03  0.00000000000E+00 0. -1.
        -11    1    4    4    0    0 -0.34222543744E+02 -0.68815775741E+02  0.27148476733E+02  0.81509712796E+02  0.00000000000E+00 0.  1.
         11    1    4    4    0    0 -0.21053962784E+02  0.14121225939E+02  0.48310248651E+02  0.54557845409E+02  0.00000000000E+00 0. -1.
          1    1    1    2  501    0  0.36272895553E+02  0.18373480460E+02  0.64214173648E+02  0.76005051367E+02  0.00000000000E+00 0. -1.
<scales pt_clust_5="13000.00000" pt_clust_6="13000.00000" pt_clust_7="13000.00000" pt_clust_8="13000.00000" pt_clust_9="40.66089"></scales>
<clustering>
<clus scale="   40.661">  2  9  1 -1</clus>
<clus scale="   81.317">  5  6 -1 -1</clus>
<clus scale="   82.301">  7  8 -1 -1</clus>
<clus scale="   93.676">  1  5  2 -1</clus>
<clus scale="   40.661">  2  5  1 -1</clus>
</clustering>
</event>
<event>
 9    2  0.6469128E-005  0.1577467E+03  0.7546771E-02  0.1192433E+00
         -3   -1    0    0    0  501 -0.00000000000E+00  0.00000000000E+00  0.20573382388E+03  0.20573382388E+03  0.00000000000E+00 0.  1.
         21   -1    0    0  501  502  0.00000000000E+00 -0.00000000000E+00 -0.20684824633E+03  0.20684824633E+03  0.00000000000E+00 0.  1.
         23    2    1    2    0    0  0.54658342298E+02  0.10936253474E+03  0.32807680089E+00  0.15320960463E+03  0.92332967730E+02 0.  0.
         24    2    1    2    0    0 -0.16726806893E+02 -0.12721567700E+03 -0.72029987677E+02  0.17727417333E+03  0.98864548060E+02 0.  0.
        -13    1    4    4    0    0  0.30325289079E+02 -0.10591871754E+03 -0.52676788284E+02  0.12211978507E+03  0.00000000000E+00 0.  1.
         14    1    4    4    0    0 -0.47052095971E+02 -0.21296959462E+02 -0.19353199393E+02  0.55154388260E+02  0.00000000000E+00 0. -1.
        -11    1    3    3    0    0  0.66837241072E+02  0.51245955808E+02 -0.26158860992E+02  0.88190990408E+02  0.00000000000E+00 0.  1.
         11    1    3    3    0    0 -0.12178898774E+02  0.58116578931E+02  0.26486937793E+02  0.65018614224E+02  0.00000000000E+00 0. -1.
         -4    1    1    2    0  502 -0.37931535405E+02  0.17853142258E+02  0.70587488429E+02  0.82098292245E+02  0.00000000000E+00 0.  1.
<scales pt_clust_5="13000.00000" pt_clust_6="13000.00000" pt_clust_7="13000.00000" pt_clust_8="13000.00000" pt_clust_9="41.92300"></scales>
<clustering>
<clus scale="   41.923">  2  9  1 -1</clus>
<clus scale="   92.333">  7  8 -1 -1</clus>
<clus scale="   98.865">  5  6 -1 -1</clus>
<clus scale="  153.737">  1  7  2 -1</clus>
<clus scale="   41.923">  2  5  1 -1</clus>
</clustering>
</event>
<event>
 9    2  0.6469128E-005  0.1061718E+03  0.7546771E-02  0.1272311E+00
         21   -1    0    0  501  502  0.00000000000E+00  0.00000000000E+00  0.46025509009E+03  0.46025509009E+03  0.00000000000E+00 0.  1.
         -1   -1    0    0    0  501 -0.00000000000E+00 -0.00000000000E+00 -0.11095348582E+03  0.11095348582E+03  0.00000000000E+00 0.  1.
         24    2    1    2    0    0 -0.54430750951E+02  0.97682075629E+01 -0.72416066875E+02  0.12131612726E+03  0.80096138889E+02 0.  0.
         23    2    1    2    0    0  0.59072339523E+02  0.17407124079E+02  0.21458806203E+03  0.24093619016E+03  0.90607185665E+02 0.  0.
        -13    1    3    3    0    0 -0.16466814437E+02 -0.29478589546E+02 -0.54004834144E+02  0.63691956558E+02  0.00000000000E+00 0.  1.
         14    1    3    3    0    0 -0.37963936514E+02  0.39246797109E+02 -0.18411232731E+02  0.57624170706E+02  0.00000000000E+00 0. -1.
        -13    1    4    4    0    0  0.37657528666E+02  0.54608062313E+02  0.12150210007E+03  0.13843009159E+03  0.00000000000E+00 0.  1.
         13    1    4    4    0    0  0.21414810857E+02 -0.37200938234E+02  0.93085961963E+02  0.10250609857E+03  0.00000000000E+00 0. -1.
         -2    1    1    2    0  502 -0.46415885721E+01 -0.27175331642E+02  0.20712960911E+03  0.20895625849E+03  0.00000000000E+00 0.  1.
<scales pt_clust_5="13000.00000" pt_clust_6="13000.00000" pt_clust_7="13000.00000" pt_clust_8="13000.00000" pt_clust_9="27.56888"></scales>
<clustering>
<clus scale="   27.569">  1  9  2 -1</clus>
<clus scale="   80.096">  5  6 -1 -1</clus>
<clus scale="   90.607">  7  8 -1 -1</clus>
<clus scale="   97.356">  2  5  1 -1</clus>
<clus scale="   27.569">  1  5  2 -1</clus>
</clustering>
</event>
<event>
 9    2  0.6469128E-005  0.1250162E+03  0.7546771E-02  0.1238601E+00
          2   -1    0    0  502    0 -0.00000000000E+00  0.00000000000E+00  0.98739831866E+03  0.98739831866E+03  0.00000000000E+00 0. -1.
         21   -1    0    0  501  502  0.00000000000E+00 -0.00000000000E+00 -0.48335922905E+02  0.48335922905E+02  0.00000000000E+00 0.  1.
         24    2    1    2    0    0 -0.80513180104E+02  0.13144771441E+02  0.80363452139E+03  0.81174620461E+03  0.80301304726E+02 0.  0.
         23    2    1    2    0    0  0.97912500754E+02 -0.24885340798E+02  0.14623480549E+03  0.20037941378E+03  0.92526499655E+02 0.  0.
        -13    1    3    3    0    0 -0.36956889428E+02 -0.32559623655E+02  0.27749914754E+03  0.28183633133E+03  0.00000000000E+00 0.  1.
         14    1    3    3    0    0 -0.43556290676E+02  0.45704395096E+02  0.52613537384E+03  0.52990987328E+03  0.00000000000E+00 0. -1.
        -13    1    4    4    0    0  0.17056842130E+02 -0.40779249493E+02  0.17522637951E+02  0.47549194456E+02  0.00000000000E+00 0.  1.
         13    1    4    4    0    0  0.80855658624E+02  0.15893908694E+02  0.12871216754E+03  0.15283021932E+03  0.00000000000E+00 0. -1.
          1    1    1    2  501    0 -0.17399320649E+02  0.11740569357E+02 -0.10806931128E+02  0.23608623177E+02  0.00000000000E+00 0. -1.
<scales pt_clust_5="13000.00000" pt_clust_6="13000.00000" pt_clust_7="13000.00000" pt_clust_8="13000.00000" pt_clust_9="20.98993"></scales>
<clustering>
<clus scale="   20.990">  2  9  1 -1</clus>
<clus scale="   80.301">  5  6 -1 -1</clus>
<clus scale="   92.526">  7  8 -1 -1</clus>
<clus scale="  116.259">  1  5  2 -1</clus>
<clus scale="   20.990">  2  5  1 -1</clus>
</clustering>
</event>
<event>
 9    2  0.6469128E-005  0.1137781E+03  0.7546771E-02  0.1259082E+00
          2   -1    0    0  502    0 -0.00000000000E+00  0.00000000000E+00  0.24681948357E+03  0.24681948357E+03  0.00000000000E+00 0. -1.
         21   -1    0    0  501  502  0.00000000000E+00 -0.00000000000E+00 -0.26840955630E+03  0.26840955630E+03  0.00000000000E+00 0. -1.
         24    2    1    2    0    0  0.66723751831E+02 -0.44919552097E+01  0.19562724569E+03  0.22064478262E+03  0.77083487977E+02 0.  0.
         23    2    1    2    0    0 -0.71924186332E+02 -0.24955730999E+02 -0.57950886374E+02  0.13253486010E+03  0.91713176915E+02 0.  0.
        -11    1    3    3    0    0 -0.53407941331E+01 -0.26000393562E+02  0.58743944135E+02  0.64462357387E+02  0.00000000000E+00 0.  1.
         12    1    3    3    0    0  0.72064545965E+02  0.21508438352E+02  0.13688330156E+03  0.15618242523E+03  0.00000000000E+00 0. -1.
        -11    1    4    4    0    0 -0.19114586712E+02  0.33627344173E+02 -0.90219390673E+01  0.39718523208E+02  0.00000000000E+00 0.  1.
         11    1    4    4    0    0 -0.52809599620E+02 -0.58583075172E+02 -0.48928947306E+02  0.92816336887E+02  0.00000000000E+00 0. -1.
          1    1    1    2  501    0  0.52004345008E+01  0.29447686209E+02 -0.15926643205E+03  0.16204939716E+03  0.00000000000E+00 0. -1.
<scales pt_clust_5="13000.00000" pt_clust_6="13000.00000" pt_clust_7="13000.00000" pt_clust_8="13000.00000" pt_clust_9="29.90336"></scales>
<clustering>
<clus scale="   29.903">  2  9  1 -1</clus>
<clus scale="   77.083">  5  6 -1 -1</clus>
<clus scale="   91.713">  7  8 -1 -1</clus>
<clus scale="  102.352">  1  5  2 -1</clus>
<clus scale="   29.903">  2  5  1 -1</clus>
</clustering>
</event>
<event>
 9    2  0.6469128E-005  0.4101192E+03  0.7546771E-02  0.1040331E+00
         21   -1    0    0  501  502  0.00000000000E+00  0.00000000000E+00  0.20275650990E+03  0.20275650990E+03  0.00000000000E+00 0. -1.
          2   -1    0    0  502    0 -0.00000000000E+00 -0.00000000000E+00 -0.81330152060E+03  0.81330152060E+03  0.00000000000E+00 0. -1.
         24    2    1    2    0    0 -0.12423158073E+02 -0.53792018663E+02 -0.72289044503E+02  0.12164726508E+03  0.80773974880E+02 0.  0.
         23    2    1    2    0    0 -0.47951116951E+02 -0.28659110367E+03 -0.70172665924E+02  0.31251068891E+03  0.91131538556E+02 0.  0.
        -11    1    3    3    0    0  0.33345560092E+02 -0.23468442392E+02 -0.18465050510E+02  0.44762174394E+02  0.00000000000E+00 0.  1.
         12    1    3    3    0    0 -0.45768718165E+02 -0.30323576272E+02 -0.53823993992E+02  0.76885090685E+02  0.00000000000E+00 0. -1.
        -11    1    4    4    0    0  0.25671286363E+02 -0.44298609636E+02 -0.14812480571E+02  0.53299074475E+02  0.00000000000E+00 0.  1.
         11    1    4    4    0    0 -0.73622403314E+02 -0.24229249404E+03 -0.55360185353E+02  0.25921161444E+03  0.00000000000E+00 0. -1.
          1    1    1    2  501    0  0.60374275024E+02  0.34038312234E+03 -0.46808330027E+03  0.58190007651E+03  0.00000000000E+00 0. -1.
<scales pt_clust_5="13000.00000" pt_clust_6="13000.00000" pt_clust_7="13000.00000" pt_clust_8="13000.00000" pt_clust_9="345.69617"></scales>
<clustering>
<clus scale="   80.774">  5  6 -1 -1</clus>
<clus scale="   91.132">  7  8 -1 -1</clus>
<clus scale="   94.858">  5  7 -1 -1</clus>
<clus scale="  345.696">  1  9  2 -1</clus>
<clus scale="  345.696">  1  5  2 -1</clus>
</clustering>
</event>
<event>
 9    2  0.6469128E-005  0.1927339E+03  0.7546771E-02  0.1156149E+00
         21   -1    0    0  501  502  0.00000000000E+00  0.00000000000E+00  0.13469486236E+03  0.13469486236E+03  0.00000000000E+00 0. -1.
          4   -1    0    0  502    0 -0.00000000000E+00 -0.00000000000E+00 -0.73218657538E+03  0.73218657538E+03  0.00000000000E+00 0. -1.
         23    2    1    2    0    0 -0.19612715207E+03  0.63486532634E+02 -0.35467565869E+03  0.41770782267E+03  0.78667672184E+02 0.  0.
         24    2    1    2    0    0  0.51935906685E+02 -0.17153035974E+03 -0.14587527793E+03  0.24457132293E+03  0.80097019749E+02 0.  0.
        -11    1    4    4    0    0  0.46807869877E+02 -0.98968080359E+02 -0.40930046255E+02  0.11687996534E+03  0.00000000000E+00 0.  1.
         12    1    4    4    0    0  0.51280368078E+01 -0.72562279377E+02 -0.10494523168E+03  0.12769135758E+03  0.00000000000E+00 0. -1.
        -13    1    3    3    0    0 -0.52584443991E+02  0.36037562325E+02 -0.17409396991E+03  0.18539832795E+03  0.00000000000E+00 0.  1.
         13    1    3    3    0    0 -0.14354270808E+03  0.27448970309E+02 -0.18058168878E+03  0.23230949472E+03  0.00000000000E+00 0. -1.
          3    1    1    2  501    0  0.14419124538E+03  0.10804382710E+03 -0.96940776407E+02  0.20460229214E+03  0.00000000000E+00 0. -1.
<scales pt_clust_5="13000.00000" pt_clust_6="13000.00000" pt_clust_7="13000.00000" pt_clust_8="13000.00000" pt_clust_9="180.17931"></scales>
<clustering>
<clus scale="   78.668">  7  8 -1 -1</clus>
<clus scale="   80.097">  5  6 -1 -1</clus>
<clus scale="  180.179">  1  9  2 -1</clus>
<clus scale="  192.144">  2  7  1 -1</clus>
<clus scale="  180.179">  1  5  2 -1</clus>
</clustering>
</event>
<event>
 9    2  0.6469128E-005  0.9540110E+02  0.7546771E-02  0.1296349E+00
         21   -1    0    0  501  502  0.00000000000E+00  0.00000000000E+00  0.69217717393E+02  0.69217717393E+02  0.00000000000E+00 0.  1.
         -3   -1    0    0    0  501 -0.00000000000E+00 -0.00000000000E+00 -0.15504890772E+03  0.15504890772E+03  0.00000000000E+00 0.  1.
         24    2    1    2    0    0  0.25367753745E+02 -0.19912833677E+02 -0.40977683981E+02  0.96372097362E+02  0.81045460640E+02 0.  0.
         23    2    1    2    0    0 -0.10932830545E+01  0.24657484455E+02 -0.37188455685E+02  0.10200023031E+03  0.91716295933E+02 0.  0.
        -13    1    3    3    0    0  0.51128873207E+02 -0.30138024743E+02 -0.25190366988E+02  0.64474931561E+02  0.00000000000E+00 0.  1.
         14    1    3    3    0    0 -0.25761119462E+02  0.10225191066E+02 -0.15787316993E+02  0.31897165801E+02  0.00000000000E+00 0. -1.
        -11    1    4    4    0    0 -0.32552039501E+02 -0.18380537480E+02 -0.68267114916E+00  0.37389109024E+02  0.00000000000E+00 0.  1.
         11    1    4    4    0    0  0.31458756446E+02  0.43038021935E+02 -0.36505784536E+02  0.64611121286E+02  0.00000000000E+00 0. -1.
         -4    1    1    2    0  502 -0.24274470690E+02 -0.47446507779E+01 -0.76650506593E+01  0.25894297440E+02  0.00000000000E+00 0.  1.
<scales pt_clust_5="13000.00000" pt_clust_6="13000.00000" pt_clust_7="13000.00000" pt_clust_8="13000.00000" pt_clust_9="24.73382"></scales>
<clustering>
<clus scale="   24.734">  1  9  2 -1</clus>
<clus scale="   81.045">  5  6 -1 -1</clus>
<clus scale="   85.193">  2  5  1 -1</clus>
<clus scale="   91.716">  7  8 -1 -1</clus>
<clus scale="   24.734">  1  5  2 -1</clus>
</clustering>
</event>
<event>
 9    2  0.6469128E-005  0.4330178E+03  0.7546771E-02  0.1032911E+00
          2   -1    0    0  502    0 -0.00000000000E+00  0.00000000000E+00  0.66473091419E+03  0.66473091419E+03  0.00000000000E+00 0. -1.
         21   -1    0    0  501  502  0.00000000000E+00 -0.00000000000E+00 -0.25352748527E+03  0.25352748527E+03  0.00000000000E+00 0.  1.
         24    2    1    2    0    0  0.11374285120E+02 -0.88780268269E+02  0.59564036765E+02  0.13474971106E+03  0.81229919107E+02 0.  0.
         23    2    1    2    0    0  0.22516583676E+02 -0.29775988927E+03  0.15811510561E+03  0.34990341415E+03  0.90906899684E+02 0.  0.
        -13    1    3    3    0    0 -0.24850052645E+02 -0.51253247871E+02  0.59806693890E+02  0.82590926667E+02  0.00000000000E+00 0.  1.
         14    1    3    3    0    0  0.36224337765E+02 -0.37527020398E+02 -0.24265712442E+00  0.52158784389E+02  0.00000000000E+00 0. -1.
        -11    1    4    4    0    0 -0.25555844583E+02 -0.19871458719E+03  0.84364496378E+02  0.21738895235E+03  0.00000000000E+00 0.  1.
         11    1    4    4    0    0  0.48072428260E+02 -0.99045302079E+02  0.73750609235E+02  0.13251446180E+03  0.00000000000E+00 0. -1.
          1    1    1    2  501    0 -0.33890868796E+02  0.38654015754E+03  0.19352428655E+03  0.43360527426E+03  0.00000000000E+00 0. -1.
<scales pt_clust_5="13000.00000" pt_clust_6="13000.00000" pt_clust_7="13000.00000" pt_clust_8="13000.00000" pt_clust_9="388.02305"></scales>
<clustering>
<clus scale="   81.230">  5  6 -1 -1</clus>
<clus scale="   90.907">  7  8 -1 -1</clus>
<clus scale="   91.036">  5  7 -1 -1</clus>
<clus scale="  388.023">  2  9  1 -1</clus>
<clus scale="  388.023">  2  5  1 -1</clus>
</clustering>
</event>
<event>
 9    2  0.6469128E-005  0.1803483E+03  0.7546771E-02  0.1170425E+00
          2   -1    0    0  502    0 -0.00000000000E+00  0.00000000000E+00  0.88408170123E+03  0.88408170123E+03  0.00000000000E+00 0. -1.
         21   -1    0    0  501  502  0.00000000000E+00 -0.00000000000E+00 -0.49026546981E+02  0.49026546981E+02  0.00000000000E+00 0.  1.
         24    2    1    2    0    0 -0.59025129149E+02  0.13036837051E+03  0.35020858818E+03  0.38658217431E+03  0.79497448781E+02 0.  0.
         23    2    1    2    0    0  0.33029747079E+02 -0.15618014108E+03  0.27805046975E+03  0.33651028201E+03  0.10219542804E+03 0.  0.
        -13    1    3    3    0    0 -0.47275589810E+02  0.19871486852E+02  0.13427594414E+03  0.14373547424E+03  0.00000000000E+00 0.  1.
         14    1    3    3    0    0 -0.11749539339E+02  0.11049688366E+03  0.21593264404E+03  0.24284670007E+03  0.00000000000E+00 0. -1.
        -13    1    4    4    0    0 -0.33058081300E+02 -0.49899936021E+02  0.12662613106E+03  0.14006076332E+03  0.00000000000E+00 0. -1.
         13    1    4    4    0    0  0.66087828379E+02 -0.10628020505E+03  0.15142433869E+03  0.19644951869E+03  0.00000000000E+00 0.  1.
          1    1    1    2  501    0  0.25995382070E+02  0.25811770561E+02  0.20679609632E+03  0.21001579189E+03  0.00000000000E+00 0. -1.
<scales pt_clust_5="13000.00000" pt_clust_6="13000.00000" pt_clust_7="13000.00000" pt_clust_8="13000.00000" pt_clust_9="36.63344"></scales>
<clustering>
<clus scale="   36.633">  2  9  1 -1</clus>
<clus scale="   79.497">  5  6 -1 -1</clus>
<clus scale="  102.195">  7  8 -1 -1</clus>
<clus scale="  168.527">  1  5  2 -1</clus>
<clus scale="   36.633">  2  5  1 -1</clus>
</clustering>
</event>
<event>
 9    2  0.6469128E-005  0.1042008E+03  0.7546771E-02  0.1277528E+00
         21   -1    0    0  501  502  0.00000000000E+00  0.00000000000E+00  0.54872854535E+02  0.54872854535E+02  0.00000000000E+00 0. -1.
          2   -1    0    0  502    0 -0.00000000000E+00 -0.00000000000E+00 -0.25076868711E+03  0.25076868711E+03  0.00000000000E+00 0. -1.
         24    2    1    2    0    0 -0.30105831992E+02  0.40804678209E+02 -0.74026212817E+02  0.12079720244E+03  0.80874600768E+02 0.  0.
         23    2    1    2    0    0  0.48662028930E+01 -0.44103433612E+02 -0.63883772099E+02  0.12151757399E+03  0.93362688818E+02 0.  0.
        -13    1    3    3    0    0 -0.21925815589E+02 -0.85364500729E+01 -0.66094411937E+02  0.70157563087E+02  0.00000000000E+00 0.  1.
         14    1    3    3    0    0 -0.81800164028E+01  0.49341128282E+02 -0.79318008804E+01  0.50639639352E+02  0.00000000000E+00 0. -1.
        -13    1    4    4    0    0 -0.16290766722E+02  0.23587445870E+02 -0.44979324334E+01  0.29017030848E+02  0.00000000000E+00 0.  1.
         13    1    4    4    0    0  0.21156969615E+02 -0.67690879482E+02 -0.59385839665E+02  0.92500543139E+02  0.00000000000E+00 0. -1.
          1    1    1    2  501    0  0.25239629099E+02  0.32987554028E+01 -0.57985847663E+02  0.63326765222E+02  0.00000000000E+00 0. -1.
<scales pt_clust_5="13000.00000" pt_clust_6="13000.00000" pt_clust_7="13000.00000" pt_clust_8="13000.00000" pt_clust_9="25.45430"></scales>
<clustering>
<clus scale="   25.454">  1  9  2 -1</clus>
<clus scale="   80.875">  5  6 -1 -1</clus>
<clus scale="   93.177">  2  5  1 -1</clus>
<clus scale="   93.363">  7  8 -1 -1</clus>
<clus scale="   25.454">  1  5  2 -1</clus>
</clustering>
</event>
<event>
 9    2  0.6469128E-005  0.9725645E+02  0.7546771E-02  0.1286758E+00
          2   -1    0    0  502    0 -0.00000000000E+00  0.00000000000E+00  0.10179549473E+03  0.10179549473E+03  0.00000000000E+00 0. -1.
         21   -1    0    0  501  502  0.00000000000E+00 -0.00000000000E+00 -0.12073818545E+03  0.12073818545E+03  0.00000000000E+00 0.  1.
         24    2    1    2    0    0 -0.13366626438E+02 -0.37248198846E+02  0.12085501859E+02  0.10024993250E+03  0.91312072540E+02 0.  0.
         23    2    1    2    0    0  0.22567876177E+02  0.16285141899E+02 -0.31174091010E+02  0.99389773813E+02  0.90177537705E+02 0.  0.
        -13    1    3    3    0    0  0.48379667462E+01 -0.51573217349E+02  0.38926024801E+02  0.64795355364E+02  0.00000000000E+00 0.  1.
         14    1    3    3    0    0 -0.18204593184E+02  0.14325018502E+02 -0.26840522942E+02  0.35454577136E+02  0.00000000000E+00 0. -1.
        -13    1    4    4    0    0  0.50358802858E+02  0.31638426270E+02 -0.32186412203E+02  0.67623695349E+02  0.00000000000E+00 0. -1.
         13    1    4    4    0    0 -0.27790926682E+02 -0.15353284370E+02  0.10123211926E+01  0.31766078464E+02  0.00000000000E+00 0.  1.
          1    1    1    2  501    0 -0.92012497382E+01  0.20963056947E+02  0.14589842786E+00  0.22893973872E+02  0.00000000000E+00 0. -1.
<scales pt_clust_5="13000.00000" pt_clust_6="13000.00000" pt_clust_7="13000.00000" pt_clust_8="13000.00000" pt_clust_9="22.89352"></scales>
<clustering>
<clus scale="   22.894">  2  9  1 -1</clus>
<clus scale="   90.178">  7  8 -1 -1</clus>
<clus scale="   91.312">  5  6 -1 -1</clus>
<clus scale="   96.192">  2  7  1 -1</clus>
<clus scale="   22.894">  2  5  1 -1</clus>
</clustering>
</event>
<event>
 9    2  0.6469128E-005  0.1300518E+03  0.7546771E-02  0.1230106E+00
         21   -1    0    0  501  502  0.00000000000E+00  0.00000000000E+00  0.61037137729E+02  0.61037137729E+02  0.00000000000E+00 0. -1.
          2   -1    0    0  502    0 -0.00000000000E+00 -0.00000000000E+00 -0.79172049789E+03  0.79172049789E+03  0.00000000000E+00 0. -1.
         24    2    1    2    0    0 -0.49638148105E+02 -0.77075850868E+02 -0.64355886044E+03  0.65510141527E+03  0.81149398634E+02 0.  0.
         23    2    1    2    0    0  0.81316975904E+02  0.63088952393E+02 -0.49198488004E+02  0.14629900251E+03  0.91598255604E+02 0.  0.
        -13    1    3    3    0    0 -0.27467654969E+02 -0.64587996625E+02 -0.22324372912E+03  0.23401676002E+03  0.00000000000E+00 0.  1.
         14    1    3    3    0    0 -0.22170493136E+02 -0.12487854242E+02 -0.42031513132E+03  0.42108465525E+03  0.00000000000E+00 0. -1.
        -13    1    4    4    0    0  0.15036744275E+02  0.36784071228E+02 -0.62203418412E+02  0.73813527464E+02  0.00000000000E+00 0.  1.
         13    1    4    4    0    0  0.66280231629E+02  0.26304881165E+02  0.13004930408E+02  0.72485475047E+02  0.00000000000E+00 0. -1.
          1    1    1    2  501    0 -0.31678827799E+02  0.13986898475E+02 -0.37926011718E+02  0.51357217842E+02  0.00000000000E+00 0. -1.
<scales pt_clust_5="13000.00000" pt_clust_6="13000.00000" pt_clust_7="13000.00000" pt_clust_8="13000.00000" pt_clust_9="34.62920"></scales>
<clustering>
<clus scale="   34.629">  1  9  2 -1</clus>
<clus scale="   81.149">  5  6 -1 -1</clus>
<clus scale="   91.598">  7  8 -1 -1</clus>
<clus scale="  122.916">  2  5  1 -1</clus>
<clus scale="   34.629">  1  5  2 -1</clus>
</clustering>
</event>
<event>
 9    2  0.6469128E-005  0.9834841E+02  0.7546771E-02  0.1290250E+00
         21   -1    0    0  501  502  0.00000000000E+00  0.00000000000E+00  0.33406516420E+03  0.33406516420E+03  0.00000000000E+00 0. -1.
          2   -1    0    0  502    0 -0.00000000000E+00 -0.00000000000E+00 -0.11130631045E+03  0.11130631045E+03  0.00000000000E+00 0. -1.
         24    2    1    2    0    0  0.28238980958E+02 -0.18531112583E+02 -0.76257025392E+02  0.11565776518E+03  0.80129536035E+02 0.  0.
         23    2    1    2    0    0 -0.44715374433E+02 -0.26957708003E+00  0.17164155732E+03  0.19990941319E+03  0.92213946354E+02 0.  0.
        -11    1    3    3    0    0  0.35982761578E+02 -0.11188452669E+02  0.97229504832E+00  0.37694641019E+02  0.00000000000E+00 0.  1.
         12    1    3    3    0    0 -0.77437806199E+01 -0.73426599143E+01 -0.77229320440E+02  0.77963124158E+02  0.00000000000E+00 0. -1.
        -11    1    4    4    0    0 -0.57238110882E+01 -0.43531203846E+02  0.81887061651E+02  0.92915114958E+02  0.00000000000E+00 0. -1.
         11    1    4    4    0    0 -0.38991563345E+02  0.43261626766E+02  0.89754495664E+02  0.10699429823E+03  0.00000000000E+00 0.  1.
          1    1    1    2  501    0  0.16476393476E+02  0.18800689663E+02  0.12737432182E+03  0.12980429628E+03  0.00000000000E+00 0. -1.
<scales pt_clust_5="13000.00000" pt_clust_6="13000.00000" pt_clust_7="13000.00000" pt_clust_8="13000.00000" pt_clust_9="24.99875"></scales>
<clustering>
<clus scale="   24.999">  1  9  2 -1</clus>
<clus scale="   80.130">  5  6 -1 -1</clus>
<clus scale="   87.119">  2  5  1 -1</clus>
<clus scale="   92.214">  7  8 -1 -1</clus>
<clus scale="   24.999">  1  5  2 -1</clus>
</clustering>
</event>
<event>
 9    2  0.6469128E-005  0.1092221E+03  0.7546771E-02  0.1269181E+00
          2   -1    0    0  502    0 -0.00000000000E+00  0.00000000000E+00  0.30213638410E+03  0.30213638410E+03  0.00000000000E+00 0. -1.
         21   -1    0    0  501  502  0.00000000000E+00 -0.00000000000E+00 -0.16592990635E+03  0.16592990635E+03  0.00000000000E+00 0. -1.
         24    2    1    2    0    0 -0.34304191953E+02  0.34277696980E+02  0.14357586956E+03  0.17155845778E+03  0.80414774874E+02 0.  0.
         23    2    1    2    0    0  0.99318800316E+02  0.57434588758E+01 -0.10393354135E+03  0.17340938755E+03  0.96806111667E+02 0.  0.
        -13    1    3    3    0    0 -0.24934274355E+02 -0.21286688015E+02  0.28556242945E+02  0.43477581987E+02  0.00000000000E+00 0.  1.
         14    1    3    3    0    0 -0.93699175975E+01  0.55564384995E+02  0.11501962662E+03  0.12808087579E+03  0.00000000000E+00 0. -1.
        -13    1    4    4    0    0  0.23475813680E+02 -0.62200080893E+01  0.17362863538E+02  0.29854168199E+02  0.00000000000E+00 0.  1.
         13    1    4    4    0    0  0.75842986635E+02  0.11963466965E+02 -0.12129640489E+03  0.14355521935E+03  0.00000000000E+00 0. -1.
          1    1    1    2  501    0 -0.65014608363E+02 -0.40021155856E+02  0.96564149535E+02  0.12309844512E+03  0.00000000000E+00 0. -1.
<scales pt_clust_5="13000.00000" pt_clust_6="13000.00000" pt_clust_7="13000.00000" pt_clust_8="13000.00000" pt_clust_9="76.34526"></scales>
<clustering>
<clus scale="   76.345">  2  9  1 -1</clus>
<clus scale="   80.415">  5  6 -1 -1</clus>
<clus scale="   94.998">  1  5  2 -1</clus>
<clus scale="   96.806">  7  8 -1 -1</clus>
<clus scale="   76.345">  2  5  1 -1</clus>
</clustering>
</event>
<event>
 9    2  0.6469128E-005  0.1027404E+03  0.7546771E-02  0.1279325E+00
         -1   -1    0    0    0  501 -0.00000000000E+00  0.00000000000E+00  0.36296038322E+03  0.36296038322E+03  0.00000000000E+00 0.  1.
         21   -1    0    0  501  502  0.00000000000E+00 -0.00000000000E+00 -0.73414171263E+02  0.73414171263E+02  0.00000000000E+00 0. -1.
         23    2    1    2    0    0  0.41675136643E+02 -0.52993776073E+01  0.27621284228E+03  0.29414371351E+03  0.91989616475E+02 0.  0.
         24    2    1    2    0    0 -0.58282872231E+02  0.20465594951E+02  0.37402771997E+02  0.10928896552E+03  0.82032779179E+02 0.  0.
        -13    1    4    4    0    0 -0.46564036676E+02 -0.99247386212E+01  0.54611531630E+02  0.72450875324E+02  0.00000000000E+00 0.  1.
         14    1    4    4    0    0 -0.11718835555E+02  0.30390333572E+02 -0.17208759633E+02  0.36838090199E+02  0.00000000000E+00 0. -1.
        -11    1    3    3    0    0 -0.34258091878E+01 -0.32007004660E+02  0.19393565286E+03  0.19658896705E+03  0.00000000000E+00 0.  1.
         11    1    3    3    0    0  0.45100945831E+02  0.26707627052E+02  0.82277189418E+02  0.97554746456E+02  0.00000000000E+00 0. -1.
         -2    1    1    2    0  502  0.16607735588E+02 -0.15166217344E+02 -0.24069402322E+02  0.32941875448E+02  0.00000000000E+00 0.  1.
<scales pt_clust_5="13000.00000" pt_clust_6="13000.00000" pt_clust_7="13000.00000" pt_clust_8="13000.00000" pt_clust_9="22.49069"></scales>
<clustering>
<clus scale="   22.491">  2  9  1 -1</clus>
<clus scale="   82.033">  5  6 -1 -1</clus>
<clus scale="   91.990">  7  8 -1 -1</clus>
<clus scale="   93.930">  2  5  1 -1</clus>
<clus scale="   22.491">  2  5  1 -1</clus>
</clustering>
</event>
<event>
 9    2  0.6469128E-005  0.1025400E+03  0.7546771E-02  0.1279769E+00
         -1   -1    0    0    0  501 -0.00000000000E+00  0.00000000000E+00  0.74179788990E+02  0.74179788990E+02  0.00000000000E+00 0.  1.
         21   -1    0    0  501  502  0.00000000000E+00 -0.00000000000E+00 -0.32095587190E+03  0.32095587190E+03  0.00000000000E+00 0.  1.
         23    2    1    2    0    0  0.41261063673E+02  0.48206926690E+02  0.16862444909E+01  0.11028854211E+03  0.90190553514E+02 0.  0.
         24    2    1    2    0    0  0.44007127307E+01 -0.19540861586E+02 -0.12067797776E+03  0.14615472127E+03  0.79980101844E+02 0.  0.
        -11    1    4    4    0    0  0.21175096755E+02  0.73448970047E+01 -0.11067847329E+03  0.11292500470E+03  0.00000000000E+00 0.  1.
         12    1    4    4    0    0 -0.16774384024E+02 -0.26885758591E+02 -0.99995044634E+01  0.33229716579E+02  0.00000000000E+00 0. -1.
        -11    1    3    3    0    0  0.49136225983E+02  0.38517619795E+00  0.26512715876E+02  0.55834050254E+02  0.00000000000E+00 0.  1.
         11    1    3    3    0    0 -0.78751623103E+01  0.47821750492E+02 -0.24826471385E+02  0.54454491853E+02  0.00000000000E+00 0. -1.
         -2    1    1    2    0  502 -0.45661776404E+02 -0.28666065103E+02 -0.12778434964E+03  0.13869239751E+03  0.00000000000E+00 0.  1.
<scales pt_clust_5="13000.00000" pt_clust_6="13000.00000" pt_clust_7="13000.00000" pt_clust_8="13000.00000" pt_clust_9="53.91420"></scales>
<clustering>
<clus scale="   53.914">  2  9  1 -1</clus>
<clus scale="   79.980">  5  6 -1 -1</clus>
<clus scale="   90.191">  7  8 -1 -1</clus>
<clus scale="   93.685">  2  5  1 -1</clus>
<clus scale="   53.914">  2  5  1 -1</clus>
</clustering>
</event>
<event>
 9    2  0.6469128E-005  0.1095300E+03  0.7546771E-02  0.1264217E+00
         21   -1    0    0  501  502  0.00000000000E+00  0.00000000000E+00  0.25823780815E+02  0.25823780815E+02  0.00000000000E+00 0. -1.
          2   -1    0    0  502    0 -0.00000000000E+00 -0.00000000000E+00 -0.53675573360E+03  0.53675573360E+03  0.00000000000E+00 0. -1.
         24    2    1    2    0    0 -0.17545890154E+02  0.53717956042E+02 -0.20200709686E+03  0.22475549604E+03  0.80713621879E+02 0.  0.
         23    2    1    2    0    0  0.14955332288E+02 -0.73669418623E+02 -0.24851709816E+03  0.27415401722E+03  0.88027449547E+02 0.  0.
        -13    1    3    3    0    0  0.21144341400E+02 -0.64920420097E+01 -0.82898410295E+02  0.85798462761E+02  0.00000000000E+00 0.  1.
         14    1    3    3    0    0 -0.38690231554E+02  0.60209998052E+02 -0.11910868656E+03  0.13895703328E+03  0.00000000000E+00 0. -1.
        -11    1    4    4    0    0 -0.21289321885E+02 -0.21971007030E+02 -0.18777565413E+02  0.35896480873E+02  0.00000000000E+00 0.  1.
         11    1    4    4    0    0  0.36244654173E+02 -0.51698411593E+02 -0.22973953275E+03  0.23825753634E+03  0.00000000000E+00 0. -1.
          1    1    1    2  501    0  0.25905578657E+01  0.19951462581E+02 -0.60407757765E+02  0.63670001158E+02  0.00000000000E+00 0. -1.
<scales pt_clust_5="13000.00000" pt_clust_6="13000.00000" pt_clust_7="13000.00000" pt_clust_8="13000.00000" pt_clust_9="20.11895"></scales>
<clustering>
<clus scale="   20.119">  1  9  2 -1</clus>
<clus scale="   80.714">  5  6 -1 -1</clus>
<clus scale="   88.027">  7  8 -1 -1</clus>
<clus scale="  103.743">  2  5  1 -1</clus>
<clus scale="   20.119">  1  5  2 -1</clus>
</clustering>
</event>
<event>
 9    2  0.6469128E-005  0.9322501E+02  0.7546771E-02  0.1301960E+00
          2   -1    0    0  502    0 -0.00000000000E+00  0.00000000000E+00  0.10299500098E+04  0.10299500098E+04  0.00000000000E+00 0. -1.
         21   -1    0    0  501  502  0.00000000000E+00 -0.00000000000E+00 -0.11336409402E+03  0.11336409402E+03  0.00000000000E+00 0. -1.
         24    2    1    2    0    0 -0.20668448910E+02  0.13638286742E+01  0.93879905474E+03  0.94244872564E+03  0.80230234222E+02 0.  0.
         23    2    1    2    0    0 -0.12602902705E+02  0.70211137309E+01  0.61024649453E+02  0.11083305330E+03  0.91388339896E+02 0.  0.
        -13    1    3    3    0    0  0.84945554728E+01 -0.21427762583E+02  0.92083594137E+02  0.94924679568E+02  0.00000000000E+00 0.  1.
         14    1    3    3    0    0 -0.29163004382E+02  0.22791591257E+02  0.84671546060E+03  0.84752404608E+03  0.00000000000E+00 0. -1.
        -13    1    4    4    0    0 -0.26255897176E+02 -0.16290313868E+02 -0.11864503843E+02  0.33098533410E+02  0.00000000000E+00 0. -1.
         13    1    4    4    0    0  0.13652994472E+02  0.23311427599E+02  0.72889153296E+02  0.77734519893E+02  0.00000000000E+00 0.  1.
          1    1    1    2  501    0  0.33271351614E+02 -0.83849424051E+01 -0.83237788427E+02  0.90032324859E+02  0.00000000000E+00 0. -1.
<scales pt_clust_5="13000.00000" pt_clust_6="13000.00000" pt_clust_7="13000.00000" pt_clust_8="13000.00000" pt_clust_9="34.31166"></scales>
<clustering>
<clus scale="   34.312">  2  9  1 -1</clus>
<clus scale="   80.230">  5  6 -1 -1</clus>
<clus scale="   82.316">  1  5  2 -1</clus>
<clus scale="   91.388">  7  8 -1 -1</clus>
<clus scale="   34.312">  2  5  1 -1</clus>
</clustering>
</event>
<event>
 9    2  0.6469128E-005  0.9874887E+02  0.7546771E-02  0.1290841E+00
         21   -1    0    0  501  502  0.00000000000E+00  0.00000000000E+00  0.44228680285E+02  0.44228680285E+02  0.00000000000E+00 0.  1.
          2   -1    0    0  502    0 -0.00000000000E+00 -0.00000000000E+00 -0.31678931329E+03  0.31678931329E+03  0.00000000000E+00 0. -1.
         24    2    1    2    0    0 -0.36968735835E+02 -0.30022148708E+02 -0.86907795318E+02  0.12531664401E+03  0.76702539311E+02 0.  0.
         23    2    1    2    0    0  0.28874338958E+02 -0.62915535672E+00 -0.78754892136E+02  0.12420160757E+03  0.91594666882E+02 0.  0.
        -13    1    3    3    0    0 -0.52236975069E+02 -0.61541140892E+01 -0.80672561782E+02  0.96304916329E+02  0.00000000000E+00 0.  1.
         14    1    3    3    0    0  0.15268239233E+02 -0.23868034619E+02 -0.62352335362E+01  0.29011727682E+02  0.00000000000E+00 0. -1.
        -11    1    4    4    0    0 -0.12503050436E+02  0.34089139605E+02 -0.53295285049E+02  0.64488627817E+02  0.00000000000E+00 0. -1.
         11    1    4    4    0    0  0.41377389394E+02 -0.34718294962E+02 -0.25459607087E+02  0.59712979755E+02  0.00000000000E+00 0.  1.
          1    1    1    2  501    0  0.80943968772E+01  0.30651304065E+02 -0.10689794555E+03  0.11149974199E+03  0.00000000000E+00 0. -1.
<scales pt_clust_5="13000.00000" pt_clust_6="13000.00000" pt_clust_7="13000.00000" pt_clust_8="13000.00000" pt_clust_9="31.70209"></scales>
<clustering>
<clus scale="   31.702">  1  9  2 -1</clus>
<clus scale="   76.703">  5  6 -1 -1</clus>
<clus scale="   85.118">  2  5  1 -1</clus>
<clus scale="   91.595">  7  8 -1 -1</clus>
<clus scale="   31.702">  1  5  2 -1</clus>
</clustering>
</event>
<event>
 9    2  0.6469128E-005  0.9175840E+02  0.7546771E-02  0.1304750E+00
         -3   -1    0    0    0  501 -0.00000000000E+00  0.00000000000E+00  0.15713654508E+03  0.15713654508E+03  0.00000000000E+00 0.  1.
         21   -1    0    0  501  502  0.00000000000E+00 -0.00000000000E+00 -0.10082403656E+03  0.10082403656E+03  0.00000000000E+00 0.  1.
         24    2    1    2    0    0  0.46873142565E+01  0.93758496117E+01  0.62442670940E+02  0.10194203287E+03  0.79895015123E+02 0.  0.
         23    2    1    2    0    0 -0.35136741124E+02 -0.95341133253E+01  0.36524860094E+02  0.10361011825E+03  0.89863793068E+02 0.  0.
        -11    1    3    3    0    0  0.23748952895E+02 -0.55353953761E+01 -0.93985756668E+01  0.26134012133E+02  0.00000000000E+00 0.  1.
         12    1    3    3    0    0 -0.19061638639E+02  0.14911244988E+02  0.71841246607E+02  0.75808020742E+02  0.00000000000E+00 0. -1.
        -11    1    4    4    0    0 -0.32493240567E+02 -0.46603833726E+02  0.34333734981E+02  0.66381724580E+02  0.00000000000E+00 0.  1.
         11    1    4    4    0    0 -0.26435005570E+01  0.37069720401E+02  0.21911251135E+01  0.37228393667E+02  0.00000000000E+00 0. -1.
         -4    1    1    2    0  502  0.30449426868E+02  0.15826371361E+00 -0.42655022514E+02  0.52408430521E+02  0.00000000000E+00 0.  1.
<scales pt_clust_5="13000.00000" pt_clust_6="13000.00000" pt_clust_7="13000.00000" pt_clust_8="13000.00000" pt_clust_9="30.44984"></scales>
<clustering>
<clus scale="   30.450">  2  9  1 -1</clus>
<clus scale="   79.895">  5  6 -1 -1</clus>
<clus scale="   82.020">  1  5  2 -1</clus>
<clus scale="   89.864">  7  8 -1 -1</clus>
<clus scale="   30.450">  2  5  1 -1</clus>
</clustering>
</event>
<event>
 9    2  0.6469128E-005  0.9793016E+02  0.7546771E-02  0.1290586E+00
         21   -1    0    0  501  502  0.00000000000E+00  0.00000000000E+00  0.18484622584E+02  0.18484622584E+02  0.00000000000E+00 0.  1.
          2   -1    0    0  502    0 -0.00000000000E+00 -0.00000000000E+00 -0.11307800953E+04  0.11307800953E+04  0.00000000000E+00 0. -1.
         24    2    1    2    0    0 -0.12006417736E+02  0.43182493939E+02 -0.84807251446E+03  0.85296374978E+03  0.79443607751E+02 0.  0.
         23    2    1    2    0    0  0.10964635646E+02 -0.52326711295E+01 -0.21857833989E+03  0.23693173745E+03  0.90623139781E+02 0.  0.
        -13    1    3    3    0    0 -0.66647924722E+01  0.29067386103E+02 -0.91426463379E+02  0.96167201267E+02  0.00000000000E+00 0.  1.
         14    1    3    3    0    0 -0.53416252633E+01  0.14115107836E+02 -0.75664605108E+03  0.75679654852E+03  0.00000000000E+00 0. -1.
        -11    1    4    4    0    0  0.32585249034E+02  0.17968474905E+02 -0.19194371081E+03  0.19551739735E+03  0.00000000000E+00 0. -1.
         11    1    4    4    0    0 -0.21620613388E+02 -0.23201146034E+02 -0.26634629071E+02  0.41414340105E+02  0.00000000000E+00 0.  1.
          1    1    1    2  501    0  0.10417820894E+01 -0.37949822810E+02 -0.45644618366E+02  0.59369230642E+02  0.00000000000E+00 0. -1.
<scales pt_clust_5="13000.00000" pt_clust_6="13000.00000" pt_clust_7="13000.00000" pt_clust_8="13000.00000" pt_clust_9="37.96412"></scales>
<clustering>
<clus scale="   37.964">  1  9  2 -1</clus>
<clus scale="   79.444">  5  6 -1 -1</clus>
<clus scale="   87.687">  2  5  1 -1</clus>
<clus scale="   90.623">  7  8 -1 -1</clus>
<clus scale="   37.964">  1  5  2 -1</clus>
</clustering>
</event>
<event>
 9    2  0.6469128E-005  0.1126846E+03  0.7546771E-02  0.1264363E+00
          2   -1    0    0  502    0 -0.00000000000E+00  0.00000000000E+00  0.19785651549E+03  0.19785651549E+03  0.00000000000E+00 0. -1.
         21   -1    0    0  501  502  0.00000000000E+00 -0.00000000000E+00 -0.13276645524E+03  0.13276645524E+03  0.00000000000E+00 0.  1.
         24    2    1    2    0    0  0.61401992016E+02  0.27447249074E+02  0.89947409093E+02  0.13776713033E+03  0.79785272402E+02 0.  0.
         23    2    1    2    0    0  0.82874968506E+01 -0.47360070296E+02  0.11584031700E+02  0.11173174088E+03  0.10019048491E+03 0.  0.
        -13    1    3    3    0    0  0.44650913300E+02 -0.30683445831E+01  0.92606634894E+02  0.10285478902E+03  0.00000000000E+00 0.  1.
         14    1    3    3    0    0  0.16751078716E+02  0.30515593657E+02 -0.26592258012E+01  0.34912341317E+02  0.00000000000E+00 0. -1.
        -13    1    4    4    0    0 -0.15982778719E+02 -0.34829972724E+02 -0.38728161492E+02  0.54483453525E+02  0.00000000000E+00 0.  1.
         13    1    4    4    0    0  0.24270275570E+02 -0.12530097572E+02  0.50312193192E+02  0.57248287356E+02  0.00000000000E+00 0. -1.
          1    1    1    2  501    0 -0.69689488866E+02  0.19912821222E+02 -0.36441380536E+02  0.81124099519E+02  0.00000000000E+00 0. -1.
<scales pt_clust_5="13000.00000" pt_clust_6="13000.00000" pt_clust_7="13000.00000" pt_clust_8="13000.00000" pt_clust_9="72.47859"></scales>
<clustering>
<clus scale="   72.479">  2  9  1 -1</clus>
<clus scale="   79.785">  5  6 -1 -1</clus>
<clus scale="   95.002">  1  5  2 -1</clus>
<clus scale="  100.190">  7  8 -1 -1</clus>
<clus scale="   72.479">  2  5  1 -1</clus>
</clustering>
</event>
<event>
 9    2  0.6469128E-005  0.3129044E+03  0.7546771E-02  0.1109740E+00
          4   -1    0    0  502    0 -0.00000000000E+00  0.00000000000E+00  0.27780681311E+04  0.27780681311E+04  0.00000000000E+00 0. -1.
         21   -1    0    0  501  502  0.00000000000E+00 -0.00000000000E+00 -0.56973789872E+02  0.56973789872E+02  0.00000000000E+00 0. -1.
         24    2    1    2    0    0 -0.70006391140E+02  0.86972253578E+02  0.80853289179E+03  0.82049412102E+03  0.83786024034E+02 0.  0.
         23    2    1    2    0    0  0.30004526743E+03  0.99137056463E+02  0.11637000264E+04  0.12093472095E+04  0.92019581176E+02 0.  0.
        -13    1    3    3    0    0 -0.68720895745E+02  0.28173821790E+02  0.32393898609E+03  0.33234438833E+03  0.00000000000E+00 0.  1.
         14    1    3    3    0    0 -0.12854953957E+01  0.58798431788E+02  0.48459390570E+03  0.48814973268E+03  0.00000000000E+00 0. -1.
        -13    1    4    4    0    0  0.17218292492E+03  0.10321173948E+03  0.74122231358E+03  0.76792586943E+03  0.00000000000E+00 0. -1.
         13    1    4    4    0    0  0.12786234251E+03 -0.40746830148E+01  0.42247771279E+03  0.44142134008E+03  0.00000000000E+00 0.  1.
          3    1    1    2  501    0 -0.23003887629E+03 -0.18610931004E+03  0.74886142310E+03  0.80520059047E+03  0.00000000000E+00 0. -1.
<scales pt_clust_5="13000.00000" pt_clust_6="13000.00000" pt_clust_7="13000.00000" pt_clust_8="13000.00000" pt_clust_9="299.06782"></scales>
<clustering>
<clus scale="   83.786">  5  6 -1 -1</clus>
<clus scale="   92.020">  7  8 -1 -1</clus>
<clus scale="  139.589">  1  5  2 -1</clus>
<clus scale="  299.068">  2  9  1 -1</clus>
<clus scale="  299.068">  2  5  1 -1</clus>
</clustering>
</event>
<event>
 9    2  0.6469128E-005  0.1040209E+03  0.7546771E-02  0.1277929E+00
          2   -1    0    0  502    0 -0.00000000000E+00  0.00000000000E+00  0.12951158717E+03  0.12951158717E+03  0.00000000000E+00 0. -1.
         21   -1    0    0  501  502  0.00000000000E+00 -0.00000000000E+00 -0.62503129626E+03  0.62503129626E+03  0.00000000000E+00 0.  1.
         23    2    1    2    0    0 -0.44427029921E+02  0.18792514380E+02  0.86647661031E+02  0.13474114062E+03  0.91216436175E+02 0.  0.
         24    2    1    2    0    0  0.86131759025E+02 -0.30533899531E+02 -0.55665676398E+03  0.56952316307E+03  0.78351014346E+02 0.  0.
        -11    1    4    4    0    0  0.89477735962E+02  0.52712068144E-01 -0.42535150188E+03  0.43466098072E+03  0.00000000000E+00 0.  1.
         12    1    4    4    0    0 -0.33459769374E+01 -0.30586611599E+02 -0.13130526211E+03  0.13486218235E+03  0.00000000000E+00 0. -1.
        -11    1    3    3    0    0 -0.36307616946E+02  0.45576914183E+02  0.89297406766E+02  0.10662797480E+03  0.00000000000E+00 0. -1.
         11    1    3    3    0    0 -0.81194129754E+01 -0.26784399803E+02 -0.26497457345E+01  0.28113165818E+02  0.00000000000E+00 0.  1.
          1    1    1    2  501    0 -0.41704729103E+02  0.11741385151E+02 -0.25510606140E+02  0.50278579738E+02  0.00000000000E+00 0. -1.
<scales pt_clust_5="13000.00000" pt_clust_6="13000.00000" pt_clust_7="13000.00000" pt_clust_8="13000.00000" pt_clust_9="43.32605"></scales>
<clustering>
<clus scale="   43.326">  2  9  1 -1</clus>
<clus scale="   78.351">  5  6 -1 -1</clus>
<clus scale="   91.216">  7  8 -1 -1</clus>
<clus scale="   92.945">  2  5  1 -1</clus>
<clus scale="   43.326">  2  5  1 -1</clus>
</clustering>
</event>
<event>
 9    2  0.6469128E-005  0.9163698E+02  0.7546771E-02  0.1304840E+00
         21   -1    0    0  501  502  0.00000000000E+00  0.00000000000E+00  0.20292000595E+02  0.20292000595E+02  0.00000000000E+00 0.  1.
          2   -1    0    0  502    0 -0.00000000000E+00 -0.00000000000E+00 -0.93007307376E+03  0.93007307376E+03  0.00000000000E+00 0. -1.
         24    2    1    2    0    0 -0.18465597493E+02  0.23565836012E+02 -0.55296754980E+03  0.55957209748E+03  0.80321194089E+02 0.  0.
         23    2    1    2    0    0  0.70111942998E+01  0.36562446341E+02 -0.23803626576E+03  0.25717168136E+03  0.89944652717E+02 0.  0.
        -13    1    3    3    0    0  0.14904857504E+02  0.17730533187E+02 -0.46276164038E+02  0.51749492195E+02  0.00000000000E+00 0.  1.
         14    1    3    3    0    0 -0.33370454996E+02  0.58353028256E+01 -0.50669138577E+03  0.50782260528E+03  0.00000000000E+00 0. -1.
        -11    1    4    4    0    0  0.40846134583E+02  0.28385358825E+01 -0.58614019739E+02  0.71498722410E+02  0.00000000000E+00 0.  1.
         11    1    4    4    0    0 -0.33834940284E+02  0.33723910459E+02 -0.17942224602E+03  0.18567295895E+03  0.00000000000E+00 0. -1.
          1    1    1    2  501    0  0.11454403193E+02 -0.60128282354E+02 -0.11877725761E+03  0.13362129552E+03  0.00000000000E+00 0. -1.
<scales pt_clust_5="13000.00000" pt_clust_6="13000.00000" pt_clust_7="13000.00000" pt_clust_8="13000.00000" pt_clust_9="61.20959"></scales>
<clustering>
<clus scale="   61.210">  1  9  2 -1</clus>
<clus scale="   80.321">  5  6 -1 -1</clus>
<clus scale="   82.212">  2  5  1 -1</clus>
<clus scale="   89.945">  7  8 -1 -1</clus>
<clus scale="   61.210">  1  5  2 -1</clus>
</clustering>
</event>
<event>
 9    2  0.6469128E-005  0.1390373E+03  0.7546771E-02  0.1228291E+00
          2   -1    0    0  502    0 -0.00000000000E+00  0.00000000000E+00  0.81213692904E+03  0.81213692904E+03  0.00000000000E+00 0. -1.
         21   -1    0    0  501  502  0.00000000000E+00 -0.00000000000E+00 -0.93343642915E+02  0.93343642915E+02  0.00000000000E+00 0. -1.
         23    2    1    2    0    0  0.16892802150E+02 -0.30269010306E+02  0.14781462152E+03  0.18098788622E+03  0.98518388516E+02 0.  0.
         24    2    1    2    0    0  0.57162928535E+02 -0.48531257741E+02  0.60096752963E+03  0.61227385702E+03  0.89968999915E+02 0.  0.
        -11    1    4    4    0    0  0.37005822845E+01 -0.60527948039E+02  0.26354883990E+03  0.27043542263E+03  0.00000000000E+00 0.  1.
         12    1    4    4    0    0  0.53462346251E+02  0.11996690298E+02  0.33741868974E+03  0.34183843439E+03  0.00000000000E+00 0. -1.
        -13    1    3    3    0    0 -0.29937834951E+02  0.19164390521E+02  0.40438169373E+02  0.53840443608E+02  0.00000000000E+00 0.  1.
         13    1    3    3    0    0  0.46830637101E+02 -0.49433400827E+02  0.10737645214E+03  0.12714744261E+03  0.00000000000E+00 0. -1.
          1    1    1    2  501    0 -0.74055730685E+02  0.78800268046E+02 -0.29988865023E+02  0.11221882871E+03  0.00000000000E+00 0. -1.
<scales pt_clust_5="13000.00000" pt_clust_6="13000.00000" pt_clust_7="13000.00000" pt_clust_8="13000.00000" pt_clust_9="106.00452"></scales>
<clustering>
<clus scale="   89.969">  5  6 -1 -1</clus>
<clus scale="   98.518">  7  8 -1 -1</clus>
<clus scale="  104.439">  1  7  2 -1</clus>
<clus scale="  106.005">  2  9  1 -1</clus>
<clus scale="  106.005">  2  5  1 -1</clus>
</clustering>
</event>
<event>
 9    2  0.6469128E-005  0.2216571E+03  0.7546771E-02  0.1143495E+00
         -1   -1    0    0    0  501 -0.00000000000E+00  0.00000000000E+00  0.95701096646E+03  0.95701096646E+03  0.00000000000E+00 0.  1.
         21   -1    0    0  501  502  0.00000000000E+00 -0.00000000000E+00 -0.13508055894E+03  0.13508055894E+03  0.00000000000E+00 0.  1.
         24    2    1    2    0    0  0.13183755292E+03 -0.73758815061E+02  0.42937692310E+03  0.46198912464E+03  0.79043697005E+02 0.  0.
         23    2    1    2    0    0  0.93048930709E+02 -0.12815871900E+03  0.10010172913E+03  0.20954009830E+03  0.93829291039E+02 0.  0.
        -13    1    3    3    0    0  0.87231390544E+02 -0.50339295887E+02  0.37310677012E+03  0.38646089338E+03  0.00000000000E+00 0.  1.
         14    1    3    3    0    0  0.44606162374E+02 -0.23419519174E+02  0.56270152979E+02  0.75528231254E+02  0.00000000000E+00 0. -1.
        -13    1    4    4    0    0  0.10313644793E+03 -0.98615964951E+02  0.51358743610E+02  0.15165736375E+03  0.00000000000E+00 0.  1.
         13    1    4    4    0    0 -0.10087517225E+02 -0.29542754052E+02  0.48742985521E+02  0.57882734544E+02  0.00000000000E+00 0. -1.
         -2    1    1    2    0  502 -0.22488648363E+03  0.20191753406E+03  0.29245175529E+03  0.42056230247E+03  0.00000000000E+00 0.  1.
<scales pt_clust_5="13000.00000" pt_clust_6="13000.00000" pt_clust_7="13000.00000" pt_clust_8="13000.00000" pt_clust_9="200.81824"></scales>
<clustering>
<clus scale="   79.044">  5  6 -1 -1</clus>
<clus scale="   93.829">  7  8 -1 -1</clus>
<clus scale="  170.498">  1  5  2 -1</clus>
<clus scale="  200.818">  2  9  1 -1</clus>
<clus scale="  200.818">  2  5  1 -1</clus>
</clustering>
</event>
<event>
 9    2  0.6469128E-005  0.1563688E+03  0.7546771E-02  0.1217876E+00
          2   -1    0    0  502    0 -0.00000000000E+00  0.00000000000E+00  0.14125929598E+04  0.14125929598E+04  0.00000000000E+00 0. -1.
         21   -1    0    0  501  502  0.00000000000E+00 -0.00000000000E+00 -0.29041245306E+02  0.29041245306E+02  0.00000000000E+00 0.  1.
         24    2    1    2    0    0  0.96826924203E+01 -0.37292163968E+02  0.16475158950E+03  0.18833934950E+03  0.82729464528E+02 0.  0.
         23    2    1    2    0    0 -0.12671571581E+03  0.47656075263E+02  0.53616169122E+03  0.56061933960E+03  0.92177603849E+02 0.  0.
        -11    1    3    3    0    0  0.45019748594E+02 -0.12222271868E+02  0.69594792247E+02  0.83783034088E+02  0.00000000000E+00 0.  1.
         12    1    3    3    0    0 -0.35337056174E+02 -0.25069892100E+02  0.95156797249E+02  0.10455631541E+03  0.00000000000E+00 0. -1.
        -11    1    4    4    0    0 -0.12433050306E+03  0.88382822715E+01  0.42134637295E+03  0.43939612563E+03  0.00000000000E+00 0.  1.
         11    1    4    4    0    0 -0.23852127436E+01  0.38817792992E+02  0.11481531828E+03  0.12122321396E+03  0.00000000000E+00 0. -1.
          1    1    1    2  501    0  0.11703302339E+03 -0.10363911295E+02  0.68263843377E+03  0.69267551601E+03  0.00000000000E+00 0. -1.
<scales pt_clust_5="13000.00000" pt_clust_6="13000.00000" pt_clust_7="13000.00000" pt_clust_8="13000.00000" pt_clust_9="126.31121"></scales>
<clustering>
<clus scale="   82.729">  5  6 -1 -1</clus>
<clus scale="   91.261">  1  5  2 -1</clus>
<clus scale="   92.178">  7  8 -1 -1</clus>
<clus scale="  126.311">  2  9  1 -1</clus>
<clus scale="  126.311">  2  5  1 -1</clus>
</clustering>
</event>
<event>
 9    2  0.6469128E-005  0.4540582E+03  0.7546771E-02  0.1026711E+00
          2   -1    0    0  502    0 -0.00000000000E+00  0.00000000000E+00  0.17188843584E+04  0.17188843584E+04  0.00000000000E+00 0. -1.
         21   -1    0    0  501  502  0.00000000000E+00 -0.00000000000E+00 -0.30192104297E+03  0.30192104297E+03  0.00000000000E+00 0.  1.
         23    2    1    2    0    0 -0.38414832378E+03  0.23000896616E+03  0.13791268293E+04  0.14530908659E+04  0.94911505799E+02 0.  0.
         24    2    1    2    0    0  0.33905704874E+03 -0.24677295206E+03 -0.85189348429E+02  0.43561756252E+03  0.81540563637E+02 0.  0.
        -13    1    4    4    0    0  0.24199367017E+03 -0.14032888220E+03 -0.82075495810E+02  0.29152961872E+03  0.00000000000E+00 0.  1.
         14    1    4    4    0    0  0.97063378573E+02 -0.10644406986E+03 -0.31138526190E+01  0.14408794379E+03  0.00000000000E+00 0. -1.
        -13    1    3    3    0    0 -0.25777368685E+03  0.20274114539E+03  0.95926147203E+03  0.10137720737E+04  0.00000000000E+00 0. -1.
         13    1    3    3    0    0 -0.12637463694E+03  0.27267820774E+02  0.41986535730E+03  0.43931879219E+03  0.00000000000E+00 0.  1.
          1    1    1    2  501    0  0.45091275045E+02  0.16763985901E+02  0.12302583450E+03  0.13209697295E+03  0.00000000000E+00 0. -1.
<scales pt_clust_5="13000.00000" pt_clust_6="13000.00000" pt_clust_7="13000.00000" pt_clust_8="13000.00000" pt_clust_9="48.10672"></scales>
<clustering>
<clus scale="   48.107">  2  9  1 -1</clus>
<clus scale="   81.541">  5  6 -1 -1</clus>
<clus scale="   94.912">  7  8 -1 -1</clus>
<clus scale="  451.453">  2  5  1 -1</clus>
<clus scale="   48.107">  2  5  1 -1</clus>
</clustering>
</event>
<event>
 9    2  0.6469128E-005  0.1118090E+03  0.7546771E-02  0.1263405E+00
          4   -1    0    0  502    0 -0.00000000000E+00  0.00000000000E+00  0.35622431704E+03  0.35622431704E+03  0.00000000000E+00 0. -1.
         21   -1    0    0  501  502  0.00000000000E+00 -0.00000000000E+00 -0.92151140480E+02  0.92151140480E+02  0.00000000000E+00 0.  1.
         23    2    1    2    0    0 -0.20728818317E+02  0.56723909729E+02  0.20898456357E+03  0.23609864444E+03  0.91764569704E+02 0.  0.
         24    2    1    2    0    0  0.63969672630E+02 -0.62702001647E+02 -0.26026345283E+02  0.12016196346E+03  0.75748708152E+02 0.  0.
        -13    1    4    4    0    0  0.66898640311E+02 -0.37883314486E+02 -0.44731150811E+02  0.88946329012E+02  0.00000000000E+00 0.  1.
         14    1    4    4    0    0 -0.29289676813E+01 -0.24818687162E+02  0.18704805528E+02  0.31215634447E+02  0.00000000000E+00 0. -1.
        -11    1    3    3    0    0  0.16235354913E+02  0.57129537561E+02  0.17869941602E+03  0.18831052041E+03  0.00000000000E+00 0.  1.
         11    1    3    3    0    0 -0.36964173230E+02 -0.40562783133E+00  0.30285147553E+02  0.47788124035E+02  0.00000000000E+00 0. -1.
          3    1    1    2  501    0 -0.43240854313E+02  0.59780919178E+01  0.81114958271E+02  0.92114849617E+02  0.00000000000E+00 0. -1.
<scales pt_clust_5="13000.00000" pt_clust_6="13000.00000" pt_clust_7="13000.00000" pt_clust_8="13000.00000" pt_clust_9="43.65216"></scales>
<clustering>
<clus scale="   43.652">  2  9  1 -1</clus>
<clus scale="   75.749">  5  6 -1 -1</clus>
<clus scale="   91.765">  7  8 -1 -1</clus>
<clus scale="   99.088">  2  5  1 -1</clus>
<clus scale="   43.652">  2  5  1 -1</clus>
</clustering>
</event>
<event>
 9    2  0.6469128E-005  0.1004198E+03  0.7546771E-02  0.1284528E+00
         21   -1    0    0  501  502  0.00000000000E+00  0.00000000000E+00  0.80289981384E+02  0.80289981384E+02  0.00000000000E+00 0.  1.
          2   -1    0    0  502    0 -0.00000000000E+00 -0.00000000000E+00 -0.20883069058E+03  0.20883069058E+03  0.00000000000E+00 0. -1.
         24    2    1    2    0    0  0.37121965559E+02 -0.15187112822E+02 -0.10916106684E+03  0.14131723642E+03  0.80285329120E+02 0.  0.
         23    2    1    2    0    0 -0.35279872313E+02  0.48232711096E+02  0.16029067834E+01  0.10861578135E+03  0.90684920677E+02 0.  0.
        -11    1    3    3    0    0 -0.18548095002E+02  0.13190457052E+02 -0.11819528078E+02  0.25646076297E+02  0.00000000000E+00 0.  1.
         12    1    3    3    0    0  0.55670060560E+02 -0.28377569874E+02 -0.97341538767E+02  0.11567116012E+03  0.00000000000E+00 0. -1.
        -11    1    4    4    0    0 -0.65431198797E+02  0.32706901400E+02  0.95835407745E+01  0.73775520526E+02  0.00000000000E+00 0. -1.
         11    1    4    4    0    0  0.30151326483E+02  0.15525809696E+02 -0.79806339911E+01  0.34840260825E+02  0.00000000000E+00 0.  1.
          1    1    1    2  501    0 -0.18420932454E+01 -0.33045598274E+02 -0.20982549131E+02  0.39187654189E+02  0.00000000000E+00 0. -1.
<scales pt_clust_5="13000.00000" pt_clust_6="13000.00000" pt_clust_7="13000.00000" pt_clust_8="13000.00000" pt_clust_9="33.09692"></scales>
<clustering>
<clus scale="   33.097">  1  9  2 -1</clus>
<clus scale="   80.285">  5  6 -1 -1</clus>
<clus scale="   90.685">  7  8 -1 -1</clus>
<clus scale="   91.138">  2  5  1 -1</clus>
<clus scale="   33.097">  1  5  2 -1</clus>
</clustering>
</event>
<event>
 9    2  0.6469128E-005  0.1276793E+03  0.7546771E-02  0.1235885E+00
         21   -1    0    0  501  502  0.00000000000E+00  0.00000000000E+00  0.92054393622E+02  0.92054393622E+02  0.00000000000E+00 0.  1.
          2   -1    0    0  502    0 -0.00000000000E+00 -0.00000000000E+00 -0.26115372225E+03  0.26115372225E+03  0.00000000000E+00 0. -1.
         23    2    1    2    0    0  0.74914620640E+02  0.35915018095E+02 -0.51397990601E+02  0.13992537767E+03  0.10017618963E+03 0.  0.
         24    2    1    2    0    0 -0.81173194978E+02  0.91575883723E+01 -0.40946046090E+02  0.12405222522E+03  0.83901292504E+02 0.  0.
        -13    1    4    4    0    0 -0.82288378929E+02 -0.18821672039E+02 -0.45161827421E+02  0.95735172748E+02  0.00000000000E+00 0.  1.
         14    1    4    4    0    0  0.11151839512E+01  0.27979260412E+02  0.42157813311E+01  0.28317052471E+02  0.00000000000E+00 0. -1.
        -13    1    3    3    0    0  0.16191996133E+02 -0.34302936105E+02 -0.86853481235E+01  0.38914103308E+02  0.00000000000E+00 0.  1.
         13    1    3    3    0    0  0.58722624507E+02  0.70217954200E+02 -0.42712642477E+02  0.10101127436E+03  0.00000000000E+00 0. -1.
          1    1    1    2  501    0  0.62585743380E+01 -0.45072606467E+02 -0.76755291933E+02  0.89230512978E+02  0.00000000000E+00 0. -1.
<scales pt_clust_5="13000.00000" pt_clust_6="13000.00000" pt_clust_7="13000.00000" pt_clust_8="13000.00000" pt_clust_9="45.50507"></scales>
<clustering>
<clus scale="   45.505">  1  9  2 -1</clus>
<clus scale="   83.901">  5  6 -1 -1</clus>
<clus scale="  100.176">  7  8 -1 -1</clus>
<clus scale="  115.352">  1  5  2 -1</clus>
<clus scale="   45.505">  1  5  2 -1</clus>
</clustering>
</event>
<event>
 9    2  0.6469128E-005  0.2506318E+03  0.7546771E-02  0.1113545E+00
          4   -1    0    0  502    0 -0.00000000000E+00  0.00000000000E+00  0.22796020330E+03  0.22796020330E+03  0.00000000000E+00 0. -1.
         21   -1    0    0  501  502  0.00000000000E+00 -0.00000000000E+00 -0.46774260211E+03  0.46774260211E+03  0.00000000000E+00 0. -1.
         24    2    1    2    0    0  0.13760079282E+03  0.25989070170E+03 -0.46882135140E+02  0.30812288083E+03  0.79149352986E+02 0.  0.
         23    2    1    2    0    0 -0.49731838541E+02 -0.15737095155E+03 -0.16332035801E+03  0.24935466235E+03  0.90913894111E+02 0.  0.
        -11    1    3    3    0    0  0.10486405658E+02  0.60196571144E+02 -0.36503712913E+02  0.71176631963E+02  0.00000000000E+00 0.  1.
         12    1    3    3    0    0  0.12711438716E+03  0.19969413056E+03 -0.10378422227E+02  0.23694624886E+03  0.00000000000E+00 0. -1.
        -11    1    4    4    0    0 -0.57630394406E+01 -0.11078168384E+03 -0.55746388439E+02  0.12415093202E+03  0.00000000000E+00 0.  1.
         11    1    4    4    0    0 -0.43968799100E+02 -0.46589267703E+02 -0.10757396957E+03  0.12520373033E+03  0.00000000000E+00 0. -1.
          3    1    1    2  501    0 -0.87868954277E+02 -0.10251975016E+03 -0.29579905665E+02  0.13822526223E+03  0.00000000000E+00 0. -1.
<scales pt_clust_5="13000.00000" pt_clust_6="13000.00000" pt_clust_7="13000.00000" pt_clust_8="13000.00000" pt_clust_9="135.02322"></scales>
<clustering>
<clus scale="   79.149">  5  6 -1 -1</clus>
<clus scale="   90.914">  7  8 -1 -1</clus>
<clus scale="  135.023">  2  9  1 -1</clus>
<clus scale="  246.608">  1  5  2 -1</clus>
<clus scale="  135.023">  2  5  1 -1</clus>
</clustering>
</event>
<event>
 9    2  0.6469128E-005  0.1006292E+03  0.7546771E-02  0.1282357E+00
         21   -1    0    0  501  502  0.00000000000E+00  0.00000000000E+00  0.26396179395E+02  0.26396179395E+02  0.00000000000E+00 0. -1.
          2   -1    0    0  502    0 -0.00000000000E+00 -0.00000000000E+00 -0.63995532984E+03  0.63995532984E+03  0.00000000000E+00 0. -1.
         24    2    1    2    0    0 -0.31561864483E+02 -0.22587601926E+02 -0.34026846653E+03  0.35265070998E+03  0.84104357105E+02 0.  0.
         23    2    1    2    0    0  0.62410510521E+02 -0.67785578660E+01 -0.18226747209E+03  0.21320584717E+03  0.91072944476E+02 0.  0.
        -11    1    3    3    0    0 -0.38079159153E+02  0.40877943088E+00 -0.58076738495E+02  0.69448520622E+02  0.00000000000E+00 0.  1.
         12    1    3    3    0    0  0.65172946696E+01 -0.22996381356E+02 -0.28219172804E+03  0.28320218936E+03  0.00000000000E+00 0. -1.
        -11    1    4    4    0    0  0.21814534981E+02  0.38529131031E+02 -0.45339050934E+02  0.63371897668E+02  0.00000000000E+00 0.  1.
         11    1    4    4    0    0  0.40595975540E+02 -0.45307688897E+02 -0.13692842116E+03  0.14983394950E+03  0.00000000000E+00 0. -1.
          1    1    1    2  501    0 -0.30848646038E+02  0.29366159792E+02 -0.91023211820E+02  0.10049495208E+03  0.00000000000E+00 0. -1.
<scales pt_clust_5="13000.00000" pt_clust_6="13000.00000" pt_clust_7="13000.00000" pt_clust_8="13000.00000" pt_clust_9="42.59120"></scales>
<clustering>
<clus scale="   42.591">  1  9  2 -1</clus>
<clus scale="   84.104">  5  6 -1 -1</clus>
<clus scale="   91.073">  7  8 -1 -1</clus>
<clus scale="   94.369">  2  5  1 -1</clus>
<clus scale="   42.591">  1  5  2 -1</clus>
</clustering>
</event>
<event>
 9    2  0.6469128E-005  0.1337519E+03  0.7546771E-02  0.1227972E+00
          2   -1    0    0  502    0 -0.00000000000E+00  0.00000000000E+00  0.49433113586E+03  0.49433113586E+03  0.00000000000E+00 0. -1.
         21   -1    0    0  501  502  0.00000000000E+00 -0.00000000000E+00 -0.60697060761E+02  0.60697060761E+02  0.00000000000E+00 0.  1.
         24    2    1    2    0    0  0.58708158613E+02  0.43023465896E+02  0.31232155402E+03  0.33922367880E+03  0.11059061736E+03 0.  0.
         23    2    1    2    0    0 -0.48156417595E+02 -0.66098421377E+02  0.13876052745E+03  0.18501124364E+03  0.91030953152E+02 0.  0.
        -11    1    3    3    0    0  0.10409623698E+02  0.63325743916E+02  0.88302979687E+02  0.10916009495E+03  0.00000000000E+00 0.  1.
         12    1    3    3    0    0  0.48298534915E+02 -0.20302278020E+02  0.22401857433E+03  0.23006358385E+03  0.00000000000E+00 0. -1.
        -13    1    4    4    0    0 -0.25330881516E+02 -0.63130828724E+02  0.30883161043E+02  0.74705587005E+02  0.00000000000E+00 0.  1.
         13    1    4    4    0    0 -0.22825536079E+02 -0.29675926532E+01  0.10787736641E+03  0.11030565664E+03  0.00000000000E+00 0. -1.
          1    1    1    2  501    0 -0.10551741018E+02  0.23074955481E+02 -0.17448006364E+02  0.30793274185E+02  0.00000000000E+00 0. -1.
<scales pt_clust_5="13000.00000" pt_clust_6="13000.00000" pt_clust_7="13000.00000" pt_clust_8="13000.00000" pt_clust_9="25.37307"></scales>
<clustering>
<clus scale="   25.373">  2  9  1 -1</clus>
<clus scale="   91.031">  7  8 -1 -1</clus>
<clus scale="  110.591">  5  6 -1 -1</clus>
<clus scale="  118.093">  2  7  1 -1</clus>
<clus scale="   25.373">  2  5  1 -1</clus>
</clustering>
</event>
<event>
 9    2  0.6469128E-005  0.2435138E+03  0.7546771E-02  0.1160011E+00
         -3   -1    0    0    0  501 -0.00000000000E+00  0.00000000000E+00  0.58435653716E+03  0.58435653716E+03  0.00000000000E+00 0.  1.
         21   -1    0    0  501  502  0.00000000000E+00 -0.00000000000E+00 -0.19527466570E+03  0.19527466570E+03  0.00000000000E+00 0.  1.
         24    2    1    2    0    0  0.35755521601E+00 -0.37462679680E+02  0.11397432276E+03  0.14341329880E+03  0.78572563977E+02 0.  0.
         23    2    1    2    0    0 -0.22089913433E+03 -0.30094941556E+02 -0.40041353968E+02  0.24567795583E+03  0.95143128464E+02 0.  0.
        -11    1    3    3    0    0 -0.25021917649E+02 -0.78020940431E+01  0.97640370359E+02  0.10109703734E+03  0.00000000000E+00 0.  1.
         12    1    3    3    0    0  0.25379472865E+02 -0.29660585637E+02  0.16333952397E+02  0.42316261462E+02  0.00000000000E+00 0. -1.
        -11    1    4    4    0    0 -0.23959601074E+02  0.17235134475E+02 -0.31184999344E+02  0.42937355858E+02  0.00000000000E+00 0. -1.
         11    1    4    4    0    0 -0.19693953326E+03 -0.47330076031E+02 -0.88563546245E+01  0.20274059997E+03  0.00000000000E+00 0.  1.
         -4    1    1    2    0  502  0.22054157912E+03  0.67557621236E+02  0.31514890268E+03  0.39053994823E+03  0.00000000000E+00 0.  1.
<scales pt_clust_5="13000.00000" pt_clust_6="13000.00000" pt_clust_7="13000.00000" pt_clust_8="13000.00000" pt_clust_9="224.15799"></scales>
<clustering>
<clus scale="   78.573">  5  6 -1 -1</clus>
<clus scale="   87.047">  1  5  2 -1</clus>
<clus scale="   95.143">  7  8 -1 -1</clus>
<clus scale="  224.158">  2  9  1 -1</clus>
<clus scale="  224.158">  2  5  1 -1</clus>
</clustering>
</event>
<event>
 9    2  0.6469128E-005  0.1348236E+03  0.7546771E-02  0.1237714E+00
          2   -1    0    0  502    0 -0.00000000000E+00  0.00000000000E+00  0.52158241230E+03  0.52158241230E+03  0.00000000000E+00 0. -1.
         21   -1    0    0  501  502  0.00000000000E+00 -0.00000000000E+00 -0.17043082268E+03  0.17043082268E+03  0.00000000000E+00 0. -1.
         24    2    1    2    0    0 -0.22190104539E+02 -0.42432452040E+02 -0.12873132717E+02  0.95252876157E+02  0.81329448201E+02 0.  0.
         23    2    1    2    0    0  0.10779348310E+03  0.89368286591E+02  0.44157947128E+03  0.47207816254E+03  0.90880341353E+02 0.  0.
        -11    1    3    3    0    0 -0.37357945730E+02  0.10693206178E+02 -0.88819649225E+01  0.39860382191E+02  0.00000000000E+00 0.  1.
         12    1    3    3    0    0  0.15167841191E+02 -0.53125658218E+02 -0.39911677943E+01  0.55392493967E+02  0.00000000000E+00 0. -1.
        -11    1    4    4    0    0  0.29244203255E+02  0.27730329626E+02  0.34872089877E+02  0.53294063999E+02  0.00000000000E+00 0.  1.
         11    1    4    4    0    0  0.78549279843E+02  0.61637956965E+02  0.40670738140E+03  0.41878409854E+03  0.00000000000E+00 0. -1.
          1    1    1    2  501    0 -0.85603378559E+02 -0.46935834550E+02 -0.77554748941E+02  0.12468219628E+03  0.00000000000E+00 0. -1.
<scales pt_clust_5="13000.00000" pt_clust_6="13000.00000" pt_clust_7="13000.00000" pt_clust_8="13000.00000" pt_clust_9="99.58995"></scales>
<clustering>
<clus scale="   81.329">  5  6 -1 -1</clus>
<clus scale="   90.880">  7  8 -1 -1</clus>
<clus scale="   94.379">  1  5  2 -1</clus>
<clus scale="   99.590">  2  9  1 -1</clus>
<clus scale="   99.590">  2  5  1 -1</clus>
</clustering>
</event>
<event>
 9    2  0.6469128E-005  0.1295876E+03  0.7546771E-02  0.1241788E+00
         21   -1    0    0  501  502  0.00000000000E+00  0.00000000000E+00  0.23441046745E+03  0.23441046745E+03  0.00000000000E+00 0. -1.
          2   -1    0    0  502    0 -0.00000000000E+00 -0.00000000000E+00 -0.18845798313E+03  0.18845798313E+03  0.00000000000E+00 0. -1.
         23    2    1    2    0    0 -0.31028077615E+02  0.17491534898E+02 -0.85210656444E+02  0.12974713407E+03  0.91130496723E+02 0.  0.
         24    2    1    2    0    0  0.30296567645E+02  0.88876650596E+02 -0.17589781028E+01  0.12287732785E+03  0.79238896153E+02 0.  0.
        -11    1    4    4    0    0  0.34926526928E+02  0.20182802302E+02  0.26703363394E+02  0.48376413763E+02  0.00000000000E+00 0.  1.
         12    1    4    4    0    0 -0.46299592830E+01  0.68693848294E+02 -0.28462341497E+02  0.74500914088E+02  0.00000000000E+00 0. -1.
        -11    1    3    3    0    0  0.21059597259E+02 -0.23321340088E+02 -0.23191476440E+02  0.39054271465E+02  0.00000000000E+00 0.  1.
         11    1    3    3    0    0 -0.52087674873E+02  0.40812874986E+02 -0.62019180004E+02  0.90692862601E+02  0.00000000000E+00 0. -1.
          1    1    1    2  501    0  0.73150996974E+00 -0.10636818549E+03  0.13292211886E+03  0.17024398866E+03  0.00000000000E+00 0. -1.
<scales pt_clust_5="13000.00000" pt_clust_6="13000.00000" pt_clust_7="13000.00000" pt_clust_8="13000.00000" pt_clust_9="102.53850"></scales>
<clustering>
<clus scale="   79.239">  5  6 -1 -1</clus>
<clus scale="   91.130">  7  8 -1 -1</clus>
<clus scale="   97.844">  2  7  1 -1</clus>
<clus scale="  102.539">  1  9  2 -1</clus>
<clus scale="  102.539">  1  5  2 -1</clus>
</clustering>
</event>
<event>
 9    2  0.6469128E-005  0.8938825E+02  0.7546771E-02  0.1309715E+00
          2   -1    0    0  502    0 -0.00000000000E+00  0.00000000000E+00  0.28266182278E+03  0.28266182278E+03  0.00000000000E+00 0. -1.
         21   -1    0    0  501  502  0.00000000000E+00 -0.00000000000E+00 -0.59704026895E+02  0.59704026895E+02  0.00000000000E+00 0. -1.
         24    2    1    2    0    0 -0.14068001976E+02  0.22029575126E+02  0.17275151512E+03  0.19205714757E+03  0.79747420633E+02 0.  0.
         23    2    1    2    0    0 -0.19878852010E+02  0.13520090974E+02  0.41411545220E+02  0.10037359393E+03  0.88215535275E+02 0.  0.
        -11    1    3    3    0    0 -0.28770287176E+02 -0.31979039375E+01  0.16953658307E+02  0.33546721803E+02  0.00000000000E+00 0.  1.
         12    1    3    3    0    0  0.14702285200E+02  0.25227479064E+02  0.15579785681E+03  0.15851042577E+03  0.00000000000E+00 0. -1.
        -11    1    4    4    0    0  0.38722936150E+01 -0.35217619716E+02  0.26194430714E+02  0.44061588677E+02  0.00000000000E+00 0.  1.
         11    1    4    4    0    0 -0.23751145625E+02  0.48737710690E+02  0.15217114506E+02  0.56312005254E+02  0.00000000000E+00 0. -1.
          1    1    1    2  501    0  0.33946853986E+02 -0.35549666100E+02  0.87947355525E+01  0.49935108179E+02  0.00000000000E+00 0. -1.
<scales pt_clust_5="13000.00000" pt_clust_6="13000.00000" pt_clust_7="13000.00000" pt_clust_8="13000.00000" pt_clust_9="49.15453"></scales>
<clustering>
<clus scale="   49.155">  2  9  1 -1</clus>
<clus scale="   79.747">  5  6 -1 -1</clus>
<clus scale="   81.043">  1  5  2 -1</clus>
<clus scale="   88.216">  7  8 -1 -1</clus>
<clus scale="   49.155">  2  5  1 -1</clus>
</clustering>
</event>
<event>
 9    2  0.6469128E-005  0.1175274E+03  0.7546771E-02  0.1250537E+00
         -1   -1    0    0    0  501 -0.00000000000E+00  0.00000000000E+00  0.58572997611E+03  0.58572997611E+03  0.00000000000E+00 0.  1.
         21   -1    0    0  501  502  0.00000000000E+00 -0.00000000000E+00 -0.36616322224E+02  0.36616322224E+02  0.00000000000E+00 0.  1.
         23    2    1    2    0    0 -0.10393388765E+02 -0.80021925706E+02  0.42679175605E+03  0.44385321707E+03  0.91339718333E+02 0.  0.
         24    2    1    2    0    0 -0.93346147771E+01  0.57948672214E+02  0.94188894088E+02  0.13765329009E+03  0.81435231063E+02 0.  0.
        -13    1    4    4    0    0  0.29166977569E+01 -0.19899290511E+02  0.10453915533E+02  0.22666566538E+02  0.00000000000E+00 0.  1.
         14    1    4    4    0    0 -0.12251312534E+02  0.77847962725E+02  0.83734978554E+02  0.11498672355E+03  0.00000000000E+00 0. -1.
        -11    1    3    3    0    0 -0.92162803568E+01 -0.10071458468E+03  0.35134234481E+03  0.36560882190E+03  0.00000000000E+00 0.  1.
         11    1    3    3    0    0 -0.11771084083E+01  0.20692658972E+02  0.75449411234E+02  0.78244395167E+02  0.00000000000E+00 0. -1.
         -2    1    1    2    0  502  0.19728003542E+02  0.22073253493E+02  0.28133003748E+02  0.40839791177E+02  0.00000000000E+00 0.  1.
<scales pt_clust_5="13000.00000" pt_clust_6="13000.00000" pt_clust_7="13000.00000" pt_clust_8="13000.00000" pt_clust_9="29.60444"></scales>
<clustering>
<clus scale="   29.604">  2  9  1 -1</clus>
<clus scale="   81.435">  5  6 -1 -1</clus>
<clus scale="   91.340">  7  8 -1 -1</clus>
<clus scale="  110.007">  2  5  1 -1</clus>
<clus scale="   29.604">  2  5  1 -1</clus>
</clustering>
</event>
<event>
 9    2  0.6469128E-005  0.9686147E+02  0.7546771E-02  0.1293372E+00
         -3   -1    0    0    0  501 -0.00000000000E+00  0.00000000000E+00  0.26528338516E+03  0.26528338516E+03  0.00000000000E+00 0.  1.
         21   -1    0    0  501  502  0.00000000000E+00 -0.00000000000E+00 -0.86258348281E+02  0.86258348281E+02  0.00000000000E+00 0.  1.
         24    2    1    2    0    0 -0.32783381615E+01 -0.23465569596E+02  0.10203442091E+03  0.13250969142E+03  0.81156729932E+02 0.  0.
         23    2    1    2    0    0 -0.12323311657E+02  0.51382759940E+02 -0.27238511180E+02  0.11000685254E+03  0.92560893932E+02 0.  0.
        -13    1    3    3    0    0  0.35421692336E+02  0.41983610576E+01  0.32469407294E+02  0.48234686000E+02  0.00000000000E+00 0.  1.
         14    1    3    3    0    0 -0.38700030498E+02 -0.27663930654E+02  0.69565013617E+02  0.84275005424E+02  0.00000000000E+00 0. -1.
        -11    1    4    4    0    0  0.26251442356E+02  0.57387839656E+02 -0.31862548957E+02  0.70694585310E+02  0.00000000000E+00 0.  1.
         11    1    4    4    0    0 -0.38574754013E+02 -0.60050797157E+01  0.46240377765E+01  0.39312267232E+02  0.00000000000E+00 0. -1.
         -4    1    1    2    0  502  0.15601649818E+02 -0.27917190344E+02  0.10422912715E+03  0.10902518947E+03  0.00000000000E+00 0.  1.
<scales pt_clust_5="13000.00000" pt_clust_6="13000.00000" pt_clust_7="13000.00000" pt_clust_8="13000.00000" pt_clust_9="31.98096"></scales>
<clustering>
<clus scale="   31.981">  2  9  1 -1</clus>
<clus scale="   81.157">  5  6 -1 -1</clus>
<clus scale="   86.029">  1  5  2 -1</clus>
<clus scale="   92.561">  7  8 -1 -1</clus>
<clus scale="   31.981">  2  5  1 -1</clus>
</clustering>
</event>
<event>
 9    2  0.6469128E-005  0.2238742E+03  0.7546771E-02  0.1160778E+00
         -1   -1    0    0    0  501 -0.00000000000E+00  0.00000000000E+00  0.67341989226E+03  0.67341989226E+03  0.00000000000E+00 0.  1.
         21   -1    0    0  501  502  0.00000000000E+00 -0.00000000000E+00 -0.12823136275E+03  0.12823136275E+03  0.00000000000E+00 0.  1.
         23    2    1    2    0    0 -0.36099411945E+02 -0.49787619090E+02  0.24287897754E+03  0.26664556885E+03  0.91256161966E+02 0.  0.
         24    2    1    2    0    0  0.13266204966E+03  0.19680453371E+03  0.10648791741E+03  0.27178633136E+03  0.78720324242E+02 0.  0.
        -13    1    4    4    0    0  0.14184749382E+03  0.19222627245E+03  0.10640743584E+03  0.26152283596E+03  0.00000000000E+00 0.  1.
         14    1    4    4    0    0 -0.91854441606E+01  0.45782612538E+01  0.80481575547E-01  0.10263495400E+02  0.00000000000E+00 0. -1.
        -11    1    3    3    0    0  0.21998969952E+02 -0.12341054452E+02  0.14284004789E+03  0.14505011405E+03  0.00000000000E+00 0. -1.
         11    1    3    3    0    0 -0.58098381896E+02 -0.37446564638E+02  0.10003892965E+03  0.12159545480E+03  0.00000000000E+00 0.  1.
         -2    1    1    2    0  502 -0.96562637716E+02 -0.14701691462E+03  0.19582163456E+03  0.26321935481E+03  0.00000000000E+00 0.  1.
<scales pt_clust_5="13000.00000" pt_clust_6="13000.00000" pt_clust_7="13000.00000" pt_clust_8="13000.00000" pt_clust_9="209.57771"></scales>
<clustering>
<clus scale="   78.720">  5  6 -1 -1</clus>
<clus scale="   91.256">  7  8 -1 -1</clus>
<clus scale="  110.044">  1  7  2 -1</clus>
<clus scale="  209.578">  2  9  1 -1</clus>
<clus scale="  209.578">  2  5  1 -1</clus>
</clustering>
</event>
<event>
 9    2  0.6469128E-005  0.1614031E+03  0.7546771E-02  0.1188665E+00
          2   -1    0    0  502    0 -0.00000000000E+00  0.00000000000E+00  0.67388026452E+03  0.67388026452E+03  0.00000000000E+00 0. -1.
         21   -1    0    0  501  502  0.00000000000E+00 -0.00000000000E+00 -0.24384652699E+03  0.24384652699E+03  0.00000000000E+00 0.  1.
         24    2    1    2    0    0  0.12653622849E+02  0.13027423456E+03  0.60518302891E+03  0.62465324812E+03  0.82545087922E+02 0.  0.
         23    2    1    2    0    0 -0.27185320984E+01 -0.15374706343E+03 -0.83370384616E+02  0.19782099776E+03  0.92395758524E+02 0.  0.
        -11    1    3    3    0    0 -0.23230330495E+02  0.46300542001E+01  0.77967237911E+02  0.81486046930E+02  0.00000000000E+00 0.  1.
         12    1    3    3    0    0  0.35883953344E+02  0.12564418036E+03  0.52721579100E+03  0.54316720119E+03  0.00000000000E+00 0. -1.
        -11    1    4    4    0    0 -0.42994817706E+02 -0.11333904860E+03 -0.46186181992E+02  0.12972069108E+03  0.00000000000E+00 0.  1.
         11    1    4    4    0    0  0.40276285608E+02 -0.40408014826E+02 -0.37184202625E+02  0.68100306676E+02  0.00000000000E+00 0. -1.
          1    1    1    2  501    0 -0.99350907508E+01  0.23472828873E+02 -0.91778906767E+02  0.95252545640E+02  0.00000000000E+00 0. -1.
<scales pt_clust_5="13000.00000" pt_clust_6="13000.00000" pt_clust_7="13000.00000" pt_clust_8="13000.00000" pt_clust_9="25.48882"></scales>
<clustering>
<clus scale="   25.489">  2  9  1 -1</clus>
<clus scale="   82.545">  5  6 -1 -1</clus>
<clus scale="   92.396">  7  8 -1 -1</clus>
<clus scale="  155.973">  1  5  2 -1</clus>
<clus scale="   25.489">  2  5  1 -1</clus>
</clustering>
</event>
<event>
 9    2  0.6469128E-005  0.1012880E+03  0.7546771E-02  0.1279047E+00
         21   -1    0    0  501  502  0.00000000000E+00  0.00000000000E+00  0.41495676459E+02  0.41495676459E+02  0.00000000000E+00 0.  1.
          2   -1    0    0  502    0 -0.00000000000E+00 -0.00000000000E+00 -0.13159919437E+04  0.13159919437E+04  0.00000000000E+00 0. -1.
         24    2    1    2    0    0 -0.37908044391E+02 -0.36246422934E+02 -0.97877266623E+03  0.98369263520E+03  0.83092992473E+02 0.  0.
         23    2    1    2    0    0  0.80671281095E+02  0.10005266085E+01 -0.61689101231E+02  0.13328902929E+03  0.86322438983E+02 0.  0.
        -11    1    3    3    0    0 -0.27603651685E+02  0.14948946528E+02 -0.14862345182E+03  0.15190247864E+03  0.00000000000E+00 0.  1.
         12    1    3    3    0    0 -0.10304392706E+02 -0.51195369463E+02 -0.83014921441E+03  0.83179015656E+03  0.00000000000E+00 0. -1.
        -13    1    4    4    0    0  0.40379543106E+02 -0.81076157428E+01  0.16889620029E+02  0.44514044965E+02  0.00000000000E+00 0.  1.
         13    1    4    4    0    0  0.40291737989E+02  0.91081423513E+01 -0.78578721260E+02  0.88774984326E+02  0.00000000000E+00 0. -1.
          1    1    1    2  501    0 -0.42763236704E+02  0.35245896326E+02 -0.23403449982E+03  0.24050595570E+03  0.00000000000E+00 0. -1.
<scales pt_clust_5="13000.00000" pt_clust_6="13000.00000" pt_clust_7="13000.00000" pt_clust_8="13000.00000" pt_clust_9="55.41634"></scales>
<clustering>
<clus scale="   55.416">  1  9  2 -1</clus>
<clus scale="   83.093">  5  6 -1 -1</clus>
<clus scale="   86.322">  7  8 -1 -1</clus>
<clus scale="   98.550">  2  5  1 -1</clus>
<clus scale="   55.416">  1  5  2 -1</clus>
</clustering>
</event>
<event>
 9    2  0.6469128E-005  0.9950019E+02  0.7546771E-02  0.1288950E+00
          2   -1    0    0  502    0 -0.00000000000E+00  0.00000000000E+00  0.15681229353E+03  0.15681229353E+03  0.00000000000E+00 0. -1.
         21   -1    0    0  501  502  0.00000000000E+00 -0.00000000000E+00 -0.15134718268E+03  0.15134718268E+03  0.00000000000E+00 0.  1.
         24    2    1    2    0    0 -0.86382330131E+01 -0.28698403495E+02  0.98445387363E+02  0.13128076589E+03  0.81516426363E+02 0.  0.
         23    2    1    2    0    0  0.34929487692E+02  0.18889553704E+01 -0.95169106397E+02  0.13926531433E+03  0.95467437911E+02 0.  0.
        -11    1    3    3    0    0 -0.37856337604E+00 -0.35981585462E+02  0.40109521673E+01  0.36206429538E+02  0.00000000000E+00 0.  1.
         12    1    3    3    0    0 -0.82596696371E+01  0.72831819670E+01  0.94434435195E+02  0.95074336352E+02  0.00000000000E+00 0. -1.
        -13    1    4    4    0    0  0.58645668611E+02  0.17272174953E+02 -0.92491067694E+02  0.11087037511E+03  0.00000000000E+00 0.  1.
         13    1    4    4    0    0 -0.23716180919E+02 -0.15383219582E+02 -0.26780387034E+01  0.28394939221E+02  0.00000000000E+00 0. -1.
          1    1    1    2  501    0 -0.26291254679E+02  0.26809448125E+02  0.21888298853E+01  0.37613395986E+02  0.00000000000E+00 0. -1.
<scales pt_clust_5="13000.00000" pt_clust_6="13000.00000" pt_clust_7="13000.00000" pt_clust_8="13000.00000" pt_clust_9="37.54967"></scales>
<clustering>
<clus scale="   37.550">  2  9  1 -1</clus>
<clus scale="   81.516">  5  6 -1 -1</clus>
<clus scale="   86.204">  1  5  2 -1</clus>
<clus scale="   95.467">  7  8 -1 -1</clus>
<clus scale="   37.550">  2  5  1 -1</clus>
</clustering>
</event>
<event>
 9    2  0.6469128E-005  0.1268980E+03  0.7546771E-02  0.1233908E+00
         -1   -1    0    0    0  501 -0.00000000000E+00  0.00000000000E+00  0.45406215264E+03  0.45406215264E+03  0.00000000000E+00 0.  1.
         21   -1    0    0  501  502  0.00000000000E+00 -0.00000000000E+00 -0.54083215159E+02  0.54083215159E+02  0.00000000000E+00 0.  1.
         23    2    1    2    0    0 -0.66596159073E+02  0.79480096643E+02  0.26353501657E+03  0.29697615124E+03  0.89397960175E+02 0.  0.
         24    2    1    2    0    0  0.55171344978E+02 -0.36786036458E+02  0.57449714285E+02  0.12065184898E+03  0.82820946661E+02 0.  0.
        -11    1    4    4    0    0  0.54234058815E+02 -0.90068786364E+01 -0.20129170340E+01  0.55013714956E+02  0.00000000000E+00 0.  1.
         12    1    4    4    0    0  0.93728616252E+00 -0.27779157822E+02  0.59462631319E+02  0.65638134023E+02  0.00000000000E+00 0. -1.
        -11    1    3    3    0    0  0.32740030558E+01  0.61124659133E+02  0.15446552953E+03  0.16615216780E+03  0.00000000000E+00 0. -1.
         11    1    3    3    0    0 -0.69870162129E+02  0.18355437509E+02  0.10906948704E+03  0.13082398344E+03  0.00000000000E+00 0.  1.
         -2    1    1    2    0  502  0.11424814095E+02 -0.42694060184E+02  0.78994206626E+02  0.90517367574E+02  0.00000000000E+00 0.  1.
<scales pt_clust_5="13000.00000" pt_clust_6="13000.00000" pt_clust_7="13000.00000" pt_clust_8="13000.00000" pt_clust_9="44.19628"></scales>
<clustering>
<clus scale="   44.196">  2  9  1 -1</clus>
<clus scale="   82.821">  5  6 -1 -1</clus>
<clus scale="   89.398">  7  8 -1 -1</clus>
<clus scale="  122.354">  2  5  1 -1</clus>
<clus scale="   44.196">  2  5  1 -1</clus>
</clustering>
</event>
<event>
 9    2  0.6469128E-005  0.8302215E+02  0.7546771E-02  0.1329463E+00
         21   -1    0    0  501  502  0.00000000000E+00  0.00000000000E+00  0.51608452336E+02  0.51608452336E+02  0.00000000000E+00 0. -1.
         -1   -1    0    0    0  501 -0.00000000000E+00 -0.00000000000E+00 -0.22127973283E+03  0.22127973283E+03  0.00000000000E+00 0.  1.
         24    2    1    2    0    0  0.24687580434E+02  0.37691189727E+01 -0.66075064672E+02  0.10702101636E+03  0.80398388575E+02 0.  0.
         23    2    1    2    0    0 -0.87918123838E+01  0.29387408426E+02 -0.24260132694E+02  0.78424359856E+02  0.67977278863E+02 0.  0.
        -11    1    3    3    0    0 -0.48389145887E+01 -0.34609852047E+02 -0.20452558684E+02  0.40491531335E+02  0.00000000000E+00 0.  1.
         12    1    3    3    0    0  0.29526495023E+02  0.38378971020E+02 -0.45622505988E+02  0.66529485024E+02  0.00000000000E+00 0. -1.
        -13    1    4    4    0    0  0.20282740972E+02 -0.64849934780E+01 -0.24218909454E+02  0.32249035596E+02  0.00000000000E+00 0.  1.
         13    1    4    4    0    0 -0.29074553356E+02  0.35872401904E+02 -0.41223240138E-01  0.46175324260E+02  0.00000000000E+00 0. -1.
         -2    1    1    2    0  502 -0.15895768051E+02 -0.33156527398E+02 -0.79336083126E+02  0.87442808949E+02  0.00000000000E+00 0.  1.
<scales pt_clust_5="13000.00000" pt_clust_6="13000.00000" pt_clust_7="13000.00000" pt_clust_8="13000.00000" pt_clust_9="36.76999"></scales>
<clustering>
<clus scale="   36.770">  1  9  2 -1</clus>
<clus scale="   67.977">  7  8 -1 -1</clus>
<clus scale="   71.061">  1  7  2 -1</clus>
<clus scale="   80.398">  5  6 -1 -1</clus>
<clus scale="   36.770">  1  5  2 -1</clus>
</clustering>
</event>
<event>
 9    2  0.6469128E-005  0.2027738E+03  0.7546771E-02  0.1170209E+00
          2   -1    0    0  502    0 -0.00000000000E+00  0.00000000000E+00  0.34889668062E+03  0.34889668062E+03  0.00000000000E+00 0. -1.
         21   -1    0    0  501  502  0.00000000000E+00 -0.00000000000E+00 -0.20037535748E+03  0.20037535748E+03  0.00000000000E+00 0. -1.
         24    2    1    2    0    0 -0.72936940302E+02 -0.19740790445E+02  0.62071711619E+02  0.13435234543E+03  0.92131206828E+02 0.  0.
         23    2    1    2    0    0  0.22777831613E+03 -0.12730800576E+02  0.73872319381E+02  0.25621101563E+03  0.90232645835E+02 0.  0.
        -13    1    3    3    0    0 -0.47446530051E+02  0.30636628799E+02  0.96258196031E+01  0.57292518194E+02  0.00000000000E+00 0.  1.
         14    1    3    3    0    0 -0.25490410251E+02 -0.50377419244E+02  0.52445892016E+02  0.77059827237E+02  0.00000000000E+00 0. -1.
        -13    1    4    4    0    0  0.77684567999E+02 -0.47723578111E+02  0.29665586584E+02  0.95877416738E+02  0.00000000000E+00 0.  1.
         13    1    4    4    0    0  0.15009374813E+03  0.34992777534E+02  0.44206732797E+02  0.16033359889E+03  0.00000000000E+00 0. -1.
          1    1    1    2  501    0 -0.15484137583E+03  0.32471591021E+02  0.12577292138E+02  0.15870867705E+03  0.00000000000E+00 0. -1.
<scales pt_clust_5="13000.00000" pt_clust_6="13000.00000" pt_clust_7="13000.00000" pt_clust_8="13000.00000" pt_clust_9="181.59103"></scales>
<clustering>
<clus scale="   90.233">  7  8 -1 -1</clus>
<clus scale="   92.131">  5  6 -1 -1</clus>
<clus scale="  119.154">  1  5  2 -1</clus>
<clus scale="  181.591">  2  9  1 -1</clus>
<clus scale="  181.591">  2  5  1 -1</clus>
</clustering>
</event>
<event>
 9    2  0.6469128E-005  0.1097617E+03  0.7546771E-02  0.1267802E+00
         21   -1    0    0  501  502  0.00000000000E+00  0.00000000000E+00  0.54756949448E+02  0.54756949448E+02  0.00000000000E+00 0.  1.
          2   -1    0    0  502    0 -0.00000000000E+00 -0.00000000000E+00 -0.68531602065E+03  0.68531602065E+03  0.00000000000E+00 0. -1.
         23    2    1    2    0    0  0.13634114350E+01 -0.58140798208E+02 -0.47105586052E+03  0.48455317763E+03  0.97549715104E+02 0.  0.
         24    2    1    2    0    0 -0.21490766823E+02  0.51161567323E-01 -0.12228859089E+00  0.84692995252E+02  0.81920893635E+02 0.  0.
        -11    1    4    4    0    0  0.25325175677E+02 -0.14162192580E+02  0.16055275168E+02  0.33161786479E+02  0.00000000000E+00 0.  1.
         12    1    4    4    0    0 -0.46815942500E+02  0.14213354147E+02 -0.16177563759E+02  0.51531208772E+02  0.00000000000E+00 0. -1.
        -11    1    3    3    0    0 -0.34099688099E+02  0.10032851910E+02 -0.11832649777E+03  0.12355001789E+03  0.00000000000E+00 0.  1.
         11    1    3    3    0    0  0.35463099534E+02 -0.68173650118E+02 -0.35272936275E+03  0.36100315974E+03  0.00000000000E+00 0. -1.
          1    1    1    2  501    0  0.20127355388E+02  0.58089636641E+02 -0.15938092209E+03  0.17082679721E+03  0.00000000000E+00 0. -1.
<scales pt_clust_5="13000.00000" pt_clust_6="13000.00000" pt_clust_7="13000.00000" pt_clust_8="13000.00000" pt_clust_9="61.47780"></scales>
<clustering>
<clus scale="   61.478">  1  9  2 -1</clus>
<clus scale="   81.921">  5  6 -1 -1</clus>
<clus scale="   96.139">  1  5  2 -1</clus>
<clus scale="   97.550">  7  8 -1 -1</clus>
<clus scale="   61.478">  1  5  2 -1</clus>
</clustering>
</event>
<event>
 9    2  0.6469128E-005  0.2630782E+03  0.7546771E-02  0.1134534E+00
         21   -1    0    0  501  502  0.00000000000E+00  0.00000000000E+00  0.24547033147E+03  0.24547033147E+03  0.00000000000E+00 0.  1.
          2   -1    0    0  502    0 -0.00000000000E+00 -0.00000000000E+00 -0.43402331502E+03  0.43402331502E+03  0.00000000000E+00 0. -1.
         24    2    1    2    0    0  0.22910081053E+01  0.97859980729E+02 -0.19325430148E+01  0.12664602779E+03  0.80334656810E+02 0.  0.
         23    2    1    2    0    0 -0.15157197011E+03 -0.24909631346E+03 -0.80180979287E+02  0.31517853602E+03  0.88800251261E+02 0.  0.
        -13    1    3    3    0    0  0.11954490095E+02  0.91801442193E+02  0.26264015327E+02  0.96230001160E+02  0.00000000000E+00 0.  1.
         14    1    3    3    0    0 -0.96634819899E+01  0.60585385365E+01 -0.28196558342E+02  0.30416026626E+02  0.00000000000E+00 0. -1.
        -11    1    4    4    0    0 -0.83472837060E+02 -0.96091829447E+02  0.48028891429E+01  0.12737512299E+03  0.00000000000E+00 0. -1.
         11    1    4    4    0    0 -0.68099133050E+02 -0.15300448401E+03 -0.84983868430E+02  0.18780341302E+03  0.00000000000E+00 0.  1.
          1    1    1    2  501    0  0.14928096201E+03  0.15123633273E+03 -0.10643946124E+03  0.23766908269E+03  0.00000000000E+00 0. -1.
<scales pt_clust_5="13000.00000" pt_clust_6="13000.00000" pt_clust_7="13000.00000" pt_clust_8="13000.00000" pt_clust_9="247.63820"></scales>
<clustering>
<clus scale="   80.335">  5  6 -1 -1</clus>
<clus scale="   88.800">  7  8 -1 -1</clus>
<clus scale="  126.631">  2  5  1 -1</clus>
<clus scale="  247.638">  1  9  2 -1</clus>
<clus scale="  247.638">  1  5  2 -1</clus>
</clustering>
</event>
<event>
 9    2  0.6469128E-005  0.1399955E+03  0.7546771E-02  0.1234229E+00
         21   -1    0    0  501  502  0.00000000000E+00  0.00000000000E+00  0.21986809460E+03  0.21986809460E+03  0.00000000000E+00 0. -1.
          2   -1    0    0  502    0 -0.00000000000E+00 -0.00000000000E+00 -0.26000978148E+03  0.26000978148E+03  0.00000000000E+00 0. -1.
         24    2    1    2    0    0 -0.28779816784E+02 -0.26927840228E+02 -0.39958305813E+02  0.98952707992E+02  0.81495924940E+02 0.  0.
         23    2    1    2    0    0  0.80517498398E+02 -0.56748753619E+02 -0.14755663402E+03  0.20373195224E+03  0.10015118339E+03 0.  0.
        -11    1    3    3    0    0 -0.38005711780E+02 -0.43537970550E+02 -0.50913250993E+02  0.77020439717E+02  0.00000000000E+00 0.  1.
         12    1    3    3    0    0  0.92258949954E+01  0.16610130322E+02  0.10954945179E+02  0.21932268275E+02  0.00000000000E+00 0. -1.
        -13    1    4    4    0    0  0.57332128949E+02 -0.81341134934E+02 -0.13491466882E+03  0.16764641692E+03  0.00000000000E+00 0. -1.
         13    1    4    4    0    0  0.23185369449E+02  0.24592381314E+02 -0.12641965193E+02  0.36085535318E+02  0.00000000000E+00 0.  1.
          1    1    1    2  501    0 -0.51737681614E+02  0.83676593847E+02  0.14737325295E+03  0.17719321585E+03  0.00000000000E+00 0. -1.
<scales pt_clust_5="13000.00000" pt_clust_6="13000.00000" pt_clust_7="13000.00000" pt_clust_8="13000.00000" pt_clust_9="97.81859"></scales>
<clustering>
<clus scale="   81.496">  5  6 -1 -1</clus>
<clus scale="   90.526">  2  5  1 -1</clus>
<clus scale="   97.819">  1  9  2 -1</clus>
<clus scale="  100.151">  7  8 -1 -1</clus>
<clus scale="   97.819">  1  5  2 -1</clus>
</clustering>
</event>
<event>
 9    2  0.6469128E-005  0.9018950E+02  0.7546771E-02  0.1308787E+00
          2   -1    0    0  502    0 -0.00000000000E+00  0.00000000000E+00  0.33225463981E+03  0.33225463981E+03  0.00000000000E+00 0. -1.
         21   -1    0    0  501  502  0.00000000000E+00 -0.00000000000E+00 -0.99184794557E+02  0.99184794557E+02  0.00000000000E+00 0.  1.
         23    2    1    2    0    0  0.47744705193E+01 -0.49849230861E+01  0.26898029456E+03  0.28358304891E+03  0.89561720305E+02 0.  0.
         24    2    1    2    0    0  0.12016149188E+02  0.49272968087E+02 -0.12936947172E+02  0.95214789351E+02  0.79537904697E+02 0.  0.
        -11    1    4    4    0    0 -0.22113208361E+02  0.31831237083E+02 -0.33932160845E+02  0.51513233037E+02  0.00000000000E+00 0.  1.
         12    1    4    4    0    0  0.34129357549E+02  0.17441731004E+02  0.20995213673E+02  0.43701556314E+02  0.00000000000E+00 0. -1.
        -11    1    3    3    0    0 -0.37168191186E+02 -0.22357298084E+02  0.10983354558E+03  0.11808781033E+03  0.00000000000E+00 0. -1.
         11    1    3    3    0    0  0.41942661705E+02  0.17372374998E+02  0.15914674898E+03  0.16549523858E+03  0.00000000000E+00 0.  1.
          1    1    1    2  501    0 -0.16790619707E+02 -0.44288045001E+02 -0.22973502131E+02  0.52641596104E+02  0.00000000000E+00 0. -1.
<scales pt_clust_5="13000.00000" pt_clust_6="13000.00000" pt_clust_7="13000.00000" pt_clust_8="13000.00000" pt_clust_9="47.36408"></scales>
<clustering>
<clus scale="   47.364">  2  9  1 -1</clus>
<clus scale="   79.538">  5  6 -1 -1</clus>
<clus scale="   80.244">  2  5  1 -1</clus>
<clus scale="   89.562">  7  8 -1 -1</clus>
<clus scale="   47.364">  2  5  1 -1</clus>
</clustering>
</event>
<event>
 9    2  0.6469128E-005  0.1239128E+03  0.7546771E-02  0.1240547E+00
         21   -1    0    0  501  502  0.00000000000E+00  0.00000000000E+00  0.80387461756E+03  0.80387461756E+03  0.00000000000E+00 0.  1.
          4   -1    0    0  502    0 -0.00000000000E+00 -0.00000000000E+00 -0.44111574334E+02  0.44111574334E+02  0.00000000000E+00 0. -1.
         24    2    1    2    0    0  0.62228206081E+02 -0.49114121460E+02  0.60253419141E+02  0.12788066954E+03  0.80239918770E+02 0.  0.
         23    2    1    2    0    0 -0.61559661490E+02  0.76658839533E+02  0.47385349270E+03  0.49277350068E+03  0.92856991296E+02 0.  0.
        -11    1    3    3    0    0  0.55559318184E+02  0.25260493321E+01  0.50050190793E+02  0.74821389727E+02  0.00000000000E+00 0.  1.
         12    1    3    3    0    0  0.66688878971E+01 -0.51640170792E+02  0.10203228348E+02  0.53059279809E+02  0.00000000000E+00 0. -1.
        -11    1    4    4    0    0 -0.22859134993E+01  0.22214798502E+02  0.14969619535E+02  0.26885166580E+02  0.00000000000E+00 0. -1.
         11    1    4    4    0    0 -0.59273747991E+02  0.54444041031E+02  0.45888387316E+03  0.46588833410E+03  0.00000000000E+00 0.  1.
          3    1    1    2  501    0 -0.66854459151E+00 -0.27544718074E+02  0.22565613139E+03  0.22733202168E+03  0.00000000000E+00 0. -1.
<scales pt_clust_5="13000.00000" pt_clust_6="13000.00000" pt_clust_7="13000.00000" pt_clust_8="13000.00000" pt_clust_9="27.55283"></scales>
<clustering>
<clus scale="   27.553">  1  9  2 -1</clus>
<clus scale="   80.240">  5  6 -1 -1</clus>
<clus scale="   92.857">  7  8 -1 -1</clus>
<clus scale="  114.762">  2  5  1 -1</clus>
<clus scale="   27.553">  1  5  2 -1</clus>
</clustering>
</event>
<event>
 9    2  0.6469128E-005  0.9252682E+02  0.7546771E-02  0.1302876E+00
         21   -1    0    0  501  502  0.00000000000E+00  0.00000000000E+00  0.11758879526E+03  0.11758879526E+03  0.00000000000E+00 0. -1.
          2   -1    0    0  502    0 -0.00000000000E+00 -0.00000000000E+00 -0.31473227841E+03  0.31473227841E+03  0.00000000000E+00 0. -1.
         24    2    1    2    0    0  0.29892907267E+02  0.81706611040E+01 -0.19306619762E+03  0.21145630109E+03  0.80491397060E+02 0.  0.
         23    2    1    2    0    0  0.62624880765E+01  0.29388174975E+02 -0.82915804991E+02  0.12634815536E+03  0.90476196098E+02 0.  0.
        -11    1    3    3    0    0 -0.27290669398E+02 -0.43887596522E+01 -0.58197204041E+02  0.64427916353E+02  0.00000000000E+00 0.  1.
         12    1    3    3    0    0  0.57183576665E+02  0.12559420756E+02 -0.13486899358E+03  0.14702838474E+03  0.00000000000E+00 0. -1.
        -13    1    4    4    0    0 -0.30461620343E+02  0.21737819286E+02 -0.23724683678E+01  0.37497622690E+02  0.00000000000E+00 0.  1.
         13    1    4    4    0    0  0.36724108420E+02  0.76503556883E+01 -0.80543336623E+02  0.88850532670E+02  0.00000000000E+00 0. -1.
          1    1    1    2  501    0 -0.36155395343E+02 -0.37558836079E+02  0.78838519460E+02  0.94516617220E+02  0.00000000000E+00 0. -1.
<scales pt_clust_5="13000.00000" pt_clust_6="13000.00000" pt_clust_7="13000.00000" pt_clust_8="13000.00000" pt_clust_9="52.13328"></scales>
<clustering>
<clus scale="   52.133">  1  9  2 -1</clus>
<clus scale="   80.491">  5  6 -1 -1</clus>
<clus scale="   82.790">  2  5  1 -1</clus>
<clus scale="   90.476">  7  8 -1 -1</clus>
<clus scale="   52.133">  1  5  2 -1</clus>
</clustering>
</event>
<event>
 9    2  0.6469128E-005  0.9304001E+02  0.7546771E-02  0.1303227E+00
         21   -1    0    0  501  502  0.00000000000E+00  0.00000000000E+00  0.59624311001E+02  0.59624311001E+02  0.00000000000E+00 0.  1.
          2   -1    0    0  502    0 -0.00000000000E+00 -0.00000000000E+00 -0.31057094543E+03  0.31057094543E+03  0.00000000000E+00 0. -1.
         24    2    1    2    0    0 -0.36475638579E+01  0.12764798206E+02 -0.19357394092E+03  0.20966814288E+03  0.79458257830E+02 0.  0.
         23    2    1    2    0    0 -0.27842009224E+02 -0.20224266672E+02 -0.75230560296E+02  0.12356577850E+03  0.91785979184E+02 0.  0.
        -11    1    3    3    0    0 -0.84358262942E+01 -0.30858636172E+02 -0.48490050343E+02  0.58092198907E+02  0.00000000000E+00 0.  1.
         12    1    3    3    0    0  0.47882624363E+01  0.43623434378E+02 -0.14508389058E+03  0.15157594397E+03  0.00000000000E+00 0. -1.
        -11    1    4    4    0    0 -0.10947838053E+02 -0.53329337446E+02 -0.22168403676E+02  0.58781897826E+02  0.00000000000E+00 0.  1.
         11    1    4    4    0    0 -0.16894171171E+02  0.33105070775E+02 -0.53062156620E+02  0.64783880678E+02  0.00000000000E+00 0. -1.
          1    1    1    2  501    0  0.31489573081E+02  0.74594684655E+01  0.17857866788E+02  0.36961335052E+02  0.00000000000E+00 0. -1.
<scales pt_clust_5="13000.00000" pt_clust_6="13000.00000" pt_clust_7="13000.00000" pt_clust_8="13000.00000" pt_clust_9="32.36104"></scales>
<clustering>
<clus scale="   32.361">  1  9  2 -1</clus>
<clus scale="   79.458">  5  6 -1 -1</clus>
<clus scale="   80.904">  2  5  1 -1</clus>
<clus scale="   91.786">  7  8 -1 -1</clus>
<clus scale="   32.361">  1  5  2 -1</clus>
</clustering>
</event>
<event>
 9    2  0.6469128E-005  0.9959598E+02  0.7546771E-02  0.1284241E+00
         21   -1    0    0  501  502  0.00000000000E+00  0.00000000000E+00  0.74158985228E+02  0.74158985228E+02  0.00000000000E+00 0.  1.
          2   -1    0    0  502    0 -0.00000000000E+00 -0.00000000000E+00 -0.24474414286E+03  0.24474414286E+03  0.00000000000E+00 0. -1.
         23    2    1    2    0    0 -0.26421157810E+02  0.39360645031E+02 -0.16994923238E+03  0.19655765778E+03  0.86630440893E+02 0.  0.
         24    2    1    2    0    0  0.14484977180E+02 -0.56913523567E+02  0.76123731915E+01  0.99572451617E+02  0.80048492595E+02 0.  0.
        -11    1    4    4    0    0 -0.76691005365E+01 -0.44165381159E+02 -0.30114322267E+02  0.54002485143E+02  0.00000000000E+00 0.  1.
         12    1    4    4    0    0  0.22154077716E+02 -0.12748142408E+02  0.37726695458E+02  0.45569966475E+02  0.00000000000E+00 0. -1.
        -11    1    3    3    0    0  0.28121874873E+02  0.31811312042E+02 -0.89605540888E+02  0.99156201914E+02  0.00000000000E+00 0. -1.
         11    1    3    3    0    0 -0.54543032683E+02  0.75493329884E+01 -0.80343691493E+02  0.97401455870E+02  0.00000000000E+00 0.  1.
          1    1    1    2  501    0  0.11936180630E+02  0.17552878536E+02 -0.82482984423E+01  0.22773018687E+02  0.00000000000E+00 0. -1.
<scales pt_clust_5="13000.00000" pt_clust_6="13000.00000" pt_clust_7="13000.00000" pt_clust_8="13000.00000" pt_clust_9="21.22677"></scales>
<clustering>
<clus scale="   21.227">  1  9  2 -1</clus>
<clus scale="   80.048">  5  6 -1 -1</clus>
<clus scale="   86.630">  7  8 -1 -1</clus>
<clus scale="   93.927">  1  5  2 -1</clus>
<clus scale="   21.227">  1  5  2 -1</clus>
</clustering>
</event>
<event>
 9    2  0.6469128E-005  0.1137769E+03  0.7546771E-02  0.1260046E+00
          2   -1    0    0  502    0 -0.00000000000E+00  0.00000000000E+00  0.67130413262E+03  0.67130413262E+03  0.00000000000E+00 0. -1.
         21   -1    0    0  501  502  0.00000000000E+00 -0.00000000000E+00 -0.29146009439E+02  0.29146009439E+02  0.00000000000E+00 0.  1.
         24    2    1    2    0    0  0.13068323701E+02  0.47489099593E+02  0.31740595625E+03  0.33125556201E+03  0.80979692731E+02 0.  0.
         23    2    1    2    0    0  0.61328214990E+01 -0.80832074331E+02  0.29366390624E+03  0.31972824913E+03  0.97037249169E+02 0.  0.
        -11    1    3    3    0    0  0.46423792533E+02  0.17693259151E+02  0.15225675344E+03  0.16015723181E+03  0.00000000000E+00 0.  1.
         12    1    3    3    0    0 -0.33355468833E+02  0.29795840441E+02  0.16514920280E+03  0.17109833019E+03  0.00000000000E+00 0. -1.
        -13    1    4    4    0    0 -0.36616218013E+02 -0.40138624838E+02  0.71161815806E+02  0.89531338951E+02  0.00000000000E+00 0.  1.
         13    1    4    4    0    0  0.42749039512E+02 -0.40693449493E+02  0.22250209043E+03  0.23019691018E+03  0.00000000000E+00 0. -1.
          1    1    1    2  501    0 -0.19201145200E+02  0.33342974738E+02  0.31088260691E+02  0.49466330915E+02  0.00000000000E+00 0. -1.
<scales pt_clust_5="13000.00000" pt_clust_6="13000.00000" pt_clust_7="13000.00000" pt_clust_8="13000.00000" pt_clust_9="38.47646"></scales>
<clustering>
<clus scale="   38.476">  2  9  1 -1</clus>
<clus scale="   80.980">  5  6 -1 -1</clus>
<clus scale="   97.037">  7  8 -1 -1</clus>
<clus scale="  100.432">  1  5  2 -1</clus>
<clus scale="   38.476">  2  5  1 -1</clus>
</clustering>
</event>
<event>
 9    2  0.6469128E-005  0.1040563E+03  0.7546771E-02  0.1275820E+00
         -1   -1    0    0    0  501 -0.00000000000E+00  0.00000000000E+00  0.24250231003E+03  0.24250231003E+03  0.00000000000E+00 0.  1.
         21   -1    0    0  501  502  0.00000000000E+00 -0.00000000000E+00 -0.29228448523E+03  0.29228448523E+03  0.00000000000E+00 0.  1.
         23    2    1    2    0    0 -0.60757517319E+02 -0.16832195888E+02  0.10755290088E+03  0.15195654612E+03  0.86881336848E+02 0.  0.
         24    2    1    2    0    0  0.53884305271E+02 -0.19977436132E+02  0.90303603570E+02  0.13237644958E+03  0.77885603792E+02 0.  0.
        -13    1    4    4    0    0 -0.18791858038E+02 -0.12458279809E+02  0.13078030647E+02  0.26064871954E+02  0.00000000000E+00 0.  1.
         14    1    4    4    0    0  0.72676163310E+02 -0.75191563221E+01  0.77225572923E+02  0.10631157763E+03  0.00000000000E+00 0. -1.
        -11    1    3    3    0    0 -0.57942261258E+02 -0.44455154661E+02  0.98763826307E+02  0.12283264958E+03  0.00000000000E+00 0.  1.
         11    1    3    3    0    0 -0.28152560613E+01  0.27622958773E+02  0.87890745751E+01  0.29123896545E+02  0.00000000000E+00 0. -1.
         -2    1    1    2    0  502  0.68732120477E+01  0.36809632020E+02 -0.24763867964E+03  0.25045379955E+03  0.00000000000E+00 0.  1.
<scales pt_clust_5="13000.00000" pt_clust_6="13000.00000" pt_clust_7="13000.00000" pt_clust_8="13000.00000" pt_clust_9="37.44583"></scales>
<clustering>
<clus scale="   37.446">  2  9  1 -1</clus>
<clus scale="   77.886">  5  6 -1 -1</clus>
<clus scale="   86.881">  7  8 -1 -1</clus>
<clus scale="   96.672">  2  5  1 -1</clus>
<clus scale="   37.446">  2  5  1 -1</clus>
</clustering>
</event>
<event>
 9    2  0.6469128E-005  0.1038990E+03  0.7546771E-02  0.1277947E+00
          2   -1    0    0  502    0 -0.00000000000E+00  0.00000000000E+00  0.85975945767E+03  0.85975945767E+03  0.00000000000E+00 0. -1.
         21   -1    0    0  501  502  0.00000000000E+00 -0.00000000000E+00 -0.21011801237E+02  0.21011801237E+02  0.00000000000E+00 0.  1.
         24    2    1    2    0    0  0.17293840599E+02 -0.42376413473E+02  0.54761448139E+03  0.55505627748E+03  0.78172972271E+02 0.  0.
         23    2    1    2    0    0 -0.71700163420E+01  0.71215194495E+02  0.22850767673E+03  0.25602911380E+03  0.90620834956E+02 0.  0.
        -13    1    3    3    0    0 -0.22345824257E+01  0.22426263578E+02  0.11625329503E+03  0.11841773204E+03  0.00000000000E+00 0.  1.
         14    1    3    3    0    0  0.19528423025E+02 -0.64802677051E+02  0.43136118637E+03  0.43663854544E+03  0.00000000000E+00 0. -1.
        -13    1    4    4    0    0  0.36518701979E+02  0.59082543774E+02  0.15152176214E+03  0.16668295347E+03  0.00000000000E+00 0.  1.
         13    1    4    4    0    0 -0.43688718321E+02  0.12132650721E+02  0.76985914589E+02  0.89346160338E+02  0.00000000000E+00 0. -1.
          1    1    1    2  501    0 -0.10123824257E+02 -0.28838781022E+02  0.62625498310E+02  0.69685867628E+02  0.00000000000E+00 0. -1.
<scales pt_clust_5="13000.00000" pt_clust_6="13000.00000" pt_clust_7="13000.00000" pt_clust_8="13000.00000" pt_clust_9="30.56415"></scales>
<clustering>
<clus scale="   30.564">  2  9  1 -1</clus>
<clus scale="   78.173">  5  6 -1 -1</clus>
<clus scale="   90.621">  7  8 -1 -1</clus>
<clus scale="   93.241">  1  5  2 -1</clus>
<clus scale="   30.564">  2  5  1 -1</clus>
</clustering>
</event>
<event>
 9    2  0.6469128E-005  0.9489718E+02  0.7546771E-02  0.1299057E+00
         21   -1    0    0  501  502  0.00000000000E+00  0.00000000000E+00  0.40954854400E+03  0.40954854400E+03  0.00000000000E+00 0.  1.
          2   -1    0    0  502    0 -0.00000000000E+00 -0.00000000000E+00 -0.47018682225E+02  0.47018682225E+02  0.00000000000E+00 0. -1.
         23    2    1    2    0    0  0.11861771334E+02  0.14455283109E+02  0.17276609539E+03  0.19618707360E+03  0.91058153411E+02 0.  0.
         24    2    1    2    0    0 -0.43360597082E+02  0.12372456976E+02  0.19863314645E+03  0.21806503046E+03  0.77871763619E+02 0.  0.
        -11    1    4    4    0    0 -0.66721131733E+01 -0.30944422932E+02  0.91512345424E+02  0.96832761862E+02  0.00000000000E+00 0.  1.
         12    1    4    4    0    0 -0.36688483908E+02  0.43316879908E+02  0.10712080103E+03  0.12123226860E+03  0.00000000000E+00 0. -1.
        -13    1    3    3    0    0 -0.26284321707E+02 -0.89654454903E+01  0.13745988544E+02  0.30987045382E+02  0.00000000000E+00 0. -1.
         13    1    3    3    0    0  0.38146093040E+02  0.23420728599E+02  0.15902010684E+03  0.16520002822E+03  0.00000000000E+00 0.  1.
          1    1    1    2  501    0  0.31498825748E+02 -0.26827740085E+02 -0.88693800622E+01  0.42315122170E+02  0.00000000000E+00 0. -1.
<scales pt_clust_5="13000.00000" pt_clust_6="13000.00000" pt_clust_7="13000.00000" pt_clust_8="13000.00000" pt_clust_9="41.37518"></scales>
<clustering>
<clus scale="   41.375">  1  9  2 -1</clus>
<clus scale="   77.872">  5  6 -1 -1</clus>
<clus scale="   82.328">  1  5  2 -1</clus>
<clus scale="   91.058">  7  8 -1 -1</clus>
<clus scale="   41.375">  1  5  2 -1</clus>
</clustering>
</event>
<event>
 9    2  0.6469128E-005  0.9110499E+02  0.7546771E-02  0.1306911E+00
         21   -1    0    0  501  502  0.00000000000E+00  0.00000000000E+00  0.55565026496E+02  0.55565026496E+02  0.00000000000E+00 0. -1.
          2   -1    0    0  502    0 -0.00000000000E+00 -0.00000000000E+00 -0.30656659623E+03  0.30656659623E+03  0.00000000000E+00 0. -1.
         24    2    1    2    0    0 -0.96276823703E+01 -0.40654866805E+01 -0.17245508291E+03  0.19056111198E+03  0.80396276820E+02 0.  0.
         23    2    1    2    0    0 -0.27167850011E+02  0.37636727968E+01 -0.12316200408E+02  0.95804732632E+02  0.90964832189E+02 0.  0.
        -11    1    3    3    0    0  0.26570749254E+01  0.24956017586E+02 -0.14945148585E+03  0.15154408429E+03  0.00000000000E+00 0.  1.
         12    1    3    3    0    0 -0.12284757296E+02 -0.29021504267E+02 -0.23003597061E+02  0.39017027686E+02  0.00000000000E+00 0. -1.
        -13    1    4    4    0    0 -0.49085829124E+02  0.24913798317E+02  0.12580224334E+02  0.56465724220E+02  0.00000000000E+00 0. -1.
         13    1    4    4    0    0  0.21917979113E+02 -0.21150125520E+02 -0.24896424742E+02  0.39339008412E+02  0.00000000000E+00 0.  1.
          1    1    1    2  501    0  0.36795532381E+02  0.30181388369E+00 -0.66230286414E+02  0.75765778115E+02  0.00000000000E+00 0. -1.
<scales pt_clust_5="13000.00000" pt_clust_6="13000.00000" pt_clust_7="13000.00000" pt_clust_8="13000.00000" pt_clust_9="36.79679"></scales>
<clustering>
<clus scale="   36.797">  1  9  2 -1</clus>
<clus scale="   80.396">  5  6 -1 -1</clus>
<clus scale="   80.555">  2  5  1 -1</clus>
<clus scale="   90.965">  7  8 -1 -1</clus>
<clus scale="   36.797">  1  5  2 -1</clus>
</clustering>
</event>
<event>
 9    2  0.6469128E-005  0.1630748E+03  0.7546771E-02  0.1211695E+00
          2   -1    0    0  502    0 -0.00000000000E+00  0.00000000000E+00  0.19455672255E+03  0.19455672255E+03  0.00000000000E+00 0. -1.
         21   -1    0    0  501  502  0.00000000000E+00 -0.00000000000E+00 -0.25162683845E+03  0.25162683845E+03  0.00000000000E+00 0. -1.
         23    2    1    2    0    0  0.33687157761E+01 -0.18960099846E+02  0.69464539935E+02  0.11505176892E+03  0.89670249202E+02 0.  0.
         24    2    1    2    0    0  0.13227550036E+03  0.57047264839E+02 -0.75949820363E+02  0.18143606372E+03  0.79996697329E+02 0.  0.
        -13    1    4    4    0    0  0.66407415681E+02  0.12606297177E+02  0.52879440114E+01  0.67799896296E+02  0.00000000000E+00 0.  1.
         14    1    4    4    0    0  0.65868084683E+02  0.44440967662E+02 -0.81237764375E+02  0.11363616743E+03  0.00000000000E+00 0. -1.
        -11    1    3    3    0    0  0.22572962632E+02 -0.47133668688E+02  0.22218056709E+02  0.56787000360E+02  0.00000000000E+00 0. -1.
         11    1    3    3    0    0 -0.19204246856E+02  0.28173568842E+02  0.47246483225E+02  0.58264768564E+02  0.00000000000E+00 0.  1.
          1    1    1    2  501    0 -0.13564421614E+03 -0.38087164993E+02 -0.50584835466E+02  0.14969572836E+03  0.00000000000E+00 0. -1.
<scales pt_clust_5="13000.00000" pt_clust_6="13000.00000" pt_clust_7="13000.00000" pt_clust_8="13000.00000" pt_clust_9="142.10543"></scales>
<clustering>
<clus scale="   79.997">  5  6 -1 -1</clus>
<clus scale="   89.670">  7  8 -1 -1</clus>
<clus scale="   91.715">  1  7  2 -1</clus>
<clus scale="  142.105">  2  9  1 -1</clus>
<clus scale="  142.105">  2  5  1 -1</clus>
</clustering>
</event>
<event>
 9    2  0.6469128E-005  0.1093581E+03  0.7546771E-02  0.1265996E+00
          2   -1    0    0  502    0 -0.00000000000E+00  0.00000000000E+00  0.31612509470E+03  0.31612509470E+03  0.00000000000E+00 0. -1.
         21   -1    0    0  501  502  0.00000000000E+00 -0.00000000000E+00 -0.62316785576E+02  0.62316785576E+02  0.00000000000E+00 0.  1.
         23    2    1    2    0    0  0.44799054675E+02 -0.48101163604E+02  0.15529690837E+03  0.19147762484E+03  0.90696603168E+02 0.  0.
         24    2    1    2    0    0 -0.54363800711E+02  0.15660238001E+02  0.18001722369E+02  0.99638965085E+02  0.80019969214E+02 0.  0.
        -11    1    4    4    0    0 -0.49793404316E+01 -0.28271606432E+02 -0.59849693438E+01  0.29324007560E+02  0.00000000000E+00 0.  1.
         12    1    4    4    0    0 -0.49384460279E+02  0.43931844433E+02  0.23986691713E+02  0.70314957524E+02  0.00000000000E+00 0. -1.
        -11    1    3    3    0    0  0.39453612363E+02  0.13473880228E+02  0.28747191538E+02  0.50641228245E+02  0.00000000000E+00 0.  1.
         11    1    3    3    0    0  0.53454423126E+01 -0.61575043832E+02  0.12654971683E+03  0.14083639660E+03  0.00000000000E+00 0. -1.
          1    1    1    2  501    0  0.95647460359E+01  0.32440925604E+02  0.80509678385E+02  0.87325290349E+02  0.00000000000E+00 0. -1.
<scales pt_clust_5="13000.00000" pt_clust_6="13000.00000" pt_clust_7="13000.00000" pt_clust_8="13000.00000" pt_clust_9="33.82158"></scales>
<clustering>
<clus scale="   33.822">  2  9  1 -1</clus>
<clus scale="   80.020">  5  6 -1 -1</clus>
<clus scale="   90.697">  7  8 -1 -1</clus>
<clus scale="  100.680">  2  5  1 -1</clus>
<clus scale="   33.822">  2  5  1 -1</clus>
</clustering>
</event>
<event>
 9    2  0.6469128E-005  0.9687827E+02  0.7546771E-02  0.1292812E+00
          2   -1    0    0  502    0 -0.00000000000E+00  0.00000000000E+00  0.29003812799E+03  0.29003812799E+03  0.00000000000E+00 0. -1.
         21   -1    0    0  501  502  0.00000000000E+00 -0.00000000000E+00 -0.79992596718E+02  0.79992596718E+02  0.00000000000E+00 0. -1.
         23    2    1    2    0    0 -0.18922587511E+02 -0.31904942678E+02  0.17732306180E+03  0.20276899652E+03  0.91081326380E+02 0.  0.
         24    2    1    2    0    0  0.43791390524E+02 -0.76622567832E+01  0.63179774467E+02  0.11147940066E+03  0.80371492501E+02 0.  0.
        -11    1    4    4    0    0  0.25355699675E+02 -0.33380695503E+02  0.67586396238E+02  0.79530518009E+02  0.00000000000E+00 0.  1.
         12    1    4    4    0    0  0.18435690849E+02  0.25718438720E+02 -0.44066217706E+01  0.31948882652E+02  0.00000000000E+00 0. -1.
        -13    1    3    3    0    0 -0.35516837842E+02 -0.52170194403E+02  0.79531445752E+02  0.10153041819E+03  0.00000000000E+00 0.  1.
         13    1    3    3    0    0  0.16594250332E+02  0.20265251725E+02  0.97791616051E+02  0.10123857833E+03  0.00000000000E+00 0. -1.
          1    1    1    2  501    0 -0.24868803013E+02  0.39567199461E+02 -0.30457305002E+02  0.55782327529E+02  0.00000000000E+00 0. -1.
<scales pt_clust_5="13000.00000" pt_clust_6="13000.00000" pt_clust_7="13000.00000" pt_clust_8="13000.00000" pt_clust_9="46.73351"></scales>
<clustering>
<clus scale="   46.734">  2  9  1 -1</clus>
<clus scale="   80.371">  5  6 -1 -1</clus>
<clus scale="   86.886">  2  5  1 -1</clus>
<clus scale="   91.081">  7  8 -1 -1</clus>
<clus scale="   46.734">  2  5  1 -1</clus>
</clustering>
</event>
<event>
 9    2  0.6469128E-005  0.4085533E+03  0.7546771E-02  0.1060718E+00
         21   -1    0    0  501  502  0.00000000000E+00  0.00000000000E+00  0.62779753352E+03  0.62779753352E+03  0.00000000000E+00 0. -1.
          4   -1    0    0  502    0 -0.00000000000E+00 -0.00000000000E+00 -0.69424392387E+03  0.69424392387E+03  0.00000000000E+00 0. -1.
         24    2    1    2    0    0  0.18039066581E+03  0.12071116880E+03  0.22978217478E+02  0.23314500541E+03  0.81954966193E+02 0.  0.
         23    2    1    2    0    0 -0.40307569108E+02  0.37635014063E+03  0.25722813733E+03  0.46691466363E+03  0.92622135553E+02 0.  0.
        -13    1    3    3    0    0  0.39471533128E+01  0.29856913453E+02 -0.10470528287E+02  0.31884906505E+02  0.00000000000E+00 0.  1.
         14    1    3    3    0    0  0.17644351250E+03  0.90854255349E+02  0.33448745765E+02  0.20126009890E+03  0.00000000000E+00 0. -1.
        -11    1    4    4    0    0 -0.18034518900E+02  0.36125914979E+03  0.23002638816E+03  0.42865552187E+03  0.00000000000E+00 0. -1.
         11    1    4    4    0    0 -0.22273050208E+02  0.15090990843E+02  0.27201749170E+02  0.38259141759E+02  0.00000000000E+00 0.  1.
          3    1    1    2  501    0 -0.14008309670E+03 -0.49706130943E+03 -0.34665274516E+03  0.62198178835E+03  0.00000000000E+00 0. -1.
<scales pt_clust_5="13000.00000" pt_clust_6="13000.00000" pt_clust_7="13000.00000" pt_clust_8="13000.00000" pt_clust_9="397.91596"></scales>
<clustering>
<clus scale="   81.955">  5  6 -1 -1</clus>
<clus scale="   92.622">  7  8 -1 -1</clus>
<clus scale="  232.010">  2  5  1 -1</clus>
<clus scale="  397.916">  1  9  2 -1</clus>
<clus scale="  397.916">  1  5  2 -1</clus>
</clustering>
</event>
<event>
 9    2  0.6469128E-005  0.1599347E+03  0.7546771E-02  0.1190278E+00
         21   -1    0    0  501  502  0.00000000000E+00  0.00000000000E+00  0.13941855969E+03  0.13941855969E+03  0.00000000000E+00 0.  1.
          2   -1    0    0  502    0 -0.00000000000E+00 -0.00000000000E+00 -0.26521716443E+03  0.26521716443E+03  0.00000000000E+00 0. -1.
         24    2    1    2    0    0 -0.13722718209E+03  0.40720329386E+02 -0.58049708242E+02  0.17494427925E+03  0.82135786874E+02 0.  0.
         23    2    1    2    0    0  0.11620361725E+03 -0.10599025120E+02  0.47263658495E+01  0.14843907936E+03  0.91630790419E+02 0.  0.
        -11    1    3    3    0    0 -0.10268752707E+03  0.13342508742E+01 -0.65830093750E+02  0.12198405504E+03  0.00000000000E+00 0.  1.
         12    1    3    3    0    0 -0.34539655016E+02  0.39386078512E+02  0.77803855081E+01  0.52960224205E+02  0.00000000000E+00 0. -1.
        -13    1    4    4    0    0  0.38331793510E+02 -0.20305695922E+02  0.43043421301E+02  0.61109604792E+02  0.00000000000E+00 0.  1.
         13    1    4    4    0    0  0.77871823736E+02  0.97066708027E+01 -0.38317055451E+02  0.87329474569E+02  0.00000000000E+00 0. -1.
          1    1    1    2  501    0  0.21023564840E+02 -0.30121304267E+02 -0.72475262342E+02  0.81252365510E+02  0.00000000000E+00 0. -1.
<scales pt_clust_5="13000.00000" pt_clust_6="13000.00000" pt_clust_7="13000.00000" pt_clust_8="13000.00000" pt_clust_9="36.73261"></scales>
<clustering>
<clus scale="   36.733">  1  9  2 -1</clus>
<clus scale="   82.136">  5  6 -1 -1</clus>
<clus scale="   91.631">  7  8 -1 -1</clus>
<clus scale="  154.691">  2  5  1 -1</clus>
<clus scale="   36.733">  1  5  2 -1</clus>
</clustering>
</event>
<event>
 9    2  0.6469128E-005  0.1017717E+03  0.7546771E-02  0.1281802E+00
          2   -1    0    0  502    0 -0.00000000000E+00  0.00000000000E+00  0.85371372660E+03  0.85371372660E+03  0.00000000000E+00 0. -1.
         21   -1    0    0  501  502  0.00000000000E+00 -0.00000000000E+00 -0.50034800694E+02  0.50034800694E+02  0.00000000000E+00 0.  1.
         24    2    1    2    0    0  0.27499337660E+02  0.37528119139E+02  0.66281689394E+03  0.66927701361E+03  0.80255297354E+02 0.  0.
         23    2    1    2    0    0 -0.62304978284E+02  0.32515346462E+01  0.14317773465E+03  0.18080797615E+03  0.91099822955E+02 0.  0.
        -11    1    3    3    0    0  0.33142145305E+02  0.16240658531E+02  0.11009623912E+03  0.11611779645E+03  0.00000000000E+00 0.  1.
         12    1    3    3    0    0 -0.56428076451E+01  0.21287460608E+02  0.55272065483E+03  0.55315921716E+03  0.00000000000E+00 0. -1.
        -11    1    4    4    0    0 -0.22302499044E+02  0.35779838291E+02  0.11404299348E+03  0.12158701680E+03  0.00000000000E+00 0. -1.
         11    1    4    4    0    0 -0.40002479240E+02 -0.32528303645E+02  0.29134741171E+02  0.59220959351E+02  0.00000000000E+00 0.  1.
          1    1    1    2  501    0  0.34805640624E+02 -0.40779653785E+02 -0.23157026866E+01  0.53663537537E+02  0.00000000000E+00 0. -1.
<scales pt_clust_5="13000.00000" pt_clust_6="13000.00000" pt_clust_7="13000.00000" pt_clust_8="13000.00000" pt_clust_9="53.61355"></scales>
<clustering>
<clus scale="   53.614">  2  9  1 -1</clus>
<clus scale="   80.255">  5  6 -1 -1</clus>
<clus scale="   91.100">  7  8 -1 -1</clus>
<clus scale="   92.191">  1  5  2 -1</clus>
<clus scale="   53.614">  2  5  1 -1</clus>
</clustering>
</event>
<event>
 9    2  0.6469128E-005  0.2124242E+03  0.7546771E-02  0.1159198E+00
          4   -1    0    0  502    0 -0.00000000000E+00  0.00000000000E+00  0.14241879004E+03  0.14241879004E+03  0.00000000000E+00 0. -1.
         21   -1    0    0  501  502  0.00000000000E+00 -0.00000000000E+00 -0.65787180043E+03  0.65787180043E+03  0.00000000000E+00 0. -1.
         23    2    1    2    0    0  0.10199438662E+02 -0.97969961667E+02 -0.14124187164E+02  0.13438383135E+03  0.90318212594E+02 0.  0.
         24    2    1    2    0    0 -0.20056976476E+03  0.92952689347E+02 -0.19931959078E+03  0.30886949137E+03  0.82484122347E+02 0.  0.
        -13    1    4    4    0    0 -0.99128846914E+02  0.12570357675E+02 -0.12352918197E+03  0.15888360829E+03  0.00000000000E+00 0.  1.
         14    1    4    4    0    0 -0.10144091785E+03  0.80382331672E+02 -0.75790408806E+02  0.14998588309E+03  0.00000000000E+00 0. -1.
        -11    1    3    3    0    0  0.33424432403E+02 -0.99698256308E+02 -0.25888476631E+02  0.10829195822E+03  0.00000000000E+00 0. -1.
         11    1    3    3    0    0 -0.23224993741E+02  0.17282946414E+01  0.11764289467E+02  0.26091873128E+02  0.00000000000E+00 0.  1.
          3    1    1    2  501    0  0.19037032610E+03  0.50172723193E+01 -0.30200923245E+03  0.35703726775E+03  0.00000000000E+00 0. -1.
<scales pt_clust_5="13000.00000" pt_clust_6="13000.00000" pt_clust_7="13000.00000" pt_clust_8="13000.00000" pt_clust_9="195.75601"></scales>
<clustering>
<clus scale="   82.484">  5  6 -1 -1</clus>
<clus scale="   90.318">  7  8 -1 -1</clus>
<clus scale="  133.640">  1  7  2 -1</clus>
<clus scale="  195.756">  2  9  1 -1</clus>
<clus scale="  195.756">  2  5  1 -1</clus>
</clustering>
</event>
<event>
 9    2  0.6469128E-005  0.1511489E+03  0.7546771E-02  0.1218448E+00
         21   -1    0    0  501  502  0.00000000000E+00  0.00000000000E+00  0.60195120553E+02  0.60195120553E+02  0.00000000000E+00 0.  1.
          4   -1    0    0  502    0 -0.00000000000E+00 -0.00000000000E+00 -0.67296718895E+03  0.67296718895E+03  0.00000000000E+00 0. -1.
         24    2    1    2    0    0  0.41403252086E+02 -0.37541101370E+02 -0.12703183541E+03  0.16156898906E+03  0.82727791233E+02 0.  0.
         23    2    1    2    0    0 -0.88535345342E+02 -0.78509828686E+02 -0.14995830741E+03  0.21320979108E+03  0.94702800766E+02 0.  0.
        -11    1    3    3    0    0 -0.63141690384E+01 -0.32955746912E+02 -0.98654337055E+01  0.34975373727E+02  0.00000000000E+00 0.  1.
         12    1    3    3    0    0  0.47717421124E+02 -0.45853544583E+01 -0.11716640170E+03  0.12659361533E+03  0.00000000000E+00 0. -1.
        -11    1    4    4    0    0 -0.10792013770E+03 -0.60484305725E+02 -0.11165090128E+03  0.16664642546E+03  0.00000000000E+00 0. -1.
         11    1    4    4    0    0  0.19384792363E+02 -0.18025522961E+02 -0.38307406135E+02  0.46563365619E+02  0.00000000000E+00 0.  1.
          3    1    1    2  501    0  0.47132093256E+02  0.11605093006E+03 -0.33578192557E+03  0.35838352937E+03  0.00000000000E+00 0. -1.
<scales pt_clust_5="13000.00000" pt_clust_6="13000.00000" pt_clust_7="13000.00000" pt_clust_8="13000.00000" pt_clust_9="117.80228"></scales>
<clustering>
<clus scale="   82.728">  5  6 -1 -1</clus>
<clus scale="   94.703">  7  8 -1 -1</clus>
<clus scale="   99.837">  2  5  1 -1</clus>
<clus scale="  117.802">  1  9  2 -1</clus>
<clus scale="  117.802">  1  5  2 -1</clus>
</clustering>
</event>
<event>
 9    2  0.6469128E-005  0.9601466E+02  0.7546771E-02  0.1292296E+00
         -1   -1    0    0    0  501 -0.00000000000E+00  0.00000000000E+00  0.64200595531E+03  0.64200595531E+03  0.00000000000E+00 0.  1.
         21   -1    0    0  501  502  0.00000000000E+00 -0.00000000000E+00 -0.24483274985E+02  0.24483274985E+02  0.00000000000E+00 0.  1.
         23    2    1    2    0    0 -0.24139523973E+02  0.12276957405E+02  0.36937661083E+03  0.38141383169E+03  0.91126231556E+02 0.  0.
         24    2    1    2    0    0  0.42657491228E+02  0.45972199688E+00  0.11102310037E+03  0.14612272042E+03  0.84887264674E+02 0.  0.
        -13    1    4    4    0    0  0.45010553599E+02  0.35947911675E+02  0.54243616115E+02  0.79123777578E+02  0.00000000000E+00 0.  1.
         14    1    4    4    0    0 -0.23530623712E+01 -0.35488189678E+02  0.56779484255E+02  0.66998942837E+02  0.00000000000E+00 0. -1.
        -13    1    3    3    0    0 -0.23621212725E+02  0.50356082022E+02  0.18666198111E+03  0.19477266717E+03  0.00000000000E+00 0.  1.
         13    1    3    3    0    0 -0.51831124833E+00 -0.38079124617E+02  0.18271462972E+03  0.18664116452E+03  0.00000000000E+00 0. -1.
         -2    1    1    2    0  502 -0.18517967255E+02 -0.12736679402E+02  0.13712296913E+03  0.13895267819E+03  0.00000000000E+00 0.  1.
<scales pt_clust_5="13000.00000" pt_clust_6="13000.00000" pt_clust_7="13000.00000" pt_clust_8="13000.00000" pt_clust_9="22.47529"></scales>
<clustering>
<clus scale="   22.475">  2  9  1 -1</clus>
<clus scale="   84.887">  5  6 -1 -1</clus>
<clus scale="   90.115">  2  5  1 -1</clus>
<clus scale="   91.126">  7  8 -1 -1</clus>
<clus scale="   22.475">  2  5  1 -1</clus>
</clustering>
</event>
<event>
 9    2  0.6469128E-005  0.8307477E+02  0.7546771E-02  0.1321468E+00
         21   -1    0    0  501  502  0.00000000000E+00  0.00000000000E+00  0.17082454164E+03  0.17082454164E+03  0.00000000000E+00 0.  1.
          2   -1    0    0  502    0 -0.00000000000E+00 -0.00000000000E+00 -0.34202294145E+03  0.34202294145E+03  0.00000000000E+00 0. -1.
         24    2    1    2    0    0 -0.17540422410E+02  0.18028049678E+02 -0.32054115820E+03  0.33118081379E+03  0.79381486059E+02 0.  0.
         23    2    1    2    0    0  0.18088310665E+02  0.45504384825E+01  0.10724138599E+03  0.13388996089E+03  0.77960972830E+02 0.  0.
        -13    1    3    3    0    0  0.17425888608E+02 -0.16891502838E+02 -0.43909720249E+02  0.50170190295E+02  0.00000000000E+00 0.  1.
         14    1    3    3    0    0 -0.34966311018E+02  0.34919552516E+02 -0.27663143795E+03  0.28101062349E+03  0.00000000000E+00 0. -1.
        -13    1    4    4    0    0  0.11946691355E+02  0.32245873009E+02  0.98307263444E+02  0.10414815316E+03  0.00000000000E+00 0.  1.
         13    1    4    4    0    0  0.61416193101E+01 -0.27695434526E+02  0.89341225441E+01  0.29741807729E+02  0.00000000000E+00 0. -1.
          1    1    1    2  501    0 -0.54788825498E+00 -0.22578488160E+02  0.42101372403E+02  0.47776708419E+02  0.00000000000E+00 0. -1.
<scales pt_clust_5="13000.00000" pt_clust_6="13000.00000" pt_clust_7="13000.00000" pt_clust_8="13000.00000" pt_clust_9="22.58513"></scales>
<clustering>
<clus scale="   22.585">  1  9  2 -1</clus>
<clus scale="   77.961">  7  8 -1 -1</clus>
<clus scale="   79.381">  5  6 -1 -1</clus>
<clus scale="   81.718">  1  7  2 -1</clus>
<clus scale="   22.585">  1  5  2 -1</clus>
</clustering>
</event>
<event>
 9    2  0.6469128E-005  0.9317677E+02  0.7546771E-02  0.1301111E+00
          4   -1    0    0  502    0 -0.00000000000E+00  0.00000000000E+00  0.37610804903E+02  0.37610804903E+02  0.00000000000E+00 0. -1.
         21   -1    0    0  501  502  0.00000000000E+00 -0.00000000000E+00 -0.47863303964E+03  0.47863303964E+03  0.00000000000E+00 0. -1.
         23    2    1    2    0    0  0.27311927544E+02  0.66155110043E+01 -0.83429996486E+02  0.12638432672E+03  0.90679255365E+02 0.  0.
         24    2    1    2    0    0  0.15524657405E+02 -0.37249737594E+02 -0.14548593392E+03  0.17131315390E+03  0.80953578008E+02 0.  0.
        -13    1    4    4    0    0 -0.18991555178E+02 -0.44178196422E+02 -0.11534803734E+03  0.12497024416E+03  0.00000000000E+00 0.  1.
         14    1    4    4    0    0  0.34516212582E+02  0.69284588277E+01 -0.30137896573E+02  0.46342909734E+02  0.00000000000E+00 0. -1.
        -13    1    3    3    0    0  0.94026237316E+01  0.22183898334E+02 -0.96383159442E+02  0.99349122303E+02  0.00000000000E+00 0. -1.
         13    1    3    3    0    0  0.17909303812E+02 -0.15568387330E+02  0.12953162956E+02  0.27035204413E+02  0.00000000000E+00 0.  1.
          3    1    1    2  501    0 -0.42836584948E+02  0.30634226589E+02 -0.21210630433E+03  0.21854636393E+03  0.00000000000E+00 0. -1.
<scales pt_clust_5="13000.00000" pt_clust_6="13000.00000" pt_clust_7="13000.00000" pt_clust_8="13000.00000" pt_clust_9="52.66335"></scales>
<clustering>
<clus scale="   52.663">  2  9  1 -1</clus>
<clus scale="   80.954">  5  6 -1 -1</clus>
<clus scale="   83.742">  2  5  1 -1</clus>
<clus scale="   90.679">  7  8 -1 -1</clus>
<clus scale="   52.663">  2  5  1 -1</clus>
</clustering>
</event>
<event>
 9    2  0.6469128E-005  0.9426310E+02  0.7546771E-02  0.1300037E+00
          2   -1    0    0  502    0 -0.00000000000E+00  0.00000000000E+00  0.70942050799E+03  0.70942050799E+03  0.00000000000E+00 0. -1.
         21   -1    0    0  501  502  0.00000000000E+00 -0.00000000000E+00 -0.35096289352E+02  0.35096289352E+02  0.00000000000E+00 0. -1.
         24    2    1    2    0    0 -0.11381559032E+02  0.28009216256E+02  0.42418322351E+03  0.43253361625E+03  0.78992822439E+02 0.  0.
         23    2    1    2    0    0  0.18118471405E+02 -0.32077979229E+01  0.26598516960E+03  0.28179155635E+03  0.91212947605E+02 0.  0.
        -11    1    3    3    0    0  0.21247072452E+02  0.12272017375E+02  0.42034549518E+02  0.48671797290E+02  0.00000000000E+00 0.  1.
         12    1    3    3    0    0 -0.32628631483E+02  0.15737198881E+02  0.38214867399E+03  0.38386181896E+03  0.00000000000E+00 0. -1.
        -13    1    4    4    0    0  0.54590829710E+02  0.25878699443E+01  0.13344794472E+03  0.14420544272E+03  0.00000000000E+00 0.  1.
         13    1    4    4    0    0 -0.36472358305E+02 -0.57956678672E+01  0.13253722488E+03  0.13758611363E+03  0.00000000000E+00 0. -1.
          1    1    1    2  501    0 -0.67369123731E+01 -0.24801418333E+02 -0.15844174473E+02  0.30191624739E+02  0.00000000000E+00 0. -1.
<scales pt_clust_5="13000.00000" pt_clust_6="13000.00000" pt_clust_7="13000.00000" pt_clust_8="13000.00000" pt_clust_9="25.70012"></scales>
<clustering>
<clus scale="   25.700">  2  9  1 -1</clus>
<clus scale="   78.993">  5  6 -1 -1</clus>
<clus scale="   82.496">  1  5  2 -1</clus>
<clus scale="   91.213">  7  8 -1 -1</clus>
<clus scale="   25.700">  2  5  1 -1</clus>
</clustering>
</event>
<event>
 9    2  0.6469128E-005  0.9664488E+02  0.7546771E-02  0.1292587E+00
         -1   -1    0    0    0  501 -0.00000000000E+00  0.00000000000E+00  0.64891272925E+02  0.64891272925E+02  0.00000000000E+00 0.  1.
         21   -1    0    0  501  502  0.00000000000E+00 -0.00000000000E+00 -0.20166317373E+03  0.20166317373E+03  0.00000000000E+00 0.  1.
         24    2    1    2    0    0  0.43259400243E+02  0.10910285755E+02 -0.15061376528E+02  0.93324364084E+02  0.80574076626E+02 0.  0.
         23    2    1    2    0    0 -0.12637694484E+02 -0.78329614536E+01 -0.10103753684E+03  0.13615541200E+03  0.90048019184E+02 0.  0.
        -11    1    3    3    0    0  0.34159405107E+02  0.43944663164E+02  0.56967942800E+00  0.55662580900E+02  0.00000000000E+00 0.  1.
         12    1    3    3    0    0  0.90999951367E+01 -0.33034377409E+02 -0.15631055956E+02  0.37661783184E+02  0.00000000000E+00 0. -1.
        -11    1    4    4    0    0 -0.39995339206E+02 -0.33268696099E+02 -0.72068378655E+02  0.88883544598E+02  0.00000000000E+00 0.  1.
         11    1    4    4    0    0  0.27357644722E+02  0.25435734645E+02 -0.28969158189E+02  0.47271867404E+02  0.00000000000E+00 0. -1.
         -2    1    1    2    0  502 -0.30621705759E+02 -0.30773243019E+01 -0.20672987432E+02  0.37074670569E+02  0.00000000000E+00 0.  1.
<scales pt_clust_5="13000.00000" pt_clust_6="13000.00000" pt_clust_7="13000.00000" pt_clust_8="13000.00000" pt_clust_9="30.77594"></scales>
<clustering>
<clus scale="   30.776">  2  9  1 -1</clus>
<clus scale="   80.574">  5  6 -1 -1</clus>
<clus scale="   87.885">  1  5  2 -1</clus>
<clus scale="   90.048">  7  8 -1 -1</clus>
<clus scale="   30.776">  2  5  1 -1</clus>
</clustering>
</event>
<event>
 9    2  0.6469128E-005  0.9233152E+02  0.7546771E-02  0.1302757E+00
          2   -1    0    0  502    0 -0.00000000000E+00  0.00000000000E+00  0.23803682525E+03  0.23803682525E+03  0.00000000000E+00 0. -1.
         21   -1    0    0  501  502  0.00000000000E+00 -0.00000000000E+00 -0.53260620855E+02  0.53260620855E+02  0.00000000000E+00 0.  1.
         23    2    1    2    0    0 -0.10838751067E+02  0.18972730283E+02  0.98505871402E+02  0.13492950000E+03  0.89583035499E+02 0.  0.
         24    2    1    2    0    0 -0.27957567906E+02 -0.23500547875E+02  0.74515676671E+02  0.11557790513E+03  0.80447279201E+02 0.  0.
        -13    1    4    4    0    0  0.12754326819E+02 -0.40654042407E+02  0.47430503431E+02  0.63757953796E+02  0.00000000000E+00 0.  1.
         14    1    4    4    0    0 -0.40711894725E+02  0.17153494532E+02  0.27085173241E+02  0.51819951333E+02  0.00000000000E+00 0. -1.
        -13    1    3    3    0    0 -0.29195243730E+02 -0.18110510155E+02  0.77985820969E+01  0.35230252870E+02  0.00000000000E+00 0.  1.
         13    1    3    3    0    0  0.18356492664E+02  0.37083240438E+02  0.90707289305E+02  0.99699247125E+02  0.00000000000E+00 0. -1.
          1    1    1    2  501    0  0.38796318972E+02  0.45278175920E+01  0.11754656323E+02  0.40790040981E+02  0.00000000000E+00 0. -1.
<scales pt_clust_5="13000.00000" pt_clust_6="13000.00000" pt_clust_7="13000.00000" pt_clust_8="13000.00000" pt_clust_9="39.05964"></scales>
<clustering>
<clus scale="   39.060">  2  9  1 -1</clus>
<clus scale="   80.447">  5  6 -1 -1</clus>
<clus scale="   83.497">  2  5  1 -1</clus>
<clus scale="   89.583">  7  8 -1 -1</clus>
<clus scale="   39.060">  2  5  1 -1</clus>
</clustering>
</event>
<event>
 9    2  0.6469128E-005  0.9712925E+02  0.7546771E-02  0.1292914E+00
          2   -1    0    0  502    0 -0.00000000000E+00  0.00000000000E+00  0.58196329555E+03  0.58196329555E+03  0.00000000000E+00 0. -1.
         21   -1    0    0  501  502  0.00000000000E+00 -0.00000000000E+00 -0.26457242570E+02  0.26457242570E+02  0.00000000000E+00 0.  1.
         24    2    1    2    0    0 -0.12649965582E+01  0.28827311401E+02  0.33506385822E+03  0.34532276463E+03  0.78405411695E+02 0.  0.
         23    2    1    2    0    0 -0.99976918739E+01 -0.50832247283E+02  0.21325095307E+03  0.23735327290E+03  0.90425305987E+02 0.  0.
        -11    1    3    3    0    0 -0.65767295844E+01 -0.18896215836E+02  0.27362975852E+02  0.33897681225E+02  0.00000000000E+00 0.  1.
         12    1    3    3    0    0  0.53117330262E+01  0.47723527237E+02  0.30770088237E+03  0.31142508340E+03  0.00000000000E+00 0. -1.
        -13    1    4    4    0    0  0.30601942289E+02 -0.22044131031E+02  0.32215602605E+02  0.49601085028E+02  0.00000000000E+00 0.  1.
         13    1    4    4    0    0 -0.40599634163E+02 -0.28788116252E+02  0.18103535047E+03  0.18775218787E+03  0.00000000000E+00 0. -1.
          1    1    1    2  501    0  0.11262688432E+02  0.22004935882E+02  0.71912416834E+01  0.25744500594E+02  0.00000000000E+00 0. -1.
<scales pt_clust_5="13000.00000" pt_clust_6="13000.00000" pt_clust_7="13000.00000" pt_clust_8="13000.00000" pt_clust_9="24.71974"></scales>
<clustering>
<clus scale="   24.720">  2  9  1 -1</clus>
<clus scale="   78.405">  5  6 -1 -1</clus>
<clus scale="   86.051">  1  5  2 -1</clus>
<clus scale="   90.425">  7  8 -1 -1</clus>
<clus scale="   24.720">  2  5  1 -1</clus>
</clustering>
</event>
<event>
 9    2  0.6469128E-005  0.1012111E+03  0.7546771E-02  0.1289354E+00
         21   -1    0    0  501  502  0.00000000000E+00  0.00000000000E+00  0.34841921204E+03  0.34841921204E+03  0.00000000000E+00 0.  1.
          2   -1    0    0  502    0 -0.00000000000E+00 -0.00000000000E+00 -0.60584343972E+02  0.60584343972E+02  0.00000000000E+00 0. -1.
         24    2    1    2    0    0  0.24419240455E+02  0.23680579248E+02  0.19909351377E+02  0.81131621261E+02  0.70914656864E+02 0.  0.
         23    2    1    2    0    0 -0.67932368228E+02 -0.28810926272E+02  0.25638182645E+03  0.28256222791E+03  0.93085420899E+02 0.  0.
        -11    1    3    3    0    0 -0.17154538869E+02  0.31338050182E+02  0.14326043221E+02  0.38491390043E+02  0.00000000000E+00 0.  1.
         12    1    3    3    0    0  0.41573779324E+02 -0.76574709340E+01  0.55833081556E+01  0.42640231218E+02  0.00000000000E+00 0. -1.
        -13    1    4    4    0    0 -0.18129074161E+02 -0.53145973334E+02  0.17736490881E+03  0.18604157785E+03  0.00000000000E+00 0.  1.
         13    1    4    4    0    0 -0.49803294068E+02  0.24335047062E+02  0.79016917640E+02  0.96520650064E+02  0.00000000000E+00 0. -1.
          1    1    1    2  501    0  0.43513127773E+02  0.51303470234E+01  0.11543690238E+02  0.45309706835E+02  0.00000000000E+00 0. -1.
<scales pt_clust_5="13000.00000" pt_clust_6="13000.00000" pt_clust_7="13000.00000" pt_clust_8="13000.00000" pt_clust_9="43.81455"></scales>
<clustering>
<clus scale="   43.815">  1  9  2 -1</clus>
<clus scale="   70.915">  5  6 -1 -1</clus>
<clus scale="   81.288">  2  5  1 -1</clus>
<clus scale="   93.085">  7  8 -1 -1</clus>
<clus scale="   43.815">  1  5  2 -1</clus>
</clustering>
</event>
<event>
 9    2  0.6469128E-005  0.1128236E+03  0.7546771E-02  0.1258807E+00
          2   -1    0    0  502    0 -0.00000000000E+00  0.00000000000E+00  0.70935086432E+03  0.70935086432E+03  0.00000000000E+00 0. -1.
         21   -1    0    0  501  502  0.00000000000E+00 -0.00000000000E+00 -0.31616238319E+02  0.31616238319E+02  0.00000000000E+00 0.  1.
         23    2    1    2    0    0  0.44079042826E+02  0.48295149620E+02  0.39580565610E+03  0.41125433862E+03  0.90513148970E+02 0.  0.
         24    2    1    2    0    0 -0.54217762804E+01 -0.83898186390E+02  0.17352925144E+03  0.20924509431E+03  0.81257658403E+02 0.  0.
        -11    1    4    4    0    0 -0.42429615963E+02 -0.44821587746E+02  0.76539877514E+02  0.98323953789E+02  0.00000000000E+00 0.  1.
         12    1    4    4    0    0  0.37007839682E+02 -0.39076598644E+02  0.96989373923E+02  0.11092114052E+03  0.00000000000E+00 0. -1.
        -11    1    3    3    0    0 -0.27871775144E+02  0.17986515091E+02  0.13482846404E+03  0.13884907378E+03  0.00000000000E+00 0. -1.
         11    1    3    3    0    0  0.71950817970E+02  0.30308634529E+02  0.26097719206E+03  0.27240526484E+03  0.00000000000E+00 0.  1.
          1    1    1    2  501    0 -0.38657266545E+02  0.35603036770E+02  0.10839971847E+03  0.12046766972E+03  0.00000000000E+00 0. -1.
<scales pt_clust_5="13000.00000" pt_clust_6="13000.00000" pt_clust_7="13000.00000" pt_clust_8="13000.00000" pt_clust_9="52.55436"></scales>
<clustering>
<clus scale="   52.554">  2  9  1 -1</clus>
<clus scale="   81.258">  5  6 -1 -1</clus>
<clus scale="   90.513">  7  8 -1 -1</clus>
<clus scale="  105.543">  2  5  1 -1</clus>
<clus scale="   52.554">  2  5  1 -1</clus>
</clustering>
</event>
<event>
 9    2  0.6469128E-005  0.9496393E+02  0.7546771E-02  0.1297451E+00
          2   -1    0    0  502    0 -0.00000000000E+00  0.00000000000E+00  0.90372501458E+03  0.90372501458E+03  0.00000000000E+00 0. -1.
         21   -1    0    0  501  502  0.00000000000E+00 -0.00000000000E+00 -0.16717044596E+02  0.16717044596E+02  0.00000000000E+00 0. -1.
         24    2    1    2    0    0 -0.21494347472E+02 -0.66342797559E+01  0.39839334731E+03  0.40720649527E+03  0.81202524379E+02 0.  0.
         23    2    1    2    0    0  0.18361048904E+02 -0.45461466741E+02  0.34741315815E+03  0.36269773496E+03  0.91923182110E+02 0.  0.
        -11    1    3    3    0    0  0.20004687896E+02 -0.20420576043E+02  0.65674468759E+02  0.71626275280E+02  0.00000000000E+00 0.  1.
         12    1    3    3    0    0 -0.41499035368E+02  0.13786296287E+02  0.33271887855E+03  0.33558021999E+03  0.00000000000E+00 0. -1.
        -13    1    4    4    0    0  0.15158492680E+02  0.26478090180E+02  0.13519188253E+03  0.13859189825E+03  0.00000000000E+00 0.  1.
         13    1    4    4    0    0  0.32025562241E+01 -0.71939556921E+02  0.21222127563E+03  0.22410583670E+03  0.00000000000E+00 0. -1.
          1    1    1    2  501    0  0.31332985682E+01  0.52095746497E+02  0.14120146452E+03  0.15053782895E+03  0.00000000000E+00 0. -1.
<scales pt_clust_5="13000.00000" pt_clust_6="13000.00000" pt_clust_7="13000.00000" pt_clust_8="13000.00000" pt_clust_9="52.18989"></scales>
<clustering>
<clus scale="   52.190">  2  9  1 -1</clus>
<clus scale="   81.203">  5  6 -1 -1</clus>
<clus scale="   84.629">  1  5  2 -1</clus>
<clus scale="   91.923">  7  8 -1 -1</clus>
<clus scale="   52.190">  2  5  1 -1</clus>
</clustering>
</event>
<event>
 9    2  0.6469128E-005  0.3546191E+03  0.7546771E-02  0.1061247E+00
         21   -1    0    0  501  502  0.00000000000E+00  0.00000000000E+00  0.12022085117E+04  0.12022085117E+04  0.00000000000E+00 0. -1.
          2   -1    0    0  502    0 -0.00000000000E+00 -0.00000000000E+00 -0.15343043431E+03  0.15343043431E+03  0.00000000000E+00 0. -1.
         23    2    1    2    0    0 -0.21993733806E+03  0.23947530012E+03  0.43277025436E+03  0.54920968766E+03  0.92845764127E+02 0.  0.
         24    2    1    2    0    0  0.14113121628E+03 -0.34647341730E+03  0.50963129346E+03  0.63620890718E+03  0.71245134629E+02 0.  0.
        -13    1    4    4    0    0  0.33060890696E+02 -0.10668122233E+03  0.10301926751E+03  0.15194365788E+03  0.00000000000E+00 0.  1.
         14    1    4    4    0    0  0.10807032558E+03 -0.23979219496E+03  0.40661202595E+03  0.48426524931E+03  0.00000000000E+00 0. -1.
        -13    1    3    3    0    0 -0.43058220930E+02  0.56540445758E+02  0.40984321591E+02  0.82039911095E+02  0.00000000000E+00 0. -1.
         13    1    3    3    0    0 -0.17687911713E+03  0.18293485437E+03  0.39178593277E+03  0.46716977657E+03  0.00000000000E+00 0.  1.
          1    1    1    2  501    0  0.78806121782E+02  0.10699811717E+03  0.10637652957E+03  0.17022035117E+03  0.00000000000E+00 0. -1.
<scales pt_clust_5="13000.00000" pt_clust_6="13000.00000" pt_clust_7="13000.00000" pt_clust_8="13000.00000" pt_clust_9="132.88724"></scales>
<clustering>
<clus scale="   71.245">  5  6 -1 -1</clus>
<clus scale="   92.846">  7  8 -1 -1</clus>
<clus scale="  132.887">  1  9  2 -1</clus>
<clus scale="  349.586">  1  5  2 -1</clus>
<clus scale="  132.887">  1  5  2 -1</clus>
</clustering>
</event>
<event>
 9    2  0.6469128E-005  0.1649336E+03  0.7546771E-02  0.1188650E+00
         21   -1    0    0  501  502  0.00000000000E+00  0.00000000000E+00  0.48030960273E+03  0.48030960273E+03  0.00000000000E+00 0. -1.
          2   -1    0    0  502    0 -0.00000000000E+00 -0.00000000000E+00 -0.86855760955E+02  0.86855760955E+02  0.00000000000E+00 0. -1.
         24    2    1    2    0    0  0.81679680240E+02  0.11835628156E+03  0.62981803571E+02  0.17602617636E+03  0.79616126720E+02 0.  0.
         23    2    1    2    0    0 -0.41677654180E+02 -0.60956954509E+02  0.25955098747E+03  0.29151669854E+03  0.11028369448E+03 0.  0.
        -13    1    3    3    0    0  0.76420593804E+02  0.83936377357E+02  0.11803225792E+02  0.11412597750E+03  0.00000000000E+00 0.  1.
         14    1    3    3    0    0  0.52590864362E+01  0.34419904207E+02  0.51178577779E+02  0.61900198863E+02  0.00000000000E+00 0. -1.
        -11    1    4    4    0    0 -0.64603244216E+02 -0.11295581837E+02  0.78013795453E+02  0.10191821041E+03  0.00000000000E+00 0.  1.
         11    1    4    4    0    0  0.22925590036E+02 -0.49661372672E+02  0.18153719202E+03  0.18959848813E+03  0.00000000000E+00 0. -1.
          1    1    1    2  501    0 -0.40002026060E+02 -0.57399327055E+02  0.70921050738E+02  0.99622488792E+02  0.00000000000E+00 0. -1.
<scales pt_clust_5="13000.00000" pt_clust_6="13000.00000" pt_clust_7="13000.00000" pt_clust_8="13000.00000" pt_clust_9="69.96317"></scales>
<clustering>
<clus scale="   69.963">  1  9  2 -1</clus>
<clus scale="   79.616">  5  6 -1 -1</clus>
<clus scale="  110.284">  7  8 -1 -1</clus>
<clus scale="  146.217">  2  5  1 -1</clus>
<clus scale="   69.963">  1  5  2 -1</clus>
</clustering>
</event>
<event>
 9    2  0.6469128E-005  0.3241044E+03  0.7546771E-02  0.1115379E+00
          2   -1    0    0  502    0 -0.00000000000E+00  0.00000000000E+00  0.30661335059E+03  0.30661335059E+03  0.00000000000E+00 0. -1.
         21   -1    0    0  501  502  0.00000000000E+00 -0.00000000000E+00 -0.48358612437E+03  0.48358612437E+03  0.00000000000E+00 0. -1.
         24    2    1    2    0    0  0.52019647515E+02 -0.49300907623E+02 -0.86797491142E+02  0.13924131182E+03  0.81961669269E+02 0.  0.
         23    2    1    2    0    0 -0.12613482639E+03 -0.26738278649E+03  0.13269519021E+02  0.30966291141E+03  0.91167371502E+02 0.  0.
        -13    1    3    3    0    0  0.37429944616E+02 -0.58275541767E+02 -0.97086606718E+02  0.11925958547E+03  0.00000000000E+00 0.  1.
         14    1    3    3    0    0  0.14589702899E+02  0.89746341445E+01  0.10289115576E+02  0.19981726353E+02  0.00000000000E+00 0. -1.
        -11    1    4    4    0    0 -0.13455208465E+01 -0.40909118083E+02  0.29687569401E+02  0.50564000491E+02  0.00000000000E+00 0.  1.
         11    1    4    4    0    0 -0.12478930555E+03 -0.22647366841E+03 -0.16418050380E+02  0.25909891092E+03  0.00000000000E+00 0. -1.
          1    1    1    2  501    0  0.74115178877E+02  0.31668369411E+03 -0.10344480166E+03  0.34129525172E+03  0.00000000000E+00 0. -1.
<scales pt_clust_5="13000.00000" pt_clust_6="13000.00000" pt_clust_7="13000.00000" pt_clust_8="13000.00000" pt_clust_9="311.01793"></scales>
<clustering>
<clus scale="   81.962">  5  6 -1 -1</clus>
<clus scale="   91.167">  7  8 -1 -1</clus>
<clus scale="  108.878">  1  5  2 -1</clus>
<clus scale="  311.018">  2  9  1 -1</clus>
<clus scale="  311.018">  2  5  1 -1</clus>
</clustering>
</event>
<event>
 9    2  0.6469128E-005  0.1208426E+03  0.7546771E-02  0.1246383E+00
          2   -1    0    0  502    0 -0.00000000000E+00  0.00000000000E+00  0.48217443092E+03  0.48217443092E+03  0.00000000000E+00 0. -1.
         21   -1    0    0  501  502  0.00000000000E+00 -0.00000000000E+00 -0.58478555950E+02  0.58478555950E+02  0.00000000000E+00 0.  1.
         23    2    1    2    0    0  0.37264925839E+02  0.67861315359E+02  0.28576606283E+03  0.31138526171E+03  0.96460902566E+02 0.  0.
         24    2    1    2    0    0 -0.50711996129E+02 -0.36048817466E+02  0.18483139486E+02  0.10492800371E+03  0.82444137003E+02 0.  0.
        -11    1    4    4    0    0 -0.15751874084E+02 -0.58935469047E+02  0.58980397814E+01  0.61288644317E+02  0.00000000000E+00 0.  1.
         12    1    4    4    0    0 -0.34960122045E+02  0.22886651581E+02  0.12585099705E+02  0.43639359397E+02  0.00000000000E+00 0. -1.
        -13    1    3    3    0    0  0.21090354778E+02  0.91002478123E+02  0.19300930329E+03  0.21442678295E+03  0.00000000000E+00 0.  1.
         13    1    3    3    0    0  0.16174571061E+02 -0.23141162764E+02  0.92756759544E+02  0.96958478764E+02  0.00000000000E+00 0. -1.
          1    1    1    2  501    0  0.13447070290E+02 -0.31812497893E+02  0.11944667265E+03  0.12433972144E+03  0.00000000000E+00 0. -1.
<scales pt_clust_5="13000.00000" pt_clust_6="13000.00000" pt_clust_7="13000.00000" pt_clust_8="13000.00000" pt_clust_9="34.53780"></scales>
<clustering>
<clus scale="   34.538">  2  9  1 -1</clus>
<clus scale="   82.444">  5  6 -1 -1</clus>
<clus scale="   96.461">  7  8 -1 -1</clus>
<clus scale="  109.978">  2  5  1 -1</clus>
<clus scale="   34.538">  2  5  1 -1</clus>
</clustering>
</event>
<event>
 9    2  0.6469128E-005  0.1379506E+03  0.7546771E-02  0.1219104E+00
         -1   -1    0    0    0  501 -0.00000000000E+00  0.00000000000E+00  0.23031381148E+03  0.23031381148E+03  0.00000000000E+00 0.  1.
         21   -1    0    0  501  502  0.00000000000E+00 -0.00000000000E+00 -0.20768712427E+03  0.20768712427E+03  0.00000000000E+00 0.  1.
         24    2    1    2    0    0 -0.66762081850E+02  0.82591673355E+02  0.15950741930E+03  0.20709170942E+03  0.78522603219E+02 0.  0.
         23    2    1    2    0    0  0.57517152624E+02 -0.55479227078E+02 -0.15496734156E+03  0.19703181643E+03  0.91763240205E+02 0.  0.
        -11    1    3    3    0    0 -0.63004467057E+02  0.82041242766E+02  0.16828079189E+03  0.19753165140E+03  0.00000000000E+00 0.  1.
         12    1    3    3    0    0 -0.37576147930E+01  0.55043058816E+00 -0.87733725890E+01  0.95600580202E+01  0.00000000000E+00 0. -1.
        -13    1    4    4    0    0 -0.20517255375E+02 -0.12272120709E+02 -0.69499286997E+02  0.73496350984E+02  0.00000000000E+00 0.  1.
         13    1    4    4    0    0  0.78034407999E+02 -0.43207106369E+02 -0.85468054559E+02  0.12353546544E+03  0.00000000000E+00 0. -1.
         -2    1    1    2    0  502  0.92449292254E+01 -0.27112446276E+02  0.18086609464E+02  0.33877409897E+02  0.00000000000E+00 0.  1.
<scales pt_clust_5="13000.00000" pt_clust_6="13000.00000" pt_clust_7="13000.00000" pt_clust_8="13000.00000" pt_clust_9="28.64532"></scales>
<clustering>
<clus scale="   28.645">  2  9  1 -1</clus>
<clus scale="   78.523">  5  6 -1 -1</clus>
<clus scale="   91.763">  7  8 -1 -1</clus>
<clus scale="  129.521">  1  5  2 -1</clus>
<clus scale="   28.645">  2  5  1 -1</clus>
</clustering>
</event>
<event>
 9    2  0.6469128E-005  0.1036014E+03  0.7546771E-02  0.1276926E+00
          2   -1    0    0  502    0 -0.00000000000E+00  0.00000000000E+00  0.68016576719E+03  0.68016576719E+03  0.00000000000E+00 0. -1.
         21   -1    0    0  501  502  0.00000000000E+00 -0.00000000000E+00 -0.12562102805E+03  0.12562102805E+03  0.00000000000E+00 0. -1.
         24    2    1    2    0    0  0.47473747152E+02 -0.39608681600E+01  0.58645164963E+03  0.59405788690E+03  0.81913310817E+02 0.  0.
         23    2    1    2    0    0 -0.72434239073E+02  0.19322100557E+01  0.49704679124E+02  0.12636150724E+03  0.90808716317E+02 0.  0.
        -13    1    3    3    0    0  0.22931332037E+02 -0.40540435177E+02  0.21397462979E+03  0.21898519371E+03  0.00000000000E+00 0.  1.
         14    1    3    3    0    0  0.24542415115E+02  0.36579567017E+02  0.37247701984E+03  0.37507269318E+03  0.00000000000E+00 0. -1.
        -11    1    4    4    0    0 -0.47750953155E+02  0.28169895037E+02 -0.10285063491E+02  0.56386869435E+02  0.00000000000E+00 0.  1.
         11    1    4    4    0    0 -0.24683285917E+02 -0.26237684981E+02  0.59989742615E+02  0.69974637804E+02  0.00000000000E+00 0. -1.
          1    1    1    2  501    0  0.24960491921E+02  0.20286581043E+01 -0.81611589613E+02  0.85367401096E+02  0.00000000000E+00 0. -1.
<scales pt_clust_5="13000.00000" pt_clust_6="13000.00000" pt_clust_7="13000.00000" pt_clust_8="13000.00000" pt_clust_9="25.04280"></scales>
<clustering>
<clus scale="   25.043">  2  9  1 -1</clus>
<clus scale="   81.913">  5  6 -1 -1</clus>
<clus scale="   90.809">  7  8 -1 -1</clus>
<clus scale="   95.900">  1  5  2 -1</clus>
<clus scale="   25.043">  2  5  1 -1</clus>
</clustering>
</event>
<event>
 9    2  0.6469128E-005  0.9431416E+02  0.7546771E-02  0.1298829E+00
         21   -1    0    0  501  502  0.00000000000E+00  0.00000000000E+00  0.71138045047E+02  0.71138045047E+02  0.00000000000E+00 0. -1.
         -1   -1    0    0    0  501 -0.00000000000E+00 -0.00000000000E+00 -0.18490070315E+03  0.18490070315E+03  0.00000000000E+00 0.  1.
         24    2    1    2    0    0  0.16705668848E+02  0.13768068868E+02 -0.75417300524E+02  0.11174792257E+03  0.79568774575E+02 0.  0.
         23    2    1    2    0    0 -0.42388055492E+02 -0.15250936463E+02 -0.33633259550E+01  0.10086817697E+03  0.90187243294E+02 0.  0.
        -11    1    3    3    0    0  0.10686818530E+02  0.43813187506E+02 -0.65533007393E+02  0.79551106515E+02  0.00000000000E+00 0.  1.
         12    1    3    3    0    0  0.60188503172E+01 -0.30045118638E+02 -0.98842931314E+01  0.32196816051E+02  0.00000000000E+00 0. -1.
        -11    1    4    4    0    0 -0.77354736754E+01 -0.38105596863E+02 -0.32066938267E+02  0.50400025745E+02  0.00000000000E+00 0.  1.
         11    1    4    4    0    0 -0.34652581816E+02  0.22854660400E+02  0.28703612313E+02  0.50468151227E+02  0.00000000000E+00 0. -1.
         -2    1    1    2    0  502  0.25682386644E+02  0.14828675954E+01 -0.34982031626E+02  0.43422648660E+02  0.00000000000E+00 0.  1.
<scales pt_clust_5="13000.00000" pt_clust_6="13000.00000" pt_clust_7="13000.00000" pt_clust_8="13000.00000" pt_clust_9="25.72517"></scales>
<clustering>
<clus scale="   25.725">  1  9  2 -1</clus>
<clus scale="   79.569">  5  6 -1 -1</clus>
<clus scale="   84.218">  2  5  1 -1</clus>
<clus scale="   90.187">  7  8 -1 -1</clus>
<clus scale="   25.725">  1  5  2 -1</clus>
</clustering>
</event>
<event>
 9    2  0.6469128E-005  0.1277161E+03  0.7546771E-02  0.1233708E+00
         21   -1    0    0  501  502  0.00000000000E+00  0.00000000000E+00  0.45997293649E+03  0.45997293649E+03  0.00000000000E+00 0. -1.
         -3   -1    0    0    0  501 -0.00000000000E+00 -0.00000000000E+00 -0.12176063718E+03  0.12176063718E+03  0.00000000000E+00 0.  1.
         23    2    1    2    0    0  0.76162469305E+02 -0.55623685553E+02 -0.42010419791E+02  0.13683479743E+03  0.89800725444E+02 0.  0.
         24    2    1    2    0    0 -0.12631444959E+02  0.87733681035E+02  0.34612178731E+03  0.36596768975E+03  0.79216829667E+02 0.  0.
        -13    1    4    4    0    0 -0.21837053796E+02 -0.69712084123E+00  0.27218050639E+02  0.34902223089E+02  0.00000000000E+00 0.  1.
         14    1    4    4    0    0  0.92056088365E+01  0.88430801876E+02  0.31890373667E+03  0.33106546667E+03  0.00000000000E+00 0. -1.
        -13    1    3    3    0    0  0.83951111317E+01 -0.58484267036E+02 -0.43268454562E+01  0.59241952814E+02  0.00000000000E+00 0. -1.
         13    1    3    3    0    0  0.67767358173E+02  0.28605814833E+01 -0.37683574335E+02  0.77592844611E+02  0.00000000000E+00 0.  1.
         -4    1    1    2    0  502 -0.63531024346E+02 -0.32109995483E+02  0.34100931790E+02  0.78931086482E+02  0.00000000000E+00 0.  1.
<scales pt_clust_5="13000.00000" pt_clust_6="13000.00000" pt_clust_7="13000.00000" pt_clust_8="13000.00000" pt_clust_9="71.18460"></scales>
<clustering>
<clus scale="   71.185">  1  9  2 -1</clus>
<clus scale="   79.217">  5  6 -1 -1</clus>
<clus scale="   89.801">  7  8 -1 -1</clus>
<clus scale="  120.510">  1  5  2 -1</clus>
<clus scale="   71.185">  1  5  2 -1</clus>
</clustering>
</event>
<event>
 9    2  0.6469128E-005  0.1005556E+03  0.7546771E-02  0.1283106E+00
         21   -1    0    0  501  502  0.00000000000E+00  0.00000000000E+00  0.55892719082E+02  0.55892719082E+02  0.00000000000E+00 0. -1.
          4   -1    0    0  502    0 -0.00000000000E+00 -0.00000000000E+00 -0.23958125172E+03  0.23958125172E+03  0.00000000000E+00 0. -1.
         24    2    1    2    0    0 -0.55910818472E+02 -0.88676213745E+01 -0.11960105581E+03  0.15511026395E+03  0.80932855507E+02 0.  0.
         23    2    1    2    0    0  0.29542338169E+02 -0.57381118242E+01 -0.42816894729E+02  0.10347113499E+03  0.89259809718E+02 0.  0.
        -11    1    3    3    0    0 -0.80329293528E+00 -0.32835499225E+02 -0.19049549171E+02  0.37969732848E+02  0.00000000000E+00 0.  1.
         12    1    3    3    0    0 -0.55107525536E+02  0.23967877851E+02 -0.10055150663E+03  0.11714053110E+03  0.00000000000E+00 0. -1.
        -11    1    4    4    0    0  0.26691708595E+02  0.37793269298E+02 -0.37434535133E+02  0.59515736848E+02  0.00000000000E+00 0.  1.
         11    1    4    4    0    0  0.28506295741E+01 -0.43531381122E+02 -0.53823595960E+01  0.43955398146E+02  0.00000000000E+00 0. -1.
          3    1    1    2  501    0  0.26368480302E+02  0.14605733199E+02 -0.21270582108E+02  0.36892571867E+02  0.00000000000E+00 0. -1.
<scales pt_clust_5="13000.00000" pt_clust_6="13000.00000" pt_clust_7="13000.00000" pt_clust_8="13000.00000" pt_clust_9="30.14339"></scales>
<clustering>
<clus scale="   30.143">  1  9  2 -1</clus>
<clus scale="   80.933">  5  6 -1 -1</clus>
<clus scale="   89.260">  7  8 -1 -1</clus>
<clus scale="   93.243">  2  5  1 -1</clus>
<clus scale="   30.143">  1  5  2 -1</clus>
</clustering>
</event>
<event>
 9    2  0.6469128E-005  0.9876409E+02  0.7546771E-02  0.1285244E+00
         -1   -1    0    0    0  501 -0.00000000000E+00  0.00000000000E+00  0.30130665190E+03  0.30130665190E+03  0.00000000000E+00 0.  1.
         21   -1    0    0  501  502  0.00000000000E+00 -0.00000000000E+00 -0.45668129682E+02  0.45668129682E+02  0.00000000000E+00 0. -1.
         23    2    1    2    0    0  0.36515560545E+02  0.15336257429E+02  0.19190254549E+03  0.21645301735E+03  0.91960506749E+02 0.  0.
         24    2    1    2    0    0 -0.18739764119E+02 -0.25600956026E+02  0.56354234166E+02  0.10870816528E+03  0.87378932138E+02 0.  0.
        -11    1    4    4    0    0  0.18168174123E+02  0.23036643777E+02  0.30750102490E+02  0.42501038936E+02  0.00000000000E+00 0.  1.
         12    1    4    4    0    0 -0.36907938242E+02 -0.48637599804E+02  0.25604131676E+02  0.66207126345E+02  0.00000000000E+00 0. -1.
        -11    1    3    3    0    0  0.67676005968E+02  0.84457116146E+01  0.13230590955E+03  0.14884967427E+03  0.00000000000E+00 0.  1.
         11    1    3    3    0    0 -0.31160445422E+02  0.68905458139E+01  0.59596635947E+02  0.67603343088E+02  0.00000000000E+00 0. -1.
         -2    1    1    2    0  502 -0.17775796426E+02  0.10264698598E+02  0.73817425636E+01  0.21813598950E+02  0.00000000000E+00 0.  1.
<scales pt_clust_5="13000.00000" pt_clust_6="13000.00000" pt_clust_7="13000.00000" pt_clust_8="13000.00000" pt_clust_9="20.52664"></scales>
<clustering>
<clus scale="   20.527">  2  9  1 -1</clus>
<clus scale="   87.379">  5  6 -1 -1</clus>
<clus scale="   91.961">  7  8 -1 -1</clus>
<clus scale="   94.513">  2  5  1 -1</clus>
<clus scale="   20.527">  2  5  1 -1</clus>
</clustering>
</event>
<event>
 9    2  0.6469128E-005  0.1225330E+03  0.7546771E-02  0.1242278E+00
          2   -1    0    0  502    0 -0.00000000000E+00  0.00000000000E+00  0.64927882795E+03  0.64927882795E+03  0.00000000000E+00 0. -1.
         21   -1    0    0  501  502  0.00000000000E+00 -0.00000000000E+00 -0.49168868061E+02  0.49168868061E+02  0.00000000000E+00 0. -1.
         24    2    1    2    0    0 -0.80855041683E+02  0.22366070090E+02  0.47833509068E+03  0.49226898514E+03  0.80538909263E+02 0.  0.
         23    2    1    2    0    0  0.64627968126E+02 -0.40522777700E+02  0.13369970645E+03  0.17906440301E+03  0.91485404004E+02 0.  0.
        -13    1    3    3    0    0 -0.52660097382E+02 -0.26546800540E+02  0.21436794155E+03  0.22233180798E+03  0.00000000000E+00 0.  1.
         14    1    3    3    0    0 -0.28194944302E+02  0.48912870630E+02  0.26396714913E+03  0.26993717717E+03  0.00000000000E+00 0. -1.
        -11    1    4    4    0    0  0.13993710067E+01 -0.32094506984E+02  0.10372298248E+03  0.10858394316E+03  0.00000000000E+00 0. -1.
         11    1    4    4    0    0  0.63228597120E+02 -0.84282707162E+01  0.29976723963E+02  0.70480459849E+02  0.00000000000E+00 0.  1.
          1    1    1    2  501    0  0.16227073557E+02  0.18156707610E+02 -0.11924837232E+02  0.27114307855E+02  0.00000000000E+00 0. -1.
<scales pt_clust_5="13000.00000" pt_clust_6="13000.00000" pt_clust_7="13000.00000" pt_clust_8="13000.00000" pt_clust_9="24.35126"></scales>
<clustering>
<clus scale="   24.351">  2  9  1 -1</clus>
<clus scale="   80.539">  5  6 -1 -1</clus>
<clus scale="   91.485">  7  8 -1 -1</clus>
<clus scale="  114.592">  1  5  2 -1</clus>
<clus scale="   24.351">  2  5  1 -1</clus>
</clustering>
</event>
<event>
 9    2  0.6469128E-005  0.1125268E+03  0.7546771E-02  0.1256323E+00
         21   -1    0    0  501  502  0.00000000000E+00  0.00000000000E+00  0.28556797830E+02  0.28556797830E+02  0.00000000000E+00 0. -1.
          2   -1    0    0  502    0 -0.00000000000E+00 -0.00000000000E+00 -0.64910244090E+03  0.64910244090E+03  0.00000000000E+00 0. -1.
         24    2    1    2    0    0 -0.39645200386E+02  0.76391250559E+02 -0.40578157053E+03  0.42240663556E+03  0.79757869259E+02 0.  0.
         23    2    1    2    0    0  0.10141838409E+02 -0.63984233344E+02 -0.14227546772E+03  0.17601258630E+03  0.80878197427E+02 0.  0.
        -13    1    3    3    0    0 -0.28279816019E+02 -0.38344654637E+01 -0.50533423822E+02  0.58035144892E+02  0.00000000000E+00 0.  1.
         14    1    3    3    0    0 -0.11365384367E+02  0.80225716023E+02 -0.35524814671E+03  0.36437149067E+03  0.00000000000E+00 0. -1.
        -13    1    4    4    0    0  0.30673578115E+02 -0.73479821554E+02 -0.12169827974E+03  0.14543254059E+03  0.00000000000E+00 0. -1.
         13    1    4    4    0    0 -0.20531739706E+02  0.94955882102E+01 -0.20577187982E+02  0.30580045717E+02  0.00000000000E+00 0.  1.
          1    1    1    2  501    0  0.29503361977E+02 -0.12407017215E+02 -0.72488604820E+02  0.79240016866E+02  0.00000000000E+00 0. -1.
<scales pt_clust_5="13000.00000" pt_clust_6="13000.00000" pt_clust_7="13000.00000" pt_clust_8="13000.00000" pt_clust_9="32.00598"></scales>
<clustering>
<clus scale="   32.006">  1  9  2 -1</clus>
<clus scale="   79.758">  5  6 -1 -1</clus>
<clus scale="   80.878">  7  8 -1 -1</clus>
<clus scale="  111.724">  2  5  1 -1</clus>
<clus scale="   32.006">  1  5  2 -1</clus>
</clustering>
</event>
<event>
 9    2  0.6469128E-005  0.1214767E+03  0.7546771E-02  0.1245263E+00
          2   -1    0    0  502    0 -0.00000000000E+00  0.00000000000E+00  0.21133743122E+03  0.21133743122E+03  0.00000000000E+00 0. -1.
         21   -1    0    0  501  502  0.00000000000E+00 -0.00000000000E+00 -0.85045016890E+02  0.85045016890E+02  0.00000000000E+00 0. -1.
         23    2    1    2    0    0  0.65407784825E+02  0.17163134593E+02  0.51333848840E+02  0.12511075914E+03  0.91895519542E+02 0.  0.
         24    2    1    2    0    0 -0.82924911902E+02 -0.43205291426E+02  0.49795816590E+02  0.13104473773E+03  0.77135346734E+02 0.  0.
        -11    1    4    4    0    0 -0.78077983963E+01 -0.41283675051E+02  0.21497708268E+01  0.42070477251E+02  0.00000000000E+00 0.  1.
         12    1    4    4    0    0 -0.75117113505E+02 -0.19216163748E+01  0.47646045763E+02  0.88974260479E+02  0.00000000000E+00 0. -1.
        -11    1    3    3    0    0  0.16844625732E+02  0.47908746095E+02  0.45263125387E+01  0.50985065202E+02  0.00000000000E+00 0.  1.
         11    1    3    3    0    0  0.48563159093E+02 -0.30745611502E+02  0.46807536301E+02  0.74125693941E+02  0.00000000000E+00 0. -1.
          1    1    1    2  501    0  0.17517127077E+02  0.26042156833E+02  0.25162748900E+02  0.40226951236E+02  0.00000000000E+00 0. -1.
<scales pt_clust_5="13000.00000" pt_clust_6="13000.00000" pt_clust_7="13000.00000" pt_clust_8="13000.00000" pt_clust_9="31.38542"></scales>
<clustering>
<clus scale="   31.385">  2  9  1 -1</clus>
<clus scale="   77.135">  5  6 -1 -1</clus>
<clus scale="   91.896">  7  8 -1 -1</clus>
<clus scale="  110.732">  2  5  1 -1</clus>
<clus scale="   31.385">  2  5  1 -1</clus>
</clustering>
</event>
<event>
 9    2  0.6469128E-005  0.1269941E+03  0.7546771E-02  0.1238614E+00
          2   -1    0    0  502    0 -0.00000000000E+00  0.00000000000E+00  0.27002329563E+03  0.27002329563E+03  0.00000000000E+00 0. -1.
         21   -1    0    0  501  502  0.00000000000E+00 -0.00000000000E+00 -0.11604138118E+03  0.11604138118E+03  0.00000000000E+00 0. -1.
         23    2    1    2    0    0 -0.57131872396E+02 -0.13668283445E+02  0.83430536081E+01  0.11119613048E+03  0.94043075632E+02 0.  0.
         24    2    1    2    0    0 -0.46096474305E+02 -0.50672270404E+02  0.63578759917E+02  0.12813866322E+03  0.87662388557E+02 0.  0.
        -13    1    4    4    0    0  0.86558023327E+01 -0.42044354582E+02 -0.11237951674E+01  0.42940814872E+02  0.00000000000E+00 0.  1.
         14    1    4    4    0    0 -0.54752276638E+02 -0.86279158221E+01  0.64702555085E+02  0.85197848347E+02  0.00000000000E+00 0. -1.
        -11    1    3    3    0    0 -0.30590134549E+02 -0.47241277257E+02 -0.20152918945E+02  0.59779885837E+02  0.00000000000E+00 0. -1.
         11    1    3    3    0    0 -0.26541737846E+02  0.33572993812E+02  0.28495972553E+02  0.51416244643E+02  0.00000000000E+00 0.  1.
          1    1    1    2  501    0  0.10322834670E+03  0.64340553850E+02  0.82060100929E+02  0.14672988311E+03  0.00000000000E+00 0. -1.
<scales pt_clust_5="13000.00000" pt_clust_6="13000.00000" pt_clust_7="13000.00000" pt_clust_8="13000.00000" pt_clust_9="91.88481"></scales>
<clustering>
<clus scale="   87.662">  5  6 -1 -1</clus>
<clus scale="   94.043">  7  8 -1 -1</clus>
<clus scale="  110.883">  1  7  2 -1</clus>
<clus scale="   91.885">  2  9  1 -1</clus>
<clus scale="   91.885">  2  5  1 -1</clus>
</clustering>
</event>
<event>
 9    2  0.6469128E-005  0.1107724E+03  0.7546771E-02  0.1263576E+00
         21   -1    0    0  501  502  0.00000000000E+00  0.00000000000E+00  0.25396940950E+02  0.25396940950E+02  0.00000000000E+00 0.  1.
          2   -1    0    0  502    0 -0.00000000000E+00 -0.00000000000E+00 -0.78813561092E+03  0.78813561092E+03  0.00000000000E+00 0. -1.
         24    2    1    2    0    0  0.35094594904E+02  0.31984261191E+02 -0.22088529874E+03  0.24000886034E+03  0.80989593688E+02 0.  0.
         23    2    1    2    0    0 -0.69280356182E+02 -0.45585455550E+02 -0.24728065472E+03  0.27666220182E+03  0.92284615221E+02 0.  0.
        -11    1    3    3    0    0 -0.14149968292E+02  0.17178335797E+02 -0.12821368312E+02  0.25684709631E+02  0.00000000000E+00 0.  1.
         12    1    3    3    0    0  0.49244563196E+02  0.14805925394E+02 -0.20806393043E+03  0.21432415071E+03  0.00000000000E+00 0. -1.
        -13    1    4    4    0    0 -0.55778857480E+02 -0.14513621148E+02 -0.49421910610E+02  0.75923984280E+02  0.00000000000E+00 0.  1.
         13    1    4    4    0    0 -0.13501498702E+02 -0.31071834402E+02 -0.19785874411E+03  0.20073821754E+03  0.00000000000E+00 0. -1.
          1    1    1    2  501    0  0.34185761277E+02  0.13601194358E+02 -0.29457271651E+03  0.29686148971E+03  0.00000000000E+00 0. -1.
<scales pt_clust_5="13000.00000" pt_clust_6="13000.00000" pt_clust_7="13000.00000" pt_clust_8="13000.00000" pt_clust_9="36.79212"></scales>
<clustering>
<clus scale="   36.792">  1  9  2 -1</clus>
<clus scale="   80.990">  5  6 -1 -1</clus>
<clus scale="   92.285">  7  8 -1 -1</clus>
<clus scale="  101.555">  2  5  1 -1</clus>
<clus scale="   36.792">  1  5  2 -1</clus>
</clustering>
</event>
<event>
 9    2  0.6469128E-005  0.9864510E+02  0.7546771E-02  0.1288508E+00
         21   -1    0    0  501  502  0.00000000000E+00  0.00000000000E+00  0.83148706697E+02  0.83148706697E+02  0.00000000000E+00 0.  1.
         -1   -1    0    0    0  501 -0.00000000000E+00 -0.00000000000E+00 -0.27056926645E+03  0.27056926645E+03  0.00000000000E+00 0.  1.
         24    2    1    2    0    0  0.18041991035E+02  0.47844136927E+02 -0.74273133618E+02  0.12049986019E+03  0.79932115260E+02 0.  0.
         23    2    1    2    0    0 -0.12878253324E+02 -0.67492389064E+01  0.20090510703E+02  0.93691045176E+02  0.90349220757E+02 0.  0.
        -11    1    3    3    0    0  0.37442133387E+02  0.81195195272E+01 -0.64813646621E+02  0.75290429261E+02  0.00000000000E+00 0.  1.
         12    1    3    3    0    0 -0.19400142352E+02  0.39724617400E+02 -0.94594869961E+01  0.45209430931E+02  0.00000000000E+00 0. -1.
        -11    1    4    4    0    0  0.38683105833E+02 -0.24748030694E+01  0.15511372790E+02  0.41750569014E+02  0.00000000000E+00 0. -1.
         11    1    4    4    0    0 -0.51561359158E+02 -0.42744358370E+01  0.45791379134E+01  0.51940476162E+02  0.00000000000E+00 0.  1.
         -2    1    1    2    0  502 -0.51637377104E+01 -0.41094898021E+02 -0.13323793683E+03  0.13952706778E+03  0.00000000000E+00 0.  1.
<scales pt_clust_5="13000.00000" pt_clust_6="13000.00000" pt_clust_7="13000.00000" pt_clust_8="13000.00000" pt_clust_9="41.41807"></scales>
<clustering>
<clus scale="   41.418">  1  9  2 -1</clus>
<clus scale="   79.932">  5  6 -1 -1</clus>
<clus scale="   89.202">  2  5  1 -1</clus>
<clus scale="   90.349">  7  8 -1 -1</clus>
<clus scale="   41.418">  1  5  2 -1</clus>
</clustering>
</event>
<event>
 9    2  0.6469128E-005  0.1032386E+03  0.7546771E-02  0.1280430E+00
         21   -1    0    0  501  502  0.00000000000E+00  0.00000000000E+00  0.99657659140E+02  0.99657659140E+02  0.00000000000E+00 0.  1.
          2   -1    0    0  502    0 -0.00000000000E+00 -0.00000000000E+00 -0.25570050108E+03  0.25570050108E+03  0.00000000000E+00 0. -1.
         23    2    1    2    0    0  0.27823878428E+02 -0.28881278014E+02 -0.17493242779E+03  0.20185252300E+03  0.92383928898E+02 0.  0.
         24    2    1    2    0    0 -0.39049803764E+02  0.50688768362E+02 -0.24315622411E+02  0.10382386938E+03  0.78063486652E+02 0.  0.
        -13    1    4    4    0    0 -0.95136622082E+01  0.20412275126E+02  0.28394604403E+02  0.36241196222E+02  0.00000000000E+00 0.  1.
         14    1    4    4    0    0 -0.29536141556E+02  0.30276493236E+02 -0.52710226814E+02  0.67582673160E+02  0.00000000000E+00 0. -1.
        -11    1    3    3    0    0  0.89859832058E+01  0.23187754248E+02 -0.12448937689E+03  0.12694890626E+03  0.00000000000E+00 0.  1.
         11    1    3    3    0    0  0.18837895222E+02 -0.52069032263E+02 -0.50443050897E+02  0.74903616742E+02  0.00000000000E+00 0. -1.
          1    1    1    2  501    0  0.11225925336E+02 -0.21807490348E+02  0.43205208259E+02  0.49681767839E+02  0.00000000000E+00 0. -1.
<scales pt_clust_5="13000.00000" pt_clust_6="13000.00000" pt_clust_7="13000.00000" pt_clust_8="13000.00000" pt_clust_9="24.52729"></scales>
<clustering>
<clus scale="   24.527">  1  9  2 -1</clus>
<clus scale="   78.063">  5  6 -1 -1</clus>
<clus scale="   90.649">  1  5  2 -1</clus>
<clus scale="   92.384">  7  8 -1 -1</clus>
<clus scale="   24.527">  1  5  2 -1</clus>
</clustering>
</event>
<event>
 9    2  0.6469128E-005  0.1122042E+03  0.7546771E-02  0.1261477E+00
          2   -1    0    0  502    0 -0.00000000000E+00  0.00000000000E+00  0.50956444062E+03  0.50956444062E+03  0.00000000000E+00 0. -1.
         21   -1    0    0  501  502  0.00000000000E+00 -0.00000000000E+00 -0.61218941553E+02  0.61218941553E+02  0.00000000000E+00 0. -1.
         23    2    1    2    0    0 -0.62104571087E+02 -0.32059963117E+02  0.17274293906E+03  0.20764168889E+03  0.91597647252E+02 0.  0.
         24    2    1    2    0    0  0.69563717468E+02 -0.65574629199E+02  0.88986710081E+02  0.15239628308E+03  0.78529292259E+02 0.  0.
        -11    1    4    4    0    0  0.57105527991E+02 -0.24236353242E+02  0.10641073745E+02  0.62941835023E+02  0.00000000000E+00 0.  1.
         12    1    4    4    0    0  0.12458189477E+02 -0.41338275957E+02  0.78345636336E+02  0.89454448056E+02  0.00000000000E+00 0. -1.
        -11    1    3    3    0    0 -0.24343938961E+02 -0.60600766666E+02  0.77980526518E+02  0.10171549931E+03  0.00000000000E+00 0.  1.
         11    1    3    3    0    0 -0.37760632126E+02  0.28540803549E+02  0.94762412544E+02  0.10592618957E+03  0.00000000000E+00 0. -1.
          1    1    1    2  501    0 -0.74591463809E+01  0.97634592316E+02  0.18661584992E+03  0.21074541021E+03  0.00000000000E+00 0. -1.
<scales pt_clust_5="13000.00000" pt_clust_6="13000.00000" pt_clust_7="13000.00000" pt_clust_8="13000.00000" pt_clust_9="97.91916"></scales>
<clustering>
<clus scale="   78.529">  5  6 -1 -1</clus>
<clus scale="   91.598">  7  8 -1 -1</clus>
<clus scale="   97.919">  2  9  1 -1</clus>
<clus scale="  101.816">  2  5  1 -1</clus>
<clus scale="   97.919">  2  5  1 -1</clus>
</clustering>
</event>
<event>
 9    2  0.6469128E-005  0.1121763E+03  0.7546771E-02  0.1263510E+00
          2   -1    0    0  502    0 -0.00000000000E+00  0.00000000000E+00  0.95243946817E+03  0.95243946817E+03  0.00000000000E+00 0. -1.
         21   -1    0    0  501  502  0.00000000000E+00 -0.00000000000E+00 -0.25063302927E+02  0.25063302927E+02  0.00000000000E+00 0. -1.
         23    2    1    2    0    0  0.10843042557E+02 -0.20805736672E+02  0.24784594083E+03  0.26604430294E+03  0.93816365786E+02 0.  0.
         24    2    1    2    0    0  0.96549987637E+01  0.10095196070E+03  0.44709078103E+03  0.46473659688E+03  0.76193310942E+02 0.  0.
        -13    1    4    4    0    0  0.27116010863E+02  0.73282545846E+01  0.62374412704E+02  0.68407227108E+02  0.00000000000E+00 0.  1.
         14    1    4    4    0    0 -0.17461012100E+02  0.93623706118E+02  0.38471636832E+03  0.39632936977E+03  0.00000000000E+00 0. -1.
        -11    1    3    3    0    0  0.96609151078E+01 -0.51189563261E+02  0.21526588302E+03  0.22147935584E+03  0.00000000000E+00 0.  1.
         11    1    3    3    0    0  0.11821274496E+01  0.30383826588E+02  0.32580057803E+02  0.44564947099E+02  0.00000000000E+00 0. -1.
          1    1    1    2  501    0 -0.20498041321E+02 -0.80146224030E+02  0.23243944339E+03  0.24672187128E+03  0.00000000000E+00 0. -1.
<scales pt_clust_5="13000.00000" pt_clust_6="13000.00000" pt_clust_7="13000.00000" pt_clust_8="13000.00000" pt_clust_9="82.72597"></scales>
<clustering>
<clus scale="   76.193">  5  6 -1 -1</clus>
<clus scale="   82.726">  2  9  1 -1</clus>
<clus scale="   93.816">  7  8 -1 -1</clus>
<clus scale="   97.915">  2  5  1 -1</clus>
<clus scale="   82.726">  2  5  1 -1</clus>
</clustering>
</event>
<event>
 9    2  0.6469128E-005  0.9185200E+02  0.7546771E-02  0.1304983E+00
          2   -1    0    0  502    0 -0.00000000000E+00  0.00000000000E+00  0.53418684763E+03  0.53418684763E+03  0.00000000000E+00 0. -1.
         21   -1    0    0  501  502  0.00000000000E+00 -0.00000000000E+00 -0.96617132442E+02  0.96617132442E+02  0.00000000000E+00 0.  1.
         24    2    1    2    0    0 -0.48558038603E+01 -0.48088916354E+01  0.47951847381E+03  0.48635716812E+03  0.80985331900E+02 0.  0.
         23    2    1    2    0    0  0.10607073446E+02  0.35825206176E+02 -0.96044757654E+01  0.99266711221E+02  0.91464083646E+02 0.  0.
        -11    1    3    3    0    0  0.83644097686E+01  0.34210589997E+02  0.14059335127E+03  0.14493729071E+03  0.00000000000E+00 0.  1.
         12    1    3    3    0    0 -0.13220213629E+02 -0.39019481632E+02  0.33892512254E+03  0.34141987740E+03  0.00000000000E+00 0. -1.
        -13    1    4    4    0    0 -0.23444970023E+02  0.23021501301E+02  0.30702535818E+02  0.44970010531E+02  0.00000000000E+00 0.  1.
         13    1    4    4    0    0  0.34052043469E+02  0.12803704875E+02 -0.40307011584E+02  0.54296700689E+02  0.00000000000E+00 0. -1.
          1    1    1    2  501    0 -0.57512695861E+01 -0.31016314541E+02 -0.32344282853E+02  0.45180100739E+02  0.00000000000E+00 0. -1.
<scales pt_clust_5="13000.00000" pt_clust_6="13000.00000" pt_clust_7="13000.00000" pt_clust_8="13000.00000" pt_clust_9="31.54503"></scales>
<clustering>
<clus scale="   31.545">  2  9  1 -1</clus>
<clus scale="   80.985">  5  6 -1 -1</clus>
<clus scale="   81.423">  1  5  2 -1</clus>
<clus scale="   91.464">  7  8 -1 -1</clus>
<clus scale="   31.545">  2  5  1 -1</clus>
</clustering>
</event>
<event>
 9    2  0.6469128E-005  0.1330049E+03  0.7546771E-02  0.1225842E+00
         21   -1    0    0  501  502  0.00000000000E+00  0.00000000000E+00  0.15845314058E+03  0.15845314058E+03  0.00000000000E+00 0. -1.
          2   -1    0    0  502    0 -0.00000000000E+00 -0.00000000000E+00 -0.87065121729E+03  0.87065121729E+03  0.00000000000E+00 0. -1.
         24    2    1    2    0    0  0.98222637262E+02 -0.10515066317E+02 -0.81554256928E+03  0.82541936581E+03  0.80306874307E+02 0.  0.
         23    2    1    2    0    0 -0.60285688742E+02  0.27984043158E+02  0.26468478090E+02  0.11619614239E+03  0.91561412371E+02 0.  0.
        -11    1    3    3    0    0  0.56758319868E+02  0.10368393342E+02 -0.20076663394E+03  0.20889291936E+03  0.00000000000E+00 0.  1.
         12    1    3    3    0    0  0.41464317395E+02 -0.20883459660E+02 -0.61477593534E+03  0.61652644645E+03  0.00000000000E+00 0. -1.
        -11    1    4    4    0    0 -0.61148645514E+02 -0.19069678883E+02  0.26008851120E+02  0.69132263361E+02  0.00000000000E+00 0. -1.
         11    1    4    4    0    0  0.86295677189E+00  0.47053722041E+02  0.45962697022E+00  0.47063879028E+02  0.00000000000E+00 0.  1.
          1    1    1    2  501    0 -0.37936948520E+02 -0.17468976840E+02  0.76876014477E+02  0.87488849671E+02  0.00000000000E+00 0. -1.
<scales pt_clust_5="13000.00000" pt_clust_6="13000.00000" pt_clust_7="13000.00000" pt_clust_8="13000.00000" pt_clust_9="41.76574"></scales>
<clustering>
<clus scale="   41.766">  1  9  2 -1</clus>
<clus scale="   80.307">  5  6 -1 -1</clus>
<clus scale="   91.561">  7  8 -1 -1</clus>
<clus scale="  125.523">  2  5  1 -1</clus>
<clus scale="   41.766">  1  5  2 -1</clus>
</clustering>
</event>
<event>
 9    2  0.6469128E-005  0.3392183E+03  0.7546771E-02  0.1067255E+00
          2   -1    0    0  502    0 -0.00000000000E+00  0.00000000000E+00  0.15733335530E+04  0.15733335530E+04  0.00000000000E+00 0. -1.
         21   -1    0    0  501  502  0.00000000000E+00 -0.00000000000E+00 -0.45624095596E+03  0.45624095596E+03  0.00000000000E+00 0. -1.
         24    2    1    2    0    0  0.26737283925E+03  0.22278363257E+03  0.14539787816E+04  0.14972752935E+04  0.81597947285E+02 0.  0.
         23    2    1    2    0    0 -0.13402878518E+03 -0.13940463657E+03 -0.70953145478E+02  0.22334440492E+03  0.86319212223E+02 0.  0.
        -11    1    3    3    0    0  0.46415215958E+02  0.38805064574E+02  0.14546583832E+03  0.15754528056E+03  0.00000000000E+00 0.  1.
         12    1    3    3    0    0  0.22095762329E+03  0.18397856799E+03  0.13085129433E+04  0.13397300129E+04  0.00000000000E+00 0. -1.
        -13    1    4    4    0    0 -0.12554674449E+03 -0.85427379775E+02 -0.29340246827E+02  0.15466309305E+03  0.00000000000E+00 0.  1.
         13    1    4    4    0    0 -0.84820406913E+01 -0.53977256800E+02 -0.41612898651E+02  0.68681311869E+02  0.00000000000E+00 0. -1.
          1    1    1    2  501    0 -0.13334405407E+03 -0.83378995994E+02 -0.26593303906E+03  0.30895481060E+03  0.00000000000E+00 0. -1.
<scales pt_clust_5="13000.00000" pt_clust_6="13000.00000" pt_clust_7="13000.00000" pt_clust_8="13000.00000" pt_clust_9="157.26631"></scales>
<clustering>
<clus scale="   81.598">  5  6 -1 -1</clus>
<clus scale="   86.319">  7  8 -1 -1</clus>
<clus scale="  157.266">  2  9  1 -1</clus>
<clus scale="  338.048">  1  5  2 -1</clus>
<clus scale="  157.266">  2  5  1 -1</clus>
</clustering>
</event>
<event>
 9    2  0.6469128E-005  0.1881048E+03  0.7546771E-02  0.1192657E+00
          2   -1    0    0  502    0 -0.00000000000E+00  0.00000000000E+00  0.30379048114E+03  0.30379048114E+03  0.00000000000E+00 0. -1.
         21   -1    0    0  501  502  0.00000000000E+00 -0.00000000000E+00 -0.19354823940E+03  0.19354823940E+03  0.00000000000E+00 0. -1.
         24    2    1    2    0    0  0.42090296238E+02  0.11113437011E+02  0.10437732352E+03  0.13796818794E+03  0.79028436005E+02 0.  0.
         23    2    1    2    0    0 -0.11324650263E+03  0.13076305493E+03 -0.28086820596E+02  0.19705951868E+03  0.90110141048E+02 0.  0.
        -11    1    3    3    0    0  0.20028619248E+02 -0.34186801196E+02  0.50720974395E+02  0.64362257640E+02  0.00000000000E+00 0.  1.
         12    1    3    3    0    0  0.22061676990E+02  0.45300238207E+02  0.53656349127E+02  0.73605930296E+02  0.00000000000E+00 0. -1.
        -11    1    4    4    0    0 -0.20603223151E+02 -0.11794135060E+02 -0.11070311089E+02  0.26194392790E+02  0.00000000000E+00 0.  1.
         11    1    4    4    0    0 -0.92643279479E+02  0.14255718999E+03 -0.17016509507E+02  0.17086512589E+03  0.00000000000E+00 0. -1.
          1    1    1    2  501    0  0.71156206393E+02 -0.14187649194E+03  0.33951738814E+02  0.16231101393E+03  0.00000000000E+00 0. -1.
<scales pt_clust_5="13000.00000" pt_clust_6="13000.00000" pt_clust_7="13000.00000" pt_clust_8="13000.00000" pt_clust_9="165.11697"></scales>
<clustering>
<clus scale="   79.028">  5  6 -1 -1</clus>
<clus scale="   90.110">  7  8 -1 -1</clus>
<clus scale="   90.225">  1  5  2 -1</clus>
<clus scale="  165.117">  2  9  1 -1</clus>
<clus scale="  165.117">  2  5  1 -1</clus>
</clustering>
</event>
<event>
 9    2  0.6469128E-005  0.9433412E+02  0.7546771E-02  0.1300849E+00
         21   -1    0    0  501  502  0.00000000000E+00  0.00000000000E+00  0.26210983158E+02  0.26210983158E+02  0.00000000000E+00 0. -1.
          2   -1    0    0  502    0 -0.00000000000E+00 -0.00000000000E+00 -0.71608050708E+03  0.71608050708E+03  0.00000000000E+00 0. -1.
         24    2    1    2    0    0 -0.24814799837E+02  0.14572750311E+02 -0.50066537490E+03  0.50751401727E+03  0.77952041441E+02 0.  0.
         23    2    1    2    0    0 -0.15967264513E+02 -0.38236733740E+01 -0.10325165214E+03  0.13903536547E+03  0.91653451471E+02 0.  0.
        -13    1    3    3    0    0 -0.32343779687E+01  0.39840428812E+02 -0.14853478341E+03  0.15381905881E+03  0.00000000000E+00 0.  1.
         14    1    3    3    0    0 -0.21580421869E+02 -0.25267678501E+02 -0.35213059149E+03  0.35369495847E+03  0.00000000000E+00 0. -1.
        -13    1    4    4    0    0 -0.39319673798E+02  0.28291681267E+02 -0.33912359850E+02  0.59131244931E+02  0.00000000000E+00 0. -1.
         13    1    4    4    0    0  0.23352409285E+02 -0.32115354641E+02 -0.69339292292E+02  0.79904120537E+02  0.00000000000E+00 0.  1.
          1    1    1    2  501    0  0.40782064350E+02 -0.10749076937E+02 -0.85952496883E+02  0.95742107498E+02  0.00000000000E+00 0. -1.
<scales pt_clust_5="13000.00000" pt_clust_6="13000.00000" pt_clust_7="13000.00000" pt_clust_8="13000.00000" pt_clust_9="42.17487"></scales>
<clustering>
<clus scale="   42.175">  1  9  2 -1</clus>
<clus scale="   77.952">  5  6 -1 -1</clus>
<clus scale="   81.087">  2  5  1 -1</clus>
<clus scale="   91.653">  7  8 -1 -1</clus>
<clus scale="   42.175">  1  5  2 -1</clus>
</clustering>
</event>
<event>
 9    2  0.6469128E-005  0.8957942E+02  0.7546771E-02  0.1306549E+00
         21   -1    0    0  501  502  0.00000000000E+00  0.00000000000E+00  0.30866281203E+03  0.30866281203E+03  0.00000000000E+00 0.  1.
         -3   -1    0    0    0  501 -0.00000000000E+00 -0.00000000000E+00 -0.69799556262E+02  0.69799556262E+02  0.00000000000E+00 0.  1.
         23    2    1    2    0    0  0.31651447975E+02 -0.10725925280E+02  0.18709519740E+02  0.96452682201E+02  0.88522393454E+02 0.  0.
         24    2    1    2    0    0  0.21792278679E+02  0.11971951379E+02  0.44538851185E+02  0.98438522021E+02  0.84191462292E+02 0.  0.
        -13    1    4    4    0    0  0.42048834216E+02  0.29133258028E+02  0.49778613365E+02  0.71377598242E+02  0.00000000000E+00 0.  1.
         14    1    4    4    0    0 -0.20256555536E+02 -0.17161306649E+02 -0.52397621792E+01  0.27060923779E+02  0.00000000000E+00 0. -1.
        -13    1    3    3    0    0  0.16132780413E+02  0.33296258963E+02  0.30905262454E+02  0.48208326170E+02  0.00000000000E+00 0. -1.
         13    1    3    3    0    0  0.15518667562E+02 -0.44022184243E+02 -0.12195742715E+02  0.48244356031E+02  0.00000000000E+00 0.  1.
         -4    1    1    2    0  502 -0.53443726654E+02 -0.12460260998E+01  0.17561488485E+03  0.18357116407E+03  0.00000000000E+00 0.  1.
<scales pt_clust_5="13000.00000" pt_clust_6="13000.00000" pt_clust_7="13000.00000" pt_clust_8="13000.00000" pt_clust_9="53.45825"></scales>
<clustering>
<clus scale="   53.458">  1  9  2 -1</clus>
<clus scale="   84.191">  5  6 -1 -1</clus>
<clus scale="   85.302">  1  5  2 -1</clus>
<clus scale="   88.522">  7  8 -1 -1</clus>
<clus scale="   53.458">  1  5  2 -1</clus>
</clustering>
</event>
<event>
 9    2  0.6469128E-005  0.1325187E+03  0.7546771E-02  0.1225849E+00
         -1   -1    0    0    0  501 -0.00000000000E+00  0.00000000000E+00  0.28768570516E+03  0.28768570516E+03  0.00000000000E+00 0.  1.
         21   -1    0    0  501  502  0.00000000000E+00 -0.00000000000E+00 -0.19792872716E+03  0.19792872716E+03  0.00000000000E+00 0. -1.
         23    2    1    2    0    0 -0.63332166297E+02  0.74309213555E+02  0.30464911267E+02  0.13722188004E+03  0.91481752470E+02 0.  0.
         24    2    1    2    0    0  0.12989934805E+03  0.15164372019E+02 -0.76386256892E+02  0.17276419551E+03  0.83119240894E+02 0.  0.
        -13    1    4    4    0    0  0.44305897095E+02  0.95246692947E+01  0.14702507926E+02  0.47643421182E+02  0.00000000000E+00 0.  1.
         14    1    4    4    0    0  0.85593450951E+02  0.56397027239E+01 -0.91088764818E+02  0.12512077433E+03  0.00000000000E+00 0. -1.
        -13    1    3    3    0    0 -0.51913213682E+02  0.25980460585E+01 -0.11664420837E+02  0.53270914311E+02  0.00000000000E+00 0.  1.
         13    1    3    3    0    0 -0.11418952615E+02  0.71711167496E+02  0.42129332104E+02  0.83950965724E+02  0.00000000000E+00 0. -1.
         -2    1    1    2    0  502 -0.66567181749E+02 -0.89473585573E+02  0.13567832363E+03  0.17562835678E+03  0.00000000000E+00 0.  1.
<scales pt_clust_5="13000.00000" pt_clust_6="13000.00000" pt_clust_7="13000.00000" pt_clust_8="13000.00000" pt_clust_9="111.52006"></scales>
<clustering>
<clus scale="   83.119">  5  6 -1 -1</clus>
<clus scale="   91.482">  7  8 -1 -1</clus>
<clus scale="  111.520">  2  9  1 -1</clus>
<clus scale="  126.890">  2  5  1 -1</clus>
<clus scale="  111.520">  2  5  1 -1</clus>
</clustering>
</event>
<event>
 9    2  0.6469128E-005  0.9728815E+02  0.7546771E-02  0.1291244E+00
         21   -1    0    0  501  502  0.00000000000E+00  0.00000000000E+00  0.39635562631E+02  0.39635562631E+02  0.00000000000E+00 0.  1.
          2   -1    0    0  502    0 -0.00000000000E+00 -0.00000000000E+00 -0.65703230023E+03  0.65703230023E+03  0.00000000000E+00 0. -1.
         24    2    1    2    0    0 -0.14667806240E+02  0.23308248714E+02 -0.35620924943E+03  0.36641154887E+03  0.81326347320E+02 0.  0.
         23    2    1    2    0    0  0.22459354932E+02 -0.75039011378E+02 -0.86652703945E+02  0.14804991745E+03  0.90965988713E+02 0.  0.
        -11    1    3    3    0    0  0.13864761478E+02 -0.25575622056E+02 -0.11026863791E+03  0.11404173166E+03  0.00000000000E+00 0.  1.
         12    1    3    3    0    0 -0.28532567719E+02  0.48883870770E+02 -0.24594061152E+03  0.25236981721E+03  0.00000000000E+00 0. -1.
        -11    1    4    4    0    0 -0.10765680488E+02 -0.53972832301E+02 -0.93132991462E+02  0.10817911352E+03  0.00000000000E+00 0.  1.
         11    1    4    4    0    0  0.33225035420E+02 -0.21066179077E+02  0.64802875175E+01  0.39870803929E+02  0.00000000000E+00 0. -1.
          1    1    1    2  501    0 -0.77915486922E+01  0.51730762664E+02 -0.17453478423E+03  0.18220639655E+03  0.00000000000E+00 0. -1.
<scales pt_clust_5="13000.00000" pt_clust_6="13000.00000" pt_clust_7="13000.00000" pt_clust_8="13000.00000" pt_clust_9="52.31427"></scales>
<clustering>
<clus scale="   52.314">  1  9  2 -1</clus>
<clus scale="   81.326">  5  6 -1 -1</clus>
<clus scale="   88.341">  2  5  1 -1</clus>
<clus scale="   90.966">  7  8 -1 -1</clus>
<clus scale="   52.314">  1  5  2 -1</clus>
</clustering>
</event>
<event>
 9    2  0.6469128E-005  0.8841732E+02  0.7546771E-02  0.1308052E+00
          2   -1    0    0  502    0 -0.00000000000E+00  0.00000000000E+00  0.17893089233E+03  0.17893089233E+03  0.00000000000E+00 0. -1.
         21   -1    0    0  501  502  0.00000000000E+00 -0.00000000000E+00 -0.79974370514E+02  0.79974370514E+02  0.00000000000E+00 0.  1.
         23    2    1    2    0    0 -0.15818063945E+02 -0.29595483670E+02  0.20497611771E+02  0.90265175659E+02  0.81249898755E+02 0.  0.
         24    2    1    2    0    0  0.41489818396E+02  0.11692556846E+02  0.65244492922E+01  0.90191885107E+02  0.78954966813E+02 0.  0.
        -11    1    4    4    0    0  0.58732478089E+02 -0.12081411670E+02 -0.62579712815E+00  0.59965457661E+02  0.00000000000E+00 0.  1.
         12    1    4    4    0    0 -0.17242659693E+02  0.23773968516E+02  0.71502464203E+01  0.30226427446E+02  0.00000000000E+00 0. -1.
        -11    1    3    3    0    0 -0.33438781476E+02  0.10224707278E+02 -0.10848745753E+02  0.36611364765E+02  0.00000000000E+00 0.  1.
         11    1    3    3    0    0  0.17620717530E+02 -0.39820190948E+02  0.31346357524E+02  0.53653810894E+02  0.00000000000E+00 0. -1.
          1    1    1    2  501    0 -0.25671754451E+02  0.17902926824E+02  0.71934460755E+02  0.78448202080E+02  0.00000000000E+00 0. -1.
<scales pt_clust_5="13000.00000" pt_clust_6="13000.00000" pt_clust_7="13000.00000" pt_clust_8="13000.00000" pt_clust_9="31.29784"></scales>
<clustering>
<clus scale="   31.298">  2  9  1 -1</clus>
<clus scale="   78.955">  5  6 -1 -1</clus>
<clus scale="   81.250">  7  8 -1 -1</clus>
<clus scale="   86.313">  2  5  1 -1</clus>
<clus scale="   31.298">  2  5  1 -1</clus>
</clustering>
</event>
<event>
 9    2  0.6469128E-005  0.1210139E+03  0.7546771E-02  0.1260660E+00
         21   -1    0    0  501  502  0.00000000000E+00  0.00000000000E+00  0.31714511553E+03  0.31714511553E+03  0.00000000000E+00 0. -1.
          2   -1    0    0  502    0 -0.00000000000E+00 -0.00000000000E+00 -0.27872305352E+03  0.27872305352E+03  0.00000000000E+00 0. -1.
         24    2    1    2    0    0  0.20173732875E+02  0.44626274530E+01 -0.25089199231E+03  0.26416460782E+03  0.80057814593E+02 0.  0.
         23    2    1    2    0    0  0.41882973130E+01 -0.37875607991E+01  0.15780853370E+03  0.19795878119E+03  0.11938282244E+03 0.  0.
        -13    1    3    3    0    0 -0.16646027496E+00  0.29561238618E+02 -0.34755888117E+02  0.45627473045E+02  0.00000000000E+00 0.  1.
         14    1    3    3    0    0  0.20340193150E+02 -0.25098611165E+02 -0.21613610420E+03  0.21853713478E+03  0.00000000000E+00 0. -1.
        -11    1    4    4    0    0  0.31324413836E+02 -0.51311463587E+02  0.10970473360E+03  0.12509681759E+03  0.00000000000E+00 0. -1.
         11    1    4    4    0    0 -0.27136116523E+02  0.47523902788E+02  0.48103800094E+02  0.72861963600E+02  0.00000000000E+00 0.  1.
          1    1    1    2  501    0 -0.24362030188E+02 -0.67506665387E+00  0.13150552063E+03  0.13374478004E+03  0.00000000000E+00 0. -1.
<scales pt_clust_5="13000.00000" pt_clust_6="13000.00000" pt_clust_7="13000.00000" pt_clust_8="13000.00000" pt_clust_9="24.37138"></scales>
<clustering>
<clus scale="   24.371">  1  9  2 -1</clus>
<clus scale="   80.058">  5  6 -1 -1</clus>
<clus scale="   82.470">  2  5  1 -1</clus>
<clus scale="  119.383">  7  8 -1 -1</clus>
<clus scale="   24.371">  1  5  2 -1</clus>
</clustering>
</event>
<event>
 9    2  0.6469128E-005  0.1091258E+03  0.7546771E-02  0.1267559E+00
         21   -1    0    0  501  502  0.00000000000E+00  0.00000000000E+00  0.88196377669E+02  0.88196377669E+02  0.00000000000E+00 0. -1.
          2   -1    0    0  502    0 -0.00000000000E+00 -0.00000000000E+00 -0.41740096909E+03  0.41740096909E+03  0.00000000000E+00 0. -1.
         24    2    1    2    0    0  0.44208884964E+02  0.23807017241E+02 -0.19678568654E+03  0.21880897178E+03  0.81434391532E+02 0.  0.
         23    2    1    2    0    0 -0.50586716815E+02 -0.82120899557E+02  0.75231725193E+01  0.13504856268E+03  0.94226631558E+02 0.  0.
        -13    1    3    3    0    0 -0.17043862418E+02  0.19224900264E+02 -0.10687600317E+03  0.10992074459E+03  0.00000000000E+00 0.  1.
         14    1    3    3    0    0  0.61252747382E+02  0.45821169771E+01 -0.89909683366E+02  0.10888822719E+03  0.00000000000E+00 0. -1.
        -11    1    4    4    0    0  0.23110234199E+02 -0.69582673486E+01 -0.13574267665E+02  0.27690452359E+02  0.00000000000E+00 0.  1.
         11    1    4    4    0    0 -0.73696951014E+02 -0.75162632208E+02  0.21097440184E+02  0.10735811032E+03  0.00000000000E+00 0. -1.
          1    1    1    2  501    0  0.63778318512E+01  0.58313882316E+02 -0.13994207740E+03  0.15173981230E+03  0.00000000000E+00 0. -1.
<scales pt_clust_5="13000.00000" pt_clust_6="13000.00000" pt_clust_7="13000.00000" pt_clust_8="13000.00000" pt_clust_9="58.66165"></scales>
<clustering>
<clus scale="   58.662">  1  9  2 -1</clus>
<clus scale="   81.434">  5  6 -1 -1</clus>
<clus scale="   94.227">  7  8 -1 -1</clus>
<clus scale="   98.292">  2  5  1 -1</clus>
<clus scale="   58.662">  1  5  2 -1</clus>
</clustering>
</event>
<event>
 9    2  0.6469128E-005  0.3526135E+03  0.7546771E-02  0.1082079E+00
          2   -1    0    0  502    0 -0.00000000000E+00  0.00000000000E+00  0.35297104507E+04  0.35297104507E+04  0.00000000000E+00 0. -1.
         21   -1    0    0  501  502  0.00000000000E+00 -0.00000000000E+00 -0.81132858778E+02  0.81132858778E+02  0.00000000000E+00 0. -1.
         24    2    1    2    0    0 -0.40658262024E+02  0.17958732901E+03  0.26490510685E+03  0.33256249672E+03  0.80736581421E+02 0.  0.
         23    2    1    2    0    0 -0.15623165782E+03 -0.41417400234E+03  0.22749287470E+04  0.23193169295E+04  0.89340811304E+02 0.  0.
        -13    1    3    3    0    0  0.24069720872E+02  0.60698815453E+02  0.96097702434E+02  0.11618289923E+03  0.00000000000E+00 0.  1.
         14    1    3    3    0    0 -0.64727982897E+02  0.11888851356E+03  0.16880740441E+03  0.21637959749E+03  0.00000000000E+00 0. -1.
        -13    1    4    4    0    0 -0.71805732677E+02 -0.85157391299E+02  0.51511385916E+03  0.52702004937E+03  0.00000000000E+00 0.  1.
         13    1    4    4    0    0 -0.84425925148E+02 -0.32901661104E+03  0.17598148879E+04  0.17922968802E+04  0.00000000000E+00 0. -1.
          1    1    1    2  501    0  0.19688991985E+03  0.23458667333E+03  0.90874373808E+03  0.95896388323E+03  0.00000000000E+00 0. -1.
<scales pt_clust_5="13000.00000" pt_clust_6="13000.00000" pt_clust_7="13000.00000" pt_clust_8="13000.00000" pt_clust_9="341.10775"></scales>
<clustering>
<clus scale="   80.737">  5  6 -1 -1</clus>
<clus scale="   89.341">  7  8 -1 -1</clus>
<clus scale="  201.055">  1  5  2 -1</clus>
<clus scale="  341.108">  2  9  1 -1</clus>
<clus scale="  341.108">  2  5  1 -1</clus>
</clustering>
</event>
<event>
 9    2  0.6469128E-005  0.2964523E+03  0.7546771E-02  0.1112894E+00
          2   -1    0    0  502    0 -0.00000000000E+00  0.00000000000E+00  0.75396787534E+03  0.75396787534E+03  0.00000000000E+00 0. -1.
         21   -1    0    0  501  502  0.00000000000E+00 -0.00000000000E+00 -0.38054783806E+03  0.38054783806E+03  0.00000000000E+00 0. -1.
         24    2    1    2    0    0 -0.18340156723E+02 -0.12490798380E+03  0.16980932588E+02  0.15244741216E+03  0.83746615688E+02 0.  0.
         23    2    1    2    0    0 -0.17310476672E+03  0.31994493111E+03  0.53659446059E+03  0.65473586809E+03  0.91735612645E+02 0.  0.
        -11    1    3    3    0    0  0.21207131498E+00 -0.85406910376E+02  0.48866884286E+02  0.98398972017E+02  0.00000000000E+00 0.  1.
         12    1    3    3    0    0 -0.18552228038E+02 -0.39501073420E+02 -0.31885951699E+02  0.54048440146E+02  0.00000000000E+00 0. -1.
        -13    1    4    4    0    0 -0.46492604105E+02  0.18190140033E+03  0.27606126740E+03  0.33385551521E+03  0.00000000000E+00 0.  1.
         13    1    4    4    0    0 -0.12661216261E+03  0.13804353079E+03  0.26053319319E+03  0.32088035288E+03  0.00000000000E+00 0. -1.
          1    1    1    2  501    0  0.19144492344E+03 -0.19503694732E+03 -0.18015535590E+03  0.32733243315E+03  0.00000000000E+00 0. -1.
<scales pt_clust_5="13000.00000" pt_clust_6="13000.00000" pt_clust_7="13000.00000" pt_clust_8="13000.00000" pt_clust_9="281.90168"></scales>
<clustering>
<clus scale="   83.747">  5  6 -1 -1</clus>
<clus scale="   91.736">  7  8 -1 -1</clus>
<clus scale="  151.499">  1  5  2 -1</clus>
<clus scale="  281.902">  2  9  1 -1</clus>
<clus scale="  281.902">  2  5  1 -1</clus>
</clustering>
</event>
<event>
 9    2  0.6469128E-005  0.1045459E+03  0.7546771E-02  0.1275635E+00
          2   -1    0    0  502    0 -0.00000000000E+00  0.00000000000E+00  0.52862894648E+02  0.52862894648E+02  0.00000000000E+00 0. -1.
         21   -1    0    0  501  502  0.00000000000E+00 -0.00000000000E+00 -0.65737382755E+03  0.65737382755E+03  0.00000000000E+00 0. -1.
         24    2    1    2    0    0 -0.18561256111E+02 -0.35781573154E+02 -0.45852203884E+02  0.10257322585E+03  0.82425729319E+02 0.  0.
         23    2    1    2    0    0  0.10971054909E+03  0.32329460771E+02 -0.36711317758E+03  0.39550834330E+03  0.92591391882E+02 0.  0.
        -11    1    3    3    0    0 -0.35622918043E+02 -0.13940288291E+01  0.79057719248E+01  0.36516254408E+02  0.00000000000E+00 0.  1.
         12    1    3    3    0    0  0.17061661931E+02 -0.34387544325E+02 -0.53757975809E+02  0.66056971439E+02  0.00000000000E+00 0. -1.
        -13    1    4    4    0    0  0.14477834037E+02  0.36577093513E+02 -0.45912523717E+02  0.60460328169E+02  0.00000000000E+00 0.  1.
         13    1    4    4    0    0  0.95232715056E+02 -0.42476327418E+01 -0.32120065386E+03  0.33504801513E+03  0.00000000000E+00 0. -1.
          1    1    1    2  501    0 -0.91149292981E+02  0.34521123830E+01 -0.19154555143E+03  0.21215515305E+03  0.00000000000E+00 0. -1.
<scales pt_clust_5="13000.00000" pt_clust_6="13000.00000" pt_clust_7="13000.00000" pt_clust_8="13000.00000" pt_clust_9="91.21464"></scales>
<clustering>
<clus scale="   82.426">  5  6 -1 -1</clus>
<clus scale="   91.215">  2  9  1 -1</clus>
<clus scale="   92.591">  7  8 -1 -1</clus>
<clus scale="   95.659">  1  5  2 -1</clus>
<clus scale="   91.215">  2  5  1 -1</clus>
</clustering>
</event>
<event>
 9    2  0.6469128E-005  0.4382244E+03  0.7546771E-02  0.1073023E+00
          2   -1    0    0  502    0 -0.00000000000E+00  0.00000000000E+00  0.15073428349E+04  0.15073428349E+04  0.00000000000E+00 0. -1.
         21   -1    0    0  501  502  0.00000000000E+00 -0.00000000000E+00 -0.18349472724E+03  0.18349472724E+03  0.00000000000E+00 0. -1.
         24    2    1    2    0    0  0.51994063016E+02 -0.93485604432E+02  0.27029974459E+03  0.30161799603E+03  0.80427127123E+02 0.  0.
         23    2    1    2    0    0 -0.34124425319E+03 -0.25205904275E+03  0.35842602764E+03  0.56081034544E+03  0.77830745114E+02 0.  0.
        -13    1    3    3    0    0  0.30062204186E+02 -0.36502483689E+02  0.35831659665E+02  0.59330222234E+02  0.00000000000E+00 0.  1.
         14    1    3    3    0    0  0.21931858831E+02 -0.56983120743E+02  0.23446808493E+03  0.24228777380E+03  0.00000000000E+00 0. -1.
        -11    1    4    4    0    0 -0.26519748424E+02 -0.79654162398E+01  0.46251904204E+01  0.28073783122E+02  0.00000000000E+00 0.  1.
         11    1    4    4    0    0 -0.31472450477E+03 -0.24409362651E+03  0.35380083722E+03  0.53273656231E+03  0.00000000000E+00 0. -1.
          1    1    1    2  501    0  0.28925019018E+03  0.34554464718E+03  0.69512233546E+03  0.82840922072E+03  0.00000000000E+00 0. -1.
<scales pt_clust_5="13000.00000" pt_clust_6="13000.00000" pt_clust_7="13000.00000" pt_clust_8="13000.00000" pt_clust_9="431.25765"></scales>
<clustering>
<clus scale="   77.831">  7  8 -1 -1</clus>
<clus scale="   80.427">  5  6 -1 -1</clus>
<clus scale="  133.834">  1  5  2 -1</clus>
<clus scale="  431.258">  2  9  1 -1</clus>
<clus scale="  431.258">  2  5  1 -1</clus>
</clustering>
</event>
<event>
 9    2  0.6469128E-005  0.9844998E+02  0.7546771E-02  0.1289510E+00
         21   -1    0    0  501  502  0.00000000000E+00  0.00000000000E+00  0.23415838063E+03  0.23415838063E+03  0.00000000000E+00 0. -1.
         -1   -1    0    0    0  501 -0.00000000000E+00 -0.00000000000E+00 -0.62281697993E+02  0.62281697993E+02  0.00000000000E+00 0.  1.
         23    2    1    2    0    0 -0.32686828930E+02 -0.56983377113E+01  0.47332411993E+02  0.10779005139E+03  0.90980427104E+02 0.  0.
         24    2    1    2    0    0  0.45943819121E+02 -0.22420090343E+02  0.12594719352E+03  0.15753151220E+03  0.79624034154E+02 0.  0.
        -11    1    4    4    0    0  0.49076042421E+02  0.85447715577E+01  0.33615563172E+02  0.60095566792E+02  0.00000000000E+00 0.  1.
         12    1    4    4    0    0 -0.31322233005E+01 -0.30964861901E+02  0.92331630347E+02  0.97435945410E+02  0.00000000000E+00 0. -1.
        -11    1    3    3    0    0  0.16141562412E+02 -0.22828665026E+02  0.48555189550E+02  0.56029495948E+02  0.00000000000E+00 0. -1.
         11    1    3    3    0    0 -0.48828391342E+02  0.17130327315E+02 -0.12227775574E+01  0.51760555444E+02  0.00000000000E+00 0.  1.
         -2    1    1    2    0  502 -0.13256990191E+02  0.28118428055E+02 -0.14029228708E+01  0.31118515031E+02  0.00000000000E+00 0.  1.
<scales pt_clust_5="13000.00000" pt_clust_6="13000.00000" pt_clust_7="13000.00000" pt_clust_8="13000.00000" pt_clust_9="31.08689"></scales>
<clustering>
<clus scale="   31.087">  1  9  2 -1</clus>
<clus scale="   79.624">  5  6 -1 -1</clus>
<clus scale="   88.062">  1  5  2 -1</clus>
<clus scale="   90.980">  7  8 -1 -1</clus>
<clus scale="   31.087">  1  5  2 -1</clus>
</clustering>
</event>
<event>
 9    2  0.6469128E-005  0.9589315E+02  0.7546771E-02  0.1296551E+00
         21   -1    0    0  501  502  0.00000000000E+00  0.00000000000E+00  0.67362810121E+03  0.67362810121E+03  0.00000000000E+00 0. -1.
          2   -1    0    0  502    0 -0.00000000000E+00 -0.00000000000E+00 -0.66812694470E+02  0.66812694470E+02  0.00000000000E+00 0. -1.
         24    2    1    2    0    0 -0.79984687102E+01  0.17646213762E+02 -0.45780209035E+01  0.84034306323E+02  0.81642158239E+02 0.  0.
         23    2    1    2    0    0  0.50427572332E+02  0.36090789281E+02  0.13865922955E+03  0.17873974740E+03  0.94212686180E+02 0.  0.
        -11    1    3    3    0    0  0.28344869622E+02  0.18941678671E+01 -0.26425473374E+02  0.38798519931E+02  0.00000000000E+00 0.  1.
         12    1    3    3    0    0 -0.36343338333E+02  0.15752045895E+02  0.21847452470E+02  0.45235786392E+02  0.00000000000E+00 0. -1.
        -13    1    4    4    0    0  0.60171581012E+02  0.12546613752E+02  0.14033323919E+03  0.15320396437E+03  0.00000000000E+00 0.  1.
         13    1    4    4    0    0 -0.97440086805E+01  0.23544175529E+02 -0.16740096346E+01  0.25535783026E+02  0.00000000000E+00 0. -1.
          1    1    1    2  501    0 -0.42429103622E+02 -0.53737003043E+02  0.47273419809E+03  0.47766674196E+03  0.00000000000E+00 0. -1.
<scales pt_clust_5="13000.00000" pt_clust_6="13000.00000" pt_clust_7="13000.00000" pt_clust_8="13000.00000" pt_clust_9="68.46820"></scales>
<clustering>
<clus scale="   68.468">  1  9  2 -1</clus>
<clus scale="   81.642">  5  6 -1 -1</clus>
<clus scale="   83.576">  2  5  1 -1</clus>
<clus scale="   94.213">  7  8 -1 -1</clus>
<clus scale="   68.468">  1  5  2 -1</clus>
</clustering>
</event>
<event>
 9    2  0.1220928E-004  0.9108669E+02  0.7546771E-02  0.1306174E+00
         -3   -1    0    0    0  501 -0.00000000000E+00  0.00000000000E+00  0.94571368157E+02  0.94571368157E+02  0.00000000000E+00 0.  1.
         21   -1    0    0  501  502  0.00000000000E+00 -0.00000000000E+00 -0.25414511972E+03  0.25414511972E+03  0.00000000000E+00 0. -1.
         23    2    1    2    0    0 -0.11191038559E+02 -0.95993972724E+01  0.51151300744E+02  0.10418145154E+03  0.89554070287E+02 0.  0.
         24    2    1    2    0    0  0.38225780860E+02 -0.10165399460E+02 -0.13612813960E+03  0.16276570304E+03  0.79982860847E+02 0.  0.
        -13    1    4    4    0    0 -0.17858337923E+02 -0.15263425572E+02 -0.11824777438E+02  0.26300527657E+02  0.00000000000E+00 0.  1.
         14    1    4    4    0    0  0.56084118783E+02  0.50980261129E+01 -0.12430336216E+03  0.13646517539E+03  0.00000000000E+00 0. -1.
        -13    1    3    3    0    0 -0.49502500373E+02 -0.21066239582E+01  0.39725816587E+02  0.63506502904E+02  0.00000000000E+00 0.  1.
         13    1    3    3    0    0  0.38311461813E+02 -0.74927733143E+01  0.11425484157E+02  0.40674948635E+02  0.00000000000E+00 0. -1.
         -4    1    1    2    0  502 -0.27034742301E+02  0.19764796732E+02 -0.74596912715E+02  0.81769333296E+02  0.00000000000E+00 0.  1.
<scales pt_clust_5="13000.00000" pt_clust_6="13000.00000" pt_clust_7="13000.00000" pt_clust_8="13000.00000" pt_clust_9="33.48917"></scales>
<clustering>
<clus scale="   33.489">  2  9  1 -1</clus>
<clus scale="   79.983">  5  6 -1 -1</clus>
<clus scale="   81.695">  2  5  1 -1</clus>
<clus scale="   89.554">  7  8 -1 -1</clus>
<clus scale="   33.489">  2  5  1 -1</clus>
</clustering>
</event>
<event>
 9    2  0.6469128E-005  0.1119611E+03  0.7546771E-02  0.1260956E+00
         21   -1    0    0  501  502  0.00000000000E+00  0.00000000000E+00  0.86389303612E+02  0.86389303612E+02  0.00000000000E+00 0. -1.
          2   -1    0    0  502    0 -0.00000000000E+00 -0.00000000000E+00 -0.17309475541E+04  0.17309475541E+04  0.00000000000E+00 0. -1.
         24    2    1    2    0    0  0.70416289930E+02  0.88815322564E+01 -0.15589039628E+04  0.15625266722E+04  0.79187756049E+02 0.  0.
         23    2    1    2    0    0 -0.14048075117E+02 -0.54373880865E+02 -0.13162799038E+03  0.16901676640E+03  0.89927037848E+02 0.  0.
        -13    1    3    3    0    0  0.37650790417E+02 -0.11147197779E+01 -0.22120247244E+03  0.22438662712E+03  0.00000000000E+00 0.  1.
         14    1    3    3    0    0  0.32765499513E+02  0.99962520343E+01 -0.13377014903E+04  0.13381400451E+04  0.00000000000E+00 0. -1.
        -11    1    4    4    0    0 -0.38224378793E+02  0.45958593146E+01 -0.72458323796E+02  0.82051409154E+02  0.00000000000E+00 0.  1.
         11    1    4    4    0    0  0.24176303676E+02 -0.58969740180E+02 -0.59169666587E+02  0.86965357243E+02  0.00000000000E+00 0. -1.
          1    1    1    2  501    0 -0.56368214813E+02  0.45492348609E+02  0.45973702676E+02  0.85793419100E+02  0.00000000000E+00 0. -1.
<scales pt_clust_5="13000.00000" pt_clust_6="13000.00000" pt_clust_7="13000.00000" pt_clust_8="13000.00000" pt_clust_9="72.43569"></scales>
<clustering>
<clus scale="   72.436">  1  9  2 -1</clus>
<clus scale="   79.188">  5  6 -1 -1</clus>
<clus scale="   89.927">  7  8 -1 -1</clus>
<clus scale="  103.533">  2  5  1 -1</clus>
<clus scale="   72.436">  1  5  2 -1</clus>
</clustering>
</event>
<event>
 9    2  0.6469128E-005  0.2019158E+03  0.7546771E-02  0.1178267E+00
          2   -1    0    0  502    0 -0.00000000000E+00  0.00000000000E+00  0.56389735801E+03  0.56389735801E+03  0.00000000000E+00 0. -1.
         21   -1    0    0  501  502  0.00000000000E+00 -0.00000000000E+00 -0.16483218223E+03  0.16483218223E+03  0.00000000000E+00 0. -1.
         24    2    1    2    0    0 -0.18551278697E+02  0.54305240389E+02  0.26393908015E+02  0.10391105078E+03  0.82508539070E+02 0.  0.
         23    2    1    2    0    0 -0.12576967962E+03 -0.15381676612E+03  0.39072115911E+03  0.44858886272E+03  0.95348485727E+02 0.  0.
        -11    1    3    3    0    0 -0.33769808563E+02  0.85551790893E+01 -0.17252847445E+02  0.38874822245E+02  0.00000000000E+00 0.  1.
         12    1    3    3    0    0  0.15218529866E+02  0.45750061300E+02  0.43646755460E+02  0.65036228538E+02  0.00000000000E+00 0. -1.
        -13    1    4    4    0    0 -0.10562249401E+02 -0.47073205034E+02  0.34587072629E+02  0.59360873795E+02  0.00000000000E+00 0.  1.
         13    1    4    4    0    0 -0.11520743022E+03 -0.10674356109E+03  0.35613408648E+03  0.38922798893E+03  0.00000000000E+00 0. -1.
          1    1    1    2  501    0  0.14432095832E+03  0.99511525734E+02 -0.18049891345E+02  0.17622962674E+03  0.00000000000E+00 0. -1.
<scales pt_clust_5="13000.00000" pt_clust_6="13000.00000" pt_clust_7="13000.00000" pt_clust_8="13000.00000" pt_clust_9="177.98503"></scales>
<clustering>
<clus scale="   82.509">  5  6 -1 -1</clus>
<clus scale="   95.348">  7  8 -1 -1</clus>
<clus scale="  100.503">  1  5  2 -1</clus>
<clus scale="  177.985">  2  9  1 -1</clus>
<clus scale="  177.985">  2  5  1 -1</clus>
</clustering>
</event>
<event>
 9    2  0.6469128E-005  0.1858789E+03  0.7546771E-02  0.1189569E+00
         21   -1    0    0  501  502  0.00000000000E+00  0.00000000000E+00  0.59879892079E+02  0.59879892079E+02  0.00000000000E+00 0. -1.
          2   -1    0    0  502    0 -0.00000000000E+00 -0.00000000000E+00 -0.96279997557E+03  0.96279997557E+03  0.00000000000E+00 0. -1.
         24    2    1    2    0    0  0.47757330730E+02 -0.12613975455E+02 -0.31900555213E+03  0.33433983480E+03  0.87055774238E+02 0.  0.
         23    2    1    2    0    0 -0.18020288035E+03  0.14453692995E+02 -0.21130825398E+03  0.29289010414E+03  0.91931754982E+02 0.  0.
        -11    1    3    3    0    0 -0.41568803132E+01  0.31607140515E+02 -0.10462087755E+03  0.10937010106E+03  0.00000000000E+00 0.  1.
         12    1    3    3    0    0  0.51914211043E+02 -0.44221115970E+02 -0.21438467458E+03  0.22496973374E+03  0.00000000000E+00 0. -1.
        -11    1    4    4    0    0 -0.15966184276E+03  0.97773277664E+01 -0.12212132369E+03  0.20124889533E+03  0.00000000000E+00 0. -1.
         11    1    4    4    0    0 -0.20541037588E+02  0.46763652285E+01 -0.89186930288E+02  0.91641208804E+02  0.00000000000E+00 0.  1.
          1    1    1    2  501    0  0.13244554962E+03 -0.18397175401E+01 -0.37260627738E+03  0.39544992871E+03  0.00000000000E+00 0. -1.
<scales pt_clust_5="13000.00000" pt_clust_6="13000.00000" pt_clust_7="13000.00000" pt_clust_8="13000.00000" pt_clust_9="161.55349"></scales>
<clustering>
<clus scale="   87.056">  5  6 -1 -1</clus>
<clus scale="   91.932">  7  8 -1 -1</clus>
<clus scale="  100.093">  2  5  1 -1</clus>
<clus scale="  161.553">  1  9  2 -1</clus>
<clus scale="  161.553">  1  5  2 -1</clus>
</clustering>
</event>
<event>
 9    2  0.6469128E-005  0.1458597E+03  0.7546771E-02  0.1207788E+00
          2   -1    0    0  502    0 -0.00000000000E+00  0.00000000000E+00  0.46775462788E+03  0.46775462788E+03  0.00000000000E+00 0. -1.
         21   -1    0    0  501  502  0.00000000000E+00 -0.00000000000E+00 -0.75597792811E+02  0.75597792811E+02  0.00000000000E+00 0. -1.
         23    2    1    2    0    0 -0.13310930509E+03  0.76054099793E+01  0.19571799233E+03  0.25385456594E+03  0.91436747342E+02 0.  0.
         24    2    1    2    0    0  0.85234437924E+02  0.11337307800E+02  0.39463386055E+02  0.12429457553E+03  0.80612273949E+02 0.  0.
        -11    1    4    4    0    0  0.99280917843E+01 -0.24758930395E+02  0.30165449897E+02  0.40268176123E+02  0.00000000000E+00 0.  1.
         12    1    4    4    0    0  0.75306346140E+02  0.36096238195E+02  0.92979361578E+01  0.84026399408E+02  0.00000000000E+00 0. -1.
        -11    1    3    3    0    0 -0.32627805125E+02 -0.24510596734E+02  0.12924884472E+02  0.42806490841E+02  0.00000000000E+00 0.  1.
         11    1    3    3    0    0 -0.10048149997E+03  0.32116006714E+02  0.18279310786E+03  0.21104807510E+03  0.00000000000E+00 0. -1.
          1    1    1    2  501    0  0.47874867168E+02 -0.18942717779E+02  0.15697545668E+03  0.16520327922E+03  0.00000000000E+00 0. -1.
<scales pt_clust_5="13000.00000" pt_clust_6="13000.00000" pt_clust_7="13000.00000" pt_clust_8="13000.00000" pt_clust_9="51.48623"></scales>
<clustering>
<clus scale="   51.486">  2  9  1 -1</clus>
<clus scale="   80.612">  5  6 -1 -1</clus>
<clus scale="   91.437">  7  8 -1 -1</clus>
<clus scale="  139.330">  2  5  1 -1</clus>
<clus scale="   51.486">  2  5  1 -1</clus>
</clustering>
</event>
<event>
 9    2  0.6469128E-005  0.9261093E+02  0.7546771E-02  0.1301637E+00
          2   -1    0    0  502    0 -0.00000000000E+00  0.00000000000E+00  0.66791033569E+03  0.66791033569E+03  0.00000000000E+00 0. -1.
         21   -1    0    0  501  502  0.00000000000E+00 -0.00000000000E+00 -0.89228431951E+02  0.89228431951E+02  0.00000000000E+00 0.  1.
         24    2    1    2    0    0  0.12540289956E+02  0.10660303295E+02  0.58509325019E+03  0.59112575691E+03  0.82611428532E+02 0.  0.
         23    2    1    2    0    0 -0.53224763308E+02  0.16779261344E+02  0.22534827546E+02  0.10903900729E+03  0.90924516040E+02 0.  0.
        -13    1    3    3    0    0 -0.18949588500E+02  0.25399981104E+02  0.10262684609E+03  0.10740817232E+03  0.00000000000E+00 0.  1.
         14    1    3    3    0    0  0.31489878456E+02 -0.14739677810E+02  0.48246640410E+03  0.48371758458E+03  0.00000000000E+00 0. -1.
        -13    1    4    4    0    0 -0.24994806328E+02 -0.14320995556E+02 -0.30124115888E+02  0.41680854299E+02  0.00000000000E+00 0.  1.
         13    1    4    4    0    0 -0.28229956981E+02  0.31100256899E+02  0.52658943434E+02  0.67358152988E+02  0.00000000000E+00 0. -1.
          1    1    1    2  501    0  0.40684473352E+02 -0.27439564638E+02 -0.28946173999E+02  0.56974003446E+02  0.00000000000E+00 0. -1.
<scales pt_clust_5="13000.00000" pt_clust_6="13000.00000" pt_clust_7="13000.00000" pt_clust_8="13000.00000" pt_clust_9="49.07297"></scales>
<clustering>
<clus scale="   49.073">  2  9  1 -1</clus>
<clus scale="   82.611">  5  6 -1 -1</clus>
<clus scale="   84.464">  1  5  2 -1</clus>
<clus scale="   90.925">  7  8 -1 -1</clus>
<clus scale="   49.073">  2  5  1 -1</clus>
</clustering>
</event>
<event>
 9    2  0.6469128E-005  0.1644655E+03  0.7546771E-02  0.1193857E+00
         21   -1    0    0  501  502  0.00000000000E+00  0.00000000000E+00  0.11182289375E+03  0.11182289375E+03  0.00000000000E+00 0. -1.
          2   -1    0    0  502    0 -0.00000000000E+00 -0.00000000000E+00 -0.60829150099E+03  0.60829150099E+03  0.00000000000E+00 0. -1.
         24    2    1    2    0    0  0.98459070269E+02 -0.36988580442E+02 -0.32000295937E+03  0.34595982516E+03  0.78892097305E+02 0.  0.
         23    2    1    2    0    0 -0.46878456258E+02 -0.12287243234E+03 -0.59660369008E+02  0.16955843980E+03  0.88856516853E+02 0.  0.
        -13    1    3    3    0    0  0.15277814527E+02 -0.43033839959E+02 -0.83331415594E+02  0.95023406713E+02  0.00000000000E+00 0.  1.
         14    1    3    3    0    0  0.83181255743E+02  0.60452595175E+01 -0.23667154377E+03  0.25093641844E+03  0.00000000000E+00 0. -1.
        -11    1    4    4    0    0 -0.27569819600E+02 -0.42864076122E+02 -0.70019895757E+02  0.86603751514E+02  0.00000000000E+00 0.  1.
         11    1    4    4    0    0 -0.19308636658E+02 -0.80008356217E+02  0.10359526749E+02  0.82954688286E+02  0.00000000000E+00 0. -1.
          1    1    1    2  501    0 -0.51580614011E+02  0.15986101278E+03 -0.11680527887E+03  0.20459612978E+03  0.00000000000E+00 0. -1.
<scales pt_clust_5="13000.00000" pt_clust_6="13000.00000" pt_clust_7="13000.00000" pt_clust_8="13000.00000" pt_clust_9="138.39598"></scales>
<clustering>
<clus scale="   78.892">  5  6 -1 -1</clus>
<clus scale="   88.857">  7  8 -1 -1</clus>
<clus scale="  131.477">  2  5  1 -1</clus>
<clus scale="  138.396">  1  9  2 -1</clus>
<clus scale="  138.396">  1  5  2 -1</clus>
</clustering>
</event>
<event>
 9    2  0.6469128E-005  0.1093041E+03  0.7546771E-02  0.1265243E+00
         21   -1    0    0  501  502  0.00000000000E+00  0.00000000000E+00  0.86562769115E+02  0.86562769115E+02  0.00000000000E+00 0. -1.
          2   -1    0    0  502    0 -0.00000000000E+00 -0.00000000000E+00 -0.27887613899E+03  0.27887613899E+03  0.00000000000E+00 0. -1.
         24    2    1    2    0    0 -0.64651176474E+02  0.70088101919E+01 -0.15913550857E+03  0.19038184816E+03  0.81806112138E+02 0.  0.
         23    2    1    2    0    0  0.55551800495E+02  0.16421401960E+02 -0.71670802520E+02  0.12908445932E+03  0.90390423846E+02 0.  0.
        -11    1    3    3    0    0 -0.16812632152E+02 -0.11124037332E+02  0.29862143098E+01  0.20379555499E+02  0.00000000000E+00 0.  1.
         12    1    3    3    0    0 -0.47838544322E+02  0.18132847524E+02 -0.16212172288E+03  0.17000229267E+03  0.00000000000E+00 0. -1.
        -11    1    4    4    0    0  0.21759398637E+02  0.52627991984E+02 -0.30044297517E+02  0.64388172692E+02  0.00000000000E+00 0. -1.
         11    1    4    4    0    0  0.33792401858E+02 -0.36206590024E+02 -0.41626505003E+02  0.64696286627E+02  0.00000000000E+00 0.  1.
          1    1    1    2  501    0  0.90993759791E+01 -0.23430212152E+02  0.38492941214E+02  0.45972600623E+02  0.00000000000E+00 0. -1.
<scales pt_clust_5="13000.00000" pt_clust_6="13000.00000" pt_clust_7="13000.00000" pt_clust_8="13000.00000" pt_clust_9="25.13510"></scales>
<clustering>
<clus scale="   25.135">  1  9  2 -1</clus>
<clus scale="   81.806">  5  6 -1 -1</clus>
<clus scale="   90.390">  7  8 -1 -1</clus>
<clus scale="  102.319">  2  5  1 -1</clus>
<clus scale="   25.135">  1  5  2 -1</clus>
</clustering>
</event>
<event>
 9    2  0.6469128E-005  0.1601888E+03  0.7546771E-02  0.1210746E+00
          2   -1    0    0  502    0 -0.00000000000E+00  0.00000000000E+00  0.79134949613E+03  0.79134949613E+03  0.00000000000E+00 0. -1.
         21   -1    0    0  501  502  0.00000000000E+00 -0.00000000000E+00 -0.60873098639E+02  0.60873098639E+02  0.00000000000E+00 0. -1.
         24    2    1    2    0    0  0.43848617735E+02  0.37380355610E+02  0.18545779909E+03  0.21010435608E+03  0.80182622414E+02 0.  0.
         23    2    1    2    0    0  0.67802542164E+02 -0.11322609896E+03  0.44847119843E+03  0.47616656279E+03  0.90503289965E+02 0.  0.
        -11    1    3    3    0    0 -0.21349320450E+02  0.68405678806E+01  0.21617783160E+02  0.31143464826E+02  0.00000000000E+00 0.  1.
         12    1    3    3    0    0  0.65197938185E+02  0.30539787729E+02  0.16384001593E+03  0.17896089126E+03  0.00000000000E+00 0. -1.
        -13    1    4    4    0    0  0.50641131369E+02 -0.29999847430E+02  0.88393722591E+02  0.10619776469E+03  0.00000000000E+00 0.  1.
         13    1    4    4    0    0  0.17161410796E+02 -0.83226251531E+02  0.36007747584E+03  0.36996879810E+03  0.00000000000E+00 0. -1.
          1    1    1    2  501    0 -0.11165115990E+03  0.75845743351E+02  0.96547399972E+02  0.16595167590E+03  0.00000000000E+00 0. -1.
<scales pt_clust_5="13000.00000" pt_clust_6="13000.00000" pt_clust_7="13000.00000" pt_clust_8="13000.00000" pt_clust_9="132.17263"></scales>
<clustering>
<clus scale="   80.183">  5  6 -1 -1</clus>
<clus scale="   90.503">  7  8 -1 -1</clus>
<clus scale="   98.738">  1  5  2 -1</clus>
<clus scale="  132.173">  2  9  1 -1</clus>
<clus scale="  132.173">  2  5  1 -1</clus>
</clustering>
</event>
<event>
 9    2  0.6469128E-005  0.9721185E+02  0.7546771E-02  0.1291416E+00
         21   -1    0    0  501  502  0.00000000000E+00  0.00000000000E+00  0.18072130669E+02  0.18072130669E+02  0.00000000000E+00 0.  1.
          2   -1    0    0  502    0 -0.00000000000E+00 -0.00000000000E+00 -0.78765505768E+03  0.78765505768E+03  0.00000000000E+00 0. -1.
         24    2    1    2    0    0 -0.12458473720E+02  0.34620242579E+02 -0.46328492655E+03  0.47157680506E+03  0.79987406100E+02 0.  0.
         23    2    1    2    0    0 -0.17975225598E+02 -0.43253343232E+02 -0.24689967731E+03  0.26685327136E+03  0.89762226716E+02 0.  0.
        -11    1    3    3    0    0  0.33259796576E+02  0.52150527417E+01 -0.17237759209E+03  0.17563440750E+03  0.00000000000E+00 0.  1.
         12    1    3    3    0    0 -0.45718270295E+02  0.29405189837E+02 -0.29090733446E+03  0.29594239755E+03  0.00000000000E+00 0. -1.
        -11    1    4    4    0    0 -0.17833152083E+02 -0.70323878096E+02 -0.15672090463E+03  0.17269890299E+03  0.00000000000E+00 0.  1.
         11    1    4    4    0    0 -0.14207351515E+00  0.27070534865E+02 -0.90178772674E+02  0.94154368374E+02  0.00000000000E+00 0. -1.
          1    1    1    2  501    0  0.30433699318E+02  0.86331006528E+01 -0.59398323151E+02  0.67297111930E+02  0.00000000000E+00 0. -1.
<scales pt_clust_5="13000.00000" pt_clust_6="13000.00000" pt_clust_7="13000.00000" pt_clust_8="13000.00000" pt_clust_9="31.63448"></scales>
<clustering>
<clus scale="   31.634">  1  9  2 -1</clus>
<clus scale="   79.987">  5  6 -1 -1</clus>
<clus scale="   88.266">  2  5  1 -1</clus>
<clus scale="   89.762">  7  8 -1 -1</clus>
<clus scale="   31.634">  1  5  2 -1</clus>
</clustering>
</event>
<event>
 9    2  0.6469128E-005  0.2024573E+03  0.7546771E-02  0.1148662E+00
          2   -1    0    0  502    0 -0.00000000000E+00  0.00000000000E+00  0.46973644034E+03  0.46973644034E+03  0.00000000000E+00 0. -1.
         21   -1    0    0  501  502  0.00000000000E+00 -0.00000000000E+00 -0.13434261401E+03  0.13434261401E+03  0.00000000000E+00 0. -1.
         24    2    1    2    0    0  0.14353546226E+03 -0.87222827051E+02  0.13319356292E+03  0.22909391540E+03  0.80828499842E+02 0.  0.
         23    2    1    2    0    0 -0.19950045024E+03  0.51104112341E+02  0.86413826514E+02  0.24140692067E+03  0.91640013025E+02 0.  0.
        -13    1    3    3    0    0  0.88740446675E+01 -0.40292990735E+02  0.15085049403E+02  0.43929858713E+02  0.00000000000E+00 0.  1.
         14    1    3    3    0    0  0.13466141759E+03 -0.46929836316E+02  0.11810851351E+03  0.18516405669E+03  0.00000000000E+00 0. -1.
        -11    1    4    4    0    0 -0.14787771403E+02 -0.20156006829E+02 -0.92603575510E+00  0.25016001610E+02  0.00000000000E+00 0.  1.
         11    1    4    4    0    0 -0.18471267884E+03  0.71260119170E+02  0.87339862269E+02  0.21639091906E+03  0.00000000000E+00 0. -1.
          1    1    1    2  501    0  0.55964987982E+02  0.36118714710E+02  0.11578643690E+03  0.13357821829E+03  0.00000000000E+00 0. -1.
<scales pt_clust_5="13000.00000" pt_clust_6="13000.00000" pt_clust_7="13000.00000" pt_clust_8="13000.00000" pt_clust_9="66.60815"></scales>
<clustering>
<clus scale="   66.608">  2  9  1 -1</clus>
<clus scale="   80.828">  5  6 -1 -1</clus>
<clus scale="   91.640">  7  8 -1 -1</clus>
<clus scale="  197.799">  1  5  2 -1</clus>
<clus scale="   66.608">  2  5  1 -1</clus>
</clustering>
</event>
<event>
 9    2  0.6469128E-005  0.1153400E+03  0.7546771E-02  0.1251989E+00
          2   -1    0    0  502    0 -0.00000000000E+00  0.00000000000E+00  0.10509833012E+04  0.10509833012E+04  0.00000000000E+00 0. -1.
         21   -1    0    0  501  502  0.00000000000E+00 -0.00000000000E+00 -0.41098246830E+02  0.41098246830E+02  0.00000000000E+00 0.  1.
         24    2    1    2    0    0  0.62362681850E+02  0.24710651100E+02  0.87929809908E+03  0.88636733107E+03  0.89343036552E+02 0.  0.
         23    2    1    2    0    0 -0.81869640159E+02 -0.39627124711E+02  0.88100165208E+02  0.15664131263E+03  0.92205828012E+02 0.  0.
        -13    1    3    3    0    0 -0.15964459010E+02  0.17561950795E+02  0.87144315149E+02  0.90318424089E+02  0.00000000000E+00 0.  1.
         14    1    3    3    0    0  0.78327140860E+02  0.71487003044E+01  0.79215378393E+03  0.79604890699E+03  0.00000000000E+00 0. -1.
        -13    1    4    4    0    0 -0.83060882014E+02 -0.63775445522E+02  0.65320828027E+02  0.12342296442E+03  0.00000000000E+00 0.  1.
         13    1    4    4    0    0  0.11912418555E+01  0.24148320810E+02  0.22779337181E+02  0.33218348206E+02  0.00000000000E+00 0. -1.
          1    1    1    2  501    0  0.19506958309E+02  0.14916473612E+02  0.42486790048E+02  0.49072904296E+02  0.00000000000E+00 0. -1.
<scales pt_clust_5="13000.00000" pt_clust_6="13000.00000" pt_clust_7="13000.00000" pt_clust_8="13000.00000" pt_clust_9="24.55652"></scales>
<clustering>
<clus scale="   24.557">  2  9  1 -1</clus>
<clus scale="   89.343">  5  6 -1 -1</clus>
<clus scale="   92.206">  7  8 -1 -1</clus>
<clus scale="  113.064">  1  5  2 -1</clus>
<clus scale="   24.557">  2  5  1 -1</clus>
</clustering>
</event>
<event>
 9    2  0.6469128E-005  0.9682358E+02  0.7546771E-02  0.1293469E+00
         21   -1    0    0  501  502  0.00000000000E+00  0.00000000000E+00  0.47955273697E+02  0.47955273697E+02  0.00000000000E+00 0. -1.
          2   -1    0    0  502    0 -0.00000000000E+00 -0.00000000000E+00 -0.27498494610E+03  0.27498494610E+03  0.00000000000E+00 0. -1.
         23    2    1    2    0    0  0.23778921614E+02 -0.40877861037E+02 -0.12389095101E+03  0.16135260883E+03  0.91919856374E+02 0.  0.
         24    2    1    2    0    0  0.94093305327E+01  0.16518680379E+02 -0.61238413922E+02  0.10284694764E+03  0.80411124832E+02 0.  0.
        -11    1    4    4    0    0 -0.23106335446E+02 -0.92400162991E+01  0.43290836420E+01  0.25259089535E+02  0.00000000000E+00 0.  1.
         12    1    4    4    0    0  0.32515665979E+02  0.25758696678E+02 -0.65567497564E+02  0.77587858105E+02  0.00000000000E+00 0. -1.
        -11    1    3    3    0    0 -0.16223928214E+02  0.22878056400E+02 -0.36076665041E+02  0.45696247896E+02  0.00000000000E+00 0.  1.
         11    1    3    3    0    0  0.40002849828E+02 -0.63755917437E+02 -0.87814285974E+02  0.11565636093E+03  0.00000000000E+00 0. -1.
          1    1    1    2  501    0 -0.33188252147E+02  0.24359180658E+02 -0.41900307470E+02  0.58740663334E+02  0.00000000000E+00 0. -1.
<scales pt_clust_5="13000.00000" pt_clust_6="13000.00000" pt_clust_7="13000.00000" pt_clust_8="13000.00000" pt_clust_9="41.16833"></scales>
<clustering>
<clus scale="   41.168">  1  9  2 -1</clus>
<clus scale="   80.411">  5  6 -1 -1</clus>
<clus scale="   85.974">  1  5  2 -1</clus>
<clus scale="   91.920">  7  8 -1 -1</clus>
<clus scale="   41.168">  1  5  2 -1</clus>
</clustering>
</event>
<event>
 9    2  0.6469128E-005  0.2033341E+03  0.7546771E-02  0.1146956E+00
         21   -1    0    0  501  502  0.00000000000E+00  0.00000000000E+00  0.39869947503E+03  0.39869947503E+03  0.00000000000E+00 0. -1.
          2   -1    0    0  502    0 -0.00000000000E+00 -0.00000000000E+00 -0.57642890174E+02  0.57642890174E+02  0.00000000000E+00 0. -1.
         24    2    1    2    0    0 -0.49156786246E+02 -0.46607761937E+01  0.11991600394E+03  0.15523211224E+03  0.85317338231E+02 0.  0.
         23    2    1    2    0    0 -0.46688740513E+02 -0.90607314755E+01  0.79737867368E+02  0.12973530680E+03  0.90615600158E+02 0.  0.
        -13    1    3    3    0    0 -0.43342470769E+02  0.33073874678E+02  0.43273838230E+02  0.69606580391E+02  0.00000000000E+00 0.  1.
         14    1    3    3    0    0 -0.58143154772E+01 -0.37734650872E+02  0.76642165708E+02  0.85625531854E+02  0.00000000000E+00 0. -1.
        -11    1    4    4    0    0 -0.29309226575E+02  0.30354655132E+02  0.75447673851E+02  0.86445285239E+02  0.00000000000E+00 0. -1.
         11    1    4    4    0    0 -0.17379513938E+02 -0.39415386608E+02  0.42901935176E+01  0.43290021559E+02  0.00000000000E+00 0.  1.
          1    1    1    2  501    0  0.95845526759E+02  0.13721507669E+02  0.14140271355E+03  0.17137494616E+03  0.00000000000E+00 0. -1.
<scales pt_clust_5="13000.00000" pt_clust_6="13000.00000" pt_clust_7="13000.00000" pt_clust_8="13000.00000" pt_clust_9="96.82275"></scales>
<clustering>
<clus scale="   85.317">  5  6 -1 -1</clus>
<clus scale="   90.616">  7  8 -1 -1</clus>
<clus scale="   95.866">  5  7 -1 -1</clus>
<clus scale="   96.823">  1  9  2 -1</clus>
<clus scale="   96.823">  1  5  2 -1</clus>
</clustering>
</event>
<event>
 9    2  0.6469128E-005  0.1038771E+03  0.7546771E-02  0.1278902E+00
         21   -1    0    0  501  502  0.00000000000E+00  0.00000000000E+00  0.10625408614E+03  0.10625408614E+03  0.00000000000E+00 0. -1.
         -1   -1    0    0    0  501 -0.00000000000E+00 -0.00000000000E+00 -0.29467406257E+03  0.29467406257E+03  0.00000000000E+00 0.  1.
         24    2    1    2    0    0 -0.37023606516E+02 -0.17416175376E+02 -0.18067551857E+03  0.20121710724E+03  0.78553234392E+02 0.  0.
         23    2    1    2    0    0  0.63726457799E+02  0.21079390143E+02 -0.68471101429E+02  0.13327169584E+03  0.92561606878E+02 0.  0.
        -13    1    3    3    0    0 -0.55147014895E+00 -0.43540333056E+02 -0.82887251688E+02  0.93628848195E+02  0.00000000000E+00 0.  1.
         14    1    3    3    0    0 -0.36472136367E+02  0.26124157680E+02 -0.97788266880E+02  0.10758825905E+03  0.00000000000E+00 0. -1.
        -13    1    4    4    0    0  0.28315651358E+02  0.38446183653E+02  0.68620197464E+01  0.48238702971E+02  0.00000000000E+00 0. -1.
         13    1    4    4    0    0  0.35410806440E+02 -0.17366793511E+02 -0.75333121175E+02  0.85032992865E+02  0.00000000000E+00 0.  1.
         -2    1    1    2    0  502 -0.26702851283E+02 -0.36632147666E+01  0.60726643565E+02  0.66439345630E+02  0.00000000000E+00 0.  1.
<scales pt_clust_5="13000.00000" pt_clust_6="13000.00000" pt_clust_7="13000.00000" pt_clust_8="13000.00000" pt_clust_9="26.95295"></scales>
<clustering>
<clus scale="   26.953">  1  9  2 -1</clus>
<clus scale="   78.553">  5  6 -1 -1</clus>
<clus scale="   91.616">  2  5  1 -1</clus>
<clus scale="   92.562">  7  8 -1 -1</clus>
<clus scale="   26.953">  1  5  2 -1</clus>
</clustering>
</event>
<event>
 9    2  0.6469128E-005  0.4075815E+03  0.7546771E-02  0.1092358E+00
          2   -1    0    0  502    0 -0.00000000000E+00  0.00000000000E+00  0.69495963328E+03  0.69495963328E+03  0.00000000000E+00 0. -1.
         21   -1    0    0  501  502  0.00000000000E+00 -0.00000000000E+00 -0.33832374185E+03  0.33832374185E+03  0.00000000000E+00 0. -1.
         24    2    1    2    0    0  0.50965157076E+02 -0.30288497390E+02 -0.25051057140E+02  0.10218925934E+03  0.79374107558E+02 0.  0.
         23    2    1    2    0    0 -0.31759406915E+03  0.29763787004E+03  0.32105092991E+03  0.54867629381E+03  0.92291285380E+02 0.  0.
        -13    1    3    3    0    0  0.22505028259E+02 -0.52307730877E+02 -0.32323382922E+02  0.65478058080E+02  0.00000000000E+00 0.  1.
         14    1    3    3    0    0  0.28460128817E+02  0.22019233487E+02  0.72723257822E+01  0.36711201259E+02  0.00000000000E+00 0. -1.
        -11    1    4    4    0    0 -0.31299571327E+03  0.26495190658E+03  0.28272449383E+03  0.49809534101E+03  0.00000000000E+00 0. -1.
         11    1    4    4    0    0 -0.45983558844E+01  0.32685963459E+02  0.38326436083E+02  0.50580952807E+02  0.00000000000E+00 0.  1.
          1    1    1    2  501    0  0.26662891207E+03 -0.26734937265E+03  0.60636018655E+02  0.38241782198E+03  0.00000000000E+00 0. -1.
<scales pt_clust_5="13000.00000" pt_clust_6="13000.00000" pt_clust_7="13000.00000" pt_clust_8="13000.00000" pt_clust_9="396.99497"></scales>
<clustering>
<clus scale="   79.374">  5  6 -1 -1</clus>
<clus scale="   92.291">  7  8 -1 -1</clus>
<clus scale="   99.071">  1  5  2 -1</clus>
<clus scale="  396.995">  2  9  1 -1</clus>
<clus scale="  396.995">  2  5  1 -1</clus>
</clustering>
</event>
<event>
 9    2  0.6469128E-005  0.2128473E+03  0.7546771E-02  0.1154751E+00
         21   -1    0    0  501  502  0.00000000000E+00  0.00000000000E+00  0.32647710855E+03  0.32647710855E+03  0.00000000000E+00 0.  1.
          2   -1    0    0  502    0 -0.00000000000E+00 -0.00000000000E+00 -0.39076893352E+03  0.39076893352E+03  0.00000000000E+00 0. -1.
         24    2    1    2    0    0 -0.11389448425E+03  0.45403335979E+02  0.14313173832E+03  0.20547029048E+03  0.81840877917E+02 0.  0.
         23    2    1    2    0    0 -0.15455469352E+03 -0.48696234126E+02 -0.27032762442E+02  0.18833078679E+03  0.92082780705E+02 0.  0.
        -11    1    3    3    0    0 -0.22331489272E+02  0.48829602176E+02  0.36735949261E+02  0.65058092732E+02  0.00000000000E+00 0.  1.
         12    1    3    3    0    0 -0.91562994976E+02 -0.34262661977E+01  0.10639578905E+03  0.14041219775E+03  0.00000000000E+00 0. -1.
        -11    1    4    4    0    0 -0.10830398182E+03 -0.68450453191E+02  0.58278458463E+01  0.12825435979E+03  0.00000000000E+00 0.  1.
         11    1    4    4    0    0 -0.46250711705E+02  0.19754219065E+02 -0.32860608288E+02  0.60076427000E+02  0.00000000000E+00 0. -1.
          1    1    1    2  501    0  0.26844917777E+03  0.32928981475E+01 -0.18039080084E+03  0.32344496479E+03  0.00000000000E+00 0. -1.
<scales pt_clust_5="13000.00000" pt_clust_6="13000.00000" pt_clust_7="13000.00000" pt_clust_8="13000.00000" pt_clust_9="191.89781"></scales>
<clustering>
<clus scale="   81.841">  5  6 -1 -1</clus>
<clus scale="   92.083">  7  8 -1 -1</clus>
<clus scale="  147.416">  2  5  1 -1</clus>
<clus scale="  191.898">  1  9  2 -1</clus>
<clus scale="  191.898">  1  5  2 -1</clus>
</clustering>
</event>
<event>
 9    2  0.6469128E-005  0.2371959E+03  0.7546771E-02  0.1162365E+00
         21   -1    0    0  501  502  0.00000000000E+00  0.00000000000E+00  0.13085993504E+03  0.13085993504E+03  0.00000000000E+00 0.  1.
         -3   -1    0    0    0  501 -0.00000000000E+00 -0.00000000000E+00 -0.64963244948E+03  0.64963244948E+03  0.00000000000E+00 0.  1.
         24    2    1    2    0    0  0.19225140438E+02 -0.49374480133E+01 -0.21857967420E+03  0.23607166056E+03  0.86941190050E+02 0.  0.
         23    2    1    2    0    0 -0.19718717148E+02  0.21892263246E+03 -0.15679110268E+03  0.28682809768E+03  0.96803723742E+02 0.  0.
        -11    1    3    3    0    0  0.46788286220E+02 -0.24836756772E+02 -0.15748982427E+03  0.16615972125E+03  0.00000000000E+00 0.  1.
         12    1    3    3    0    0 -0.27563145782E+02  0.19899308759E+02 -0.61089849929E+02  0.69911939315E+02  0.00000000000E+00 0. -1.
        -11    1    4    4    0    0 -0.25592562016E+02  0.19258101954E+03 -0.16872938865E+03  0.25731699305E+03  0.00000000000E+00 0.  1.
         11    1    4    4    0    0  0.58738448682E+01  0.26341612915E+02  0.11938285969E+02  0.29511104628E+02  0.00000000000E+00 0. -1.
         -4    1    1    2    0  502  0.49357670946E+00 -0.21398518444E+03 -0.14340173756E+03  0.25759262628E+03  0.00000000000E+00 0.  1.
<scales pt_clust_5="13000.00000" pt_clust_6="13000.00000" pt_clust_7="13000.00000" pt_clust_8="13000.00000" pt_clust_9="216.54316"></scales>
<clustering>
<clus scale="   86.941">  5  6 -1 -1</clus>
<clus scale="   89.178">  2  5  1 -1</clus>
<clus scale="   96.804">  7  8 -1 -1</clus>
<clus scale="  216.543">  1  9  2 -1</clus>
<clus scale="  216.543">  1  5  2 -1</clus>
</clustering>
</event>
<event>
 9    2  0.6469128E-005  0.1346055E+03  0.7546771E-02  0.1222036E+00
          4   -1    0    0  502    0 -0.00000000000E+00  0.00000000000E+00  0.16922295490E+03  0.16922295490E+03  0.00000000000E+00 0. -1.
         21   -1    0    0  501  502  0.00000000000E+00 -0.00000000000E+00 -0.22072904879E+03  0.22072904879E+03  0.00000000000E+00 0.  1.
         23    2    1    2    0    0 -0.98995638223E+02  0.23872551110E+02  0.10730409822E+03  0.17441724420E+03  0.92396809980E+02 0.  0.
         24    2    1    2    0    0  0.74884500660E+02 -0.22057940606E+02 -0.14890782267E+03  0.18940629443E+03  0.87217908340E+02 0.  0.
        -11    1    4    4    0    0  0.35815437801E+02 -0.51085366013E+02 -0.53030738319E+02  0.81882351042E+02  0.00000000000E+00 0.  1.
         12    1    4    4    0    0  0.39069062860E+02  0.29027425407E+02 -0.95877084350E+02  0.10752394339E+03  0.00000000000E+00 0. -1.
        -13    1    3    3    0    0 -0.28634609500E+02 -0.34462323149E+02  0.24392240982E+02  0.51015429021E+02  0.00000000000E+00 0.  1.
         13    1    3    3    0    0 -0.70361028722E+02  0.58334874260E+02  0.82911857238E+02  0.12340181517E+03  0.00000000000E+00 0. -1.
          3    1    1    2  501    0  0.24111137562E+02 -0.18146105049E+01 -0.99023694396E+01  0.26128465059E+02  0.00000000000E+00 0. -1.
<scales pt_clust_5="13000.00000" pt_clust_6="13000.00000" pt_clust_7="13000.00000" pt_clust_8="13000.00000" pt_clust_9="24.17933"></scales>
<clustering>
<clus scale="   24.179">  2  9  1 -1</clus>
<clus scale="   87.218">  5  6 -1 -1</clus>
<clus scale="   92.397">  7  8 -1 -1</clus>
<clus scale="  131.105">  2  5  1 -1</clus>
<clus scale="   24.179">  2  5  1 -1</clus>
</clustering>
</event>
<event>
 9    2  0.6469128E-005  0.9643870E+02  0.7546771E-02  0.1295120E+00
          2   -1    0    0  502    0 -0.00000000000E+00  0.00000000000E+00  0.10724236811E+04  0.10724236811E+04  0.00000000000E+00 0. -1.
         21   -1    0    0  501  502  0.00000000000E+00 -0.00000000000E+00 -0.41730424239E+02  0.41730424239E+02  0.00000000000E+00 0. -1.
         24    2    1    2    0    0  0.22851346373E+02 -0.13096029951E+02  0.87971418521E+03  0.88364667895E+03  0.78998199522E+02 0.  0.
         23    2    1    2    0    0 -0.44216843898E+02  0.61100806195E+02  0.12293158498E+03  0.17094565564E+03  0.91770391711E+02 0.  0.
        -13    1    3    3    0    0 -0.10055532305E+02  0.21870104822E+02  0.11852403435E+03  0.12094363123E+03  0.00000000000E+00 0.  1.
         14    1    3    3    0    0  0.32906878678E+02 -0.34966134773E+02  0.76119015085E+03  0.76270304772E+03  0.00000000000E+00 0. -1.
        -13    1    4    4    0    0 -0.14947390827E+02  0.78365378399E+02  0.61461223347E+02  0.10070769087E+03  0.00000000000E+00 0.  1.
         13    1    4    4    0    0 -0.29269453071E+02 -0.17264572204E+02  0.61470361632E+02  0.70237964774E+02  0.00000000000E+00 0. -1.
          1    1    1    2  501    0  0.21365497524E+02 -0.48004776243E+02  0.28047486678E+02  0.59561770756E+02  0.00000000000E+00 0. -1.
<scales pt_clust_5="13000.00000" pt_clust_6="13000.00000" pt_clust_7="13000.00000" pt_clust_8="13000.00000" pt_clust_9="52.54468"></scales>
<clustering>
<clus scale="   52.545">  2  9  1 -1</clus>
<clus scale="   78.998">  5  6 -1 -1</clus>
<clus scale="   84.376">  1  5  2 -1</clus>
<clus scale="   91.770">  7  8 -1 -1</clus>
<clus scale="   52.545">  2  5  1 -1</clus>
</clustering>
</event>
<event>
 9    2  0.7257261E-005  0.1132294E+03  0.7546771E-02  0.1258673E+00
          2   -1    0    0  502    0 -0.00000000000E+00  0.00000000000E+00  0.45307165770E+03  0.45307165770E+03  0.00000000000E+00 0. -1.
         21   -1    0    0  501  502  0.00000000000E+00 -0.00000000000E+00 -0.17171163637E+03  0.17171163637E+03  0.00000000000E+00 0. -1.
         23    2    1    2    0    0  0.62080807757E+02 -0.25915046564E+02  0.35256204732E+03  0.37034769580E+03  0.91278706389E+02 0.  0.
         24    2    1    2    0    0 -0.75823152008E+02 -0.22581979730E+02 -0.13318110476E+03  0.17454680187E+03  0.80438070510E+02 0.  0.
        -13    1    4    4    0    0 -0.74141922334E+01  0.26546319540E+02 -0.23233237161E+02  0.36048032354E+02  0.00000000000E+00 0.  1.
         14    1    4    4    0    0 -0.68408959775E+02 -0.49128299270E+02 -0.10994786760E+03  0.13849876951E+03  0.00000000000E+00 0. -1.
        -11    1    3    3    0    0  0.90506132197E+01 -0.52998758974E+02  0.17418335011E+03  0.18229268090E+03  0.00000000000E+00 0. -1.
         11    1    3    3    0    0  0.53030194537E+02  0.27083712410E+02  0.17837869721E+03  0.18805501490E+03  0.00000000000E+00 0.  1.
          1    1    1    2  501    0  0.13742344251E+02  0.48497026294E+02  0.61979078778E+02  0.79888796406E+02  0.00000000000E+00 0. -1.
<scales pt_clust_5="13000.00000" pt_clust_6="13000.00000" pt_clust_7="13000.00000" pt_clust_8="13000.00000" pt_clust_9="50.40651"></scales>
<clustering>
<clus scale="   50.407">  2  9  1 -1</clus>
<clus scale="   80.438">  5  6 -1 -1</clus>
<clus scale="   91.279">  7  8 -1 -1</clus>
<clus scale="  104.687">  2  5  1 -1</clus>
<clus scale="   50.407">  2  5  1 -1</clus>
</clustering>
</event>
<event>
 9    2  0.6469128E-005  0.9798416E+02  0.7546771E-02  0.1291384E+00
         -1   -1    0    0    0  501 -0.00000000000E+00  0.00000000000E+00  0.57370594086E+03  0.57370594086E+03  0.00000000000E+00 0.  1.
         21   -1    0    0  501  502  0.00000000000E+00 -0.00000000000E+00 -0.30654669803E+02  0.30654669803E+02  0.00000000000E+00 0.  1.
         23    2    1    2    0    0  0.27507301945E+02 -0.31579690237E+00  0.44411437303E+03  0.45459725998E+03  0.93082442281E+02 0.  0.
         24    2    1    2    0    0 -0.42287644118E+02 -0.13665236852E+02  0.81986756692E+02  0.12328250646E+03  0.80633520216E+02 0.  0.
        -13    1    4    4    0    0 -0.48939336792E+02 -0.40469984958E+02  0.48688718368E+02  0.80021682465E+02  0.00000000000E+00 0.  1.
         14    1    4    4    0    0  0.66516926735E+01  0.26804748106E+02  0.33298038323E+02  0.43260823994E+02  0.00000000000E+00 0. -1.
        -11    1    3    3    0    0 -0.35548158105E+00  0.44382984316E+02  0.20055340323E+03  0.20540604473E+03  0.00000000000E+00 0.  1.
         11    1    3    3    0    0  0.27862783526E+02 -0.44698781218E+02  0.24356096980E+03  0.24919121525E+03  0.00000000000E+00 0. -1.
         -2    1    1    2    0  502  0.14780342173E+02  0.13981033754E+02  0.16950141336E+02  0.26480844226E+02  0.00000000000E+00 0.  1.
<scales pt_clust_5="13000.00000" pt_clust_6="13000.00000" pt_clust_7="13000.00000" pt_clust_8="13000.00000" pt_clust_9="20.34522"></scales>
<clustering>
<clus scale="   20.345">  2  9  1 -1</clus>
<clus scale="   80.634">  5  6 -1 -1</clus>
<clus scale="   86.246">  2  5  1 -1</clus>
<clus scale="   93.082">  7  8 -1 -1</clus>
<clus scale="   20.345">  2  5  1 -1</clus>
</clustering>
</event>
<event>
 9    2  0.6469128E-005  0.1459687E+03  0.7546771E-02  0.1217497E+00
          2   -1    0    0  502    0 -0.00000000000E+00  0.00000000000E+00  0.40071643215E+03  0.40071643215E+03  0.00000000000E+00 0. -1.
         21   -1    0    0  501  502  0.00000000000E+00 -0.00000000000E+00 -0.10004172088E+03  0.10004172088E+03  0.00000000000E+00 0. -1.
         23    2    1    2    0    0 -0.12224990985E+02 -0.63883165697E+02  0.48345033893E+02  0.12299185802E+03  0.92516190864E+02 0.  0.
         24    2    1    2    0    0  0.12157575069E+03 -0.61211081329E+01  0.98748654590E+02  0.17665608254E+03  0.81473576046E+02 0.  0.
        -11    1    4    4    0    0  0.11302058484E+02 -0.20849426290E+02 -0.53321086897E+01  0.24307745384E+02  0.00000000000E+00 0.  1.
         12    1    4    4    0    0  0.11027369221E+03  0.14728318157E+02  0.10408076328E+03  0.15234833716E+03  0.00000000000E+00 0. -1.
        -11    1    3    3    0    0 -0.28473802427E+02 -0.80863510761E+02  0.23719260214E+02  0.88950930868E+02  0.00000000000E+00 0. -1.
         11    1    3    3    0    0  0.16248811443E+02  0.16980345064E+02  0.24625773679E+02  0.34040927148E+02  0.00000000000E+00 0.  1.
          1    1    1    2  501    0 -0.10935075971E+03  0.70004273830E+02  0.15358102279E+03  0.20111021248E+03  0.00000000000E+00 0. -1.
<scales pt_clust_5="13000.00000" pt_clust_6="13000.00000" pt_clust_7="13000.00000" pt_clust_8="13000.00000" pt_clust_9="121.11540"></scales>
<clustering>
<clus scale="   81.474">  5  6 -1 -1</clus>
<clus scale="   92.516">  7  8 -1 -1</clus>
<clus scale="  113.092">  1  7  2 -1</clus>
<clus scale="  121.115">  2  9  1 -1</clus>
<clus scale="  121.115">  2  5  1 -1</clus>
</clustering>
</event>
<event>
 9    2  0.6469128E-005  0.1577800E+03  0.7546771E-02  0.1192479E+00
         21   -1    0    0  501  502  0.00000000000E+00  0.00000000000E+00  0.62339521058E+02  0.62339521058E+02  0.00000000000E+00 0. -1.
          2   -1    0    0  502    0 -0.00000000000E+00 -0.00000000000E+00 -0.11663996017E+04  0.11663996017E+04  0.00000000000E+00 0. -1.
         23    2    1    2    0    0 -0.11862916051E+03  0.23045475446E+02 -0.38463406625E+03  0.41510398671E+03  0.98812869585E+02 0.  0.
         24    2    1    2    0    0  0.45369547521E+02 -0.15792039889E+03 -0.57318401900E+03  0.60163292596E+03  0.80156158426E+02 0.  0.
        -11    1    4    4    0    0  0.56465710171E+02 -0.13328910634E+03 -0.53879383195E+03  0.55790066825E+03  0.00000000000E+00 0.  1.
         12    1    4    4    0    0 -0.11096162649E+02 -0.24631292557E+02 -0.34390187049E+02  0.43732257704E+02  0.00000000000E+00 0. -1.
        -13    1    3    3    0    0  0.50368617899E+01  0.28537910920E+02 -0.44105714588E+02  0.52774012503E+02  0.00000000000E+00 0.  1.
         13    1    3    3    0    0 -0.12366602230E+03 -0.54924354740E+01 -0.34052835167E+03  0.36232997420E+03  0.00000000000E+00 0. -1.
          1    1    1    2  501    0  0.73259612985E+02  0.13487492345E+03 -0.14624199540E+03  0.21200221010E+03  0.00000000000E+00 0. -1.
<scales pt_clust_5="13000.00000" pt_clust_6="13000.00000" pt_clust_7="13000.00000" pt_clust_8="13000.00000" pt_clust_9="153.48686"></scales>
<clustering>
<clus scale="   80.156">  5  6 -1 -1</clus>
<clus scale="   98.813">  7  8 -1 -1</clus>
<clus scale="  153.487">  1  9  2 -1</clus>
<clus scale="  153.487">  1  5  2 -1</clus>
<clus scale="  153.487">  1  5  2 -1</clus>
</clustering>
</event>
<event>
 9    2  0.6469128E-005  0.9128053E+02  0.7546771E-02  0.1304753E+00
          2   -1    0    0  502    0 -0.00000000000E+00  0.00000000000E+00  0.24314068662E+03  0.24314068662E+03  0.00000000000E+00 0. -1.
         21   -1    0    0  501  502  0.00000000000E+00 -0.00000000000E+00 -0.77850627345E+02  0.77850627345E+02  0.00000000000E+00 0. -1.
         24    2    1    2    0    0  0.91648200722E+01  0.28998173423E+01  0.11782230299E+03  0.14342362247E+03  0.81214761800E+02 0.  0.
         23    2    1    2    0    0 -0.28477304219E+02 -0.17654052783E+02  0.88315822048E+02  0.13003639670E+03  0.89370899113E+02 0.  0.
        -13    1    3    3    0    0 -0.10362969748E+02  0.29974250526E+02  0.14556195854E+02  0.34895983642E+02  0.00000000000E+00 0.  1.
         14    1    3    3    0    0  0.19527789821E+02 -0.27074433184E+02  0.10326610714E+03  0.10852763883E+03  0.00000000000E+00 0. -1.
        -13    1    4    4    0    0 -0.41824245331E+02  0.17406449521E+02  0.15070665362E+02  0.47742820789E+02  0.00000000000E+00 0.  1.
         13    1    4    4    0    0  0.13346941112E+02 -0.35060502304E+02  0.73245156685E+02  0.82293575914E+02  0.00000000000E+00 0. -1.
          1    1    1    2  501    0  0.19312484146E+02  0.14754235440E+02 -0.40848065764E+02  0.47531294786E+02  0.00000000000E+00 0. -1.
<scales pt_clust_5="13000.00000" pt_clust_6="13000.00000" pt_clust_7="13000.00000" pt_clust_8="13000.00000" pt_clust_9="24.30349"></scales>
<clustering>
<clus scale="   24.303">  2  9  1 -1</clus>
<clus scale="   81.215">  5  6 -1 -1</clus>
<clus scale="   83.312">  1  5  2 -1</clus>
<clus scale="   89.371">  7  8 -1 -1</clus>
<clus scale="   24.303">  2  5  1 -1</clus>
</clustering>
</event>
<event>
 9    2  0.6469128E-005  0.1318471E+03  0.7546771E-02  0.1225955E+00
          2   -1    0    0  502    0 -0.00000000000E+00  0.00000000000E+00  0.13521545582E+04  0.13521545582E+04  0.00000000000E+00 0. -1.
         21   -1    0    0  501  502  0.00000000000E+00 -0.00000000000E+00 -0.18753266282E+02  0.18753266282E+02  0.00000000000E+00 0. -1.
         23    2    1    2    0    0  0.77603195589E+02 -0.67930884867E+02  0.77153773851E+03  0.78373024102E+03  0.91245535046E+02 0.  0.
         24    2    1    2    0    0 -0.49821078812E+02  0.71983334935E+02  0.53260709898E+03  0.54662874267E+03  0.86422913770E+02 0.  0.
        -13    1    4    4    0    0  0.13218317334E+01  0.58738972981E+02  0.16301309574E+03  0.17327805276E+03  0.00000000000E+00 0.  1.
         14    1    4    4    0    0 -0.51142910545E+02  0.13244361954E+02  0.36959400325E+03  0.37335068991E+03  0.00000000000E+00 0. -1.
        -13    1    3    3    0    0  0.47149521944E+02 -0.88906978968E+02  0.55138658758E+03  0.56049504663E+03  0.00000000000E+00 0.  1.
         13    1    3    3    0    0  0.30453673646E+02  0.20976094101E+02  0.22015115093E+03  0.22323519439E+03  0.00000000000E+00 0. -1.
          1    1    1    2  501    0 -0.27782116777E+02 -0.40524500683E+01  0.29256454448E+02  0.40548840810E+02  0.00000000000E+00 0. -1.
<scales pt_clust_5="13000.00000" pt_clust_6="13000.00000" pt_clust_7="13000.00000" pt_clust_8="13000.00000" pt_clust_9="28.07612"></scales>
<clustering>
<clus scale="   28.076">  2  9  1 -1</clus>
<clus scale="   86.423">  5  6 -1 -1</clus>
<clus scale="   91.246">  7  8 -1 -1</clus>
<clus scale="  128.557">  2  5  1 -1</clus>
<clus scale="   28.076">  2  5  1 -1</clus>
</clustering>
</event>
<event>
 9    2  0.6469128E-005  0.9266459E+02  0.7546771E-02  0.1301341E+00
         -1   -1    0    0    0  501 -0.00000000000E+00  0.00000000000E+00  0.10681320767E+03  0.10681320767E+03  0.00000000000E+00 0.  1.
         21   -1    0    0  501  502  0.00000000000E+00 -0.00000000000E+00 -0.28909356940E+03  0.28909356940E+03  0.00000000000E+00 0.  1.
         24    2    1    2    0    0 -0.22873644879E+02 -0.96173463632E+01  0.70707612630E+02  0.11065087986E+03  0.81414702294E+02 0.  0.
         23    2    1    2    0    0  0.44244335056E+01  0.25423729494E+02 -0.13052711997E+03  0.16040848632E+03  0.89596940804E+02 0.  0.
        -11    1    3    3    0    0 -0.34183151417E+02 -0.13089078981E+01  0.84384827104E+02  0.91054929169E+02  0.00000000000E+00 0.  1.
         12    1    3    3    0    0  0.11309506538E+02 -0.83084384650E+01 -0.13677214474E+02  0.19595950694E+02  0.00000000000E+00 0. -1.
        -13    1    4    4    0    0  0.31676957923E+02 -0.20908383164E+02 -0.40120556718E+02  0.55229061382E+02  0.00000000000E+00 0. -1.
         13    1    4    4    0    0 -0.27252524418E+02  0.46332112658E+02 -0.90406563253E+02  0.10517942494E+03  0.00000000000E+00 0.  1.
         -2    1    1    2    0  502  0.18449211373E+02 -0.15806383131E+02 -0.12246085438E+03  0.12484741088E+03  0.00000000000E+00 0.  1.
<scales pt_clust_5="13000.00000" pt_clust_6="13000.00000" pt_clust_7="13000.00000" pt_clust_8="13000.00000" pt_clust_9="24.29434"></scales>
<clustering>
<clus scale="   24.294">  2  9  1 -1</clus>
<clus scale="   81.415">  5  6 -1 -1</clus>
<clus scale="   84.779">  1  5  2 -1</clus>
<clus scale="   89.597">  7  8 -1 -1</clus>
<clus scale="   24.294">  2  5  1 -1</clus>
</clustering>
</event>
<event>
 9    2  0.6469128E-005  0.9455329E+02  0.7546771E-02  0.1296843E+00
         -1   -1    0    0    0  501 -0.00000000000E+00  0.00000000000E+00  0.44913016956E+03  0.44913016956E+03  0.00000000000E+00 0.  1.
         21   -1    0    0  501  502  0.00000000000E+00 -0.00000000000E+00 -0.56809644768E+02  0.56809644768E+02  0.00000000000E+00 0.  1.
         23    2    1    2    0    0  0.23780460696E+02  0.37117200762E+02  0.23873968512E+03  0.25876699609E+03  0.89557378868E+02 0.  0.
         24    2    1    2    0    0 -0.37864910794E+02  0.37348809613E+02  0.13969723282E+03  0.17012534603E+03  0.81231960796E+02 0.  0.
        -11    1    4    4    0    0 -0.17108167399E+02  0.62108517592E+02  0.85924320119E+02  0.10739248641E+03  0.00000000000E+00 0.  1.
         12    1    4    4    0    0 -0.20756743395E+02 -0.24759707980E+02  0.53772912700E+02  0.62732859618E+02  0.00000000000E+00 0. -1.
        -13    1    3    3    0    0 -0.30792224459E+02  0.31306784835E+02  0.88003502328E+02  0.98350863168E+02  0.00000000000E+00 0.  1.
         13    1    3    3    0    0  0.54572685156E+02  0.58104159270E+01  0.15073618279E+03  0.16041613292E+03  0.00000000000E+00 0. -1.
         -2    1    1    2    0  502  0.14084450098E+02 -0.74466010375E+02  0.13883606857E+02  0.77047472217E+02  0.00000000000E+00 0.  1.
<scales pt_clust_5="13000.00000" pt_clust_6="13000.00000" pt_clust_7="13000.00000" pt_clust_8="13000.00000" pt_clust_9="75.78627"></scales>
<clustering>
<clus scale="   75.786">  2  9  1 -1</clus>
<clus scale="   81.232">  5  6 -1 -1</clus>
<clus scale="   86.709">  2  5  1 -1</clus>
<clus scale="   89.557">  7  8 -1 -1</clus>
<clus scale="   75.786">  2  5  1 -1</clus>
</clustering>
</event>
<event>
 9    2  0.6469128E-005  0.2254276E+03  0.7546771E-02  0.1160819E+00
          2   -1    0    0  502    0 -0.00000000000E+00  0.00000000000E+00  0.22140927201E+04  0.22140927201E+04  0.00000000000E+00 0. -1.
         21   -1    0    0  501  502  0.00000000000E+00 -0.00000000000E+00 -0.36793991072E+02  0.36793991072E+02  0.00000000000E+00 0.  1.
         24    2    1    2    0    0 -0.63296180142E+02 -0.29187905839E+02  0.25033725019E+03  0.27251453757E+03  0.82079803155E+02 0.  0.
         23    2    1    2    0    0  0.12180301881E+03 -0.17111371071E+03  0.78883406412E+03  0.82127330147E+03  0.90082060370E+02 0.  0.
        -13    1    3    3    0    0 -0.73017068299E+02 -0.41584489983E+02  0.23832291650E+03  0.25270254173E+03  0.00000000000E+00 0.  1.
         14    1    3    3    0    0  0.97208881571E+01  0.12396584143E+02  0.12014333694E+02  0.19811995839E+02  0.00000000000E+00 0. -1.
        -11    1    4    4    0    0  0.76397611341E+02 -0.16604408124E+03  0.63941488492E+03  0.66502528297E+03  0.00000000000E+00 0.  1.
         11    1    4    4    0    0  0.45405407472E+02 -0.50696294660E+01  0.14941917920E+03  0.15624801850E+03  0.00000000000E+00 0. -1.
          1    1    1    2  501    0 -0.58506838671E+02  0.20030161655E+03  0.11381274147E+04  0.11570988721E+04  0.00000000000E+00 0. -1.
<scales pt_clust_5="13000.00000" pt_clust_6="13000.00000" pt_clust_7="13000.00000" pt_clust_8="13000.00000" pt_clust_9="206.64668"></scales>
<clustering>
<clus scale="   82.080">  5  6 -1 -1</clus>
<clus scale="   90.082">  7  8 -1 -1</clus>
<clus scale="  107.682">  1  5  2 -1</clus>
<clus scale="  206.647">  2  9  1 -1</clus>
<clus scale="  206.647">  2  5  1 -1</clus>
</clustering>
</event>
<event>
 9    2  0.6469128E-005  0.9568344E+02  0.7546771E-02  0.1295060E+00
          2   -1    0    0  502    0 -0.00000000000E+00  0.00000000000E+00  0.60314648463E+03  0.60314648463E+03  0.00000000000E+00 0. -1.
         21   -1    0    0  501  502  0.00000000000E+00 -0.00000000000E+00 -0.73471651073E+02  0.73471651073E+02  0.00000000000E+00 0.  1.
         24    2    1    2    0    0 -0.19021277412E+01  0.31768833428E+02  0.52720540926E+03  0.53414574780E+03  0.79707336390E+02 0.  0.
         23    2    1    2    0    0 -0.96971983517E+01 -0.55154052209E+02  0.24325831647E+02  0.10842660454E+03  0.89602328963E+02 0.  0.
        -13    1    3    3    0    0  0.11768937959E+02  0.41631287016E+02  0.13905698029E+03  0.14563143797E+03  0.00000000000E+00 0.  1.
         14    1    3    3    0    0 -0.13671065700E+02 -0.98624535884E+01  0.38814842897E+03  0.38851430983E+03  0.00000000000E+00 0. -1.
        -13    1    4    4    0    0 -0.20672057769E+02  0.17764271314E+02  0.21357558676E+02  0.34627281446E+02  0.00000000000E+00 0. -1.
         13    1    4    4    0    0  0.10974859417E+02 -0.72918323523E+02  0.29682729715E+01  0.73799323094E+02  0.00000000000E+00 0.  1.
          1    1    1    2  501    0  0.11599326093E+02  0.23385218781E+02 -0.21856407343E+02  0.34045783369E+02  0.00000000000E+00 0. -1.
<scales pt_clust_5="13000.00000" pt_clust_6="13000.00000" pt_clust_7="13000.00000" pt_clust_8="13000.00000" pt_clust_9="26.10389"></scales>
<clustering>
<clus scale="   26.104">  2  9  1 -1</clus>
<clus scale="   79.707">  5  6 -1 -1</clus>
<clus scale="   86.487">  1  5  2 -1</clus>
<clus scale="   89.602">  7  8 -1 -1</clus>
<clus scale="   26.104">  2  5  1 -1</clus>
</clustering>
</event>
<event>
 9    2  0.6469128E-005  0.9993411E+02  0.7546771E-02  0.1285371E+00
         21   -1    0    0  501  502  0.00000000000E+00  0.00000000000E+00  0.99934794818E+02  0.99934794818E+02  0.00000000000E+00 0. -1.
         -3   -1    0    0    0  501 -0.00000000000E+00 -0.00000000000E+00 -0.22103488707E+03  0.22103488707E+03  0.00000000000E+00 0.  1.
         23    2    1    2    0    0 -0.35756820206E+02 -0.62022259032E+02 -0.98863093180E+02  0.15153588816E+03  0.89799239422E+02 0.  0.
         24    2    1    2    0    0  0.10960905362E+02 -0.14143582311E+02  0.11458685582E+02  0.82534588069E+02  0.79752582312E+02 0.  0.
        -13    1    4    4    0    0  0.37541653150E+02 -0.22767000333E+02 -0.12580917860E+02  0.45672656147E+02  0.00000000000E+00 0.  1.
         14    1    4    4    0    0 -0.26580747788E+02  0.86234180217E+01  0.24039603442E+02  0.36861931921E+02  0.00000000000E+00 0. -1.
        -13    1    3    3    0    0  0.17333112108E+02  0.13888071116E+02 -0.18972180619E+02  0.29210596230E+02  0.00000000000E+00 0.  1.
         13    1    3    3    0    0 -0.53089932313E+02 -0.75910330148E+02 -0.79890912561E+02  0.12232529193E+03  0.00000000000E+00 0. -1.
         -4    1    1    2    0  502  0.24795914844E+02  0.76165841343E+02 -0.33695684658E+02  0.86899205664E+02  0.00000000000E+00 0.  1.
<scales pt_clust_5="13000.00000" pt_clust_6="13000.00000" pt_clust_7="13000.00000" pt_clust_8="13000.00000" pt_clust_9="80.10043"></scales>
<clustering>
<clus scale="   79.753">  5  6 -1 -1</clus>
<clus scale="   80.100">  1  9  2 -1</clus>
<clus scale="   89.799">  7  8 -1 -1</clus>
<clus scale="   91.013">  1  5  2 -1</clus>
<clus scale="   80.100">  1  5  2 -1</clus>
</clustering>
</event>
<event>
 9    2  0.6469128E-005  0.1268453E+03  0.7546771E-02  0.1234896E+00
          4   -1    0    0  502    0 -0.00000000000E+00  0.00000000000E+00  0.48915440011E+02  0.48915440011E+02  0.00000000000E+00 0. -1.
         21   -1    0    0  501  502  0.00000000000E+00 -0.00000000000E+00 -0.51507511907E+03  0.51507511907E+03  0.00000000000E+00 0. -1.
         24    2    1    2    0    0 -0.78388826143E+02  0.26523427629E+02 -0.11710079868E+03  0.16453814686E+03  0.80696371941E+02 0.  0.
         23    2    1    2    0    0  0.77747371851E+02 -0.64869967508E+02 -0.17659185193E+03  0.22277263271E+03  0.90499708300E+02 0.  0.
        -13    1    3    3    0    0 -0.61769091334E+02  0.21566814929E+02 -0.12821235672E+03  0.14394080925E+03  0.00000000000E+00 0.  1.
         14    1    3    3    0    0 -0.16619734809E+02  0.49566126997E+01  0.11111558046E+02  0.20597337614E+02  0.00000000000E+00 0. -1.
        -13    1    4    4    0    0  0.45048598290E+02  0.15512051412E+02 -0.78289344760E+02  0.91647266462E+02  0.00000000000E+00 0.  1.
         13    1    4    4    0    0  0.32698773561E+02 -0.80382018919E+02 -0.98302507171E+02  0.13112536625E+03  0.00000000000E+00 0. -1.
          3    1    1    2  501    0  0.64145429180E+00  0.38346539878E+02 -0.17246702845E+03  0.17667977950E+03  0.00000000000E+00 0. -1.
<scales pt_clust_5="13000.00000" pt_clust_6="13000.00000" pt_clust_7="13000.00000" pt_clust_8="13000.00000" pt_clust_9="38.35190"></scales>
<clustering>
<clus scale="   38.352">  2  9  1 -1</clus>
<clus scale="   80.696">  5  6 -1 -1</clus>
<clus scale="   90.500">  7  8 -1 -1</clus>
<clus scale="  120.048">  1  5  2 -1</clus>
<clus scale="   38.352">  2  5  1 -1</clus>
</clustering>
</event>
<event>
 9    2  0.6469128E-005  0.2147780E+03  0.7546771E-02  0.1139749E+00
          2   -1    0    0  502    0 -0.00000000000E+00  0.00000000000E+00  0.11257877708E+04  0.11257877708E+04  0.00000000000E+00 0. -1.
         21   -1    0    0  501  502  0.00000000000E+00 -0.00000000000E+00 -0.55576598125E+02  0.55576598125E+02  0.00000000000E+00 0. -1.
         24    2    1    2    0    0 -0.15005848248E+03  0.12786249094E+03  0.74147199087E+03  0.77104930202E+03  0.76615586878E+02 0.  0.
         23    2    1    2    0    0  0.15407118171E+03 -0.88066795370E+02  0.29237958594E+03  0.35626121089E+03  0.99712279207E+02 0.  0.
        -13    1    3    3    0    0 -0.76776094873E+02  0.78673227614E+02  0.27237181302E+03  0.29371831747E+03  0.00000000000E+00 0.  1.
         14    1    3    3    0    0 -0.73282387604E+02  0.49189263325E+02  0.46910017784E+03  0.47733098455E+03  0.00000000000E+00 0. -1.
        -13    1    4    4    0    0  0.11790874352E+03 -0.10508184972E+03  0.26253911011E+03  0.30638448276E+03  0.00000000000E+00 0.  1.
         13    1    4    4    0    0  0.36162438189E+02  0.17015054353E+02  0.29840475837E+02  0.49876728126E+02  0.00000000000E+00 0. -1.
          1    1    1    2  501    0 -0.40126992334E+01 -0.39795695569E+02  0.36359595912E+02  0.54053856068E+02  0.00000000000E+00 0. -1.
<scales pt_clust_5="13000.00000" pt_clust_6="13000.00000" pt_clust_7="13000.00000" pt_clust_8="13000.00000" pt_clust_9="39.99749"></scales>
<clustering>
<clus scale="   39.997">  2  9  1 -1</clus>
<clus scale="   76.616">  5  6 -1 -1</clus>
<clus scale="   99.712">  7  8 -1 -1</clus>
<clus scale="  205.078">  1  5  2 -1</clus>
<clus scale="   39.997">  2  5  1 -1</clus>
</clustering>
</event>
<event>
 9    2  0.6469128E-005  0.9707940E+02  0.7546771E-02  0.1291190E+00
          2   -1    0    0  502    0 -0.00000000000E+00  0.00000000000E+00  0.10765226598E+03  0.10765226598E+03  0.00000000000E+00 0. -1.
         21   -1    0    0  501  502  0.00000000000E+00 -0.00000000000E+00 -0.39671780218E+03  0.39671780218E+03  0.00000000000E+00 0. -1.
         24    2    1    2    0    0  0.36176479983E+02 -0.44262908207E+01  0.39830639655E+02  0.96586533741E+02  0.80088381744E+02 0.  0.
         23    2    1    2    0    0 -0.40898490770E+02 -0.62877976627E+02 -0.60748130118E+02  0.13127759193E+03  0.88978336343E+02 0.  0.
        -13    1    3    3    0    0 -0.85912647201E-01  0.33218653568E+02  0.45605677457E+01  0.33530360928E+02  0.00000000000E+00 0.  1.
         14    1    3    3    0    0  0.36262392631E+02 -0.37644944388E+02  0.35270071909E+02  0.63056172812E+02  0.00000000000E+00 0. -1.
        -13    1    4    4    0    0 -0.65769315227E+02 -0.29390529505E+02 -0.51496316385E+02  0.88550983344E+02  0.00000000000E+00 0.  1.
         13    1    4    4    0    0  0.24870824457E+02 -0.33487447122E+02 -0.92518137330E+01  0.42726608586E+02  0.00000000000E+00 0. -1.
          1    1    1    2  501    0  0.47220107867E+01  0.67304267448E+02 -0.26814804573E+03  0.27650594249E+03  0.00000000000E+00 0. -1.
<scales pt_clust_5="13000.00000" pt_clust_6="13000.00000" pt_clust_7="13000.00000" pt_clust_8="13000.00000" pt_clust_9="67.46971"></scales>
<clustering>
<clus scale="   67.470">  2  9  1 -1</clus>
<clus scale="   80.088">  5  6 -1 -1</clus>
<clus scale="   88.978">  7  8 -1 -1</clus>
<clus scale="   89.002">  1  5  2 -1</clus>
<clus scale="   67.470">  2  5  1 -1</clus>
</clustering>
</event>
<event>
 9    2  0.6469128E-005  0.1505780E+03  0.7546771E-02  0.1218209E+00
          2   -1    0    0  502    0 -0.00000000000E+00  0.00000000000E+00  0.10667702430E+03  0.10667702430E+03  0.00000000000E+00 0. -1.
         21   -1    0    0  501  502  0.00000000000E+00 -0.00000000000E+00 -0.35668879163E+03  0.35668879163E+03  0.00000000000E+00 0. -1.
         24    2    1    2    0    0  0.21594544684E+02  0.57293629912E+02 -0.74783344931E+02  0.12606477402E+03  0.80937594365E+02 0.  0.
         23    2    1    2    0    0  0.49608826093E+02  0.59394334899E+02 -0.75572533580E+01  0.12096883887E+03  0.92669440780E+02 0.  0.
        -13    1    3    3    0    0 -0.23224183130E+02 -0.58437313232E+01 -0.15193118175E+02  0.28360936475E+02  0.00000000000E+00 0.  1.
         14    1    3    3    0    0  0.44818727815E+02  0.63137361235E+02 -0.59590226756E+02  0.97703837548E+02  0.00000000000E+00 0. -1.
        -13    1    4    4    0    0  0.56746152332E+02  0.15695518171E+01 -0.22099562077E+02  0.60917813006E+02  0.00000000000E+00 0.  1.
         13    1    4    4    0    0 -0.71373262387E+01  0.57824783082E+02  0.14542308719E+02  0.60051025863E+02  0.00000000000E+00 0. -1.
          1    1    1    2  501    0 -0.71203370778E+02 -0.11668796481E+03 -0.16767116905E+03  0.21633220304E+03  0.00000000000E+00 0. -1.
<scales pt_clust_5="13000.00000" pt_clust_6="13000.00000" pt_clust_7="13000.00000" pt_clust_8="13000.00000" pt_clust_9="118.68494"></scales>
<clustering>
<clus scale="   80.938">  5  6 -1 -1</clus>
<clus scale="   92.669">  7  8 -1 -1</clus>
<clus scale="  101.488">  1  5  2 -1</clus>
<clus scale="  118.685">  2  9  1 -1</clus>
<clus scale="  118.685">  2  5  1 -1</clus>
</clustering>
</event>
<event>
 9    2  0.6469128E-005  0.2697928E+03  0.7546771E-02  0.1101579E+00
          4   -1    0    0  502    0 -0.00000000000E+00  0.00000000000E+00  0.41540249196E+03  0.41540249196E+03  0.00000000000E+00 0. -1.
         21   -1    0    0  501  502  0.00000000000E+00 -0.00000000000E+00 -0.28000052959E+03  0.28000052959E+03  0.00000000000E+00 0.  1.
         24    2    1    2    0    0 -0.23942788817E+03  0.63031409091E+02  0.24048146324E+03  0.35699636545E+03  0.91194290485E+02 0.  0.
         23    2    1    2    0    0  0.26256040964E+03 -0.85243447408E+02 -0.96373425174E+02  0.30517588798E+03  0.87407502470E+02 0.  0.
        -13    1    3    3    0    0 -0.98112267381E+02  0.27175000488E+02  0.40623099997E+02  0.10961174169E+03  0.00000000000E+00 0.  1.
         14    1    3    3    0    0 -0.14131562079E+03  0.35856408603E+02  0.19985836324E+03  0.24738462377E+03  0.00000000000E+00 0. -1.
        -13    1    4    4    0    0  0.42233099218E+02 -0.42885985881E+02  0.19349993410E+01  0.60221148088E+02  0.00000000000E+00 0. -1.
         13    1    4    4    0    0  0.22032731043E+03 -0.42357461527E+02 -0.98308424515E+02  0.24495473989E+03  0.00000000000E+00 0.  1.
          3    1    1    2  501    0 -0.23132521470E+02  0.22212038317E+02 -0.87060756999E+01  0.33230768120E+02  0.00000000000E+00 0. -1.
<scales pt_clust_5="13000.00000" pt_clust_6="13000.00000" pt_clust_7="13000.00000" pt_clust_8="13000.00000" pt_clust_9="32.07005"></scales>
<clustering>
<clus scale="   32.070">  2  9  1 -1</clus>
<clus scale="   87.408">  7  8 -1 -1</clus>
<clus scale="   91.194">  5  6 -1 -1</clus>
<clus scale="  268.536">  2  7  1 -1</clus>
<clus scale="   32.070">  2  5  1 -1</clus>
</clustering>
</event>
<event>
 9    2  0.6469128E-005  0.1141768E+03  0.7546771E-02  0.1256685E+00
         21   -1    0    0  501  502  0.00000000000E+00  0.00000000000E+00  0.11198538744E+03  0.11198538744E+03  0.00000000000E+00 0.  1.
          4   -1    0    0  502    0 -0.00000000000E+00 -0.00000000000E+00 -0.26850000429E+03  0.26850000429E+03  0.00000000000E+00 0. -1.
         24    2    1    2    0    0 -0.64818790521E+02 -0.12930024709E+02 -0.16597983316E+03  0.19645909783E+03  0.81720321602E+02 0.  0.
         23    2    1    2    0    0  0.81981428106E+02 -0.34572074416E+02  0.26728467595E+02  0.13065003142E+03  0.91863141941E+02 0.  0.
        -11    1    3    3    0    0  0.25576472699E+01  0.26279702614E+02 -0.32398331695E+02  0.41794930622E+02  0.00000000000E+00 0.  1.
         12    1    3    3    0    0 -0.67376437791E+02 -0.39209727323E+02 -0.13358150146E+03  0.15466416721E+03  0.00000000000E+00 0. -1.
        -11    1    4    4    0    0  0.65744666482E+02 -0.34568267527E+01  0.54839126949E+02  0.85683374504E+02  0.00000000000E+00 0.  1.
         11    1    4    4    0    0  0.16236761625E+02 -0.31115247663E+02 -0.28110659354E+02  0.44966656919E+02  0.00000000000E+00 0. -1.
          3    1    1    2  501    0 -0.17162637586E+02  0.47502099124E+02 -0.17263251286E+02  0.53376262468E+02  0.00000000000E+00 0. -1.
<scales pt_clust_5="13000.00000" pt_clust_6="13000.00000" pt_clust_7="13000.00000" pt_clust_8="13000.00000" pt_clust_9="50.50748"></scales>
<clustering>
<clus scale="   50.507">  1  9  2 -1</clus>
<clus scale="   81.720">  5  6 -1 -1</clus>
<clus scale="   91.863">  7  8 -1 -1</clus>
<clus scale="  106.187">  2  5  1 -1</clus>
<clus scale="   50.507">  1  5  2 -1</clus>
</clustering>
</event>
<event>
 9    2  0.6469128E-005  0.1122426E+03  0.7546771E-02  0.1257119E+00
         21   -1    0    0  501  502  0.00000000000E+00  0.00000000000E+00  0.46932966871E+03  0.46932966871E+03  0.00000000000E+00 0. -1.
          2   -1    0    0  502    0 -0.00000000000E+00 -0.00000000000E+00 -0.69416381199E+02  0.69416381199E+02  0.00000000000E+00 0. -1.
         24    2    1    2    0    0  0.70123810206E+01 -0.35458452024E+02  0.98087126505E+02  0.14168727225E+03  0.95643731751E+02 0.  0.
         23    2    1    2    0    0  0.84522122912E+02  0.55149916315E+02  0.87871153600E+02  0.16351421153E+03  0.93968373435E+02 0.  0.
        -11    1    3    3    0    0 -0.24458391629E+02 -0.24416740429E+02 -0.35273360079E+01  0.34739490980E+02  0.00000000000E+00 0.  1.
         12    1    3    3    0    0  0.31470772649E+02 -0.11041711595E+02  0.10161446251E+03  0.10694778127E+03  0.00000000000E+00 0. -1.
        -11    1    4    4    0    0  0.33156854463E+02  0.23087284949E+02  0.94331381823E+02  0.10261973163E+03  0.00000000000E+00 0.  1.
         11    1    4    4    0    0  0.51365268449E+02  0.32062631366E+02 -0.64602282227E+01  0.60894479894E+02  0.00000000000E+00 0. -1.
          1    1    1    2  501    0 -0.91534503933E+02 -0.19691464290E+02  0.21395500740E+03  0.23354456613E+03  0.00000000000E+00 0. -1.
<scales pt_clust_5="13000.00000" pt_clust_6="13000.00000" pt_clust_7="13000.00000" pt_clust_8="13000.00000" pt_clust_9="93.62862"></scales>
<clustering>
<clus scale="   93.629">  1  9  2 -1</clus>
<clus scale="   93.968">  7  8 -1 -1</clus>
<clus scale="   95.644">  5  6 -1 -1</clus>
<clus scale="  110.818">  1  7  2 -1</clus>
<clus scale="   93.629">  1  5  2 -1</clus>
</clustering>
</event>
<event>
 9    2  0.6469128E-005  0.1323831E+03  0.7546771E-02  0.1245039E+00
         21   -1    0    0  501  502  0.00000000000E+00  0.00000000000E+00  0.21961727013E+03  0.21961727013E+03  0.00000000000E+00 0.  1.
         -3   -1    0    0    0  501 -0.00000000000E+00 -0.00000000000E+00 -0.18107054738E+03  0.18107054738E+03  0.00000000000E+00 0.  1.
         24    2    1    2    0    0 -0.30797641806E+02  0.16185405062E+02 -0.46141075821E+02  0.97546236543E+02  0.78586304837E+02 0.  0.
         23    2    1    2    0    0 -0.62099269062E+02  0.59533737508E+02  0.12374515816E+03  0.17709118653E+03  0.92993758178E+02 0.  0.
        -11    1    3    3    0    0 -0.29794087637E+02 -0.19895045856E+02 -0.49711266871E+02  0.61275693073E+02  0.00000000000E+00 0.  1.
         12    1    3    3    0    0 -0.10035541694E+01  0.36080450918E+02  0.35701910501E+01  0.36270543469E+02  0.00000000000E+00 0. -1.
        -11    1    4    4    0    0  0.18569028925E+01  0.55355766479E+02  0.87224712756E+02  0.10332405086E+03  0.00000000000E+00 0.  1.
         11    1    4    4    0    0 -0.63956171954E+02  0.41779710298E+01  0.36520445404E+02  0.73767135673E+02  0.00000000000E+00 0. -1.
         -4    1    1    2    0  502  0.92896910868E+02 -0.75719142570E+02 -0.39057359585E+02  0.12605039444E+03  0.00000000000E+00 0.  1.
<scales pt_clust_5="13000.00000" pt_clust_6="13000.00000" pt_clust_7="13000.00000" pt_clust_8="13000.00000" pt_clust_9="94.22021"></scales>
<clustering>
<clus scale="   78.586">  5  6 -1 -1</clus>
<clus scale="   85.943">  2  5  1 -1</clus>
<clus scale="   92.994">  7  8 -1 -1</clus>
<clus scale="   94.220">  1  9  2 -1</clus>
<clus scale="   94.220">  1  5  2 -1</clus>
</clustering>
</event>
<event>
 9    2  0.6469128E-005  0.1478896E+03  0.7546771E-02  0.1205987E+00
         21   -1    0    0  501  502  0.00000000000E+00  0.00000000000E+00  0.18164116950E+02  0.18164116950E+02  0.00000000000E+00 0. -1.
          2   -1    0    0  502    0 -0.00000000000E+00 -0.00000000000E+00 -0.22061784835E+04  0.22061784835E+04  0.00000000000E+00 0. -1.
         24    2    1    2    0    0  0.38666613197E+02 -0.13512104056E+03 -0.14936456430E+04  0.15021994712E+04  0.76636427559E+02 0.  0.
         23    2    1    2    0    0 -0.47504342544E+02  0.54349863732E+02 -0.39121136592E+03  0.40828572215E+03  0.91871256868E+02 0.  0.
        -11    1    3    3    0    0  0.31400192337E+02 -0.46586373627E+02 -0.29739066013E+03  0.30265073438E+03  0.00000000000E+00 0.  1.
         12    1    3    3    0    0  0.72664208600E+01 -0.88534666937E+02 -0.11962549828E+04  0.11995487369E+04  0.00000000000E+00 0. -1.
        -11    1    4    4    0    0  0.24480227293E+02  0.33411739906E+02 -0.12252858624E+03  0.12934017295E+03  0.00000000000E+00 0.  1.
         11    1    4    4    0    0 -0.71984569837E+02  0.20938123827E+02 -0.26868277968E+03  0.27894554920E+03  0.00000000000E+00 0. -1.
          1    1    1    2  501    0  0.88377293474E+01  0.80771176831E+02 -0.30315735763E+03  0.31385740703E+03  0.00000000000E+00 0. -1.
<scales pt_clust_5="13000.00000" pt_clust_6="13000.00000" pt_clust_7="13000.00000" pt_clust_8="13000.00000" pt_clust_9="81.25324"></scales>
<clustering>
<clus scale="   76.636">  5  6 -1 -1</clus>
<clus scale="   81.253">  1  9  2 -1</clus>
<clus scale="   91.871">  7  8 -1 -1</clus>
<clus scale="  138.939">  2  5  1 -1</clus>
<clus scale="   81.253">  1  5  2 -1</clus>
</clustering>
</event>
<event>
 9    2  0.6469128E-005  0.9623186E+02  0.7546771E-02  0.1294955E+00
          2   -1    0    0  502    0 -0.00000000000E+00  0.00000000000E+00  0.31429044917E+03  0.31429044917E+03  0.00000000000E+00 0. -1.
         21   -1    0    0  501  502  0.00000000000E+00 -0.00000000000E+00 -0.47861524752E+02  0.47861524752E+02  0.00000000000E+00 0. -1.
         24    2    1    2    0    0 -0.12276549163E+02  0.14158141614E+02  0.13147291205E+03  0.15514682055E+03  0.80213731310E+02 0.  0.
         23    2    1    2    0    0 -0.11291595182E+02 -0.55567646574E+02  0.10574883483E+03  0.15111898560E+03  0.91863312985E+02 0.  0.
        -13    1    3    3    0    0  0.29000791521E+02 -0.38013531090E+01  0.21449826367E+02  0.36271080016E+02  0.00000000000E+00 0.  1.
         14    1    3    3    0    0 -0.41277340684E+02  0.17959494723E+02  0.11002308568E+03  0.11887574053E+03  0.00000000000E+00 0. -1.
        -11    1    4    4    0    0 -0.47252227221E+02 -0.38729739442E+02  0.36150604051E+02  0.70990364613E+02  0.00000000000E+00 0. -1.
         11    1    4    4    0    0  0.35960632040E+02 -0.16837907132E+02  0.69598230780E+02  0.80128620985E+02  0.00000000000E+00 0.  1.
          1    1    1    2  501    0  0.23568144345E+02  0.41409504960E+02  0.29207177540E+02  0.55886167776E+02  0.00000000000E+00 0. -1.
<scales pt_clust_5="13000.00000" pt_clust_6="13000.00000" pt_clust_7="13000.00000" pt_clust_8="13000.00000" pt_clust_9="47.64666"></scales>
<clustering>
<clus scale="   47.647">  2  9  1 -1</clus>
<clus scale="   80.214">  5  6 -1 -1</clus>
<clus scale="   85.182">  1  5  2 -1</clus>
<clus scale="   91.863">  7  8 -1 -1</clus>
<clus scale="   47.647">  2  5  1 -1</clus>
</clustering>
</event>
<event>
 9    2  0.6469128E-005  0.1798151E+03  0.7546771E-02  0.1169274E+00
         21   -1    0    0  501  502  0.00000000000E+00  0.00000000000E+00  0.31879929269E+03  0.31879929269E+03  0.00000000000E+00 0. -1.
          2   -1    0    0  502    0 -0.00000000000E+00 -0.00000000000E+00 -0.16999475172E+03  0.16999475172E+03  0.00000000000E+00 0. -1.
         23    2    1    2    0    0  0.12364742606E+03  0.84851250794E+02  0.10909964401E+03  0.20685070645E+03  0.91630026203E+02 0.  0.
         24    2    1    2    0    0 -0.14997248622E+03 -0.59497664856E+02  0.10377797623E+03  0.20817903359E+03  0.80851239517E+02 0.  0.
        -13    1    4    4    0    0 -0.59678758839E+02 -0.45965511604E+02  0.78330132434E+01  0.75734659239E+02  0.00000000000E+00 0.  1.
         14    1    4    4    0    0 -0.90293727382E+02 -0.13532153253E+02  0.95944962983E+02  0.13244437435E+03  0.00000000000E+00 0. -1.
        -13    1    3    3    0    0  0.75097138347E+02  0.98172172030E+02  0.90454008545E+02  0.15316423607E+03  0.00000000000E+00 0. -1.
         13    1    3    3    0    0  0.48550287717E+02 -0.13320921236E+02  0.18645635467E+02  0.53686470381E+02  0.00000000000E+00 0.  1.
          1    1    1    2  501    0  0.26325060157E+02 -0.25353585937E+02 -0.64073079271E+02  0.73764304371E+02  0.00000000000E+00 0. -1.
<scales pt_clust_5="13000.00000" pt_clust_6="13000.00000" pt_clust_7="13000.00000" pt_clust_8="13000.00000" pt_clust_9="36.54880"></scales>
<clustering>
<clus scale="   36.549">  1  9  2 -1</clus>
<clus scale="   80.851">  5  6 -1 -1</clus>
<clus scale="   91.630">  7  8 -1 -1</clus>
<clus scale="  174.569">  1  5  2 -1</clus>
<clus scale="   36.549">  1  5  2 -1</clus>
</clustering>
</event>
<event>
 9    2  0.8484337E-005  0.9990353E+02  0.7546771E-02  0.1288647E+00
         21   -1    0    0  501  502  0.00000000000E+00  0.00000000000E+00  0.23462736031E+03  0.23462736031E+03  0.00000000000E+00 0. -1.
          2   -1    0    0  502    0 -0.00000000000E+00 -0.00000000000E+00 -0.12217714634E+04  0.12217714634E+04  0.00000000000E+00 0. -1.
         24    2    1    2    0    0  0.36507054735E+02 -0.28435176381E+02 -0.10540287562E+04  0.10575629498E+04  0.72948266597E+02 0.  0.
         23    2    1    2    0    0 -0.80497444432E+01  0.42120314809E+02 -0.14996077307E+03  0.17970340166E+03  0.89253346175E+02 0.  0.
        -11    1    3    3    0    0 -0.54823095865E+01 -0.20195160824E+02 -0.83186990852E+02  0.85778643531E+02  0.00000000000E+00 0.  1.
         12    1    3    3    0    0  0.41989364322E+02 -0.82400155573E+01 -0.97084176538E+03  0.97178430631E+03  0.00000000000E+00 0. -1.
        -11    1    4    4    0    0 -0.26900011060E+02 -0.10040993859E+02 -0.12200665232E+02  0.31197570175E+02  0.00000000000E+00 0.  1.
         11    1    4    4    0    0  0.18850266617E+02  0.52161308668E+02 -0.13776010784E+03  0.14850583149E+03  0.00000000000E+00 0. -1.
          1    1    1    2  501    0 -0.28457310292E+02 -0.13685138428E+02  0.21684542620E+03  0.21913247223E+03  0.00000000000E+00 0. -1.
<scales pt_clust_5="13000.00000" pt_clust_6="13000.00000" pt_clust_7="13000.00000" pt_clust_8="13000.00000" pt_clust_9="31.57691"></scales>
<clustering>
<clus scale="   31.577">  1  9  2 -1</clus>
<clus scale="   72.948">  5  6 -1 -1</clus>
<clus scale="   85.650">  2  5  1 -1</clus>
<clus scale="   89.253">  7  8 -1 -1</clus>
<clus scale="   31.577">  1  5  2 -1</clus>
</clustering>
</event>
<event>
 9    2  0.6469128E-005  0.1070726E+03  0.7546771E-02  0.1270610E+00
          2   -1    0    0  502    0 -0.00000000000E+00  0.00000000000E+00  0.95439052829E+03  0.95439052829E+03  0.00000000000E+00 0. -1.
         21   -1    0    0  501  502  0.00000000000E+00 -0.00000000000E+00 -0.20322692975E+02  0.20322692975E+02  0.00000000000E+00 0.  1.
         24    2    1    2    0    0  0.43210471674E+02  0.39020922672E+02  0.71076392542E+03  0.71768255791E+03  0.80579891868E+02 0.  0.
         23    2    1    2    0    0 -0.21796536810E+02 -0.45298592542E+02  0.19364824318E+03  0.21991699588E+03  0.91306032045E+02 0.  0.
        -11    1    3    3    0    0 -0.21131588857E+02  0.21251993289E+02  0.15039727612E+03  0.15335426936E+03  0.00000000000E+00 0.  1.
         12    1    3    3    0    0  0.64342060531E+02  0.17768929383E+02  0.56036664931E+03  0.56432828855E+03  0.00000000000E+00 0. -1.
        -11    1    4    4    0    0  0.23193989428E+02  0.10762470290E+02  0.21655441484E+02  0.33507462724E+02  0.00000000000E+00 0. -1.
         11    1    4    4    0    0 -0.44990526238E+02 -0.56061062832E+02  0.17199280169E+03  0.18640953315E+03  0.00000000000E+00 0.  1.
          1    1    1    2  501    0 -0.21413934864E+02  0.62776698703E+01  0.29655666712E+02  0.37113667476E+02  0.00000000000E+00 0. -1.
<scales pt_clust_5="13000.00000" pt_clust_6="13000.00000" pt_clust_7="13000.00000" pt_clust_8="13000.00000" pt_clust_9="22.31515"></scales>
<clustering>
<clus scale="   22.315">  2  9  1 -1</clus>
<clus scale="   80.580">  5  6 -1 -1</clus>
<clus scale="   91.306">  7  8 -1 -1</clus>
<clus scale="   98.086">  1  5  2 -1</clus>
<clus scale="   22.315">  2  5  1 -1</clus>
</clustering>
</event>
<event>
 9    2  0.6469128E-005  0.1098974E+03  0.7546771E-02  0.1264741E+00
          2   -1    0    0  502    0 -0.00000000000E+00  0.00000000000E+00  0.62679049493E+03  0.62679049493E+03  0.00000000000E+00 0. -1.
         21   -1    0    0  501  502  0.00000000000E+00 -0.00000000000E+00 -0.63620518246E+02  0.63620518246E+02  0.00000000000E+00 0. -1.
         24    2    1    2    0    0 -0.33218184201E+01 -0.72220082088E+02  0.50870208115E+03  0.52015916405E+03  0.80999838566E+02 0.  0.
         23    2    1    2    0    0 -0.12822820683E+02  0.10913635588E+02  0.53184221932E+02  0.10684224755E+03  0.91121743983E+02 0.  0.
        -13    1    3    3    0    0  0.22417119048E+02 -0.27277120086E+02  0.69895902407E+02  0.78307124068E+02  0.00000000000E+00 0.  1.
         14    1    3    3    0    0 -0.25738937469E+02 -0.44942962002E+02  0.43880617874E+03  0.44185203998E+03  0.00000000000E+00 0. -1.
        -13    1    4    4    0    0  0.25017135305E+02 -0.28560678991E+02  0.22735864236E+02  0.44254818561E+02  0.00000000000E+00 0. -1.
         13    1    4    4    0    0 -0.37839955988E+02  0.39474314579E+02  0.30448357696E+02  0.62587428986E+02  0.00000000000E+00 0.  1.
          1    1    1    2  501    0  0.16144639103E+02  0.61306446500E+02  0.12836736033E+01  0.63409601577E+02  0.00000000000E+00 0. -1.
<scales pt_clust_5="13000.00000" pt_clust_6="13000.00000" pt_clust_7="13000.00000" pt_clust_8="13000.00000" pt_clust_9="63.39661"></scales>
<clustering>
<clus scale="   63.397">  2  9  1 -1</clus>
<clus scale="   81.000">  5  6 -1 -1</clus>
<clus scale="   91.122">  7  8 -1 -1</clus>
<clus scale="  101.662">  1  5  2 -1</clus>
<clus scale="   63.397">  2  5  1 -1</clus>
</clustering>
</event>
<event>
 9    2  0.6469128E-005  0.9928417E+02  0.7546771E-02  0.1286503E+00
         21   -1    0    0  501  502  0.00000000000E+00  0.00000000000E+00  0.19257134697E+03  0.19257134697E+03  0.00000000000E+00 0. -1.
          2   -1    0    0  502    0 -0.00000000000E+00 -0.00000000000E+00 -0.10230637510E+03  0.10230637510E+03  0.00000000000E+00 0. -1.
         24    2    1    2    0    0 -0.41397893721E+02 -0.64045596164E+01  0.85963762514E+01  0.91756477738E+02  0.81182199612E+02 0.  0.
         23    2    1    2    0    0  0.12394683621E+02  0.65216466824E+02  0.79423374489E+02  0.13750823005E+03  0.90518645527E+02 0.  0.
        -13    1    3    3    0    0  0.22308061806E+02  0.10301606701E+02  0.81720257043E+01  0.25895071467E+02  0.00000000000E+00 0.  1.
         14    1    3    3    0    0 -0.63705955527E+02 -0.16706166317E+02  0.42435054712E+00  0.65861406271E+02  0.00000000000E+00 0. -1.
        -11    1    4    4    0    0 -0.19437473769E+02 -0.15876805991E+02  0.19247617414E+02  0.31628454453E+02  0.00000000000E+00 0.  1.
         11    1    4    4    0    0  0.31832157389E+02  0.81093272815E+02  0.60175757076E+02  0.10587977559E+03  0.00000000000E+00 0. -1.
          1    1    1    2  501    0  0.29003210100E+02 -0.58811907207E+02  0.22452211278E+01  0.65613014284E+02  0.00000000000E+00 0. -1.
<scales pt_clust_5="13000.00000" pt_clust_6="13000.00000" pt_clust_7="13000.00000" pt_clust_8="13000.00000" pt_clust_9="65.57462"></scales>
<clustering>
<clus scale="   65.575">  1  9  2 -1</clus>
<clus scale="   81.182">  5  6 -1 -1</clus>
<clus scale="   90.519">  7  8 -1 -1</clus>
<clus scale="   90.853">  2  5  1 -1</clus>
<clus scale="   65.575">  1  5  2 -1</clus>
</clustering>
</event>
<event>
 9    2  0.6469128E-005  0.1463732E+03  0.7546771E-02  0.1206850E+00
         21   -1    0    0  501  502  0.00000000000E+00  0.00000000000E+00  0.11414174028E+03  0.11414174028E+03  0.00000000000E+00 0. -1.
          4   -1    0    0  502    0 -0.00000000000E+00 -0.00000000000E+00 -0.25844900418E+03  0.25844900418E+03  0.00000000000E+00 0. -1.
         23    2    1    2    0    0 -0.60779102913E+02  0.10811672937E+03 -0.10545319646E+03  0.18624828442E+03  0.90469443936E+02 0.  0.
         24    2    1    2    0    0  0.13343949267E+02 -0.10688093063E+03 -0.26379081497E+02  0.13727876395E+03  0.80919767530E+02 0.  0.
        -11    1    4    4    0    0  0.19536266582E+02  0.43680027574E+01  0.66014454867E+01  0.21079000037E+02  0.00000000000E+00 0.  1.
         12    1    4    4    0    0 -0.61923173156E+01 -0.11124893339E+03 -0.32980526984E+02  0.11619976391E+03  0.00000000000E+00 0. -1.
        -11    1    3    3    0    0 -0.71276585518E+02  0.72303981349E+02 -0.10875703534E+03  0.14878276143E+03  0.00000000000E+00 0.  1.
         11    1    3    3    0    0  0.10497482605E+02  0.35812748023E+02  0.33038388808E+01  0.37465522996E+02  0.00000000000E+00 0. -1.
          3    1    1    2  501    0  0.47435153647E+02 -0.12357987424E+01 -0.12474985945E+02  0.49063696093E+02  0.00000000000E+00 0. -1.
<scales pt_clust_5="13000.00000" pt_clust_6="13000.00000" pt_clust_7="13000.00000" pt_clust_8="13000.00000" pt_clust_9="47.45125"></scales>
<clustering>
<clus scale="   47.451">  1  9  2 -1</clus>
<clus scale="   80.920">  5  6 -1 -1</clus>
<clus scale="   90.469">  7  8 -1 -1</clus>
<clus scale="  140.671">  1  5  2 -1</clus>
<clus scale="   47.451">  1  5  2 -1</clus>
</clustering>
</event>
<event>
 9    2  0.6469128E-005  0.1084922E+03  0.7546771E-02  0.1271437E+00
          2   -1    0    0  502    0 -0.00000000000E+00  0.00000000000E+00  0.19446869242E+03  0.19446869242E+03  0.00000000000E+00 0. -1.
         21   -1    0    0  501  502  0.00000000000E+00 -0.00000000000E+00 -0.12629789094E+03  0.12629789094E+03  0.00000000000E+00 0. -1.
         24    2    1    2    0    0  0.30746831394E+02  0.50046408344E+01  0.29323871740E+02  0.91076800765E+02  0.80403234469E+02 0.  0.
         23    2    1    2    0    0 -0.78956957673E+02 -0.43180981707E+02 -0.30935654006E+02  0.13667764213E+03  0.98106905077E+02 0.  0.
        -11    1    3    3    0    0 -0.23836510836E+02  0.12368354418E+02  0.23512881469E+02  0.35693291174E+02  0.00000000000E+00 0.  1.
         12    1    3    3    0    0  0.54583342230E+02 -0.73637135838E+01  0.58109902708E+01  0.55383509591E+02  0.00000000000E+00 0. -1.
        -13    1    4    4    0    0  0.84837432973E+01  0.21025790092E+02  0.33218520172E+01  0.22914895814E+02  0.00000000000E+00 0.  1.
         13    1    4    4    0    0 -0.87440700970E+02 -0.64206771799E+02 -0.34257506023E+02  0.11376274632E+03  0.00000000000E+00 0. -1.
          1    1    1    2  501    0  0.48210126279E+02  0.38176340872E+02  0.69782583744E+02  0.93012140456E+02  0.00000000000E+00 0. -1.
<scales pt_clust_5="13000.00000" pt_clust_6="13000.00000" pt_clust_7="13000.00000" pt_clust_8="13000.00000" pt_clust_9="61.49515"></scales>
<clustering>
<clus scale="   61.495">  2  9  1 -1</clus>
<clus scale="   80.403">  5  6 -1 -1</clus>
<clus scale="   92.792">  1  5  2 -1</clus>
<clus scale="   98.107">  7  8 -1 -1</clus>
<clus scale="   61.495">  2  5  1 -1</clus>
</clustering>
</event>
<event>
 9    2  0.6469128E-005  0.9579328E+02  0.7546771E-02  0.1294124E+00
          2   -1    0    0  502    0 -0.00000000000E+00  0.00000000000E+00  0.16244337618E+03  0.16244337618E+03  0.00000000000E+00 0. -1.
         21   -1    0    0  501  502  0.00000000000E+00 -0.00000000000E+00 -0.90696979246E+02  0.90696979246E+02  0.00000000000E+00 0.  1.
         23    2    1    2    0    0 -0.18934653270E+02 -0.23303608720E+02  0.78251996581E+02  0.12438524916E+03  0.91906125833E+02 0.  0.
         24    2    1    2    0    0  0.31406804975E+02 -0.60054493433E+01 -0.23853572579E+02  0.92484903380E+02  0.83438669739E+02 0.  0.
        -11    1    4    4    0    0  0.42389479081E+02 -0.29170409937E+02 -0.37283143576E+02  0.63543792361E+02  0.00000000000E+00 0.  1.
         12    1    4    4    0    0 -0.10982674107E+02  0.23164960594E+02  0.13429570997E+02  0.28941111019E+02  0.00000000000E+00 0. -1.
        -11    1    3    3    0    0 -0.32964971346E+02  0.27784069876E+02  0.28301980045E+02  0.51571755343E+02  0.00000000000E+00 0. -1.
         11    1    3    3    0    0  0.14030318076E+02 -0.51087678597E+02  0.49950016536E+02  0.72813493816E+02  0.00000000000E+00 0.  1.
          1    1    1    2  501    0 -0.12472151705E+02  0.29309058063E+02  0.17347972934E+02  0.36270202889E+02  0.00000000000E+00 0. -1.
<scales pt_clust_5="13000.00000" pt_clust_6="13000.00000" pt_clust_7="13000.00000" pt_clust_8="13000.00000" pt_clust_9="31.85242"></scales>
<clustering>
<clus scale="   31.852">  2  9  1 -1</clus>
<clus scale="   83.439">  5  6 -1 -1</clus>
<clus scale="   87.702">  2  5  1 -1</clus>
<clus scale="   91.906">  7  8 -1 -1</clus>
<clus scale="   31.852">  2  5  1 -1</clus>
</clustering>
</event>
<event>
 9    2  0.6469128E-005  0.1136780E+03  0.7546771E-02  0.1265533E+00
         21   -1    0    0  501  502  0.00000000000E+00  0.00000000000E+00  0.26048495599E+03  0.26048495599E+03  0.00000000000E+00 0. -1.
          4   -1    0    0  502    0 -0.00000000000E+00 -0.00000000000E+00 -0.77335683353E+02  0.77335683353E+02  0.00000000000E+00 0. -1.
         23    2    1    2    0    0  0.47203894861E+02  0.36450646082E+02  0.37562066961E+02  0.12826491523E+03  0.10716399728E+03 0.  0.
         24    2    1    2    0    0 -0.26120830795E+02  0.17032061191E+02  0.59680084412E+02  0.10618779364E+03  0.82108136825E+02 0.  0.
        -11    1    4    4    0    0 -0.46161018637E+01  0.34366895065E+02 -0.57659587644E+01  0.35151645100E+02  0.00000000000E+00 0.  1.
         12    1    4    4    0    0 -0.21504728931E+02 -0.17334833873E+02  0.65446043177E+02  0.71036148539E+02  0.00000000000E+00 0. -1.
        -13    1    3    3    0    0  0.20411720838E+02  0.20889140503E+02 -0.37224373180E+02  0.47314358256E+02  0.00000000000E+00 0. -1.
         13    1    3    3    0    0  0.26792174023E+02  0.15561505579E+02  0.74786440141E+02  0.80950556969E+02  0.00000000000E+00 0.  1.
          3    1    1    2  501    0 -0.21083064066E+02 -0.53482707274E+02  0.85907121267E+02  0.10336793048E+03  0.00000000000E+00 0. -1.
<scales pt_clust_5="13000.00000" pt_clust_6="13000.00000" pt_clust_7="13000.00000" pt_clust_8="13000.00000" pt_clust_9="57.48822"></scales>
<clustering>
<clus scale="   57.488">  1  9  2 -1</clus>
<clus scale="   82.108">  5  6 -1 -1</clus>
<clus scale="   90.445">  1  5  2 -1</clus>
<clus scale="  107.164">  7  8 -1 -1</clus>
<clus scale="   57.488">  1  5  2 -1</clus>
</clustering>
</event>
<event>
 9    2  0.6469128E-005  0.1361093E+03  0.7546771E-02  0.1235051E+00
         21   -1    0    0  501  502  0.00000000000E+00  0.00000000000E+00  0.23668846066E+03  0.23668846066E+03  0.00000000000E+00 0. -1.
          2   -1    0    0  502    0 -0.00000000000E+00 -0.00000000000E+00 -0.45424536981E+03  0.45424536981E+03  0.00000000000E+00 0. -1.
         24    2    1    2    0    0 -0.38917654887E+02  0.35455459007E+02 -0.37571563428E+03  0.38799999777E+03  0.81302441478E+02 0.  0.
         23    2    1    2    0    0 -0.77318871320E+02 -0.82447911509E+02  0.77361184238E+02  0.15377799732E+03  0.69907464960E+02 0.  0.
        -11    1    3    3    0    0  0.23473219752E+02  0.21329415671E+02 -0.15444217084E+03  0.15766521542E+03  0.00000000000E+00 0.  1.
         12    1    3    3    0    0 -0.62390874639E+02  0.14126043337E+02 -0.22127346344E+03  0.23033478235E+03  0.00000000000E+00 0. -1.
        -11    1    4    4    0    0 -0.70912641830E+02 -0.25201006080E+02  0.41943466835E+02  0.86156531319E+02  0.00000000000E+00 0. -1.
         11    1    4    4    0    0 -0.64062294898E+01 -0.57246905429E+02  0.35417717403E+02  0.67621465996E+02  0.00000000000E+00 0.  1.
          1    1    1    2  501    0  0.11623652621E+03  0.46992452502E+02  0.80797540895E+02  0.14915583539E+03  0.00000000000E+00 0. -1.
<scales pt_clust_5="13000.00000" pt_clust_6="13000.00000" pt_clust_7="13000.00000" pt_clust_8="13000.00000" pt_clust_9="116.78486"></scales>
<clustering>
<clus scale="   69.907">  7  8 -1 -1</clus>
<clus scale="   81.302">  5  6 -1 -1</clus>
<clus scale="   96.859">  2  5  1 -1</clus>
<clus scale="  116.785">  1  9  2 -1</clus>
<clus scale="  116.785">  1  5  2 -1</clus>
</clustering>
</event>
<event>
 9    2  0.6469128E-005  0.1264817E+03  0.7546771E-02  0.1232963E+00
         21   -1    0    0  501  502  0.00000000000E+00  0.00000000000E+00  0.54051567578E+02  0.54051567578E+02  0.00000000000E+00 0.  1.
          2   -1    0    0  502    0 -0.00000000000E+00 -0.00000000000E+00 -0.81360999531E+03  0.81360999531E+03  0.00000000000E+00 0. -1.
         24    2    1    2    0    0 -0.24777736260E+02  0.87312835054E+02 -0.64923796994E+03  0.66155815072E+03  0.88948174758E+02 0.  0.
         23    2    1    2    0    0 -0.18358437482E+02 -0.91743579765E+02 -0.67867531337E+02  0.14541888409E+03  0.88242469280E+02 0.  0.
        -11    1    3    3    0    0 -0.27443847841E+02  0.27026148031E+02 -0.76496040434E+02  0.85645908623E+02  0.00000000000E+00 0.  1.
         12    1    3    3    0    0  0.26661115808E+01  0.60286687023E+02 -0.57274192951E+03  0.57591224210E+03  0.00000000000E+00 0. -1.
        -13    1    4    4    0    0  0.26619050600E+02 -0.74524665667E+02 -0.31962457849E+02  0.85346929408E+02  0.00000000000E+00 0. -1.
         13    1    4    4    0    0 -0.44977488081E+02 -0.17218914098E+02 -0.35905073488E+02  0.60071954680E+02  0.00000000000E+00 0.  1.
          1    1    1    2  501    0  0.43136173742E+02  0.44307447109E+01 -0.42452926452E+02  0.60684528079E+02  0.00000000000E+00 0. -1.
<scales pt_clust_5="13000.00000" pt_clust_6="13000.00000" pt_clust_7="13000.00000" pt_clust_8="13000.00000" pt_clust_9="43.36313"></scales>
<clustering>
<clus scale="   43.363">  1  9  2 -1</clus>
<clus scale="   88.242">  7  8 -1 -1</clus>
<clus scale="   88.948">  5  6 -1 -1</clus>
<clus scale="  125.986">  1  7  2 -1</clus>
<clus scale="   43.363">  1  5  2 -1</clus>
</clustering>
</event>
<event>
 9    2  0.6469128E-005  0.9145484E+02  0.7546771E-02  0.1308615E+00
         21   -1    0    0  501  502  0.00000000000E+00  0.00000000000E+00  0.25664885667E+02  0.25664885667E+02  0.00000000000E+00 0.  1.
         -3   -1    0    0    0  501 -0.00000000000E+00 -0.00000000000E+00 -0.48889352184E+03  0.48889352184E+03  0.00000000000E+00 0.  1.
         23    2    1    2    0    0 -0.35284354773E+01 -0.24676795983E+02 -0.31284348142E+03  0.32659947867E+03  0.90414498196E+02 0.  0.
         24    2    1    2    0    0 -0.14849803155E+01 -0.17894628814E+01 -0.13959182249E+03  0.15894008638E+03  0.75964905111E+02 0.  0.
        -13    1    4    4    0    0 -0.76934559042E+01 -0.37883327363E+02 -0.82553508463E+02  0.91156006469E+02  0.00000000000E+00 0.  1.
         14    1    4    4    0    0  0.62084755887E+01  0.36093864482E+02 -0.57038314023E+02  0.67784079908E+02  0.00000000000E+00 0. -1.
        -13    1    3    3    0    0  0.36539594221E+02 -0.36074116889E+02 -0.19340097861E+03  0.20010103044E+03  0.00000000000E+00 0.  1.
         13    1    3    3    0    0 -0.40068029698E+02  0.11397320906E+02 -0.11944250281E+03  0.12649844823E+03  0.00000000000E+00 0. -1.
         -4    1    1    2    0  502  0.50134157928E+01  0.26466258864E+02 -0.10793332265E+02  0.29018842458E+02  0.00000000000E+00 0.  1.
<scales pt_clust_5="13000.00000" pt_clust_6="13000.00000" pt_clust_7="13000.00000" pt_clust_8="13000.00000" pt_clust_9="26.93691"></scales>
<clustering>
<clus scale="   26.937">  1  9  2 -1</clus>
<clus scale="   75.965">  5  6 -1 -1</clus>
<clus scale="   77.200">  1  5  2 -1</clus>
<clus scale="   90.414">  7  8 -1 -1</clus>
<clus scale="   26.937">  1  5  2 -1</clus>
</clustering>
</event>
<event>
 9    2  0.6469128E-005  0.9109679E+02  0.7546771E-02  0.1307547E+00
         -1   -1    0    0    0  501 -0.00000000000E+00  0.00000000000E+00  0.25142685998E+03  0.25142685998E+03  0.00000000000E+00 0.  1.
         21   -1    0    0  501  502  0.00000000000E+00 -0.00000000000E+00 -0.97418065424E+02  0.97418065424E+02  0.00000000000E+00 0. -1.
         24    2    1    2    0    0  0.14618952862E+02 -0.32325755748E+01  0.11030573442E+02  0.81501193328E+02  0.79351166569E+02 0.  0.
         23    2    1    2    0    0  0.41625413887E+02 -0.29038555568E+01 -0.13575480065E+02  0.10088008460E+03  0.90837163934E+02 0.  0.
        -11    1    3    3    0    0  0.32082796914E+02  0.11313549545E+01  0.37579733627E+02  0.49424914784E+02  0.00000000000E+00 0.  1.
         12    1    3    3    0    0 -0.17463844051E+02 -0.43639305293E+01 -0.26549160186E+02  0.32076278545E+02  0.00000000000E+00 0. -1.
        -11    1    4    4    0    0  0.69000316048E+02  0.99429291358E+01 -0.10123190556E+02  0.70444193810E+02  0.00000000000E+00 0. -1.
         11    1    4    4    0    0 -0.27374902161E+02 -0.12846784693E+02 -0.34522895089E+01  0.30435890789E+02  0.00000000000E+00 0.  1.
         -2    1    1    2    0  502 -0.56244366749E+02  0.61364311316E+01  0.15655370118E+03  0.16646364747E+03  0.00000000000E+00 0.  1.
<scales pt_clust_5="13000.00000" pt_clust_6="13000.00000" pt_clust_7="13000.00000" pt_clust_8="13000.00000" pt_clust_9="56.57816"></scales>
<clustering>
<clus scale="   56.578">  2  9  1 -1</clus>
<clus scale="   79.351">  5  6 -1 -1</clus>
<clus scale="   79.648">  1  5  2 -1</clus>
<clus scale="   90.837">  7  8 -1 -1</clus>
<clus scale="   56.578">  2  5  1 -1</clus>
</clustering>
</event>
<event>
 9    2  0.6469128E-005  0.1176984E+03  0.7546771E-02  0.1265656E+00
         -1   -1    0    0    0  501 -0.00000000000E+00  0.00000000000E+00  0.78904683659E+02  0.78904683659E+02  0.00000000000E+00 0.  1.
         21   -1    0    0  501  502  0.00000000000E+00 -0.00000000000E+00 -0.30897450531E+03  0.30897450531E+03  0.00000000000E+00 0.  1.
         24    2    1    2    0    0  0.74054071529E+01 -0.37845798014E+02 -0.71891155493E+02  0.10852209235E+03  0.71565087913E+02 0.  0.
         23    2    1    2    0    0  0.19308947078E+02 -0.41541260560E+02  0.48095689137E+00  0.99944617181E+02  0.88826704419E+02 0.  0.
        -13    1    3    3    0    0 -0.17145325178E+02 -0.50733684147E+02 -0.46422458576E+02  0.70872516132E+02  0.00000000000E+00 0.  1.
         14    1    3    3    0    0  0.24550732331E+02  0.12887886133E+02 -0.25468696916E+02  0.37649576221E+02  0.00000000000E+00 0. -1.
        -11    1    4    4    0    0 -0.20651806342E+02 -0.30230106747E+02  0.31348985669E+02  0.48198707053E+02  0.00000000000E+00 0.  1.
         11    1    4    4    0    0  0.39960753420E+02 -0.11311153812E+02 -0.30868028777E+02  0.51745910129E+02  0.00000000000E+00 0. -1.
         -2    1    1    2    0  502 -0.26714354231E+02  0.79387058574E+02 -0.15865962305E+03  0.17941247944E+03  0.00000000000E+00 0.  1.
<scales pt_clust_5="13000.00000" pt_clust_6="13000.00000" pt_clust_7="13000.00000" pt_clust_8="13000.00000" pt_clust_9="77.21876"></scales>
<clustering>
<clus scale="   71.565">  5  6 -1 -1</clus>
<clus scale="   81.294">  1  5  2 -1</clus>
<clus scale="   77.219">  2  9  1 -1</clus>
<clus scale="   88.827">  7  8 -1 -1</clus>
<clus scale="   77.219">  2  5  1 -1</clus>
</clustering>
</event>
<event>
 9    2  0.6469128E-005  0.9733101E+02  0.7546771E-02  0.1293531E+00
         21   -1    0    0  501  502  0.00000000000E+00  0.00000000000E+00  0.22905141192E+03  0.22905141192E+03  0.00000000000E+00 0.  1.
         -1   -1    0    0    0  501 -0.00000000000E+00 -0.00000000000E+00 -0.10221886266E+03  0.10221886266E+03  0.00000000000E+00 0.  1.
         23    2    1    2    0    0  0.63761215947E+01  0.38245997179E+02  0.89996616895E+02  0.13590868391E+03  0.94172013272E+02 0.  0.
         24    2    1    2    0    0  0.34926469501E+02 -0.20424392872E+01  0.84906346631E+02  0.12237278082E+03  0.80882507114E+02 0.  0.
        -11    1    4    4    0    0  0.56081611741E+02 -0.12792611493E+02  0.35584026204E+02  0.67638901567E+02  0.00000000000E+00 0.  1.
         12    1    4    4    0    0 -0.21155142240E+02  0.10750172205E+02  0.49322320427E+02  0.54733879252E+02  0.00000000000E+00 0. -1.
        -11    1    3    3    0    0  0.31271052390E+02  0.21421785833E+02 -0.31503428814E+01  0.38035460903E+02  0.00000000000E+00 0. -1.
         11    1    3    3    0    0 -0.24894930795E+02  0.16824211346E+02  0.93146959776E+02  0.97873223009E+02  0.00000000000E+00 0.  1.
         -2    1    1    2    0  502 -0.41302591096E+02 -0.36203557892E+02 -0.48070414272E+02  0.72988809851E+02  0.00000000000E+00 0.  1.
<scales pt_clust_5="13000.00000" pt_clust_6="13000.00000" pt_clust_7="13000.00000" pt_clust_8="13000.00000" pt_clust_9="54.92363"></scales>
<clustering>
<clus scale="   54.924">  1  9  2 -1</clus>
<clus scale="   80.883">  5  6 -1 -1</clus>
<clus scale="   84.540">  1  5  2 -1</clus>
<clus scale="   94.172">  7  8 -1 -1</clus>
<clus scale="   54.924">  1  5  2 -1</clus>
</clustering>
</event>
<event>
 9    2  0.6469128E-005  0.1523178E+03  0.7546771E-02  0.1199634E+00
         21   -1    0    0  501  502  0.00000000000E+00  0.00000000000E+00  0.66052750157E+02  0.66052750157E+02  0.00000000000E+00 0. -1.
          2   -1    0    0  502    0 -0.00000000000E+00 -0.00000000000E+00 -0.49572860117E+03  0.49572860117E+03  0.00000000000E+00 0. -1.
         23    2    1    2    0    0 -0.14059010430E+03 -0.17828076288E+02 -0.26235721569E+03  0.31198878726E+03  0.91772964540E+02 0.  0.
         24    2    1    2    0    0  0.91208387816E+02  0.19305080420E+02 -0.72867207135E+02  0.14320078319E+03  0.80654685499E+02 0.  0.
        -13    1    4    4    0    0  0.11417258120E+02  0.38459865776E+02 -0.33117751506E+02  0.52022115714E+02  0.00000000000E+00 0.  1.
         14    1    4    4    0    0  0.79791129696E+02 -0.19154785357E+02 -0.39749455629E+02  0.91178667478E+02  0.00000000000E+00 0. -1.
        -11    1    3    3    0    0 -0.10477048401E+03 -0.36519528538E+02 -0.24311672950E+03  0.26723823538E+03  0.00000000000E+00 0. -1.
         11    1    3    3    0    0 -0.35819620289E+02  0.18691452250E+02 -0.19240486185E+02  0.44750551879E+02  0.00000000000E+00 0.  1.
          1    1    1    2  501    0  0.49381716482E+02 -0.14770041314E+01 -0.94451428194E+02  0.10659178088E+03  0.00000000000E+00 0. -1.
<scales pt_clust_5="13000.00000" pt_clust_6="13000.00000" pt_clust_7="13000.00000" pt_clust_8="13000.00000" pt_clust_9="49.40382"></scales>
<clustering>
<clus scale="   49.404">  1  9  2 -1</clus>
<clus scale="   80.655">  5  6 -1 -1</clus>
<clus scale="   91.773">  7  8 -1 -1</clus>
<clus scale="  145.889">  1  5  2 -1</clus>
<clus scale="   49.404">  1  5  2 -1</clus>
</clustering>
</event>
<event>
 9    2  0.6469128E-005  0.1366069E+03  0.7546771E-02  0.1223984E+00
         21   -1    0    0  501  502  0.00000000000E+00  0.00000000000E+00  0.72810995087E+02  0.72810995087E+02  0.00000000000E+00 0. -1.
          2   -1    0    0  502    0 -0.00000000000E+00 -0.00000000000E+00 -0.36549656620E+03  0.36549656620E+03  0.00000000000E+00 0. -1.
         23    2    1    2    0    0  0.10816647178E+03  0.26796416809E+02 -0.18916064036E+03  0.24282734718E+03  0.10375615215E+03 0.  0.
         24    2    1    2    0    0 -0.51773436842E+02 -0.45262020539E+02 -0.65354032672E+02  0.12492406361E+03  0.81275659441E+02 0.  0.
        -13    1    4    4    0    0 -0.56169356860E+02  0.45454622488E+01 -0.31774442966E+02  0.64693686732E+02  0.00000000000E+00 0.  1.
         14    1    4    4    0    0  0.43959200187E+01 -0.49807482787E+02 -0.33579589706E+02  0.60230376881E+02  0.00000000000E+00 0. -1.
        -13    1    3    3    0    0  0.32575723877E+02 -0.38360057967E+02 -0.83460622150E+02  0.97459464820E+02  0.00000000000E+00 0.  1.
         13    1    3    3    0    0  0.75590747907E+02  0.65156474776E+02 -0.10570001821E+03  0.14536788236E+03  0.00000000000E+00 0. -1.
          1    1    1    2  501    0 -0.56393034942E+02  0.18465603730E+02 -0.38170898081E+02  0.70556150486E+02  0.00000000000E+00 0. -1.
<scales pt_clust_5="13000.00000" pt_clust_6="13000.00000" pt_clust_7="13000.00000" pt_clust_8="13000.00000" pt_clust_9="59.33930"></scales>
<clustering>
<clus scale="   59.339">  1  9  2 -1</clus>
<clus scale="   81.276">  5  6 -1 -1</clus>
<clus scale="  103.756">  7  8 -1 -1</clus>
<clus scale="  120.424">  1  5  2 -1</clus>
<clus scale="   59.339">  1  5  2 -1</clus>
</clustering>
</event>
<event>
 9    2  0.6469128E-005  0.3749653E+03  0.7546771E-02  0.1053093E+00
         21   -1    0    0  501  502  0.00000000000E+00  0.00000000000E+00  0.87605288667E+02  0.87605288667E+02  0.00000000000E+00 0. -1.
          2   -1    0    0  502    0 -0.00000000000E+00 -0.00000000000E+00 -0.21554993473E+04  0.21554993473E+04  0.00000000000E+00 0. -1.
         24    2    1    2    0    0  0.11207422316E+03 -0.35281197920E+03 -0.15591820234E+04  0.16045841043E+04  0.81268946917E+02 0.  0.
         23    2    1    2    0    0 -0.10496293040E+03  0.32820448917E+03 -0.49182591618E+03  0.60784089559E+03  0.94034137673E+02 0.  0.
        -11    1    3    3    0    0  0.51654702326E+02 -0.26041297850E+03 -0.11896328388E+04  0.12188968040E+04  0.00000000000E+00 0.  1.
         12    1    3    3    0    0  0.60419520838E+02 -0.92399000695E+02 -0.36954918456E+03  0.38568730033E+03  0.00000000000E+00 0. -1.
        -11    1    4    4    0    0 -0.83495266383E+01  0.13005383251E+03 -0.24043829415E+03  0.27348544247E+03  0.00000000000E+00 0. -1.
         11    1    4    4    0    0 -0.96613403761E+02  0.19815065666E+03 -0.25138762203E+03  0.33435545312E+03  0.00000000000E+00 0.  1.
          1    1    1    2  501    0 -0.71112927646E+01  0.24607490027E+02 -0.16886119089E+02  0.30679636049E+02  0.00000000000E+00 0. -1.
<scales pt_clust_5="13000.00000" pt_clust_6="13000.00000" pt_clust_7="13000.00000" pt_clust_8="13000.00000" pt_clust_9="25.61443"></scales>
<clustering>
<clus scale="   25.614">  1  9  2 -1</clus>
<clus scale="   81.269">  5  6 -1 -1</clus>
<clus scale="   94.034">  7  8 -1 -1</clus>
<clus scale="  371.969">  2  5  1 -1</clus>
<clus scale="   25.614">  1  5  2 -1</clus>
</clustering>
</event>
<event>
 9    2  0.6469128E-005  0.9939723E+02  0.7546771E-02  0.1288393E+00
         21   -1    0    0  501  502  0.00000000000E+00  0.00000000000E+00  0.95989874353E+02  0.95989874353E+02  0.00000000000E+00 0. -1.
          2   -1    0    0  502    0 -0.00000000000E+00 -0.00000000000E+00 -0.51716632576E+03  0.51716632576E+03  0.00000000000E+00 0. -1.
         24    2    1    2    0    0  0.64051598402E+01  0.37557962949E+02 -0.36710484845E+03  0.37763518631E+03  0.79942088602E+02 0.  0.
         23    2    1    2    0    0 -0.73369500051E+02  0.46646622763E+01 -0.89794195661E+02  0.14867012682E+03  0.92924520034E+02 0.  0.
        -13    1    3    3    0    0 -0.79280229952E+01  0.22154449030E+02 -0.23054690723E+02  0.32942251361E+02  0.00000000000E+00 0.  1.
         14    1    3    3    0    0  0.14333182835E+02  0.15403513919E+02 -0.34405015772E+03  0.34469293494E+03  0.00000000000E+00 0. -1.
        -13    1    4    4    0    0 -0.87369060796E+02 -0.16241500716E+02 -0.51086008537E+02  0.10250326530E+03  0.00000000000E+00 0. -1.
         13    1    4    4    0    0  0.13999560745E+02  0.20906162992E+02 -0.38708187125E+02  0.46166861520E+02  0.00000000000E+00 0.  1.
          1    1    1    2  501    0  0.66964340211E+02 -0.42222625225E+02  0.35722592699E+02  0.86850886984E+02  0.00000000000E+00 0. -1.
<scales pt_clust_5="13000.00000" pt_clust_6="13000.00000" pt_clust_7="13000.00000" pt_clust_8="13000.00000" pt_clust_9="79.16422"></scales>
<clustering>
<clus scale="   79.164">  1  9  2 -1</clus>
<clus scale="   79.942">  5  6 -1 -1</clus>
<clus scale="   87.382">  2  5  1 -1</clus>
<clus scale="   92.925">  7  8 -1 -1</clus>
<clus scale="   79.164">  1  5  2 -1</clus>
</clustering>
</event>
<event>
 9    2  0.6469128E-005  0.9597554E+02  0.7546771E-02  0.1295924E+00
         21   -1    0    0  501  502  0.00000000000E+00  0.00000000000E+00  0.21484654393E+02  0.21484654393E+02  0.00000000000E+00 0.  1.
          2   -1    0    0  502    0 -0.00000000000E+00 -0.00000000000E+00 -0.84696151848E+03  0.84696151848E+03  0.00000000000E+00 0. -1.
         24    2    1    2    0    0 -0.21996054143E+02  0.19288971830E+01 -0.45911224899E+03  0.46643838382E+03  0.79329450304E+02 0.  0.
         23    2    1    2    0    0  0.42251884682E+02 -0.47736188821E+02 -0.20997059937E+03  0.23778935284E+03  0.91608723605E+02 0.  0.
        -11    1    3    3    0    0 -0.55588833829E+01 -0.38345140596E+02 -0.22778676916E+03  0.23105857092E+03  0.00000000000E+00 0.  1.
         12    1    3    3    0    0 -0.16437170760E+02  0.40274037779E+02 -0.23132547983E+03  0.23537981290E+03  0.00000000000E+00 0. -1.
        -13    1    4    4    0    0  0.19372351952E+02  0.15799805394E+02 -0.10351123958E+02  0.27056748472E+02  0.00000000000E+00 0.  1.
         13    1    4    4    0    0  0.22879532729E+02 -0.63535994216E+02 -0.19961947541E+03  0.21073260437E+03  0.00000000000E+00 0. -1.
          1    1    1    2  501    0 -0.20255830539E+02  0.45807291638E+02 -0.15639401573E+03  0.16421843622E+03  0.00000000000E+00 0. -1.
<scales pt_clust_5="13000.00000" pt_clust_6="13000.00000" pt_clust_7="13000.00000" pt_clust_8="13000.00000" pt_clust_9="50.08602"></scales>
<clustering>
<clus scale="   50.086">  1  9  2 -1</clus>
<clus scale="   79.329">  5  6 -1 -1</clus>
<clus scale="   84.334">  2  5  1 -1</clus>
<clus scale="   91.609">  7  8 -1 -1</clus>
<clus scale="   50.086">  1  5  2 -1</clus>
</clustering>
</event>
<event>
 9    2  0.7568273E-005  0.9443480E+02  0.7546771E-02  0.1299785E+00
         21   -1    0    0  501  502  0.00000000000E+00  0.00000000000E+00  0.21537463456E+03  0.21537463456E+03  0.00000000000E+00 0. -1.
         -1   -1    0    0    0  501 -0.00000000000E+00 -0.00000000000E+00 -0.12293396212E+03  0.12293396212E+03  0.00000000000E+00 0.  1.
         23    2    1    2    0    0  0.14278331099E+02 -0.12384163507E+02 -0.79261342881E+02  0.12358405526E+03  0.92916198767E+02 0.  0.
         24    2    1    2    0    0  0.23775589286E+02  0.26535279174E+02  0.11290361808E+03  0.14327101493E+03  0.80684304896E+02 0.  0.
        -13    1    4    4    0    0 -0.20178807929E+02 -0.54236826990E+01  0.36000396335E+01  0.21202851431E+02  0.00000000000E+00 0.  1.
         14    1    4    4    0    0  0.43954397215E+02  0.31958961873E+02  0.10930357845E+03  0.12206816350E+03  0.00000000000E+00 0. -1.
        -11    1    3    3    0    0  0.17569013424E+02  0.37265986880E+02 -0.53579351899E+02  0.67588245730E+02  0.00000000000E+00 0. -1.
         11    1    3    3    0    0 -0.32906823251E+01 -0.49650150388E+02 -0.25681990982E+02  0.55995809526E+02  0.00000000000E+00 0.  1.
         -2    1    1    2    0  502 -0.38053920385E+02 -0.14151115666E+02  0.58798397234E+02  0.71453526494E+02  0.00000000000E+00 0.  1.
<scales pt_clust_5="13000.00000" pt_clust_6="13000.00000" pt_clust_7="13000.00000" pt_clust_8="13000.00000" pt_clust_9="40.59994"></scales>
<clustering>
<clus scale="   40.600">  1  9  2 -1</clus>
<clus scale="   80.684">  5  6 -1 -1</clus>
<clus scale="   82.429">  1  5  2 -1</clus>
<clus scale="   92.916">  7  8 -1 -1</clus>
<clus scale="   40.600">  1  5  2 -1</clus>
</clustering>
</event>
<event>
 9    2  0.6469128E-005  0.9952182E+02  0.7546771E-02  0.1287090E+00
         -3   -1    0    0    0  501 -0.00000000000E+00  0.00000000000E+00  0.13590722568E+03  0.13590722568E+03  0.00000000000E+00 0.  1.
         21   -1    0    0  501  502  0.00000000000E+00 -0.00000000000E+00 -0.23238509139E+03  0.23238509139E+03  0.00000000000E+00 0. -1.
         24    2    1    2    0    0  0.27433045918E+02 -0.40481935666E+02  0.75551841398E+02  0.12026107020E+03  0.79770202109E+02 0.  0.
         23    2    1    2    0    0  0.36074181234E+02  0.87023862580E+00 -0.12786896865E+03  0.16112655618E+03  0.91154759033E+02 0.  0.
        -13    1    3    3    0    0 -0.84077059396E+01 -0.30356723006E+02  0.76787324369E+02  0.82997068228E+02  0.00000000000E+00 0.  1.
         14    1    3    3    0    0  0.35840751858E+02 -0.10125212660E+02 -0.12354829706E+01  0.37264001976E+02  0.00000000000E+00 0. -1.
        -11    1    4    4    0    0  0.53669603653E+02 -0.13890917144E+02 -0.35234874716E+02  0.65687748718E+02  0.00000000000E+00 0.  1.
         11    1    4    4    0    0 -0.17595422419E+02  0.14761155770E+02 -0.92634093938E+02  0.95438807460E+02  0.00000000000E+00 0. -1.
         -4    1    1    2    0  502 -0.63507227152E+02  0.39611697040E+02 -0.44160738448E+02  0.86904690686E+02  0.00000000000E+00 0.  1.
<scales pt_clust_5="13000.00000" pt_clust_6="13000.00000" pt_clust_7="13000.00000" pt_clust_8="13000.00000" pt_clust_9="74.84821"></scales>
<clustering>
<clus scale="   74.848">  2  9  1 -1</clus>
<clus scale="   79.770">  5  6 -1 -1</clus>
<clus scale="   89.211">  1  5  2 -1</clus>
<clus scale="   91.155">  7  8 -1 -1</clus>
<clus scale="   74.848">  2  5  1 -1</clus>
</clustering>
</event>
<event>
 9    2  0.6469128E-005  0.9898526E+02  0.7546771E-02  0.1287086E+00
         21   -1    0    0  501  502  0.00000000000E+00  0.00000000000E+00  0.72623396024E+02  0.72623396024E+02  0.00000000000E+00 0.  1.
         -3   -1    0    0    0  501 -0.00000000000E+00 -0.00000000000E+00 -0.54921846447E+03  0.54921846447E+03  0.00000000000E+00 0.  1.
         24    2    1    2    0    0  0.16996529916E+02  0.29887114884E+02 -0.26623753232E+03  0.28020641290E+03  0.80318668717E+02 0.  0.
         23    2    1    2    0    0 -0.34183973762E+02 -0.41071896152E+02 -0.26418455324E+03  0.28403462008E+03  0.89592089577E+02 0.  0.
        -13    1    3    3    0    0  0.37086147207E+02 -0.38539783039E+01 -0.19796798758E+03  0.20144865244E+03  0.00000000000E+00 0.  1.
         14    1    3    3    0    0 -0.20089617291E+02  0.33741093188E+02 -0.68269544745E+02  0.78757760456E+02  0.00000000000E+00 0. -1.
        -11    1    4    4    0    0 -0.34573422853E+02  0.14248518621E+02 -0.17603752684E+03  0.17996542087E+03  0.00000000000E+00 0.  1.
         11    1    4    4    0    0  0.38944909120E+00 -0.55320414773E+02 -0.88147026400E+02  0.10406919921E+03  0.00000000000E+00 0. -1.
         -4    1    1    2    0  502  0.17187443846E+02  0.11184781268E+02  0.53827017125E+02  0.57600827516E+02  0.00000000000E+00 0.  1.
<scales pt_clust_5="13000.00000" pt_clust_6="13000.00000" pt_clust_7="13000.00000" pt_clust_8="13000.00000" pt_clust_9="20.50628"></scales>
<clustering>
<clus scale="   20.506">  1  9  2 -1</clus>
<clus scale="   80.319">  5  6 -1 -1</clus>
<clus scale="   89.592">  7  8 -1 -1</clus>
<clus scale="   90.678">  2  5  1 -1</clus>
<clus scale="   20.506">  1  5  2 -1</clus>
</clustering>
</event>
<event>
 9    2  0.7090703E-005  0.1099146E+03  0.7546771E-02  0.1266963E+00
          2   -1    0    0  502    0 -0.00000000000E+00  0.00000000000E+00  0.89469712796E+03  0.89469712796E+03  0.00000000000E+00 0. -1.
         21   -1    0    0  501  502  0.00000000000E+00 -0.00000000000E+00 -0.11398106126E+03  0.11398106126E+03  0.00000000000E+00 0. -1.
         24    2    1    2    0    0 -0.58475119796E+02 -0.15219026571E+02  0.54373274848E+03  0.55300206316E+03  0.80715684280E+02 0.  0.
         23    2    1    2    0    0  0.35048879429E+02  0.31843610934E+02  0.33603354184E+03  0.35254459673E+03  0.95533826115E+02 0.  0.
        -13    1    3    3    0    0 -0.29260062999E+02  0.16094700218E+02  0.72431821048E+02  0.79759384163E+02  0.00000000000E+00 0.  1.
         14    1    3    3    0    0 -0.29215056798E+02 -0.31313726789E+02  0.47130092743E+03  0.47324267900E+03  0.00000000000E+00 0. -1.
        -13    1    4    4    0    0  0.50047769371E+02 -0.12373477924E+02  0.10665028394E+03  0.11845744063E+03  0.00000000000E+00 0.  1.
         13    1    4    4    0    0 -0.14998889942E+02  0.44217088857E+02  0.22938325790E+03  0.23408715610E+03  0.00000000000E+00 0. -1.
          1    1    1    2  501    0  0.23426240367E+02 -0.16624584363E+02 -0.99050223623E+02  0.10313152933E+03  0.00000000000E+00 0. -1.
<scales pt_clust_5="13000.00000" pt_clust_6="13000.00000" pt_clust_7="13000.00000" pt_clust_8="13000.00000" pt_clust_9="28.72569"></scales>
<clustering>
<clus scale="   28.726">  2  9  1 -1</clus>
<clus scale="   80.716">  5  6 -1 -1</clus>
<clus scale="   95.534">  7  8 -1 -1</clus>
<clus scale="   97.312">  1  5  2 -1</clus>
<clus scale="   28.726">  2  5  1 -1</clus>
</clustering>
</event>
<event>
 9    2  0.6469128E-005  0.1573470E+03  0.7546771E-02  0.1192462E+00
         21   -1    0    0  501  502  0.00000000000E+00  0.00000000000E+00  0.24623123875E+03  0.24623123875E+03  0.00000000000E+00 0. -1.
          2   -1    0    0  502    0 -0.00000000000E+00 -0.00000000000E+00 -0.40019635559E+03  0.40019635559E+03  0.00000000000E+00 0. -1.
         24    2    1    2    0    0  0.13515804713E+03  0.13829381059E+02 -0.33274343572E+03  0.37019547464E+03  0.88699187945E+02 0.  0.
         23    2    1    2    0    0 -0.82336899016E+02  0.21876388525E+02  0.56299882216E+02  0.13815263854E+03  0.93051241178E+02 0.  0.
        -13    1    3    3    0    0 -0.57369732963E+01  0.19268427176E+02 -0.57959672543E+02  0.61347443221E+02  0.00000000000E+00 0.  1.
         14    1    3    3    0    0  0.14089502042E+03 -0.54390461171E+01 -0.27478376318E+03  0.30884803142E+03  0.00000000000E+00 0. -1.
        -13    1    4    4    0    0 -0.82735390416E+02 -0.28028517034E+01  0.70730646935E+01  0.83084469362E+02  0.00000000000E+00 0.  1.
         13    1    4    4    0    0  0.39849140042E+00  0.24679240229E+02  0.49226817523E+02  0.55068169182E+02  0.00000000000E+00 0. -1.
          1    1    1    2  501    0 -0.52821148113E+02 -0.35705769584E+02  0.12247843666E+03  0.13807948116E+03  0.00000000000E+00 0. -1.
<scales pt_clust_5="13000.00000" pt_clust_6="13000.00000" pt_clust_7="13000.00000" pt_clust_8="13000.00000" pt_clust_9="63.75716"></scales>
<clustering>
<clus scale="   63.757">  1  9  2 -1</clus>
<clus scale="   88.699">  5  6 -1 -1</clus>
<clus scale="   93.051">  7  8 -1 -1</clus>
<clus scale="  154.813">  2  5  1 -1</clus>
<clus scale="   63.757">  1  5  2 -1</clus>
</clustering>
</event>
<event>
 9    2  0.6469128E-005  0.9636365E+02  0.7546771E-02  0.1296616E+00
         21   -1    0    0  501  502  0.00000000000E+00  0.00000000000E+00  0.49931241293E+02  0.49931241293E+02  0.00000000000E+00 0.  1.
         -1   -1    0    0    0  501 -0.00000000000E+00 -0.00000000000E+00 -0.38570937494E+03  0.38570937494E+03  0.00000000000E+00 0.  1.
         24    2    1    2    0    0 -0.28057679313E+02  0.12936563279E+01 -0.22981910836E+03  0.24419565290E+03  0.77625945486E+02 0.  0.
         23    2    1    2    0    0  0.12674401057E+02 -0.49862082387E+02 -0.54395110550E+02  0.11895789854E+03  0.92440715436E+02 0.  0.
        -13    1    3    3    0    0 -0.49599360964E+02  0.20412555858E+02 -0.14333146707E+03  0.15303816027E+03  0.00000000000E+00 0.  1.
         14    1    3    3    0    0  0.21541681651E+02 -0.19118899530E+02 -0.86487641291E+02  0.91157492636E+02  0.00000000000E+00 0. -1.
        -13    1    4    4    0    0 -0.23397103285E+02 -0.44721877853E+02 -0.63777966755E+02  0.81333264070E+02  0.00000000000E+00 0.  1.
         13    1    4    4    0    0  0.36071504342E+02 -0.51402045335E+01  0.93828562049E+01  0.37624634466E+02  0.00000000000E+00 0. -1.
         -2    1    1    2    0  502  0.15383278256E+02  0.48568426059E+02 -0.51563914730E+02  0.72487064791E+02  0.00000000000E+00 0.  1.
<scales pt_clust_5="13000.00000" pt_clust_6="13000.00000" pt_clust_7="13000.00000" pt_clust_8="13000.00000" pt_clust_9="50.94642"></scales>
<clustering>
<clus scale="   50.946">  1  9  2 -1</clus>
<clus scale="   77.626">  5  6 -1 -1</clus>
<clus scale="   82.258">  2  5  1 -1</clus>
<clus scale="   92.441">  7  8 -1 -1</clus>
<clus scale="   50.946">  1  5  2 -1</clus>
</clustering>
</event>
<event>
 9    2  0.6469128E-005  0.1190729E+03  0.7546771E-02  0.1254756E+00
         21   -1    0    0  501  502  0.00000000000E+00  0.00000000000E+00  0.26682042422E+03  0.26682042422E+03  0.00000000000E+00 0.  1.
         -1   -1    0    0    0  501 -0.00000000000E+00 -0.00000000000E+00 -0.14000412657E+03  0.14000412657E+03  0.00000000000E+00 0.  1.
         24    2    1    2    0    0 -0.12598916120E+02  0.53556066857E+02 -0.68496850923E+02  0.11896149712E+03  0.80206198177E+02 0.  0.
         23    2    1    2    0    0  0.18503870830E+02  0.50522103593E+02  0.11238083097E+03  0.15465305646E+03  0.91614630474E+02 0.  0.
        -13    1    3    3    0    0  0.43756496151E+01  0.50490435044E+02 -0.82446646750E+02  0.96777476206E+02  0.00000000000E+00 0.  1.
         14    1    3    3    0    0 -0.16974565735E+02  0.30656318135E+01  0.13949795827E+02  0.22184020914E+02  0.00000000000E+00 0. -1.
        -13    1    4    4    0    0  0.32930694064E+01  0.36152407014E+02  0.12503571180E+03  0.13019896338E+03  0.00000000000E+00 0.  1.
         13    1    4    4    0    0  0.15210801424E+02  0.14369696579E+02 -0.12654880833E+02  0.24454093085E+02  0.00000000000E+00 0. -1.
         -2    1    1    2    0  502 -0.59049547100E+01 -0.10407817045E+03  0.82932317600E+02  0.13320999721E+03  0.00000000000E+00 0.  1.
<scales pt_clust_5="13000.00000" pt_clust_6="13000.00000" pt_clust_7="13000.00000" pt_clust_8="13000.00000" pt_clust_9="76.06005"></scales>
<clustering>
<clus scale="   80.206">  5  6 -1 -1</clus>
<clus scale="   91.615">  7  8 -1 -1</clus>
<clus scale="   97.263">  2  5  1 -1</clus>
<clus scale="   76.060">  1  9  2 -1</clus>
<clus scale="   76.060">  1  5  2 -1</clus>
</clustering>
</event>
<event>
 9    2  0.6469128E-005  0.1121645E+03  0.7546771E-02  0.1263211E+00
         21   -1    0    0  501  502  0.00000000000E+00  0.00000000000E+00  0.31606841698E+02  0.31606841698E+02  0.00000000000E+00 0. -1.
          2   -1    0    0  502    0 -0.00000000000E+00 -0.00000000000E+00 -0.69309631032E+03  0.69309631032E+03  0.00000000000E+00 0. -1.
         23    2    1    2    0    0  0.28526255944E+02 -0.69731646483E+02 -0.40623342483E+03  0.41994684914E+03  0.75189832131E+02 0.  0.
         24    2    1    2    0    0  0.22998395626E+02  0.48709456255E+02 -0.19734041501E+03  0.22443854483E+03  0.92346541226E+02 0.  0.
        -13    1    4    4    0    0 -0.24332373392E+02 -0.14181657357E+02 -0.49557106381E+02  0.57000794671E+02  0.00000000000E+00 0.  1.
         14    1    4    4    0    0  0.47330769018E+02  0.62891113611E+02 -0.14778330863E+03  0.16743775015E+03  0.00000000000E+00 0. -1.
        -13    1    3    3    0    0 -0.47721092423E+00 -0.59401184796E+02 -0.35678824362E+03  0.36169957046E+03  0.00000000000E+00 0. -1.
         13    1    3    3    0    0  0.29003466868E+02 -0.10330461687E+02 -0.49445181213E+02  0.58247278685E+02  0.00000000000E+00 0.  1.
          1    1    1    2  501    0 -0.51524651570E+02  0.21022190228E+02 -0.57915628782E+02  0.80317758052E+02  0.00000000000E+00 0. -1.
<scales pt_clust_5="13000.00000" pt_clust_6="13000.00000" pt_clust_7="13000.00000" pt_clust_8="13000.00000" pt_clust_9="55.64820"></scales>
<clustering>
<clus scale="   55.648">  1  9  2 -1</clus>
<clus scale="   75.190">  7  8 -1 -1</clus>
<clus scale="   92.347">  5  6 -1 -1</clus>
<clus scale="   98.522">  2  7  1 -1</clus>
<clus scale="   55.648">  1  5  2 -1</clus>
</clustering>
</event>
<event>
 9    2  0.6469128E-005  0.9426578E+02  0.7546771E-02  0.1302145E+00
         21   -1    0    0  501  502  0.00000000000E+00  0.00000000000E+00  0.67500643758E+02  0.67500643758E+02  0.00000000000E+00 0. -1.
          4   -1    0    0  502    0 -0.00000000000E+00 -0.00000000000E+00 -0.18263521675E+03  0.18263521675E+03  0.00000000000E+00 0. -1.
         24    2    1    2    0    0  0.20541515788E+02  0.10214199096E+02 -0.10740114189E+03  0.13424263415E+03  0.77199713795E+02 0.  0.
         23    2    1    2    0    0  0.20307546853E+01 -0.10340755668E+02 -0.63020471235E+01  0.93275262908E+02  0.92463526216E+02 0.  0.
        -13    1    3    3    0    0  0.42728424952E+02 -0.15957565422E+02 -0.69372415087E+02  0.83023455529E+02  0.00000000000E+00 0.  1.
         14    1    3    3    0    0 -0.22186909164E+02  0.26171764517E+02 -0.38028726799E+02  0.51219178617E+02  0.00000000000E+00 0. -1.
        -11    1    4    4    0    0 -0.37475723994E+02  0.16682414459E+02  0.10847581909E+02  0.42431154525E+02  0.00000000000E+00 0.  1.
         11    1    4    4    0    0  0.39506478679E+02 -0.27023170126E+02 -0.17149629033E+02  0.50844108383E+02  0.00000000000E+00 0. -1.
          3    1    1    2  501    0 -0.22572270473E+02  0.12655657190E+00 -0.14313839868E+01  0.22617963458E+02  0.00000000000E+00 0. -1.
<scales pt_clust_5="13000.00000" pt_clust_6="13000.00000" pt_clust_7="13000.00000" pt_clust_8="13000.00000" pt_clust_9="22.57263"></scales>
<clustering>
<clus scale="   22.573">  1  9  2 -1</clus>
<clus scale="   77.200">  5  6 -1 -1</clus>
<clus scale="   79.349">  2  5  1 -1</clus>
<clus scale="   92.464">  7  8 -1 -1</clus>
<clus scale="   22.573">  1  5  2 -1</clus>
</clustering>
</event>
<event>
 9    2  0.6469128E-005  0.1945459E+03  0.7546771E-02  0.1155304E+00
         21   -1    0    0  501  502  0.00000000000E+00  0.00000000000E+00  0.85210669148E+03  0.85210669148E+03  0.00000000000E+00 0.  1.
         -3   -1    0    0    0  501 -0.00000000000E+00 -0.00000000000E+00 -0.68541966111E+02  0.68541966111E+02  0.00000000000E+00 0.  1.
         23    2    1    2    0    0  0.32859131650E+02 -0.16539778925E+03  0.15170210130E+03  0.24420550691E+03  0.90480112965E+02 0.  0.
         24    2    1    2    0    0 -0.58472438448E+02  0.17206752889E+03  0.44288451910E+03  0.48562058632E+03  0.81574481597E+02 0.  0.
        -11    1    4    4    0    0 -0.45385483688E+02  0.15656393977E+03  0.30111534137E+03  0.34240700660E+03  0.00000000000E+00 0.  1.
         12    1    4    4    0    0 -0.13086954760E+02  0.15503589115E+02  0.14176917774E+03  0.14321357972E+03  0.00000000000E+00 0. -1.
        -11    1    3    3    0    0 -0.30962934509E+02 -0.47917433964E+02  0.54592070675E+02  0.78962509913E+02  0.00000000000E+00 0. -1.
         11    1    3    3    0    0  0.63822066159E+02 -0.11748035529E+03  0.97110030624E+02  0.16524299699E+03  0.00000000000E+00 0.  1.
         -4    1    1    2    0  502  0.25613306798E+02 -0.66697396342E+01  0.18897810497E+03  0.19082256436E+03  0.00000000000E+00 0.  1.
<scales pt_clust_5="13000.00000" pt_clust_6="13000.00000" pt_clust_7="13000.00000" pt_clust_8="13000.00000" pt_clust_9="26.46747"></scales>
<clustering>
<clus scale="   26.467">  1  9  2 -1</clus>
<clus scale="   81.574">  5  6 -1 -1</clus>
<clus scale="   90.480">  7  8 -1 -1</clus>
<clus scale="  190.567">  1  5  2 -1</clus>
<clus scale="   26.467">  1  5  2 -1</clus>
</clustering>
</event>
<event>
 9    2  0.6469128E-005  0.9880797E+02  0.7546771E-02  0.1288379E+00
         21   -1    0    0  501  502  0.00000000000E+00  0.00000000000E+00  0.23007845214E+03  0.23007845214E+03  0.00000000000E+00 0.  1.
         -3   -1    0    0    0  501 -0.00000000000E+00 -0.00000000000E+00 -0.57661881244E+02  0.57661881244E+02  0.00000000000E+00 0.  1.
         23    2    1    2    0    0  0.22455246206E+02  0.19593769109E+02  0.52751167635E+02  0.10906991113E+03  0.90694023825E+02 0.  0.
         24    2    1    2    0    0 -0.19281422059E+02 -0.52900734295E+02  0.10019845267E+03  0.13996138901E+03  0.79869891508E+02 0.  0.
        -11    1    4    4    0    0 -0.29001891964E+02 -0.69713849334E+02  0.64422979917E+02  0.99254475304E+02  0.00000000000E+00 0.  1.
         12    1    4    4    0    0  0.97204699049E+01  0.16813115039E+02  0.35775472752E+02  0.40706913701E+02  0.00000000000E+00 0. -1.
        -13    1    3    3    0    0 -0.30109161183E+02  0.12923261208E+02  0.44780896129E+02  0.55487844845E+02  0.00000000000E+00 0. -1.
         13    1    3    3    0    0  0.52564407389E+02  0.66705079007E+01  0.79702715063E+01  0.53582066288E+02  0.00000000000E+00 0.  1.
         -4    1    1    2    0  502 -0.31738241474E+01  0.33306965186E+02  0.19466950594E+02  0.38709033249E+02  0.00000000000E+00 0.  1.
<scales pt_clust_5="13000.00000" pt_clust_6="13000.00000" pt_clust_7="13000.00000" pt_clust_8="13000.00000" pt_clust_9="33.45786"></scales>
<clustering>
<clus scale="   33.458">  1  9  2 -1</clus>
<clus scale="   79.870">  5  6 -1 -1</clus>
<clus scale="   88.976">  1  5  2 -1</clus>
<clus scale="   90.694">  7  8 -1 -1</clus>
<clus scale="   33.458">  1  5  2 -1</clus>
</clustering>
</event>
<event>
 9    2  0.6469128E-005  0.1037454E+03  0.7546771E-02  0.1281110E+00
         21   -1    0    0  501  502  0.00000000000E+00  0.00000000000E+00  0.70284310554E+02  0.70284310554E+02  0.00000000000E+00 0. -1.
          2   -1    0    0  502    0 -0.00000000000E+00 -0.00000000000E+00 -0.26738914410E+03  0.26738914410E+03  0.00000000000E+00 0. -1.
         24    2    1    2    0    0  0.15689183828E+02  0.24130495538E+02 -0.39083669194E+02  0.89768602115E+02  0.75514484861E+02 0.  0.
         23    2    1    2    0    0 -0.27304997750E+02 -0.67597669647E+02 -0.45613781082E+02  0.12682743032E+03  0.93217874964E+02 0.  0.
        -11    1    3    3    0    0 -0.40680207270E+01  0.27613215839E+02  0.15280896228E+02  0.31820500799E+02  0.00000000000E+00 0.  1.
         12    1    3    3    0    0  0.19757204555E+02 -0.34827203008E+01 -0.54364565422E+02  0.57948101315E+02  0.00000000000E+00 0. -1.
        -13    1    4    4    0    0  0.19530510529E+02 -0.62611751901E+02 -0.45328010523E+02  0.79726412534E+02  0.00000000000E+00 0.  1.
         13    1    4    4    0    0 -0.46835508279E+02 -0.49859177453E+01 -0.28577055941E+00  0.47101017784E+02  0.00000000000E+00 0. -1.
          1    1    1    2  501    0  0.11615813922E+02  0.43467174109E+02 -0.11240738327E+03  0.12107742223E+03  0.00000000000E+00 0. -1.
<scales pt_clust_5="13000.00000" pt_clust_6="13000.00000" pt_clust_7="13000.00000" pt_clust_8="13000.00000" pt_clust_9="44.99249"></scales>
<clustering>
<clus scale="   44.992">  1  9  2 -1</clus>
<clus scale="   75.514">  5  6 -1 -1</clus>
<clus scale="   88.181">  2  5  1 -1</clus>
<clus scale="   93.218">  7  8 -1 -1</clus>
<clus scale="   44.992">  1  5  2 -1</clus>
</clustering>
</event>
<event>
 9    2  0.6469128E-005  0.2138773E+03  0.7546771E-02  0.1139179E+00
         21   -1    0    0  501  502  0.00000000000E+00  0.00000000000E+00  0.20533208079E+03  0.20533208079E+03  0.00000000000E+00 0.  1.
          2   -1    0    0  502    0 -0.00000000000E+00 -0.00000000000E+00 -0.26104137853E+03  0.26104137853E+03  0.00000000000E+00 0. -1.
         23    2    1    2    0    0  0.10583217647E+03 -0.15110454751E+03 -0.26462369704E+02  0.20618285472E+03  0.88193416511E+02 0.  0.
         24    2    1    2    0    0 -0.11570947282E+03  0.17249922192E+03  0.14569586916E+00  0.22251807593E+03  0.79809831641E+02 0.  0.
        -13    1    4    4    0    0  0.50077795226E+01  0.39615217246E+02  0.14342547011E+02  0.42428197557E+02  0.00000000000E+00 0.  1.
         14    1    4    4    0    0 -0.12071725234E+03  0.13288400468E+03 -0.14196851142E+02  0.18008987838E+03  0.00000000000E+00 0. -1.
        -11    1    3    3    0    0  0.67592082716E+02 -0.11687717150E+03  0.20567559363E+02  0.13657227890E+03  0.00000000000E+00 0.  1.
         11    1    3    3    0    0  0.38240093754E+02 -0.34227376006E+02 -0.47029929068E+02  0.69610575825E+02  0.00000000000E+00 0. -1.
          1    1    1    2  501    0  0.98772963494E+01 -0.21394674413E+02 -0.29392623903E+02  0.37672528669E+02  0.00000000000E+00 0. -1.
<scales pt_clust_5="13000.00000" pt_clust_6="13000.00000" pt_clust_7="13000.00000" pt_clust_8="13000.00000" pt_clust_9="23.56467"></scales>
<clustering>
<clus scale="   23.565">  1  9  2 -1</clus>
<clus scale="   79.810">  5  6 -1 -1</clus>
<clus scale="   88.193">  7  8 -1 -1</clus>
<clus scale="  210.559">  1  5  2 -1</clus>
<clus scale="   23.565">  1  5  2 -1</clus>
</clustering>
</event>
<event>
 9    2  0.6469128E-005  0.9443054E+02  0.7546771E-02  0.1301682E+00
         -3   -1    0    0    0  501 -0.00000000000E+00  0.00000000000E+00  0.28399413270E+03  0.28399413270E+03  0.00000000000E+00 0.  1.
         21   -1    0    0  501  502  0.00000000000E+00 -0.00000000000E+00 -0.68251431768E+02  0.68251431768E+02  0.00000000000E+00 0.  1.
         24    2    1    2    0    0 -0.22743728703E+02  0.50287500895E+01  0.11622749548E+03  0.14001795781E+03  0.74522696423E+02 0.  0.
         23    2    1    2    0    0  0.24527748476E+02  0.63063834467E+02  0.88269023812E+02  0.14318950558E+03  0.90184013449E+02 0.  0.
        -13    1    3    3    0    0 -0.36724629154E+02  0.81471060971E+01  0.11953691393E+03  0.12531619016E+03  0.00000000000E+00 0.  1.
         14    1    3    3    0    0  0.13980900451E+02 -0.31183560076E+01 -0.33094184526E+01  0.14701767653E+02  0.00000000000E+00 0. -1.
        -11    1    4    4    0    0  0.32744026065E+02  0.30102278287E+02  0.98195085730E+02  0.10779885557E+03  0.00000000000E+00 0. -1.
         11    1    4    4    0    0 -0.82162775893E+01  0.32961556179E+02 -0.99260619171E+01  0.35390650013E+02  0.00000000000E+00 0.  1.
         -4    1    1    2    0  502 -0.17840197730E+01 -0.68092584556E+02  0.11246181642E+02  0.69038101072E+02  0.00000000000E+00 0.  1.
<scales pt_clust_5="13000.00000" pt_clust_6="13000.00000" pt_clust_7="13000.00000" pt_clust_8="13000.00000" pt_clust_9="68.11595"></scales>
<clustering>
<clus scale="   68.116">  2  9  1 -1</clus>
<clus scale="   74.523">  5  6 -1 -1</clus>
<clus scale="   79.609">  1  5  2 -1</clus>
<clus scale="   90.184">  7  8 -1 -1</clus>
<clus scale="   68.116">  2  5  1 -1</clus>
</clustering>
</event>
<event>
 9    2  0.6469128E-005  0.1089066E+03  0.7546771E-02  0.1265756E+00
         21   -1    0    0  501  502  0.00000000000E+00  0.00000000000E+00  0.85061668767E+02  0.85061668767E+02  0.00000000000E+00 0. -1.
          2   -1    0    0  502    0 -0.00000000000E+00 -0.00000000000E+00 -0.26939156182E+03  0.26939156182E+03  0.00000000000E+00 0. -1.
         23    2    1    2    0    0  0.83410681235E+02 -0.23100333871E+02 -0.73345370379E+02  0.14401781606E+03  0.88716519424E+02 0.  0.
         24    2    1    2    0    0 -0.36099579137E+02 -0.34372002990E+01 -0.16827198480E+01  0.88413018207E+02  0.80616600540E+02 0.  0.
        -13    1    4    4    0    0 -0.18839392052E+02 -0.42024454814E+02  0.89630124720E+00  0.46062792482E+02  0.00000000000E+00 0.  1.
         14    1    4    4    0    0 -0.17260187084E+02  0.38587254515E+02 -0.25790210952E+01  0.42350225725E+02  0.00000000000E+00 0. -1.
        -11    1    3    3    0    0  0.70559447867E+02 -0.53029197903E+02 -0.38428841878E+02  0.96267893929E+02  0.00000000000E+00 0. -1.
         11    1    3    3    0    0  0.12851233369E+02  0.29928864032E+02 -0.34916528501E+02  0.47749922135E+02  0.00000000000E+00 0.  1.
          1    1    1    2  501    0 -0.47311102098E+02  0.26537534170E+02 -0.10930180283E+03  0.12202239632E+03  0.00000000000E+00 0. -1.
<scales pt_clust_5="13000.00000" pt_clust_6="13000.00000" pt_clust_7="13000.00000" pt_clust_8="13000.00000" pt_clust_9="54.24559"></scales>
<clustering>
<clus scale="   54.246">  1  9  2 -1</clus>
<clus scale="   80.617">  5  6 -1 -1</clus>
<clus scale="   88.717">  7  8 -1 -1</clus>
<clus scale="  102.416">  1  5  2 -1</clus>
<clus scale="   54.246">  1  5  2 -1</clus>
</clustering>
</event>
<event>
 9    2  0.6469128E-005  0.1379709E+03  0.7546771E-02  0.1236743E+00
          2   -1    0    0  502    0 -0.00000000000E+00  0.00000000000E+00  0.33657143006E+03  0.33657143006E+03  0.00000000000E+00 0. -1.
         21   -1    0    0  501  502  0.00000000000E+00 -0.00000000000E+00 -0.96666405650E+02  0.96666405650E+02  0.00000000000E+00 0. -1.
         23    2    1    2    0    0 -0.95711435391E+00  0.29514320951E+01  0.40471890841E+02  0.98524226508E+02  0.89774284967E+02 0.  0.
         24    2    1    2    0    0  0.23208946118E+02 -0.11039932368E+03  0.46427308576E+02  0.14642931377E+03  0.80990018523E+02 0.  0.
        -11    1    4    4    0    0  0.16574448925E+02 -0.21478157188E+02 -0.21270518497E+02  0.34474027186E+02  0.00000000000E+00 0.  1.
         12    1    4    4    0    0  0.66344971936E+01 -0.88921166496E+02  0.67697827073E+02  0.11195528659E+03  0.00000000000E+00 0. -1.
        -11    1    3    3    0    0  0.18514346293E+02  0.98858547617E+01 -0.23374999082E+02  0.31414992044E+02  0.00000000000E+00 0. -1.
         11    1    3    3    0    0 -0.19471460647E+02 -0.69344226666E+01  0.63846889924E+02  0.67109234464E+02  0.00000000000E+00 0.  1.
          1    1    1    2  501    0 -0.22251831764E+02  0.10744789159E+03  0.15300582499E+03  0.18828429543E+03  0.00000000000E+00 0. -1.
<scales pt_clust_5="13000.00000" pt_clust_6="13000.00000" pt_clust_7="13000.00000" pt_clust_8="13000.00000" pt_clust_9="111.69871"></scales>
<clustering>
<clus scale="   80.990">  5  6 -1 -1</clus>
<clus scale="   89.774">  7  8 -1 -1</clus>
<clus scale="   89.828">  1  7  2 -1</clus>
<clus scale="  111.699">  2  9  1 -1</clus>
<clus scale="  111.699">  2  5  1 -1</clus>
</clustering>
</event>
<event>
 9    2  0.6469128E-005  0.1271601E+03  0.7546771E-02  0.1246315E+00
         21   -1    0    0  501  502  0.00000000000E+00  0.00000000000E+00  0.63185610226E+03  0.63185610226E+03  0.00000000000E+00 0. -1.
          2   -1    0    0  502    0 -0.00000000000E+00 -0.00000000000E+00 -0.85830506591E+02  0.85830506591E+02  0.00000000000E+00 0. -1.
         24    2    1    2    0    0 -0.49729939780E+02  0.48869338323E+01 -0.12925632557E+02  0.95397288901E+02  0.80228559254E+02 0.  0.
         23    2    1    2    0    0 -0.69750897537E+02  0.38655626679E+02  0.40823954035E+03  0.42509490338E+03  0.87673880925E+02 0.  0.
        -11    1    3    3    0    0 -0.22726394449E+02 -0.37460192122E+02 -0.10808576366E+02  0.45128486807E+02  0.00000000000E+00 0.  1.
         12    1    3    3    0    0 -0.27003545331E+02  0.42347125955E+02 -0.21170561911E+01  0.50268802094E+02  0.00000000000E+00 0. -1.
        -11    1    4    4    0    0  0.72191296637E+01  0.29096947428E+02  0.47942411802E+02  0.56543992007E+02  0.00000000000E+00 0.  1.
         11    1    4    4    0    0 -0.76970027201E+02  0.95586792509E+01  0.36029712855E+03  0.36855091138E+03  0.00000000000E+00 0. -1.
          1    1    1    2  501    0  0.11948083732E+03 -0.43542560512E+02  0.15071168787E+03  0.19719441656E+03  0.00000000000E+00 0. -1.
<scales pt_clust_5="13000.00000" pt_clust_6="13000.00000" pt_clust_7="13000.00000" pt_clust_8="13000.00000" pt_clust_9="92.10317"></scales>
<clustering>
<clus scale="   80.229">  5  6 -1 -1</clus>
<clus scale="   87.674">  7  8 -1 -1</clus>
<clus scale="   94.518">  2  5  1 -1</clus>
<clus scale="   92.103">  1  9  2 -1</clus>
<clus scale="   92.103">  1  5  2 -1</clus>
</clustering>
</event>
<event>
 9    2  0.6469128E-005  0.2357419E+03  0.7546771E-02  0.1123783E+00
          2   -1    0    0  502    0 -0.00000000000E+00  0.00000000000E+00  0.86047470751E+03  0.86047470751E+03  0.00000000000E+00 0. -1.
         21   -1    0    0  501  502  0.00000000000E+00 -0.00000000000E+00 -0.10048891843E+03  0.10048891843E+03  0.00000000000E+00 0. -1.
         24    2    1    2    0    0 -0.52088803274E+02  0.19448157597E+03  0.37712116153E+03  0.43421812869E+03  0.76083414688E+02 0.  0.
         23    2    1    2    0    0  0.84112473332E+02 -0.23796834526E+03  0.19819908551E+03  0.33434493341E+03  0.93807331706E+02 0.  0.
        -13    1    3    3    0    0  0.17385650010E+02  0.58012463727E+02  0.84668374046E+02  0.10409822447E+03  0.00000000000E+00 0.  1.
         14    1    3    3    0    0 -0.69474453284E+02  0.13646911224E+03  0.29245278748E+03  0.33011990422E+03  0.00000000000E+00 0. -1.
        -13    1    4    4    0    0  0.41583497033E+01 -0.15089984815E+03  0.11562324426E+03  0.19014939037E+03  0.00000000000E+00 0. -1.
         13    1    4    4    0    0  0.79954123628E+02 -0.87068497113E+02  0.82575841249E+02  0.14419554304E+03  0.00000000000E+00 0.  1.
          1    1    1    2  501    0 -0.32023670057E+02  0.43486769296E+02  0.18466554204E+03  0.19240056384E+03  0.00000000000E+00 0. -1.
<scales pt_clust_5="13000.00000" pt_clust_6="13000.00000" pt_clust_7="13000.00000" pt_clust_8="13000.00000" pt_clust_9="54.00572"></scales>
<clustering>
<clus scale="   54.006">  2  9  1 -1</clus>
<clus scale="   76.083">  5  6 -1 -1</clus>
<clus scale="   93.807">  7  8 -1 -1</clus>
<clus scale="  229.266">  1  5  2 -1</clus>
<clus scale="   54.006">  2  5  1 -1</clus>
</clustering>
</event>
<event>
 9    2  0.6469128E-005  0.9629593E+02  0.7546771E-02  0.1296722E+00
         -1   -1    0    0    0  501 -0.00000000000E+00  0.00000000000E+00  0.18123984620E+03  0.18123984620E+03  0.00000000000E+00 0.  1.
         21   -1    0    0  501  502  0.00000000000E+00 -0.00000000000E+00 -0.12087781882E+03  0.12087781882E+03  0.00000000000E+00 0.  1.
         24    2    1    2    0    0  0.20590345227E+02 -0.28158320143E+01  0.12448323863E+03  0.14921919128E+03  0.79614063571E+02 0.  0.
         23    2    1    2    0    0 -0.21289455804E+02 -0.18359788151E+02 -0.14851227002E+02  0.99266142142E+02  0.94036616714E+02 0.  0.
        -11    1    3    3    0    0  0.43260905655E+02  0.22090331501E+02  0.71582460664E+02  0.86507441175E+02  0.00000000000E+00 0.  1.
         12    1    3    3    0    0 -0.22670560428E+02 -0.24906163515E+02  0.52900777970E+02  0.62711750103E+02  0.00000000000E+00 0. -1.
        -13    1    4    4    0    0 -0.10582427866E+02 -0.49655046552E+02  0.16808239349E+02  0.53480167704E+02  0.00000000000E+00 0.  1.
         13    1    4    4    0    0 -0.10707027938E+02  0.31295258401E+02 -0.31659466351E+02  0.45785974438E+02  0.00000000000E+00 0. -1.
         -2    1    1    2    0  502  0.69911057660E+00  0.21175620165E+02 -0.49269984249E+02  0.53632331600E+02  0.00000000000E+00 0.  1.
<scales pt_clust_5="13000.00000" pt_clust_6="13000.00000" pt_clust_7="13000.00000" pt_clust_8="13000.00000" pt_clust_9="21.18716"></scales>
<clustering>
<clus scale="   21.187">  2  9  1 -1</clus>
<clus scale="   79.614">  5  6 -1 -1</clus>
<clus scale="   82.270">  1  5  2 -1</clus>
<clus scale="   94.037">  7  8 -1 -1</clus>
<clus scale="   21.187">  2  5  1 -1</clus>
</clustering>
</event>
<event>
 9    2  0.6469128E-005  0.1204633E+03  0.7546771E-02  0.1245904E+00
          2   -1    0    0  502    0 -0.00000000000E+00  0.00000000000E+00  0.62872035679E+03  0.62872035679E+03  0.00000000000E+00 0. -1.
         21   -1    0    0  501  502  0.00000000000E+00 -0.00000000000E+00 -0.24362153850E+03  0.24362153850E+03  0.00000000000E+00 0. -1.
         24    2    1    2    0    0 -0.31375701483E+01 -0.83150128594E+02  0.56385055062E+03  0.57544883889E+03  0.79310368249E+02 0.  0.
         23    2    1    2    0    0  0.35748597279E+02  0.42079312105E+02  0.44599203895E+01  0.10632338214E+03  0.90753181680E+02 0.  0.
        -11    1    3    3    0    0  0.28474097841E+01 -0.64587557443E+02  0.18273043158E+03  0.19383000528E+03  0.00000000000E+00 0.  1.
         12    1    3    3    0    0 -0.59849799324E+01 -0.18562571151E+02  0.38112011904E+03  0.38161883361E+03  0.00000000000E+00 0. -1.
        -11    1    4    4    0    0  0.46071288556E+02 -0.13066633708E+02  0.12882480833E+02  0.49590915076E+02  0.00000000000E+00 0. -1.
         11    1    4    4    0    0 -0.10322691276E+02  0.55145945812E+02 -0.84225604432E+01  0.56732467064E+02  0.00000000000E+00 0.  1.
          1    1    1    2  501    0 -0.32611027131E+02  0.41070816490E+02 -0.18321165271E+03  0.19056967426E+03  0.00000000000E+00 0. -1.
<scales pt_clust_5="13000.00000" pt_clust_6="13000.00000" pt_clust_7="13000.00000" pt_clust_8="13000.00000" pt_clust_9="52.44322"></scales>
<clustering>
<clus scale="   52.443">  2  9  1 -1</clus>
<clus scale="   79.310">  5  6 -1 -1</clus>
<clus scale="   90.753">  7  8 -1 -1</clus>
<clus scale="  112.095">  1  5  2 -1</clus>
<clus scale="   52.443">  2  5  1 -1</clus>
</clustering>
</event>
<event>
 9    2  0.6469128E-005  0.2672542E+03  0.7546771E-02  0.1116370E+00
          2   -1    0    0  502    0 -0.00000000000E+00  0.00000000000E+00  0.14985131436E+04  0.14985131436E+04  0.00000000000E+00 0. -1.
         21   -1    0    0  501  502  0.00000000000E+00 -0.00000000000E+00 -0.92688354940E+02  0.92688354940E+02  0.00000000000E+00 0. -1.
         23    2    1    2    0    0  0.10162787501E+03  0.13121101724E+03  0.27568128014E+03  0.33447218426E+03  0.91251946823E+02 0.  0.
         24    2    1    2    0    0 -0.67054659728E+01 -0.31375112965E+03  0.51711158109E+03  0.61009239883E+03  0.79521149253E+02 0.  0.
        -11    1    4    4    0    0 -0.21229651156E+02 -0.45117861945E+02  0.47417869298E+02  0.68809693238E+02  0.00000000000E+00 0.  1.
         12    1    4    4    0    0  0.14524185183E+02 -0.26863326771E+03  0.46969371179E+03  0.54128270559E+03  0.00000000000E+00 0. -1.
        -11    1    3    3    0    0  0.52761794806E+02  0.17815363799E+02  0.14180450760E+03  0.15234734180E+03  0.00000000000E+00 0.  1.
         11    1    3    3    0    0  0.48866080203E+02  0.11339565345E+03  0.13387677254E+03  0.18212484246E+03  0.00000000000E+00 0. -1.
          1    1    1    2  501    0 -0.94922409036E+02  0.18254011241E+03  0.61303192739E+03  0.64663691541E+03  0.00000000000E+00 0. -1.
<scales pt_clust_5="13000.00000" pt_clust_6="13000.00000" pt_clust_7="13000.00000" pt_clust_8="13000.00000" pt_clust_9="255.14950"></scales>
<clustering>
<clus scale="   79.521">  5  6 -1 -1</clus>
<clus scale="   91.252">  7  8 -1 -1</clus>
<clus scale="  189.398">  1  7  2 -1</clus>
<clus scale="  255.149">  2  9  1 -1</clus>
<clus scale="  255.149">  2  5  1 -1</clus>
</clustering>
</event>
<event>
 9    2  0.6469128E-005  0.1787779E+03  0.7546771E-02  0.1190081E+00
         21   -1    0    0  501  502  0.00000000000E+00  0.00000000000E+00  0.11953138857E+03  0.11953138857E+03  0.00000000000E+00 0. -1.
          2   -1    0    0  502    0 -0.00000000000E+00 -0.00000000000E+00 -0.61038790670E+03  0.61038790670E+03  0.00000000000E+00 0. -1.
         23    2    1    2    0    0 -0.39781929573E+02  0.49765548146E+02  0.59911284330E+01  0.11139636175E+03  0.91181380169E+02 0.  0.
         24    2    1    2    0    0 -0.96075244992E+02  0.63346375082E+02 -0.38286409576E+03  0.40818100021E+03  0.82362595702E+02 0.  0.
        -13    1    4    4    0    0 -0.75678353013E+02  0.18223341448E+02 -0.13873929709E+03  0.15908455565E+03  0.00000000000E+00 0.  1.
         14    1    4    4    0    0 -0.20396891979E+02  0.45123033634E+02 -0.24412479866E+03  0.24909644455E+03  0.00000000000E+00 0. -1.
        -11    1    3    3    0    0 -0.41183859499E+02  0.23814827519E+02 -0.37605183847E+02  0.60641620568E+02  0.00000000000E+00 0.  1.
         11    1    3    3    0    0  0.14019299259E+01  0.25950720626E+02  0.43596312280E+02  0.50754741187E+02  0.00000000000E+00 0. -1.
          1    1    1    2  501    0  0.13585717456E+03 -0.11311192323E+03 -0.11398355081E+03  0.21034193332E+03  0.00000000000E+00 0. -1.
<scales pt_clust_5="13000.00000" pt_clust_6="13000.00000" pt_clust_7="13000.00000" pt_clust_8="13000.00000" pt_clust_9="158.67562"></scales>
<clustering>
<clus scale="   82.363">  5  6 -1 -1</clus>
<clus scale="   91.181">  7  8 -1 -1</clus>
<clus scale="  111.235">  2  7  1 -1</clus>
<clus scale="  158.676">  1  9  2 -1</clus>
<clus scale="  158.676">  1  5  2 -1</clus>
</clustering>
</event>
<event>
 9    2  0.6469128E-005  0.1079450E+03  0.7546771E-02  0.1270020E+00
         21   -1    0    0  501  502  0.00000000000E+00  0.00000000000E+00  0.40862092704E+03  0.40862092704E+03  0.00000000000E+00 0. -1.
          4   -1    0    0  502    0 -0.00000000000E+00 -0.00000000000E+00 -0.87868449344E+02  0.87868449344E+02  0.00000000000E+00 0. -1.
         24    2    1    2    0    0 -0.59694121225E+02  0.59270788614E+01 -0.29645554679E+02  0.10664935058E+03  0.83046412890E+02 0.  0.
         23    2    1    2    0    0  0.13913025337E+02  0.11316944042E+02  0.12137782680E+03  0.15565309272E+03  0.95779240643E+02 0.  0.
        -11    1    3    3    0    0 -0.22008149532E+02 -0.32078688638E+02 -0.35680843448E+02  0.52787531670E+02  0.00000000000E+00 0.  1.
         12    1    3    3    0    0 -0.37685971693E+02  0.38005767499E+02  0.60352887698E+01  0.53861818909E+02  0.00000000000E+00 0. -1.
        -13    1    4    4    0    0  0.31976638819E+02  0.35836573624E+02  0.11487559214E+03  0.12451171474E+03  0.00000000000E+00 0. -1.
         13    1    4    4    0    0 -0.18063613482E+02 -0.24519629581E+02  0.65022346654E+01  0.31141377980E+02  0.00000000000E+00 0.  1.
          3    1    1    2  501    0  0.45781095888E+02 -0.17244022904E+02  0.22902020557E+03  0.23418693308E+03  0.00000000000E+00 0. -1.
<scales pt_clust_5="13000.00000" pt_clust_6="13000.00000" pt_clust_7="13000.00000" pt_clust_8="13000.00000" pt_clust_9="48.92101"></scales>
<clustering>
<clus scale="   48.921">  1  9  2 -1</clus>
<clus scale="   83.046">  5  6 -1 -1</clus>
<clus scale="   95.779">  7  8 -1 -1</clus>
<clus scale="   96.825">  2  5  1 -1</clus>
<clus scale="   48.921">  1  5  2 -1</clus>
</clustering>
</event>
<event>
 9    2  0.6469128E-005  0.2085679E+03  0.7546771E-02  0.1168339E+00
          2   -1    0    0  502    0 -0.00000000000E+00  0.00000000000E+00  0.80548745010E+03  0.80548745010E+03  0.00000000000E+00 0. -1.
         21   -1    0    0  501  502  0.00000000000E+00 -0.00000000000E+00 -0.87621707509E+02  0.87621707509E+02  0.00000000000E+00 0. -1.
         24    2    1    2    0    0  0.61978571646E+02 -0.51671410208E+02  0.16131340444E+03  0.19769625575E+03  0.80935264945E+02 0.  0.
         23    2    1    2    0    0  0.78956240590E+02  0.18263240388E+03  0.36383239392E+03  0.42309988331E+03  0.83969146215E+02 0.  0.
        -11    1    3    3    0    0  0.88056793190E+01 -0.57908659866E+02  0.64963461609E+02  0.87471162220E+02  0.00000000000E+00 0.  1.
         12    1    3    3    0    0  0.53172892327E+02  0.62372496585E+01  0.96349942826E+02  0.11022509353E+03  0.00000000000E+00 0. -1.
        -13    1    4    4    0    0  0.90683315062E+02  0.14273348060E+03  0.32419980205E+03  0.36565259710E+03  0.00000000000E+00 0. -1.
         13    1    4    4    0    0 -0.11727074472E+02  0.39898923287E+02  0.39632591869E+02  0.57447286215E+02  0.00000000000E+00 0.  1.
          1    1    1    2  501    0 -0.14093481224E+03 -0.13096099367E+03  0.19271994424E+03  0.27231301855E+03  0.00000000000E+00 0. -1.
<scales pt_clust_5="13000.00000" pt_clust_6="13000.00000" pt_clust_7="13000.00000" pt_clust_8="13000.00000" pt_clust_9="190.91821"></scales>
<clustering>
<clus scale="   80.935">  5  6 -1 -1</clus>
<clus scale="   83.969">  7  8 -1 -1</clus>
<clus scale="  114.288">  1  5  2 -1</clus>
<clus scale="  190.918">  2  9  1 -1</clus>
<clus scale="  190.918">  2  5  1 -1</clus>
</clustering>
</event>
<event>
 9    2  0.6469128E-005  0.9347693E+02  0.7546771E-02  0.1301195E+00
         21   -1    0    0  501  502  0.00000000000E+00  0.00000000000E+00  0.33136871988E+03  0.33136871988E+03  0.00000000000E+00 0. -1.
          2   -1    0    0  502    0 -0.00000000000E+00 -0.00000000000E+00 -0.11986274182E+03  0.11986274182E+03  0.00000000000E+00 0. -1.
         24    2    1    2    0    0  0.23356300610E+02 -0.12133595985E+02 -0.71809419768E+02  0.11079762386E+03  0.80167198759E+02 0.  0.
         23    2    1    2    0    0  0.43427259361E+02  0.32360330217E+02  0.10617758568E+03  0.15004746974E+03  0.91145189937E+02 0.  0.
        -13    1    3    3    0    0  0.13056522985E+02  0.34343098055E+02 -0.32789444226E+02  0.49244987858E+02  0.00000000000E+00 0.  1.
         14    1    3    3    0    0  0.10299777625E+02 -0.46476694040E+02 -0.39019975543E+02  0.61552636007E+02  0.00000000000E+00 0. -1.
        -11    1    4    4    0    0  0.53873088189E+02 -0.12154349186E+02  0.80451376818E+02  0.97583102364E+02  0.00000000000E+00 0.  1.
         11    1    4    4    0    0 -0.10445828828E+02  0.44514679403E+02  0.25726208861E+02  0.52464367380E+02  0.00000000000E+00 0. -1.
          1    1    1    2  501    0 -0.66783559971E+02 -0.20226734233E+02  0.17713781215E+03  0.19038636809E+03  0.00000000000E+00 0. -1.
<scales pt_clust_5="13000.00000" pt_clust_6="13000.00000" pt_clust_7="13000.00000" pt_clust_8="13000.00000" pt_clust_9="69.77940"></scales>
<clustering>
<clus scale="   69.779">  1  9  2 -1</clus>
<clus scale="   80.167">  5  6 -1 -1</clus>
<clus scale="   82.809">  2  5  1 -1</clus>
<clus scale="   91.145">  7  8 -1 -1</clus>
<clus scale="   69.779">  1  5  2 -1</clus>
</clustering>
</event>
<event>
 9    2  0.6469128E-005  0.9641639E+02  0.7546771E-02  0.1293264E+00
         21   -1    0    0  501  502  0.00000000000E+00  0.00000000000E+00  0.36088806651E+02  0.36088806651E+02  0.00000000000E+00 0.  1.
          2   -1    0    0  502    0 -0.00000000000E+00 -0.00000000000E+00 -0.48124663090E+03  0.48124663090E+03  0.00000000000E+00 0. -1.
         24    2    1    2    0    0  0.16216804929E+01 -0.31440121658E+02 -0.20536355382E+03  0.22315097835E+03  0.81431313402E+02 0.  0.
         23    2    1    2    0    0  0.56226592747E+02  0.17802886632E+02 -0.12978529625E+03  0.16914697964E+03  0.91039030609E+02 0.  0.
        -13    1    3    3    0    0 -0.26752221578E+02  0.16391394239E+02 -0.65158796715E+02  0.72318932195E+02  0.00000000000E+00 0.  1.
         14    1    3    3    0    0  0.28373902071E+02 -0.47831515897E+02 -0.14020475710E+03  0.15083204615E+03  0.00000000000E+00 0. -1.
        -13    1    4    4    0    0  0.55350355375E+02 -0.26046392354E+01 -0.22287726575E+02  0.59725946971E+02  0.00000000000E+00 0.  1.
         13    1    4    4    0    0  0.87623737132E+00  0.20407525868E+02 -0.10749756968E+03  0.10942103267E+03  0.00000000000E+00 0. -1.
          1    1    1    2  501    0 -0.57848273239E+02  0.13637235026E+02 -0.11000897418E+03  0.12503747956E+03  0.00000000000E+00 0. -1.
<scales pt_clust_5="13000.00000" pt_clust_6="13000.00000" pt_clust_7="13000.00000" pt_clust_8="13000.00000" pt_clust_9="59.43400"></scales>
<clustering>
<clus scale="   59.434">  1  9  2 -1</clus>
<clus scale="   81.431">  5  6 -1 -1</clus>
<clus scale="   87.402">  2  5  1 -1</clus>
<clus scale="   91.039">  7  8 -1 -1</clus>
<clus scale="   59.434">  1  5  2 -1</clus>
</clustering>
</event>
<event>
 9    2  0.6469128E-005  0.9719467E+02  0.7546771E-02  0.1290664E+00
         21   -1    0    0  501  502  0.00000000000E+00  0.00000000000E+00  0.47646208444E+02  0.47646208444E+02  0.00000000000E+00 0.  1.
          2   -1    0    0  502    0 -0.00000000000E+00 -0.00000000000E+00 -0.33433730599E+03  0.33433730599E+03  0.00000000000E+00 0. -1.
         24    2    1    2    0    0  0.27242053867E+02 -0.41058511161E+01 -0.21124655810E+03  0.22863434875E+03  0.83003431321E+02 0.  0.
         23    2    1    2    0    0 -0.52936928843E+02  0.86963557864E+01 -0.69488385276E+02  0.12657650975E+03  0.91186797798E+02 0.  0.
        -13    1    3    3    0    0 -0.11394093373E+02 -0.35627370865E+02 -0.83201377392E+02  0.91222826741E+02  0.00000000000E+00 0.  1.
         14    1    3    3    0    0  0.38636147241E+02  0.31521519749E+02 -0.12804518070E+03  0.13741152201E+03  0.00000000000E+00 0. -1.
        -13    1    4    4    0    0  0.45581407715E+01 -0.30526876637E+02 -0.41124953032E+02  0.51419146302E+02  0.00000000000E+00 0. -1.
         13    1    4    4    0    0 -0.57495069615E+02  0.39223232423E+02 -0.28363432244E+02  0.75157363448E+02  0.00000000000E+00 0.  1.
          1    1    1    2  501    0  0.25694874976E+02 -0.45905046703E+01 -0.59561541783E+01  0.26772655934E+02  0.00000000000E+00 0. -1.
<scales pt_clust_5="13000.00000" pt_clust_6="13000.00000" pt_clust_7="13000.00000" pt_clust_8="13000.00000" pt_clust_9="26.10171"></scales>
<clustering>
<clus scale="   26.102">  1  9  2 -1</clus>
<clus scale="   83.003">  5  6 -1 -1</clus>
<clus scale="   89.562">  2  5  1 -1</clus>
<clus scale="   91.187">  7  8 -1 -1</clus>
<clus scale="   26.102">  1  5  2 -1</clus>
</clustering>
</event>
<event>
 9    2  0.6469128E-005  0.1275717E+03  0.7546771E-02  0.1234780E+00
          2   -1    0    0  502    0 -0.00000000000E+00  0.00000000000E+00  0.16289626570E+03  0.16289626570E+03  0.00000000000E+00 0. -1.
         21   -1    0    0  501  502  0.00000000000E+00 -0.00000000000E+00 -0.28647175052E+03  0.28647175052E+03  0.00000000000E+00 0. -1.
         23    2    1    2    0    0  0.11285551409E+03  0.15480070288E+02  0.49449438021E+02  0.15487761844E+03  0.92551770027E+02 0.  0.
         24    2    1    2    0    0 -0.24803299934E+02 -0.79237223363E+02 -0.37524838369E+02  0.12077096916E+03  0.79270248158E+02 0.  0.
        -13    1    4    4    0    0 -0.42673177727E+02 -0.38825359870E+02  0.69114890896E+01  0.58104882307E+02  0.00000000000E+00 0.  1.
         14    1    4    4    0    0  0.17869877794E+02 -0.40411863493E+02 -0.44436327459E+02  0.62666086852E+02  0.00000000000E+00 0. -1.
        -11    1    3    3    0    0  0.13648844193E+02  0.40577207796E+02  0.42949590681E+01  0.43026124781E+02  0.00000000000E+00 0.  1.
         11    1    3    3    0    0  0.99206669901E+02 -0.25097137507E+02  0.45154478953E+02  0.11185149366E+03  0.00000000000E+00 0. -1.
          1    1    1    2  501    0 -0.88052214160E+02  0.63757153075E+02 -0.13550008447E+03  0.17371942861E+03  0.00000000000E+00 0. -1.
<scales pt_clust_5="13000.00000" pt_clust_6="13000.00000" pt_clust_7="13000.00000" pt_clust_8="13000.00000" pt_clust_9="108.71139"></scales>
<clustering>
<clus scale="   79.270">  5  6 -1 -1</clus>
<clus scale="   92.552">  7  8 -1 -1</clus>
<clus scale="  108.711">  2  9  1 -1</clus>
<clus scale="  118.290">  2  5  1 -1</clus>
<clus scale="  108.711">  2  5  1 -1</clus>
</clustering>
</event>
<event>
 9    2  0.6469128E-005  0.1165712E+03  0.7546771E-02  0.1252384E+00
          2   -1    0    0  502    0 -0.00000000000E+00  0.00000000000E+00  0.12028695098E+03  0.12028695098E+03  0.00000000000E+00 0. -1.
         21   -1    0    0  501  502  0.00000000000E+00 -0.00000000000E+00 -0.21918502668E+03  0.21918502668E+03  0.00000000000E+00 0. -1.
         23    2    1    2    0    0  0.58569415502E+02 -0.68404686039E+02  0.26029074800E+02  0.13104005568E+03  0.91566401875E+02 0.  0.
         24    2    1    2    0    0 -0.33425338013E+02  0.84415383415E+01 -0.11120389649E+03  0.14197794231E+03  0.81258333212E+02 0.  0.
        -11    1    4    4    0    0 -0.52461789446E+02  0.16962894632E+02 -0.40911558321E+02  0.68656643891E+02  0.00000000000E+00 0.  1.
         12    1    4    4    0    0  0.19036451432E+02 -0.85213562902E+01 -0.70292338171E+02  0.73321298418E+02  0.00000000000E+00 0. -1.
        -13    1    3    3    0    0  0.38778561448E+02  0.17256052211E+01 -0.21175553141E+02  0.44217175308E+02  0.00000000000E+00 0.  1.
         13    1    3    3    0    0  0.19790854053E+02 -0.70130291260E+02  0.47204627941E+02  0.86822880368E+02  0.00000000000E+00 0. -1.
          1    1    1    2  501    0 -0.25144077488E+02  0.59963147698E+02 -0.13723254002E+02  0.66453979677E+02  0.00000000000E+00 0. -1.
<scales pt_clust_5="13000.00000" pt_clust_6="13000.00000" pt_clust_7="13000.00000" pt_clust_8="13000.00000" pt_clust_9="65.02160"></scales>
<clustering>
<clus scale="   65.022">  2  9  1 -1</clus>
<clus scale="   81.258">  5  6 -1 -1</clus>
<clus scale="   91.566">  7  8 -1 -1</clus>
<clus scale="  108.662">  2  5  1 -1</clus>
<clus scale="   65.022">  2  5  1 -1</clus>
</clustering>
</event>
<event>
 9    2  0.6469128E-005  0.9972758E+02  0.7546771E-02  0.1286317E+00
         21   -1    0    0  501  502  0.00000000000E+00  0.00000000000E+00  0.25665360635E+03  0.25665360635E+03  0.00000000000E+00 0.  1.
         -3   -1    0    0    0  501 -0.00000000000E+00 -0.00000000000E+00 -0.10257275465E+03  0.10257275465E+03  0.00000000000E+00 0.  1.
         23    2    1    2    0    0 -0.25455374205E+02  0.36047813214E+01 -0.12085113121E+02  0.95653418678E+02  0.91337593691E+02 0.  0.
         24    2    1    2    0    0  0.58603451036E+02  0.91934312386E+01  0.67784752923E+01  0.10027272475E+03  0.80559220139E+02 0.  0.
        -13    1    4    4    0    0  0.34312991729E+02 -0.31486087850E+02 -0.13866351843E+02  0.48590439831E+02  0.00000000000E+00 0.  1.
         14    1    4    4    0    0  0.24290459307E+02  0.40679519089E+02  0.20644827135E+02  0.51682284915E+02  0.00000000000E+00 0. -1.
        -13    1    3    3    0    0 -0.30056877225E+02 -0.40296317441E+02 -0.16665955127E+01  0.50298972240E+02  0.00000000000E+00 0.  1.
         13    1    3    3    0    0  0.46015030197E+01  0.43901098762E+02 -0.10418517608E+02  0.45354446438E+02  0.00000000000E+00 0. -1.
         -4    1    1    2    0  502 -0.33148076831E+02 -0.12798212560E+02  0.15938748953E+03  0.16330021758E+03  0.00000000000E+00 0.  1.
<scales pt_clust_5="13000.00000" pt_clust_6="13000.00000" pt_clust_7="13000.00000" pt_clust_8="13000.00000" pt_clust_9="35.53293"></scales>
<clustering>
<clus scale="   35.533">  1  9  2 -1</clus>
<clus scale="   80.559">  5  6 -1 -1</clus>
<clus scale="   89.960">  1  5  2 -1</clus>
<clus scale="   91.338">  7  8 -1 -1</clus>
<clus scale="   35.533">  1  5  2 -1</clus>
</clustering>
</event>
<event>
 9    2  0.6469128E-005  0.1012499E+03  0.7546771E-02  0.1282476E+00
         -3   -1    0    0    0  501 -0.00000000000E+00  0.00000000000E+00  0.86238991551E+02  0.86238991551E+02  0.00000000000E+00 0.  1.
         21   -1    0    0  501  502  0.00000000000E+00 -0.00000000000E+00 -0.35047224629E+03  0.35047224629E+03  0.00000000000E+00 0.  1.
         24    2    1    2    0    0  0.44024389947E+02 -0.27652406312E+02 -0.14568819429E+02  0.96440451508E+02  0.79910623214E+02 0.  0.
         23    2    1    2    0    0 -0.50637153713E+02 -0.61500926459E+02 -0.68668452572E+02  0.13840055288E+03  0.89960387763E+02 0.  0.
        -11    1    3    3    0    0  0.61325426910E+02 -0.57647484178E+01 -0.25244179116E+02  0.66568077104E+02  0.00000000000E+00 0.  1.
         12    1    3    3    0    0 -0.17301036963E+02 -0.21887657895E+02  0.10675359687E+02  0.29872374404E+02  0.00000000000E+00 0. -1.
        -11    1    4    4    0    0 -0.28589452908E+02 -0.60873052154E+02 -0.86830196497E+02  0.10982881370E+03  0.00000000000E+00 0.  1.
         11    1    4    4    0    0 -0.22047700805E+02 -0.62787430438E+00  0.18161743925E+02  0.28571739172E+02  0.00000000000E+00 0. -1.
         -4    1    1    2    0  502  0.66127637658E+01  0.89153332771E+02 -0.18099598274E+03  0.20187023346E+03  0.00000000000E+00 0.  1.
<scales pt_clust_5="13000.00000" pt_clust_6="13000.00000" pt_clust_7="13000.00000" pt_clust_8="13000.00000" pt_clust_9="89.39824"></scales>
<clustering>
<clus scale="   79.911">  5  6 -1 -1</clus>
<clus scale="   89.398">  2  9  1 -1</clus>
<clus scale="   89.960">  7  8 -1 -1</clus>
<clus scale="   92.436">  1  5  2 -1</clus>
<clus scale="   89.398">  2  5  1 -1</clus>
</clustering>
</event>
<event>
 9    2  0.6469128E-005  0.2095874E+03  0.7546771E-02  0.1157078E+00
          2   -1    0    0  502    0 -0.00000000000E+00  0.00000000000E+00  0.29957649563E+03  0.29957649563E+03  0.00000000000E+00 0. -1.
         21   -1    0    0  501  502  0.00000000000E+00 -0.00000000000E+00 -0.37310773084E+03  0.37310773084E+03  0.00000000000E+00 0. -1.
         23    2    1    2    0    0 -0.70237545306E+02 -0.63769634926E+02  0.12047329342E+03  0.18944539879E+03  0.11124686776E+03 0.  0.
         24    2    1    2    0    0 -0.85103950003E+02  0.18301966694E+03 -0.15847964359E+02  0.21849118994E+03  0.82148410281E+02 0.  0.
        -13    1    4    4    0    0 -0.12783583397E+02  0.10694878089E+03  0.15797714727E+02  0.10886243397E+03  0.00000000000E+00 0.  1.
         14    1    4    4    0    0 -0.72320366605E+02  0.76070886051E+02 -0.31645679086E+02  0.10962875597E+03  0.00000000000E+00 0. -1.
        -11    1    3    3    0    0 -0.69771903841E+01  0.25243832045E+02  0.57990879850E+02  0.63630766047E+02  0.00000000000E+00 0. -1.
         11    1    3    3    0    0 -0.63260354922E+02 -0.89013466970E+02  0.62482413567E+02  0.12581463274E+03  0.00000000000E+00 0.  1.
          1    1    1    2  501    0  0.15534149531E+03 -0.11925003202E+03 -0.17815656427E+03  0.26474763775E+03  0.00000000000E+00 0. -1.
<scales pt_clust_5="13000.00000" pt_clust_6="13000.00000" pt_clust_7="13000.00000" pt_clust_8="13000.00000" pt_clust_9="192.81735"></scales>
<clustering>
<clus scale="   82.148">  5  6 -1 -1</clus>
<clus scale="  111.247">  7  8 -1 -1</clus>
<clus scale="  146.204">  1  7  2 -1</clus>
<clus scale="  192.817">  2  9  1 -1</clus>
<clus scale="  192.817">  2  5  1 -1</clus>
</clustering>
</event>
<event>
 9    2  0.6469128E-005  0.9591824E+02  0.7546771E-02  0.1297048E+00
          4   -1    0    0  502    0 -0.00000000000E+00  0.00000000000E+00  0.42954868302E+03  0.42954868302E+03  0.00000000000E+00 0. -1.
         21   -1    0    0  501  502  0.00000000000E+00 -0.00000000000E+00 -0.16971816329E+03  0.16971816329E+03  0.00000000000E+00 0.  1.
         24    2    1    2    0    0  0.26789996052E+00 -0.26956839599E+02  0.38541498413E+03  0.39412628346E+03  0.77872166750E+02 0.  0.
         23    2    1    2    0    0 -0.19929686603E+02  0.61068542320E+02 -0.12198450908E+03  0.16560382303E+03  0.91748822766E+02 0.  0.
        -13    1    3    3    0    0 -0.17845879665E+01  0.27481579974E+02  0.14810595854E+03  0.15064460477E+03  0.00000000000E+00 0.  1.
         14    1    3    3    0    0  0.20524879270E+01 -0.54438419573E+02  0.23730902559E+03  0.24348167869E+03  0.00000000000E+00 0. -1.
        -13    1    4    4    0    0 -0.25168614093E+02  0.18191273338E+01 -0.98456685017E+02  0.10163900425E+03  0.00000000000E+00 0.  1.
         13    1    4    4    0    0  0.52389274897E+01  0.59249414987E+02 -0.23527824063E+02  0.63964818789E+02  0.00000000000E+00 0. -1.
          3    1    1    2  501    0  0.19661786642E+02 -0.34111702722E+02 -0.35999553227E+01  0.39536739811E+02  0.00000000000E+00 0. -1.
<scales pt_clust_5="13000.00000" pt_clust_6="13000.00000" pt_clust_7="13000.00000" pt_clust_8="13000.00000" pt_clust_9="39.37250"></scales>
<clustering>
<clus scale="   39.373">  2  9  1 -1</clus>
<clus scale="   77.872">  5  6 -1 -1</clus>
<clus scale="   82.744">  1  5  2 -1</clus>
<clus scale="   91.749">  7  8 -1 -1</clus>
<clus scale="   39.373">  2  5  1 -1</clus>
</clustering>
</event>
<event>
 9    2  0.6469128E-005  0.9307502E+02  0.7546771E-02  0.1303149E+00
         21   -1    0    0  501  502  0.00000000000E+00  0.00000000000E+00  0.24805541469E+03  0.24805541469E+03  0.00000000000E+00 0.  1.
          2   -1    0    0  502    0 -0.00000000000E+00 -0.00000000000E+00 -0.67704173374E+02  0.67704173374E+02  0.00000000000E+00 0. -1.
         24    2    1    2    0    0 -0.10177614466E+02 -0.47928266076E+01 -0.10297527572E+02  0.81865835291E+02  0.80432710328E+02 0.  0.
         23    2    1    2    0    0  0.51256547681E+01 -0.16644319826E+02  0.88168968598E+02  0.12907398836E+03  0.92644599025E+02 0.  0.
        -11    1    3    3    0    0  0.12745449093E+02  0.30166246116E+02 -0.20757547904E+02  0.38772731040E+02  0.00000000000E+00 0.  1.
         12    1    3    3    0    0 -0.22923063559E+02 -0.34959072724E+02  0.10460020332E+02  0.43093104251E+02  0.00000000000E+00 0. -1.
        -13    1    4    4    0    0  0.13653485698E+02  0.25798888274E+02  0.79813614798E+02  0.84983606742E+02  0.00000000000E+00 0.  1.
         13    1    4    4    0    0 -0.85278309297E+01 -0.42443208099E+02  0.83553538006E+01  0.44090381618E+02  0.00000000000E+00 0. -1.
          1    1    1    2  501    0  0.50519596978E+01  0.21437146433E+02  0.10247980029E+03  0.10481976442E+03  0.00000000000E+00 0. -1.
<scales pt_clust_5="13000.00000" pt_clust_6="13000.00000" pt_clust_7="13000.00000" pt_clust_8="13000.00000" pt_clust_9="22.02439"></scales>
<clustering>
<clus scale="   22.024">  1  9  2 -1</clus>
<clus scale="   80.433">  5  6 -1 -1</clus>
<clus scale="   80.928">  2  5  1 -1</clus>
<clus scale="   92.645">  7  8 -1 -1</clus>
<clus scale="   22.024">  1  5  2 -1</clus>
</clustering>
</event>
<event>
 9    2  0.6469128E-005  0.1529763E+03  0.7546771E-02  0.1198585E+00
         21   -1    0    0  501  502  0.00000000000E+00  0.00000000000E+00  0.20380444066E+03  0.20380444066E+03  0.00000000000E+00 0. -1.
          4   -1    0    0  502    0 -0.00000000000E+00 -0.00000000000E+00 -0.15205921960E+03  0.15205921960E+03  0.00000000000E+00 0. -1.
         23    2    1    2    0    0 -0.13314574032E+03 -0.46063817055E+02 -0.56553964306E+01  0.16820058713E+03  0.91704910410E+02 0.  0.
         24    2    1    2    0    0  0.90748763208E+02  0.52458790002E+02  0.28843303112E+02  0.13614686645E+03  0.81955905444E+02 0.  0.
        -11    1    4    4    0    0  0.64599715228E+02  0.54568382100E+02 -0.14192628631E+02  0.85745333634E+02  0.00000000000E+00 0.  1.
         12    1    4    4    0    0  0.26149047980E+02 -0.21095920979E+01  0.43035931743E+02  0.50401532815E+02  0.00000000000E+00 0. -1.
        -13    1    3    3    0    0 -0.41407159821E+02 -0.69854265662E+01 -0.44501516667E+02  0.61186060949E+02  0.00000000000E+00 0.  1.
         13    1    3    3    0    0 -0.91738580502E+02 -0.39078390488E+02  0.38846120237E+02  0.10701452618E+03  0.00000000000E+00 0. -1.
          3    1    1    2  501    0  0.42396977115E+02 -0.63949729470E+01  0.28557314376E+02  0.51516206691E+02  0.00000000000E+00 0. -1.
<scales pt_clust_5="13000.00000" pt_clust_6="13000.00000" pt_clust_7="13000.00000" pt_clust_8="13000.00000" pt_clust_9="42.87656"></scales>
<clustering>
<clus scale="   42.877">  1  9  2 -1</clus>
<clus scale="   81.956">  5  6 -1 -1</clus>
<clus scale="   91.705">  7  8 -1 -1</clus>
<clus scale="  147.339">  1  5  2 -1</clus>
<clus scale="   42.877">  1  5  2 -1</clus>
</clustering>
</event>
<event>
 9    2  0.6469128E-005  0.9380371E+02  0.7546771E-02  0.1296484E+00
         -3   -1    0    0    0  501 -0.00000000000E+00  0.00000000000E+00  0.25972874674E+03  0.25972874674E+03  0.00000000000E+00 0.  1.
         21   -1    0    0  501  502  0.00000000000E+00 -0.00000000000E+00 -0.89639054887E+02  0.89639054887E+02  0.00000000000E+00 0. -1.
         23    2    1    2    0    0 -0.12321887990E+02  0.29239564760E+02  0.14576118160E+03  0.17426651064E+03  0.90087255481E+02 0.  0.
         24    2    1    2    0    0  0.32309928723E+02  0.18203189679E+02 -0.32247403350E+02  0.98608345419E+02  0.85489316027E+02 0.  0.
        -13    1    4    4    0    0  0.11170960718E+02  0.40265588249E+02  0.13220142000E+02  0.43827846341E+02  0.00000000000E+00 0.  1.
         14    1    4    4    0    0  0.21138968006E+02 -0.22062398570E+02 -0.45467545350E+02  0.54780499077E+02  0.00000000000E+00 0. -1.
        -11    1    3    3    0    0 -0.48155369041E+02  0.59959127113E+01  0.10284123070E+03  0.11371547507E+03  0.00000000000E+00 0. -1.
         11    1    3    3    0    0  0.35833481051E+02  0.23243652049E+02  0.42919950895E+02  0.60551035578E+02  0.00000000000E+00 0.  1.
         -4    1    1    2    0  502 -0.19988040734E+02 -0.47442754439E+02  0.56575913607E+02  0.76492945567E+02  0.00000000000E+00 0.  1.
<scales pt_clust_5="13000.00000" pt_clust_6="13000.00000" pt_clust_7="13000.00000" pt_clust_8="13000.00000" pt_clust_9="51.48145"></scales>
<clustering>
<clus scale="   51.481">  2  9  1 -1</clus>
<clus scale="   85.489">  5  6 -1 -1</clus>
<clus scale="   89.397">  2  5  1 -1</clus>
<clus scale="   90.087">  7  8 -1 -1</clus>
<clus scale="   51.481">  2  5  1 -1</clus>
</clustering>
</event>
<event>
 9    2  0.6469128E-005  0.2159651E+03  0.7546771E-02  0.1137632E+00
          2   -1    0    0  502    0 -0.00000000000E+00  0.00000000000E+00  0.92158138664E+03  0.92158138664E+03  0.00000000000E+00 0. -1.
         21   -1    0    0  501  502  0.00000000000E+00 -0.00000000000E+00 -0.92920714749E+02  0.92920714749E+02  0.00000000000E+00 0. -1.
         23    2    1    2    0    0 -0.15254319887E+03 -0.12138747937E+03  0.61069945745E+03  0.64736824585E+03  0.90152486012E+02 0.  0.
         24    2    1    2    0    0  0.11703839507E+03  0.17208275249E+03  0.12637808444E+03  0.25659846976E+03  0.80999350819E+02 0.  0.
        -11    1    4    4    0    0  0.39446529205E+02  0.67479516492E+02  0.94269861181E+02  0.12245946488E+03  0.00000000000E+00 0.  1.
         12    1    4    4    0    0  0.77591865864E+02  0.10460323600E+03  0.32108223261E+02  0.13413900488E+03  0.00000000000E+00 0. -1.
        -11    1    3    3    0    0 -0.16095094516E+03 -0.98877450884E+02  0.51048398355E+03  0.54431227664E+03  0.00000000000E+00 0. -1.
         11    1    3    3    0    0  0.84077462923E+01 -0.22510028489E+02  0.10021547390E+03  0.10305596921E+03  0.00000000000E+00 0.  1.
          1    1    1    2  501    0  0.35504803798E+02 -0.50695273114E+02  0.91583129996E+02  0.11053538578E+03  0.00000000000E+00 0. -1.
<scales pt_clust_5="13000.00000" pt_clust_6="13000.00000" pt_clust_7="13000.00000" pt_clust_8="13000.00000" pt_clust_9="61.89189"></scales>
<clustering>
<clus scale="   61.892">  2  9  1 -1</clus>
<clus scale="   80.999">  5  6 -1 -1</clus>
<clus scale="   90.152">  7  8 -1 -1</clus>
<clus scale="  212.307">  2  5  1 -1</clus>
<clus scale="   61.892">  2  5  1 -1</clus>
</clustering>
</event>
<event>
 9    2  0.6469128E-005  0.1027117E+03  0.7546771E-02  0.1276600E+00
          2   -1    0    0  502    0 -0.00000000000E+00  0.00000000000E+00  0.95407333800E+03  0.95407333800E+03  0.00000000000E+00 0. -1.
         21   -1    0    0  501  502  0.00000000000E+00 -0.00000000000E+00 -0.41322766887E+02  0.41322766887E+02  0.00000000000E+00 0. -1.
         24    2    1    2    0    0  0.20655245563E+02 -0.66472878345E+02  0.69790108222E+03  0.70596314212E+03  0.80453432209E+02 0.  0.
         23    2    1    2    0    0 -0.77204669920E+01  0.31508322239E+02  0.23141479860E+03  0.24863788749E+03  0.84944747362E+02 0.  0.
        -11    1    3    3    0    0  0.21910469444E+02  0.13491226628E+02  0.13785952794E+03  0.14024026280E+03  0.00000000000E+00 0.  1.
         12    1    3    3    0    0 -0.12552238807E+01 -0.79964104973E+02  0.56004155428E+03  0.56572287932E+03  0.00000000000E+00 0. -1.
        -13    1    4    4    0    0  0.26616145567E+02 -0.16901549503E+02  0.84192824247E+02  0.89902798818E+02  0.00000000000E+00 0. -1.
         13    1    4    4    0    0 -0.34336612559E+02  0.48409871742E+02  0.14722197436E+03  0.15873508868E+03  0.00000000000E+00 0.  1.
          1    1    1    2  501    0 -0.12934778571E+02  0.34964556106E+02 -0.16565309708E+02  0.40795075267E+02  0.00000000000E+00 0. -1.
<scales pt_clust_5="13000.00000" pt_clust_6="13000.00000" pt_clust_7="13000.00000" pt_clust_8="13000.00000" pt_clust_9="37.28041"></scales>
<clustering>
<clus scale="   37.280">  2  9  1 -1</clus>
<clus scale="   80.453">  5  6 -1 -1</clus>
<clus scale="   84.945">  7  8 -1 -1</clus>
<clus scale="   99.029">  1  5  2 -1</clus>
<clus scale="   37.280">  2  5  1 -1</clus>
</clustering>
</event>
<event>
 9    2  0.6469128E-005  0.9193214E+02  0.7546771E-02  0.1304839E+00
          2   -1    0    0  502    0 -0.00000000000E+00  0.00000000000E+00  0.13078995018E+03  0.13078995018E+03  0.00000000000E+00 0. -1.
         21   -1    0    0  501  502  0.00000000000E+00 -0.00000000000E+00 -0.13310201717E+03  0.13310201717E+03  0.00000000000E+00 0. -1.
         24    2    1    2    0    0 -0.10407064049E+02  0.31658190851E+02  0.39642672529E+02  0.95801779499E+02  0.80597093247E+02 0.  0.
         23    2    1    2    0    0 -0.32600737998E+01  0.30102738968E+02 -0.83363805016E+01  0.96456416683E+02  0.91200559784E+02 0.  0.
        -11    1    3    3    0    0 -0.20477928548E+02 -0.10124119756E+02 -0.14208658089E+02  0.26902217811E+02  0.00000000000E+00 0.  1.
         12    1    3    3    0    0  0.10070864499E+02  0.41782310608E+02  0.53851330617E+02  0.68899561687E+02  0.00000000000E+00 0. -1.
        -11    1    4    4    0    0 -0.69064838951E+01 -0.22543142034E+02  0.24739927150E+02  0.34175382484E+02  0.00000000000E+00 0.  1.
         11    1    4    4    0    0  0.36464100953E+01  0.52645881002E+02 -0.33076307651E+02  0.62281034199E+02  0.00000000000E+00 0. -1.
          1    1    1    2  501    0  0.13667137849E+02 -0.61760929819E+02 -0.33618359020E+02  0.71633771172E+02  0.00000000000E+00 0. -1.
<scales pt_clust_5="13000.00000" pt_clust_6="13000.00000" pt_clust_7="13000.00000" pt_clust_8="13000.00000" pt_clust_9="63.25506"></scales>
<clustering>
<clus scale="   63.255">  2  9  1 -1</clus>
<clus scale="   80.597">  5  6 -1 -1</clus>
<clus scale="   81.424">  1  5  2 -1</clus>
<clus scale="   91.201">  7  8 -1 -1</clus>
<clus scale="   63.255">  2  5  1 -1</clus>
</clustering>
</event>
<event>
 9    2  0.6469128E-005  0.1255099E+03  0.7546771E-02  0.1253968E+00
         21   -1    0    0  501  502  0.00000000000E+00  0.00000000000E+00  0.89550457341E+02  0.89550457341E+02  0.00000000000E+00 0. -1.
          2   -1    0    0  502    0 -0.00000000000E+00 -0.00000000000E+00 -0.31260215239E+03  0.31260215239E+03  0.00000000000E+00 0. -1.
         24    2    1    2    0    0  0.40525633275E+01 -0.15214723181E+02 -0.14521452912E+03  0.16794075438E+03  0.82878986746E+02 0.  0.
         23    2    1    2    0    0 -0.73599059666E+02 -0.37488138651E+02 -0.79762515833E+02  0.14693062157E+03  0.91675332016E+02 0.  0.
        -13    1    3    3    0    0  0.36066252923E+02  0.10018050516E+02 -0.38458990509E+02  0.53667773263E+02  0.00000000000E+00 0.  1.
         14    1    3    3    0    0 -0.32013689595E+02 -0.25232773697E+02 -0.10675553861E+03  0.11427298112E+03  0.00000000000E+00 0. -1.
        -13    1    4    4    0    0 -0.35739991364E+02 -0.57186749655E+02 -0.79504336320E+02  0.10425262976E+03  0.00000000000E+00 0.  1.
         13    1    4    4    0    0 -0.37859068302E+02  0.19698611004E+02 -0.25817951242E+00  0.42677991809E+02  0.00000000000E+00 0. -1.
          1    1    1    2  501    0  0.69546496339E+02  0.52702861832E+02  0.19253498982E+01  0.87281233782E+02  0.00000000000E+00 0. -1.
<scales pt_clust_5="13000.00000" pt_clust_6="13000.00000" pt_clust_7="13000.00000" pt_clust_8="13000.00000" pt_clust_9="85.72264"></scales>
<clustering>
<clus scale="   82.879">  5  6 -1 -1</clus>
<clus scale="   84.361">  2  5  1 -1</clus>
<clus scale="   85.723">  1  9  2 -1</clus>
<clus scale="   91.675">  7  8 -1 -1</clus>
<clus scale="   85.723">  1  5  2 -1</clus>
</clustering>
</event>
<event>
 9    2  0.6469128E-005  0.1289696E+03  0.7546771E-02  0.1230722E+00
          4   -1    0    0  502    0 -0.00000000000E+00  0.00000000000E+00  0.29852861406E+03  0.29852861406E+03  0.00000000000E+00 0. -1.
         21   -1    0    0  501  502  0.00000000000E+00 -0.00000000000E+00 -0.19378136589E+03  0.19378136589E+03  0.00000000000E+00 0. -1.
         24    2    1    2    0    0 -0.83246752665E+02  0.41682765219E+02  0.91565585817E+02  0.15450167825E+03  0.82577462600E+02 0.  0.
         23    2    1    2    0    0  0.46097854266E+02  0.77588178477E+02 -0.10476829478E+03  0.16600087739E+03  0.91842027937E+02 0.  0.
        -13    1    3    3    0    0 -0.22433787117E+02  0.48456737771E+02  0.13069342783E+02  0.54973975302E+02  0.00000000000E+00 0.  1.
         14    1    3    3    0    0 -0.60812965548E+02 -0.67739725512E+01  0.78496243034E+02  0.99527702944E+02  0.00000000000E+00 0. -1.
        -11    1    4    4    0    0  0.87074214841E+01  0.71386115569E+02 -0.22387110164E+02  0.75319183389E+02  0.00000000000E+00 0.  1.
         11    1    4    4    0    0  0.37390432782E+02  0.62020629082E+01 -0.82381184616E+02  0.90681694000E+02  0.00000000000E+00 0. -1.
          3    1    1    2  501    0  0.37148898399E+02 -0.11927094370E+03  0.11794995713E+03  0.17180742431E+03  0.00000000000E+00 0. -1.
<scales pt_clust_5="13000.00000" pt_clust_6="13000.00000" pt_clust_7="13000.00000" pt_clust_8="13000.00000" pt_clust_9="90.54394"></scales>
<clustering>
<clus scale="   82.577">  5  6 -1 -1</clus>
<clus scale="   91.842">  7  8 -1 -1</clus>
<clus scale="  124.445">  1  5  2 -1</clus>
<clus scale="   90.544">  2  9  1 -1</clus>
<clus scale="   90.544">  2  5  1 -1</clus>
</clustering>
</event>
<event>
 9    2  0.6469128E-005  0.9969189E+02  0.7546771E-02  0.1283777E+00
          2   -1    0    0  502    0 -0.00000000000E+00  0.00000000000E+00  0.77852456743E+03  0.77852456743E+03  0.00000000000E+00 0. -1.
         21   -1    0    0  501  502  0.00000000000E+00 -0.00000000000E+00 -0.24826894739E+02  0.24826894739E+02  0.00000000000E+00 0.  1.
         24    2    1    2    0    0  0.92599729355E+01 -0.21778335304E+02  0.25128288537E+03  0.27111595499E+03  0.98998634261E+02 0.  0.
         23    2    1    2    0    0 -0.13843337453E+02 -0.21415671616E+02  0.16081273354E+03  0.18788293696E+03  0.93749633335E+02 0.  0.
        -11    1    3    3    0    0 -0.42796236568E+02 -0.69891602252E+01  0.15173368126E+03  0.15780835292E+03  0.00000000000E+00 0.  1.
         12    1    3    3    0    0  0.52056209503E+02 -0.14789175079E+02  0.99549204112E+02  0.11330760207E+03  0.00000000000E+00 0. -1.
        -13    1    4    4    0    0 -0.29792153154E+02 -0.42053220199E+02  0.15176391027E+03  0.16027579411E+03  0.00000000000E+00 0. -1.
         13    1    4    4    0    0  0.15948815701E+02  0.20637548583E+02  0.90488232748E+01  0.27607142852E+02  0.00000000000E+00 0.  1.
          1    1    1    2  501    0  0.45833645174E+01  0.43194006920E+02  0.34160205379E+03  0.34435257022E+03  0.00000000000E+00 0. -1.
<scales pt_clust_5="13000.00000" pt_clust_6="13000.00000" pt_clust_7="13000.00000" pt_clust_8="13000.00000" pt_clust_9="43.43652"></scales>
<clustering>
<clus scale="   43.437">  2  9  1 -1</clus>
<clus scale="   93.750">  7  8 -1 -1</clus>
<clus scale="   94.481">  2  7  1 -1</clus>
<clus scale="   98.999">  5  6 -1 -1</clus>
<clus scale="   43.437">  2  5  1 -1</clus>
</clustering>
</event>
<event>
 9    2  0.6469128E-005  0.9626203E+02  0.7546771E-02  0.1296969E+00
         21   -1    0    0  501  502  0.00000000000E+00  0.00000000000E+00  0.40213224212E+02  0.40213224212E+02  0.00000000000E+00 0.  1.
          4   -1    0    0  502    0 -0.00000000000E+00 -0.00000000000E+00 -0.47122433181E+03  0.47122433181E+03  0.00000000000E+00 0. -1.
         23    2    1    2    0    0  0.51152646080E+02 -0.24039559600E+01 -0.23834514436E+03  0.25250937945E+03  0.65804305832E+02 0.  0.
         24    2    1    2    0    0 -0.38112400539E+02 -0.32942311242E+02 -0.45769238756E+02  0.10727708270E+03  0.82920433617E+02 0.  0.
        -11    1    4    4    0    0 -0.42701968420E+02 -0.57696112131E+02 -0.32104918748E+02  0.78632215216E+02  0.00000000000E+00 0.  1.
         12    1    4    4    0    0  0.45895678810E+01  0.24753800889E+02 -0.13664320008E+02  0.28644867483E+02  0.00000000000E+00 0. -1.
        -11    1    3    3    0    0  0.39508958852E+02  0.18184483595E+02 -0.21471322569E+03  0.21907396596E+03  0.00000000000E+00 0. -1.
         11    1    3    3    0    0  0.11643687228E+02 -0.20588439555E+02 -0.23631918666E+02  0.33435413493E+02  0.00000000000E+00 0.  1.
          3    1    1    2  501    0 -0.13040245540E+02  0.35346267202E+02 -0.14689672448E+03  0.15165109387E+03  0.00000000000E+00 0. -1.
<scales pt_clust_5="13000.00000" pt_clust_6="13000.00000" pt_clust_7="13000.00000" pt_clust_8="13000.00000" pt_clust_9="37.67503"></scales>
<clustering>
<clus scale="   37.675">  1  9  2 -1</clus>
<clus scale="   65.804">  7  8 -1 -1</clus>
<clus scale="   81.980">  2  7  1 -1</clus>
<clus scale="   82.920">  5  6 -1 -1</clus>
<clus scale="   37.675">  1  5  2 -1</clus>
</clustering>
</event>
<event>
 9    2  0.6469128E-005  0.1422568E+03  0.7546771E-02  0.1224791E+00
         21   -1    0    0  501  502  0.00000000000E+00  0.00000000000E+00  0.96469631935E+02  0.96469631935E+02  0.00000000000E+00 0. -1.
          2   -1    0    0  502    0 -0.00000000000E+00 -0.00000000000E+00 -0.47209426999E+03  0.47209426999E+03  0.00000000000E+00 0. -1.
         24    2    1    2    0    0  0.41099279387E+02  0.53206396883E+02 -0.26291284500E+03  0.28305184329E+03  0.80468071233E+02 0.  0.
         23    2    1    2    0    0  0.84563768001E+02 -0.43817295644E+02 -0.85939944207E+02  0.15668625147E+03  0.89966222188E+02 0.  0.
        -13    1    3    3    0    0 -0.22968480520E+02  0.39279544386E+01 -0.45914147170E+02  0.51488725308E+02  0.00000000000E+00 0.  1.
         14    1    3    3    0    0  0.64067759907E+02  0.49278442444E+02 -0.21699869783E+03  0.23156311798E+03  0.00000000000E+00 0. -1.
        -11    1    4    4    0    0  0.55893180805E+02 -0.92348478834E+01 -0.95237154384E+02  0.11081266016E+03  0.00000000000E+00 0. -1.
         11    1    4    4    0    0  0.28670587196E+02 -0.34582447760E+02  0.92972101770E+01  0.45873591317E+02  0.00000000000E+00 0.  1.
          1    1    1    2  501    0 -0.12566304739E+03 -0.93891012393E+01 -0.26771848851E+02  0.12882580717E+03  0.00000000000E+00 0. -1.
<scales pt_clust_5="13000.00000" pt_clust_6="13000.00000" pt_clust_7="13000.00000" pt_clust_8="13000.00000" pt_clust_9="110.19565"></scales>
<clustering>
<clus scale="   80.468">  5  6 -1 -1</clus>
<clus scale="   89.966">  7  8 -1 -1</clus>
<clus scale="  104.858">  2  5  1 -1</clus>
<clus scale="  110.196">  1  9  2 -1</clus>
<clus scale="  110.196">  1  5  2 -1</clus>
</clustering>
</event>
<event>
 9    2  0.6469128E-005  0.1017835E+03  0.7546771E-02  0.1282214E+00
         21   -1    0    0  501  502  0.00000000000E+00  0.00000000000E+00  0.32911368887E+02  0.32911368887E+02  0.00000000000E+00 0. -1.
          2   -1    0    0  502    0 -0.00000000000E+00 -0.00000000000E+00 -0.73550287407E+03  0.73550287407E+03  0.00000000000E+00 0. -1.
         24    2    1    2    0    0 -0.58201553563E+02  0.19160765421E+02 -0.50761005462E+03  0.51743436955E+03  0.79472029488E+02 0.  0.
         23    2    1    2    0    0  0.51277257282E+01  0.11449765085E+02 -0.14576719579E+03  0.17239311465E+03  0.91180699270E+02 0.  0.
        -13    1    3    3    0    0 -0.65269350614E+02 -0.10307253688E+02 -0.27339575958E+03  0.28126778871E+03  0.00000000000E+00 0.  1.
         14    1    3    3    0    0  0.70677970507E+01  0.29468019109E+02 -0.23421429504E+03  0.23616658084E+03  0.00000000000E+00 0. -1.
        -13    1    4    4    0    0 -0.20558337170E+02 -0.32652599201E+02 -0.43838496528E+02  0.58400781156E+02  0.00000000000E+00 0.  1.
         13    1    4    4    0    0  0.25686062898E+02  0.44102364286E+02 -0.10192869926E+03  0.11399233349E+03  0.00000000000E+00 0. -1.
          1    1    1    2  501    0  0.53073827835E+02 -0.30610530506E+02 -0.49214254776E+02  0.78586758758E+02  0.00000000000E+00 0. -1.
<scales pt_clust_5="13000.00000" pt_clust_6="13000.00000" pt_clust_7="13000.00000" pt_clust_8="13000.00000" pt_clust_9="61.26855"></scales>
<clustering>
<clus scale="   61.269">  1  9  2 -1</clus>
<clus scale="   79.472">  5  6 -1 -1</clus>
<clus scale="   91.181">  7  8 -1 -1</clus>
<clus scale="   91.443">  2  5  1 -1</clus>
<clus scale="   61.269">  1  5  2 -1</clus>
</clustering>
</event>
<event>
 9    2  0.6469128E-005  0.9664270E+02  0.7546771E-02  0.1293565E+00
         21   -1    0    0  501  502  0.00000000000E+00  0.00000000000E+00  0.91360644031E+02  0.91360644031E+02  0.00000000000E+00 0.  1.
         -1   -1    0    0    0  501 -0.00000000000E+00 -0.00000000000E+00 -0.12980550770E+03  0.12980550770E+03  0.00000000000E+00 0.  1.
         23    2    1    2    0    0 -0.39369744161E+02 -0.35975352261E+01 -0.28540947159E+02  0.10425886453E+03  0.92154251951E+02 0.  0.
         24    2    1    2    0    0  0.17049894791E+02 -0.18257153382E+02 -0.10623995062E+02  0.85661141788E+02  0.81246165321E+02 0.  0.
        -13    1    4    4    0    0 -0.57637237126E+01 -0.47050517561E+02 -0.12007126584E+02  0.48899312905E+02  0.00000000000E+00 0.  1.
         14    1    4    4    0    0  0.22813618503E+02  0.28793364180E+02  0.13831315213E+01  0.36761828883E+02  0.00000000000E+00 0. -1.
        -13    1    3    3    0    0 -0.55970590237E+02  0.26181091003E+02 -0.32704282153E+02  0.69912277668E+02  0.00000000000E+00 0.  1.
         13    1    3    3    0    0  0.16600846076E+02 -0.29778626229E+02  0.41633349945E+01  0.34346586858E+02  0.00000000000E+00 0. -1.
         -2    1    1    2    0  502  0.22319849371E+02  0.21854688608E+02  0.72007855605E+00  0.31246145414E+02  0.00000000000E+00 0.  1.
<scales pt_clust_5="13000.00000" pt_clust_6="13000.00000" pt_clust_7="13000.00000" pt_clust_8="13000.00000" pt_clust_9="31.23785"></scales>
<clustering>
<clus scale="   31.238">  1  9  2 -1</clus>
<clus scale="   81.246">  5  6 -1 -1</clus>
<clus scale="   86.304">  1  5  2 -1</clus>
<clus scale="   92.154">  7  8 -1 -1</clus>
<clus scale="   31.238">  1  5  2 -1</clus>
</clustering>
</event>
<event>
 9    2  0.6469128E-005  0.1767495E+03  0.7546771E-02  0.1199099E+00
          2   -1    0    0  502    0 -0.00000000000E+00  0.00000000000E+00  0.14351688696E+04  0.14351688696E+04  0.00000000000E+00 0. -1.
         21   -1    0    0  501  502  0.00000000000E+00 -0.00000000000E+00 -0.33656821337E+02  0.33656821337E+02  0.00000000000E+00 0.  1.
         24    2    1    2    0    0  0.62242927556E+02 -0.17820847177E+02  0.24364141569E+03  0.26131262558E+03  0.68785058124E+02 0.  0.
         23    2    1    2    0    0 -0.58702256613E+02  0.16194731670E+03  0.75128949216E+03  0.77612785548E+03  0.90915668025E+02 0.  0.
        -13    1    3    3    0    0  0.67836649345E+02 -0.19596583266E+02  0.24526214805E+03  0.25522413353E+03  0.00000000000E+00 0.  1.
         14    1    3    3    0    0 -0.55937217884E+01  0.17757360891E+01 -0.16207323537E+01  0.60884920519E+01  0.00000000000E+00 0. -1.
        -13    1    4    4    0    0 -0.75971398760E+02  0.86069469695E+02  0.38962972458E+03  0.40619075485E+03  0.00000000000E+00 0.  1.
         13    1    4    4    0    0  0.17269142147E+02  0.75877847010E+02  0.36165976758E+03  0.36993710063E+03  0.00000000000E+00 0. -1.
          1    1    1    2  501    0 -0.35406709436E+01 -0.14412646953E+03  0.40658114038E+03  0.43138520986E+03  0.00000000000E+00 0. -1.
<scales pt_clust_5="13000.00000" pt_clust_6="13000.00000" pt_clust_7="13000.00000" pt_clust_8="13000.00000" pt_clust_9="151.57413"></scales>
<clustering>
<clus scale="   68.785">  5  6 -1 -1</clus>
<clus scale="   90.916">  7  8 -1 -1</clus>
<clus scale="   94.462">  1  5  2 -1</clus>
<clus scale="  151.574">  2  9  1 -1</clus>
<clus scale="  151.574">  2  5  1 -1</clus>
</clustering>
</event>
<event>
 9    2  0.6469128E-005  0.1446910E+03  0.7546771E-02  0.1209083E+00
         21   -1    0    0  501  502  0.00000000000E+00  0.00000000000E+00  0.53505234391E+02  0.53505234391E+02  0.00000000000E+00 0. -1.
          4   -1    0    0  502    0 -0.00000000000E+00 -0.00000000000E+00 -0.47817133623E+03  0.47817133623E+03  0.00000000000E+00 0. -1.
         23    2    1    2    0    0 -0.46065187763E+02 -0.99037577544E+02 -0.26488341751E+03  0.30043639742E+03  0.90378983905E+02 0.  0.
         24    2    1    2    0    0  0.32181402034E+02  0.11600451443E+03 -0.14341793468E+03  0.20388251459E+03  0.80664030163E+02 0.  0.
        -13    1    4    4    0    0 -0.20472248950E+02  0.90287838237E+01 -0.87709485137E+01  0.24032508238E+02  0.00000000000E+00 0.  1.
         14    1    4    4    0    0  0.52653650984E+02  0.10697573061E+03 -0.13464698616E+03  0.17985000635E+03  0.00000000000E+00 0. -1.
        -13    1    3    3    0    0  0.20389001071E+02 -0.62406632972E+02 -0.11426082442E+03  0.13177949461E+03  0.00000000000E+00 0.  1.
         13    1    3    3    0    0 -0.66454188834E+02 -0.36630944571E+02 -0.15062259310E+03  0.16865690281E+03  0.00000000000E+00 0. -1.
          3    1    1    2  501    0  0.13883785729E+02 -0.16966936891E+02 -0.16364749646E+02  0.27357658610E+02  0.00000000000E+00 0. -1.
<scales pt_clust_5="13000.00000" pt_clust_6="13000.00000" pt_clust_7="13000.00000" pt_clust_8="13000.00000" pt_clust_9="21.92342"></scales>
<clustering>
<clus scale="   21.923">  1  9  2 -1</clus>
<clus scale="   80.664">  5  6 -1 -1</clus>
<clus scale="   90.379">  7  8 -1 -1</clus>
<clus scale="  138.830">  1  5  2 -1</clus>
<clus scale="   21.923">  1  5  2 -1</clus>
</clustering>
</event>
<event>
 9    2  0.6469128E-005  0.1246342E+03  0.7546771E-02  0.1239831E+00
          2   -1    0    0  502    0 -0.00000000000E+00  0.00000000000E+00  0.27315819710E+03  0.27315819710E+03  0.00000000000E+00 0. -1.
         21   -1    0    0  501  502  0.00000000000E+00 -0.00000000000E+00 -0.16390122386E+03  0.16390122386E+03  0.00000000000E+00 0.  1.
         24    2    1    2    0    0 -0.46130789941E+02  0.76210856771E+02  0.22218794895E+03  0.25124385936E+03  0.76287926537E+02 0.  0.
         23    2    1    2    0    0  0.14025193273E+02 -0.59953687778E+02 -0.71816201898E+02  0.13117592849E+03  0.90875775849E+02 0.  0.
        -11    1    3    3    0    0  0.17300270897E+02  0.20288665146E+02  0.24422106274E+02  0.36157552203E+02  0.00000000000E+00 0.  1.
         12    1    3    3    0    0 -0.63431060838E+02  0.55922191626E+02  0.19776584268E+03  0.21508630715E+03  0.00000000000E+00 0. -1.
        -11    1    4    4    0    0 -0.24609472324E+02 -0.62070796076E+02 -0.62318705402E+02  0.91334719009E+02  0.00000000000E+00 0.  1.
         11    1    4    4    0    0  0.38634665597E+02  0.21171082981E+01 -0.94974964963E+01  0.39841209483E+02  0.00000000000E+00 0. -1.
          1    1    1    2  501    0  0.32105596668E+02 -0.16257168994E+02 -0.41114773813E+02  0.54639633114E+02  0.00000000000E+00 0. -1.
<scales pt_clust_5="13000.00000" pt_clust_6="13000.00000" pt_clust_7="13000.00000" pt_clust_8="13000.00000" pt_clust_9="35.98701"></scales>
<clustering>
<clus scale="   35.987">  2  9  1 -1</clus>
<clus scale="   76.288">  5  6 -1 -1</clus>
<clus scale="   90.876">  7  8 -1 -1</clus>
<clus scale="  114.434">  1  5  2 -1</clus>
<clus scale="   35.987">  2  5  1 -1</clus>
</clustering>
</event>
<event>
 9    2  0.6469128E-005  0.1002803E+03  0.7546771E-02  0.1284257E+00
         21   -1    0    0  501  502  0.00000000000E+00  0.00000000000E+00  0.33616224505E+03  0.33616224505E+03  0.00000000000E+00 0. -1.
          2   -1    0    0  502    0 -0.00000000000E+00 -0.00000000000E+00 -0.97859233795E+02  0.97859233795E+02  0.00000000000E+00 0. -1.
         24    2    1    2    0    0  0.60134985257E+00  0.51092211381E+02 -0.23162213866E+02  0.97785364225E+02  0.80091907331E+02 0.  0.
         23    2    1    2    0    0  0.75829762717E+02 -0.10840293730E+02  0.10641908970E+03  0.15875023926E+03  0.89492742337E+02 0.  0.
        -11    1    3    3    0    0 -0.25485898041E+02 -0.56474086778E+01  0.89085423758E+01  0.27582355792E+02  0.00000000000E+00 0.  1.
         12    1    3    3    0    0  0.26087247894E+02  0.56739620059E+02 -0.32070756242E+02  0.70203008433E+02  0.00000000000E+00 0. -1.
        -11    1    4    4    0    0  0.18793623789E+02 -0.46686690254E+02  0.42184115290E+02  0.65668462178E+02  0.00000000000E+00 0.  1.
         11    1    4    4    0    0  0.57036138928E+02  0.35846396524E+02  0.64234974415E+02  0.93081777087E+02  0.00000000000E+00 0. -1.
          1    1    1    2  501    0 -0.76431112570E+02 -0.40251917652E+02  0.15504613542E+03  0.17748587536E+03  0.00000000000E+00 0. -1.
<scales pt_clust_5="13000.00000" pt_clust_6="13000.00000" pt_clust_7="13000.00000" pt_clust_8="13000.00000" pt_clust_9="86.38247"></scales>
<clustering>
<clus scale="   80.092">  5  6 -1 -1</clus>
<clus scale="   86.382">  1  9  2 -1</clus>
<clus scale="   89.493">  7  8 -1 -1</clus>
<clus scale="   91.989">  2  5  1 -1</clus>
<clus scale="   86.382">  1  5  2 -1</clus>
</clustering>
</event>
<event>
 9    2  0.6469128E-005  0.1069025E+03  0.7546771E-02  0.1266683E+00
         21   -1    0    0  501  502  0.00000000000E+00  0.00000000000E+00  0.76026352084E+02  0.76026352084E+02  0.00000000000E+00 0.  1.
          2   -1    0    0  502    0 -0.00000000000E+00 -0.00000000000E+00 -0.73494920819E+03  0.73494920819E+03  0.00000000000E+00 0. -1.
         24    2    1    2    0    0  0.69548762121E+00 -0.52780574900E+02 -0.63210606350E+03  0.64101734666E+03  0.92514271391E+02 0.  0.
         23    2    1    2    0    0  0.30989099678E+02  0.49270649050E+02 -0.58980094715E+02  0.12467344073E+03  0.93149847533E+02 0.  0.
        -11    1    3    3    0    0 -0.10320017468E+02 -0.18810191417E+02 -0.25347521307E+02  0.33208777425E+02  0.00000000000E+00 0.  1.
         12    1    3    3    0    0  0.11015505089E+02 -0.33970383483E+02 -0.60675854219E+03  0.60780856923E+03  0.00000000000E+00 0. -1.
        -11    1    4    4    0    0 -0.32852062243E+01  0.56164451419E+02 -0.17492829512E+00  0.56260721494E+02  0.00000000000E+00 0.  1.
         11    1    4    4    0    0  0.34274305902E+02 -0.68938023691E+01 -0.58805166420E+02  0.68412719240E+02  0.00000000000E+00 0. -1.
          1    1    1    2  501    0 -0.31684587299E+02  0.35099258501E+01  0.32163302114E+02  0.45284772879E+02  0.00000000000E+00 0. -1.
<scales pt_clust_5="13000.00000" pt_clust_6="13000.00000" pt_clust_7="13000.00000" pt_clust_8="13000.00000" pt_clust_9="31.87840"></scales>
<clustering>
<clus scale="   31.878">  1  9  2 -1</clus>
<clus scale="   92.514">  5  6 -1 -1</clus>
<clus scale="   93.150">  7  8 -1 -1</clus>
<clus scale="  106.349">  2  5  1 -1</clus>
<clus scale="   31.878">  1  5  2 -1</clus>
</clustering>
</event>
<event>
 9    2  0.6469128E-005  0.2290980E+03  0.7546771E-02  0.1146286E+00
          2   -1    0    0  502    0 -0.00000000000E+00  0.00000000000E+00  0.18532986775E+04  0.18532986775E+04  0.00000000000E+00 0. -1.
         21   -1    0    0  501  502  0.00000000000E+00 -0.00000000000E+00 -0.90747226101E+02  0.90747226101E+02  0.00000000000E+00 0. -1.
         23    2    1    2    0    0 -0.98033850978E+02 -0.52634828074E+02  0.24660630430E+02  0.14653705216E+03  0.92108088128E+02 0.  0.
         24    2    1    2    0    0 -0.48906010874E+02 -0.16724601946E+03  0.84338717579E+03  0.86473037755E+03  0.78061953884E+02 0.  0.
        -11    1    4    4    0    0  0.21553536476E+02 -0.37772100885E+02  0.19994829426E+03  0.20462308501E+03  0.00000000000E+00 0.  1.
         12    1    4    4    0    0 -0.70459547350E+02 -0.12947391858E+03  0.64343888153E+03  0.66010729254E+03  0.00000000000E+00 0. -1.
        -11    1    3    3    0    0 -0.11391969766E+03 -0.32347335410E+02  0.23575987097E+02  0.12074715231E+03  0.00000000000E+00 0. -1.
         11    1    3    3    0    0  0.15885846679E+02 -0.20287492664E+02  0.10846433333E+01  0.25789899854E+02  0.00000000000E+00 0.  1.
          1    1    1    2  501    0  0.14693986185E+03  0.21988084754E+03  0.89450364516E+03  0.93277847387E+03  0.00000000000E+00 0. -1.
<scales pt_clust_5="13000.00000" pt_clust_6="13000.00000" pt_clust_7="13000.00000" pt_clust_8="13000.00000" pt_clust_9="215.38870"></scales>
<clustering>
<clus scale="   78.062">  5  6 -1 -1</clus>
<clus scale="   92.108">  7  8 -1 -1</clus>
<clus scale="  144.447">  1  7  2 -1</clus>
<clus scale="  215.389">  2  9  1 -1</clus>
<clus scale="  215.389">  2  5  1 -1</clus>
</clustering>
</event>
<event>
 9    2  0.6469128E-005  0.1407414E+03  0.7546771E-02  0.1228634E+00
         21   -1    0    0  501  502  0.00000000000E+00  0.00000000000E+00  0.13564311583E+03  0.13564311583E+03  0.00000000000E+00 0. -1.
          4   -1    0    0  502    0 -0.00000000000E+00 -0.00000000000E+00 -0.36033847492E+03  0.36033847492E+03  0.00000000000E+00 0. -1.
         24    2    1    2    0    0 -0.25472382227E+02 -0.52473176633E+02 -0.73546953895E+02  0.12411691387E+03  0.81200845797E+02 0.  0.
         23    2    1    2    0    0 -0.95407105286E+02 -0.21761186015E+02  0.33422353145E+02  0.13907946272E+03  0.93005259560E+02 0.  0.
        -11    1    3    3    0    0 -0.20018055079E+02 -0.74518776931E+02 -0.54357593572E+02  0.94384949136E+02  0.00000000000E+00 0.  1.
         12    1    3    3    0    0 -0.54543271476E+01  0.22045600298E+02 -0.19189360323E+02  0.29731964730E+02  0.00000000000E+00 0. -1.
        -13    1    4    4    0    0 -0.44957130403E+02  0.22444036779E+02 -0.19233898511E+02  0.53803542755E+02  0.00000000000E+00 0.  1.
         13    1    4    4    0    0 -0.50449974883E+02 -0.44205222794E+02  0.52656251657E+02  0.85275919969E+02  0.00000000000E+00 0. -1.
          3    1    1    2  501    0  0.12087948751E+03  0.74234362648E+02 -0.18457075833E+03  0.23278521416E+03  0.00000000000E+00 0. -1.
<scales pt_clust_5="13000.00000" pt_clust_6="13000.00000" pt_clust_7="13000.00000" pt_clust_8="13000.00000" pt_clust_9="105.63228"></scales>
<clustering>
<clus scale="   81.201">  5  6 -1 -1</clus>
<clus scale="   93.005">  7  8 -1 -1</clus>
<clus scale="   99.979">  2  5  1 -1</clus>
<clus scale="  105.632">  1  9  2 -1</clus>
<clus scale="  105.632">  1  5  2 -1</clus>
</clustering>
</event>
<event>
 9    2  0.6469128E-005  0.4378489E+03  0.7546771E-02  0.1089508E+00
         21   -1    0    0  501  502  0.00000000000E+00  0.00000000000E+00  0.34496884697E+04  0.34496884697E+04  0.00000000000E+00 0.  1.
         -1   -1    0    0    0  501 -0.00000000000E+00 -0.00000000000E+00 -0.69608848349E+02  0.69608848349E+02  0.00000000000E+00 0.  1.
         24    2    1    2    0    0  0.23216575571E+02 -0.22396849694E+02  0.13511091751E+03  0.16024182324E+03  0.79886504671E+02 0.  0.
         23    2    1    2    0    0 -0.33555952930E+03  0.29268218920E+03  0.16620108304E+04  0.17230946412E+04  0.92260937187E+02 0.  0.
        -11    1    3    3    0    0  0.19405540728E+02 -0.47879265423E+02  0.11931503348E+03  0.13001952270E+03  0.00000000000E+00 0.  1.
         12    1    3    3    0    0  0.38110348433E+01  0.25482415729E+02  0.15795884030E+02  0.30222300546E+02  0.00000000000E+00 0. -1.
        -13    1    4    4    0    0 -0.16590645279E+03  0.13988405841E+03  0.63655770474E+03  0.67253119804E+03  0.00000000000E+00 0.  1.
         13    1    4    4    0    0 -0.16965307651E+03  0.15279813079E+03  0.10254531257E+04  0.10505634432E+04  0.00000000000E+00 0. -1.
         -2    1    1    2    0  502  0.31234295373E+03 -0.27028533951E+03  0.15829578735E+04  0.16359608537E+04  0.00000000000E+00 0.  1.
<scales pt_clust_5="13000.00000" pt_clust_6="13000.00000" pt_clust_7="13000.00000" pt_clust_8="13000.00000" pt_clust_9="428.01818"></scales>
<clustering>
<clus scale="   79.887">  5  6 -1 -1</clus>
<clus scale="   86.154">  2  5  1 -1</clus>
<clus scale="   92.261">  7  8 -1 -1</clus>
<clus scale="  428.018">  1  9  2 -1</clus>
<clus scale="  428.018">  1  5  2 -1</clus>
</clustering>
</event>
<event>
 9    2  0.6469128E-005  0.3343024E+03  0.7546771E-02  0.1110422E+00
         21   -1    0    0  501  502  0.00000000000E+00  0.00000000000E+00  0.98235074732E+02  0.98235074732E+02  0.00000000000E+00 0.  1.
         -3   -1    0    0    0  501 -0.00000000000E+00 -0.00000000000E+00 -0.15761814688E+04  0.15761814688E+04  0.00000000000E+00 0.  1.
         24    2    1    2    0    0 -0.57924444362E+02 -0.51962088165E+02 -0.25096517495E+03  0.27502360154E+03  0.81235229455E+02 0.  0.
         23    2    1    2    0    0  0.30827083538E+03 -0.13890100860E+03 -0.75419681210E+03  0.83139018432E+03  0.89846586249E+02 0.  0.
        -13    1    3    3    0    0 -0.73143693938E+02 -0.50488659427E+02 -0.16222565980E+03  0.18497640226E+03  0.00000000000E+00 0.  1.
         14    1    3    3    0    0  0.15219249576E+02 -0.14734287387E+01 -0.88739515149E+02  0.90047199283E+02  0.00000000000E+00 0. -1.
        -11    1    4    4    0    0  0.58619386036E+02 -0.26025260941E+02 -0.24391033408E+03  0.25220189868E+03  0.00000000000E+00 0. -1.
         11    1    4    4    0    0  0.24965144935E+03 -0.11287574766E+03 -0.51028647802E+03  0.57918828564E+03  0.00000000000E+00 0.  1.
         -4    1    1    2    0  502 -0.25034639102E+03  0.19086309677E+03 -0.47278440700E+03  0.56800275766E+03  0.00000000000E+00 0.  1.
<scales pt_clust_5="13000.00000" pt_clust_6="13000.00000" pt_clust_7="13000.00000" pt_clust_8="13000.00000" pt_clust_9="322.00266"></scales>
<clustering>
<clus scale="   81.235">  5  6 -1 -1</clus>
<clus scale="   89.847">  7  8 -1 -1</clus>
<clus scale="  112.492">  2  5  1 -1</clus>
<clus scale="  322.003">  1  9  2 -1</clus>
<clus scale="  322.003">  1  5  2 -1</clus>
</clustering>
</event>
<event>
 9    2  0.6469128E-005  0.1402753E+03  0.7546771E-02  0.1229803E+00
         21   -1    0    0  501  502  0.00000000000E+00  0.00000000000E+00  0.15059698891E+03  0.15059698891E+03  0.00000000000E+00 0. -1.
          2   -1    0    0  502    0 -0.00000000000E+00 -0.00000000000E+00 -0.21431810542E+03  0.21431810542E+03  0.00000000000E+00 0. -1.
         23    2    1    2    0    0  0.12359106321E+02  0.39130117725E+02 -0.20475469820E+02  0.10067152860E+03  0.89619184247E+02 0.  0.
         24    2    1    2    0    0 -0.11938534642E+03 -0.47787633888E+02 -0.36400836042E+02  0.15664979226E+03  0.81716691434E+02 0.  0.
        -11    1    4    4    0    0 -0.49920108416E+02 -0.45957162976E+02 -0.51931999402E+02  0.85445951425E+02  0.00000000000E+00 0.  1.
         12    1    4    4    0    0 -0.69465238003E+02 -0.18304709122E+01  0.15531163360E+02  0.71203840837E+02  0.00000000000E+00 0. -1.
        -13    1    3    3    0    0 -0.15792715153E+02  0.54552049967E+02 -0.33606430237E+02  0.65990364151E+02  0.00000000000E+00 0. -1.
         13    1    3    3    0    0  0.28151821474E+02 -0.15421932242E+02  0.13130960417E+02  0.34681164453E+02  0.00000000000E+00 0.  1.
          1    1    1    2  501    0  0.10702624010E+03  0.86575161628E+01 -0.68448106494E+01  0.10759377347E+03  0.00000000000E+00 0. -1.
<scales pt_clust_5="13000.00000" pt_clust_6="13000.00000" pt_clust_7="13000.00000" pt_clust_8="13000.00000" pt_clust_9="114.01556"></scales>
<clustering>
<clus scale="   81.717">  5  6 -1 -1</clus>
<clus scale="   89.619">  7  8 -1 -1</clus>
<clus scale="   98.567">  2  7  1 -1</clus>
<clus scale="  114.016">  1  9  2 -1</clus>
<clus scale="  114.016">  1  5  2 -1</clus>
</clustering>
</event>
<event>
 9    2  0.6469128E-005  0.9303061E+02  0.7546771E-02  0.1307568E+00
         21   -1    0    0  501  502  0.00000000000E+00  0.00000000000E+00  0.91827407716E+02  0.91827407716E+02  0.00000000000E+00 0.  1.
          2   -1    0    0  502    0 -0.00000000000E+00 -0.00000000000E+00 -0.39448413892E+03  0.39448413892E+03  0.00000000000E+00 0. -1.
         23    2    1    2    0    0 -0.15718130515E+02 -0.29919419328E+01 -0.29708220620E+03  0.31160844011E+03  0.92660516770E+02 0.  0.
         24    2    1    2    0    0 -0.36831805924E+02 -0.43756666466E+02 -0.32730532679E+02  0.99308299273E+02  0.74294163614E+02 0.  0.
        -13    1    4    4    0    0 -0.84995999699E+01 -0.56612802785E+02 -0.36613383982E+02  0.67954341476E+02  0.00000000000E+00 0.  1.
         14    1    4    4    0    0 -0.28332205954E+02  0.12856136319E+02  0.38828513027E+01  0.31353957797E+02  0.00000000000E+00 0. -1.
        -13    1    3    3    0    0 -0.10026983028E+02 -0.47033496758E+02 -0.12626060706E+03  0.13510896010E+03  0.00000000000E+00 0.  1.
         13    1    3    3    0    0 -0.56911474868E+01  0.44041554825E+02 -0.17082159914E+03  0.17649948001E+03  0.00000000000E+00 0. -1.
          1    1    1    2  501    0  0.52549936439E+02  0.46748608399E+02  0.27156007674E+02  0.75394807247E+02  0.00000000000E+00 0. -1.
<scales pt_clust_5="13000.00000" pt_clust_6="13000.00000" pt_clust_7="13000.00000" pt_clust_8="13000.00000" pt_clust_9="70.33440"></scales>
<clustering>
<clus scale="   70.334">  1  9  2 -1</clus>
<clus scale="   74.294">  5  6 -1 -1</clus>
<clus scale="   74.755">  1  5  2 -1</clus>
<clus scale="   92.661">  7  8 -1 -1</clus>
<clus scale="   70.334">  1  5  2 -1</clus>
</clustering>
</event>
<event>
 9    2  0.6469128E-005  0.1054685E+03  0.7546771E-02  0.1273943E+00
         21   -1    0    0  501  502  0.00000000000E+00  0.00000000000E+00  0.33079150411E+03  0.33079150411E+03  0.00000000000E+00 0. -1.
         -1   -1    0    0    0  501 -0.00000000000E+00 -0.00000000000E+00 -0.12130566851E+03  0.12130566851E+03  0.00000000000E+00 0.  1.
         23    2    1    2    0    0 -0.34840573236E+02  0.41162262271E+02 -0.77156135883E+02  0.13110382239E+03  0.91252098947E+02 0.  0.
         24    2    1    2    0    0  0.49360094384E+02 -0.18931207657E+02  0.12798353413E+03  0.16012838814E+03  0.80414589101E+02 0.  0.
        -11    1    4    4    0    0  0.45128366642E+02 -0.91072958392E+01  0.17693899210E+02  0.49321256904E+02  0.00000000000E+00 0.  1.
         12    1    4    4    0    0  0.42317277413E+01 -0.98239118180E+01  0.11028963492E+03  0.11080713124E+03  0.00000000000E+00 0. -1.
        -11    1    3    3    0    0 -0.41305913153E+02  0.67207418337E+02 -0.53368164180E+02  0.95242724073E+02  0.00000000000E+00 0.  1.
         11    1    3    3    0    0  0.64653399176E+01 -0.26045156066E+02 -0.23787971703E+02  0.35861098317E+02  0.00000000000E+00 0. -1.
         -2    1    1    2    0  502 -0.14519521148E+02 -0.22231054613E+02  0.15865843736E+03  0.16086496209E+03  0.00000000000E+00 0.  1.
<scales pt_clust_5="13000.00000" pt_clust_6="13000.00000" pt_clust_7="13000.00000" pt_clust_8="13000.00000" pt_clust_9="26.55252"></scales>
<clustering>
<clus scale="   26.553">  1  9  2 -1</clus>
<clus scale="   80.415">  5  6 -1 -1</clus>
<clus scale="   91.252">  7  8 -1 -1</clus>
<clus scale="   96.245">  1  5  2 -1</clus>
<clus scale="   26.553">  1  5  2 -1</clus>
</clustering>
</event>
<event>
 9    2  0.6469128E-005  0.1245540E+03  0.7546771E-02  0.1240723E+00
         -1   -1    0    0    0  501 -0.00000000000E+00  0.00000000000E+00  0.40783961790E+03  0.40783961790E+03  0.00000000000E+00 0.  1.
         21   -1    0    0  501  502  0.00000000000E+00 -0.00000000000E+00 -0.82093648814E+02  0.82093648814E+02  0.00000000000E+00 0.  1.
         24    2    1    2    0    0  0.55167825098E+02 -0.48441416387E+02  0.27898903116E+03  0.30094156184E+03  0.85678961172E+02 0.  0.
         23    2    1    2    0    0 -0.33900507878E+02  0.67551658312E+02 -0.89558608942E+01  0.12637049377E+03  0.10088024225E+03 0.  0.
        -13    1    3    3    0    0  0.48610855292E+02 -0.72817820323E+02  0.21967471855E+03  0.23647924259E+03  0.00000000000E+00 0.  1.
         14    1    3    3    0    0  0.65569698053E+01  0.24376403936E+02  0.59314312611E+02  0.64462319245E+02  0.00000000000E+00 0. -1.
        -13    1    4    4    0    0  0.22185797251E+02  0.55122483655E+02 -0.28218780623E+02  0.65779916265E+02  0.00000000000E+00 0.  1.
         13    1    4    4    0    0 -0.56086305129E+02  0.12429174657E+02  0.19262919729E+02  0.60590577503E+02  0.00000000000E+00 0. -1.
         -2    1    1    2    0  502 -0.21267317220E+02 -0.19110241925E+02  0.55712798820E+02  0.62621211107E+02  0.00000000000E+00 0.  1.
<scales pt_clust_5="13000.00000" pt_clust_6="13000.00000" pt_clust_7="13000.00000" pt_clust_8="13000.00000" pt_clust_9="28.59197"></scales>
<clustering>
<clus scale="   28.592">  2  9  1 -1</clus>
<clus scale="   85.679">  5  6 -1 -1</clus>
<clus scale="  100.880">  7  8 -1 -1</clus>
<clus scale="  112.596">  1  5  2 -1</clus>
<clus scale="   28.592">  2  5  1 -1</clus>
</clustering>
</event>
<event>
 9    2  0.6469128E-005  0.9445381E+02  0.7546771E-02  0.1295778E+00
          2   -1    0    0  502    0 -0.00000000000E+00  0.00000000000E+00  0.56575397752E+03  0.56575397752E+03  0.00000000000E+00 0. -1.
         21   -1    0    0  501  502  0.00000000000E+00 -0.00000000000E+00 -0.41060484278E+02  0.41060484278E+02  0.00000000000E+00 0.  1.
         24    2    1    2    0    0  0.24183300412E+02  0.77662821398E+01  0.47521148758E+03  0.48355118229E+03  0.85735878137E+02 0.  0.
         23    2    1    2    0    0 -0.49759385050E+01  0.68093663291E+00  0.42416704880E+02  0.10112289263E+03  0.91659363525E+02 0.  0.
        -11    1    3    3    0    0 -0.21287141564E+02  0.28363996140E+02  0.13004495023E+03  0.13479372298E+03  0.00000000000E+00 0.  1.
         12    1    3    3    0    0  0.45470441976E+02 -0.20597714000E+02  0.34516653735E+03  0.34875745931E+03  0.00000000000E+00 0. -1.
        -11    1    4    4    0    0 -0.18187305339E+02  0.33844391582E+02 -0.80997122015E+01  0.39266095487E+02  0.00000000000E+00 0.  1.
         11    1    4    4    0    0  0.13211366834E+02 -0.33163454949E+02  0.50516417081E+02  0.61856797141E+02  0.00000000000E+00 0. -1.
          1    1    1    2  501    0 -0.19207361907E+02 -0.84472187727E+01  0.70653007804E+01  0.22140386888E+02  0.00000000000E+00 0. -1.
<scales pt_clust_5="13000.00000" pt_clust_6="13000.00000" pt_clust_7="13000.00000" pt_clust_8="13000.00000" pt_clust_9="20.98281"></scales>
<clustering>
<clus scale="   20.983">  2  9  1 -1</clus>
<clus scale="   85.736">  5  6 -1 -1</clus>
<clus scale="   88.717">  1  5  2 -1</clus>
<clus scale="   91.659">  7  8 -1 -1</clus>
<clus scale="   20.983">  2  5  1 -1</clus>
</clustering>
</event>
<event>
 9    2  0.6469128E-005  0.9764436E+02  0.7546771E-02  0.1286061E+00
          2   -1    0    0  502    0 -0.00000000000E+00  0.00000000000E+00  0.76882972740E+02  0.76882972740E+02  0.00000000000E+00 0. -1.
         21   -1    0    0  501  502  0.00000000000E+00 -0.00000000000E+00 -0.33860810830E+03  0.33860810830E+03  0.00000000000E+00 0. -1.
         24    2    1    2    0    0  0.36161045570E+02 -0.44597652734E+02 -0.16812141550E+02  0.10674879494E+03  0.88408626675E+02 0.  0.
         23    2    1    2    0    0  0.39613123761E+02  0.23062008209E+02 -0.91079131599E+02  0.13591183177E+03  0.89864130800E+02 0.  0.
        -13    1    3    3    0    0  0.24303507546E+02 -0.21903967818E+02  0.35640256434E+02  0.48380493630E+02  0.00000000000E+00 0.  1.
         14    1    3    3    0    0  0.11857538023E+02 -0.22693684916E+02 -0.52452397984E+02  0.58368301305E+02  0.00000000000E+00 0. -1.
        -13    1    4    4    0    0  0.21877931492E+02  0.51423705104E+01  0.14906737240E+02  0.26968475596E+02  0.00000000000E+00 0. -1.
         13    1    4    4    0    0  0.17735192269E+02  0.17919637699E+02 -0.10598586884E+03  0.10894335617E+03  0.00000000000E+00 0.  1.
          1    1    1    2  501    0 -0.75774169331E+02  0.21535644524E+02 -0.15383386241E+03  0.17283045434E+03  0.00000000000E+00 0. -1.
<scales pt_clust_5="13000.00000" pt_clust_6="13000.00000" pt_clust_7="13000.00000" pt_clust_8="13000.00000" pt_clust_9="78.77505"></scales>
<clustering>
<clus scale="   78.775">  2  9  1 -1</clus>
<clus scale="   88.409">  5  6 -1 -1</clus>
<clus scale="   89.864">  7  8 -1 -1</clus>
<clus scale="   96.307">  1  5  2 -1</clus>
<clus scale="   78.775">  2  5  1 -1</clus>
</clustering>
</event>
<event>
 9    2  0.6469128E-005  0.1108407E+03  0.7546771E-02  0.1274842E+00
         21   -1    0    0  501  502  0.00000000000E+00  0.00000000000E+00  0.19931327876E+03  0.19931327876E+03  0.00000000000E+00 0. -1.
          2   -1    0    0  502    0 -0.00000000000E+00 -0.00000000000E+00 -0.32013507718E+03  0.32013507718E+03  0.00000000000E+00 0. -1.
         24    2    1    2    0    0  0.54845129372E+00 -0.74167225818E+01 -0.18489797586E+03  0.20187991726E+03  0.80702731964E+02 0.  0.
         23    2    1    2    0    0  0.20098610955E+02  0.19472189503E+02 -0.10018285443E+03  0.15157848413E+03  0.11025566745E+03 0.  0.
        -13    1    3    3    0    0 -0.27554964197E+02  0.25650248040E+02 -0.85075282534E+02  0.93032332953E+02  0.00000000000E+00 0.  1.
         14    1    3    3    0    0  0.28103415491E+02 -0.33066970622E+02 -0.99822693321E+02  0.10884758431E+03  0.00000000000E+00 0. -1.
        -13    1    4    4    0    0 -0.34433343358E+02 -0.13163124872E+01  0.13315430879E+01  0.34484211175E+02  0.00000000000E+00 0.  1.
         13    1    4    4    0    0  0.54531954313E+02  0.20788501991E+02 -0.10151439752E+03  0.11709427296E+03  0.00000000000E+00 0. -1.
          1    1    1    2  501    0 -0.20647062249E+02 -0.12055466922E+02  0.16425903186E+03  0.16598995455E+03  0.00000000000E+00 0. -1.
<scales pt_clust_5="13000.00000" pt_clust_6="13000.00000" pt_clust_7="13000.00000" pt_clust_8="13000.00000" pt_clust_9="23.90890"></scales>
<clustering>
<clus scale="   23.909">  1  9  2 -1</clus>
<clus scale="   80.703">  5  6 -1 -1</clus>
<clus scale="   81.500">  2  5  1 -1</clus>
<clus scale="  110.256">  7  8 -1 -1</clus>
<clus scale="   23.909">  1  5  2 -1</clus>
</clustering>
</event>
<event>
 9    2  0.6469128E-005  0.1040050E+03  0.7546771E-02  0.1277306E+00
          2   -1    0    0  502    0 -0.00000000000E+00  0.00000000000E+00  0.48632708784E+03  0.48632708784E+03  0.00000000000E+00 0. -1.
         21   -1    0    0  501  502  0.00000000000E+00 -0.00000000000E+00 -0.25493349657E+03  0.25493349657E+03  0.00000000000E+00 0. -1.
         24    2    1    2    0    0  0.43412792828E+02  0.12705028911E+02  0.42763048326E+03  0.43767223674E+03  0.81505019838E+02 0.  0.
         23    2    1    2    0    0 -0.11370483787E+03 -0.30852633749E+02 -0.16928800735E+03  0.22615095658E+03  0.92763950768E+02 0.  0.
        -11    1    3    3    0    0 -0.15353735549E+02  0.27482726236E+02  0.18024355998E+03  0.18297206986E+03  0.00000000000E+00 0.  1.
         12    1    3    3    0    0  0.58766528376E+02 -0.14777697325E+02  0.24738692328E+03  0.25470016687E+03  0.00000000000E+00 0. -1.
        -11    1    4    4    0    0 -0.96759897823E+02  0.83437328105E+01 -0.75212289443E+02  0.12283722639E+03  0.00000000000E+00 0. -1.
         11    1    4    4    0    0 -0.16944940049E+02 -0.39196366560E+02 -0.94075717910E+02  0.10331373019E+03  0.00000000000E+00 0.  1.
          1    1    1    2  501    0  0.70292045044E+02  0.18147604838E+02 -0.26948884636E+02  0.77437391104E+02  0.00000000000E+00 0. -1.
<scales pt_clust_5="13000.00000" pt_clust_6="13000.00000" pt_clust_7="13000.00000" pt_clust_8="13000.00000" pt_clust_9="72.59688"></scales>
<clustering>
<clus scale="   72.597">  2  9  1 -1</clus>
<clus scale="   81.505">  5  6 -1 -1</clus>
<clus scale="   92.764">  7  8 -1 -1</clus>
<clus scale="   94.101">  1  5  2 -1</clus>
<clus scale="   72.597">  2  5  1 -1</clus>
</clustering>
</event>
<event>
 9    2  0.6469128E-005  0.9862740E+02  0.7546771E-02  0.1289499E+00
         21   -1    0    0  501  502  0.00000000000E+00  0.00000000000E+00  0.63721146745E+02  0.63721146745E+02  0.00000000000E+00 0. -1.
          2   -1    0    0  502    0 -0.00000000000E+00 -0.00000000000E+00 -0.28417658454E+03  0.28417658454E+03  0.00000000000E+00 0. -1.
         23    2    1    2    0    0 -0.18023656115E+02  0.27752037972E+02 -0.10447684640E+03  0.14293623042E+03  0.91762338356E+02 0.  0.
         24    2    1    2    0    0  0.61129703552E+02  0.21722107511E+02 -0.62812072501E+02  0.12050736463E+03  0.79799610691E+02 0.  0.
        -13    1    4    4    0    0 -0.18041301872E+02  0.13878643495E+02 -0.19206306265E+02  0.29782335685E+02  0.00000000000E+00 0.  1.
         14    1    4    4    0    0  0.79171005424E+02  0.78434640159E+01 -0.43605766236E+02  0.90725028943E+02  0.00000000000E+00 0. -1.
        -13    1    3    3    0    0 -0.26370390488E+02 -0.26389811240E+02 -0.20214250606E+02  0.42431539677E+02  0.00000000000E+00 0.  1.
         13    1    3    3    0    0  0.83467343732E+01  0.54141849211E+02 -0.84262595793E+02  0.10050469074E+03  0.00000000000E+00 0. -1.
          1    1    1    2  501    0 -0.43106047437E+02 -0.49474145482E+02 -0.53166518895E+02  0.84454136241E+02  0.00000000000E+00 0. -1.
<scales pt_clust_5="13000.00000" pt_clust_6="13000.00000" pt_clust_7="13000.00000" pt_clust_8="13000.00000" pt_clust_9="65.61877"></scales>
<clustering>
<clus scale="   65.619">  1  9  2 -1</clus>
<clus scale="   79.800">  5  6 -1 -1</clus>
<clus scale="   87.607">  1  5  2 -1</clus>
<clus scale="   91.762">  7  8 -1 -1</clus>
<clus scale="   65.619">  1  5  2 -1</clus>
</clustering>
</event>
<event>
 9    2  0.6469128E-005  0.1472813E+03  0.7546771E-02  0.1215950E+00
         21   -1    0    0  501  502  0.00000000000E+00  0.00000000000E+00  0.15705180275E+03  0.15705180275E+03  0.00000000000E+00 0. -1.
          2   -1    0    0  502    0 -0.00000000000E+00 -0.00000000000E+00 -0.36408988763E+03  0.36408988763E+03  0.00000000000E+00 0. -1.
         24    2    1    2    0    0  0.16877535731E+01 -0.74967806047E+02 -0.19318413496E+03  0.22292689055E+03  0.82178270090E+02 0.  0.
         23    2    1    2    0    0 -0.35929345506E+02  0.85561440574E+02 -0.11347739054E+03  0.19233967701E+03  0.12452210731E+03 0.  0.
        -13    1    3    3    0    0 -0.33642072655E+02 -0.42526037292E+02 -0.14557188789E+03  0.15534293497E+03  0.00000000000E+00 0.  1.
         14    1    3    3    0    0  0.35329826229E+02 -0.32441768755E+02 -0.47612247066E+02  0.67583955581E+02  0.00000000000E+00 0. -1.
        -11    1    4    4    0    0 -0.53117551145E+02  0.42188839112E+01 -0.20632971498E+01  0.53324763630E+02  0.00000000000E+00 0.  1.
         11    1    4    4    0    0  0.17188205639E+02  0.81342556663E+02 -0.11141409339E+03  0.13901491338E+03  0.00000000000E+00 0. -1.
          1    1    1    2  501    0  0.34241591933E+02 -0.10593634526E+02  0.99623440614E+02  0.10587512281E+03  0.00000000000E+00 0. -1.
<scales pt_clust_5="13000.00000" pt_clust_6="13000.00000" pt_clust_7="13000.00000" pt_clust_8="13000.00000" pt_clust_9="35.84288"></scales>
<clustering>
<clus scale="   35.843">  1  9  2 -1</clus>
<clus scale="   82.178">  5  6 -1 -1</clus>
<clus scale="  113.751">  2  5  1 -1</clus>
<clus scale="  124.522">  7  8 -1 -1</clus>
<clus scale="   35.843">  1  5  2 -1</clus>
</clustering>
</event>
<event>
 9    2  0.6469128E-005  0.1032675E+03  0.7546771E-02  0.1278350E+00
         -3   -1    0    0    0  501 -0.00000000000E+00  0.00000000000E+00  0.39991873586E+02  0.39991873586E+02  0.00000000000E+00 0.  1.
         21   -1    0    0  501  502  0.00000000000E+00 -0.00000000000E+00 -0.44404884820E+03  0.44404884820E+03  0.00000000000E+00 0.  1.
         24    2    1    2    0    0  0.47154367502E+02  0.42330028948E+02 -0.75275490588E+02  0.12691960127E+03  0.80167449613E+02 0.  0.
         23    2    1    2    0    0 -0.76431755585E+01 -0.22349604190E+02 -0.19751445062E+03  0.21858814351E+03  0.90613990838E+02 0.  0.
        -11    1    3    3    0    0  0.47162281442E+02  0.30372141106E+02 -0.57687200453E+01  0.56391718161E+02  0.00000000000E+00 0.  1.
         12    1    3    3    0    0 -0.79139399878E-02  0.11957887842E+02 -0.69506770543E+02  0.70527883107E+02  0.00000000000E+00 0. -1.
        -11    1    4    4    0    0 -0.86181773722E+01 -0.53479091730E+02 -0.16455463591E+03  0.17324120304E+03  0.00000000000E+00 0.  1.
         11    1    4    4    0    0  0.97500181376E+00  0.31129487540E+02 -0.32959814717E+02  0.45346940461E+02  0.00000000000E+00 0. -1.
         -4    1    1    2    0  502 -0.39511191943E+02 -0.19980424758E+02 -0.13126703340E+03  0.13853297702E+03  0.00000000000E+00 0.  1.
<scales pt_clust_5="13000.00000" pt_clust_6="13000.00000" pt_clust_7="13000.00000" pt_clust_8="13000.00000" pt_clust_9="44.27586"></scales>
<clustering>
<clus scale="   44.276">  2  9  1 -1</clus>
<clus scale="   80.167">  5  6 -1 -1</clus>
<clus scale="   90.614">  7  8 -1 -1</clus>
<clus scale="   94.234">  1  5  2 -1</clus>
<clus scale="   44.276">  2  5  1 -1</clus>
</clustering>
</event>
<event>
 9    2  0.6469128E-005  0.9433813E+02  0.7546771E-02  0.1299657E+00
         21   -1    0    0  501  502  0.00000000000E+00  0.00000000000E+00  0.18959922909E+02  0.18959922909E+02  0.00000000000E+00 0. -1.
          2   -1    0    0  502    0 -0.00000000000E+00 -0.00000000000E+00 -0.86897926248E+03  0.86897926248E+03  0.00000000000E+00 0. -1.
         24    2    1    2    0    0 -0.23345109584E+02  0.12043380569E+02 -0.52790301327E+03  0.53474180020E+03  0.81099718251E+02 0.  0.
         23    2    1    2    0    0  0.21546835122E+01  0.21548165159E+02 -0.27782354882E+03  0.29370556862E+03  0.92779688943E+02 0.  0.
        -11    1    3    3    0    0  0.21562512339E+02  0.27322351878E+02 -0.15662352198E+03  0.16044432208E+03  0.00000000000E+00 0.  1.
         12    1    3    3    0    0 -0.44907621923E+02 -0.15278971309E+02 -0.37127949129E+03  0.37429747812E+03  0.00000000000E+00 0. -1.
        -11    1    4    4    0    0  0.36645082029E+02 -0.16413722323E+02 -0.82388947112E+02  0.91652664575E+02  0.00000000000E+00 0.  1.
         11    1    4    4    0    0 -0.34490398517E+02  0.37961887482E+02 -0.19543460171E+03  0.20205290405E+03  0.00000000000E+00 0. -1.
          1    1    1    2  501    0  0.21190426072E+02 -0.33591545729E+02 -0.44292777488E+02  0.59491816573E+02  0.00000000000E+00 0. -1.
<scales pt_clust_5="13000.00000" pt_clust_6="13000.00000" pt_clust_7="13000.00000" pt_clust_8="13000.00000" pt_clust_9="39.71682"></scales>
<clustering>
<clus scale="   39.717">  1  9  2 -1</clus>
<clus scale="   81.100">  5  6 -1 -1</clus>
<clus scale="   82.878">  2  5  1 -1</clus>
<clus scale="   92.780">  7  8 -1 -1</clus>
<clus scale="   39.717">  1  5  2 -1</clus>
</clustering>
</event>
<event>
 9    2  0.6469128E-005  0.2248828E+03  0.7546771E-02  0.1159761E+00
          2   -1    0    0  502    0 -0.00000000000E+00  0.00000000000E+00  0.36252308451E+03  0.36252308451E+03  0.00000000000E+00 0. -1.
         21   -1    0    0  501  502  0.00000000000E+00 -0.00000000000E+00 -0.28905504634E+03  0.28905504634E+03  0.00000000000E+00 0. -1.
         24    2    1    2    0    0  0.76259350109E+02  0.14090311024E+02 -0.88568679001E+02  0.14213764120E+03  0.79653454425E+02 0.  0.
         23    2    1    2    0    0  0.33130597997E+02 -0.19551631501E+03  0.19776958480E+03  0.29459544433E+03  0.91375057819E+02 0.  0.
        -11    1    3    3    0    0  0.57653307419E+02  0.26658696177E+02 -0.15064286075E+02  0.65280338948E+02  0.00000000000E+00 0.  1.
         12    1    3    3    0    0  0.18606042690E+02 -0.12568385153E+02 -0.73504392926E+02  0.76857302251E+02  0.00000000000E+00 0. -1.
        -11    1    4    4    0    0  0.24638138203E+02 -0.92776339712E+02  0.15641121142E+03  0.18351826645E+03  0.00000000000E+00 0. -1.
         11    1    4    4    0    0  0.84924597948E+01 -0.10273997529E+03  0.41358373383E+02  0.11107717788E+03  0.00000000000E+00 0.  1.
          1    1    1    2  501    0 -0.10938994811E+03  0.18142600398E+03 -0.35732867625E+02  0.21484504531E+03  0.00000000000E+00 0. -1.
<scales pt_clust_5="13000.00000" pt_clust_6="13000.00000" pt_clust_7="13000.00000" pt_clust_8="13000.00000" pt_clust_9="205.48210"></scales>
<clustering>
<clus scale="   79.653">  5  6 -1 -1</clus>
<clus scale="   91.375">  7  8 -1 -1</clus>
<clus scale="  111.170">  1  5  2 -1</clus>
<clus scale="  205.482">  2  9  1 -1</clus>
<clus scale="  205.482">  2  5  1 -1</clus>
</clustering>
</event>
<event>
 9    2  0.6469128E-005  0.9728972E+02  0.7546771E-02  0.1291986E+00
          2   -1    0    0  502    0 -0.00000000000E+00  0.00000000000E+00  0.12907691261E+03  0.12907691261E+03  0.00000000000E+00 0. -1.
         21   -1    0    0  501  502  0.00000000000E+00 -0.00000000000E+00 -0.10011498229E+03  0.10011498229E+03  0.00000000000E+00 0. -1.
         23    2    1    2    0    0 -0.20148993560E+02  0.20434594835E+02  0.47091337388E+02  0.10610595795E+03  0.90649465786E+02 0.  0.
         24    2    1    2    0    0  0.40068889559E+02 -0.22435138279E+02  0.55274446411E+01  0.92094792025E+02  0.79636968387E+02 0.  0.
        -13    1    4    4    0    0 -0.23710302389E+02 -0.13521567736E+01  0.74617433000E+01  0.24893460595E+02  0.00000000000E+00 0.  1.
         14    1    4    4    0    0  0.63779191948E+02 -0.21082981505E+02 -0.19342986589E+01  0.67201331430E+02  0.00000000000E+00 0. -1.
        -13    1    3    3    0    0 -0.24782295702E+02 -0.25872136489E+02 -0.50908560933E+01  0.36186274229E+02  0.00000000000E+00 0. -1.
         13    1    3    3    0    0  0.46333021426E+01  0.46306731324E+02  0.52182193481E+02  0.69919683718E+02  0.00000000000E+00 0.  1.
          1    1    1    2  501    0 -0.19919895999E+02  0.20005434440E+01 -0.23656851708E+02  0.30991144920E+02  0.00000000000E+00 0. -1.
<scales pt_clust_5="13000.00000" pt_clust_6="13000.00000" pt_clust_7="13000.00000" pt_clust_8="13000.00000" pt_clust_9="20.02010"></scales>
<clustering>
<clus scale="   20.020">  2  9  1 -1</clus>
<clus scale="   79.637">  5  6 -1 -1</clus>
<clus scale="   87.121">  2  5  1 -1</clus>
<clus scale="   90.649">  7  8 -1 -1</clus>
<clus scale="   20.020">  2  5  1 -1</clus>
</clustering>
</event>
<event>
 9    2  0.6469128E-005  0.1106495E+03  0.7546771E-02  0.1264721E+00
         21   -1    0    0  501  502  0.00000000000E+00  0.00000000000E+00  0.38291845545E+03  0.38291845545E+03  0.00000000000E+00 0. -1.
          2   -1    0    0  502    0 -0.00000000000E+00 -0.00000000000E+00 -0.44283832205E+02  0.44283832205E+02  0.00000000000E+00 0. -1.
         23    2    1    2    0    0 -0.46757600392E+02  0.34816492578E+02  0.86971281353E+02  0.13907983159E+03  0.91546351242E+02 0.  0.
         24    2    1    2    0    0  0.43856113351E+02 -0.57766668888E+02  0.23928853308E+03  0.26188764879E+03  0.77883193368E+02 0.  0.
        -13    1    4    4    0    0  0.39684058631E+01 -0.25704931972E+02  0.11530170009E+02  0.28450599172E+02  0.00000000000E+00 0.  1.
         14    1    4    4    0    0  0.39887707487E+02 -0.32061736916E+02  0.22775836307E+03  0.23343704962E+03  0.00000000000E+00 0. -1.
        -11    1    3    3    0    0  0.43264306673E+01 -0.26169499326E+02  0.35545553462E+02  0.44351404354E+02  0.00000000000E+00 0.  1.
         11    1    3    3    0    0 -0.51084031059E+02  0.60985991904E+02  0.51425727892E+02  0.94728427238E+02  0.00000000000E+00 0. -1.
          1    1    1    2  501    0  0.29014870411E+01  0.22950176311E+02  0.12374808808E+02  0.26234807275E+02  0.00000000000E+00 0. -1.
<scales pt_clust_5="13000.00000" pt_clust_6="13000.00000" pt_clust_7="13000.00000" pt_clust_8="13000.00000" pt_clust_9="23.13287"></scales>
<clustering>
<clus scale="   23.133">  1  9  2 -1</clus>
<clus scale="   77.883">  5  6 -1 -1</clus>
<clus scale="   91.546">  7  8 -1 -1</clus>
<clus scale="   99.641">  1  5  2 -1</clus>
<clus scale="   23.133">  1  5  2 -1</clus>
</clustering>
</event>
<event>
 9    2  0.6469128E-005  0.9481295E+02  0.7546771E-02  0.1298336E+00
         21   -1    0    0  501  502  0.00000000000E+00  0.00000000000E+00  0.77323257406E+02  0.77323257406E+02  0.00000000000E+00 0.  1.
          2   -1    0    0  502    0 -0.00000000000E+00 -0.00000000000E+00 -0.35157598203E+03  0.35157598203E+03  0.00000000000E+00 0. -1.
         24    2    1    2    0    0  0.40586486391E+01 -0.22787754479E+02 -0.29045813504E+03  0.30212914481E+03  0.79877015136E+02 0.  0.
         23    2    1    2    0    0  0.49379629247E+01  0.44067665074E+02  0.19199028872E+02  0.10347341319E+03  0.91497551578E+02 0.  0.
        -11    1    3    3    0    0  0.15627918959E+02  0.25596254483E+02 -0.70467841247E+02  0.76584050197E+02  0.00000000000E+00 0.  1.
         12    1    3    3    0    0 -0.11569270320E+02 -0.48384008962E+02 -0.21999029380E+03  0.22554509461E+03  0.00000000000E+00 0. -1.
        -11    1    4    4    0    0  0.32409625352E+02  0.12681751575E+02 -0.24885194746E+02  0.42784150757E+02  0.00000000000E+00 0. -1.
         11    1    4    4    0    0 -0.27471662427E+02  0.31385913499E+02  0.44084223618E+02  0.60689262433E+02  0.00000000000E+00 0.  1.
          1    1    1    2  501    0 -0.89966115638E+01 -0.21279910595E+02 -0.29936184541E+01  0.23296681438E+02  0.00000000000E+00 0. -1.
<scales pt_clust_5="13000.00000" pt_clust_6="13000.00000" pt_clust_7="13000.00000" pt_clust_8="13000.00000" pt_clust_9="23.10354"></scales>
<clustering>
<clus scale="   23.104">  1  9  2 -1</clus>
<clus scale="   79.877">  5  6 -1 -1</clus>
<clus scale="   83.654">  2  5  1 -1</clus>
<clus scale="   91.498">  7  8 -1 -1</clus>
<clus scale="   23.104">  1  5  2 -1</clus>
</clustering>
</event>
<event>
 9    2  0.6469128E-005  0.9171810E+02  0.7546771E-02  0.1303258E+00
          2   -1    0    0  502    0 -0.00000000000E+00  0.00000000000E+00  0.59918966430E+03  0.59918966430E+03  0.00000000000E+00 0. -1.
         21   -1    0    0  501  502  0.00000000000E+00 -0.00000000000E+00 -0.35014251551E+02  0.35014251551E+02  0.00000000000E+00 0. -1.
         23    2    1    2    0    0  0.23695267836E+02 -0.33168046013E+02  0.37023959738E+03  0.38313224407E+03  0.89729437661E+02 0.  0.
         24    2    1    2    0    0  0.11391908786E+01 -0.26692727183E+02  0.14878103590E+03  0.17208422584E+03  0.82239799973E+02 0.  0.
        -11    1    4    4    0    0  0.75170593337E+01 -0.22976812564E+02  0.10804686104E+01  0.24199328690E+02  0.00000000000E+00 0.  1.
         12    1    4    4    0    0 -0.63778684550E+01 -0.37159146183E+01  0.14770056729E+03  0.14788489715E+03  0.00000000000E+00 0. -1.
        -13    1    3    3    0    0  0.46692390943E+02  0.64131064261E+01  0.25142203716E+03  0.25580138404E+03  0.00000000000E+00 0.  1.
         13    1    3    3    0    0 -0.22997123107E+02 -0.39581152439E+02  0.11881756022E+03  0.12733086003E+03  0.00000000000E+00 0. -1.
          1    1    1    2  501    0 -0.24834458715E+02  0.59860773195E+02  0.45154779466E+02  0.78987445938E+02  0.00000000000E+00 0. -1.
<scales pt_clust_5="13000.00000" pt_clust_6="13000.00000" pt_clust_7="13000.00000" pt_clust_8="13000.00000" pt_clust_9="64.80789"></scales>
<clustering>
<clus scale="   64.808">  2  9  1 -1</clus>
<clus scale="   82.240">  5  6 -1 -1</clus>
<clus scale="   84.405">  2  5  1 -1</clus>
<clus scale="   89.729">  7  8 -1 -1</clus>
<clus scale="   64.808">  2  5  1 -1</clus>
</clustering>
</event>
<event>
 9    2  0.6469128E-005  0.2298251E+03  0.7546771E-02  0.1139813E+00
          2   -1    0    0  502    0 -0.00000000000E+00  0.00000000000E+00  0.17345525865E+04  0.17345525865E+04  0.00000000000E+00 0. -1.
         21   -1    0    0  501  502  0.00000000000E+00 -0.00000000000E+00 -0.79308331194E+02  0.79308331194E+02  0.00000000000E+00 0. -1.
         24    2    1    2    0    0 -0.10969039104E+03 -0.99152400691E+02  0.90905673737E+03  0.92429055159E+03  0.77882549746E+02 0.  0.
         23    2    1    2    0    0  0.23978219248E+03 -0.34106555876E+02  0.25046568964E+03  0.36002154177E+03  0.90684573458E+02 0.  0.
        -11    1    3    3    0    0 -0.81560315218E+02 -0.21288069498E+02  0.44892232373E+03  0.45676746783E+03  0.00000000000E+00 0.  1.
         12    1    3    3    0    0 -0.28130075824E+02 -0.77864331192E+02  0.46013441364E+03  0.46752308377E+03  0.00000000000E+00 0. -1.
        -13    1    4    4    0    0  0.82829472695E+02  0.11016876770E+02  0.13939075897E+03  0.16251731233E+03  0.00000000000E+00 0.  1.
         13    1    4    4    0    0  0.15695271979E+03 -0.45123432645E+02  0.11107493068E+03  0.19750422944E+03  0.00000000000E+00 0. -1.
          1    1    1    2  501    0 -0.13009180144E+03  0.13325895657E+03  0.49572182830E+03  0.52954882435E+03  0.00000000000E+00 0. -1.
<scales pt_clust_5="13000.00000" pt_clust_6="13000.00000" pt_clust_7="13000.00000" pt_clust_8="13000.00000" pt_clust_9="211.17749"></scales>
<clustering>
<clus scale="   77.883">  5  6 -1 -1</clus>
<clus scale="   90.685">  7  8 -1 -1</clus>
<clus scale="  167.119">  1  5  2 -1</clus>
<clus scale="  211.177">  2  9  1 -1</clus>
<clus scale="  211.177">  2  5  1 -1</clus>
</clustering>
</event>
<event>
 9    2  0.6469128E-005  0.9823808E+02  0.7546771E-02  0.1292832E+00
         21   -1    0    0  501  502  0.00000000000E+00  0.00000000000E+00  0.96409241075E+02  0.96409241075E+02  0.00000000000E+00 0. -1.
          2   -1    0    0  502    0 -0.00000000000E+00 -0.00000000000E+00 -0.42992903657E+03  0.42992903657E+03  0.00000000000E+00 0. -1.
         24    2    1    2    0    0 -0.66519396787E+01  0.65066140105E+01 -0.21328807799E+03  0.22812906534E+03  0.80402001927E+02 0.  0.
         23    2    1    2    0    0  0.95997630406E+01 -0.46598941798E+02 -0.18979873365E+03  0.21786212682E+03  0.95795251344E+02 0.  0.
        -13    1    3    3    0    0 -0.39274910327E+02  0.17208246850E+02 -0.15140387642E+03  0.15735874979E+03  0.00000000000E+00 0.  1.
         14    1    3    3    0    0  0.32622970648E+02 -0.10701632839E+02 -0.61884201578E+02  0.70770315558E+02  0.00000000000E+00 0. -1.
        -13    1    4    4    0    0 -0.13574623161E+02  0.26566657875E+02 -0.61641677744E+02  0.68481779618E+02  0.00000000000E+00 0.  1.
         13    1    4    4    0    0  0.23174386202E+02 -0.73165599673E+02 -0.12815705591E+03  0.14938034720E+03  0.00000000000E+00 0. -1.
          1    1    1    2  501    0 -0.29478233618E+01  0.40092327788E+02  0.69567016147E+02  0.80347085483E+02  0.00000000000E+00 0. -1.
<scales pt_clust_5="13000.00000" pt_clust_6="13000.00000" pt_clust_7="13000.00000" pt_clust_8="13000.00000" pt_clust_9="40.20055"></scales>
<clustering>
<clus scale="   40.201">  1  9  2 -1</clus>
<clus scale="   80.402">  5  6 -1 -1</clus>
<clus scale="   83.297">  2  5  1 -1</clus>
<clus scale="   95.795">  7  8 -1 -1</clus>
<clus scale="   40.201">  1  5  2 -1</clus>
</clustering>
</event>
<event>
 9    2  0.6469128E-005  0.9144104E+02  0.7546771E-02  0.1303855E+00
         21   -1    0    0  501  502  0.00000000000E+00  0.00000000000E+00  0.16554051849E+03  0.16554051849E+03  0.00000000000E+00 0.  1.
          2   -1    0    0  502    0 -0.00000000000E+00 -0.00000000000E+00 -0.88226435995E+02  0.88226435995E+02  0.00000000000E+00 0. -1.
         24    2    1    2    0    0  0.19910481265E+02 -0.37178787388E+02  0.16602165625E+02  0.93332855270E+02  0.81588605048E+02 0.  0.
         23    2    1    2    0    0 -0.13283033259E+02 -0.18957208063E+02  0.38839467828E+02  0.99824058137E+02  0.88997323621E+02 0.  0.
        -11    1    3    3    0    0 -0.26455335644E+02  0.21070703693E+01 -0.80777325182E+01  0.27741202069E+02  0.00000000000E+00 0.  1.
         12    1    3    3    0    0  0.46365816909E+02 -0.39285857757E+02  0.24679898144E+02  0.65591653202E+02  0.00000000000E+00 0. -1.
        -13    1    4    4    0    0 -0.49208026618E+02  0.73883887580E+00  0.11407576008E+02  0.50518398202E+02  0.00000000000E+00 0.  1.
         13    1    4    4    0    0  0.35924993359E+02 -0.19696046938E+02  0.27431891819E+02  0.49305659935E+02  0.00000000000E+00 0. -1.
          1    1    1    2  501    0 -0.66274480059E+01  0.56135995450E+02  0.21872449042E+02  0.60610041077E+02  0.00000000000E+00 0. -1.
<scales pt_clust_5="13000.00000" pt_clust_6="13000.00000" pt_clust_7="13000.00000" pt_clust_8="13000.00000" pt_clust_9="56.52586"></scales>
<clustering>
<clus scale="   56.526">  1  9  2 -1</clus>
<clus scale="   81.589">  5  6 -1 -1</clus>
<clus scale="   84.248">  2  5  1 -1</clus>
<clus scale="   88.997">  7  8 -1 -1</clus>
<clus scale="   56.526">  1  5  2 -1</clus>
</clustering>
</event>
<event>
 9    2  0.6469128E-005  0.9662356E+02  0.7546771E-02  0.1293231E+00
          2   -1    0    0  502    0 -0.00000000000E+00  0.00000000000E+00  0.60758009199E+03  0.60758009199E+03  0.00000000000E+00 0. -1.
         21   -1    0    0  501  502  0.00000000000E+00 -0.00000000000E+00 -0.38692777709E+02  0.38692777709E+02  0.00000000000E+00 0. -1.
         24    2    1    2    0    0 -0.67895590808E+01 -0.16011604771E+02  0.38701857367E+03  0.39616650971E+03  0.82837536477E+02 0.  0.
         23    2    1    2    0    0  0.29280655016E+02  0.46945778112E+02  0.18214140735E+03  0.21185917939E+03  0.92992240430E+02 0.  0.
        -11    1    3    3    0    0 -0.86633385052E+01  0.33345197933E+02  0.18640149501E+03  0.18955862682E+03  0.00000000000E+00 0.  1.
         12    1    3    3    0    0  0.18737794244E+01 -0.49356802704E+02  0.20061707866E+03  0.20660788289E+03  0.00000000000E+00 0. -1.
        -11    1    4    4    0    0 -0.11774209842E+02 -0.22385708426E+02  0.64379933477E+02  0.69170281145E+02  0.00000000000E+00 0.  1.
         11    1    4    4    0    0  0.41054864858E+02  0.69331486538E+02  0.11776147387E+03  0.14268889825E+03  0.00000000000E+00 0. -1.
          1    1    1    2  501    0 -0.22491095935E+02 -0.30934173340E+02 -0.27266673790E+00  0.38247180599E+02  0.00000000000E+00 0. -1.
<scales pt_clust_5="13000.00000" pt_clust_6="13000.00000" pt_clust_7="13000.00000" pt_clust_8="13000.00000" pt_clust_9="38.24621"></scales>
<clustering>
<clus scale="   38.246">  2  9  1 -1</clus>
<clus scale="   82.838">  5  6 -1 -1</clus>
<clus scale="   86.894">  1  5  2 -1</clus>
<clus scale="   92.992">  7  8 -1 -1</clus>
<clus scale="   38.246">  2  5  1 -1</clus>
</clustering>
</event>
<event>
 9    2  0.6469128E-005  0.1772643E+03  0.7546771E-02  0.1171997E+00
         21   -1    0    0  501  502  0.00000000000E+00  0.00000000000E+00  0.19874249503E+03  0.19874249503E+03  0.00000000000E+00 0. -1.
          2   -1    0    0  502    0 -0.00000000000E+00 -0.00000000000E+00 -0.73424333649E+03  0.73424333649E+03  0.00000000000E+00 0. -1.
         23    2    1    2    0    0  0.10654992645E+03 -0.11637768977E+03 -0.65574311804E+03  0.68072351456E+03  0.92134754097E+02 0.  0.
         24    2    1    2    0    0 -0.18927623471E+02  0.10243573373E+03  0.87119251779E+02  0.15755655742E+03  0.79893493356E+02 0.  0.
        -11    1    4    4    0    0 -0.18803061295E+02 -0.70047433514E+01  0.48521098925E+01  0.20643752418E+02  0.00000000000E+00 0.  1.
         12    1    4    4    0    0 -0.12456217533E+00  0.10944047708E+03  0.82267141886E+02  0.13691280500E+03  0.00000000000E+00 0. -1.
        -13    1    3    3    0    0  0.37125731947E+02 -0.96570470996E+02 -0.28948304849E+03  0.30741602301E+03  0.00000000000E+00 0.  1.
         13    1    3    3    0    0  0.69424194504E+02 -0.19807218774E+02 -0.36626006955E+03  0.37330749155E+03  0.00000000000E+00 0. -1.
          1    1    1    2  501    0 -0.87622302981E+02  0.13941956044E+02  0.33123024805E+02  0.94705759541E+02  0.00000000000E+00 0. -1.
<scales pt_clust_5="13000.00000" pt_clust_6="13000.00000" pt_clust_7="13000.00000" pt_clust_8="13000.00000" pt_clust_9="88.72455"></scales>
<clustering>
<clus scale="   79.893">  5  6 -1 -1</clus>
<clus scale="   88.725">  1  9  2 -1</clus>
<clus scale="   92.135">  7  8 -1 -1</clus>
<clus scale="  171.221">  1  5  2 -1</clus>
<clus scale="   88.725">  1  5  2 -1</clus>
</clustering>
</event>
<event>
 9    2  0.6469128E-005  0.1040926E+03  0.7546771E-02  0.1276175E+00
          2   -1    0    0  502    0 -0.00000000000E+00  0.00000000000E+00  0.44253519243E+03  0.44253519243E+03  0.00000000000E+00 0. -1.
         21   -1    0    0  501  502  0.00000000000E+00 -0.00000000000E+00 -0.36412890868E+03  0.36412890868E+03  0.00000000000E+00 0. -1.
         24    2    1    2    0    0 -0.39559691464E+01 -0.53999373289E+02  0.40984996470E+03  0.42109378453E+03  0.80071217028E+02 0.  0.
         23    2    1    2    0    0  0.45204363679E+02  0.22848503396E+02 -0.84391987434E+02  0.13316915570E+03  0.89702440789E+02 0.  0.
        -13    1    3    3    0    0  0.29772325985E+02 -0.84531764690E+01  0.69806163822E+02  0.76359335346E+02  0.00000000000E+00 0.  1.
         14    1    3    3    0    0 -0.33728295132E+02 -0.45546196820E+02  0.34004380088E+03  0.34473444918E+03  0.00000000000E+00 0. -1.
        -13    1    4    4    0    0  0.10068092194E+02  0.54676289236E+02 -0.44596348144E+02  0.71271995572E+02  0.00000000000E+00 0.  1.
         13    1    4    4    0    0  0.35136271485E+02 -0.31827785840E+02 -0.39795639290E+02  0.61897160127E+02  0.00000000000E+00 0. -1.
          1    1    1    2  501    0 -0.41248394533E+02  0.31150869893E+02 -0.24705169352E+03  0.25240116089E+03  0.00000000000E+00 0. -1.
<scales pt_clust_5="13000.00000" pt_clust_6="13000.00000" pt_clust_7="13000.00000" pt_clust_8="13000.00000" pt_clust_9="51.68952"></scales>
<clustering>
<clus scale="   51.690">  2  9  1 -1</clus>
<clus scale="   80.071">  5  6 -1 -1</clus>
<clus scale="   89.702">  7  8 -1 -1</clus>
<clus scale="   95.917">  1  5  2 -1</clus>
<clus scale="   51.690">  2  5  1 -1</clus>
</clustering>
</event>
<event>
 9    2  0.6469128E-005  0.9849290E+02  0.7546771E-02  0.1289356E+00
         -1   -1    0    0    0  501 -0.00000000000E+00  0.00000000000E+00  0.37746099020E+03  0.37746099020E+03  0.00000000000E+00 0.  1.
         21   -1    0    0  501  502  0.00000000000E+00 -0.00000000000E+00 -0.39091299497E+02  0.39091299497E+02  0.00000000000E+00 0.  1.
         23    2    1    2    0    0 -0.52415330103E+02 -0.82557631708E-02  0.14848569360E+03  0.18190925347E+03  0.91080230537E+02 0.  0.
         24    2    1    2    0    0  0.15756852857E+02 -0.32736230720E+02  0.10793448596E+03  0.13908275303E+03  0.79838710642E+02 0.  0.
        -11    1    4    4    0    0 -0.24803877711E+02 -0.19402249801E+02  0.11336032582E+02  0.33469169120E+02  0.00000000000E+00 0.  1.
         12    1    4    4    0    0  0.40560730568E+02 -0.13333980919E+02  0.96598453374E+02  0.10561358391E+03  0.00000000000E+00 0. -1.
        -13    1    3    3    0    0  0.21131944918E+02 -0.16687426326E+02  0.22559487260E+02  0.35127763363E+02  0.00000000000E+00 0.  1.
         13    1    3    3    0    0 -0.73547275021E+02  0.16679170563E+02  0.12592620634E+03  0.14678149011E+03  0.00000000000E+00 0. -1.
         -2    1    1    2    0  502  0.36658477246E+02  0.32744486483E+02  0.81949511148E+02  0.95560283206E+02  0.00000000000E+00 0.  1.
<scales pt_clust_5="13000.00000" pt_clust_6="13000.00000" pt_clust_7="13000.00000" pt_clust_8="13000.00000" pt_clust_9="49.15331"></scales>
<clustering>
<clus scale="   49.153">  2  9  1 -1</clus>
<clus scale="   79.839">  5  6 -1 -1</clus>
<clus scale="   88.201">  2  5  1 -1</clus>
<clus scale="   91.080">  7  8 -1 -1</clus>
<clus scale="   49.153">  2  5  1 -1</clus>
</clustering>
</event>
<event>
 9    2  0.6469128E-005  0.1239600E+03  0.7546771E-02  0.1237154E+00
         21   -1    0    0  501  502  0.00000000000E+00  0.00000000000E+00  0.37754416582E+03  0.37754416582E+03  0.00000000000E+00 0. -1.
          2   -1    0    0  502    0 -0.00000000000E+00 -0.00000000000E+00 -0.75728590150E+02  0.75728590150E+02  0.00000000000E+00 0. -1.
         24    2    1    2    0    0 -0.72073442906E+02  0.62347416438E+02  0.10897739088E+02  0.12512853841E+03  0.80353026696E+02 0.  0.
         23    2    1    2    0    0  0.44203501102E+02 -0.75531402550E+02  0.24550673884E+03  0.27325597707E+03  0.82075135740E+02 0.  0.
        -13    1    3    3    0    0  0.13566375056E+02  0.19547084899E+02  0.16925582652E+02  0.29199493289E+02  0.00000000000E+00 0.  1.
         14    1    3    3    0    0 -0.85639817962E+02  0.42800331539E+02 -0.60278435639E+01  0.95929045124E+02  0.00000000000E+00 0. -1.
        -13    1    4    4    0    0  0.27208826650E+02  0.90970746310E+01  0.10037990435E+03  0.10439924431E+03  0.00000000000E+00 0.  1.
         13    1    4    4    0    0  0.16994674452E+02 -0.84628477181E+02  0.14512683449E+03  0.16885673276E+03  0.00000000000E+00 0. -1.
          1    1    1    2  501    0  0.27869941804E+02  0.13183986112E+02  0.45411097745E+02  0.54888240493E+02  0.00000000000E+00 0. -1.
<scales pt_clust_5="13000.00000" pt_clust_6="13000.00000" pt_clust_7="13000.00000" pt_clust_8="13000.00000" pt_clust_9="30.83101"></scales>
<clustering>
<clus scale="   30.831">  1  9  2 -1</clus>
<clus scale="   80.353">  5  6 -1 -1</clus>
<clus scale="   82.075">  7  8 -1 -1</clus>
<clus scale="  122.827">  2  5  1 -1</clus>
<clus scale="   30.831">  1  5  2 -1</clus>
</clustering>
</event>
<event>
 9    2  0.6469128E-005  0.1387770E+03  0.7546771E-02  0.1217281E+00
         21   -1    0    0  501  502  0.00000000000E+00  0.00000000000E+00  0.35862138709E+03  0.35862138709E+03  0.00000000000E+00 0.  1.
         -1   -1    0    0    0  501 -0.00000000000E+00 -0.00000000000E+00 -0.36928795851E+03  0.36928795851E+03  0.00000000000E+00 0.  1.
         24    2    1    2    0    0 -0.26190336780E+02 -0.11135301957E+03 -0.30843432860E+03  0.33847736709E+03  0.79685408121E+02 0.  0.
         23    2    1    2    0    0 -0.61081632182E+02  0.53986310674E+02  0.73542338792E+02  0.14207722496E+03  0.90177462408E+02 0.  0.
        -11    1    3    3    0    0  0.14704712342E+02 -0.93023252366E+02 -0.22089043403E+03  0.24012941905E+03  0.00000000000E+00 0.  1.
         12    1    3    3    0    0 -0.40895049122E+02 -0.18329767203E+02 -0.87543894572E+02  0.98347948048E+02  0.00000000000E+00 0. -1.
        -11    1    4    4    0    0  0.39930854988E+01  0.23756515817E+02 -0.14794917640E+02  0.28270238123E+02  0.00000000000E+00 0. -1.
         11    1    4    4    0    0 -0.65074717681E+02  0.30229794857E+02  0.88337256432E+02  0.11380698683E+03  0.00000000000E+00 0.  1.
         -2    1    1    2    0  502  0.87271968962E+02  0.57366708896E+02  0.22422541838E+03  0.24735475355E+03  0.00000000000E+00 0.  1.
<scales pt_clust_5="13000.00000" pt_clust_6="13000.00000" pt_clust_7="13000.00000" pt_clust_8="13000.00000" pt_clust_9="104.43819"></scales>
<clustering>
<clus scale="   79.685">  5  6 -1 -1</clus>
<clus scale="   90.177">  7  8 -1 -1</clus>
<clus scale="  104.438">  1  9  2 -1</clus>
<clus scale="  132.200">  2  5  1 -1</clus>
<clus scale="  104.438">  1  5  2 -1</clus>
</clustering>
</event>
<event>
 9    2  0.6469128E-005  0.2360759E+03  0.7546771E-02  0.1123018E+00
         21   -1    0    0  501  502  0.00000000000E+00  0.00000000000E+00  0.65722608394E+02  0.65722608394E+02  0.00000000000E+00 0. -1.
          2   -1    0    0  502    0 -0.00000000000E+00 -0.00000000000E+00 -0.14250354961E+04  0.14250354961E+04  0.00000000000E+00 0. -1.
         24    2    1    2    0    0 -0.10078856747E+03  0.14639926757E+03 -0.39092977076E+03  0.43748192150E+03  0.83506078212E+02 0.  0.
         23    2    1    2    0    0  0.16542072582E+03 -0.22434718571E+03 -0.55789628906E+03  0.63048470991E+03  0.92558218582E+02 0.  0.
        -13    1    3    3    0    0 -0.71065412602E+02  0.75147088976E+02 -0.30452990811E+03  0.32161443186E+03  0.00000000000E+00 0.  1.
         14    1    3    3    0    0 -0.29723154872E+02  0.71252178591E+02 -0.86399862653E+02  0.11586748964E+03  0.00000000000E+00 0. -1.
        -13    1    4    4    0    0  0.94979677627E+02 -0.19488375915E+03 -0.39508905931E+03  0.45066193929E+03  0.00000000000E+00 0. -1.
         13    1    4    4    0    0  0.70441048193E+02 -0.29463426553E+02 -0.16280722975E+03  0.17982277062E+03  0.00000000000E+00 0.  1.
          1    1    1    2  501    0 -0.64632158346E+02  0.77947918139E+02 -0.41048682791E+03  0.42279147309E+03  0.00000000000E+00 0. -1.
<scales pt_clust_5="13000.00000" pt_clust_6="13000.00000" pt_clust_7="13000.00000" pt_clust_8="13000.00000" pt_clust_9="101.25811"></scales>
<clustering>
<clus scale="   83.506">  5  6 -1 -1</clus>
<clus scale="   92.558">  7  8 -1 -1</clus>
<clus scale="  101.258">  1  9  2 -1</clus>
<clus scale="  232.676">  2  5  1 -1</clus>
<clus scale="  101.258">  1  5  2 -1</clus>
</clustering>
</event>
<event>
 9    2  0.6469128E-005  0.9219192E+02  0.7546771E-02  0.1303347E+00
          2   -1    0    0  502    0 -0.00000000000E+00  0.00000000000E+00  0.18755515959E+03  0.18755515959E+03  0.00000000000E+00 0. -1.
         21   -1    0    0  501  502  0.00000000000E+00 -0.00000000000E+00 -0.96184653186E+02  0.96184653186E+02  0.00000000000E+00 0.  1.
         24    2    1    2    0    0 -0.10048051631E+02  0.16776610911E+02  0.41768147417E+02  0.93053083135E+02  0.80820047804E+02 0.  0.
         23    2    1    2    0    0 -0.32893332460E+02 -0.23442790662E+02 -0.27100000550E+02  0.10252975386E+03  0.90257435388E+02 0.  0.
        -11    1    3    3    0    0  0.30547484967E+02  0.26624033392E+02  0.27238706318E+02  0.48825557997E+02  0.00000000000E+00 0.  1.
         12    1    3    3    0    0 -0.40595536598E+02 -0.98474224805E+01  0.14529441099E+02  0.44227525138E+02  0.00000000000E+00 0. -1.
        -11    1    4    4    0    0 -0.21208878761E+02 -0.53494996482E+02  0.40613208080E+01  0.57689041538E+02  0.00000000000E+00 0. -1.
         11    1    4    4    0    0 -0.11684453699E+02  0.30052205820E+02 -0.31161321358E+02  0.44840712323E+02  0.00000000000E+00 0.  1.
          1    1    1    2  501    0  0.42941384090E+02  0.66661797506E+01  0.76702359538E+02  0.88156975780E+02  0.00000000000E+00 0. -1.
<scales pt_clust_5="13000.00000" pt_clust_6="13000.00000" pt_clust_7="13000.00000" pt_clust_8="13000.00000" pt_clust_9="43.45575"></scales>
<clustering>
<clus scale="   43.456">  2  9  1 -1</clus>
<clus scale="   80.820">  5  6 -1 -1</clus>
<clus scale="   82.975">  1  5  2 -1</clus>
<clus scale="   90.257">  7  8 -1 -1</clus>
<clus scale="   43.456">  2  5  1 -1</clus>
</clustering>
</event>
<event>
 9    2  0.6469128E-005  0.5305899E+03  0.7546771E-02  0.1033021E+00
          2   -1    0    0  502    0 -0.00000000000E+00  0.00000000000E+00  0.20097039927E+04  0.20097039927E+04  0.00000000000E+00 0. -1.
         21   -1    0    0  501  502  0.00000000000E+00 -0.00000000000E+00 -0.26271276691E+03  0.26271276691E+03  0.00000000000E+00 0. -1.
         23    2    1    2    0    0  0.48328309515E+02 -0.21075206660E+03  0.18598589776E+02  0.23533692508E+03  0.91024731176E+02 0.  0.
         24    2    1    2    0    0 -0.41105620891E+03  0.45239064038E+03  0.78921679665E+03  0.10016997176E+04  0.83154516865E+02 0.  0.
        -13    1    4    4    0    0 -0.20316827799E+03  0.17631283740E+03  0.38846699849E+03  0.47251473493E+03  0.00000000000E+00 0.  1.
         14    1    4    4    0    0 -0.20788793092E+03  0.27607780298E+03  0.40074979816E+03  0.52918498264E+03  0.00000000000E+00 0. -1.
        -13    1    3    3    0    0 -0.16874848836E+02 -0.74116040041E+02 -0.20975553715E+02  0.78853799961E+02  0.00000000000E+00 0.  1.
         13    1    3    3    0    0  0.65203158350E+02 -0.13663602656E+03  0.39574143491E+02  0.15648312511E+03  0.00000000000E+00 0. -1.
          1    1    1    2  501    0  0.36272789939E+03 -0.24163857378E+03  0.93917583934E+03  0.10353801169E+04  0.00000000000E+00 0. -1.
<scales pt_clust_5="13000.00000" pt_clust_6="13000.00000" pt_clust_7="13000.00000" pt_clust_8="13000.00000" pt_clust_9="524.03363"></scales>
<clustering>
<clus scale="   83.155">  5  6 -1 -1</clus>
<clus scale="   91.025">  7  8 -1 -1</clus>
<clus scale="  234.601">  1  7  2 -1</clus>
<clus scale="  524.034">  2  9  1 -1</clus>
<clus scale="  524.034">  2  5  1 -1</clus>
</clustering>
</event>
<event>
 9    2  0.6469128E-005  0.9191375E+02  0.7546771E-02  0.1307425E+00
          2   -1    0    0  502    0 -0.00000000000E+00  0.00000000000E+00  0.31953829141E+03  0.31953829141E+03  0.00000000000E+00 0. -1.
         21   -1    0    0  501  502  0.00000000000E+00 -0.00000000000E+00 -0.53479861054E+02  0.53479861054E+02  0.00000000000E+00 0. -1.
         23    2    1    2    0    0 -0.25891910543E+02  0.95618849412E+01  0.18331443309E+03  0.20619902582E+03  0.90288627163E+02 0.  0.
         24    2    1    2    0    0 -0.29654392565E+02 -0.25226232682E+02  0.35770564844E+02  0.92406312343E+02  0.75786855311E+02 0.  0.
        -11    1    4    4    0    0  0.24937551631E+02 -0.55729199520E+01  0.28902115684E+01  0.25715603066E+02  0.00000000000E+00 0.  1.
         12    1    4    4    0    0 -0.54591944196E+02 -0.19653312730E+02  0.32880353275E+02  0.66690709277E+02  0.00000000000E+00 0. -1.
        -11    1    3    3    0    0  0.12760392864E+02  0.15966499404E+02  0.18155672244E+01  0.20519576350E+02  0.00000000000E+00 0.  1.
         11    1    3    3    0    0 -0.38652303407E+02 -0.64046144625E+01  0.18149886586E+03  0.18567944947E+03  0.00000000000E+00 0. -1.
          1    1    1    2  501    0  0.55546303108E+02  0.15664347741E+02  0.46973432431E+02  0.74412814310E+02  0.00000000000E+00 0. -1.
<scales pt_clust_5="13000.00000" pt_clust_6="13000.00000" pt_clust_7="13000.00000" pt_clust_8="13000.00000" pt_clust_9="57.71277"></scales>
<clustering>
<clus scale="   57.713">  2  9  1 -1</clus>
<clus scale="   75.787">  5  6 -1 -1</clus>
<clus scale="   77.716">  2  5  1 -1</clus>
<clus scale="   90.289">  7  8 -1 -1</clus>
<clus scale="   57.713">  2  5  1 -1</clus>
</clustering>
</event>
<event>
 9    2  0.6469128E-005  0.1703753E+03  0.7546771E-02  0.1178696E+00
         21   -1    0    0  501  502  0.00000000000E+00  0.00000000000E+00  0.19461850596E+03  0.19461850596E+03  0.00000000000E+00 0. -1.
          2   -1    0    0  502    0 -0.00000000000E+00 -0.00000000000E+00 -0.30347105289E+03  0.30347105289E+03  0.00000000000E+00 0. -1.
         23    2    1    2    0    0  0.13336930049E+03  0.64099808196E+02 -0.10859942789E+03  0.20483842741E+03  0.90932886690E+02 0.  0.
         24    2    1    2    0    0 -0.77150250040E+02 -0.13354995073E+03 -0.61305120908E+02  0.18503259853E+03  0.81798497823E+02 0.  0.
        -11    1    4    4    0    0 -0.81684871551E+02 -0.13107204480E+03 -0.35175640770E+02  0.15839704818E+03  0.00000000000E+00 0.  1.
         12    1    4    4    0    0  0.45346215107E+01 -0.24779059335E+01 -0.26129480138E+02  0.26635550348E+02  0.00000000000E+00 0. -1.
        -13    1    3    3    0    0  0.14221712977E+03  0.43269806427E+02 -0.10482083073E+03  0.18189391057E+03  0.00000000000E+00 0. -1.
         13    1    3    3    0    0 -0.88478292762E+01  0.20830001769E+02 -0.37785971639E+01  0.22944516843E+02  0.00000000000E+00 0.  1.
          1    1    1    2  501    0 -0.56219050453E+02  0.69450142538E+02  0.61052001870E+02  0.10821853291E+03  0.00000000000E+00 0. -1.
<scales pt_clust_5="13000.00000" pt_clust_6="13000.00000" pt_clust_7="13000.00000" pt_clust_8="13000.00000" pt_clust_9="89.35269"></scales>
<clustering>
<clus scale="   81.798">  5  6 -1 -1</clus>
<clus scale="   89.353">  1  9  2 -1</clus>
<clus scale="   90.933">  7  8 -1 -1</clus>
<clus scale="  165.680">  1  5  2 -1</clus>
<clus scale="   89.353">  1  5  2 -1</clus>
</clustering>
</event>
<event>
 9    2  0.6469128E-005  0.3029833E+03  0.7546771E-02  0.1083759E+00
         21   -1    0    0  501  502  0.00000000000E+00  0.00000000000E+00  0.44023611753E+03  0.44023611753E+03  0.00000000000E+00 0. -1.
          2   -1    0    0  502    0 -0.00000000000E+00 -0.00000000000E+00 -0.71561120536E+03  0.71561120536E+03  0.00000000000E+00 0. -1.
         24    2    1    2    0    0 -0.66675510891E+02 -0.12761910814E+03 -0.31520432731E+03  0.35567919042E+03  0.80135248333E+02 0.  0.
         23    2    1    2    0    0 -0.35144849934E+02 -0.99235001503E+02 -0.32849787595E+03  0.35576399557E+03  0.87031144116E+02 0.  0.
        -13    1    3    3    0    0  0.14991448585E+02 -0.47070945586E+02 -0.80606516167E+02  0.94540086195E+02  0.00000000000E+00 0.  1.
         14    1    3    3    0    0 -0.81666959476E+02 -0.80548162550E+02 -0.23459781114E+03  0.26113910422E+03  0.00000000000E+00 0. -1.
        -11    1    4    4    0    0 -0.39187490235E+02 -0.58119857715E+02 -0.91877410889E+02  0.11556399043E+03  0.00000000000E+00 0.  1.
         11    1    4    4    0    0  0.40426403010E+01 -0.41115143788E+02 -0.23662046506E+03  0.24020000515E+03  0.00000000000E+00 0. -1.
          1    1    1    2  501    0  0.10182036083E+03  0.22685410964E+03  0.36832711542E+03  0.44440413690E+03  0.00000000000E+00 0. -1.
<scales pt_clust_5="13000.00000" pt_clust_6="13000.00000" pt_clust_7="13000.00000" pt_clust_8="13000.00000" pt_clust_9="248.65674"></scales>
<clustering>
<clus scale="   80.135">  5  6 -1 -1</clus>
<clus scale="   87.031">  7  8 -1 -1</clus>
<clus scale="   94.897">  5  7 -1 -1</clus>
<clus scale="  248.657">  1  9  2 -1</clus>
<clus scale="  248.657">  1  5  2 -1</clus>
</clustering>
</event>
<event>
 9    2  0.6469128E-005  0.9781860E+02  0.7546771E-02  0.1288802E+00
          2   -1    0    0  502    0 -0.00000000000E+00  0.00000000000E+00  0.13276751128E+04  0.13276751128E+04  0.00000000000E+00 0. -1.
         21   -1    0    0  501  502  0.00000000000E+00 -0.00000000000E+00 -0.17100514347E+02  0.17100514347E+02  0.00000000000E+00 0. -1.
         24    2    1    2    0    0  0.27356193574E+02 -0.37398689297E+02  0.92973233335E+03  0.93459437794E+03  0.83171006428E+02 0.  0.
         23    2    1    2    0    0  0.25549357506E+02  0.17460551130E+02  0.24509097378E+03  0.26312704224E+03  0.90601404061E+02 0.  0.
        -11    1    3    3    0    0 -0.24592886707E+02  0.89794098267E+00  0.13339531233E+03  0.13564632589E+03  0.00000000000E+00 0.  1.
         12    1    3    3    0    0  0.51949080281E+02 -0.38296630280E+02  0.79633702102E+03  0.79894805205E+03  0.00000000000E+00 0. -1.
        -13    1    4    4    0    0 -0.61359823879E+01  0.37793834145E+02  0.20331850082E+03  0.20689233180E+03  0.00000000000E+00 0.  1.
         13    1    4    4    0    0  0.31685339894E+02 -0.20333283015E+02  0.41772472955E+02  0.56234710448E+02  0.00000000000E+00 0. -1.
          1    1    1    2  501    0 -0.52905551080E+02  0.19938138167E+02  0.13575129129E+03  0.14705420693E+03  0.00000000000E+00 0. -1.
<scales pt_clust_5="13000.00000" pt_clust_6="13000.00000" pt_clust_7="13000.00000" pt_clust_8="13000.00000" pt_clust_9="56.53783"></scales>
<clustering>
<clus scale="   56.538">  2  9  1 -1</clus>
<clus scale="   83.171">  5  6 -1 -1</clus>
<clus scale="   90.601">  7  8 -1 -1</clus>
<clus scale="   90.980">  1  5  2 -1</clus>
<clus scale="   56.538">  2  5  1 -1</clus>
</clustering>
</event>
<event>
 9    2  0.6469128E-005  0.1346306E+03  0.7546771E-02  0.1224145E+00
         21   -1    0    0  501  502  0.00000000000E+00  0.00000000000E+00  0.61725647386E+02  0.61725647386E+02  0.00000000000E+00 0.  1.
          2   -1    0    0  502    0 -0.00000000000E+00 -0.00000000000E+00 -0.40164741301E+03  0.40164741301E+03  0.00000000000E+00 0. -1.
         24    2    1    2    0    0  0.10206258803E+03  0.98461575193E+01 -0.25435978753E+03  0.28609977025E+03  0.81489007413E+02 0.  0.
         23    2    1    2    0    0 -0.75054656105E+02 -0.19436209541E+02 -0.52344201070E+02  0.13340054012E+03  0.95104264229E+02 0.  0.
        -11    1    3    3    0    0  0.40559013395E+02 -0.32313624525E+02 -0.69083178326E+02  0.86381070988E+02  0.00000000000E+00 0.  1.
         12    1    3    3    0    0  0.61503574637E+02  0.42159782044E+02 -0.18527660920E+03  0.19971869926E+03  0.00000000000E+00 0. -1.
        -11    1    4    4    0    0 -0.48140513948E+01 -0.44497858691E+02 -0.35038572972E+02  0.56841324006E+02  0.00000000000E+00 0. -1.
         11    1    4    4    0    0 -0.70240604711E+02  0.25061649150E+02 -0.17305628098E+02  0.76559216115E+02  0.00000000000E+00 0.  1.
          1    1    1    2  501    0 -0.27007931926E+02  0.95900520212E+01 -0.33217777026E+02  0.43872750031E+02  0.00000000000E+00 0. -1.
<scales pt_clust_5="13000.00000" pt_clust_6="13000.00000" pt_clust_7="13000.00000" pt_clust_8="13000.00000" pt_clust_9="28.66005"></scales>
<clustering>
<clus scale="   28.660">  1  9  2 -1</clus>
<clus scale="   81.489">  5  6 -1 -1</clus>
<clus scale="   95.104">  7  8 -1 -1</clus>
<clus scale="  125.384">  2  5  1 -1</clus>
<clus scale="   28.660">  1  5  2 -1</clus>
</clustering>
</event>
<event>
 9    2  0.6469128E-005  0.3252897E+03  0.7546771E-02  0.1105735E+00
          2   -1    0    0  502    0 -0.00000000000E+00  0.00000000000E+00  0.98582298415E+03  0.98582298415E+03  0.00000000000E+00 0. -1.
         21   -1    0    0  501  502  0.00000000000E+00 -0.00000000000E+00 -0.24748649841E+03  0.24748649841E+03  0.00000000000E+00 0. -1.
         23    2    1    2    0    0 -0.35531400847E+02  0.97030529359E+02  0.31432776635E+03  0.34314474087E+03  0.90933846350E+02 0.  0.
         24    2    1    2    0    0 -0.21909674833E+03 -0.23990423394E+03 -0.44730057704E+02  0.33792889446E+03  0.81472283957E+02 0.  0.
        -11    1    4    4    0    0 -0.55346702742E+02 -0.47350017357E+02 -0.44126271102E+02  0.85161079429E+02  0.00000000000E+00 0.  1.
         12    1    4    4    0    0 -0.16375004559E+03 -0.19255421659E+03 -0.60378660195E+00  0.25276781503E+03  0.00000000000E+00 0. -1.
        -11    1    3    3    0    0  0.20832003951E+02  0.70096571177E+02  0.13973273451E+03  0.15771093422E+03  0.00000000000E+00 0.  1.
         11    1    3    3    0    0 -0.56363404797E+02  0.26933958182E+02  0.17459503184E+03  0.18543380665E+03  0.00000000000E+00 0. -1.
          1    1    1    2  501    0  0.25462814918E+03  0.14287370458E+03  0.46873877710E+03  0.55223584723E+03  0.00000000000E+00 0. -1.
<scales pt_clust_5="13000.00000" pt_clust_6="13000.00000" pt_clust_7="13000.00000" pt_clust_8="13000.00000" pt_clust_9="314.92185"></scales>
<clustering>
<clus scale="   81.472">  5  6 -1 -1</clus>
<clus scale="   90.934">  7  8 -1 -1</clus>
<clus scale="  137.646">  1  7  2 -1</clus>
<clus scale="  314.922">  2  9  1 -1</clus>
<clus scale="  314.922">  2  5  1 -1</clus>
</clustering>
</event>
<event>
 9    2  0.6469128E-005  0.2044695E+03  0.7546771E-02  0.1172674E+00
          2   -1    0    0  502    0 -0.00000000000E+00  0.00000000000E+00  0.11372810468E+03  0.11372810468E+03  0.00000000000E+00 0. -1.
         21   -1    0    0  501  502  0.00000000000E+00 -0.00000000000E+00 -0.66363246623E+03  0.66363246623E+03  0.00000000000E+00 0. -1.
         24    2    1    2    0    0 -0.61171712590E+02  0.43907920683E+02 -0.14475332763E+02  0.11080774379E+03  0.79993355387E+02 0.  0.
         23    2    1    2    0    0  0.18047440414E+03  0.83792030682E+02 -0.34403094412E+03  0.40737405367E+03  0.89466273724E+02 0.  0.
        -13    1    3    3    0    0  0.16161151496E+01  0.42977879490E+02  0.86881089346E+01  0.43877023492E+02  0.00000000000E+00 0.  1.
         14    1    3    3    0    0 -0.62787827739E+02  0.93004119342E+00 -0.23163441697E+02  0.66930720302E+02  0.00000000000E+00 0. -1.
        -13    1    4    4    0    0  0.32288411457E+02 -0.17224811703E+02 -0.38655266896E+02  0.53230304446E+02  0.00000000000E+00 0.  1.
         13    1    4    4    0    0  0.14818599268E+03  0.10101684238E+03 -0.30537567722E+03  0.35414374922E+03  0.00000000000E+00 0. -1.
          1    1    1    2  501    0 -0.11930269155E+03 -0.12769995137E+03 -0.19139808468E+03  0.25917877345E+03  0.00000000000E+00 0. -1.
<scales pt_clust_5="13000.00000" pt_clust_6="13000.00000" pt_clust_7="13000.00000" pt_clust_8="13000.00000" pt_clust_9="183.85760"></scales>
<clustering>
<clus scale="   79.993">  5  6 -1 -1</clus>
<clus scale="   89.466">  7  8 -1 -1</clus>
<clus scale="  109.858">  1  5  2 -1</clus>
<clus scale="  183.858">  2  9  1 -1</clus>
<clus scale="  183.858">  2  5  1 -1</clus>
</clustering>
</event>
<event>
 9    2  0.6469128E-005  0.1071260E+03  0.7546771E-02  0.1270299E+00
         21   -1    0    0  501  502  0.00000000000E+00  0.00000000000E+00  0.23122445687E+03  0.23122445687E+03  0.00000000000E+00 0.  1.
          2   -1    0    0  502    0 -0.00000000000E+00 -0.00000000000E+00 -0.24812217741E+03  0.24812217741E+03  0.00000000000E+00 0. -1.
         23    2    1    2    0    0  0.47774308924E+02 -0.38192513704E+02 -0.17708861646E+03  0.20824536970E+03  0.90910413183E+02 0.  0.
         24    2    1    2    0    0  0.20807264496E+02  0.28070271505E+02  0.17889150649E+03  0.19929872399E+03  0.80603522836E+02 0.  0.
        -11    1    4    4    0    0  0.30185761930E+02 -0.67420835214E+01  0.14983472041E+03  0.15299372325E+03  0.00000000000E+00 0.  1.
         12    1    4    4    0    0 -0.93784974335E+01  0.34812355027E+02  0.29056786076E+02  0.46305000742E+02  0.00000000000E+00 0. -1.
        -11    1    3    3    0    0  0.42605914084E+01 -0.59612787393E+02 -0.11348036043E+03  0.12825610810E+03  0.00000000000E+00 0.  1.
         11    1    3    3    0    0  0.43513717516E+02  0.21420273689E+02 -0.63608256029E+02  0.79989261604E+02  0.00000000000E+00 0. -1.
          1    1    1    2  501    0 -0.68581573420E+02  0.10122242198E+02 -0.18700610569E+02  0.71802540593E+02  0.00000000000E+00 0. -1.
<scales pt_clust_5="13000.00000" pt_clust_6="13000.00000" pt_clust_7="13000.00000" pt_clust_8="13000.00000" pt_clust_9="69.32458"></scales>
<clustering>
<clus scale="   69.325">  1  9  2 -1</clus>
<clus scale="   80.604">  5  6 -1 -1</clus>
<clus scale="   90.910">  7  8 -1 -1</clus>
<clus scale="   98.530">  1  5  2 -1</clus>
<clus scale="   69.325">  1  5  2 -1</clus>
</clustering>
</event>
<event>
 9    2  0.6469128E-005  0.1086576E+03  0.7546771E-02  0.1268924E+00
          2   -1    0    0  502    0 -0.00000000000E+00  0.00000000000E+00  0.32963464698E+03  0.32963464698E+03  0.00000000000E+00 0. -1.
         21   -1    0    0  501  502  0.00000000000E+00 -0.00000000000E+00 -0.17468947090E+03  0.17468947090E+03  0.00000000000E+00 0. -1.
         24    2    1    2    0    0 -0.46186406583E+01 -0.61015681533E+02  0.20109843061E+03  0.22358894132E+03  0.76204925358E+02 0.  0.
         23    2    1    2    0    0 -0.84591411302E+02  0.48251688208E+02  0.56161120921E+02  0.14439155066E+03  0.90614105518E+02 0.  0.
        -13    1    3    3    0    0 -0.11454732773E+02 -0.71879308610E+02  0.11201756289E+03  0.13358809941E+03  0.00000000000E+00 0.  1.
         14    1    3    3    0    0  0.68360921148E+01  0.10863627076E+02  0.89080867725E+02  0.90000841903E+02  0.00000000000E+00 0. -1.
        -13    1    4    4    0    0 -0.48516586512E+02  0.65796901154E+02  0.63620297116E+02  0.10358877146E+03  0.00000000000E+00 0.  1.
         13    1    4    4    0    0 -0.36074824790E+02 -0.17545212946E+02 -0.74591761947E+01  0.40802779200E+02  0.00000000000E+00 0. -1.
          1    1    1    2  501    0  0.89210051960E+02  0.12763993325E+02 -0.10231437546E+03  0.13634362589E+03  0.00000000000E+00 0. -1.
<scales pt_clust_5="13000.00000" pt_clust_6="13000.00000" pt_clust_7="13000.00000" pt_clust_8="13000.00000" pt_clust_9="90.11855"></scales>
<clustering>
<clus scale="   76.205">  5  6 -1 -1</clus>
<clus scale="   90.119">  2  9  1 -1</clus>
<clus scale="   90.614">  7  8 -1 -1</clus>
<clus scale="   96.968">  1  5  2 -1</clus>
<clus scale="   90.119">  2  5  1 -1</clus>
</clustering>
</event>
<event>
 9    2  0.6469128E-005  0.1054272E+03  0.7546771E-02  0.1270500E+00
          2   -1    0    0  502    0 -0.00000000000E+00  0.00000000000E+00  0.75396257087E+03  0.75396257087E+03  0.00000000000E+00 0. -1.
         21   -1    0    0  501  502  0.00000000000E+00 -0.00000000000E+00 -0.60595501113E+02  0.60595501113E+02  0.00000000000E+00 0.  1.
         24    2    1    2    0    0 -0.63479016257E+02  0.18019951740E+02  0.65643995169E+03  0.66466466572E+03  0.80693268092E+02 0.  0.
         23    2    1    2    0    0  0.35977538843E+02 -0.12264662074E+02 -0.12667184088E+02  0.92892972710E+02  0.83808362287E+02 0.  0.
        -11    1    3    3    0    0  0.13906433686E+02  0.14502497293E+02  0.61411541671E+02  0.64614926882E+02  0.00000000000E+00 0.  1.
         12    1    3    3    0    0 -0.77385449943E+02  0.35174544467E+01  0.59502841002E+03  0.60004973884E+03  0.00000000000E+00 0. -1.
        -13    1    4    4    0    0 -0.17153993279E+02 -0.17216007193E+02 -0.28285682888E+02  0.37292495834E+02  0.00000000000E+00 0. -1.
         13    1    4    4    0    0  0.53131532122E+02  0.49513451199E+01  0.15618498800E+02  0.55600476876E+02  0.00000000000E+00 0.  1.
          1    1    1    2  501    0  0.27501477414E+02 -0.57552896661E+01  0.49594302153E+02  0.57000433552E+02  0.00000000000E+00 0. -1.
<scales pt_clust_5="13000.00000" pt_clust_6="13000.00000" pt_clust_7="13000.00000" pt_clust_8="13000.00000" pt_clust_9="28.09725"></scales>
<clustering>
<clus scale="   28.097">  2  9  1 -1</clus>
<clus scale="   80.693">  5  6 -1 -1</clus>
<clus scale="   83.808">  7  8 -1 -1</clus>
<clus scale="  102.968">  1  5  2 -1</clus>
<clus scale="   28.097">  2  5  1 -1</clus>
</clustering>
</event>
<event>
 9    2  0.6469128E-005  0.1162072E+03  0.7546771E-02  0.1254661E+00
         21   -1    0    0  501  502  0.00000000000E+00  0.00000000000E+00  0.10126364995E+03  0.10126364995E+03  0.00000000000E+00 0.  1.
          2   -1    0    0  502    0 -0.00000000000E+00 -0.00000000000E+00 -0.48098094543E+03  0.48098094543E+03  0.00000000000E+00 0. -1.
         23    2    1    2    0    0  0.34309383907E+02 -0.55853421110E+02 -0.32488932387E+03  0.34447236218E+03  0.93869042093E+02 0.  0.
         24    2    1    2    0    0 -0.48175970273E+02  0.82414584705E+02  0.46151099742E+02  0.13244156113E+03  0.79358397304E+02 0.  0.
        -11    1    4    4    0    0 -0.68039823208E+02  0.72410398518E+02  0.47557535669E+02  0.11015626426E+03  0.00000000000E+00 0.  1.
         12    1    4    4    0    0  0.19863852935E+02  0.10004186187E+02 -0.14064359271E+01  0.22285296873E+02  0.00000000000E+00 0. -1.
        -11    1    3    3    0    0  0.45065451113E+02  0.62023870036E+01 -0.19339781771E+03  0.19867581731E+03  0.00000000000E+00 0.  1.
         11    1    3    3    0    0 -0.10756067206E+02 -0.62055808113E+02 -0.13149150616E+03  0.14579654487E+03  0.00000000000E+00 0. -1.
          1    1    1    2  501    0  0.13866586366E+02 -0.26561163596E+02 -0.10097907135E+03  0.10533067208E+03  0.00000000000E+00 0. -1.
<scales pt_clust_5="13000.00000" pt_clust_6="13000.00000" pt_clust_7="13000.00000" pt_clust_8="13000.00000" pt_clust_9="29.96295"></scales>
<clustering>
<clus scale="   29.963">  1  9  2 -1</clus>
<clus scale="   79.358">  5  6 -1 -1</clus>
<clus scale="   93.869">  7  8 -1 -1</clus>
<clus scale="  104.835">  1  5  2 -1</clus>
<clus scale="   29.963">  1  5  2 -1</clus>
</clustering>
</event>
<event>
 9    2  0.6469128E-005  0.3039820E+03  0.7546771E-02  0.1108444E+00
          2   -1    0    0  502    0 -0.00000000000E+00  0.00000000000E+00  0.22240310510E+04  0.22240310510E+04  0.00000000000E+00 0. -1.
         21   -1    0    0  501  502  0.00000000000E+00 -0.00000000000E+00 -0.89046337284E+02  0.89046337284E+02  0.00000000000E+00 0. -1.
         23    2    1    2    0    0 -0.11832202782E+03 -0.50256654482E+02  0.95396704389E+02  0.18402102518E+03  0.90759974175E+02 0.  0.
         24    2    1    2    0    0 -0.20970806767E+03  0.14037937654E+03  0.10371048536E+04  0.10704259620E+04  0.80879044328E+02 0.  0.
        -13    1    4    4    0    0 -0.69788212141E+02  0.83623711529E+02  0.54086499187E+03  0.55172299128E+03  0.00000000000E+00 0.  1.
         14    1    4    4    0    0 -0.13991985553E+03  0.56755665011E+02  0.49623986171E+03  0.51870297072E+03  0.00000000000E+00 0. -1.
        -13    1    3    3    0    0 -0.76752211007E+02 -0.43009458812E+01  0.94799521192E+02  0.12205060118E+03  0.00000000000E+00 0.  1.
         13    1    3    3    0    0 -0.41569816809E+02 -0.45955708600E+02  0.59718319640E+00  0.61970423996E+02  0.00000000000E+00 0. -1.
          1    1    1    2  501    0  0.32803009549E+03 -0.90122722059E+02  0.10024831557E+04  0.10586304011E+04  0.00000000000E+00 0. -1.
<scales pt_clust_5="13000.00000" pt_clust_6="13000.00000" pt_clust_7="13000.00000" pt_clust_8="13000.00000" pt_clust_9="293.02513"></scales>
<clustering>
<clus scale="   80.879">  5  6 -1 -1</clus>
<clus scale="   90.760">  7  8 -1 -1</clus>
<clus scale="  157.363">  1  7  2 -1</clus>
<clus scale="  293.025">  2  9  1 -1</clus>
<clus scale="  293.025">  2  5  1 -1</clus>
</clustering>
</event>
<event>
 9    2  0.6469128E-005  0.9191516E+02  0.7546771E-02  0.1301666E+00
         21   -1    0    0  501  502  0.00000000000E+00  0.00000000000E+00  0.84937636016E+02  0.84937636016E+02  0.00000000000E+00 0. -1.
          2   -1    0    0  502    0 -0.00000000000E+00 -0.00000000000E+00 -0.40366915531E+03  0.40366915531E+03  0.00000000000E+00 0. -1.
         24    2    1    2    0    0  0.12739623662E+02 -0.16043245189E+02 -0.35018557518E+03  0.36079538821E+03  0.84401963043E+02 0.  0.
         23    2    1    2    0    0 -0.86636033318E+01 -0.10899364840E+02  0.73859880112E+01  0.91454972205E+02  0.90086652427E+02 0.  0.
        -13    1    3    3    0    0 -0.68167310102E+01  0.26975662690E+02 -0.52836370838E+02  0.59714623691E+02  0.00000000000E+00 0.  1.
         14    1    3    3    0    0  0.19556354672E+02 -0.43018907879E+02 -0.29734920434E+03  0.30108076452E+03  0.00000000000E+00 0. -1.
        -11    1    4    4    0    0  0.21438451729E+02  0.30412923662E+02 -0.80275928630E+01  0.38065672007E+02  0.00000000000E+00 0.  1.
         11    1    4    4    0    0 -0.30102055061E+02 -0.41312288502E+02  0.15413580874E+02  0.53389300197E+02  0.00000000000E+00 0. -1.
          1    1    1    2  501    0 -0.40760203301E+01  0.26942610029E+02  0.24068067876E+02  0.36356430906E+02  0.00000000000E+00 0. -1.
<scales pt_clust_5="13000.00000" pt_clust_6="13000.00000" pt_clust_7="13000.00000" pt_clust_8="13000.00000" pt_clust_9="27.24919"></scales>
<clustering>
<clus scale="   27.249">  1  9  2 -1</clus>
<clus scale="   84.402">  5  6 -1 -1</clus>
<clus scale="   86.351">  2  5  1 -1</clus>
<clus scale="   90.087">  7  8 -1 -1</clus>
<clus scale="   27.249">  1  5  2 -1</clus>
</clustering>
</event>
<event>
 9    2  0.6469128E-005  0.2119550E+03  0.7546771E-02  0.1141042E+00
         21   -1    0    0  501  502  0.00000000000E+00  0.00000000000E+00  0.15347289625E+04  0.15347289625E+04  0.00000000000E+00 0. -1.
          4   -1    0    0  502    0 -0.00000000000E+00 -0.00000000000E+00 -0.10067673936E+03  0.10067673936E+03  0.00000000000E+00 0. -1.
         23    2    1    2    0    0 -0.14307993105E+03  0.14357766806E+03  0.59568190384E+02  0.23049300657E+03  0.92153368550E+02 0.  0.
         24    2    1    2    0    0  0.14830331223E+03 -0.45180427550E+02  0.62049618196E+03  0.64451347133E+03  0.79667806881E+02 0.  0.
        -13    1    4    4    0    0  0.18996769570E+02 -0.40705312210E+02  0.16073279129E+03  0.16689167113E+03  0.00000000000E+00 0.  1.
         14    1    4    4    0    0  0.12930654266E+03 -0.44751153400E+01  0.45976339066E+03  0.47762180020E+03  0.00000000000E+00 0. -1.
        -11    1    3    3    0    0 -0.62035189731E+02  0.58580962733E+02  0.72993324338E+02  0.11228588227E+03  0.00000000000E+00 0. -1.
         11    1    3    3    0    0 -0.81044741323E+02  0.84996705328E+02 -0.13425133954E+02  0.11820712430E+03  0.00000000000E+00 0.  1.
          3    1    1    2  501    0 -0.52233811745E+01 -0.98397240512E+02  0.75398785082E+03  0.76039922399E+03  0.00000000000E+00 0. -1.
<scales pt_clust_5="13000.00000" pt_clust_6="13000.00000" pt_clust_7="13000.00000" pt_clust_8="13000.00000" pt_clust_9="98.53578"></scales>
<clustering>
<clus scale="   79.668">  5  6 -1 -1</clus>
<clus scale="   92.153">  7  8 -1 -1</clus>
<clus scale="   98.536">  1  9  2 -1</clus>
<clus scale="  206.832">  1  5  2 -1</clus>
<clus scale="   98.536">  1  5  2 -1</clus>
</clustering>
</event>
<event>
 9    2  0.6469128E-005  0.9402525E+02  0.7546771E-02  0.1295412E+00
          2   -1    0    0  502    0 -0.00000000000E+00  0.00000000000E+00  0.17263460349E+03  0.17263460349E+03  0.00000000000E+00 0. -1.
         21   -1    0    0  501  502  0.00000000000E+00 -0.00000000000E+00 -0.47046672938E+03  0.47046672938E+03  0.00000000000E+00 0. -1.
         24    2    1    2    0    0  0.40752482842E+02  0.23355836373E+02  0.15059630529E+03  0.17780960594E+03  0.82041141190E+02 0.  0.
         23    2    1    2    0    0 -0.34625142006E+02  0.12067097597E+02 -0.27590253808E+03  0.28906030989E+03  0.78032922098E+02 0.  0.
        -11    1    3    3    0    0  0.34239659095E+02  0.36339806523E+02  0.34220613590E+02  0.60530869708E+02  0.00000000000E+00 0.  1.
         12    1    3    3    0    0  0.65128237467E+01 -0.12983970150E+02  0.11637569170E+03  0.11727873624E+03  0.00000000000E+00 0. -1.
        -11    1    4    4    0    0  0.22136376423E+02 -0.11137636758E+02 -0.72753845003E+02  0.76858233628E+02  0.00000000000E+00 0.  1.
         11    1    4    4    0    0 -0.56761518429E+02  0.23204734355E+02 -0.20314869308E+03  0.21220207626E+03  0.00000000000E+00 0. -1.
          1    1    1    2  501    0 -0.61273408359E+01 -0.35422933970E+02 -0.17252589310E+03  0.17623141703E+03  0.00000000000E+00 0. -1.
<scales pt_clust_5="13000.00000" pt_clust_6="13000.00000" pt_clust_7="13000.00000" pt_clust_8="13000.00000" pt_clust_9="35.94897"></scales>
<clustering>
<clus scale="   35.949">  2  9  1 -1</clus>
<clus scale="   78.033">  7  8 -1 -1</clus>
<clus scale="   82.041">  5  6 -1 -1</clus>
<clus scale="   90.549">  2  7  1 -1</clus>
<clus scale="   35.949">  2  5  1 -1</clus>
</clustering>
</event>
<event>
 9    2  0.6469128E-005  0.9520943E+02  0.7546771E-02  0.1296071E+00
          2   -1    0    0  502    0 -0.00000000000E+00  0.00000000000E+00  0.52115593724E+03  0.52115593724E+03  0.00000000000E+00 0. -1.
         21   -1    0    0  501  502  0.00000000000E+00 -0.00000000000E+00 -0.65303573613E+02  0.65303573613E+02  0.00000000000E+00 0.  1.
         24    2    1    2    0    0  0.11639264463E+02  0.24444603671E+02  0.43035283713E+03  0.43873123664E+03  0.80922941486E+02 0.  0.
         23    2    1    2    0    0 -0.15825152977E+02 -0.58391930092E+02  0.76111421898E+01  0.10912857308E+03  0.90504491660E+02 0.  0.
        -13    1    3    3    0    0  0.10240667133E+02 -0.26386821305E+02  0.83407859602E+02  0.88079547259E+02  0.00000000000E+00 0.  1.
         14    1    3    3    0    0  0.13985973296E+01  0.50831424976E+02  0.34694497752E+03  0.35065168939E+03  0.00000000000E+00 0. -1.
        -13    1    4    4    0    0 -0.49445599453E+02 -0.11144143312E+02  0.35041993951E+00  0.50687099242E+02  0.00000000000E+00 0.  1.
         13    1    4    4    0    0  0.33620446476E+02 -0.47247786780E+02  0.72607222503E+01  0.58441473839E+02  0.00000000000E+00 0. -1.
          1    1    1    2  501    0  0.41858885141E+01  0.33947326421E+02  0.17888384306E+02  0.38599701124E+02  0.00000000000E+00 0. -1.
<scales pt_clust_5="13000.00000" pt_clust_6="13000.00000" pt_clust_7="13000.00000" pt_clust_8="13000.00000" pt_clust_9="34.20442"></scales>
<clustering>
<clus scale="   34.204">  2  9  1 -1</clus>
<clus scale="   80.923">  5  6 -1 -1</clus>
<clus scale="   86.153">  1  5  2 -1</clus>
<clus scale="   90.504">  7  8 -1 -1</clus>
<clus scale="   34.204">  2  5  1 -1</clus>
</clustering>
</event>
<event>
 9    2  0.6469128E-005  0.1145631E+03  0.7546771E-02  0.1255304E+00
         21   -1    0    0  501  502  0.00000000000E+00  0.00000000000E+00  0.60740516060E+02  0.60740516060E+02  0.00000000000E+00 0. -1.
          2   -1    0    0  502    0 -0.00000000000E+00 -0.00000000000E+00 -0.28403364599E+03  0.28403364599E+03  0.00000000000E+00 0. -1.
         24    2    1    2    0    0 -0.70665750383E+01  0.63899700334E+02 -0.11661145375E+03  0.15554229031E+03  0.80386968745E+02 0.  0.
         23    2    1    2    0    0  0.21557954598E+02 -0.80608425943E+02 -0.11295035841E+03  0.16624322302E+03  0.88975063901E+02 0.  0.
        -11    1    3    3    0    0 -0.35243411046E+02  0.51725903946E+02 -0.10593498602E+03  0.12304425392E+03  0.00000000000E+00 0.  1.
         12    1    3    3    0    0  0.28176836007E+02  0.12173796387E+02 -0.10676467736E+02  0.32498036390E+02  0.00000000000E+00 0. -1.
        -13    1    4    4    0    0 -0.14848101587E+01 -0.35023001293E+02 -0.10958382405E+03  0.11505402981E+03  0.00000000000E+00 0.  1.
         13    1    4    4    0    0  0.23042764757E+02 -0.45585424650E+02 -0.33665343544E+01  0.51189193212E+02  0.00000000000E+00 0. -1.
          1    1    1    2  501    0 -0.14491379560E+02  0.16708725609E+02  0.62686822277E+01  0.22988648719E+02  0.00000000000E+00 0. -1.
<scales pt_clust_5="13000.00000" pt_clust_6="13000.00000" pt_clust_7="13000.00000" pt_clust_8="13000.00000" pt_clust_9="22.11745"></scales>
<clustering>
<clus scale="   22.117">  1  9  2 -1</clus>
<clus scale="   80.387">  5  6 -1 -1</clus>
<clus scale="   88.975">  7  8 -1 -1</clus>
<clus scale="  108.029">  2  5  1 -1</clus>
<clus scale="   22.117">  1  5  2 -1</clus>
</clustering>
</event>
<event>
 9    2  0.6469128E-005  0.9084685E+02  0.7546771E-02  0.1307242E+00
         21   -1    0    0  501  502  0.00000000000E+00  0.00000000000E+00  0.28262321710E+03  0.28262321710E+03  0.00000000000E+00 0.  1.
          4   -1    0    0  502    0 -0.00000000000E+00 -0.00000000000E+00 -0.75246187675E+02  0.75246187675E+02  0.00000000000E+00 0. -1.
         23    2    1    2    0    0  0.21961911629E+01  0.23283334572E+01 -0.26622885062E+02  0.94565839981E+02  0.90684484284E+02 0.  0.
         24    2    1    2    0    0 -0.16978001080E+02  0.14979113989E+02  0.11548419252E+03  0.14262205836E+03  0.80571871225E+02 0.  0.
        -11    1    4    4    0    0  0.21264453124E+02  0.25075143561E+02  0.89371286200E+02  0.95226921552E+02  0.00000000000E+00 0.  1.
         12    1    4    4    0    0 -0.38242454204E+02 -0.10096029572E+02  0.26112906317E+02  0.47395136807E+02  0.00000000000E+00 0. -1.
        -11    1    3    3    0    0 -0.13787929564E+02  0.43929208451E+02 -0.16084588014E+02  0.48770855317E+02  0.00000000000E+00 0.  1.
         11    1    3    3    0    0  0.15984120727E+02 -0.41600874994E+02 -0.10538297048E+02  0.45794984663E+02  0.00000000000E+00 0. -1.
          3    1    1    2  501    0  0.14781809917E+02 -0.17307447447E+02  0.11851572197E+03  0.12068150643E+03  0.00000000000E+00 0. -1.
<scales pt_clust_5="13000.00000" pt_clust_6="13000.00000" pt_clust_7="13000.00000" pt_clust_8="13000.00000" pt_clust_9="22.76070"></scales>
<clustering>
<clus scale="   22.761">  1  9  2 -1</clus>
<clus scale="   80.572">  5  6 -1 -1</clus>
<clus scale="   80.755">  1  5  2 -1</clus>
<clus scale="   90.684">  7  8 -1 -1</clus>
<clus scale="   22.761">  1  5  2 -1</clus>
</clustering>
</event>
<event>
 9    2  0.6469128E-005  0.2608382E+03  0.7546771E-02  0.1139248E+00
         21   -1    0    0  501  502  0.00000000000E+00  0.00000000000E+00  0.27032600996E+03  0.27032600996E+03  0.00000000000E+00 0. -1.
          2   -1    0    0  502    0 -0.00000000000E+00 -0.00000000000E+00 -0.37364047688E+03  0.37364047688E+03  0.00000000000E+00 0. -1.
         24    2    1    2    0    0  0.51578224056E+02 -0.64222072189E+02  0.21242706555E+02  0.11781525306E+03  0.81513149357E+02 0.  0.
         23    2    1    2    0    0  0.21662705137E+03  0.15956963249E+02 -0.83059874586E+02  0.25049634751E+03  0.93099802831E+02 0.  0.
        -11    1    3    3    0    0  0.11145058723E+02 -0.56823773172E+02 -0.18349383276E+02  0.60744163490E+02  0.00000000000E+00 0.  1.
         12    1    3    3    0    0  0.40433165333E+02 -0.73982990164E+01  0.39592089831E+02  0.57071089567E+02  0.00000000000E+00 0. -1.
        -13    1    4    4    0    0  0.18595415950E+03  0.47643702394E+02 -0.62871265461E+02  0.20199422723E+03  0.00000000000E+00 0. -1.
         13    1    4    4    0    0  0.30672891877E+02 -0.31686739145E+02 -0.20188609125E+02  0.48502120285E+02  0.00000000000E+00 0.  1.
          1    1    1    2  501    0 -0.26820527543E+03  0.48265108940E+02 -0.41497298890E+02  0.27565488627E+03  0.00000000000E+00 0. -1.
<scales pt_clust_5="13000.00000" pt_clust_6="13000.00000" pt_clust_7="13000.00000" pt_clust_8="13000.00000" pt_clust_9="243.65764"></scales>
<clustering>
<clus scale="   81.513">  5  6 -1 -1</clus>
<clus scale="   93.100">  7  8 -1 -1</clus>
<clus scale="  115.884">  2  5  1 -1</clus>
<clus scale="  243.658">  1  9  2 -1</clus>
<clus scale="  243.658">  1  5  2 -1</clus>
</clustering>
</event>
<event>
 9    2  0.6469128E-005  0.1986099E+03  0.7546771E-02  0.1154594E+00
         21   -1    0    0  501  502  0.00000000000E+00  0.00000000000E+00  0.25250025883E+03  0.25250025883E+03  0.00000000000E+00 0.  1.
         -1   -1    0    0    0  501 -0.00000000000E+00 -0.00000000000E+00 -0.24039121959E+03  0.24039121959E+03  0.00000000000E+00 0.  1.
         24    2    1    2    0    0  0.14231387617E+03  0.54905695252E+02 -0.42878898589E+02  0.18084020885E+03  0.87159087133E+02 0.  0.
         23    2    1    2    0    0 -0.18634648816E+03  0.87897809896E+01  0.73284790371E+02  0.23248520002E+03  0.11779827600E+03 0.  0.
        -11    1    3    3    0    0  0.15327360410E+03  0.42905407401E+02 -0.35961858706E+02  0.16317759337E+03  0.00000000000E+00 0.  1.
         12    1    3    3    0    0 -0.10959727925E+02  0.12000287852E+02 -0.69170398832E+01  0.17662615476E+02  0.00000000000E+00 0. -1.
        -11    1    4    4    0    0 -0.58689027700E+02 -0.37036314320E+02  0.67373822259E+02  0.96722915985E+02  0.00000000000E+00 0. -1.
         11    1    4    4    0    0 -0.12765746046E+03  0.45826095309E+02  0.59109681112E+01  0.13576228404E+03  0.00000000000E+00 0.  1.
         -2    1    1    2    0  502  0.44032611989E+02 -0.63695476242E+02 -0.18296852541E+02  0.79566069559E+02  0.00000000000E+00 0.  1.
<scales pt_clust_5="13000.00000" pt_clust_6="13000.00000" pt_clust_7="13000.00000" pt_clust_8="13000.00000" pt_clust_9="77.43378"></scales>
<clustering>
<clus scale="   77.434">  1  9  2 -1</clus>
<clus scale="   87.159">  5  6 -1 -1</clus>
<clus scale="  117.798">  7  8 -1 -1</clus>
<clus scale="  182.116">  2  5  1 -1</clus>
<clus scale="   77.434">  1  5  2 -1</clus>
</clustering>
</event>
<event>
 9    2  0.6469128E-005  0.9448692E+02  0.7546771E-02  0.1301039E+00
         21   -1    0    0  501  502  0.00000000000E+00  0.00000000000E+00  0.17459570845E+03  0.17459570845E+03  0.00000000000E+00 0. -1.
          2   -1    0    0  502    0 -0.00000000000E+00 -0.00000000000E+00 -0.20973054842E+03  0.20973054842E+03  0.00000000000E+00 0. -1.
         24    2    1    2    0    0  0.21362168818E+01 -0.14785085270E+02 -0.11402759144E+03  0.14020624519E+03  0.80201854168E+02 0.  0.
         23    2    1    2    0    0  0.13535502146E+02 -0.16291128628E+02 -0.51250248592E+02  0.10940351562E+03  0.94307637859E+02 0.  0.
        -11    1    3    3    0    0  0.31679805544E+02 -0.33379098772E+02 -0.73493534038E+02  0.86712593431E+02  0.00000000000E+00 0.  1.
         12    1    3    3    0    0 -0.29543588662E+02  0.18594013502E+02 -0.40534057397E+02  0.53493651756E+02  0.00000000000E+00 0. -1.
        -11    1    4    4    0    0 -0.14449214912E+02  0.33828576747E+02 -0.32299202322E+02  0.48952945641E+02  0.00000000000E+00 0.  1.
         11    1    4    4    0    0  0.27984717058E+02 -0.50119705376E+02 -0.18951046270E+02  0.60450569976E+02  0.00000000000E+00 0. -1.
          1    1    1    2  501    0 -0.15671719028E+02  0.31076213899E+02  0.13014300006E+03  0.13471649607E+03  0.00000000000E+00 0. -1.
<scales pt_clust_5="13000.00000" pt_clust_6="13000.00000" pt_clust_7="13000.00000" pt_clust_8="13000.00000" pt_clust_9="34.80422"></scales>
<clustering>
<clus scale="   34.804">  1  9  2 -1</clus>
<clus scale="   80.202">  5  6 -1 -1</clus>
<clus scale="   80.413">  2  5  1 -1</clus>
<clus scale="   94.308">  7  8 -1 -1</clus>
<clus scale="   34.804">  1  5  2 -1</clus>
</clustering>
</event>
<event>
 9    2  0.6469128E-005  0.1013272E+03  0.7546771E-02  0.1285474E+00
         21   -1    0    0  501  502  0.00000000000E+00  0.00000000000E+00  0.29554966536E+02  0.29554966536E+02  0.00000000000E+00 0. -1.
          2   -1    0    0  502    0 -0.00000000000E+00 -0.00000000000E+00 -0.69450375703E+03  0.69450375703E+03  0.00000000000E+00 0. -1.
         23    2    1    2    0    0 -0.63505213021E+02 -0.17810461189E+02 -0.28341800144E+03  0.30645095470E+03  0.96105668335E+02 0.  0.
         24    2    1    2    0    0 -0.15336402115E+02  0.24926837860E+02 -0.15068787352E+03  0.17356864343E+03  0.81010408465E+02 0.  0.
        -13    1    4    4    0    0 -0.31764693158E+02 -0.14895284537E+02 -0.10530853336E+03  0.11099888482E+03  0.00000000000E+00 0.  1.
         14    1    4    4    0    0  0.16428291043E+02  0.39822122396E+02 -0.45379340157E+02  0.62569758605E+02  0.00000000000E+00 0. -1.
        -13    1    3    3    0    0 -0.24949817474E+02 -0.52603803538E+02 -0.98906368641E+02  0.11476987103E+03  0.00000000000E+00 0.  1.
         13    1    3    3    0    0 -0.38555395547E+02  0.34793342348E+02 -0.18451163280E+03  0.19168108367E+03  0.00000000000E+00 0. -1.
          1    1    1    2  501    0  0.78841615135E+02 -0.71163766703E+01 -0.23084291553E+03  0.24403912544E+03  0.00000000000E+00 0. -1.
<scales pt_clust_5="13000.00000" pt_clust_6="13000.00000" pt_clust_7="13000.00000" pt_clust_8="13000.00000" pt_clust_9="79.16217"></scales>
<clustering>
<clus scale="   79.162">  1  9  2 -1</clus>
<clus scale="   81.010">  5  6 -1 -1</clus>
<clus scale="   87.141">  1  5  2 -1</clus>
<clus scale="   96.106">  7  8 -1 -1</clus>
<clus scale="   79.162">  1  5  2 -1</clus>
</clustering>
</event>
<event>
 9    2  0.6469128E-005  0.1370611E+03  0.7546771E-02  0.1219799E+00
          2   -1    0    0  502    0 -0.00000000000E+00  0.00000000000E+00  0.25905815527E+03  0.25905815527E+03  0.00000000000E+00 0. -1.
         21   -1    0    0  501  502  0.00000000000E+00 -0.00000000000E+00 -0.22378901795E+03  0.22378901795E+03  0.00000000000E+00 0. -1.
         24    2    1    2    0    0  0.80960286389E+02  0.11363217388E+03 -0.36757406729E+02  0.16510702727E+03  0.80264466558E+02 0.  0.
         23    2    1    2    0    0 -0.23659132718E+02 -0.57299168037E+02 -0.86470907473E+02  0.14003738318E+03  0.91051093514E+02 0.  0.
        -11    1    3    3    0    0 -0.14111676081E+02  0.18760001313E+02 -0.17809587637E+02  0.29466225799E+02  0.00000000000E+00 0.  1.
         12    1    3    3    0    0  0.95071962469E+02  0.94872172565E+02 -0.18947819092E+02  0.13564080147E+03  0.00000000000E+00 0. -1.
        -11    1    4    4    0    0 -0.15385465267E+02 -0.77280507087E+02 -0.39103147030E+02  0.87966160680E+02  0.00000000000E+00 0. -1.
         11    1    4    4    0    0 -0.82736674515E+01  0.19981339050E+02 -0.47367760442E+02  0.52071222500E+02  0.00000000000E+00 0.  1.
          1    1    1    2  501    0 -0.57301153671E+02 -0.56333005841E+02  0.15849745152E+03  0.17770276277E+03  0.00000000000E+00 0. -1.
<scales pt_clust_5="13000.00000" pt_clust_6="13000.00000" pt_clust_7="13000.00000" pt_clust_8="13000.00000" pt_clust_9="80.35444"></scales>
<clustering>
<clus scale="   80.264">  5  6 -1 -1</clus>
<clus scale="   80.354">  2  9  1 -1</clus>
<clus scale="   91.051">  7  8 -1 -1</clus>
<clus scale="  130.145">  1  5  2 -1</clus>
<clus scale="   80.354">  2  5  1 -1</clus>
</clustering>
</event>
<event>
 9    2  0.6469128E-005  0.3093400E+03  0.7546771E-02  0.1081071E+00
         21   -1    0    0  501  502  0.00000000000E+00  0.00000000000E+00  0.11709900925E+04  0.11709900925E+04  0.00000000000E+00 0. -1.
          2   -1    0    0  502    0 -0.00000000000E+00 -0.00000000000E+00 -0.25515706577E+03  0.25515706577E+03  0.00000000000E+00 0. -1.
         23    2    1    2    0    0  0.22448925836E+03 -0.24942593605E+03 -0.63010098592E+02  0.35311104020E+03  0.90046707294E+02 0.  0.
         24    2    1    2    0    0 -0.20585260013E+03  0.57346886012E+02  0.36934775694E+03  0.43371906795E+03  0.77656332845E+02 0.  0.
        -13    1    4    4    0    0 -0.56946921450E+01  0.22454041141E+02  0.26568477944E+02  0.35249078037E+02  0.00000000000E+00 0.  1.
         14    1    4    4    0    0 -0.20015790798E+03  0.34892844871E+02  0.34277927900E+03  0.39846998991E+03  0.00000000000E+00 0. -1.
        -11    1    3    3    0    0  0.66209968187E+02 -0.21239678125E+02 -0.17472858866E+02  0.71695080801E+02  0.00000000000E+00 0.  1.
         11    1    3    3    0    0  0.15827929017E+03 -0.22818625792E+03 -0.45537239727E+02  0.28141595940E+03  0.00000000000E+00 0. -1.
          1    1    1    2  501    0 -0.18636658232E+02  0.19207905004E+03  0.60949536837E+03  0.63931705010E+03  0.00000000000E+00 0. -1.
<scales pt_clust_5="13000.00000" pt_clust_6="13000.00000" pt_clust_7="13000.00000" pt_clust_8="13000.00000" pt_clust_9="192.98105"></scales>
<clustering>
<clus scale="   77.656">  5  6 -1 -1</clus>
<clus scale="   90.047">  7  8 -1 -1</clus>
<clus scale="  192.981">  1  9  2 -1</clus>
<clus scale="  305.963">  1  5  2 -1</clus>
<clus scale="  192.981">  1  5  2 -1</clus>
</clustering>
</event>
<event>
 9    2  0.6469128E-005  0.2956848E+03  0.7546771E-02  0.1087825E+00
          2   -1    0    0  502    0 -0.00000000000E+00  0.00000000000E+00  0.15699385007E+04  0.15699385007E+04  0.00000000000E+00 0. -1.
         21   -1    0    0  501  502  0.00000000000E+00 -0.00000000000E+00 -0.73999487644E+02  0.73999487644E+02  0.00000000000E+00 0. -1.
         23    2    1    2    0    0  0.60446252884E+02 -0.28027254241E+03  0.86667143331E+03  0.91747468178E+03  0.91836653254E+02 0.  0.
         24    2    1    2    0    0 -0.12112434674E+03  0.24878037431E+03  0.44826492097E+03  0.53298061945E+03  0.81019252807E+02 0.  0.
        -11    1    4    4    0    0 -0.21206425558E+02  0.22526340800E+01  0.22929983556E+02  0.31314070178E+02  0.00000000000E+00 0.  1.
         12    1    4    4    0    0 -0.99917921178E+02  0.24652774023E+03  0.42533493742E+03  0.50166654928E+03  0.00000000000E+00 0. -1.
        -11    1    3    3    0    0  0.37960945602E+02 -0.27760235941E+02  0.15637517965E+03  0.16329378709E+03  0.00000000000E+00 0.  1.
         11    1    3    3    0    0  0.22485307282E+02 -0.25251230647E+03  0.71029625365E+03  0.75418089469E+03  0.00000000000E+00 0. -1.
          1    1    1    2  501    0  0.60678093852E+02  0.31492168102E+02  0.18100265876E+03  0.19348268709E+03  0.00000000000E+00 0. -1.
<scales pt_clust_5="13000.00000" pt_clust_6="13000.00000" pt_clust_7="13000.00000" pt_clust_8="13000.00000" pt_clust_9="68.36368"></scales>
<clustering>
<clus scale="   68.364">  2  9  1 -1</clus>
<clus scale="   81.019">  5  6 -1 -1</clus>
<clus scale="   91.837">  7  8 -1 -1</clus>
<clus scale="  292.506">  2  5  1 -1</clus>
<clus scale="   68.364">  2  5  1 -1</clus>
</clustering>
</event>
<event>
 9    2  0.6469128E-005  0.1263529E+03  0.7546771E-02  0.1242674E+00
         21   -1    0    0  501  502  0.00000000000E+00  0.00000000000E+00  0.25996308695E+02  0.25996308695E+02  0.00000000000E+00 0. -1.
          2   -1    0    0  502    0 -0.00000000000E+00 -0.00000000000E+00 -0.14655010409E+04  0.14655010409E+04  0.00000000000E+00 0. -1.
         23    2    1    2    0    0 -0.23923140443E+02  0.34978506923E+02 -0.16196915523E+03  0.19230966022E+03  0.94621274421E+02 0.  0.
         24    2    1    2    0    0 -0.85338306543E+01  0.81311400066E+02 -0.54937024040E+03  0.56108095263E+03  0.79497196930E+02 0.  0.
        -11    1    4    4    0    0 -0.41742554108E+02  0.33225483647E+02 -0.20732566645E+03  0.21408013816E+03  0.00000000000E+00 0.  1.
         12    1    4    4    0    0  0.33208723454E+02  0.48085916419E+02 -0.34204457395E+03  0.34700081447E+03  0.00000000000E+00 0. -1.
        -11    1    3    3    0    0 -0.10924348648E+02 -0.22395948209E+02 -0.11315472418E+03  0.11586592033E+03  0.00000000000E+00 0.  1.
         11    1    3    3    0    0 -0.12998791795E+02  0.57374455132E+02 -0.48814431050E+02  0.76443739891E+02  0.00000000000E+00 0. -1.
          1    1    1    2  501    0  0.32456971097E+02 -0.11628990699E+03 -0.72816533660E+03  0.73810673677E+03  0.00000000000E+00 0. -1.
<scales pt_clust_5="13000.00000" pt_clust_6="13000.00000" pt_clust_7="13000.00000" pt_clust_8="13000.00000" pt_clust_9="98.21032"></scales>
<clustering>
<clus scale="   79.497">  5  6 -1 -1</clus>
<clus scale="   94.621">  7  8 -1 -1</clus>
<clus scale="  103.677">  2  7  1 -1</clus>
<clus scale="   98.210">  1  9  2 -1</clus>
<clus scale="   98.210">  1  5  2 -1</clus>
</clustering>
</event>
<event>
 9    2  0.6469128E-005  0.1086756E+03  0.7546771E-02  0.1269227E+00
         21   -1    0    0  501  502  0.00000000000E+00  0.00000000000E+00  0.88584776588E+02  0.88584776588E+02  0.00000000000E+00 0. -1.
          4   -1    0    0  502    0 -0.00000000000E+00 -0.00000000000E+00 -0.43331596042E+03  0.43331596042E+03  0.00000000000E+00 0. -1.
         24    2    1    2    0    0  0.30883250401E+02  0.42510933440E+02 -0.20755032160E+03  0.22882487271E+03  0.80763430816E+02 0.  0.
         23    2    1    2    0    0 -0.24405565978E+02  0.53778557424E+02  0.21391063346E+02  0.10744536565E+03  0.87173184636E+02 0.  0.
        -11    1    3    3    0    0  0.28531132978E+02 -0.15017116259E+02 -0.38382066328E+02  0.50127062006E+02  0.00000000000E+00 0.  1.
         12    1    3    3    0    0  0.23521174233E+01  0.57528049699E+02 -0.16916825528E+03  0.17869781071E+03  0.00000000000E+00 0. -1.
        -11    1    4    4    0    0 -0.34620241205E+02  0.24379936646E+02 -0.26775595851E+02  0.50098652129E+02  0.00000000000E+00 0.  1.
         11    1    4    4    0    0  0.10214675226E+02  0.29398620778E+02  0.48166659197E+02  0.57346713523E+02  0.00000000000E+00 0. -1.
          3    1    1    2  501    0 -0.64776844224E+01 -0.96289490863E+02 -0.15857192557E+03  0.18563049864E+03  0.00000000000E+00 0. -1.
<scales pt_clust_5="13000.00000" pt_clust_6="13000.00000" pt_clust_7="13000.00000" pt_clust_8="13000.00000" pt_clust_9="64.89389"></scales>
<clustering>
<clus scale="   80.763">  5  6 -1 -1</clus>
<clus scale="   87.173">  7  8 -1 -1</clus>
<clus scale="   96.352">  2  5  1 -1</clus>
<clus scale="   64.894">  1  9  2 -1</clus>
<clus scale="   64.894">  1  5  2 -1</clus>
</clustering>
</event>
<event>
 9    2  0.6469128E-005  0.9452525E+02  0.7546771E-02  0.1298948E+00
         21   -1    0    0  501  502  0.00000000000E+00  0.00000000000E+00  0.38044092403E+03  0.38044092403E+03  0.00000000000E+00 0. -1.
          4   -1    0    0  502    0 -0.00000000000E+00 -0.00000000000E+00 -0.11934402767E+03  0.11934402767E+03  0.00000000000E+00 0. -1.
         24    2    1    2    0    0  0.17304401820E+02 -0.40448315753E+01 -0.92855485544E+02  0.12495749310E+03  0.81709429700E+02 0.  0.
         23    2    1    2    0    0 -0.54620876946E+00  0.21165147758E+02  0.23731686213E+03  0.25575694699E+03  0.92973442771E+02 0.  0.
        -13    1    3    3    0    0 -0.26745710245E+02 -0.19594520979E+02 -0.57493247033E+02  0.66368303604E+02  0.00000000000E+00 0.  1.
         14    1    3    3    0    0  0.44050112066E+02  0.15549689403E+02 -0.35362238511E+02  0.58589189498E+02  0.00000000000E+00 0. -1.
        -13    1    4    4    0    0  0.26528293215E+02  0.27009623890E+02  0.21968443724E+03  0.22292268187E+03  0.00000000000E+00 0. -1.
         13    1    4    4    0    0 -0.27074501984E+02 -0.58444761327E+01  0.17632424883E+02  0.32834265124E+02  0.00000000000E+00 0.  1.
          3    1    1    2  501    0 -0.16758193051E+02 -0.17120316182E+02  0.11663551978E+03  0.11907051161E+03  0.00000000000E+00 0. -1.
<scales pt_clust_5="13000.00000" pt_clust_6="13000.00000" pt_clust_7="13000.00000" pt_clust_8="13000.00000" pt_clust_9="23.95709"></scales>
<clustering>
<clus scale="   23.957">  1  9  2 -1</clus>
<clus scale="   81.709">  5  6 -1 -1</clus>
<clus scale="   83.471">  2  5  1 -1</clus>
<clus scale="   92.973">  7  8 -1 -1</clus>
<clus scale="   23.957">  1  5  2 -1</clus>
</clustering>
</event>
<event>
 9    2  0.6469128E-005  0.1151544E+03  0.7546771E-02  0.1255565E+00
          2   -1    0    0  502    0 -0.00000000000E+00  0.00000000000E+00  0.23604277203E+03  0.23604277203E+03  0.00000000000E+00 0. -1.
         21   -1    0    0  501  502  0.00000000000E+00 -0.00000000000E+00 -0.87388691107E+02  0.87388691107E+02  0.00000000000E+00 0. -1.
         24    2    1    2    0    0 -0.38110432150E+01 -0.67954493428E+02  0.11517985102E+03  0.15551962341E+03  0.79294501436E+02 0.  0.
         23    2    1    2    0    0  0.39779698502E+02  0.69140062811E+02  0.46120304569E+02  0.12976642136E+03  0.91375428435E+02 0.  0.
        -13    1    3    3    0    0 -0.12833654215E+02 -0.52789827287E+02  0.18724832472E+02  0.57463796399E+02  0.00000000000E+00 0.  1.
         14    1    3    3    0    0  0.90226109999E+01 -0.15164666141E+02  0.96455018544E+02  0.98055827010E+02  0.00000000000E+00 0. -1.
        -13    1    4    4    0    0  0.55329663053E+02  0.11380541286E+02  0.40414432824E+01  0.56632337029E+02  0.00000000000E+00 0. -1.
         13    1    4    4    0    0 -0.15549964552E+02  0.57759521525E+02  0.42078861287E+02  0.73134084335E+02  0.00000000000E+00 0.  1.
          1    1    1    2  501    0 -0.35968655287E+02 -0.11855693824E+01 -0.12646074660E+02  0.38145418364E+02  0.00000000000E+00 0. -1.
<scales pt_clust_5="13000.00000" pt_clust_6="13000.00000" pt_clust_7="13000.00000" pt_clust_8="13000.00000" pt_clust_9="35.98819"></scales>
<clustering>
<clus scale="   35.988">  2  9  1 -1</clus>
<clus scale="   79.295">  5  6 -1 -1</clus>
<clus scale="   91.375">  7  8 -1 -1</clus>
<clus scale="  105.824">  1  5  2 -1</clus>
<clus scale="   35.988">  2  5  1 -1</clus>
</clustering>
</event>
<event>
 9    2  0.7223181E-005  0.9198032E+02  0.7546771E-02  0.1304798E+00
          2   -1    0    0  502    0 -0.00000000000E+00  0.00000000000E+00  0.88364475356E+03  0.88364475356E+03  0.00000000000E+00 0. -1.
         21   -1    0    0  501  502  0.00000000000E+00 -0.00000000000E+00 -0.37890810725E+03  0.37890810725E+03  0.00000000000E+00 0. -1.
         24    2    1    2    0    0 -0.36097198595E+01  0.13666660728E+02  0.86904545567E+03  0.87284218226E+03  0.80085350861E+02 0.  0.
         23    2    1    2    0    0 -0.11265619327E+02 -0.45805626775E+02 -0.25390839350E+03  0.27376913863E+03  0.90857026987E+02 0.  0.
        -13    1    3    3    0    0  0.27846530989E+02  0.78256891557E+01  0.13333562830E+03  0.13643702017E+03  0.00000000000E+00 0.  1.
         14    1    3    3    0    0 -0.31456250848E+02  0.58409715727E+01  0.73570982738E+03  0.73640516210E+03  0.00000000000E+00 0. -1.
        -13    1    4    4    0    0 -0.24001124845E+01 -0.71780991039E+02 -0.15016692586E+03  0.16645833363E+03  0.00000000000E+00 0. -1.
         13    1    4    4    0    0 -0.88655068422E+01  0.25975364264E+02 -0.10374146764E+03  0.10731080500E+03  0.00000000000E+00 0.  1.
          1    1    1    2  501    0  0.14875339186E+02  0.32138966047E+02 -0.11040041586E+03  0.11594153991E+03  0.00000000000E+00 0. -1.
<scales pt_clust_5="13000.00000" pt_clust_6="13000.00000" pt_clust_7="13000.00000" pt_clust_8="13000.00000" pt_clust_9="35.41453"></scales>
<clustering>
<clus scale="   35.415">  2  9  1 -1</clus>
<clus scale="   80.085">  5  6 -1 -1</clus>
<clus scale="   81.358">  1  5  2 -1</clus>
<clus scale="   90.857">  7  8 -1 -1</clus>
<clus scale="   35.415">  2  5  1 -1</clus>
</clustering>
</event>
<event>
 9    2  0.6469128E-005  0.1070280E+03  0.7546771E-02  0.1282173E+00
         21   -1    0    0  501  502  0.00000000000E+00  0.00000000000E+00  0.16589500523E+03  0.16589500523E+03  0.00000000000E+00 0. -1.
          2   -1    0    0  502    0 -0.00000000000E+00 -0.00000000000E+00 -0.40596792231E+03  0.40596792231E+03  0.00000000000E+00 0. -1.
         24    2    1    2    0    0  0.11342849616E+02  0.25469435537E+01 -0.36183757662E+03  0.37035115952E+03  0.78092268135E+02 0.  0.
         23    2    1    2    0    0  0.27203903304E+02  0.26757168658E+00  0.51794972641E+02  0.12157722768E+03  0.10657475850E+03 0.  0.
        -11    1    3    3    0    0  0.10600664148E+02  0.34397806034E+02 -0.94516894138E+02  0.10113864948E+03  0.00000000000E+00 0.  1.
         12    1    3    3    0    0  0.74218546807E+00 -0.31850862480E+02 -0.26732068248E+03  0.26921251004E+03  0.00000000000E+00 0. -1.
        -11    1    4    4    0    0  0.42926156755E+01 -0.38855206476E+02  0.63667364194E+02  0.74710687877E+02  0.00000000000E+00 0.  1.
         11    1    4    4    0    0  0.22911287629E+02  0.39122778163E+02 -0.11872391553E+02  0.46866539804E+02  0.00000000000E+00 0. -1.
          1    1    1    2  501    0 -0.38546752920E+02 -0.28145152402E+01  0.69969686894E+02  0.79934540349E+02  0.00000000000E+00 0. -1.
<scales pt_clust_5="13000.00000" pt_clust_6="13000.00000" pt_clust_7="13000.00000" pt_clust_8="13000.00000" pt_clust_9="38.64937"></scales>
<clustering>
<clus scale="   38.649">  1  9  2 -1</clus>
<clus scale="   78.092">  5  6 -1 -1</clus>
<clus scale="   78.710">  2  5  1 -1</clus>
<clus scale="  106.575">  7  8 -1 -1</clus>
<clus scale="   38.649">  1  5  2 -1</clus>
</clustering>
</event>
<event>
 9    2  0.6469128E-005  0.1586458E+03  0.7546771E-02  0.1205375E+00
          2   -1    0    0  502    0 -0.00000000000E+00  0.00000000000E+00  0.56535601125E+03  0.56535601125E+03  0.00000000000E+00 0. -1.
         21   -1    0    0  501  502  0.00000000000E+00 -0.00000000000E+00 -0.11137932723E+03  0.11137932723E+03  0.00000000000E+00 0.  1.
         23    2    1    2    0    0  0.67270225831E+02 -0.11964686543E+01 -0.17167165063E+02  0.11532768817E+03  0.92081753245E+02 0.  0.
         24    2    1    2    0    0  0.98882446603E+02 -0.59042796670E+01  0.28543281714E+03  0.31211722016E+03  0.78311348188E+02 0.  0.
        -13    1    4    4    0    0  0.76006649899E+01 -0.23156258888E+02  0.22177821729E+02  0.32952059278E+02  0.00000000000E+00 0.  1.
         14    1    4    4    0    0  0.91281781613E+02  0.17251979221E+02  0.26325499541E+03  0.27916516088E+03  0.00000000000E+00 0. -1.
        -13    1    3    3    0    0  0.77400961852E+02 -0.29785201126E+02 -0.18482134947E+02  0.84968561326E+02  0.00000000000E+00 0.  1.
         13    1    3    3    0    0 -0.10130736020E+02  0.28588732472E+02  0.13149698840E+01  0.30359126840E+02  0.00000000000E+00 0. -1.
          1    1    1    2  501    0 -0.16615267243E+03  0.71007483213E+01  0.18571103194E+03  0.24929043016E+03  0.00000000000E+00 0. -1.
<scales pt_clust_5="13000.00000" pt_clust_6="13000.00000" pt_clust_7="13000.00000" pt_clust_8="13000.00000" pt_clust_9="137.97033"></scales>
<clustering>
<clus scale="   78.311">  5  6 -1 -1</clus>
<clus scale="   92.082">  7  8 -1 -1</clus>
<clus scale="  114.043">  1  7  2 -1</clus>
<clus scale="  137.970">  2  9  1 -1</clus>
<clus scale="  137.970">  2  5  1 -1</clus>
</clustering>
</event>
<event>
 9    2  0.6469128E-005  0.9706614E+02  0.7546771E-02  0.1292448E+00
          2   -1    0    0  502    0 -0.00000000000E+00  0.00000000000E+00  0.25036724000E+03  0.25036724000E+03  0.00000000000E+00 0. -1.
         21   -1    0    0  501  502  0.00000000000E+00 -0.00000000000E+00 -0.49298241547E+02  0.49298241547E+02  0.00000000000E+00 0. -1.
         24    2    1    2    0    0 -0.21453162358E+02  0.11876926264E+02  0.79356945179E+02  0.11563698726E+03  0.80455506468E+02 0.  0.
         23    2    1    2    0    0  0.46031853829E+02  0.92864838135E+01  0.10744279920E+03  0.14859385570E+03  0.91274358401E+02 0.  0.
        -11    1    3    3    0    0  0.12652019745E+02 -0.22247972976E+02  0.56959979031E+02  0.62445857479E+02  0.00000000000E+00 0.  1.
         12    1    3    3    0    0 -0.34105182103E+02  0.34124899240E+02  0.22396966149E+02  0.53191129778E+02  0.00000000000E+00 0. -1.
        -11    1    4    4    0    0  0.21498614343E+02 -0.52664382242E+01 -0.12421978128E+02  0.25381712528E+02  0.00000000000E+00 0.  1.
         11    1    4    4    0    0  0.24533239486E+02  0.14552922038E+02  0.11986477733E+03  0.12321214317E+03  0.00000000000E+00 0. -1.
          1    1    1    2  501    0 -0.24578691471E+02 -0.21163410078E+02  0.14269254072E+02  0.35434638594E+02  0.00000000000E+00 0. -1.
<scales pt_clust_5="13000.00000" pt_clust_6="13000.00000" pt_clust_7="13000.00000" pt_clust_8="13000.00000" pt_clust_9="32.43458"></scales>
<clustering>
<clus scale="   32.435">  2  9  1 -1</clus>
<clus scale="   80.456">  5  6 -1 -1</clus>
<clus scale="   86.971">  1  5  2 -1</clus>
<clus scale="   91.274">  7  8 -1 -1</clus>
<clus scale="   32.435">  2  5  1 -1</clus>
</clustering>
</event>
<event>
 9    2  0.6469128E-005  0.1214402E+03  0.7546771E-02  0.1244298E+00
          2   -1    0    0  502    0 -0.00000000000E+00  0.00000000000E+00  0.12641520246E+03  0.12641520246E+03  0.00000000000E+00 0. -1.
         21   -1    0    0  501  502  0.00000000000E+00 -0.00000000000E+00 -0.24696617036E+03  0.24696617036E+03  0.00000000000E+00 0.  1.
         24    2    1    2    0    0  0.45719667476E+02 -0.61732950440E+02  0.68410389111E+02  0.13132316820E+03  0.81636682953E+02 0.  0.
         23    2    1    2    0    0 -0.68133803660E+02  0.55646498708E+02 -0.15722875721E+03  0.20273395910E+03  0.92959281715E+02 0.  0.
        -11    1    3    3    0    0  0.36910088275E+02 -0.10058128499E+02 -0.75863163262E+01  0.39000932819E+02  0.00000000000E+00 0.  1.
         12    1    3    3    0    0  0.88095792015E+01 -0.51674821941E+02  0.75996705437E+02  0.92322235381E+02  0.00000000000E+00 0. -1.
        -13    1    4    4    0    0 -0.33379677671E+02  0.48285464106E+02 -0.15655989817E+03  0.16720254376E+03  0.00000000000E+00 0.  1.
         13    1    4    4    0    0 -0.34754125989E+02  0.73610346024E+01 -0.66885904783E+00  0.35531415340E+02  0.00000000000E+00 0. -1.
          1    1    1    2  501    0  0.22414136183E+02  0.60864517317E+01 -0.31732599796E+02  0.39324245516E+02  0.00000000000E+00 0. -1.
<scales pt_clust_5="13000.00000" pt_clust_6="13000.00000" pt_clust_7="13000.00000" pt_clust_8="13000.00000" pt_clust_9="23.22581"></scales>
<clustering>
<clus scale="   23.226">  2  9  1 -1</clus>
<clus scale="   81.637">  5  6 -1 -1</clus>
<clus scale="   92.959">  7  8 -1 -1</clus>
<clus scale="  113.008">  1  5  2 -1</clus>
<clus scale="   23.226">  2  5  1 -1</clus>
</clustering>
</event>
<event>
 9    2  0.6469128E-005  0.1877397E+03  0.7546771E-02  0.1161638E+00
          2   -1    0    0  502    0 -0.00000000000E+00  0.00000000000E+00  0.12628287205E+04  0.12628287205E+04  0.00000000000E+00 0. -1.
         21   -1    0    0  501  502  0.00000000000E+00 -0.00000000000E+00 -0.42791323102E+02  0.42791323102E+02  0.00000000000E+00 0. -1.
         24    2    1    2    0    0  0.12840563549E+03 -0.10584406795E+03  0.73969037062E+03  0.76235572752E+03  0.79708449646E+02 0.  0.
         23    2    1    2    0    0 -0.10508739000E+03  0.12279865643E+03  0.24974975108E+03  0.31087175552E+03  0.90241014301E+02 0.  0.
        -11    1    3    3    0    0  0.53637592354E+02  0.78924593648E+00  0.18813146058E+03  0.19562990743E+03  0.00000000000E+00 0.  1.
         12    1    3    3    0    0  0.74768043135E+02 -0.10663331389E+03  0.55155891004E+03  0.56672582009E+03  0.00000000000E+00 0. -1.
        -11    1    4    4    0    0 -0.52527459817E+02  0.17404162833E+02  0.13731881977E+03  0.14804896887E+03  0.00000000000E+00 0.  1.
         11    1    4    4    0    0 -0.52559930183E+02  0.10539449359E+03  0.11243093130E+03  0.16282278665E+03  0.00000000000E+00 0. -1.
          1    1    1    2  501    0 -0.23318245488E+02 -0.16954588477E+02  0.23059727567E+03  0.23239256053E+03  0.00000000000E+00 0. -1.
<scales pt_clust_5="13000.00000" pt_clust_6="13000.00000" pt_clust_7="13000.00000" pt_clust_8="13000.00000" pt_clust_9="28.83053"></scales>
<clustering>
<clus scale="   28.831">  2  9  1 -1</clus>
<clus scale="   79.708">  5  6 -1 -1</clus>
<clus scale="   90.241">  7  8 -1 -1</clus>
<clus scale="  182.910">  1  5  2 -1</clus>
<clus scale="   28.831">  2  5  1 -1</clus>
</clustering>
</event>
<event>
 9    2  0.6469128E-005  0.9571651E+02  0.7546771E-02  0.1295097E+00
         21   -1    0    0  501  502  0.00000000000E+00  0.00000000000E+00  0.41382652674E+02  0.41382652674E+02  0.00000000000E+00 0.  1.
          2   -1    0    0  502    0 -0.00000000000E+00 -0.00000000000E+00 -0.52226214013E+03  0.52226214013E+03  0.00000000000E+00 0. -1.
         24    2    1    2    0    0  0.87155655853E+01 -0.34143969108E+02 -0.37910072623E+03  0.38910818716E+03  0.80287290266E+02 0.  0.
         23    2    1    2    0    0 -0.37997143962E+02  0.21569493315E+01 -0.76728539509E+02  0.12445573230E+03  0.90296872305E+02 0.  0.
        -13    1    3    3    0    0 -0.31060155624E+02  0.23621067499E+01 -0.96709924175E+02  0.10160276694E+03  0.00000000000E+00 0.  1.
         14    1    3    3    0    0  0.39775721209E+02 -0.36506075858E+02 -0.28239080205E+03  0.28750542022E+03  0.00000000000E+00 0. -1.
        -13    1    4    4    0    0 -0.34595847039E+02  0.44008243886E+02 -0.42542060299E+02  0.70309494784E+02  0.00000000000E+00 0.  1.
         13    1    4    4    0    0 -0.34012969235E+01 -0.41851294555E+02 -0.34186479210E+02  0.54146237519E+02  0.00000000000E+00 0. -1.
          1    1    1    2  501    0  0.29281578377E+02  0.31987019776E+02 -0.25050221718E+02  0.50080873340E+02  0.00000000000E+00 0. -1.
<scales pt_clust_5="13000.00000" pt_clust_6="13000.00000" pt_clust_7="13000.00000" pt_clust_8="13000.00000" pt_clust_9="43.36566"></scales>
<clustering>
<clus scale="   43.366">  1  9  2 -1</clus>
<clus scale="   80.287">  5  6 -1 -1</clus>
<clus scale="   86.338">  2  5  1 -1</clus>
<clus scale="   90.297">  7  8 -1 -1</clus>
<clus scale="   43.366">  1  5  2 -1</clus>
</clustering>
</event>
<event>
 9    2  0.6469128E-005  0.9208157E+02  0.7546771E-02  0.1305162E+00
         21   -1    0    0  501  502  0.00000000000E+00  0.00000000000E+00  0.59122725562E+02  0.59122725562E+02  0.00000000000E+00 0.  1.
          2   -1    0    0  502    0 -0.00000000000E+00 -0.00000000000E+00 -0.25015676989E+03  0.25015676989E+03  0.00000000000E+00 0. -1.
         24    2    1    2    0    0 -0.46479665064E+01  0.63350049538E+01 -0.14199296650E+03  0.16316185352E+03  0.79987824245E+02 0.  0.
         23    2    1    2    0    0 -0.89751094681E+01 -0.22097480555E+02 -0.19953376357E+01  0.94665280411E+02  0.91589752190E+02 0.  0.
        -11    1    3    3    0    0 -0.91062322176E+01 -0.29605592878E+02 -0.11179814397E+03  0.11600965301E+03  0.00000000000E+00 0.  1.
         12    1    3    3    0    0  0.44582657112E+01  0.35940597832E+02 -0.30194822529E+02  0.47152200513E+02  0.00000000000E+00 0. -1.
        -13    1    4    4    0    0 -0.37460317272E+02  0.15763437723E+02 -0.18281710244E+02  0.44564360967E+02  0.00000000000E+00 0.  1.
         13    1    4    4    0    0  0.28485207804E+02 -0.37860918278E+02  0.16286372608E+02  0.50100919445E+02  0.00000000000E+00 0. -1.
          1    1    1    2  501    0  0.13623075975E+02  0.15762475601E+02 -0.47045740186E+02  0.51452361517E+02  0.00000000000E+00 0. -1.
<scales pt_clust_5="13000.00000" pt_clust_6="13000.00000" pt_clust_7="13000.00000" pt_clust_8="13000.00000" pt_clust_9="20.83373"></scales>
<clustering>
<clus scale="   20.834">  1  9  2 -1</clus>
<clus scale="   79.988">  5  6 -1 -1</clus>
<clus scale="   80.551">  2  5  1 -1</clus>
<clus scale="   91.590">  7  8 -1 -1</clus>
<clus scale="   20.834">  1  5  2 -1</clus>
</clustering>
</event>
<event>
 9    2  0.6469128E-005  0.9499166E+02  0.7546771E-02  0.1294567E+00
         21   -1    0    0  501  502  0.00000000000E+00  0.00000000000E+00  0.11220410538E+03  0.11220410538E+03  0.00000000000E+00 0. -1.
          4   -1    0    0  502    0 -0.00000000000E+00 -0.00000000000E+00 -0.15696159066E+03  0.15696159066E+03  0.00000000000E+00 0. -1.
         23    2    1    2    0    0  0.39221847163E+02  0.71830485269E+01 -0.38001658232E+02  0.10734229184E+03  0.92131927730E+02 0.  0.
         24    2    1    2    0    0  0.29496051558E+01  0.35923500508E+02 -0.28624620699E+02  0.97676306865E+02  0.86151575455E+02 0.  0.
        -13    1    4    4    0    0  0.15329940327E+02 -0.16001411450E+02  0.16620988128E+02  0.27700351716E+02  0.00000000000E+00 0.  1.
         14    1    4    4    0    0 -0.12380335171E+02  0.51924911958E+02 -0.45245608827E+02  0.69975955149E+02  0.00000000000E+00 0. -1.
        -11    1    3    3    0    0  0.52959887534E+02 -0.10308939317E+02  0.95994119217E+01  0.54801210084E+02  0.00000000000E+00 0. -1.
         11    1    3    3    0    0 -0.13738040371E+02  0.17491987844E+02 -0.47601070153E+02  0.52541081752E+02  0.00000000000E+00 0.  1.
          3    1    1    2  501    0 -0.42171452319E+02 -0.43106549035E+02  0.21868793649E+02  0.64147097331E+02  0.00000000000E+00 0. -1.
<scales pt_clust_5="13000.00000" pt_clust_6="13000.00000" pt_clust_7="13000.00000" pt_clust_8="13000.00000" pt_clust_9="60.30428"></scales>
<clustering>
<clus scale="   60.304">  1  9  2 -1</clus>
<clus scale="   86.152">  5  6 -1 -1</clus>
<clus scale="   89.203">  1  5  2 -1</clus>
<clus scale="   92.132">  7  8 -1 -1</clus>
<clus scale="   60.304">  1  5  2 -1</clus>
</clustering>
</event>
<event>
 9    2  0.6469128E-005  0.1002023E+03  0.7546771E-02  0.1283796E+00
          2   -1    0    0  502    0 -0.00000000000E+00  0.00000000000E+00  0.28263114657E+03  0.28263114657E+03  0.00000000000E+00 0. -1.
         21   -1    0    0  501  502  0.00000000000E+00 -0.00000000000E+00 -0.12314182644E+03  0.12314182644E+03  0.00000000000E+00 0.  1.
         24    2    1    2    0    0  0.33140766414E+01  0.36764679977E+02  0.19866580178E+03  0.21842994055E+03  0.82951270843E+02 0.  0.
         23    2    1    2    0    0  0.28419940793E+02 -0.83478598159E+02 -0.25019766161E+02  0.12912232646E+03  0.90940734027E+02 0.  0.
        -11    1    3    3    0    0 -0.25286845828E+02 -0.23611627024E+01  0.17371945595E+02  0.30769857897E+02  0.00000000000E+00 0.  1.
         12    1    3    3    0    0  0.28600922470E+02  0.39125842679E+02  0.18129385618E+03  0.18766008265E+03  0.00000000000E+00 0. -1.
        -11    1    4    4    0    0 -0.27696090193E+02 -0.25416095627E+02 -0.30184040975E+02  0.48209207196E+02  0.00000000000E+00 0.  1.
         11    1    4    4    0    0  0.56116030986E+02 -0.58062502532E+02  0.51642748145E+01  0.80913119260E+02  0.00000000000E+00 0. -1.
          1    1    1    2  501    0 -0.31734017435E+02  0.46713918182E+02 -0.14156715478E+02  0.58220706004E+02  0.00000000000E+00 0. -1.
<scales pt_clust_5="13000.00000" pt_clust_6="13000.00000" pt_clust_7="13000.00000" pt_clust_8="13000.00000" pt_clust_9="56.47334"></scales>
<clustering>
<clus scale="   56.473">  2  9  1 -1</clus>
<clus scale="   82.951">  5  6 -1 -1</clus>
<clus scale="   90.941">  7  8 -1 -1</clus>
<clus scale="   93.012">  1  5  2 -1</clus>
<clus scale="   56.473">  2  5  1 -1</clus>
</clustering>
</event>
<event>
 9    2  0.6469128E-005  0.9438514E+02  0.7546771E-02  0.1298874E+00
          2   -1    0    0  502    0 -0.00000000000E+00  0.00000000000E+00  0.62128787452E+03  0.62128787452E+03  0.00000000000E+00 0. -1.
         21   -1    0    0  501  502  0.00000000000E+00 -0.00000000000E+00 -0.35345795176E+02  0.35345795176E+02  0.00000000000E+00 0. -1.
         24    2    1    2    0    0  0.93412999805E+01 -0.25808976306E+02  0.46856178512E+03  0.47629468797E+03  0.80951344455E+02 0.  0.
         23    2    1    2    0    0  0.11008417877E+02 -0.84650250964E+01  0.60022300223E+02  0.11049087749E+03  0.91720856796E+02 0.  0.
        -13    1    3    3    0    0  0.24040687943E+02 -0.46370662841E+01  0.39589238871E+02  0.46548521941E+02  0.00000000000E+00 0.  1.
         14    1    3    3    0    0 -0.14699387962E+02 -0.21171910022E+02  0.42897254625E+03  0.42974616603E+03  0.00000000000E+00 0. -1.
        -13    1    4    4    0    0  0.28235770274E+02  0.34498324161E+02  0.40584263275E+02  0.60286611436E+02  0.00000000000E+00 0.  1.
         13    1    4    4    0    0 -0.17227352398E+02 -0.42963349257E+02  0.19438036948E+02  0.50204266058E+02  0.00000000000E+00 0. -1.
          1    1    1    2  501    0 -0.20349717857E+02  0.34274001402E+02  0.57357993991E+02  0.69848104224E+02  0.00000000000E+00 0. -1.
<scales pt_clust_5="13000.00000" pt_clust_6="13000.00000" pt_clust_7="13000.00000" pt_clust_8="13000.00000" pt_clust_9="39.85998"></scales>
<clustering>
<clus scale="   39.860">  2  9  1 -1</clus>
<clus scale="   80.951">  5  6 -1 -1</clus>
<clus scale="   83.958">  1  5  2 -1</clus>
<clus scale="   91.721">  7  8 -1 -1</clus>
<clus scale="   39.860">  2  5  1 -1</clus>
</clustering>
</event>
<event>
 9    2  0.6469128E-005  0.9887571E+02  0.7546771E-02  0.1294171E+00
          2   -1    0    0  502    0 -0.00000000000E+00  0.00000000000E+00  0.19370390679E+03  0.19370390679E+03  0.00000000000E+00 0. -1.
         21   -1    0    0  501  502  0.00000000000E+00 -0.00000000000E+00 -0.16887404228E+03  0.16887404228E+03  0.00000000000E+00 0.  1.
         24    2    1    2    0    0 -0.23229451338E+02 -0.73418971148E+01  0.10037595065E+03  0.12779592507E+03  0.75252615456E+02 0.  0.
         23    2    1    2    0    0  0.23525111227E+02  0.61106656735E+02 -0.11878041761E+03  0.16578967507E+03  0.95341357226E+02 0.  0.
        -13    1    3    3    0    0  0.24560131077E+02 -0.67218548440E+01  0.13947421571E+02  0.29032980204E+02  0.00000000000E+00 0.  1.
         14    1    3    3    0    0 -0.47789582415E+02 -0.62004227080E+00  0.86428529082E+02  0.98762944869E+02  0.00000000000E+00 0. -1.
        -13    1    4    4    0    0 -0.24506069669E+02  0.44255600848E+02 -0.99007535484E+02  0.11118272231E+03  0.00000000000E+00 0.  1.
         13    1    4    4    0    0  0.48031180897E+02  0.16851055887E+02 -0.19772882127E+02  0.54606952766E+02  0.00000000000E+00 0. -1.
          1    1    1    2  501    0 -0.29565988920E+00 -0.53764759620E+02  0.43234331465E+02  0.68992348917E+02  0.00000000000E+00 0. -1.
<scales pt_clust_5="13000.00000" pt_clust_6="13000.00000" pt_clust_7="13000.00000" pt_clust_8="13000.00000" pt_clust_9="53.76560"></scales>
<clustering>
<clus scale="   53.766">  2  9  1 -1</clus>
<clus scale="   75.253">  5  6 -1 -1</clus>
<clus scale="   79.683">  1  5  2 -1</clus>
<clus scale="   95.341">  7  8 -1 -1</clus>
<clus scale="   53.766">  2  5  1 -1</clus>
</clustering>
</event>
<event>
 9    2  0.6469128E-005  0.9897716E+02  0.7546771E-02  0.1289335E+00
         21   -1    0    0  501  502  0.00000000000E+00  0.00000000000E+00  0.61581671847E+02  0.61581671847E+02  0.00000000000E+00 0. -1.
         -1   -1    0    0    0  501 -0.00000000000E+00 -0.00000000000E+00 -0.25245198849E+03  0.25245198849E+03  0.00000000000E+00 0.  1.
         23    2    1    2    0    0 -0.23355498581E+02 -0.94913809984E+01 -0.14820214504E+03  0.17739574814E+03  0.94179668923E+02 0.  0.
         24    2    1    2    0    0  0.21926802888E+02  0.41311951863E+02 -0.46059144322E+02  0.10460529448E+03  0.81445446805E+02 0.  0.
        -11    1    4    4    0    0 -0.11065481936E+02  0.55103935845E+02 -0.38302972451E+02  0.68014750860E+02  0.00000000000E+00 0.  1.
         12    1    4    4    0    0  0.32992284824E+02 -0.13791983982E+02 -0.77561718717E+01  0.36590543617E+02  0.00000000000E+00 0. -1.
        -13    1    3    3    0    0 -0.54795556317E+02  0.12524449466E+02 -0.66118531598E+02  0.86781766790E+02  0.00000000000E+00 0.  1.
         13    1    3    3    0    0  0.31440057736E+02 -0.22015830464E+02 -0.82083613438E+02  0.90613981352E+02  0.00000000000E+00 0. -1.
         -2    1    1    2    0  502  0.14286956923E+01 -0.31820570865E+02  0.33909727201E+01  0.32032617713E+02  0.00000000000E+00 0.  1.
<scales pt_clust_5="13000.00000" pt_clust_6="13000.00000" pt_clust_7="13000.00000" pt_clust_8="13000.00000" pt_clust_9="31.85263"></scales>
<clustering>
<clus scale="   31.853">  1  9  2 -1</clus>
<clus scale="   81.445">  5  6 -1 -1</clus>
<clus scale="   86.948">  1  5  2 -1</clus>
<clus scale="   94.180">  7  8 -1 -1</clus>
<clus scale="   31.853">  1  5  2 -1</clus>
</clustering>
</event>
<event>
 9    2  0.6469128E-005  0.1190468E+03  0.7546771E-02  0.1247772E+00
         21   -1    0    0  501  502  0.00000000000E+00  0.00000000000E+00  0.19534409554E+03  0.19534409554E+03  0.00000000000E+00 0. -1.
          2   -1    0    0  502    0 -0.00000000000E+00 -0.00000000000E+00 -0.16552112320E+03  0.16552112320E+03  0.00000000000E+00 0. -1.
         24    2    1    2    0    0 -0.65210817048E+02 -0.62608278154E+02 -0.86955894421E+02  0.15054774679E+03  0.83252923881E+02 0.  0.
         23    2    1    2    0    0  0.20957166635E+02  0.45515287663E+01  0.94275018727E+02  0.13392771543E+03  0.92676504884E+02 0.  0.
        -11    1    3    3    0    0 -0.34636853187E+02  0.10826763704E+02 -0.55165213927E+01  0.36706435665E+02  0.00000000000E+00 0.  1.
         12    1    3    3    0    0 -0.30573963861E+02 -0.73435041857E+02 -0.81439373029E+02  0.11384131112E+03  0.00000000000E+00 0. -1.
        -13    1    4    4    0    0  0.52259207252E+02  0.10993541422E+02  0.27881969245E+02  0.60243563179E+02  0.00000000000E+00 0.  1.
         13    1    4    4    0    0 -0.31302040616E+02 -0.64420126557E+01  0.66393049482E+02  0.73684152253E+02  0.00000000000E+00 0. -1.
          1    1    1    2  501    0  0.44253650413E+02  0.58056749388E+02  0.22503848029E+02  0.76389756515E+02  0.00000000000E+00 0. -1.
<scales pt_clust_5="13000.00000" pt_clust_6="13000.00000" pt_clust_7="13000.00000" pt_clust_8="13000.00000" pt_clust_9="72.99981"></scales>
<clustering>
<clus scale="   73.000">  1  9  2 -1</clus>
<clus scale="   83.253">  5  6 -1 -1</clus>
<clus scale="   92.677">  7  8 -1 -1</clus>
<clus scale="  111.867">  2  5  1 -1</clus>
<clus scale="   73.000">  1  5  2 -1</clus>
</clustering>
</event>
<event>
 9    2  0.6469128E-005  0.9720403E+02  0.7546771E-02  0.1293803E+00
         21   -1    0    0  501  502  0.00000000000E+00  0.00000000000E+00  0.98479927895E+02  0.98479927895E+02  0.00000000000E+00 0. -1.
          2   -1    0    0  502    0 -0.00000000000E+00 -0.00000000000E+00 -0.18050943356E+03  0.18050943356E+03  0.00000000000E+00 0. -1.
         24    2    1    2    0    0  0.20337540390E+02  0.43447869981E+01 -0.38325060326E+02  0.91266250481E+02  0.80176215330E+02 0.  0.
         23    2    1    2    0    0 -0.14933868509E+02  0.62795439219E+02 -0.15449200737E+02  0.11467950418E+03  0.93522314234E+02 0.  0.
        -11    1    3    3    0    0 -0.23277490917E+02  0.10619161396E+02 -0.39643172241E+02  0.47182510292E+02  0.00000000000E+00 0.  1.
         12    1    3    3    0    0  0.43615031307E+02 -0.62743743978E+01  0.13181119148E+01  0.44083740189E+02  0.00000000000E+00 0. -1.
        -13    1    4    4    0    0 -0.50813559507E+02  0.13573341111E+02 -0.44487077181E+01  0.52782993654E+02  0.00000000000E+00 0. -1.
         13    1    4    4    0    0  0.35879690998E+02  0.49222098108E+02 -0.11000493019E+02  0.61896510523E+02  0.00000000000E+00 0.  1.
          1    1    1    2  501    0 -0.54036718805E+01 -0.67140226217E+02 -0.28255244600E+02  0.73043606795E+02  0.00000000000E+00 0. -1.
<scales pt_clust_5="13000.00000" pt_clust_6="13000.00000" pt_clust_7="13000.00000" pt_clust_8="13000.00000" pt_clust_9="67.35736"></scales>
<clustering>
<clus scale="   67.357">  1  9  2 -1</clus>
<clus scale="   80.176">  5  6 -1 -1</clus>
<clus scale="   84.442">  2  5  1 -1</clus>
<clus scale="   93.522">  7  8 -1 -1</clus>
<clus scale="   67.357">  1  5  2 -1</clus>
</clustering>
</event>
<event>
 9    2  0.6469128E-005  0.9590128E+02  0.7546771E-02  0.1293385E+00
          2   -1    0    0  502    0 -0.00000000000E+00  0.00000000000E+00  0.84265417235E+03  0.84265417235E+03  0.00000000000E+00 0. -1.
         21   -1    0    0  501  502  0.00000000000E+00 -0.00000000000E+00 -0.40466871168E+02  0.40466871168E+02  0.00000000000E+00 0.  1.
         24    2    1    2    0    0 -0.36510323404E+02 -0.10283593301E+02  0.73912627556E+03  0.74450754808E+03  0.80901680597E+02 0.  0.
         23    2    1    2    0    0  0.98563233332E+01  0.19353331983E+02  0.32451643648E+02  0.97024673087E+02  0.88819927064E+02 0.  0.
        -13    1    3    3    0    0  0.13660962427E+02 -0.26744773020E+02  0.14729218803E+03  0.15032263114E+03  0.00000000000E+00 0.  1.
         14    1    3    3    0    0 -0.50171285832E+02  0.16461179719E+02  0.59183408753E+03  0.59418491694E+03  0.00000000000E+00 0. -1.
        -11    1    4    4    0    0  0.25863743840E+02 -0.21290351054E+02  0.40550340344E+02  0.52597931475E+02  0.00000000000E+00 0. -1.
         11    1    4    4    0    0 -0.16007420507E+02  0.40643683037E+02 -0.80986966962E+01  0.44426741612E+02  0.00000000000E+00 0.  1.
          1    1    1    2  501    0  0.26654000071E+02 -0.90697386825E+01  0.30609381981E+02  0.41588822354E+02  0.00000000000E+00 0. -1.
<scales pt_clust_5="13000.00000" pt_clust_6="13000.00000" pt_clust_7="13000.00000" pt_clust_8="13000.00000" pt_clust_9="28.15486"></scales>
<clustering>
<clus scale="   28.155">  2  9  1 -1</clus>
<clus scale="   80.902">  5  6 -1 -1</clus>
<clus scale="   88.618">  1  5  2 -1</clus>
<clus scale="   88.820">  7  8 -1 -1</clus>
<clus scale="   28.155">  2  5  1 -1</clus>
</clustering>
</event>
<event>
 9    2  0.6469128E-005  0.1107861E+03  0.7546771E-02  0.1261171E+00
         21   -1    0    0  501  502  0.00000000000E+00  0.00000000000E+00  0.32401476101E+03  0.32401476101E+03  0.00000000000E+00 0. -1.
         -3   -1    0    0    0  501 -0.00000000000E+00 -0.00000000000E+00 -0.13887947250E+03  0.13887947250E+03  0.00000000000E+00 0.  1.
         24    2    1    2    0    0 -0.41157153896E+02  0.56341498208E+02  0.78853725278E+02  0.13244386121E+03  0.80344201060E+02 0.  0.
         23    2    1    2    0    0  0.28294057350E+02  0.50166384718E+02  0.17302585471E+03  0.20410090129E+03  0.91662487813E+02 0.  0.
        -13    1    3    3    0    0  0.14410701967E+02  0.48125749298E+02  0.36743745140E+02  0.62240331648E+02  0.00000000000E+00 0.  1.
         14    1    3    3    0    0 -0.55567855863E+02  0.82157489105E+01  0.42109980138E+02  0.70203529559E+02  0.00000000000E+00 0. -1.
        -11    1    4    4    0    0 -0.33285016673E+02  0.24391804961E+02  0.72706388765E+02  0.83600666573E+02  0.00000000000E+00 0.  1.
         11    1    4    4    0    0  0.61579074024E+02  0.25774579757E+02  0.10031946595E+03  0.12050023472E+03  0.00000000000E+00 0. -1.
         -4    1    1    2    0  502  0.12863096546E+02 -0.10650788293E+03 -0.66744291482E+02  0.12634947101E+03  0.00000000000E+00 0.  1.
<scales pt_clust_5="13000.00000" pt_clust_6="13000.00000" pt_clust_7="13000.00000" pt_clust_8="13000.00000" pt_clust_9="62.22173"></scales>
<clustering>
<clus scale="   80.344">  5  6 -1 -1</clus>
<clus scale="   91.662">  7  8 -1 -1</clus>
<clus scale="  106.412">  2  5  1 -1</clus>
<clus scale="   62.222">  1  9  2 -1</clus>
<clus scale="   62.222">  1  5  2 -1</clus>
</clustering>
</event>
<event>
 9    2  0.6469128E-005  0.1019350E+03  0.7546771E-02  0.1279365E+00
         21   -1    0    0  501  502  0.00000000000E+00  0.00000000000E+00  0.46332346084E+03  0.46332346084E+03  0.00000000000E+00 0.  1.
          2   -1    0    0  502    0 -0.00000000000E+00 -0.00000000000E+00 -0.33935522131E+02  0.33935522131E+02  0.00000000000E+00 0. -1.
         23    2    1    2    0    0 -0.64991813945E+02  0.12196880056E+02  0.19519637329E+03  0.22396428863E+03  0.87668002579E+02 0.  0.
         24    2    1    2    0    0  0.28618753702E+02 -0.33701259225E+02  0.19500432260E+03  0.21566590088E+03  0.80810191398E+02 0.  0.
        -13    1    4    4    0    0 -0.17598669520E+02 -0.34492940061E+02  0.13174422599E+03  0.13731721365E+03  0.00000000000E+00 0.  1.
         14    1    4    4    0    0  0.46217423222E+02  0.79168083597E+00  0.63260096609E+02  0.78348687231E+02  0.00000000000E+00 0. -1.
        -13    1    3    3    0    0 -0.24368757636E+02 -0.26474196546E+02  0.22617189969E+02  0.42500078984E+02  0.00000000000E+00 0. -1.
         13    1    3    3    0    0 -0.40623056308E+02  0.38671076603E+02  0.17257918332E+03  0.18146420965E+03  0.00000000000E+00 0.  1.
          1    1    1    2  501    0  0.36373060242E+02  0.21504379169E+02  0.39187242818E+02  0.57628793450E+02  0.00000000000E+00 0. -1.
<scales pt_clust_5="13000.00000" pt_clust_6="13000.00000" pt_clust_7="13000.00000" pt_clust_8="13000.00000" pt_clust_9="42.25446"></scales>
<clustering>
<clus scale="   42.254">  1  9  2 -1</clus>
<clus scale="   80.810">  5  6 -1 -1</clus>
<clus scale="   87.668">  7  8 -1 -1</clus>
<clus scale="   96.101">  1  5  2 -1</clus>
<clus scale="   42.254">  1  5  2 -1</clus>
</clustering>
</event>
<event>
 9    2  0.6469128E-005  0.1414076E+03  0.7546771E-02  0.1213899E+00
         21   -1    0    0  501  502  0.00000000000E+00  0.00000000000E+00  0.92855467595E+02  0.92855467595E+02  0.00000000000E+00 0. -1.
          4   -1    0    0  502    0 -0.00000000000E+00 -0.00000000000E+00 -0.34235071599E+03  0.34235071599E+03  0.00000000000E+00 0. -1.
         24    2    1    2    0    0  0.92821096650E+02  0.84816520176E+01 -0.63268223219E+02  0.13814167476E+03  0.79953485429E+02 0.  0.
         23    2    1    2    0    0 -0.12555531603E+03  0.37877682811E+02 -0.85201003736E+02  0.18118968821E+03  0.91496643868E+02 0.  0.
        -13    1    3    3    0    0  0.28626064643E+01 -0.24790455869E+02 -0.36818258375E+01  0.25225325756E+02  0.00000000000E+00 0.  1.
         14    1    3    3    0    0  0.89958490186E+02  0.33272107887E+02 -0.59586397381E+02  0.11291634901E+03  0.00000000000E+00 0. -1.
        -13    1    4    4    0    0 -0.76834107146E+02  0.57239550904E+02 -0.20616758384E+02  0.98004576091E+02  0.00000000000E+00 0. -1.
         13    1    4    4    0    0 -0.48721208879E+02 -0.19361868093E+02 -0.64584245352E+02  0.83185112120E+02  0.00000000000E+00 0.  1.
          3    1    1    2  501    0  0.32734219376E+02 -0.46359334829E+02 -0.10102602144E+03  0.11587482062E+03  0.00000000000E+00 0. -1.
<scales pt_clust_5="13000.00000" pt_clust_6="13000.00000" pt_clust_7="13000.00000" pt_clust_8="13000.00000" pt_clust_9="56.75139"></scales>
<clustering>
<clus scale="   56.751">  1  9  2 -1</clus>
<clus scale="   79.953">  5  6 -1 -1</clus>
<clus scale="   91.497">  7  8 -1 -1</clus>
<clus scale="  134.228">  2  5  1 -1</clus>
<clus scale="   56.751">  1  5  2 -1</clus>
</clustering>
</event>
<event>
 9    2  0.6469128E-005  0.1779579E+03  0.7546771E-02  0.1189898E+00
         21   -1    0    0  501  502  0.00000000000E+00  0.00000000000E+00  0.74318615103E+02  0.74318615103E+02  0.00000000000E+00 0.  1.
          2   -1    0    0  502    0 -0.00000000000E+00 -0.00000000000E+00 -0.19171936345E+04  0.19171936345E+04  0.00000000000E+00 0. -1.
         23    2    1    2    0    0  0.35723110951E+02 -0.57763626578E+02 -0.39357172701E+03  0.40953775558E+03  0.90607349183E+02 0.  0.
         24    2    1    2    0    0  0.15578185604E+03  0.69489128844E+01 -0.70488432831E+02  0.18899685442E+03  0.80217939125E+02 0.  0.
        -13    1    4    4    0    0  0.92031280989E+02  0.38515870622E+02 -0.61736055842E+02  0.11732250236E+03  0.00000000000E+00 0.  1.
         14    1    4    4    0    0  0.63750575053E+02 -0.31566957737E+02 -0.87523769898E+01  0.71674352061E+02  0.00000000000E+00 0. -1.
        -13    1    3    3    0    0 -0.12415086381E+02 -0.61834031789E+02 -0.18538239271E+03  0.19581678525E+03  0.00000000000E+00 0.  1.
         13    1    3    3    0    0  0.48138197332E+02  0.40704052107E+01 -0.20818933430E+03  0.21372097033E+03  0.00000000000E+00 0. -1.
          1    1    1    2  501    0 -0.19150496699E+03  0.50814713694E+02 -0.13788148596E+04  0.13929776396E+04  0.00000000000E+00 0. -1.
<scales pt_clust_5="13000.00000" pt_clust_6="13000.00000" pt_clust_7="13000.00000" pt_clust_8="13000.00000" pt_clust_9="158.85257"></scales>
<clustering>
<clus scale="   80.218">  5  6 -1 -1</clus>
<clus scale="   90.607">  7  8 -1 -1</clus>
<clus scale="  113.236">  2  7  1 -1</clus>
<clus scale="  158.853">  1  9  2 -1</clus>
<clus scale="  158.853">  1  5  2 -1</clus>
</clustering>
</event>
<event>
 9    2  0.6469128E-005  0.1099631E+03  0.7546771E-02  0.1264489E+00
          2   -1    0    0  502    0 -0.00000000000E+00  0.00000000000E+00  0.16321546311E+04  0.16321546311E+04  0.00000000000E+00 0. -1.
         21   -1    0    0  501  502  0.00000000000E+00 -0.00000000000E+00 -0.43127127066E+02  0.43127127066E+02  0.00000000000E+00 0. -1.
         24    2    1    2    0    0  0.53239610167E+02  0.43488176551E+02  0.11917535244E+04  0.11964448448E+04  0.80486807443E+02 0.  0.
         23    2    1    2    0    0 -0.36305473624E+02 -0.29918826959E+02  0.42870161680E+03  0.44064544037E+03  0.90388628986E+02 0.  0.
        -13    1    3    3    0    0  0.28456834604E+02 -0.14693198875E+02  0.18859336573E+03  0.19129333268E+03  0.00000000000E+00 0.  1.
         14    1    3    3    0    0  0.24782775562E+02  0.58181375426E+02  0.10031601587E+04  0.10051515122E+04  0.00000000000E+00 0. -1.
        -11    1    4    4    0    0  0.27435080552E+02  0.51042944494E+01  0.15229994118E+03  0.15483542731E+03  0.00000000000E+00 0. -1.
         11    1    4    4    0    0 -0.63740554176E+02 -0.35023121409E+02  0.27640167562E+03  0.28581001306E+03  0.00000000000E+00 0.  1.
          1    1    1    2  501    0 -0.16934136543E+02 -0.13569349591E+02 -0.31427637179E+02  0.38191472968E+02  0.00000000000E+00 0. -1.
<scales pt_clust_5="13000.00000" pt_clust_6="13000.00000" pt_clust_7="13000.00000" pt_clust_8="13000.00000" pt_clust_9="21.70005"></scales>
<clustering>
<clus scale="   21.700">  2  9  1 -1</clus>
<clus scale="   80.487">  5  6 -1 -1</clus>
<clus scale="   90.389">  7  8 -1 -1</clus>
<clus scale="  101.980">  1  5  2 -1</clus>
<clus scale="   21.700">  2  5  1 -1</clus>
</clustering>
</event>
<event>
 9    2  0.6469128E-005  0.9690307E+02  0.7546771E-02  0.1291344E+00
         21   -1    0    0  501  502  0.00000000000E+00  0.00000000000E+00  0.55969462500E+02  0.55969462500E+02  0.00000000000E+00 0.  1.
         -1   -1    0    0    0  501 -0.00000000000E+00 -0.00000000000E+00 -0.32682834299E+03  0.32682834299E+03  0.00000000000E+00 0.  1.
         24    2    1    2    0    0  0.40979641604E+01  0.22550245805E+02 -0.10940155908E+03  0.13878028653E+03  0.82255455173E+02 0.  0.
         23    2    1    2    0    0  0.15568963750E+02 -0.64532813857E+02 -0.49196026824E+02  0.12256002707E+03  0.90519801604E+02 0.  0.
        -13    1    3    3    0    0  0.50535517638E+01  0.41260259754E+02 -0.11236996939E+03  0.11981217568E+03  0.00000000000E+00 0.  1.
         14    1    3    3    0    0 -0.95558760341E+00 -0.18710013949E+02  0.29684103117E+01  0.18968110855E+02  0.00000000000E+00 0. -1.
        -13    1    4    4    0    0 -0.16889863868E+02  0.12167036542E+02 -0.30950975255E+02  0.37299693684E+02  0.00000000000E+00 0. -1.
         13    1    4    4    0    0  0.32458827618E+02 -0.76699850398E+02 -0.18245051569E+02  0.85260333381E+02  0.00000000000E+00 0.  1.
         -2    1    1    2    0  502 -0.19666927911E+02  0.41982568052E+02 -0.11226129459E+03  0.12145749189E+03  0.00000000000E+00 0.  1.
<scales pt_clust_5="13000.00000" pt_clust_6="13000.00000" pt_clust_7="13000.00000" pt_clust_8="13000.00000" pt_clust_9="46.36083"></scales>
<clustering>
<clus scale="   46.361">  1  9  2 -1</clus>
<clus scale="   82.255">  5  6 -1 -1</clus>
<clus scale="   89.232">  2  5  1 -1</clus>
<clus scale="   90.520">  7  8 -1 -1</clus>
<clus scale="   46.361">  1  5  2 -1</clus>
</clustering>
</event>
<event>
 9    2  0.6469128E-005  0.3739728E+03  0.7546771E-02  0.1053210E+00
          2   -1    0    0  502    0 -0.00000000000E+00  0.00000000000E+00  0.31335908522E+04  0.31335908522E+04  0.00000000000E+00 0. -1.
         21   -1    0    0  501  502  0.00000000000E+00 -0.00000000000E+00 -0.11915392397E+03  0.11915392397E+03  0.00000000000E+00 0. -1.
         24    2    1    2    0    0 -0.26133448000E+03 -0.16001160776E+03  0.11006393305E+04  0.11460791429E+04  0.90504368326E+02 0.  0.
         23    2    1    2    0    0  0.39751553328E+03  0.15427154869E+03  0.19213793892E+04  0.19701529558E+04  0.89362195636E+02 0.  0.
        -11    1    3    3    0    0 -0.20684977466E+03 -0.91925848250E+02  0.68637782269E+03  0.72273903059E+03  0.00000000000E+00 0.  1.
         12    1    3    3    0    0 -0.54484705346E+02 -0.68085759508E+02  0.41426150785E+03  0.42334011226E+03  0.00000000000E+00 0. -1.
        -13    1    4    4    0    0  0.49482474641E+02  0.48220895334E+02  0.39608149213E+03  0.40206258027E+03  0.00000000000E+00 0.  1.
         13    1    4    4    0    0  0.34803305864E+03  0.10605065335E+03  0.15252978971E+04  0.15680903756E+04  0.00000000000E+00 0. -1.
          1    1    1    2  501    0 -0.13618105328E+03  0.57400590695E+01 -0.75817915647E+01  0.13651267748E+03  0.00000000000E+00 0. -1.
<scales pt_clust_5="13000.00000" pt_clust_6="13000.00000" pt_clust_7="13000.00000" pt_clust_8="13000.00000" pt_clust_9="136.30197"></scales>
<clustering>
<clus scale="   89.362">  7  8 -1 -1</clus>
<clus scale="   90.504">  5  6 -1 -1</clus>
<clus scale="  136.302">  2  9  1 -1</clus>
<clus scale="  373.698">  2  7  1 -1</clus>
<clus scale="  136.302">  2  5  1 -1</clus>
</clustering>
</event>
<event>
 9    2  0.6469128E-005  0.2669873E+03  0.7546771E-02  0.1124440E+00
         21   -1    0    0  501  502  0.00000000000E+00  0.00000000000E+00  0.28337158055E+03  0.28337158055E+03  0.00000000000E+00 0.  1.
         -1   -1    0    0    0  501 -0.00000000000E+00 -0.00000000000E+00 -0.58953007966E+03  0.58953007966E+03  0.00000000000E+00 0.  1.
         24    2    1    2    0    0  0.13208144291E+03  0.14673247184E+02 -0.29802414453E+03  0.33604789572E+03  0.80305577350E+02 0.  0.
         23    2    1    2    0    0  0.18289290831E+03  0.46269141766E+02 -0.46298431597E+02  0.21377588924E+03  0.89252096110E+02 0.  0.
        -11    1    3    3    0    0  0.93006320307E+02  0.44658538254E+02 -0.22984028661E+03  0.25193474950E+03  0.00000000000E+00 0.  1.
         12    1    3    3    0    0  0.39075122607E+02 -0.29985291070E+02 -0.68183857918E+02  0.84113146225E+02  0.00000000000E+00 0. -1.
        -13    1    4    4    0    0  0.16476315973E+03  0.26652451017E+02 -0.80181692280E+01  0.16709740569E+03  0.00000000000E+00 0.  1.
         13    1    4    4    0    0  0.18129748584E+02  0.19616690749E+02 -0.38280262369E+02  0.46678483552E+02  0.00000000000E+00 0. -1.
         -2    1    1    2    0  502 -0.31497435123E+03 -0.60942388950E+02  0.38164077010E+02  0.32307787525E+03  0.00000000000E+00 0.  1.
<scales pt_clust_5="13000.00000" pt_clust_6="13000.00000" pt_clust_7="13000.00000" pt_clust_8="13000.00000" pt_clust_9="251.62737"></scales>
<clustering>
<clus scale="   80.306">  5  6 -1 -1</clus>
<clus scale="   89.252">  7  8 -1 -1</clus>
<clus scale="  155.273">  2  5  1 -1</clus>
<clus scale="  251.627">  1  9  2 -1</clus>
<clus scale="  251.627">  1  5  2 -1</clus>
</clustering>
</event>
<event>
 9    2  0.6469128E-005  0.1017695E+03  0.7546771E-02  0.1281378E+00
         21   -1    0    0  501  502  0.00000000000E+00  0.00000000000E+00  0.13338642862E+03  0.13338642862E+03  0.00000000000E+00 0.  1.
          2   -1    0    0  502    0 -0.00000000000E+00 -0.00000000000E+00 -0.18278993429E+03  0.18278993429E+03  0.00000000000E+00 0. -1.
         24    2    1    2    0    0  0.46505992161E+02  0.14219112902E+02 -0.13950728143E+03  0.16832466130E+03  0.80659280624E+02 0.  0.
         23    2    1    2    0    0 -0.30014438142E+02 -0.73881035314E+00  0.78166282744E+02  0.12343462459E+03  0.90690277601E+02 0.  0.
        -13    1    3    3    0    0  0.37543695804E+02 -0.28355280205E+02 -0.49152204411E+02  0.68040357205E+02  0.00000000000E+00 0.  1.
         14    1    3    3    0    0  0.89622963568E+01  0.42574393107E+02 -0.90355077019E+02  0.10028430409E+03  0.00000000000E+00 0. -1.
        -11    1    4    4    0    0  0.24071657444E+02  0.22900497931E+02  0.13452704013E+02  0.35844842626E+02  0.00000000000E+00 0. -1.
         11    1    4    4    0    0 -0.54086095586E+02 -0.23639308284E+02  0.64713578731E+02  0.87589781962E+02  0.00000000000E+00 0.  1.
          1    1    1    2  501    0 -0.16491554019E+02 -0.13480302549E+02  0.11937493014E+02  0.24417077020E+02  0.00000000000E+00 0. -1.
<scales pt_clust_5="13000.00000" pt_clust_6="13000.00000" pt_clust_7="13000.00000" pt_clust_8="13000.00000" pt_clust_9="21.30000"></scales>
<clustering>
<clus scale="   21.300">  1  9  2 -1</clus>
<clus scale="   80.659">  5  6 -1 -1</clus>
<clus scale="   90.690">  7  8 -1 -1</clus>
<clus scale="   92.942">  2  5  1 -1</clus>
<clus scale="   21.300">  1  5  2 -1</clus>
</clustering>
</event>
<event>
 9    2  0.6469128E-005  0.1259602E+03  0.7546771E-02  0.1236641E+00
          2   -1    0    0  502    0 -0.00000000000E+00  0.00000000000E+00  0.72402412007E+03  0.72402412007E+03  0.00000000000E+00 0. -1.
         21   -1    0    0  501  502  0.00000000000E+00 -0.00000000000E+00 -0.51972704320E+02  0.51972704320E+02  0.00000000000E+00 0.  1.
         23    2    1    2    0    0  0.39864042521E+02  0.89799764165E+02  0.22803137687E+03  0.26453055607E+03  0.91241255604E+02 0.  0.
         24    2    1    2    0    0  0.32545559227E+02 -0.79574743332E+02  0.85205194877E+02  0.14527534305E+03  0.80334593189E+02 0.  0.
        -13    1    4    4    0    0  0.55687915018E+02 -0.74735486691E+02  0.74517703819E+02  0.11932906198E+03  0.00000000000E+00 0.  1.
         14    1    4    4    0    0 -0.23142355792E+02 -0.48392566418E+01  0.10687491057E+02  0.25946281073E+02  0.00000000000E+00 0. -1.
        -13    1    3    3    0    0 -0.25752682286E+02  0.51242899419E+02  0.85501109110E+02  0.10295375197E+03  0.00000000000E+00 0.  1.
         13    1    3    3    0    0  0.65616724807E+02  0.38556864747E+02  0.14253026776E+03  0.16157680410E+03  0.00000000000E+00 0. -1.
          1    1    1    2  501    0 -0.72409601748E+02 -0.10225020833E+02  0.35881484400E+03  0.36619092527E+03  0.00000000000E+00 0. -1.
<scales pt_clust_5="13000.00000" pt_clust_6="13000.00000" pt_clust_7="13000.00000" pt_clust_8="13000.00000" pt_clust_9="73.12802"></scales>
<clustering>
<clus scale="   73.128">  2  9  1 -1</clus>
<clus scale="   80.335">  5  6 -1 -1</clus>
<clus scale="   91.241">  7  8 -1 -1</clus>
<clus scale="  118.299">  2  5  1 -1</clus>
<clus scale="   73.128">  2  5  1 -1</clus>
</clustering>
</event>
<event>
 9    2  0.6469128E-005  0.8302370E+02  0.7546771E-02  0.1325802E+00
         21   -1    0    0  501  502  0.00000000000E+00  0.00000000000E+00  0.13929185253E+03  0.13929185253E+03  0.00000000000E+00 0.  1.
          2   -1    0    0  502    0 -0.00000000000E+00 -0.00000000000E+00 -0.11356114458E+03  0.11356114458E+03  0.00000000000E+00 0. -1.
         24    2    1    2    0    0 -0.29316930431E+02 -0.42805726358E+02 -0.57440785876E+02  0.10684505725E+03  0.73651950134E+02 0.  0.
         23    2    1    2    0    0  0.12553127095E+02 -0.73506286077E+01  0.49689972470E+02  0.83416428307E+02  0.65403321067E+02 0.  0.
        -13    1    3    3    0    0 -0.22191125900E+01 -0.50573772889E+02 -0.60043757862E+02  0.78535876025E+02  0.00000000000E+00 0.  1.
         14    1    3    3    0    0 -0.27097817841E+02  0.77680465304E+01  0.26029719860E+01  0.28309181228E+02  0.00000000000E+00 0. -1.
        -11    1    4    4    0    0  0.12490565251E+02  0.27768799264E+02  0.14589793968E+02  0.33763627188E+02  0.00000000000E+00 0. -1.
         11    1    4    4    0    0  0.62561843928E-01 -0.35119427872E+02  0.35100178502E+02  0.49652801118E+02  0.00000000000E+00 0.  1.
          1    1    1    2  501    0  0.16763803336E+02  0.50156354966E+02  0.33481521361E+02  0.62591511552E+02  0.00000000000E+00 0. -1.
<scales pt_clust_5="13000.00000" pt_clust_6="13000.00000" pt_clust_7="13000.00000" pt_clust_8="13000.00000" pt_clust_9="52.88369"></scales>
<clustering>
<clus scale="   52.884">  1  9  2 -1</clus>
<clus scale="   65.403">  7  8 -1 -1</clus>
<clus scale="   73.652">  5  6 -1 -1</clus>
<clus scale="   75.802">  1  7  2 -1</clus>
<clus scale="   52.884">  1  5  2 -1</clus>
</clustering>
</event>
<event>
 9    2  0.6469128E-005  0.1743178E+03  0.7546771E-02  0.1206395E+00
         -3   -1    0    0    0  501 -0.00000000000E+00  0.00000000000E+00  0.10871734546E+04  0.10871734546E+04  0.00000000000E+00 0.  1.
         21   -1    0    0  501  502  0.00000000000E+00 -0.00000000000E+00 -0.83953905869E+02  0.83953905869E+02  0.00000000000E+00 0.  1.
         24    2    1    2    0    0  0.47102576355E+01 -0.10516724913E+02  0.90843016212E+02  0.12379697362E+03  0.83309357534E+02 0.  0.
         23    2    1    2    0    0  0.96713396432E+02 -0.99846648546E+02  0.87799299886E+03  0.89354788074E+03  0.90737395056E+02 0.  0.
        -13    1    3    3    0    0  0.32144254523E+02 -0.30255582136E+02  0.73679636704E+02  0.85891456002E+02  0.00000000000E+00 0.  1.
         14    1    3    3    0    0 -0.27433996887E+02  0.19738857223E+02  0.17163379508E+02  0.37905517617E+02  0.00000000000E+00 0. -1.
        -13    1    4    4    0    0  0.62536354326E+02 -0.27697549550E+01  0.29956645941E+03  0.30603681275E+03  0.00000000000E+00 0.  1.
         13    1    4    4    0    0  0.34177042106E+02 -0.97076893591E+02  0.57842653945E+03  0.58751106799E+03  0.00000000000E+00 0. -1.
         -4    1    1    2    0  502 -0.10142365407E+03  0.11036337346E+03  0.34383533695E+02  0.15378250614E+03  0.00000000000E+00 0.  1.
<scales pt_clust_5="13000.00000" pt_clust_6="13000.00000" pt_clust_7="13000.00000" pt_clust_8="13000.00000" pt_clust_9="148.84028"></scales>
<clustering>
<clus scale="   83.309">  5  6 -1 -1</clus>
<clus scale="   84.103">  1  5  2 -1</clus>
<clus scale="   90.737">  7  8 -1 -1</clus>
<clus scale="  148.840">  2  9  1 -1</clus>
<clus scale="  148.840">  2  5  1 -1</clus>
</clustering>
</event>
<event>
 9    2  0.6469128E-005  0.4939306E+03  0.7546771E-02  0.1015474E+00
          2   -1    0    0  502    0 -0.00000000000E+00  0.00000000000E+00  0.15380852895E+04  0.15380852895E+04  0.00000000000E+00 0. -1.
         21   -1    0    0  501  502  0.00000000000E+00 -0.00000000000E+00 -0.24290609164E+03  0.24290609164E+03  0.00000000000E+00 0.  1.
         23    2    1    2    0    0 -0.47592390570E+03  0.14331332723E+03  0.11011707835E+04  0.12115258164E+04  0.90418115062E+02 0.  0.
         24    2    1    2    0    0  0.44165219919E+03 -0.11257410750E+03  0.22412151075E+03  0.51445421978E+03  0.81872449206E+02 0.  0.
        -11    1    4    4    0    0  0.36113408963E+03 -0.58623494090E+02  0.16974955708E+03  0.40332301804E+03  0.00000000000E+00 0.  1.
         12    1    4    4    0    0  0.80518109565E+02 -0.53950613406E+02  0.54371953670E+02  0.11113120174E+03  0.00000000000E+00 0. -1.
        -11    1    3    3    0    0 -0.40588136913E+03  0.14199730844E+03  0.99932609976E+03  0.10879134042E+04  0.00000000000E+00 0. -1.
         11    1    3    3    0    0 -0.70042536566E+02  0.13160187877E+01  0.10184468377E+03  0.12361241219E+03  0.00000000000E+00 0.  1.
          1    1    1    2  501    0  0.34271706502E+02 -0.30739219735E+02 -0.30113096433E+02  0.55011344951E+02  0.00000000000E+00 0. -1.
<scales pt_clust_5="13000.00000" pt_clust_6="13000.00000" pt_clust_7="13000.00000" pt_clust_8="13000.00000" pt_clust_9="46.03748"></scales>
<clustering>
<clus scale="   46.037">  2  9  1 -1</clus>
<clus scale="   81.872">  5  6 -1 -1</clus>
<clus scale="   90.418">  7  8 -1 -1</clus>
<clus scale="  492.438">  2  5  1 -1</clus>
<clus scale="   46.037">  2  5  1 -1</clus>
</clustering>
</event>
<event>
 9    2  0.6469128E-005  0.1487404E+03  0.7546771E-02  0.1202141E+00
          2   -1    0    0  502    0 -0.00000000000E+00  0.00000000000E+00  0.38401711023E+03  0.38401711023E+03  0.00000000000E+00 0. -1.
         21   -1    0    0  501  502  0.00000000000E+00 -0.00000000000E+00 -0.16706402336E+03  0.16706402336E+03  0.00000000000E+00 0. -1.
         24    2    1    2    0    0  0.12006754883E+03 -0.57450060574E+02  0.31073638537E+03  0.34708022413E+03  0.78681986813E+02 0.  0.
         23    2    1    2    0    0 -0.64263887820E+02  0.68584102526E+02 -0.52725448622E+02  0.13383138254E+03  0.79355148683E+02 0.  0.
        -13    1    3    3    0    0  0.39770718785E+02 -0.44614747306E+02  0.65294275435E+02  0.88518518709E+02  0.00000000000E+00 0.  1.
         14    1    3    3    0    0  0.80296830041E+02 -0.12835313268E+02  0.24544210993E+03  0.25856170542E+03  0.00000000000E+00 0. -1.
        -13    1    4    4    0    0 -0.35601639443E+02 -0.17481371713E+01  0.80705117999E+01  0.36546762857E+02  0.00000000000E+00 0.  1.
         13    1    4    4    0    0 -0.28662248377E+02  0.70332239697E+02 -0.60795960422E+02  0.97284619681E+02  0.00000000000E+00 0. -1.
          1    1    1    2  501    0 -0.55803661007E+02 -0.11134041952E+02 -0.41057849873E+02  0.70169526920E+02  0.00000000000E+00 0. -1.
<scales pt_clust_5="13000.00000" pt_clust_6="13000.00000" pt_clust_7="13000.00000" pt_clust_8="13000.00000" pt_clust_9="56.90356"></scales>
<clustering>
<clus scale="   56.904">  2  9  1 -1</clus>
<clus scale="   78.682">  5  6 -1 -1</clus>
<clus scale="   79.355">  7  8 -1 -1</clus>
<clus scale="  148.382">  1  5  2 -1</clus>
<clus scale="   56.904">  2  5  1 -1</clus>
</clustering>
</event>
<event>
 9    2  0.6469128E-005  0.4541854E+03  0.7546771E-02  0.1054221E+00
          2   -1    0    0  502    0 -0.00000000000E+00  0.00000000000E+00  0.10617405696E+04  0.10617405696E+04  0.00000000000E+00 0. -1.
         21   -1    0    0  501  502  0.00000000000E+00 -0.00000000000E+00 -0.98385155027E+03  0.98385155027E+03  0.00000000000E+00 0. -1.
         24    2    1    2    0    0  0.62434227360E+02  0.17405092047E+03 -0.28473883305E+03  0.34953445639E+03  0.83104617782E+02 0.  0.
         23    2    1    2    0    0 -0.34600702911E+03 -0.49889440923E+03  0.84793264308E+03  0.10468600311E+04  0.91157345665E+02 0.  0.
        -13    1    3    3    0    0  0.61697669821E+02  0.55120546505E+02 -0.99516525321E+02  0.12941567108E+03  0.00000000000E+00 0.  1.
         14    1    3    3    0    0  0.73655753900E+00  0.11893037397E+03 -0.18522230773E+03  0.22011878531E+03  0.00000000000E+00 0. -1.
        -11    1    4    4    0    0 -0.32069279779E+03 -0.40733824440E+03  0.73177052643E+03  0.89680344516E+03  0.00000000000E+00 0. -1.
         11    1    4    4    0    0 -0.25314231328E+02 -0.91556164831E+02  0.11616211665E+03  0.15005658590E+03  0.00000000000E+00 0.  1.
          1    1    1    2  501    0  0.28357280176E+03  0.32484348876E+03 -0.48530479069E+03  0.64919763243E+03  0.00000000000E+00 0. -1.
<scales pt_clust_5="13000.00000" pt_clust_6="13000.00000" pt_clust_7="13000.00000" pt_clust_8="13000.00000" pt_clust_9="444.94350"></scales>
<clustering>
<clus scale="   83.105">  5  6 -1 -1</clus>
<clus scale="   91.157">  7  8 -1 -1</clus>
<clus scale="  202.727">  1  5  2 -1</clus>
<clus scale="  444.943">  2  9  1 -1</clus>
<clus scale="  444.943">  2  5  1 -1</clus>
</clustering>
</event>
<event>
 9    2  0.6469128E-005  0.1150923E+03  0.7546771E-02  0.1257516E+00
         21   -1    0    0  501  502  0.00000000000E+00  0.00000000000E+00  0.72226806782E+02  0.72226806782E+02  0.00000000000E+00 0. -1.
          2   -1    0    0  502    0 -0.00000000000E+00 -0.00000000000E+00 -0.36895992658E+03  0.36895992658E+03  0.00000000000E+00 0. -1.
         23    2    1    2    0    0  0.55650879718E+02  0.61070991923E+02 -0.20338645987E+03  0.23871954479E+03  0.93777836073E+02 0.  0.
         24    2    1    2    0    0  0.12310382766E+02 -0.45198877905E+02 -0.56914752876E+01  0.90422159247E+02  0.77131640098E+02 0.  0.
        -13    1    4    4    0    0  0.28788713016E+02 -0.42463407118E+02 -0.31116169801E+02  0.60001224689E+02  0.00000000000E+00 0.  1.
         14    1    4    4    0    0 -0.16478330250E+02 -0.27354707874E+01  0.25424694513E+02  0.30420934558E+02  0.00000000000E+00 0. -1.
        -11    1    3    3    0    0  0.10408105018E+02  0.64249185256E+02 -0.60701445049E+02  0.88999729703E+02  0.00000000000E+00 0.  1.
         11    1    3    3    0    0  0.45242774700E+02 -0.31781933334E+01 -0.14268501482E+03  0.14971981508E+03  0.00000000000E+00 0. -1.
          1    1    1    2  501    0 -0.67961262484E+02 -0.15872114018E+02 -0.87655184642E+02  0.11204502932E+03  0.00000000000E+00 0. -1.
<scales pt_clust_5="13000.00000" pt_clust_6="13000.00000" pt_clust_7="13000.00000" pt_clust_8="13000.00000" pt_clust_9="69.79013"></scales>
<clustering>
<clus scale="   69.790">  1  9  2 -1</clus>
<clus scale="   77.132">  5  6 -1 -1</clus>
<clus scale="   93.778">  7  8 -1 -1</clus>
<clus scale="  101.986">  1  5  2 -1</clus>
<clus scale="   69.790">  1  5  2 -1</clus>
</clustering>
</event>
<event>
 9    2  0.6469128E-005  0.9508158E+02  0.7546771E-02  0.1294151E+00
         21   -1    0    0  501  502  0.00000000000E+00  0.00000000000E+00  0.66370627105E+02  0.66370627105E+02  0.00000000000E+00 0.  1.
          2   -1    0    0  502    0 -0.00000000000E+00 -0.00000000000E+00 -0.19824166063E+03  0.19824166063E+03  0.00000000000E+00 0. -1.
         24    2    1    2    0    0 -0.25163925241E+02  0.36840896775E+01 -0.94023212166E+02  0.12894918299E+03  0.84502850351E+02 0.  0.
         23    2    1    2    0    0  0.37988943852E+02  0.20355696174E+02 -0.41280742274E+02  0.10820081511E+03  0.90254099549E+02 0.  0.
        -13    1    3    3    0    0  0.19854664613E+02 -0.71266901543E+01 -0.76647781021E+02  0.79497671381E+02  0.00000000000E+00 0.  1.
         14    1    3    3    0    0 -0.45018589854E+02  0.10810779832E+02 -0.17375431145E+02  0.49451511609E+02  0.00000000000E+00 0. -1.
        -11    1    4    4    0    0 -0.15859996750E+02 -0.24265814345E+02 -0.50047066862E+01  0.29417959340E+02  0.00000000000E+00 0.  1.
         11    1    4    4    0    0  0.53848940602E+02  0.44621510518E+02 -0.36276035588E+02  0.78782855767E+02  0.00000000000E+00 0. -1.
          1    1    1    2  501    0 -0.12825018611E+02 -0.24039785851E+02  0.34329209145E+01  0.27462289638E+02  0.00000000000E+00 0. -1.
<scales pt_clust_5="13000.00000" pt_clust_6="13000.00000" pt_clust_7="13000.00000" pt_clust_8="13000.00000" pt_clust_9="27.24688"></scales>
<clustering>
<clus scale="   27.247">  1  9  2 -1</clus>
<clus scale="   84.503">  5  6 -1 -1</clus>
<clus scale="   89.641">  2  5  1 -1</clus>
<clus scale="   90.254">  7  8 -1 -1</clus>
<clus scale="   27.247">  1  5  2 -1</clus>
</clustering>
</event>
<event>
 9    2  0.6469128E-005  0.9569955E+02  0.7546771E-02  0.1296433E+00
          2   -1    0    0  502    0 -0.00000000000E+00  0.00000000000E+00  0.41706900177E+03  0.41706900177E+03  0.00000000000E+00 0. -1.
         21   -1    0    0  501  502  0.00000000000E+00 -0.00000000000E+00 -0.29898090582E+02  0.29898090582E+02  0.00000000000E+00 0.  1.
         24    2    1    2    0    0  0.20433885930E+02  0.12190376513E+02  0.24126483906E+03  0.25587857824E+03  0.81847267905E+02 0.  0.
         23    2    1    2    0    0  0.26587204218E+00 -0.19797068466E+02  0.13748340517E+03  0.16748167058E+03  0.93575791085E+02 0.  0.
        -11    1    3    3    0    0  0.13350256776E+02 -0.34810244036E+02  0.93578900930E+02  0.10073228452E+03  0.00000000000E+00 0.  1.
         12    1    3    3    0    0  0.70836291541E+01  0.47000620549E+02  0.14768593813E+03  0.15514629372E+03  0.00000000000E+00 0. -1.
        -11    1    4    4    0    0  0.30539321521E+01 -0.47252561999E+02  0.28961473491E+02  0.55505838106E+02  0.00000000000E+00 0.  1.
         11    1    4    4    0    0 -0.27880601099E+01  0.27455493533E+02  0.10852193168E+03  0.11197583248E+03  0.00000000000E+00 0. -1.
          1    1    1    2  501    0 -0.20699757973E+02  0.76066919538E+01  0.84226669631E+01  0.23606843528E+02  0.00000000000E+00 0. -1.
<scales pt_clust_5="13000.00000" pt_clust_6="13000.00000" pt_clust_7="13000.00000" pt_clust_8="13000.00000" pt_clust_9="22.05316"></scales>
<clustering>
<clus scale="   22.053">  2  9  1 -1</clus>
<clus scale="   81.847">  5  6 -1 -1</clus>
<clus scale="   84.267">  1  5  2 -1</clus>
<clus scale="   93.576">  7  8 -1 -1</clus>
<clus scale="   22.053">  2  5  1 -1</clus>
</clustering>
</event>
<event>
 9    2  0.6469128E-005  0.1345379E+03  0.7546771E-02  0.1223657E+00
         -1   -1    0    0    0  501 -0.00000000000E+00  0.00000000000E+00  0.76529219762E+03  0.76529219762E+03  0.00000000000E+00 0.  1.
         21   -1    0    0  501  502  0.00000000000E+00 -0.00000000000E+00 -0.49400720083E+02  0.49400720083E+02  0.00000000000E+00 0.  1.
         24    2    1    2    0    0  0.76808623444E+02  0.11996355735E+03  0.30515350499E+03  0.34620049072E+03  0.80282616066E+02 0.  0.
         23    2    1    2    0    0 -0.19503151432E+02 -0.47578416636E+02  0.10325445575E+03  0.14744782132E+03  0.91843882403E+02 0.  0.
        -13    1    3    3    0    0  0.83375096485E+02  0.92255799632E+02  0.28605539046E+03  0.31191381132E+03  0.00000000000E+00 0.  1.
         14    1    3    3    0    0 -0.65664730417E+01  0.27707757719E+02  0.19098114526E+02  0.34286679403E+02  0.00000000000E+00 0. -1.
        -11    1    4    4    0    0 -0.44262182867E+02 -0.23743896557E+02  0.10124778026E+03  0.11302223880E+03  0.00000000000E+00 0. -1.
         11    1    4    4    0    0  0.24759031435E+02 -0.23834520079E+02  0.20066754816E+01  0.34425582515E+02  0.00000000000E+00 0.  1.
         -2    1    1    2    0  502 -0.57305472011E+02 -0.72385140714E+02  0.30748351681E+03  0.32104460566E+03  0.00000000000E+00 0.  1.
<scales pt_clust_5="13000.00000" pt_clust_6="13000.00000" pt_clust_7="13000.00000" pt_clust_8="13000.00000" pt_clust_9="92.32299"></scales>
<clustering>
<clus scale="   80.283">  5  6 -1 -1</clus>
<clus scale="   91.844">  7  8 -1 -1</clus>
<clus scale="   92.323">  2  9  1 -1</clus>
<clus scale="  126.927">  1  5  2 -1</clus>
<clus scale="   92.323">  2  5  1 -1</clus>
</clustering>
</event>
<event>
 9    2  0.6469128E-005  0.1147183E+03  0.7546771E-02  0.1255479E+00
          2   -1    0    0  502    0 -0.00000000000E+00  0.00000000000E+00  0.89213959605E+03  0.89213959605E+03  0.00000000000E+00 0. -1.
         21   -1    0    0  501  502  0.00000000000E+00 -0.00000000000E+00 -0.48645791909E+02  0.48645791909E+02  0.00000000000E+00 0.  1.
         24    2    1    2    0    0  0.55369229656E+02  0.64448070009E+02  0.45739119030E+03  0.47192742053E+03  0.79306266859E+02 0.  0.
         23    2    1    2    0    0  0.36175196040E+02 -0.40380989206E+02  0.42902381053E+02  0.11284391428E+03  0.89184447031E+02 0.  0.
        -11    1    3    3    0    0  0.15629145564E+02  0.65112271529E+02  0.18693346387E+03  0.19856484585E+03  0.00000000000E+00 0.  1.
         12    1    3    3    0    0  0.39740084092E+02 -0.66420152045E+00  0.27045772643E+03  0.27336257468E+03  0.00000000000E+00 0. -1.
        -11    1    4    4    0    0 -0.19602630306E+02 -0.41308501554E+02  0.32498758075E+02  0.56096565777E+02  0.00000000000E+00 0. -1.
         11    1    4    4    0    0  0.55777826346E+02  0.92751234803E+00  0.10403622978E+02  0.56747348502E+02  0.00000000000E+00 0.  1.
          1    1    1    2  501    0 -0.91544425696E+02 -0.24067080802E+02  0.34320023279E+03  0.35601405315E+03  0.00000000000E+00 0. -1.
<scales pt_clust_5="13000.00000" pt_clust_6="13000.00000" pt_clust_7="13000.00000" pt_clust_8="13000.00000" pt_clust_9="94.65524"></scales>
<clustering>
<clus scale="   79.306">  5  6 -1 -1</clus>
<clus scale="   89.184">  7  8 -1 -1</clus>
<clus scale="   94.655">  2  9  1 -1</clus>
<clus scale="  107.219">  1  5  2 -1</clus>
<clus scale="   94.655">  2  5  1 -1</clus>
</clustering>
</event>
<event>
 9    2  0.6469128E-005  0.9745971E+02  0.7546771E-02  0.1293536E+00
         21   -1    0    0  501  502  0.00000000000E+00  0.00000000000E+00  0.16975072474E+03  0.16975072474E+03  0.00000000000E+00 0.  1.
          2   -1    0    0  502    0 -0.00000000000E+00 -0.00000000000E+00 -0.75968822254E+02  0.75968822254E+02  0.00000000000E+00 0. -1.
         24    2    1    2    0    0  0.33976009262E+02 -0.29024002011E+02  0.13093549616E+02  0.90573685547E+02  0.77687769783E+02 0.  0.
         23    2    1    2    0    0 -0.11076721540E+02  0.15853197484E+01  0.74602909017E+02  0.11889270587E+03  0.91894909956E+02 0.  0.
        -11    1    3    3    0    0  0.46528314869E+02  0.98104449608E+01 -0.50845761030E+00  0.47554047610E+02  0.00000000000E+00 0.  1.
         12    1    3    3    0    0 -0.12552305607E+02 -0.38834446972E+02  0.13602007226E+02  0.43019637937E+02  0.00000000000E+00 0. -1.
        -11    1    4    4    0    0 -0.31610009819E+02  0.12760438172E+02  0.86273686290E+02  0.92764057959E+02  0.00000000000E+00 0.  1.
         11    1    4    4    0    0  0.20533288280E+02 -0.11175118423E+02 -0.11670777272E+02  0.26128647908E+02  0.00000000000E+00 0. -1.
          1    1    1    2  501    0 -0.22899287723E+02  0.27438682263E+02  0.60854438509E+01  0.36253155578E+02  0.00000000000E+00 0. -1.
<scales pt_clust_5="13000.00000" pt_clust_6="13000.00000" pt_clust_7="13000.00000" pt_clust_8="13000.00000" pt_clust_9="35.73877"></scales>
<clustering>
<clus scale="   35.739">  1  9  2 -1</clus>
<clus scale="   77.688">  5  6 -1 -1</clus>
<clus scale="   84.197">  2  5  1 -1</clus>
<clus scale="   91.895">  7  8 -1 -1</clus>
<clus scale="   35.739">  1  5  2 -1</clus>
</clustering>
</event>
<event>
 9    2  0.6469128E-005  0.1268802E+03  0.7546771E-02  0.1236798E+00
         21   -1    0    0  501  502  0.00000000000E+00  0.00000000000E+00  0.67521357668E+03  0.67521357668E+03  0.00000000000E+00 0. -1.
          2   -1    0    0  502    0 -0.00000000000E+00 -0.00000000000E+00 -0.24009823181E+03  0.24009823181E+03  0.00000000000E+00 0. -1.
         24    2    1    2    0    0  0.28827383001E+02 -0.83349811882E+02 -0.16388408130E+03  0.20029823862E+03  0.74048518819E+02 0.  0.
         23    2    1    2    0    0  0.46663162371E+02  0.10553406359E+03  0.42448868420E+02  0.15292862361E+03  0.90941564697E+02 0.  0.
        -13    1    3    3    0    0 -0.25196543483E+02 -0.24639189485E+02 -0.45854392288E+02  0.57832350411E+02  0.00000000000E+00 0.  1.
         14    1    3    3    0    0  0.54023926483E+02 -0.58710622397E+02 -0.11802968901E+03  0.14246588821E+03  0.00000000000E+00 0. -1.
        -13    1    4    4    0    0 -0.17091540656E+02  0.68559663431E+02  0.35003466936E+02  0.78852970199E+02  0.00000000000E+00 0.  1.
         13    1    4    4    0    0  0.63754703027E+02  0.36974400158E+02  0.74454014844E+01  0.74075653412E+02  0.00000000000E+00 0. -1.
          1    1    1    2  501    0 -0.75490545371E+02 -0.22184251707E+02  0.55655055776E+03  0.56208494625E+03  0.00000000000E+00 0. -1.
<scales pt_clust_5="13000.00000" pt_clust_6="13000.00000" pt_clust_7="13000.00000" pt_clust_8="13000.00000" pt_clust_9="78.68268"></scales>
<clustering>
<clus scale="   74.049">  5  6 -1 -1</clus>
<clus scale="   78.683">  1  9  2 -1</clus>
<clus scale="   90.942">  7  8 -1 -1</clus>
<clus scale="  115.375">  2  5  1 -1</clus>
<clus scale="   78.683">  1  5  2 -1</clus>
</clustering>
</event>
<event>
 9    2  0.6469128E-005  0.1013710E+03  0.7546771E-02  0.1284636E+00
         21   -1    0    0  501  502  0.00000000000E+00  0.00000000000E+00  0.58747180363E+02  0.58747180363E+02  0.00000000000E+00 0.  1.
          2   -1    0    0  502    0 -0.00000000000E+00 -0.00000000000E+00 -0.27650605743E+03  0.27650605743E+03  0.00000000000E+00 0. -1.
         23    2    1    2    0    0  0.10535887993E+02 -0.23304851813E+02 -0.17248761486E+03  0.19904029053E+03  0.95973636591E+02 0.  0.
         24    2    1    2    0    0 -0.26136236783E+02  0.39239418676E+02 -0.57459634983E+02  0.11079960953E+03  0.82171217399E+02 0.  0.
        -13    1    4    4    0    0 -0.11313099761E+02  0.19672105235E+02  0.19561903811E+02  0.29960741501E+02  0.00000000000E+00 0.  1.
         14    1    4    4    0    0 -0.14823137022E+02  0.19567313441E+02 -0.77021538793E+02  0.80838868031E+02  0.00000000000E+00 0. -1.
        -11    1    3    3    0    0 -0.24870475235E+02 -0.39594694464E+02 -0.14217390329E+03  0.14966529038E+03  0.00000000000E+00 0. -1.
         11    1    3    3    0    0  0.35406363228E+02  0.16289842651E+02 -0.30313711570E+02  0.49375000150E+02  0.00000000000E+00 0.  1.
          1    1    1    2  501    0  0.15600348790E+02 -0.15934566863E+02  0.12188372778E+02  0.25413337727E+02  0.00000000000E+00 0. -1.
<scales pt_clust_5="13000.00000" pt_clust_6="13000.00000" pt_clust_7="13000.00000" pt_clust_8="13000.00000" pt_clust_9="22.29981"></scales>
<clustering>
<clus scale="   22.300">  1  9  2 -1</clus>
<clus scale="   82.171">  5  6 -1 -1</clus>
<clus scale="   88.415">  1  5  2 -1</clus>
<clus scale="   95.974">  7  8 -1 -1</clus>
<clus scale="   22.300">  1  5  2 -1</clus>
</clustering>
</event>
<event>
 9    2  0.6469128E-005  0.9733424E+02  0.7546771E-02  0.1291729E+00
          2   -1    0    0  502    0 -0.00000000000E+00  0.00000000000E+00  0.10582136292E+03  0.10582136292E+03  0.00000000000E+00 0. -1.
         21   -1    0    0  501  502  0.00000000000E+00 -0.00000000000E+00 -0.18457739751E+03  0.18457739751E+03  0.00000000000E+00 0. -1.
         24    2    1    2    0    0 -0.52238939875E+02 -0.48050267151E+01  0.23113356545E+02  0.10005411481E+03  0.82003679908E+02 0.  0.
         23    2    1    2    0    0 -0.66927086870E+01  0.94511648845E+00 -0.30336235560E+02  0.97582420256E+02  0.92500572757E+02 0.  0.
        -13    1    3    3    0    0  0.57323995079E+00 -0.35161615717E+02  0.78287192147E+00  0.35175001242E+02  0.00000000000E+00 0.  1.
         14    1    3    3    0    0 -0.52812179825E+02  0.30356589002E+02  0.22330484623E+02  0.64879113567E+02  0.00000000000E+00 0. -1.
        -11    1    4    4    0    0 -0.19903565956E+02 -0.31740480408E+02 -0.45727014814E+02  0.59114887448E+02  0.00000000000E+00 0. -1.
         11    1    4    4    0    0  0.13210857269E+02  0.32685596896E+02  0.15390779254E+02  0.38467532808E+02  0.00000000000E+00 0.  1.
          1    1    1    2  501    0  0.58931648562E+02  0.38599102267E+01 -0.71533155578E+02  0.92762225372E+02  0.00000000000E+00 0. -1.
<scales pt_clust_5="13000.00000" pt_clust_6="13000.00000" pt_clust_7="13000.00000" pt_clust_8="13000.00000" pt_clust_9="59.05792"></scales>
<clustering>
<clus scale="   59.058">  2  9  1 -1</clus>
<clus scale="   82.004">  5  6 -1 -1</clus>
<clus scale="   87.420">  1  5  2 -1</clus>
<clus scale="   92.501">  7  8 -1 -1</clus>
<clus scale="   59.058">  2  5  1 -1</clus>
</clustering>
</event>
<event>
 9    2  0.6469128E-005  0.1352043E+03  0.7546771E-02  0.1222044E+00
         -3   -1    0    0    0  501 -0.00000000000E+00  0.00000000000E+00  0.31909584653E+03  0.31909584653E+03  0.00000000000E+00 0.  1.
         21   -1    0    0  501  502  0.00000000000E+00 -0.00000000000E+00 -0.10573080063E+03  0.10573080063E+03  0.00000000000E+00 0.  1.
         23    2    1    2    0    0 -0.73035057123E+01  0.70347177621E+02  0.24180906626E+02  0.11810012115E+03  0.91437715275E+02 0.  0.
         24    2    1    2    0    0  0.66282561172E+02 -0.11496842670E+03  0.81948201367E+02  0.17646090801E+03  0.82533794875E+02 0.  0.
        -11    1    4    4    0    0  0.51979256336E+02 -0.12708955447E+03  0.75074335706E+02  0.15649202480E+03  0.00000000000E+00 0.  1.
         12    1    4    4    0    0  0.14303304836E+02  0.12121127770E+02  0.68738656617E+01  0.19968883214E+02  0.00000000000E+00 0. -1.
        -11    1    3    3    0    0  0.18271918334E+01  0.23566329709E+02  0.56005026352E+02  0.60788761318E+02  0.00000000000E+00 0. -1.
         11    1    3    3    0    0 -0.91306975457E+01  0.46780847912E+02 -0.31824119726E+02  0.57311359828E+02  0.00000000000E+00 0.  1.
         -4    1    1    2    0  502 -0.58979055460E+02  0.44621249077E+02  0.10723593791E+03  0.13026561800E+03  0.00000000000E+00 0.  1.
<scales pt_clust_5="13000.00000" pt_clust_6="13000.00000" pt_clust_7="13000.00000" pt_clust_8="13000.00000" pt_clust_9="73.95668"></scales>
<clustering>
<clus scale="   73.957">  2  9  1 -1</clus>
<clus scale="   82.534">  5  6 -1 -1</clus>
<clus scale="   91.438">  7  8 -1 -1</clus>
<clus scale="  129.349">  2  5  1 -1</clus>
<clus scale="   73.957">  2  5  1 -1</clus>
</clustering>
</event>
<event>
 9    2  0.6469128E-005  0.1433352E+03  0.7546771E-02  0.1212855E+00
          2   -1    0    0  502    0 -0.00000000000E+00  0.00000000000E+00  0.13215535893E+03  0.13215535893E+03  0.00000000000E+00 0. -1.
         21   -1    0    0  501  502  0.00000000000E+00 -0.00000000000E+00 -0.38534171278E+03  0.38534171278E+03  0.00000000000E+00 0.  1.
         24    2    1    2    0    0 -0.10396819409E+03 -0.24744927348E+02  0.71909397534E+02  0.15218686933E+03  0.81044339299E+02 0.  0.
         23    2    1    2    0    0  0.82054514316E+02  0.30467214651E+02 -0.21004071451E+03  0.24804718415E+03  0.98737578091E+02 0.  0.
        -13    1    3    3    0    0 -0.49587239733E+02  0.28813181787E+02  0.24725855891E+02  0.62453676742E+02  0.00000000000E+00 0.  1.
         14    1    3    3    0    0 -0.54380954356E+02 -0.53558109135E+02  0.47183541643E+02  0.89733192592E+02  0.00000000000E+00 0. -1.
        -13    1    4    4    0    0  0.98607631330E+02  0.87561385361E+01 -0.18978331758E+03  0.21405102791E+03  0.00000000000E+00 0.  1.
         13    1    4    4    0    0 -0.16553117014E+02  0.21711076114E+02 -0.20257396930E+02  0.33996156243E+02  0.00000000000E+00 0. -1.
          1    1    1    2  501    0  0.21913679774E+02 -0.57222873028E+01 -0.11505503688E+03  0.11726301823E+03  0.00000000000E+00 0. -1.
<scales pt_clust_5="13000.00000" pt_clust_6="13000.00000" pt_clust_7="13000.00000" pt_clust_8="13000.00000" pt_clust_9="22.64849"></scales>
<clustering>
<clus scale="   22.648">  2  9  1 -1</clus>
<clus scale="   81.044">  5  6 -1 -1</clus>
<clus scale="   98.738">  7  8 -1 -1</clus>
<clus scale="  131.773">  1  5  2 -1</clus>
<clus scale="   22.648">  2  5  1 -1</clus>
</clustering>
</event>
<event>
 9    2  0.6469128E-005  0.1499487E+03  0.7546771E-02  0.1225453E+00
          2   -1    0    0  502    0 -0.00000000000E+00  0.00000000000E+00  0.33957283522E+03  0.33957283522E+03  0.00000000000E+00 0. -1.
         21   -1    0    0  501  502  0.00000000000E+00 -0.00000000000E+00 -0.10185617518E+03  0.10185617518E+03  0.00000000000E+00 0. -1.
         24    2    1    2    0    0 -0.18936252893E+02  0.22166307421E+02  0.10726599192E+02  0.88959297863E+02  0.83359281953E+02 0.  0.
         23    2    1    2    0    0 -0.10615923418E+03 -0.41710912140E+01  0.14156505183E+03  0.19992417554E+03  0.92961449338E+02 0.  0.
        -13    1    3    3    0    0  0.11971184916E+01  0.29044686397E+02  0.42034072269E+02  0.51106654480E+02  0.00000000000E+00 0.  1.
         14    1    3    3    0    0 -0.20133371384E+02 -0.68783789758E+01 -0.31307473077E+02  0.37852643383E+02  0.00000000000E+00 0. -1.
        -13    1    4    4    0    0 -0.74521058065E+02  0.31405072285E+02  0.12621865195E+03  0.14990268430E+03  0.00000000000E+00 0. -1.
         13    1    4    4    0    0 -0.31638176114E+02 -0.35576163499E+02  0.15346399889E+02  0.50021491248E+02  0.00000000000E+00 0.  1.
          1    1    1    2  501    0  0.12509548707E+03 -0.17995216207E+02  0.85425009015E+02  0.15254553700E+03  0.00000000000E+00 0. -1.
<scales pt_clust_5="13000.00000" pt_clust_6="13000.00000" pt_clust_7="13000.00000" pt_clust_8="13000.00000" pt_clust_9="117.65531"></scales>
<clustering>
<clus scale="   83.359">  5  6 -1 -1</clus>
<clus scale="   88.310">  1  5  2 -1</clus>
<clus scale="   92.961">  7  8 -1 -1</clus>
<clus scale="  117.655">  2  9  1 -1</clus>
<clus scale="  117.655">  2  5  1 -1</clus>
</clustering>
</event>
<event>
 9    2  0.6469128E-005  0.1427179E+03  0.7546771E-02  0.1212740E+00
          2   -1    0    0  502    0 -0.00000000000E+00  0.00000000000E+00  0.23512744749E+03  0.23512744749E+03  0.00000000000E+00 0. -1.
         21   -1    0    0  501  502  0.00000000000E+00 -0.00000000000E+00 -0.17034976052E+03  0.17034976052E+03  0.00000000000E+00 0. -1.
         24    2    1    2    0    0  0.77080574876E+02 -0.83774154142E+02  0.10744888941E+03  0.17446346438E+03  0.77024104292E+02 0.  0.
         23    2    1    2    0    0 -0.64356156693E+01  0.11717908616E+03 -0.29002105943E+02  0.15168251432E+03  0.91619362691E+02 0.  0.
        -13    1    3    3    0    0  0.36552920352E+02 -0.25524655020E+01  0.64187813875E+02  0.73910124587E+02  0.00000000000E+00 0.  1.
         14    1    3    3    0    0  0.40527654525E+02 -0.81221688640E+02  0.43261075534E+02  0.10055333979E+03  0.00000000000E+00 0. -1.
        -11    1    4    4    0    0 -0.33386345152E+02  0.71314194064E+01 -0.15792682477E+02  0.37615342684E+02  0.00000000000E+00 0.  1.
         11    1    4    4    0    0  0.26950729483E+02  0.11004766675E+03 -0.13209423465E+02  0.11406717164E+03  0.00000000000E+00 0. -1.
          1    1    1    2  501    0 -0.70644959207E+02 -0.33404932017E+02 -0.13669096505E+02  0.79331229309E+02  0.00000000000E+00 0. -1.
<scales pt_clust_5="13000.00000" pt_clust_6="13000.00000" pt_clust_7="13000.00000" pt_clust_8="13000.00000" pt_clust_9="78.14474"></scales>
<clustering>
<clus scale="   77.024">  5  6 -1 -1</clus>
<clus scale="   78.145">  2  9  1 -1</clus>
<clus scale="   91.619">  7  8 -1 -1</clus>
<clus scale="  133.817">  1  5  2 -1</clus>
<clus scale="   78.145">  2  5  1 -1</clus>
</clustering>
</event>
<event>
 9    2  0.6469128E-005  0.1734845E+03  0.7546771E-02  0.1204762E+00
         21   -1    0    0  501  502  0.00000000000E+00  0.00000000000E+00  0.49450676693E+02  0.49450676693E+02  0.00000000000E+00 0.  1.
          2   -1    0    0  502    0 -0.00000000000E+00 -0.00000000000E+00 -0.91804211412E+03  0.91804211412E+03  0.00000000000E+00 0. -1.
         24    2    1    2    0    0  0.35438051792E+02 -0.13577355222E+02 -0.15962147885E+03  0.18245048984E+03  0.79805793294E+02 0.  0.
         23    2    1    2    0    0 -0.13894067785E+03 -0.84514837941E+02 -0.48658395918E+03  0.52086356471E+03  0.89931273350E+02 0.  0.
        -11    1    3    3    0    0 -0.79516603673E+01 -0.33250849364E+02 -0.10259851254E+03  0.10814482263E+03  0.00000000000E+00 0.  1.
         12    1    3    3    0    0  0.43389712160E+02  0.19673494142E+02 -0.57022966311E+02  0.74305667213E+02  0.00000000000E+00 0. -1.
        -13    1    4    4    0    0  0.59161674720E+01 -0.20616869382E+02 -0.11457309692E+03  0.11656350577E+03  0.00000000000E+00 0. -1.
         13    1    4    4    0    0 -0.14485684532E+03 -0.63897968559E+02 -0.37201086226E+03  0.40430005894E+03  0.00000000000E+00 0.  1.
          1    1    1    2  501    0  0.10350262606E+03  0.98092193164E+02 -0.22238599940E+03  0.26417873626E+03  0.00000000000E+00 0. -1.
<scales pt_clust_5="13000.00000" pt_clust_6="13000.00000" pt_clust_7="13000.00000" pt_clust_8="13000.00000" pt_clust_9="148.35516"></scales>
<clustering>
<clus scale="   79.806">  5  6 -1 -1</clus>
<clus scale="   88.370">  2  5  1 -1</clus>
<clus scale="   89.931">  7  8 -1 -1</clus>
<clus scale="  148.355">  1  9  2 -1</clus>
<clus scale="  148.355">  1  5  2 -1</clus>
</clustering>
</event>
<event>
 9    2  0.6469128E-005  0.1652338E+03  0.7546771E-02  0.1207665E+00
         21   -1    0    0  501  502  0.00000000000E+00  0.00000000000E+00  0.69185964005E+03  0.69185964005E+03  0.00000000000E+00 0. -1.
          2   -1    0    0  502    0 -0.00000000000E+00 -0.00000000000E+00 -0.72036335520E+02  0.72036335520E+02  0.00000000000E+00 0. -1.
         24    2    1    2    0    0 -0.29292220233E+02 -0.42537617391E+02  0.31074132005E+03  0.32526055988E+03  0.81035675924E+02 0.  0.
         23    2    1    2    0    0  0.83357859967E+02 -0.96380766887E+02  0.11375630467E+03  0.19292515525E+03  0.89676271282E+02 0.  0.
        -11    1    3    3    0    0  0.10388070593E+02 -0.53284007974E+02  0.15713821325E+03  0.16625136264E+03  0.00000000000E+00 0.  1.
         12    1    3    3    0    0 -0.39680290826E+02  0.10746390583E+02  0.15360310679E+03  0.15900919724E+03  0.00000000000E+00 0. -1.
        -13    1    4    4    0    0  0.25188102625E+02  0.15272808683E+02  0.15932422872E+02  0.33489420681E+02  0.00000000000E+00 0.  1.
         13    1    4    4    0    0  0.58169757342E+02 -0.11165357557E+03  0.97823881798E+02  0.15943573457E+03  0.00000000000E+00 0. -1.
          1    1    1    2  501    0 -0.54065639734E+02  0.13891838428E+03  0.19532567981E+03  0.24571026044E+03  0.00000000000E+00 0. -1.
<scales pt_clust_5="13000.00000" pt_clust_6="13000.00000" pt_clust_7="13000.00000" pt_clust_8="13000.00000" pt_clust_9="138.78173"></scales>
<clustering>
<clus scale="   81.036">  5  6 -1 -1</clus>
<clus scale="   89.676">  7  8 -1 -1</clus>
<clus scale="   96.095">  2  5  1 -1</clus>
<clus scale="  138.782">  1  9  2 -1</clus>
<clus scale="  138.782">  1  5  2 -1</clus>
</clustering>
</event>
<event>
 9    2  0.6469128E-005  0.1045063E+03  0.7546771E-02  0.1276889E+00
         21   -1    0    0  501  502  0.00000000000E+00  0.00000000000E+00  0.11815943867E+03  0.11815943867E+03  0.00000000000E+00 0.  1.
         -3   -1    0    0    0  501 -0.00000000000E+00 -0.00000000000E+00 -0.25134415207E+03  0.25134415207E+03  0.00000000000E+00 0.  1.
         23    2    1    2    0    0  0.40056195551E+01  0.47303539034E+02 -0.16365875550E+03  0.19310569492E+03  0.90840251894E+02 0.  0.
         24    2    1    2    0    0  0.25082443230E+02 -0.62526158923E+02 -0.30257779928E+02  0.10736024118E+03  0.77923286841E+02 0.  0.
        -13    1    4    4    0    0 -0.89378633940E+00 -0.72406894358E+02 -0.32715511767E+02  0.79459813206E+02  0.00000000000E+00 0.  1.
         14    1    4    4    0    0  0.25976229569E+02  0.98807354345E+01  0.24577318387E+01  0.27900427975E+02  0.00000000000E+00 0. -1.
        -13    1    3    3    0    0 -0.27878500802E+02  0.61550884856E+01 -0.90208538559E+01  0.29941137679E+02  0.00000000000E+00 0.  1.
         13    1    3    3    0    0  0.31884120357E+02  0.41148450549E+02 -0.15463790164E+03  0.16316455724E+03  0.00000000000E+00 0. -1.
         -4    1    1    2    0  502 -0.29088062785E+02  0.15222619889E+02  0.60731822024E+02  0.69037654648E+02  0.00000000000E+00 0.  1.
<scales pt_clust_5="13000.00000" pt_clust_6="13000.00000" pt_clust_7="13000.00000" pt_clust_8="13000.00000" pt_clust_9="32.83053"></scales>
<clustering>
<clus scale="   32.831">  1  9  2 -1</clus>
<clus scale="   77.923">  5  6 -1 -1</clus>
<clus scale="   90.840">  7  8 -1 -1</clus>
<clus scale="   93.497">  1  5  2 -1</clus>
<clus scale="   32.831">  1  5  2 -1</clus>
</clustering>
</event>
<event>
 9    2  0.6469128E-005  0.1931832E+03  0.7546771E-02  0.1191143E+00
         21   -1    0    0  501  502  0.00000000000E+00  0.00000000000E+00  0.81213752182E+02  0.81213752182E+02  0.00000000000E+00 0. -1.
          2   -1    0    0  502    0 -0.00000000000E+00 -0.00000000000E+00 -0.70008187118E+03  0.70008187118E+03  0.00000000000E+00 0. -1.
         24    2    1    2    0    0 -0.17372562418E+02 -0.27460196160E+02 -0.54117168781E+02  0.10171085352E+03  0.79753128264E+02 0.  0.
         23    2    1    2    0    0  0.12978997954E+03 -0.10333977314E+03 -0.39137306396E+03  0.43503170999E+03  0.92494140378E+02 0.  0.
        -13    1    3    3    0    0 -0.39880037181E+02  0.95887016800E+01 -0.16137446915E+02  0.44076952690E+02  0.00000000000E+00 0.  1.
         14    1    3    3    0    0  0.22507474763E+02 -0.37048897840E+02 -0.37979721867E+02  0.57633900826E+02  0.00000000000E+00 0. -1.
        -13    1    4    4    0    0  0.85583914078E+02 -0.11467370989E+03 -0.27430423668E+03  0.30938241765E+03  0.00000000000E+00 0.  1.
         13    1    4    4    0    0  0.44206065457E+02  0.11333936753E+02 -0.11706882728E+03  0.12564929234E+03  0.00000000000E+00 0. -1.
          1    1    1    2  501    0 -0.11241741712E+03  0.13079996930E+03 -0.17337788625E+03  0.24455305985E+03  0.00000000000E+00 0. -1.
<scales pt_clust_5="13000.00000" pt_clust_6="13000.00000" pt_clust_7="13000.00000" pt_clust_8="13000.00000" pt_clust_9="169.60121"></scales>
<clustering>
<clus scale="   79.753">  5  6 -1 -1</clus>
<clus scale="   86.119">  2  5  1 -1</clus>
<clus scale="   92.494">  7  8 -1 -1</clus>
<clus scale="  169.601">  1  9  2 -1</clus>
<clus scale="  169.601">  1  5  2 -1</clus>
</clustering>
</event>
<event>
 9    2  0.6469128E-005  0.1056319E+03  0.7546771E-02  0.1274174E+00
          2   -1    0    0  502    0 -0.00000000000E+00  0.00000000000E+00  0.60813358673E+03  0.60813358673E+03  0.00000000000E+00 0. -1.
         21   -1    0    0  501  502  0.00000000000E+00 -0.00000000000E+00 -0.10982680460E+03  0.10982680460E+03  0.00000000000E+00 0. -1.
         24    2    1    2    0    0 -0.31494735818E+02  0.33259181417E+02  0.48970770599E+03  0.49860871460E+03  0.81846939079E+02 0.  0.
         23    2    1    2    0    0  0.49751066245E+02 -0.50451781375E+02  0.81069751109E+02  0.14266479501E+03  0.93596946292E+02 0.  0.
        -11    1    3    3    0    0  0.23204507446E+02  0.15096900498E+01  0.61385704470E+02  0.65642463720E+02  0.00000000000E+00 0.  1.
         12    1    3    3    0    0 -0.54699243265E+02  0.31749491367E+02  0.42832200152E+03  0.43296625089E+03  0.00000000000E+00 0. -1.
        -13    1    4    4    0    0  0.23968140243E+02 -0.15751415245E+02 -0.18490153788E+02  0.34124252608E+02  0.00000000000E+00 0.  1.
         13    1    4    4    0    0  0.25782926002E+02 -0.34700366130E+02  0.99559904897E+02  0.10854054241E+03  0.00000000000E+00 0. -1.
          1    1    1    2  501    0 -0.18256330427E+02  0.17192599958E+02 -0.72470674983E+02  0.76686881711E+02  0.00000000000E+00 0. -1.
<scales pt_clust_5="13000.00000" pt_clust_6="13000.00000" pt_clust_7="13000.00000" pt_clust_8="13000.00000" pt_clust_9="25.07746"></scales>
<clustering>
<clus scale="   25.077">  2  9  1 -1</clus>
<clus scale="   81.847">  5  6 -1 -1</clus>
<clus scale="   93.597">  7  8 -1 -1</clus>
<clus scale="   95.376">  1  5  2 -1</clus>
<clus scale="   25.077">  2  5  1 -1</clus>
</clustering>
</event>
<event>
 9    2  0.6469128E-005  0.1795460E+03  0.7546771E-02  0.1169202E+00
          4   -1    0    0  502    0 -0.00000000000E+00  0.00000000000E+00  0.14704070775E+03  0.14704070775E+03  0.00000000000E+00 0. -1.
         21   -1    0    0  501  502  0.00000000000E+00 -0.00000000000E+00 -0.36073664088E+03  0.36073664088E+03  0.00000000000E+00 0. -1.
         23    2    1    2    0    0 -0.16727945379E+03 -0.66695280860E+02 -0.90009448881E+02  0.21997172145E+03  0.88629460100E+02 0.  0.
         24    2    1    2    0    0  0.11936634359E+03  0.42054643298E+02 -0.16271744557E+03  0.22127561072E+03  0.80430167257E+02 0.  0.
        -11    1    4    4    0    0  0.17252026026E+02 -0.15848028134E+02 -0.63125209827E+02  0.67331898187E+02  0.00000000000E+00 0.  1.
         12    1    4    4    0    0  0.10211431756E+03  0.57902671431E+02 -0.99592235738E+02  0.15394371254E+03  0.00000000000E+00 0. -1.
        -11    1    3    3    0    0 -0.62865127097E+01 -0.33720116127E+02 -0.28171471651E+02  0.44386915737E+02  0.00000000000E+00 0.  1.
         11    1    3    3    0    0 -0.16099294108E+03 -0.32975164733E+02 -0.61837977230E+02  0.17558480571E+03  0.00000000000E+00 0. -1.
          3    1    1    2  501    0  0.47913110207E+02  0.24640637562E+02  0.39030961312E+02  0.66530016459E+02  0.00000000000E+00 0. -1.
<scales pt_clust_5="13000.00000" pt_clust_6="13000.00000" pt_clust_7="13000.00000" pt_clust_8="13000.00000" pt_clust_9="53.87792"></scales>
<clustering>
<clus scale="   53.878">  2  9  1 -1</clus>
<clus scale="   80.430">  5  6 -1 -1</clus>
<clus scale="   88.629">  7  8 -1 -1</clus>
<clus scale="  175.643">  2  5  1 -1</clus>
<clus scale="   53.878">  2  5  1 -1</clus>
</clustering>
</event>
<event>
 9    2  0.6469128E-005  0.9517030E+02  0.7546771E-02  0.1296838E+00
          4   -1    0    0  502    0 -0.00000000000E+00  0.00000000000E+00  0.98268833442E+03  0.98268833442E+03  0.00000000000E+00 0. -1.
         21   -1    0    0  501  502  0.00000000000E+00 -0.00000000000E+00 -0.47656284564E+02  0.47656284564E+02  0.00000000000E+00 0. -1.
         24    2    1    2    0    0  0.14689815006E+02 -0.13394960488E+02  0.69767083211E+03  0.70261379592E+03  0.80785769889E+02 0.  0.
         23    2    1    2    0    0 -0.45922427003E+02  0.30446139989E+02  0.26303120025E+03  0.28385410057E+03  0.91388737602E+02 0.  0.
        -11    1    3    3    0    0 -0.26506411119E+02 -0.68978215304E+01  0.10622003467E+03  0.10969441890E+03  0.00000000000E+00 0.  1.
         12    1    3    3    0    0  0.41196226124E+02 -0.64971389580E+01  0.59145079744E+03  0.59291937702E+03  0.00000000000E+00 0. -1.
        -11    1    4    4    0    0 -0.18226737437E+02 -0.21905105897E+02  0.22989015721E+02  0.36613419204E+02  0.00000000000E+00 0.  1.
         11    1    4    4    0    0 -0.27695689565E+02  0.52351245886E+02  0.24004218453E+03  0.24724068136E+03  0.00000000000E+00 0. -1.
          3    1    1    2  501    0  0.31232611997E+02 -0.17051179500E+02 -0.25669982507E+02  0.43876722490E+02  0.00000000000E+00 0. -1.
<scales pt_clust_5="13000.00000" pt_clust_6="13000.00000" pt_clust_7="13000.00000" pt_clust_8="13000.00000" pt_clust_9="35.58397"></scales>
<clustering>
<clus scale="   35.584">  2  9  1 -1</clus>
<clus scale="   80.786">  5  6 -1 -1</clus>
<clus scale="   85.040">  1  5  2 -1</clus>
<clus scale="   91.389">  7  8 -1 -1</clus>
<clus scale="   35.584">  2  5  1 -1</clus>
</clustering>
</event>
<event>
 9    2  0.6469128E-005  0.1016890E+03  0.7546771E-02  0.1281710E+00
          2   -1    0    0  502    0 -0.00000000000E+00  0.00000000000E+00  0.20591223674E+03  0.20591223674E+03  0.00000000000E+00 0. -1.
         21   -1    0    0  501  502  0.00000000000E+00 -0.00000000000E+00 -0.56577207324E+02  0.56577207324E+02  0.00000000000E+00 0.  1.
         24    2    1    2    0    0  0.30178072463E+02 -0.36450769773E+02  0.74559236181E+02  0.12002154913E+03  0.81281719229E+02 0.  0.
         23    2    1    2    0    0 -0.10732772331E+02  0.41559192519E+02  0.60502025189E+02  0.11781112843E+03  0.91523811361E+02 0.  0.
        -13    1    3    3    0    0  0.47645462003E+02 -0.44547134051E+02  0.76660457392E+02  0.10065467167E+03  0.00000000000E+00 0.  1.
         14    1    3    3    0    0 -0.17467389540E+02  0.80963642783E+01 -0.21012212111E+01  0.19366877458E+02  0.00000000000E+00 0. -1.
        -11    1    4    4    0    0  0.21731419657E+02 -0.20726652704E+02  0.11448208370E+02  0.32138920447E+02  0.00000000000E+00 0.  1.
         11    1    4    4    0    0 -0.32464191989E+02  0.62285845223E+02  0.49053816820E+02  0.85672207986E+02  0.00000000000E+00 0. -1.
          1    1    1    2  501    0 -0.19445300132E+02 -0.51084227465E+01  0.14273768050E+02  0.24656766506E+02  0.00000000000E+00 0. -1.
<scales pt_clust_5="13000.00000" pt_clust_6="13000.00000" pt_clust_7="13000.00000" pt_clust_8="13000.00000" pt_clust_9="20.10513"></scales>
<clustering>
<clus scale="   20.105">  2  9  1 -1</clus>
<clus scale="   81.282">  5  6 -1 -1</clus>
<clus scale="   91.524">  7  8 -1 -1</clus>
<clus scale="   92.578">  1  5  2 -1</clus>
<clus scale="   20.105">  2  5  1 -1</clus>
</clustering>
</event>
<event>
 9    2  0.6469128E-005  0.1170260E+03  0.7546771E-02  0.1249638E+00
         21   -1    0    0  501  502  0.00000000000E+00  0.00000000000E+00  0.29073015151E+02  0.29073015151E+02  0.00000000000E+00 0. -1.
         -1   -1    0    0    0  501 -0.00000000000E+00 -0.00000000000E+00 -0.61031087864E+03  0.61031087864E+03  0.00000000000E+00 0.  1.
         24    2    1    2    0    0  0.59647371909E+02  0.53367792341E+02 -0.36426623005E+03  0.38265743908E+03  0.85620669772E+02 0.  0.
         23    2    1    2    0    0 -0.59184380829E+02 -0.30733600997E+02 -0.19595477401E+03  0.22583585163E+03  0.90311755927E+02 0.  0.
        -11    1    3    3    0    0  0.59764782692E+02  0.18273994008E+02 -0.32061043043E+03  0.32664478598E+03  0.00000000000E+00 0.  1.
         12    1    3    3    0    0 -0.11741078275E+00  0.35093798333E+02 -0.43655799622E+02  0.56012653100E+02  0.00000000000E+00 0. -1.
        -11    1    4    4    0    0 -0.28737756169E+02 -0.29591508458E+02 -0.17515603148E+02  0.44814198153E+02  0.00000000000E+00 0. -1.
         11    1    4    4    0    0 -0.30446624659E+02 -0.11420925388E+01 -0.17843917087E+03  0.18102165348E+03  0.00000000000E+00 0.  1.
         -2    1    1    2    0  502 -0.46299108077E+00 -0.22634191344E+02 -0.21016859416E+02  0.30890603074E+02  0.00000000000E+00 0.  1.
<scales pt_clust_5="13000.00000" pt_clust_6="13000.00000" pt_clust_7="13000.00000" pt_clust_8="13000.00000" pt_clust_9="22.63893"></scales>
<clustering>
<clus scale="   22.639">  1  9  2 -1</clus>
<clus scale="   85.621">  5  6 -1 -1</clus>
<clus scale="   90.312">  7  8 -1 -1</clus>
<clus scale="  113.445">  2  5  1 -1</clus>
<clus scale="   22.639">  1  5  2 -1</clus>
</clustering>
</event>
<event>
 9    2  0.6469128E-005  0.1716222E+03  0.7546771E-02  0.1207540E+00
          2   -1    0    0  502    0 -0.00000000000E+00  0.00000000000E+00  0.10216431441E+04  0.10216431441E+04  0.00000000000E+00 0. -1.
         21   -1    0    0  501  502  0.00000000000E+00 -0.00000000000E+00 -0.30118399573E+03  0.30118399573E+03  0.00000000000E+00 0. -1.
         24    2    1    2    0    0 -0.14332203520E+02 -0.24868718128E+02  0.64909634700E+03  0.65476706992E+03  0.81055431472E+02 0.  0.
         23    2    1    2    0    0  0.15857469693E+03  0.57812108073E+01  0.32668499693E+03  0.37418993980E+03  0.90086996395E+02 0.  0.
        -11    1    3    3    0    0 -0.66187248126E+01  0.27934539458E+02  0.14215639011E+03  0.14502615372E+03  0.00000000000E+00 0.  1.
         12    1    3    3    0    0 -0.77134787076E+01 -0.52803257586E+02  0.50693995688E+03  0.50974091620E+03  0.00000000000E+00 0. -1.
        -11    1    4    4    0    0  0.24862438090E+02 -0.32083618822E+02  0.48651256857E+02  0.63359641873E+02  0.00000000000E+00 0.  1.
         11    1    4    4    0    0  0.13371225884E+03  0.37864829630E+02  0.27803374008E+03  0.31083029793E+03  0.00000000000E+00 0. -1.
          1    1    1    2  501    0 -0.14424249341E+03  0.19087507321E+02 -0.25532219554E+03  0.29387013012E+03  0.00000000000E+00 0. -1.
<scales pt_clust_5="13000.00000" pt_clust_6="13000.00000" pt_clust_7="13000.00000" pt_clust_8="13000.00000" pt_clust_9="146.07712"></scales>
<clustering>
<clus scale="   81.055">  5  6 -1 -1</clus>
<clus scale="   85.987">  1  5  2 -1</clus>
<clus scale="   90.087">  7  8 -1 -1</clus>
<clus scale="  146.077">  2  9  1 -1</clus>
<clus scale="  146.077">  2  5  1 -1</clus>
</clustering>
</event>
<event>
 9    2  0.6469128E-005  0.1282143E+03  0.7546771E-02  0.1232748E+00
         21   -1    0    0  501  502  0.00000000000E+00  0.00000000000E+00  0.56632424266E+03  0.56632424266E+03  0.00000000000E+00 0. -1.
         -1   -1    0    0    0  501 -0.00000000000E+00 -0.00000000000E+00 -0.62944015209E+02  0.62944015209E+02  0.00000000000E+00 0.  1.
         24    2    1    2    0    0 -0.29836096367E+02 -0.65107266734E+02  0.95606075569E+02  0.14424723411E+03  0.80855389639E+02 0.  0.
         23    2    1    2    0    0  0.60347203946E+02  0.13560794338E+03  0.34284277701E+03  0.38443595263E+03  0.90656122774E+02 0.  0.
        -13    1    3    3    0    0  0.27721137021E+02 -0.22220952551E+02  0.39624913104E+02  0.53219976593E+02  0.00000000000E+00 0.  1.
         14    1    3    3    0    0 -0.57557233388E+02 -0.42886314182E+02  0.55981162465E+02  0.91027257513E+02  0.00000000000E+00 0. -1.
        -13    1    4    4    0    0 -0.13503310043E+02  0.54845390835E+02  0.66726465801E+02  0.87422980482E+02  0.00000000000E+00 0.  1.
         13    1    4    4    0    0  0.73850513989E+02  0.80762552540E+02  0.27611631120E+03  0.29701297214E+03  0.00000000000E+00 0. -1.
         -2    1    1    2    0  502 -0.30511107579E+02 -0.70500676642E+02  0.64931374880E+02  0.10058507114E+03  0.00000000000E+00 0.  1.
<scales pt_clust_5="13000.00000" pt_clust_6="13000.00000" pt_clust_7="13000.00000" pt_clust_8="13000.00000" pt_clust_9="76.81978"></scales>
<clustering>
<clus scale="   76.820">  1  9  2 -1</clus>
<clus scale="   80.855">  5  6 -1 -1</clus>
<clus scale="   90.656">  7  8 -1 -1</clus>
<clus scale="  121.482">  2  5  1 -1</clus>
<clus scale="   76.820">  1  5  2 -1</clus>
</clustering>
</event>
<event>
 9    2  0.6469128E-005  0.1107490E+03  0.7546771E-02  0.1268565E+00
         21   -1    0    0  501  502  0.00000000000E+00  0.00000000000E+00  0.18999892879E+03  0.18999892879E+03  0.00000000000E+00 0. -1.
          2   -1    0    0  502    0 -0.00000000000E+00 -0.00000000000E+00 -0.90470876640E+03  0.90470876640E+03  0.00000000000E+00 0. -1.
         24    2    1    2    0    0 -0.75494365440E+02 -0.28587463146E+02  0.18166491051E+02  0.11382416320E+03  0.78161860697E+02 0.  0.
         23    2    1    2    0    0 -0.31115085593E+02  0.35679494227E+02  0.95458877994E+02  0.14568589877E+03  0.99351944391E+02 0.  0.
        -13    1    3    3    0    0 -0.21792297558E+02 -0.44653528852E+02  0.27819428869E+02  0.56945258753E+02  0.00000000000E+00 0.  1.
         14    1    3    3    0    0 -0.53702067882E+02  0.16066065706E+02 -0.96529378189E+01  0.56878904442E+02  0.00000000000E+00 0. -1.
        -11    1    4    4    0    0  0.53702543590E+01  0.51488740636E+02  0.92263471830E+02  0.10579450968E+03  0.00000000000E+00 0. -1.
         11    1    4    4    0    0 -0.36485339952E+02 -0.15809246409E+02  0.31954061633E+01  0.39891389095E+02  0.00000000000E+00 0.  1.
          1    1    1    2  501    0  0.10660945103E+03 -0.70920310803E+01 -0.82833520666E+03  0.83519763322E+03  0.00000000000E+00 0. -1.
<scales pt_clust_5="13000.00000" pt_clust_6="13000.00000" pt_clust_7="13000.00000" pt_clust_8="13000.00000" pt_clust_9="106.84514"></scales>
<clustering>
<clus scale="   78.162">  5  6 -1 -1</clus>
<clus scale="   99.352">  7  8 -1 -1</clus>
<clus scale="  106.845">  1  9  2 -1</clus>
<clus scale="   92.216">  2  5  1 -1</clus>
<clus scale="  106.845">  1  5  2 -1</clus>
</clustering>
</event>
<event>
 9    2  0.6469128E-005  0.9147022E+02  0.7546771E-02  0.1304442E+00
          2   -1    0    0  502    0 -0.00000000000E+00  0.00000000000E+00  0.12863645402E+03  0.12863645402E+03  0.00000000000E+00 0. -1.
         21   -1    0    0  501  502  0.00000000000E+00 -0.00000000000E+00 -0.26968693735E+03  0.26968693735E+03  0.00000000000E+00 0.  1.
         24    2    1    2    0    0  0.14346144773E+02  0.58548279805E+01  0.92824688153E+02  0.12458257903E+03  0.81635196976E+02 0.  0.
         23    2    1    2    0    0 -0.36454932922E+02  0.15292018237E+02 -0.21830905665E+03  0.23941456074E+03  0.89987108635E+02 0.  0.
        -11    1    3    3    0    0 -0.21249132707E+02 -0.78547964691E+01  0.81797137312E+02  0.84876352071E+02  0.00000000000E+00 0.  1.
         12    1    3    3    0    0  0.35595277480E+02  0.13709624450E+02  0.11027550840E+02  0.39706226954E+02  0.00000000000E+00 0. -1.
        -13    1    4    4    0    0 -0.11610523430E+02  0.50270499432E+02 -0.85640421393E+02  0.99981043922E+02  0.00000000000E+00 0. -1.
         13    1    4    4    0    0 -0.24844409491E+02 -0.34978481195E+02 -0.13266863526E+03  0.13943351682E+03  0.00000000000E+00 0.  1.
          1    1    1    2  501    0  0.22108788149E+02 -0.21146846217E+02 -0.15566114825E+02  0.34326251603E+02  0.00000000000E+00 0. -1.
<scales pt_clust_5="13000.00000" pt_clust_6="13000.00000" pt_clust_7="13000.00000" pt_clust_8="13000.00000" pt_clust_9="30.59391"></scales>
<clustering>
<clus scale="   30.594">  2  9  1 -1</clus>
<clus scale="   81.635">  5  6 -1 -1</clus>
<clus scale="   83.267">  1  5  2 -1</clus>
<clus scale="   89.987">  7  8 -1 -1</clus>
<clus scale="   30.594">  2  5  1 -1</clus>
</clustering>
</event>
<event>
 9    2  0.6469128E-005  0.1033254E+03  0.7546771E-02  0.1277329E+00
          2   -1    0    0  502    0 -0.00000000000E+00  0.00000000000E+00  0.66777032850E+03  0.66777032850E+03  0.00000000000E+00 0. -1.
         21   -1    0    0  501  502  0.00000000000E+00 -0.00000000000E+00 -0.39827556087E+02  0.39827556087E+02  0.00000000000E+00 0.  1.
         24    2    1    2    0    0  0.21390890936E+02  0.45340511556E+02  0.54403048863E+03  0.55244416303E+03  0.81927092595E+02 0.  0.
         23    2    1    2    0    0  0.23390789505E+01 -0.53630859817E+02  0.64581990119E+02  0.12344407636E+03  0.90475776463E+02 0.  0.
        -11    1    3    3    0    0  0.29232983119E+01  0.26255942626E+02  0.41389176321E+02  0.49101773010E+02  0.00000000000E+00 0.  1.
         12    1    3    3    0    0  0.18467592624E+02  0.19084568930E+02  0.50264131231E+03  0.50334239002E+03  0.00000000000E+00 0. -1.
        -13    1    4    4    0    0  0.33322355437E+02 -0.54890402504E+02  0.16616893742E+02  0.66328401282E+02  0.00000000000E+00 0.  1.
         13    1    4    4    0    0 -0.30983276487E+02  0.12595426870E+01  0.47965096377E+02  0.57115675082E+02  0.00000000000E+00 0. -1.
          1    1    1    2  501    0 -0.23729969887E+02  0.82903482613E+01  0.19330293658E+02  0.31709645189E+02  0.00000000000E+00 0. -1.
<scales pt_clust_5="13000.00000" pt_clust_6="13000.00000" pt_clust_7="13000.00000" pt_clust_8="13000.00000" pt_clust_9="25.13645"></scales>
<clustering>
<clus scale="   25.136">  2  9  1 -1</clus>
<clus scale="   81.927">  5  6 -1 -1</clus>
<clus scale="   90.476">  7  8 -1 -1</clus>
<clus scale="   95.929">  1  5  2 -1</clus>
<clus scale="   25.136">  2  5  1 -1</clus>
</clustering>
</event>
<event>
 9    2  0.6469128E-005  0.1063715E+03  0.7546771E-02  0.1271768E+00
         -1   -1    0    0    0  501 -0.00000000000E+00  0.00000000000E+00  0.14704948408E+03  0.14704948408E+03  0.00000000000E+00 0.  1.
         21   -1    0    0  501  502  0.00000000000E+00 -0.00000000000E+00 -0.13189565688E+03  0.13189565688E+03  0.00000000000E+00 0. -1.
         23    2    1    2    0    0 -0.53682424415E+02  0.28802251260E+01  0.83773579653E+02  0.13541474313E+03  0.91809812232E+02 0.  0.
         24    2    1    2    0    0  0.53753842338E+02  0.18185651440E+02 -0.71113104400E+02  0.12231735797E+03  0.81757378617E+02 0.  0.
        -13    1    4    4    0    0 -0.20192034097E+02  0.97953690685E+01 -0.29455875042E+02  0.37031285026E+02  0.00000000000E+00 0.  1.
         14    1    4    4    0    0  0.73945876435E+02  0.83902823713E+01 -0.41657229358E+02  0.85286072942E+02  0.00000000000E+00 0. -1.
        -13    1    3    3    0    0 -0.49247068137E+02 -0.18573650724E+02  0.96614682760E+02  0.11002113954E+03  0.00000000000E+00 0.  1.
         13    1    3    3    0    0 -0.44353562782E+01  0.21453875850E+02 -0.12841103108E+02  0.25393603591E+02  0.00000000000E+00 0. -1.
         -2    1    1    2    0  502 -0.71417922932E-01 -0.21065876566E+02  0.24933519511E+01  0.21213039857E+02  0.00000000000E+00 0.  1.
<scales pt_clust_5="13000.00000" pt_clust_6="13000.00000" pt_clust_7="13000.00000" pt_clust_8="13000.00000" pt_clust_9="21.06601"></scales>
<clustering>
<clus scale="   21.066">  2  9  1 -1</clus>
<clus scale="   81.757">  5  6 -1 -1</clus>
<clus scale="   91.810">  7  8 -1 -1</clus>
<clus scale="   97.827">  2  5  1 -1</clus>
<clus scale="   21.066">  2  5  1 -1</clus>
</clustering>
</event>
<event>
 9    2  0.6469128E-005  0.1114647E+03  0.7546771E-02  0.1262516E+00
         21   -1    0    0  501  502  0.00000000000E+00  0.00000000000E+00  0.61028120674E+02  0.61028120674E+02  0.00000000000E+00 0. -1.
          2   -1    0    0  502    0 -0.00000000000E+00 -0.00000000000E+00 -0.48144151552E+03  0.48144151552E+03  0.00000000000E+00 0. -1.
         23    2    1    2    0    0  0.93136403584E+02 -0.28875397096E+00 -0.32073526020E+03  0.34655103467E+03  0.92477237437E+02 0.  0.
         24    2    1    2    0    0 -0.23241885339E+02  0.71010333070E+01 -0.92976990932E+02  0.12537389118E+03  0.80518829096E+02 0.  0.
        -13    1    4    4    0    0 -0.49308979497E+02  0.15763188683E+01 -0.83703156300E+02  0.97160066976E+02  0.00000000000E+00 0.  1.
         14    1    4    4    0    0  0.26067094158E+02  0.55247144387E+01 -0.92738346325E+01  0.28213824205E+02  0.00000000000E+00 0. -1.
        -11    1    3    3    0    0  0.35961826680E+02 -0.36679132980E+02 -0.21429700554E+03  0.22036746211E+03  0.00000000000E+00 0. -1.
         11    1    3    3    0    0  0.57174576904E+02  0.36390379010E+02 -0.10643825467E+03  0.12618357256E+03  0.00000000000E+00 0.  1.
          1    1    1    2  501    0 -0.69894518245E+02 -0.68122793360E+01 -0.67011437161E+01  0.70544710345E+02  0.00000000000E+00 0. -1.
<scales pt_clust_5="13000.00000" pt_clust_6="13000.00000" pt_clust_7="13000.00000" pt_clust_8="13000.00000" pt_clust_9="70.22571"></scales>
<clustering>
<clus scale="   70.226">  1  9  2 -1</clus>
<clus scale="   80.519">  5  6 -1 -1</clus>
<clus scale="   92.477">  7  8 -1 -1</clus>
<clus scale="  101.763">  1  5  2 -1</clus>
<clus scale="   70.226">  1  5  2 -1</clus>
</clustering>
</event>
<event>
 9    2  0.6469128E-005  0.1130906E+03  0.7546771E-02  0.1262802E+00
         21   -1    0    0  501  502  0.00000000000E+00  0.00000000000E+00  0.99971575449E+02  0.99971575449E+02  0.00000000000E+00 0. -1.
         -1   -1    0    0    0  501 -0.00000000000E+00 -0.00000000000E+00 -0.16031328135E+03  0.16031328135E+03  0.00000000000E+00 0.  1.
         24    2    1    2    0    0 -0.50881531808E+02 -0.14713595795E+02 -0.13889217927E+02  0.98468455048E+02  0.81839514200E+02 0.  0.
         23    2    1    2    0    0  0.53038447658E+02 -0.14647870872E+02 -0.10068880542E+02  0.11501346487E+03  0.10049416747E+03 0.  0.
        -11    1    3    3    0    0 -0.25401538915E+02  0.32965377605E+02  0.32837403584E+01  0.41746104616E+02  0.00000000000E+00 0.  1.
         12    1    3    3    0    0 -0.25479992894E+02 -0.47678973399E+02 -0.17172958285E+02  0.56722350432E+02  0.00000000000E+00 0. -1.
        -11    1    4    4    0    0 -0.15118144993E+02 -0.16383453507E+02 -0.35772680937E+02  0.42150451460E+02  0.00000000000E+00 0.  1.
         11    1    4    4    0    0  0.68156592650E+02  0.17355826353E+01  0.25703800395E+02  0.72863013412E+02  0.00000000000E+00 0. -1.
         -2    1    1    2    0  502 -0.21569158494E+01  0.29361466666E+02 -0.36383607432E+02  0.46802936879E+02  0.00000000000E+00 0.  1.
<scales pt_clust_5="13000.00000" pt_clust_6="13000.00000" pt_clust_7="13000.00000" pt_clust_8="13000.00000" pt_clust_9="29.44060"></scales>
<clustering>
<clus scale="   29.441">  1  9  2 -1</clus>
<clus scale="   81.840">  5  6 -1 -1</clus>
<clus scale="   96.892">  2  5  1 -1</clus>
<clus scale="  100.494">  7  8 -1 -1</clus>
<clus scale="   29.441">  1  5  2 -1</clus>
</clustering>
</event>
<event>
 9    2  0.6469128E-005  0.1137508E+03  0.7546771E-02  0.1258124E+00
          2   -1    0    0  502    0 -0.00000000000E+00  0.00000000000E+00  0.46838066779E+03  0.46838066779E+03  0.00000000000E+00 0. -1.
         21   -1    0    0  501  502  0.00000000000E+00 -0.00000000000E+00 -0.47334009227E+02  0.47334009227E+02  0.00000000000E+00 0. -1.
         24    2    1    2    0    0  0.26123492965E+02  0.60621953660E+02  0.31645958663E+03  0.33299941061E+03  0.79902937051E+02 0.  0.
         23    2    1    2    0    0 -0.54745054949E+02 -0.52405387345E+02  0.91693303213E+02  0.15026599762E+03  0.91808836847E+02 0.  0.
        -11    1    3    3    0    0  0.51187135823E+02  0.31231196548E+02  0.13895443992E+03  0.15134016944E+03  0.00000000000E+00 0.  1.
         12    1    3    3    0    0 -0.25063642858E+02  0.29390757112E+02  0.17750514671E+03  0.18165924117E+03  0.00000000000E+00 0. -1.
        -11    1    4    4    0    0 -0.73430379499E+02 -0.12251787638E+02  0.62699866570E+02  0.97331393711E+02  0.00000000000E+00 0. -1.
         11    1    4    4    0    0  0.18685324550E+02 -0.40153599707E+02  0.28993436643E+02  0.52934603912E+02  0.00000000000E+00 0.  1.
          1    1    1    2  501    0  0.28621561985E+02 -0.82165663154E+01  0.12893768718E+02  0.32449268778E+02  0.00000000000E+00 0. -1.
<scales pt_clust_5="13000.00000" pt_clust_6="13000.00000" pt_clust_7="13000.00000" pt_clust_8="13000.00000" pt_clust_9="29.77761"></scales>
<clustering>
<clus scale="   29.778">  2  9  1 -1</clus>
<clus scale="   79.903">  5  6 -1 -1</clus>
<clus scale="   91.809">  7  8 -1 -1</clus>
<clus scale="  104.378">  1  5  2 -1</clus>
<clus scale="   29.778">  2  5  1 -1</clus>
</clustering>
</event>
<event>
 9    2  0.6469128E-005  0.1749133E+03  0.7546771E-02  0.1173686E+00
          2   -1    0    0  502    0 -0.00000000000E+00  0.00000000000E+00  0.23116522333E+03  0.23116522333E+03  0.00000000000E+00 0. -1.
         21   -1    0    0  501  502  0.00000000000E+00 -0.00000000000E+00 -0.25725508519E+03  0.25725508519E+03  0.00000000000E+00 0. -1.
         23    2    1    2    0    0 -0.15350626709E+03 -0.58244271992E+01  0.10092565809E+03  0.20566000660E+03  0.92260239901E+02 0.  0.
         24    2    1    2    0    0  0.12928763442E+03  0.22007476309E+01 -0.17197200629E+03  0.23156695385E+03  0.85608103961E+02 0.  0.
        -11    1    4    4    0    0  0.26393523592E+02 -0.29800034326E+02 -0.18132460610E+02  0.43742956704E+02  0.00000000000E+00 0.  1.
         12    1    4    4    0    0  0.10289411083E+03  0.32000781957E+02 -0.15383954568E+03  0.18782399715E+03  0.00000000000E+00 0. -1.
        -13    1    3    3    0    0 -0.20365558806E+02  0.57014879277E+01  0.63427122805E+02  0.66860024359E+02  0.00000000000E+00 0.  1.
         13    1    3    3    0    0 -0.13314070828E+03 -0.11525915127E+02  0.37498535282E+02  0.13879998224E+03  0.00000000000E+00 0. -1.
          1    1    1    2  501    0  0.24218632664E+02  0.36236795683E+01  0.44956486343E+02  0.51193348064E+02  0.00000000000E+00 0. -1.
<scales pt_clust_5="13000.00000" pt_clust_6="13000.00000" pt_clust_7="13000.00000" pt_clust_8="13000.00000" pt_clust_9="24.48824"></scales>
<clustering>
<clus scale="   24.488">  2  9  1 -1</clus>
<clus scale="   85.608">  5  6 -1 -1</clus>
<clus scale="   92.260">  7  8 -1 -1</clus>
<clus scale="  171.498">  2  5  1 -1</clus>
<clus scale="   24.488">  2  5  1 -1</clus>
</clustering>
</event>
<event>
 9    2  0.6469128E-005  0.9709788E+02  0.7546771E-02  0.1294103E+00
         21   -1    0    0  501  502  0.00000000000E+00  0.00000000000E+00  0.38478372417E+02  0.38478372417E+02  0.00000000000E+00 0.  1.
         -1   -1    0    0    0  501 -0.00000000000E+00 -0.00000000000E+00 -0.52282142685E+03  0.52282142685E+03  0.00000000000E+00 0.  1.
         24    2    1    2    0    0 -0.30257535521E+02  0.15485788316E+02 -0.26286615456E+03  0.27590516640E+03  0.76614081859E+02 0.  0.
         23    2    1    2    0    0  0.17660555471E+02 -0.46773528148E+02 -0.58238182781E+02  0.11870784476E+03  0.90555001625E+02 0.  0.
        -13    1    3    3    0    0  0.21113305965E+02  0.17039812333E+02 -0.14195362695E+03  0.14452321300E+03  0.00000000000E+00 0.  1.
         14    1    3    3    0    0 -0.51370841486E+02 -0.15540240176E+01 -0.12091252762E+03  0.13138195340E+03  0.00000000000E+00 0. -1.
        -11    1    4    4    0    0  0.13761994453E+02 -0.21697717138E+02  0.22451822586E+02  0.34121368053E+02  0.00000000000E+00 0.  1.
         11    1    4    4    0    0  0.38985610178E+01 -0.25075811010E+02 -0.80690005367E+02  0.84586476709E+02  0.00000000000E+00 0. -1.
         -2    1    1    2    0  502  0.12596980050E+02  0.31287739833E+02 -0.16323871709E+03  0.16668678810E+03  0.00000000000E+00 0.  1.
<scales pt_clust_5="13000.00000" pt_clust_6="13000.00000" pt_clust_7="13000.00000" pt_clust_8="13000.00000" pt_clust_9="33.72844"></scales>
<clustering>
<clus scale="   33.728">  1  9  2 -1</clus>
<clus scale="   76.614">  5  6 -1 -1</clus>
<clus scale="   84.247">  2  5  1 -1</clus>
<clus scale="   90.555">  7  8 -1 -1</clus>
<clus scale="   33.728">  1  5  2 -1</clus>
</clustering>
</event>
<event>
 9    2  0.6469128E-005  0.9454203E+02  0.7546771E-02  0.1300446E+00
         21   -1    0    0  501  502  0.00000000000E+00  0.00000000000E+00  0.14681135333E+03  0.14681135333E+03  0.00000000000E+00 0. -1.
          2   -1    0    0  502    0 -0.00000000000E+00 -0.00000000000E+00 -0.14597397162E+03  0.14597397162E+03  0.00000000000E+00 0. -1.
         23    2    1    2    0    0  0.16684774982E+02  0.10747159987E+02 -0.86060227550E+02  0.12693805325E+03  0.91175783150E+02 0.  0.
         24    2    1    2    0    0 -0.37425639347E+02 -0.90998292748E+01  0.10796091364E+02  0.86952796749E+02  0.77205879960E+02 0.  0.
        -13    1    4    4    0    0 -0.37057616456E+02 -0.11620652120E+02  0.41097335359E+02  0.56544650204E+02  0.00000000000E+00 0.  1.
         14    1    4    4    0    0 -0.36802289101E+00  0.25208228454E+01 -0.30301243995E+02  0.30408146545E+02  0.00000000000E+00 0. -1.
        -13    1    3    3    0    0 -0.14301503164E+02  0.42255110167E+02 -0.23721575980E+02  0.50524652348E+02  0.00000000000E+00 0.  1.
         13    1    3    3    0    0  0.30986278145E+02 -0.31507950180E+02 -0.62338651570E+02  0.76413400902E+02  0.00000000000E+00 0. -1.
          1    1    1    2  501    0  0.20740864365E+02 -0.16473307120E+01  0.76101517891E+02  0.78894474955E+02  0.00000000000E+00 0. -1.
<scales pt_clust_5="13000.00000" pt_clust_6="13000.00000" pt_clust_7="13000.00000" pt_clust_8="13000.00000" pt_clust_9="20.80618"></scales>
<clustering>
<clus scale="   20.806">  1  9  2 -1</clus>
<clus scale="   77.206">  5  6 -1 -1</clus>
<clus scale="   81.154">  1  5  2 -1</clus>
<clus scale="   91.176">  7  8 -1 -1</clus>
<clus scale="   20.806">  1  5  2 -1</clus>
</clustering>
</event>
<event>
 9    2  0.6469128E-005  0.1760872E+03  0.7546771E-02  0.1173960E+00
         21   -1    0    0  501  502  0.00000000000E+00  0.00000000000E+00  0.52803021616E+02  0.52803021616E+02  0.00000000000E+00 0.  1.
          2   -1    0    0  502    0 -0.00000000000E+00 -0.00000000000E+00 -0.13170687373E+04  0.13170687373E+04  0.00000000000E+00 0. -1.
         24    2    1    2    0    0  0.89395509266E+02 -0.11398418453E+03 -0.50817157325E+03  0.53490918766E+03  0.83099577465E+02 0.  0.
         23    2    1    2    0    0 -0.24636953015E+02  0.15785298321E+03 -0.20557384872E+03  0.27891335051E+03  0.10003752323E+03 0.  0.
        -13    1    3    3    0    0  0.93729482177E+02 -0.60111142957E+02 -0.30567874657E+03  0.32532762170E+03  0.00000000000E+00 0.  1.
         14    1    3    3    0    0 -0.43339729106E+01 -0.53873041577E+02 -0.20249282669E+03  0.20958156596E+03  0.00000000000E+00 0. -1.
        -13    1    4    4    0    0 -0.33572887104E+02  0.62366067972E+02 -0.15516959253E+03  0.17057041838E+03  0.00000000000E+00 0. -1.
         13    1    4    4    0    0  0.89359340888E+01  0.95486915239E+02 -0.50404256191E+02  0.10834293213E+03  0.00000000000E+00 0.  1.
          1    1    1    2  501    0 -0.64758556251E+02 -0.43868798677E+02 -0.55052029369E+03  0.55604922073E+03  0.00000000000E+00 0. -1.
<scales pt_clust_5="13000.00000" pt_clust_6="13000.00000" pt_clust_7="13000.00000" pt_clust_8="13000.00000" pt_clust_9="78.21859"></scales>
<clustering>
<clus scale="   78.219">  1  9  2 -1</clus>
<clus scale="   83.100">  5  6 -1 -1</clus>
<clus scale="  100.038">  7  8 -1 -1</clus>
<clus scale="  167.047">  2  5  1 -1</clus>
<clus scale="   78.219">  1  5  2 -1</clus>
</clustering>
</event>
<event>
 9    2  0.6469128E-005  0.9813304E+02  0.7546771E-02  0.1287931E+00
         -1   -1    0    0    0  501 -0.00000000000E+00  0.00000000000E+00  0.10282947849E+03  0.10282947849E+03  0.00000000000E+00 0.  1.
         21   -1    0    0  501  502  0.00000000000E+00 -0.00000000000E+00 -0.38934345536E+03  0.38934345536E+03  0.00000000000E+00 0.  1.
         24    2    1    2    0    0 -0.19869738040E+02 -0.48179565854E+02  0.56836330589E+02  0.11135633486E+03  0.80335470267E+02 0.  0.
         23    2    1    2    0    0  0.24848402284E+02 -0.90808542612E+01 -0.12471034652E+03  0.15474807988E+03  0.87717687428E+02 0.  0.
        -13    1    3    3    0    0  0.10190747447E+02 -0.52781122707E+02  0.60261261111E+02  0.80753438554E+02  0.00000000000E+00 0.  1.
         14    1    3    3    0    0 -0.30060485487E+02  0.46015568533E+01 -0.34249305217E+01  0.30602896305E+02  0.00000000000E+00 0. -1.
        -11    1    4    4    0    0  0.14772982306E+02 -0.37697744353E+02 -0.11647457371E+03  0.12331134277E+03  0.00000000000E+00 0.  1.
         11    1    4    4    0    0  0.10075419978E+02  0.28616890092E+02 -0.82357728110E+01  0.31436737109E+02  0.00000000000E+00 0. -1.
         -2    1    1    2    0  502 -0.49786642437E+01  0.57260420115E+02 -0.21863996094E+03  0.22606851910E+03  0.00000000000E+00 0.  1.
<scales pt_clust_5="13000.00000" pt_clust_6="13000.00000" pt_clust_7="13000.00000" pt_clust_8="13000.00000" pt_clust_9="57.47645"></scales>
<clustering>
<clus scale="   57.476">  2  9  1 -1</clus>
<clus scale="   80.335">  5  6 -1 -1</clus>
<clus scale="   87.718">  7  8 -1 -1</clus>
<clus scale="   91.594">  1  5  2 -1</clus>
<clus scale="   57.476">  2  5  1 -1</clus>
</clustering>
</event>
<event>
 9    2  0.6469128E-005  0.9665721E+02  0.7546771E-02  0.1292154E+00
          2   -1    0    0  502    0 -0.00000000000E+00  0.00000000000E+00  0.79842401339E+03  0.79842401339E+03  0.00000000000E+00 0. -1.
         21   -1    0    0  501  502  0.00000000000E+00 -0.00000000000E+00 -0.18331301281E+02  0.18331301281E+02  0.00000000000E+00 0. -1.
         24    2    1    2    0    0  0.37772041187E+01  0.56185343853E+02  0.38716661787E+03  0.39951733884E+03  0.80901507423E+02 0.  0.
         23    2    1    2    0    0 -0.86899731504E+01 -0.72728927971E+01  0.23282426749E+03  0.24975914704E+03  0.89688803047E+02 0.  0.
        -11    1    3    3    0    0  0.38675012176E+02  0.24356326468E+02  0.12420705055E+03  0.13234945641E+03  0.00000000000E+00 0.  1.
         12    1    3    3    0    0 -0.34897808057E+02  0.31829017385E+02  0.26295956733E+03  0.26716788243E+03  0.00000000000E+00 0. -1.
        -11    1    4    4    0    0  0.40278809783E+01  0.40411277810E+02  0.11745127256E+03  0.12427427982E+03  0.00000000000E+00 0.  1.
         11    1    4    4    0    0 -0.12717854129E+02 -0.47684170607E+02  0.11537299493E+03  0.12548486721E+03  0.00000000000E+00 0. -1.
          1    1    1    2  501    0  0.49127690318E+01 -0.48912451056E+02  0.16010182674E+03  0.16747882879E+03  0.00000000000E+00 0. -1.
<scales pt_clust_5="13000.00000" pt_clust_6="13000.00000" pt_clust_7="13000.00000" pt_clust_8="13000.00000" pt_clust_9="49.15858"></scales>
<clustering>
<clus scale="   49.159">  2  9  1 -1</clus>
<clus scale="   80.902">  5  6 -1 -1</clus>
<clus scale="   88.564">  1  5  2 -1</clus>
<clus scale="   89.689">  7  8 -1 -1</clus>
<clus scale="   49.159">  2  5  1 -1</clus>
</clustering>
</event>
<event>
 9    2  0.6469128E-005  0.1857843E+03  0.7546771E-02  0.1186738E+00
         21   -1    0    0  501  502  0.00000000000E+00  0.00000000000E+00  0.94019237203E+02  0.94019237203E+02  0.00000000000E+00 0. -1.
          2   -1    0    0  502    0 -0.00000000000E+00 -0.00000000000E+00 -0.87759819729E+03  0.87759819729E+03  0.00000000000E+00 0. -1.
         24    2    1    2    0    0  0.11902113462E+02  0.69896694234E+02 -0.46634368042E+03  0.47840315843E+03  0.79786875885E+02 0.  0.
         23    2    1    2    0    0 -0.10283291659E+03  0.82948239044E+02 -0.26193940011E+03  0.30696815158E+03  0.90344771057E+02 0.  0.
        -11    1    3    3    0    0 -0.10934852996E+02  0.51832377947E+02 -0.12423284631E+03  0.13505542016E+03  0.00000000000E+00 0.  1.
         12    1    3    3    0    0  0.22836966457E+02  0.18064316288E+02 -0.34211083411E+03  0.34334773827E+03  0.00000000000E+00 0. -1.
        -11    1    4    4    0    0 -0.33657638873E+02 -0.21410956225E+00 -0.13988682551E+03  0.14387913834E+03  0.00000000000E+00 0.  1.
         11    1    4    4    0    0 -0.69175277722E+02  0.83162348607E+02 -0.12205257461E+03  0.16308901325E+03  0.00000000000E+00 0. -1.
          1    1    1    2  501    0  0.90930803133E+02 -0.15284493328E+03 -0.55295879556E+02  0.18624612448E+03  0.00000000000E+00 0. -1.
<scales pt_clust_5="13000.00000" pt_clust_6="13000.00000" pt_clust_7="13000.00000" pt_clust_8="13000.00000" pt_clust_9="162.33796"></scales>
<clustering>
<clus scale="   79.787">  5  6 -1 -1</clus>
<clus scale="   90.345">  7  8 -1 -1</clus>
<clus scale="  106.739">  2  5  1 -1</clus>
<clus scale="  162.338">  1  9  2 -1</clus>
<clus scale="  162.338">  1  5  2 -1</clus>
</clustering>
</event>
<event>
 9    2  0.6469128E-005  0.3353693E+03  0.7546771E-02  0.1122050E+00
         21   -1    0    0  501  502  0.00000000000E+00  0.00000000000E+00  0.26338720628E+03  0.26338720628E+03  0.00000000000E+00 0. -1.
          2   -1    0    0  502    0 -0.00000000000E+00 -0.00000000000E+00 -0.55079555653E+03  0.55079555653E+03  0.00000000000E+00 0. -1.
         24    2    1    2    0    0  0.19521003297E+02 -0.12168907675E+02  0.23186269233E+02  0.86310480162E+02  0.79892077337E+02 0.  0.
         23    2    1    2    0    0  0.26323259947E+03  0.17737708816E+03 -0.16628248353E+03  0.37000452025E+03  0.92192450029E+02 0.  0.
        -13    1    3    3    0    0  0.27495503791E+02 -0.32271199297E+02 -0.12834554539E+02  0.44296261953E+02  0.00000000000E+00 0.  1.
         14    1    3    3    0    0 -0.79745004947E+01  0.20102291621E+02  0.36020823771E+02  0.42014218209E+02  0.00000000000E+00 0. -1.
        -13    1    4    4    0    0  0.12279854554E+03  0.56418448216E+02 -0.26145942148E+02  0.13764495769E+03  0.00000000000E+00 0.  1.
         13    1    4    4    0    0  0.14043405394E+03  0.12095863995E+03 -0.14013654138E+03  0.23235956256E+03  0.00000000000E+00 0. -1.
          1    1    1    2  501    0 -0.28275360277E+03 -0.16520818049E+03 -0.14431213595E+03  0.35786776240E+03  0.00000000000E+00 0. -1.
<scales pt_clust_5="13000.00000" pt_clust_6="13000.00000" pt_clust_7="13000.00000" pt_clust_8="13000.00000" pt_clust_9="322.44861"></scales>
<clustering>
<clus scale="   79.892">  5  6 -1 -1</clus>
<clus scale="   83.138">  2  5  1 -1</clus>
<clus scale="   92.192">  7  8 -1 -1</clus>
<clus scale="  322.449">  1  9  2 -1</clus>
<clus scale="  322.449">  1  5  2 -1</clus>
</clustering>
</event>
<event>
 9    2  0.6469128E-005  0.2161703E+03  0.7546771E-02  0.1136771E+00
         -3   -1    0    0    0  501 -0.00000000000E+00  0.00000000000E+00  0.20629979209E+03  0.20629979209E+03  0.00000000000E+00 0.  1.
         21   -1    0    0  501  502  0.00000000000E+00 -0.00000000000E+00 -0.24012010098E+03  0.24012010098E+03  0.00000000000E+00 0.  1.
         24    2    1    2    0    0  0.60058747624E+02 -0.16922524547E+02 -0.74711770829E+02  0.12569547211E+03  0.79524071859E+02 0.  0.
         23    2    1    2    0    0  0.67897066558E+02  0.46145852577E+01 -0.83235535464E+02  0.14203002474E+03  0.92806613557E+02 0.  0.
        -11    1    3    3    0    0  0.13483383521E+01 -0.26191009479E+02 -0.58464792399E+02  0.64077444893E+02  0.00000000000E+00 0.  1.
         12    1    3    3    0    0  0.58710409272E+02  0.92684849319E+01 -0.16246978430E+02  0.61618027216E+02  0.00000000000E+00 0. -1.
        -13    1    4    4    0    0  0.13670601860E+02 -0.24129950704E+02  0.10780173666E+02  0.29754865492E+02  0.00000000000E+00 0. -1.
         13    1    4    4    0    0  0.54226464699E+02  0.28744535962E+02 -0.94015709130E+02  0.11227515925E+03  0.00000000000E+00 0.  1.
         -4    1    1    2    0  502 -0.12795581418E+03  0.12307939289E+02  0.12412699741E+03  0.17869439621E+03  0.00000000000E+00 0.  1.
<scales pt_clust_5="13000.00000" pt_clust_6="13000.00000" pt_clust_7="13000.00000" pt_clust_8="13000.00000" pt_clust_9="128.54646"></scales>
<clustering>
<clus scale="   79.524">  5  6 -1 -1</clus>
<clus scale="   92.807">  7  8 -1 -1</clus>
<clus scale="   95.216">  5  7 -1 -1</clus>
<clus scale="  128.546">  2  9  1 -1</clus>
<clus scale="  128.546">  2  5  1 -1</clus>
</clustering>
</event>
<event>
 9    2  0.6469128E-005  0.1164515E+03  0.7546771E-02  0.1251042E+00
         -1   -1    0    0    0  501 -0.00000000000E+00  0.00000000000E+00  0.28103397873E+03  0.28103397873E+03  0.00000000000E+00 0.  1.
         21   -1    0    0  501  502  0.00000000000E+00 -0.00000000000E+00 -0.10497114271E+03  0.10497114271E+03  0.00000000000E+00 0. -1.
         23    2    1    2    0    0 -0.75678275664E+02 -0.34617287405E+02  0.11779168035E+03  0.17068844870E+03  0.91291338941E+02 0.  0.
         24    2    1    2    0    0  0.23500713112E+02  0.46658030628E+02 -0.36372257513E+02  0.10657453191E+03  0.85474758829E+02 0.  0.
        -13    1    4    4    0    0  0.52905592861E+02  0.40404005036E+02 -0.11497209308E+02  0.67554949492E+02  0.00000000000E+00 0.  1.
         14    1    4    4    0    0 -0.29404879749E+02  0.62540255920E+01 -0.24875048204E+02  0.39019582421E+02  0.00000000000E+00 0. -1.
        -11    1    3    3    0    0  0.62090139106E+01 -0.32280669570E+02  0.82306797180E+01  0.33887129862E+02  0.00000000000E+00 0.  1.
         11    1    3    3    0    0 -0.81887289574E+02 -0.23366178345E+01  0.10956100063E+03  0.13680131884E+03  0.00000000000E+00 0. -1.
         -2    1    1    2    0  502  0.52177562551E+02 -0.12040743223E+02  0.94643413184E+02  0.10874214082E+03  0.00000000000E+00 0.  1.
<scales pt_clust_5="13000.00000" pt_clust_6="13000.00000" pt_clust_7="13000.00000" pt_clust_8="13000.00000" pt_clust_9="53.54886"></scales>
<clustering>
<clus scale="   53.549">  2  9  1 -1</clus>
<clus scale="   85.475">  5  6 -1 -1</clus>
<clus scale="   91.291">  7  8 -1 -1</clus>
<clus scale="  111.950">  2  5  1 -1</clus>
<clus scale="   53.549">  2  5  1 -1</clus>
</clustering>
</event>
<event>
 9    2  0.6469128E-005  0.1178019E+03  0.7546771E-02  0.1251041E+00
         -1   -1    0    0    0  501 -0.00000000000E+00  0.00000000000E+00  0.14438291713E+03  0.14438291713E+03  0.00000000000E+00 0.  1.
         21   -1    0    0  501  502  0.00000000000E+00 -0.00000000000E+00 -0.17367757091E+03  0.17367757091E+03  0.00000000000E+00 0.  1.
         23    2    1    2    0    0 -0.56361260364E+02  0.75619282475E+02 -0.20547731056E+02  0.13362365793E+03  0.92402408819E+02 0.  0.
         24    2    1    2    0    0  0.52112798916E+02 -0.19904606859E+02 -0.55111055939E+02  0.11182961729E+03  0.79728900860E+02 0.  0.
        -11    1    4    4    0    0  0.51374807211E+02  0.55976063947E+01 -0.66223634240E+02  0.84001629421E+02  0.00000000000E+00 0.  1.
         12    1    4    4    0    0  0.73799170504E+00 -0.25502213253E+02  0.11112578301E+02  0.27827987873E+02  0.00000000000E+00 0. -1.
        -13    1    3    3    0    0 -0.23043782216E+02 -0.15578373975E+02 -0.23606447909E+02  0.36482406957E+02  0.00000000000E+00 0. -1.
         13    1    3    3    0    0 -0.33317478148E+02  0.91197656450E+02  0.30587168536E+01  0.97141250974E+02  0.00000000000E+00 0.  1.
         -2    1    1    2    0  502  0.42484614476E+01 -0.55714675616E+02  0.46364133214E+02  0.72607212813E+02  0.00000000000E+00 0.  1.
<scales pt_clust_5="13000.00000" pt_clust_6="13000.00000" pt_clust_7="13000.00000" pt_clust_8="13000.00000" pt_clust_9="55.87645"></scales>
<clustering>
<clus scale="   55.876">  2  9  1 -1</clus>
<clus scale="   79.729">  5  6 -1 -1</clus>
<clus scale="   92.402">  7  8 -1 -1</clus>
<clus scale="  108.147">  2  5  1 -1</clus>
<clus scale="   55.876">  2  5  1 -1</clus>
</clustering>
</event>
<event>
 9    2  0.6469128E-005  0.2842438E+03  0.7546771E-02  0.1094076E+00
          2   -1    0    0  502    0 -0.00000000000E+00  0.00000000000E+00  0.20775833120E+03  0.20775833120E+03  0.00000000000E+00 0. -1.
         21   -1    0    0  501  502  0.00000000000E+00 -0.00000000000E+00 -0.82422989485E+03  0.82422989485E+03  0.00000000000E+00 0.  1.
         23    2    1    2    0    0  0.41414533124E+02 -0.29663077176E+03 -0.20959964099E+03  0.37808219831E+03  0.96483992806E+02 0.  0.
         24    2    1    2    0    0  0.32335172567E+02  0.21660402770E+03 -0.47240309997E+03  0.52687203996E+03  0.80415106983E+02 0.  0.
        -11    1    4    4    0    0  0.55342286474E+02  0.14609256416E+03 -0.27942754313E+03  0.32013365621E+03  0.00000000000E+00 0.  1.
         12    1    4    4    0    0 -0.23007113907E+02  0.70511463539E+02 -0.19297555684E+03  0.20673838375E+03  0.00000000000E+00 0. -1.
        -13    1    3    3    0    0 -0.59328350414E+01 -0.24247500478E+03 -0.15617751444E+03  0.28848005563E+03  0.00000000000E+00 0.  1.
         13    1    3    3    0    0  0.47347368165E+02 -0.54155766975E+02 -0.53422126542E+02  0.89602142682E+02  0.00000000000E+00 0. -1.
          1    1    1    2  501    0 -0.73749705690E+02  0.80026744058E+02  0.65531177306E+02  0.12703398779E+03  0.00000000000E+00 0. -1.
<scales pt_clust_5="13000.00000" pt_clust_6="13000.00000" pt_clust_7="13000.00000" pt_clust_8="13000.00000" pt_clust_9="108.82698"></scales>
<clustering>
<clus scale="   80.415">  5  6 -1 -1</clus>
<clus scale="   96.484">  7  8 -1 -1</clus>
<clus scale="  108.827">  2  9  1 -1</clus>
<clus scale="  279.199">  2  5  1 -1</clus>
<clus scale="  108.827">  2  5  1 -1</clus>
</clustering>
</event>
<event>
 9    2  0.6469128E-005  0.1620123E+03  0.7546771E-02  0.1206693E+00
          2   -1    0    0  502    0 -0.00000000000E+00  0.00000000000E+00  0.17301407367E+03  0.17301407367E+03  0.00000000000E+00 0. -1.
         21   -1    0    0  501  502  0.00000000000E+00 -0.00000000000E+00 -0.24947707501E+03  0.24947707501E+03  0.00000000000E+00 0. -1.
         24    2    1    2    0    0 -0.22063952504E+02  0.56915685483E+02 -0.59691336038E+02  0.11999114158E+03  0.84312544763E+02 0.  0.
         23    2    1    2    0    0  0.66670970743E+01  0.10058814181E+03  0.25256549065E+02  0.13875969572E+03  0.91945284980E+02 0.  0.
        -13    1    3    3    0    0  0.22617993029E+02  0.54400995093E+02 -0.39238278089E+02  0.70786187517E+02  0.00000000000E+00 0.  1.
         14    1    3    3    0    0 -0.44681945533E+02  0.25146903897E+01 -0.20453057948E+02  0.49204954058E+02  0.00000000000E+00 0. -1.
        -11    1    4    4    0    0  0.43862799269E+02  0.59594189688E+02 -0.76061594939E+01  0.74385927880E+02  0.00000000000E+00 0.  1.
         11    1    4    4    0    0 -0.37195702195E+02  0.40993952119E+02  0.32862708559E+02  0.64373767840E+02  0.00000000000E+00 0. -1.
          1    1    1    2  501    0  0.15396855430E+02 -0.15750382729E+03 -0.42028214370E+02  0.16374031138E+03  0.00000000000E+00 0. -1.
<scales pt_clust_5="13000.00000" pt_clust_6="13000.00000" pt_clust_7="13000.00000" pt_clust_8="13000.00000" pt_clust_9="133.39430"></scales>
<clustering>
<clus scale="   84.313">  5  6 -1 -1</clus>
<clus scale="   91.945">  7  8 -1 -1</clus>
<clus scale="  104.090">  1  5  2 -1</clus>
<clus scale="  133.394">  2  9  1 -1</clus>
<clus scale="  133.394">  2  5  1 -1</clus>
</clustering>
</event>
<event>
 9    2  0.6469128E-005  0.9355372E+02  0.7546771E-02  0.1304037E+00
         -3   -1    0    0    0  501 -0.00000000000E+00  0.00000000000E+00  0.20237934059E+03  0.20237934059E+03  0.00000000000E+00 0.  1.
         21   -1    0    0  501  502  0.00000000000E+00 -0.00000000000E+00 -0.17417306664E+03  0.17417306664E+03  0.00000000000E+00 0.  1.
         24    2    1    2    0    0  0.14793836062E+02 -0.13463165708E+02  0.13339511685E+03  0.15569411107E+03  0.77757858807E+02 0.  0.
         23    2    1    2    0    0  0.46058562783E+02 -0.17045100896E+02 -0.12591812573E+02  0.10593232520E+03  0.93011704141E+02 0.  0.
        -13    1    3    3    0    0  0.37189717828E+02 -0.33617358164E+02  0.85315140337E+02  0.98953903676E+02  0.00000000000E+00 0.  1.
         14    1    3    3    0    0 -0.22395881766E+02  0.20154192456E+02  0.48079976516E+02  0.56740207397E+02  0.00000000000E+00 0. -1.
        -13    1    4    4    0    0 -0.14435428532E+02 -0.15973641242E+02 -0.35266894479E+02  0.41319398079E+02  0.00000000000E+00 0. -1.
         13    1    4    4    0    0  0.60493991315E+02 -0.10714596544E+01  0.22675081907E+02  0.64612927116E+02  0.00000000000E+00 0.  1.
         -4    1    1    2    0  502 -0.60852398845E+02  0.30508266604E+02 -0.92597030323E+02  0.11492597096E+03  0.00000000000E+00 0.  1.
<scales pt_clust_5="13000.00000" pt_clust_6="13000.00000" pt_clust_7="13000.00000" pt_clust_8="13000.00000" pt_clust_9="68.07179"></scales>
<clustering>
<clus scale="   68.072">  2  9  1 -1</clus>
<clus scale="   77.758">  5  6 -1 -1</clus>
<clus scale="   78.405">  1  5  2 -1</clus>
<clus scale="   93.012">  7  8 -1 -1</clus>
<clus scale="   68.072">  2  5  1 -1</clus>
</clustering>
</event>
<event>
 9    2  0.6469128E-005  0.9291361E+02  0.7546771E-02  0.1304148E+00
         -1   -1    0    0    0  501 -0.00000000000E+00  0.00000000000E+00  0.46622732525E+03  0.46622732525E+03  0.00000000000E+00 0.  1.
         21   -1    0    0  501  502  0.00000000000E+00 -0.00000000000E+00 -0.50085493953E+02  0.50085493953E+02  0.00000000000E+00 0.  1.
         24    2    1    2    0    0 -0.23688881515E+02  0.23099279082E+02  0.22753806098E+03  0.24312934417E+03  0.79016257822E+02 0.  0.
         23    2    1    2    0    0 -0.37706208560E+02  0.75608090779E+01  0.17749334750E+03  0.20366484741E+03  0.92176774004E+02 0.  0.
        -11    1    3    3    0    0 -0.43696087458E+02  0.54092195952E+01  0.65614242941E+02  0.79017951078E+02  0.00000000000E+00 0.  1.
         12    1    3    3    0    0  0.20007205943E+02  0.17690059487E+02  0.16192381804E+03  0.16411139309E+03  0.00000000000E+00 0. -1.
        -13    1    4    4    0    0  0.20804835929E+02  0.24545111364E+02  0.10023917518E+03  0.10527675874E+03  0.00000000000E+00 0.  1.
         13    1    4    4    0    0 -0.58511044489E+02 -0.16984302286E+02  0.77254172320E+02  0.98388088670E+02  0.00000000000E+00 0. -1.
         -2    1    1    2    0  502  0.61395090075E+02 -0.30660088160E+02  0.11110422816E+02  0.69518627622E+02  0.00000000000E+00 0.  1.
<scales pt_clust_5="13000.00000" pt_clust_6="13000.00000" pt_clust_7="13000.00000" pt_clust_8="13000.00000" pt_clust_9="68.62505"></scales>
<clustering>
<clus scale="   68.625">  2  9  1 -1</clus>
<clus scale="   79.016">  5  6 -1 -1</clus>
<clus scale="   79.875">  1  5  2 -1</clus>
<clus scale="   92.177">  7  8 -1 -1</clus>
<clus scale="   68.625">  2  5  1 -1</clus>
</clustering>
</event>
<event>
 9    2  0.6469128E-005  0.1005569E+03  0.7546771E-02  0.1284598E+00
         21   -1    0    0  501  502  0.00000000000E+00  0.00000000000E+00  0.41198498519E+02  0.41198498519E+02  0.00000000000E+00 0. -1.
          2   -1    0    0  502    0 -0.00000000000E+00 -0.00000000000E+00 -0.57745296912E+03  0.57745296912E+03  0.00000000000E+00 0. -1.
         24    2    1    2    0    0  0.28373208183E+02  0.52672734931E+02 -0.22321911204E+03  0.24450058951E+03  0.79839278197E+02 0.  0.
         23    2    1    2    0    0 -0.54582470381E+02  0.30744275108E+02 -0.22187668843E+03  0.24783687998E+03  0.90936228663E+02 0.  0.
        -11    1    3    3    0    0 -0.17146043102E+02  0.21614548105E+02 -0.15183534096E+03  0.15432156767E+03  0.00000000000E+00 0.  1.
         12    1    3    3    0    0  0.45519251284E+02  0.31058186826E+02 -0.71383771086E+02  0.90179021844E+02  0.00000000000E+00 0. -1.
        -13    1    4    4    0    0 -0.67406153608E+02  0.50654755645E+02 -0.19210286303E+03  0.20979276393E+03  0.00000000000E+00 0. -1.
         13    1    4    4    0    0  0.12823683228E+02 -0.19910480537E+02 -0.29773825399E+02  0.38044116045E+02  0.00000000000E+00 0.  1.
          1    1    1    2  501    0  0.26209262198E+02 -0.83417010039E+02 -0.91158670126E+02  0.12631399815E+03  0.00000000000E+00 0. -1.
<scales pt_clust_5="13000.00000" pt_clust_6="13000.00000" pt_clust_7="13000.00000" pt_clust_8="13000.00000" pt_clust_9="87.43754"></scales>
<clustering>
<clus scale="   79.839">  5  6 -1 -1</clus>
<clus scale="   87.438">  1  9  2 -1</clus>
<clus scale="   90.645">  2  5  1 -1</clus>
<clus scale="   90.936">  7  8 -1 -1</clus>
<clus scale="   87.438">  1  5  2 -1</clus>
</clustering>
</event>
<event>
 9    2  0.6469128E-005  0.8472599E+02  0.7546771E-02  0.1330907E+00
         21   -1    0    0  501  502  0.00000000000E+00  0.00000000000E+00  0.17855966021E+03  0.17855966021E+03  0.00000000000E+00 0. -1.
          2   -1    0    0  502    0 -0.00000000000E+00 -0.00000000000E+00 -0.44125302381E+03  0.44125302381E+03  0.00000000000E+00 0. -1.
         24    2    1    2    0    0 -0.42748521982E+01  0.33144219932E+02 -0.42071103327E+03  0.42927239014E+03  0.78486927184E+02 0.  0.
         23    2    1    2    0    0 -0.44116660000E+01 -0.12794861482E+02  0.40822156622E+02  0.71274455247E+02  0.56836856196E+02 0.  0.
        -13    1    3    3    0    0 -0.23074791661E+02 -0.54096871333E+01 -0.42707635184E+02  0.48843145150E+02  0.00000000000E+00 0.  1.
         14    1    3    3    0    0  0.18799939463E+02  0.38553907066E+02 -0.37800339809E+03  0.38042924499E+03  0.00000000000E+00 0. -1.
        -13    1    4    4    0    0  0.55273876954E+01  0.20780840364E+02  0.70593288641E+01  0.22632486937E+02  0.00000000000E+00 0.  1.
         13    1    4    4    0    0 -0.99390536954E+01 -0.33575701846E+02  0.33762827758E+02  0.48641968309E+02  0.00000000000E+00 0. -1.
          1    1    1    2  501    0  0.86865181982E+01 -0.20349358451E+02  0.11719551305E+03  0.11926583864E+03  0.00000000000E+00 0. -1.
<scales pt_clust_5="13000.00000" pt_clust_6="13000.00000" pt_clust_7="13000.00000" pt_clust_8="13000.00000" pt_clust_9="22.12582"></scales>
<clustering>
<clus scale="   22.126">  1  9  2 -1</clus>
<clus scale="   56.837">  7  8 -1 -1</clus>
<clus scale="   65.182">  1  7  2 -1</clus>
<clus scale="   78.487">  5  6 -1 -1</clus>
<clus scale="   22.126">  1  5  2 -1</clus>
</clustering>
</event>
<event>
 9    2  0.6469128E-005  0.1156396E+03  0.7546771E-02  0.1257721E+00
          2   -1    0    0  502    0 -0.00000000000E+00  0.00000000000E+00  0.16879585042E+03  0.16879585042E+03  0.00000000000E+00 0. -1.
         21   -1    0    0  501  502  0.00000000000E+00 -0.00000000000E+00 -0.15644076847E+03  0.15644076847E+03  0.00000000000E+00 0. -1.
         24    2    1    2    0    0 -0.14250731928E+02 -0.90498443998E+02  0.56072226840E+02  0.13352966490E+03  0.79328589172E+02 0.  0.
         23    2    1    2    0    0 -0.16637378947E+02  0.10041984420E+02 -0.29713114046E+02  0.10439469734E+03  0.98171991203E+02 0.  0.
        -11    1    3    3    0    0  0.22948404140E+02 -0.34798259904E+02 -0.61173300182E+01  0.42130391304E+02  0.00000000000E+00 0.  1.
         12    1    3    3    0    0 -0.37199136068E+02 -0.55700184094E+02  0.62189556858E+02  0.91399273600E+02  0.00000000000E+00 0. -1.
        -11    1    4    4    0    0 -0.98247904254E+01  0.54129760724E+02 -0.11467023089E+02  0.56196531222E+02  0.00000000000E+00 0.  1.
         11    1    4    4    0    0 -0.68125885217E+01 -0.44087776303E+02 -0.18246090956E+02  0.48198166116E+02  0.00000000000E+00 0. -1.
          1    1    1    2  501    0  0.30888110875E+02  0.80456459578E+02 -0.14004030844E+02  0.87312256649E+02  0.00000000000E+00 0. -1.
<scales pt_clust_5="13000.00000" pt_clust_6="13000.00000" pt_clust_7="13000.00000" pt_clust_8="13000.00000" pt_clust_9="86.18188"></scales>
<clustering>
<clus scale="   79.329">  5  6 -1 -1</clus>
<clus scale="   86.182">  2  9  1 -1</clus>
<clus scale="   98.172">  7  8 -1 -1</clus>
<clus scale="  100.139">  1  5  2 -1</clus>
<clus scale="   86.182">  2  5  1 -1</clus>
</clustering>
</event>
<event>
 9    2  0.6469128E-005  0.1089620E+03  0.7546771E-02  0.1267073E+00
          2   -1    0    0  502    0 -0.00000000000E+00  0.00000000000E+00  0.14527611196E+04  0.14527611196E+04  0.00000000000E+00 0. -1.
         21   -1    0    0  501  502  0.00000000000E+00 -0.00000000000E+00 -0.23186205424E+02  0.23186205424E+02  0.00000000000E+00 0.  1.
         24    2    1    2    0    0 -0.18775970309E+02  0.58991374149E+02  0.12453047264E+04  0.12494493870E+04  0.80668393613E+02 0.  0.
         23    2    1    2    0    0  0.20998193421E+02 -0.31140368780E+02  0.16497584708E+03  0.19254372830E+03  0.91898914531E+02 0.  0.
        -13    1    3    3    0    0  0.21826180554E+02 -0.33659030535E+00  0.12914447813E+03  0.13097630199E+03  0.00000000000E+00 0.  1.
         14    1    3    3    0    0 -0.40602150863E+02  0.59327964454E+02  0.11161602483E+04  0.11184730850E+04  0.00000000000E+00 0. -1.
        -11    1    4    4    0    0 -0.24379040753E+02 -0.43826095304E+02  0.65691212562E+02  0.82646232010E+02  0.00000000000E+00 0.  1.
         11    1    4    4    0    0  0.45377234174E+02  0.12685726523E+02  0.99284634519E+02  0.10989749629E+03  0.00000000000E+00 0. -1.
          1    1    1    2  501    0 -0.22222231118E+01 -0.27851005368E+02  0.19294340641E+02  0.33954209700E+02  0.00000000000E+00 0. -1.
<scales pt_clust_5="13000.00000" pt_clust_6="13000.00000" pt_clust_7="13000.00000" pt_clust_8="13000.00000" pt_clust_9="27.93952"></scales>
<clustering>
<clus scale="   27.940">  2  9  1 -1</clus>
<clus scale="   80.668">  5  6 -1 -1</clus>
<clus scale="   91.899">  7  8 -1 -1</clus>
<clus scale="   99.673">  1  5  2 -1</clus>
<clus scale="   27.940">  2  5  1 -1</clus>
</clustering>
</event>
<event>
 9    2  0.6469128E-005  0.1197375E+03  0.7546771E-02  0.1247868E+00
         21   -1    0    0  501  502  0.00000000000E+00  0.00000000000E+00  0.33782653724E+02  0.33782653724E+02  0.00000000000E+00 0. -1.
          2   -1    0    0  502    0 -0.00000000000E+00 -0.00000000000E+00 -0.18957928053E+04  0.18957928053E+04  0.00000000000E+00 0. -1.
         24    2    1    2    0    0  0.83253682254E+02  0.28629869184E+01 -0.91321682900E+03  0.92042089672E+03  0.79185087319E+02 0.  0.
         23    2    1    2    0    0 -0.18911464480E+02  0.82279356661E+02 -0.11985689724E+03  0.17337663910E+03  0.92554022863E+02 0.  0.
        -13    1    3    3    0    0  0.15884132163E+02  0.17694786245E+02 -0.61841018023E+02  0.66254981888E+02  0.00000000000E+00 0.  1.
         14    1    3    3    0    0  0.67369550090E+02 -0.14831799326E+02 -0.85137581097E+03  0.85416591483E+03  0.00000000000E+00 0. -1.
        -13    1    4    4    0    0  0.37106051021E+02  0.36490850781E+02 -0.40149653657E+02  0.65730022835E+02  0.00000000000E+00 0. -1.
         13    1    4    4    0    0 -0.56017515502E+02  0.45788505880E+02 -0.79707243578E+02  0.10764661626E+03  0.00000000000E+00 0.  1.
          1    1    1    2  501    0 -0.64342217773E+02 -0.85142343579E+02 -0.82893642537E+03  0.83577792323E+03  0.00000000000E+00 0. -1.
<scales pt_clust_5="13000.00000" pt_clust_6="13000.00000" pt_clust_7="13000.00000" pt_clust_8="13000.00000" pt_clust_9="106.71997"></scales>
<clustering>
<clus scale="   79.185">  5  6 -1 -1</clus>
<clus scale="   92.554">  7  8 -1 -1</clus>
<clus scale="  106.720">  1  9  2 -1</clus>
<clus scale="  109.732">  2  5  1 -1</clus>
<clus scale="  106.720">  1  5  2 -1</clus>
</clustering>
</event>
<event>
 9    2  0.6469128E-005  0.1514608E+03  0.7546771E-02  0.1200919E+00
         21   -1    0    0  501  502  0.00000000000E+00  0.00000000000E+00  0.98567950681E+02  0.98567950681E+02  0.00000000000E+00 0. -1.
          2   -1    0    0  502    0 -0.00000000000E+00 -0.00000000000E+00 -0.44074339039E+03  0.44074339039E+03  0.00000000000E+00 0. -1.
         24    2    1    2    0    0  0.98240413530E+02 -0.82329512313E+02 -0.31397393449E+03  0.34839746567E+03  0.79823775278E+02 0.  0.
         23    2    1    2    0    0 -0.65973631479E+02  0.55535726384E+02  0.19165525444E+02  0.12764707698E+03  0.92139687108E+02 0.  0.
        -11    1    3    3    0    0 -0.89506643382E+01 -0.23780307315E+02 -0.30281022205E+02  0.39529200774E+02  0.00000000000E+00 0.  1.
         12    1    3    3    0    0  0.10719107787E+03 -0.58549204998E+02 -0.28369291229E+03  0.30886826490E+03  0.00000000000E+00 0. -1.
        -13    1    4    4    0    0 -0.65269203611E+02  0.22434593167E+02  0.47734541657E+02  0.83916424958E+02  0.00000000000E+00 0. -1.
         13    1    4    4    0    0 -0.70442786748E+00  0.33101133216E+02 -0.28569016212E+02  0.43730652021E+02  0.00000000000E+00 0.  1.
          1    1    1    2  501    0 -0.32266782052E+02  0.26793785929E+02 -0.47367030660E+02  0.63266798417E+02  0.00000000000E+00 0. -1.
<scales pt_clust_5="13000.00000" pt_clust_6="13000.00000" pt_clust_7="13000.00000" pt_clust_8="13000.00000" pt_clust_9="41.94108"></scales>
<clustering>
<clus scale="   41.941">  1  9  2 -1</clus>
<clus scale="   79.824">  5  6 -1 -1</clus>
<clus scale="   92.140">  7  8 -1 -1</clus>
<clus scale="  144.300">  2  5  1 -1</clus>
<clus scale="   41.941">  1  5  2 -1</clus>
</clustering>
</event>
<event>
 9    2  0.6917634E-005  0.1019387E+03  0.7546771E-02  0.1280273E+00
         -1   -1    0    0    0  501 -0.00000000000E+00  0.00000000000E+00  0.56559873186E+03  0.56559873186E+03  0.00000000000E+00 0.  1.
         21   -1    0    0  501  502  0.00000000000E+00 -0.00000000000E+00 -0.46422018897E+02  0.46422018897E+02  0.00000000000E+00 0. -1.
         23    2    1    2    0    0  0.47725329476E+02  0.19920997420E+02  0.46472650792E+03  0.47613490708E+03  0.89772876546E+02 0.  0.
         24    2    1    2    0    0 -0.36806863912E+02 -0.15302895025E+01  0.66621645335E+02  0.11127741043E+03  0.81161144817E+02 0.  0.
        -11    1    4    4    0    0 -0.30241767220E+02  0.33522775245E+01  0.85472935795E+02  0.90727201007E+02  0.00000000000E+00 0.  1.
         12    1    4    4    0    0 -0.65650966922E+01 -0.48825670269E+01 -0.18851290460E+02  0.20550209424E+02  0.00000000000E+00 0. -1.
        -13    1    3    3    0    0  0.45611047429E+02 -0.28438453373E+02  0.28378771322E+03  0.28883313427E+03  0.00000000000E+00 0. -1.
         13    1    3    3    0    0  0.21142820472E+01  0.48359450794E+02  0.18093879471E+03  0.18730177281E+03  0.00000000000E+00 0.  1.
         -2    1    1    2    0  502 -0.10918465564E+02 -0.18390707918E+02 -0.12171440294E+02  0.24608433246E+02  0.00000000000E+00 0.  1.
<scales pt_clust_5="13000.00000" pt_clust_6="13000.00000" pt_clust_7="13000.00000" pt_clust_8="13000.00000" pt_clust_9="21.38764"></scales>
<clustering>
<clus scale="   21.388">  2  9  1 -1</clus>
<clus scale="   81.161">  5  6 -1 -1</clus>
<clus scale="   89.773">  7  8 -1 -1</clus>
<clus scale="   94.443">  2  5  1 -1</clus>
<clus scale="   21.388">  2  5  1 -1</clus>
</clustering>
</event>
<event>
 9    2  0.6469128E-005  0.1016507E+03  0.7546771E-02  0.1279708E+00
          2   -1    0    0  502    0 -0.00000000000E+00  0.00000000000E+00  0.50362512532E+02  0.50362512532E+02  0.00000000000E+00 0. -1.
         21   -1    0    0  501  502  0.00000000000E+00 -0.00000000000E+00 -0.67056762180E+03  0.67056762180E+03  0.00000000000E+00 0. -1.
         23    2    1    2    0    0 -0.54148221797E+02  0.44946993938E+02 -0.71287818592E+02  0.13360917260E+03  0.88414906747E+02 0.  0.
         24    2    1    2    0    0  0.38849122662E+02  0.19660401399E+02 -0.11288028306E+03  0.14625809776E+03  0.82180819792E+02 0.  0.
        -11    1    4    4    0    0  0.54263184815E+02 -0.65190588504E+01 -0.98499577165E+02  0.11264616308E+03  0.00000000000E+00 0.  1.
         12    1    4    4    0    0 -0.15414062154E+02  0.26179460249E+02 -0.14380705898E+02  0.33611934683E+02  0.00000000000E+00 0. -1.
        -13    1    3    3    0    0 -0.71922803879E+02  0.11164119689E+02 -0.34321597397E+02  0.80470487348E+02  0.00000000000E+00 0.  1.
         13    1    3    3    0    0  0.17774582081E+02  0.33782874249E+02 -0.36966221195E+02  0.53138685250E+02  0.00000000000E+00 0. -1.
          1    1    1    2  501    0  0.15299099136E+02 -0.64607395337E+02 -0.43603700762E+03  0.44106286398E+03  0.00000000000E+00 0. -1.
<scales pt_clust_5="13000.00000" pt_clust_6="13000.00000" pt_clust_7="13000.00000" pt_clust_8="13000.00000" pt_clust_9="66.39411"></scales>
<clustering>
<clus scale="   66.394">  2  9  1 -1</clus>
<clus scale="   82.181">  5  6 -1 -1</clus>
<clus scale="   88.415">  7  8 -1 -1</clus>
<clus scale="   96.278">  2  5  1 -1</clus>
<clus scale="   66.394">  2  5  1 -1</clus>
</clustering>
</event>
<event>
 9    2  0.6469128E-005  0.4322083E+03  0.7546771E-02  0.1033334E+00
          2   -1    0    0  502    0 -0.00000000000E+00  0.00000000000E+00  0.67795207538E+03  0.67795207538E+03  0.00000000000E+00 0. -1.
         21   -1    0    0  501  502  0.00000000000E+00 -0.00000000000E+00 -0.50148036215E+03  0.50148036215E+03  0.00000000000E+00 0.  1.
         23    2    1    2    0    0 -0.24404693137E+03 -0.25071040334E+03  0.26750886283E+02  0.36231014967E+03  0.90213211820E+02 0.  0.
         24    2    1    2    0    0  0.38403529514E+03  0.39088197641E+03 -0.23210911084E+02  0.55415803571E+03  0.79249951105E+02 0.  0.
        -13    1    4    4    0    0  0.98643900306E+02  0.12398734075E+03  0.25178913037E+02  0.16042897929E+03  0.00000000000E+00 0.  1.
         14    1    4    4    0    0  0.28539139484E+03  0.26689463565E+03 -0.48389824121E+02  0.39372905642E+03  0.00000000000E+00 0. -1.
        -13    1    3    3    0    0 -0.18623428696E+03 -0.13414984438E+03  0.20740583712E+00  0.22952000654E+03  0.00000000000E+00 0. -1.
         13    1    3    3    0    0 -0.57812644409E+02 -0.11656055896E+03  0.26543480446E+02  0.13279014313E+03  0.00000000000E+00 0.  1.
          1    1    1    2  501    0 -0.13998836378E+03 -0.14017157307E+03  0.17293173803E+03  0.26296425215E+03  0.00000000000E+00 0. -1.
<scales pt_clust_5="13000.00000" pt_clust_6="13000.00000" pt_clust_7="13000.00000" pt_clust_8="13000.00000" pt_clust_9="198.10313"></scales>
<clustering>
<clus scale="   79.250">  5  6 -1 -1</clus>
<clus scale="   90.213">  7  8 -1 -1</clus>
<clus scale="  198.103">  2  9  1 -1</clus>
<clus scale="  430.054">  2  5  1 -1</clus>
<clus scale="  198.103">  2  5  1 -1</clus>
</clustering>
</event>
<event>
 9    2  0.6469128E-005  0.2708852E+03  0.7546771E-02  0.1101443E+00
          2   -1    0    0  502    0 -0.00000000000E+00  0.00000000000E+00  0.26012043535E+04  0.26012043535E+04  0.00000000000E+00 0. -1.
         21   -1    0    0  501  502  0.00000000000E+00 -0.00000000000E+00 -0.35371382294E+02  0.35371382294E+02  0.00000000000E+00 0.  1.
         24    2    1    2    0    0  0.26084092296E+03  0.13977553740E+02  0.16954869224E+04  0.17172123556E+04  0.76870093296E+02 0.  0.
         23    2    1    2    0    0 -0.24380666099E+03  0.10187579662E+01  0.84953422077E+03  0.88857072466E+03  0.91688683350E+02 0.  0.
        -11    1    3    3    0    0  0.65254911171E+02  0.35814199425E+02  0.40086700534E+03  0.40771953140E+03  0.00000000000E+00 0.  1.
         12    1    3    3    0    0  0.19558601178E+03 -0.21836645685E+02  0.12946199171E+04  0.13094928242E+04  0.00000000000E+00 0. -1.
        -13    1    4    4    0    0 -0.13617150876E+03 -0.42304509877E+02  0.41503946353E+03  0.43885089455E+03  0.00000000000E+00 0. -1.
         13    1    4    4    0    0 -0.10763515223E+03  0.43323267843E+02  0.43449475724E+03  0.44971983011E+03  0.00000000000E+00 0.  1.
          1    1    1    2  501    0 -0.17034261963E+02 -0.14996311706E+02  0.20811828010E+02  0.30792655464E+02  0.00000000000E+00 0. -1.
<scales pt_clust_5="13000.00000" pt_clust_6="13000.00000" pt_clust_7="13000.00000" pt_clust_8="13000.00000" pt_clust_9="22.69483"></scales>
<clustering>
<clus scale="   22.695">  2  9  1 -1</clus>
<clus scale="   76.870">  5  6 -1 -1</clus>
<clus scale="   91.689">  7  8 -1 -1</clus>
<clus scale="  266.235">  1  5  2 -1</clus>
<clus scale="   22.695">  2  5  1 -1</clus>
</clustering>
</event>
<event>
 9    2  0.6469128E-005  0.1012373E+03  0.7546771E-02  0.1278708E+00
         21   -1    0    0  501  502  0.00000000000E+00  0.00000000000E+00  0.90355870276E+03  0.90355870276E+03  0.00000000000E+00 0. -1.
          4   -1    0    0  502    0 -0.00000000000E+00 -0.00000000000E+00 -0.19711057047E+02  0.19711057047E+02  0.00000000000E+00 0. -1.
         23    2    1    2    0    0  0.35147743245E+02  0.23154366654E+02  0.25665190717E+03  0.27557038861E+03  0.91089785772E+02 0.  0.
         24    2    1    2    0    0 -0.53764426717E+02 -0.25109511311E+01  0.59952660491E+03  0.60847804456E+03  0.88974503385E+02 0.  0.
        -11    1    4    4    0    0 -0.27273407060E+02  0.12387028903E+02  0.51266590552E+02  0.59376262298E+02  0.00000000000E+00 0.  1.
         12    1    4    4    0    0 -0.26491019657E+02 -0.14897980034E+02  0.54826001436E+03  0.54910178226E+03  0.00000000000E+00 0. -1.
        -13    1    3    3    0    0  0.42373741234E+02  0.46282887723E+02  0.23446247229E+03  0.24271442181E+03  0.00000000000E+00 0. -1.
         13    1    3    3    0    0 -0.72259979891E+01 -0.23128521069E+02  0.22189434878E+02  0.32855966794E+02  0.00000000000E+00 0.  1.
          3    1    1    2  501    0  0.18616683472E+02 -0.20643415523E+02  0.27669133627E+02  0.39221326643E+02  0.00000000000E+00 0. -1.
<scales pt_clust_5="13000.00000" pt_clust_6="13000.00000" pt_clust_7="13000.00000" pt_clust_8="13000.00000" pt_clust_9="27.79806"></scales>
<clustering>
<clus scale="   27.798">  1  9  2 -1</clus>
<clus scale="   88.975">  5  6 -1 -1</clus>
<clus scale="   91.090">  7  8 -1 -1</clus>
<clus scale="   99.338">  1  5  2 -1</clus>
<clus scale="   27.798">  1  5  2 -1</clus>
</clustering>
</event>
<event>
 9    2  0.6469128E-005  0.2511524E+03  0.7546771E-02  0.1123715E+00
         21   -1    0    0  501  502  0.00000000000E+00  0.00000000000E+00  0.13599646510E+03  0.13599646510E+03  0.00000000000E+00 0. -1.
          2   -1    0    0  502    0 -0.00000000000E+00 -0.00000000000E+00 -0.13762433282E+04  0.13762433282E+04  0.00000000000E+00 0. -1.
         23    2    1    2    0    0  0.10831461896E+03  0.12644899774E+03 -0.74634833743E+03  0.77013324015E+03  0.91367177334E+02 0.  0.
         24    2    1    2    0    0  0.91085269599E+02 -0.24433541554E+03 -0.10869641976E+03  0.29261997331E+03  0.76257560215E+02 0.  0.
        -13    1    4    4    0    0  0.23421556838E+02 -0.82706585305E+02 -0.75234231935E+02  0.11423282467E+03  0.00000000000E+00 0.  1.
         14    1    4    4    0    0  0.67663712761E+02 -0.16162883023E+03 -0.33462187825E+02  0.17838714864E+03  0.00000000000E+00 0. -1.
        -11    1    3    3    0    0  0.94093789917E+02  0.42038492712E+02 -0.36312438641E+03  0.37746549004E+03  0.00000000000E+00 0. -1.
         11    1    3    3    0    0  0.14220829039E+02  0.84410505030E+02 -0.38322395102E+03  0.39266775011E+03  0.00000000000E+00 0.  1.
          1    1    1    2  501    0 -0.19939988855E+03  0.11788641779E+03 -0.38520210587E+03  0.44948657980E+03  0.00000000000E+00 0. -1.
<scales pt_clust_5="13000.00000" pt_clust_6="13000.00000" pt_clust_7="13000.00000" pt_clust_8="13000.00000" pt_clust_9="239.29560"></scales>
<clustering>
<clus scale="   76.258">  5  6 -1 -1</clus>
<clus scale="   91.367">  7  8 -1 -1</clus>
<clus scale="  189.919">  2  7  1 -1</clus>
<clus scale="  239.296">  1  9  2 -1</clus>
<clus scale="  239.296">  1  5  2 -1</clus>
</clustering>
</event>
<event>
 9    2  0.6469128E-005  0.9579962E+02  0.7546771E-02  0.1292903E+00
         21   -1    0    0  501  502  0.00000000000E+00  0.00000000000E+00  0.56616254730E+02  0.56616254730E+02  0.00000000000E+00 0.  1.
          2   -1    0    0  502    0 -0.00000000000E+00 -0.00000000000E+00 -0.42922125096E+03  0.42922125096E+03  0.00000000000E+00 0. -1.
         24    2    1    2    0    0 -0.14536980400E+02  0.27040924649E+02 -0.34698143682E+03  0.35835884527E+03  0.84157050123E+02 0.  0.
         23    2    1    2    0    0 -0.31010157539E+01 -0.38193588557E+02 -0.35218984862E+02  0.10451013826E+03  0.90629054938E+02 0.  0.
        -11    1    3    3    0    0 -0.14932763939E+02  0.31538476508E+02 -0.48001467627E+02  0.59344787754E+02  0.00000000000E+00 0.  1.
         12    1    3    3    0    0  0.39578353936E+00 -0.44975518584E+01 -0.29897996919E+03  0.29901405752E+03  0.00000000000E+00 0. -1.
        -13    1    4    4    0    0 -0.85912926139E+01 -0.67676886459E+02 -0.21471449359E+02  0.71519189084E+02  0.00000000000E+00 0.  1.
         13    1    4    4    0    0  0.54902768599E+01  0.29483297902E+02 -0.13747535504E+02  0.32990949177E+02  0.00000000000E+00 0. -1.
          1    1    1    2  501    0  0.17637996154E+02  0.11152663908E+02  0.95954254474E+01  0.22968522157E+02  0.00000000000E+00 0. -1.
<scales pt_clust_5="13000.00000" pt_clust_6="13000.00000" pt_clust_7="13000.00000" pt_clust_8="13000.00000" pt_clust_9="20.86818"></scales>
<clustering>
<clus scale="   20.868">  1  9  2 -1</clus>
<clus scale="   84.157">  5  6 -1 -1</clus>
<clus scale="   89.701">  2  5  1 -1</clus>
<clus scale="   90.629">  7  8 -1 -1</clus>
<clus scale="   20.868">  1  5  2 -1</clus>
</clustering>
</event>
<event>
 9    2  0.6469128E-005  0.9589196E+02  0.7546771E-02  0.1289989E+00
          2   -1    0    0  502    0 -0.00000000000E+00  0.00000000000E+00  0.65770748741E+03  0.65770748741E+03  0.00000000000E+00 0. -1.
         21   -1    0    0  501  502  0.00000000000E+00 -0.00000000000E+00 -0.47626239073E+02  0.47626239073E+02  0.00000000000E+00 0. -1.
         24    2    1    2    0    0 -0.31898772564E+02 -0.41941973535E+01  0.51087577360E+03  0.51955445614E+03  0.88924990048E+02 0.  0.
         23    2    1    2    0    0  0.31429957715E+02 -0.22839526802E+02  0.11738133632E+03  0.15320007494E+03  0.90456611797E+02 0.  0.
        -13    1    3    3    0    0 -0.27455079286E+02  0.39538057348E+02  0.20746378887E+03  0.21297479440E+03  0.00000000000E+00 0.  1.
         14    1    3    3    0    0 -0.44436932779E+01 -0.43732254702E+02  0.30341198473E+03  0.30657966174E+03  0.00000000000E+00 0. -1.
        -13    1    4    4    0    0  0.62617737739E+02 -0.65154784293E+01  0.80824624291E+02  0.10245024368E+03  0.00000000000E+00 0.  1.
         13    1    4    4    0    0 -0.31187780023E+02 -0.16324048373E+02  0.36556712034E+02  0.50749831259E+02  0.00000000000E+00 0. -1.
          1    1    1    2  501    0  0.46881484878E+00  0.27033724155E+02 -0.18175861587E+02  0.32579195409E+02  0.00000000000E+00 0. -1.
<scales pt_clust_5="13000.00000" pt_clust_6="13000.00000" pt_clust_7="13000.00000" pt_clust_8="13000.00000" pt_clust_9="27.03779"></scales>
<clustering>
<clus scale="   27.038">  2  9  1 -1</clus>
<clus scale="   88.925">  5  6 -1 -1</clus>
<clus scale="   90.457">  7  8 -1 -1</clus>
<clus scale="   94.449">  1  5  2 -1</clus>
<clus scale="   27.038">  2  5  1 -1</clus>
</clustering>
</event>
<event>
 9    2  0.6469128E-005  0.9666064E+02  0.7546771E-02  0.1298227E+00
         -1   -1    0    0    0  501 -0.00000000000E+00  0.00000000000E+00  0.23155940804E+02  0.23155940804E+02  0.00000000000E+00 0.  1.
         21   -1    0    0  501  502  0.00000000000E+00 -0.00000000000E+00 -0.46736536112E+03  0.46736536112E+03  0.00000000000E+00 0. -1.
         24    2    1    2    0    0 -0.18660189470E+02  0.40488331867E+02 -0.13591399928E+03  0.15963009801E+03  0.70863568234E+02 0.  0.
         23    2    1    2    0    0  0.94212367199E+01 -0.19408584939E+02 -0.20311632437E+03  0.22322339836E+03  0.90038833156E+02 0.  0.
        -11    1    3    3    0    0 -0.45297430932E+02  0.30917621252E+02 -0.80507989141E+02  0.97413001537E+02  0.00000000000E+00 0.  1.
         12    1    3    3    0    0  0.26637241462E+02  0.95707106153E+01 -0.55406010139E+02  0.62217096476E+02  0.00000000000E+00 0. -1.
        -11    1    4    4    0    0 -0.31724555700E+02  0.68334037533E+01 -0.33152816067E+02  0.46392370649E+02  0.00000000000E+00 0.  1.
         11    1    4    4    0    0  0.41145792420E+02 -0.26241988692E+02 -0.16996350831E+03  0.17683102771E+03  0.00000000000E+00 0. -1.
         -2    1    1    2    0  502  0.92389527503E+01 -0.21079746928E+02 -0.10517909667E+03  0.10766780556E+03  0.00000000000E+00 0.  1.
<scales pt_clust_5="13000.00000" pt_clust_6="13000.00000" pt_clust_7="13000.00000" pt_clust_8="13000.00000" pt_clust_9="23.01552"></scales>
<clustering>
<clus scale="   23.016">  2  9  1 -1</clus>
<clus scale="   70.864">  5  6 -1 -1</clus>
<clus scale="   79.107">  1  5  2 -1</clus>
<clus scale="   90.039">  7  8 -1 -1</clus>
<clus scale="   23.016">  2  5  1 -1</clus>
</clustering>
</event>
<event>
 9    2  0.6469128E-005  0.9230242E+02  0.7546771E-02  0.1301305E+00
         21   -1    0    0  501  502  0.00000000000E+00  0.00000000000E+00  0.34718469393E+03  0.34718469393E+03  0.00000000000E+00 0. -1.
         -3   -1    0    0    0  501 -0.00000000000E+00 -0.00000000000E+00 -0.10368810912E+03  0.10368810912E+03  0.00000000000E+00 0.  1.
         24    2    1    2    0    0  0.14529637982E+02  0.12649187051E+02 -0.51043832979E+02  0.98707507228E+02  0.82259265649E+02 0.  0.
         23    2    1    2    0    0 -0.51224693898E+02 -0.57767354959E+01  0.69666673599E+02  0.12421363746E+03  0.88984506421E+02 0.  0.
        -11    1    3    3    0    0  0.20951134689E+02  0.45604194400E+02 -0.36816554873E+02  0.62242680729E+02  0.00000000000E+00 0.  1.
         12    1    3    3    0    0 -0.64214967065E+01 -0.32955007349E+02 -0.14227278106E+02  0.36464826499E+02  0.00000000000E+00 0. -1.
        -13    1    4    4    0    0 -0.48286367611E+02  0.35685339736E+02  0.31596254470E+02  0.67847918654E+02  0.00000000000E+00 0. -1.
         13    1    4    4    0    0 -0.29383262864E+01 -0.41462075232E+02  0.38070419129E+02  0.56365718806E+02  0.00000000000E+00 0.  1.
         -4    1    1    2    0  502  0.36695055916E+02 -0.68724515555E+01  0.22487374419E+03  0.22795165836E+03  0.00000000000E+00 0.  1.
<scales pt_clust_5="13000.00000" pt_clust_6="13000.00000" pt_clust_7="13000.00000" pt_clust_8="13000.00000" pt_clust_9="37.33306"></scales>
<clustering>
<clus scale="   37.333">  1  9  2 -1</clus>
<clus scale="   82.259">  5  6 -1 -1</clus>
<clus scale="   85.838">  2  5  1 -1</clus>
<clus scale="   88.985">  7  8 -1 -1</clus>
<clus scale="   37.333">  1  5  2 -1</clus>
</clustering>
</event>
<event>
 9    2  0.6469128E-005  0.9352586E+02  0.7546771E-02  0.1300687E+00
         21   -1    0    0  501  502  0.00000000000E+00  0.00000000000E+00  0.15203742010E+02  0.15203742010E+02  0.00000000000E+00 0. -1.
          2   -1    0    0  502    0 -0.00000000000E+00 -0.00000000000E+00 -0.75615191623E+03  0.75615191623E+03  0.00000000000E+00 0. -1.
         24    2    1    2    0    0 -0.65105842938E+01 -0.17695336345E+02 -0.37382671820E+03  0.38287153549E+03  0.80552373133E+02 0.  0.
         23    2    1    2    0    0 -0.20628009122E+02  0.28181552673E+02 -0.29689762250E+03  0.31247194753E+03  0.90943966697E+02 0.  0.
        -11    1    3    3    0    0 -0.26676154709E+02 -0.41947962974E+02 -0.26236570731E+03  0.26703373045E+03  0.00000000000E+00 0.  1.
         12    1    3    3    0    0  0.20165570415E+02  0.24252626630E+02 -0.11146101089E+03  0.11583780504E+03  0.00000000000E+00 0. -1.
        -13    1    4    4    0    0 -0.46023784581E+02 -0.13465056883E+02 -0.12867413155E+03  0.13731907600E+03  0.00000000000E+00 0. -1.
         13    1    4    4    0    0  0.25395775459E+02  0.41646609557E+02 -0.16822349094E+03  0.17515287153E+03  0.00000000000E+00 0.  1.
          1    1    1    2  501    0  0.27138593416E+02 -0.10486216329E+02 -0.70223833525E+02  0.76012175212E+02  0.00000000000E+00 0. -1.
<scales pt_clust_5="13000.00000" pt_clust_6="13000.00000" pt_clust_7="13000.00000" pt_clust_8="13000.00000" pt_clust_9="29.09405"></scales>
<clustering>
<clus scale="   29.094">  1  9  2 -1</clus>
<clus scale="   80.552">  5  6 -1 -1</clus>
<clus scale="   83.456">  2  5  1 -1</clus>
<clus scale="   90.944">  7  8 -1 -1</clus>
<clus scale="   29.094">  1  5  2 -1</clus>
</clustering>
</event>
<event>
 9    2  0.6469128E-005  0.9271613E+02  0.7546771E-02  0.1304046E+00
         21   -1    0    0  501  502  0.00000000000E+00  0.00000000000E+00  0.15077891441E+03  0.15077891441E+03  0.00000000000E+00 0. -1.
          2   -1    0    0  502    0 -0.00000000000E+00 -0.00000000000E+00 -0.15962360477E+03  0.15962360477E+03  0.00000000000E+00 0. -1.
         23    2    1    2    0    0  0.75653645176E+01  0.24863858744E+02 -0.20965956574E+02  0.98258550591E+02  0.92410633680E+02 0.  0.
         24    2    1    2    0    0  0.70068845911E+01  0.39621752997E+02  0.77949715685E+02  0.11884804518E+03  0.80185534385E+02 0.  0.
        -11    1    4    4    0    0 -0.24410274165E+02  0.88305037471E+01 -0.35835258340E+01  0.26204597662E+02  0.00000000000E+00 0.  1.
         12    1    4    4    0    0  0.31417158756E+02  0.30791249250E+02  0.81533241519E+02  0.92643447514E+02  0.00000000000E+00 0. -1.
        -13    1    3    3    0    0  0.40237671775E+02  0.16098379483E+02 -0.40397681469E+02  0.59246946925E+02  0.00000000000E+00 0.  1.
         13    1    3    3    0    0 -0.32672307257E+02  0.87654792611E+01  0.19431724895E+02  0.39011603666E+02  0.00000000000E+00 0. -1.
          1    1    1    2  501    0 -0.14572249109E+02 -0.64485611741E+02 -0.65828449470E+02  0.93295923412E+02  0.00000000000E+00 0. -1.
<scales pt_clust_5="13000.00000" pt_clust_6="13000.00000" pt_clust_7="13000.00000" pt_clust_8="13000.00000" pt_clust_9="66.11164"></scales>
<clustering>
<clus scale="   66.112">  1  9  2 -1</clus>
<clus scale="   80.186">  5  6 -1 -1</clus>
<clus scale="   80.537">  1  5  2 -1</clus>
<clus scale="   92.411">  7  8 -1 -1</clus>
<clus scale="   66.112">  1  5  2 -1</clus>
</clustering>
</event>
<event>
 9    2  0.6469128E-005  0.9420780E+02  0.7546771E-02  0.1297544E+00
         -1   -1    0    0    0  501 -0.00000000000E+00  0.00000000000E+00  0.73454585222E+02  0.73454585222E+02  0.00000000000E+00 0.  1.
         21   -1    0    0  501  502  0.00000000000E+00 -0.00000000000E+00 -0.49711542484E+03  0.49711542484E+03  0.00000000000E+00 0.  1.
         24    2    1    2    0    0 -0.11783767087E+02  0.21549749712E+02 -0.19698668454E+02  0.88341881949E+02  0.82540909178E+02 0.  0.
         23    2    1    2    0    0  0.61645253443E+02 -0.13427595311E+01 -0.41334434656E+03  0.42761571662E+03  0.90552261129E+02 0.  0.
        -11    1    3    3    0    0  0.35078801056E+02  0.20442708170E+01 -0.11166464937E+02  0.36869923595E+02  0.00000000000E+00 0.  1.
         12    1    3    3    0    0 -0.46862568143E+02  0.19505478895E+02 -0.85322035165E+01  0.51471958353E+02  0.00000000000E+00 0. -1.
        -11    1    4    4    0    0 -0.20552870125E+02  0.15294417487E+02 -0.90479566713E+02  0.94036650670E+02  0.00000000000E+00 0. -1.
         11    1    4    4    0    0  0.82198123568E+02 -0.16637177018E+02 -0.32286477984E+03  0.33357906595E+03  0.00000000000E+00 0.  1.
         -2    1    1    2    0  502 -0.49861486356E+02 -0.20206990181E+02  0.93821753926E+01  0.54612411492E+02  0.00000000000E+00 0.  1.
<scales pt_clust_5="13000.00000" pt_clust_6="13000.00000" pt_clust_7="13000.00000" pt_clust_8="13000.00000" pt_clust_9="53.80049"></scales>
<clustering>
<clus scale="   53.800">  2  9  1 -1</clus>
<clus scale="   82.541">  5  6 -1 -1</clus>
<clus scale="   86.536">  1  5  2 -1</clus>
<clus scale="   90.552">  7  8 -1 -1</clus>
<clus scale="   53.800">  2  5  1 -1</clus>
</clustering>
</event>
<event>
 9    2  0.6469128E-005  0.2874318E+03  0.7546771E-02  0.1109572E+00
          2   -1    0    0  502    0 -0.00000000000E+00  0.00000000000E+00  0.16247312424E+04  0.16247312424E+04  0.00000000000E+00 0. -1.
         21   -1    0    0  501  502  0.00000000000E+00 -0.00000000000E+00 -0.92219301150E+02  0.92219301150E+02  0.00000000000E+00 0.  1.
         24    2    1    2    0    0 -0.10093400803E+03  0.12606852441E+03  0.49024335829E+03  0.52253999363E+03  0.81415893896E+02 0.  0.
         23    2    1    2    0    0 -0.18403543781E+02 -0.33043732598E+03  0.55440430824E+03  0.65217479964E+03  0.91871189532E+02 0.  0.
        -13    1    3    3    0    0 -0.10926853038E+03  0.13141951788E+03  0.46072813806E+03  0.49140728384E+03  0.00000000000E+00 0.  1.
         14    1    3    3    0    0  0.83345223504E+01 -0.53509934748E+01  0.29515220227E+02  0.31132709792E+02  0.00000000000E+00 0. -1.
        -11    1    4    4    0    0  0.22383725651E+02 -0.26312759598E+03  0.44382293245E+03  0.51644550372E+03  0.00000000000E+00 0. -1.
         11    1    4    4    0    0 -0.40787269432E+02 -0.67309729997E+02  0.11058137579E+03  0.13572929593E+03  0.00000000000E+00 0.  1.
          1    1    1    2  501    0  0.11933755181E+03  0.20436880157E+03  0.48786427472E+03  0.54223575028E+03  0.00000000000E+00 0. -1.
<scales pt_clust_5="13000.00000" pt_clust_6="13000.00000" pt_clust_7="13000.00000" pt_clust_8="13000.00000" pt_clust_9="272.35407"></scales>
<clustering>
<clus scale="   81.416">  5  6 -1 -1</clus>
<clus scale="   91.871">  7  8 -1 -1</clus>
<clus scale="  180.858">  1  5  2 -1</clus>
<clus scale="  272.354">  2  9  1 -1</clus>
<clus scale="  272.354">  2  5  1 -1</clus>
</clustering>
</event>
<event>
 9    2  0.6469128E-005  0.3808435E+03  0.7546771E-02  0.1094113E+00
         -1   -1    0    0    0  501 -0.00000000000E+00  0.00000000000E+00  0.55383215774E+03  0.55383215774E+03  0.00000000000E+00 0.  1.
         21   -1    0    0  501  502  0.00000000000E+00 -0.00000000000E+00 -0.43428333096E+03  0.43428333096E+03  0.00000000000E+00 0.  1.
         24    2    1    2    0    0  0.41345140898E+02  0.72587529755E+02  0.26889889720E+02  0.11903977774E+03  0.80430295065E+02 0.  0.
         23    2    1    2    0    0 -0.21691975229E+03  0.28824806049E+03 -0.14900934259E+03  0.40063966970E+03  0.90372769422E+02 0.  0.
        -11    1    3    3    0    0  0.52619904900E+02  0.14213068430E+02  0.23888547713E+02  0.59510742037E+02  0.00000000000E+00 0.  1.
         12    1    3    3    0    0 -0.11274764003E+02  0.58374461325E+02  0.30013420074E+01  0.59529035706E+02  0.00000000000E+00 0. -1.
        -11    1    4    4    0    0 -0.19293867088E+03  0.26274053691E+03 -0.10107847978E+03  0.34128401593E+03  0.00000000000E+00 0.  1.
         11    1    4    4    0    0 -0.23981081417E+02  0.25507523572E+02 -0.47930862812E+02  0.59355653771E+02  0.00000000000E+00 0. -1.
         -2    1    1    2    0  502  0.17557461140E+03 -0.36083559024E+03  0.24166827965E+03  0.46843604125E+03  0.00000000000E+00 0.  1.
<scales pt_clust_5="13000.00000" pt_clust_6="13000.00000" pt_clust_7="13000.00000" pt_clust_8="13000.00000" pt_clust_9="369.96574"></scales>
<clustering>
<clus scale="   80.430">  5  6 -1 -1</clus>
<clus scale="   90.373">  7  8 -1 -1</clus>
<clus scale="  115.963">  1  5  2 -1</clus>
<clus scale="  369.966">  2  9  1 -1</clus>
<clus scale="  369.966">  2  5  1 -1</clus>
</clustering>
</event>
<event>
 9    2  0.6469128E-005  0.1151295E+03  0.7546771E-02  0.1257386E+00
         21   -1    0    0  501  502  0.00000000000E+00  0.00000000000E+00  0.19386367397E+03  0.19386367397E+03  0.00000000000E+00 0.  1.
          2   -1    0    0  502    0 -0.00000000000E+00 -0.00000000000E+00 -0.24066051399E+03  0.24066051399E+03  0.00000000000E+00 0. -1.
         24    2    1    2    0    0  0.52067124277E+02  0.29067166334E+02 -0.19733771919E+03  0.22219750625E+03  0.82907603874E+02 0.  0.
         23    2    1    2    0    0 -0.62341813886E+02 -0.10767998262E+02  0.88196330416E+02  0.14654468144E+03  0.98459633427E+02 0.  0.
        -11    1    3    3    0    0  0.34375676496E+02 -0.14167052599E+02 -0.28027324725E+02  0.46560964822E+02  0.00000000000E+00 0.  1.
         12    1    3    3    0    0  0.17691447781E+02  0.43234218933E+02 -0.16931039447E+03  0.17563654143E+03  0.00000000000E+00 0. -1.
        -13    1    4    4    0    0  0.23653627296E+02 -0.10328553185E+02  0.41001792073E+02  0.48449149098E+02  0.00000000000E+00 0. -1.
         13    1    4    4    0    0 -0.85995441182E+02 -0.43944507723E+00  0.47194538343E+02  0.98095532342E+02  0.00000000000E+00 0.  1.
          1    1    1    2  501    0  0.10274689609E+02 -0.18299168072E+02  0.62344548761E+02  0.65782000265E+02  0.00000000000E+00 0. -1.
<scales pt_clust_5="13000.00000" pt_clust_6="13000.00000" pt_clust_7="13000.00000" pt_clust_8="13000.00000" pt_clust_9="20.98640"></scales>
<clustering>
<clus scale="   20.986">  1  9  2 -1</clus>
<clus scale="   82.908">  5  6 -1 -1</clus>
<clus scale="   98.460">  7  8 -1 -1</clus>
<clus scale="  102.148">  2  5  1 -1</clus>
<clus scale="   20.986">  1  5  2 -1</clus>
</clustering>
</event>
<event>
 9    2  0.6469128E-005  0.9655072E+02  0.7546771E-02  0.1293339E+00
          2   -1    0    0  502    0 -0.00000000000E+00  0.00000000000E+00  0.49391921829E+03  0.49391921829E+03  0.00000000000E+00 0. -1.
         21   -1    0    0  501  502  0.00000000000E+00 -0.00000000000E+00 -0.36414312979E+02  0.36414312979E+02  0.00000000000E+00 0. -1.
         24    2    1    2    0    0 -0.42022014750E+02 -0.22689980928E+02  0.27979626467E+03  0.29524149140E+03  0.81245944906E+02 0.  0.
         23    2    1    2    0    0 -0.12257268937E+02 -0.22449073910E+01  0.89684815392E+02  0.12871449005E+03  0.91481001234E+02 0.  0.
        -13    1    3    3    0    0  0.26174256723E+01 -0.44118370012E+02  0.11643561414E+03  0.12454129327E+03  0.00000000000E+00 0.  1.
         14    1    3    3    0    0 -0.44639440423E+02  0.21428389084E+02  0.16336065053E+03  0.17070019813E+03  0.00000000000E+00 0. -1.
        -13    1    4    4    0    0  0.22249599802E+02 -0.35834607554E+02  0.28741228352E+02  0.51041375345E+02  0.00000000000E+00 0. -1.
         13    1    4    4    0    0 -0.34506868739E+02  0.33589700163E+02  0.60943587039E+02  0.77673114708E+02  0.00000000000E+00 0.  1.
          1    1    1    2  501    0  0.54279283688E+02  0.24934888319E+02  0.88023825255E+02  0.10637754982E+03  0.00000000000E+00 0. -1.
<scales pt_clust_5="13000.00000" pt_clust_6="13000.00000" pt_clust_7="13000.00000" pt_clust_8="13000.00000" pt_clust_9="59.73265"></scales>
<clustering>
<clus scale="   59.733">  2  9  1 -1</clus>
<clus scale="   81.246">  5  6 -1 -1</clus>
<clus scale="   86.915">  1  5  2 -1</clus>
<clus scale="   91.481">  7  8 -1 -1</clus>
<clus scale="   59.733">  2  5  1 -1</clus>
</clustering>
</event>
<event>
 9    2  0.6469128E-005  0.1323462E+03  0.7546771E-02  0.1228845E+00
         21   -1    0    0  501  502  0.00000000000E+00  0.00000000000E+00  0.73997753449E+02  0.73997753449E+02  0.00000000000E+00 0.  1.
          2   -1    0    0  502    0 -0.00000000000E+00 -0.00000000000E+00 -0.30519004748E+03  0.30519004748E+03  0.00000000000E+00 0. -1.
         23    2    1    2    0    0 -0.28791473830E+02  0.10071731394E+03 -0.13350975848E+03  0.19404714595E+03  0.94109048193E+02 0.  0.
         24    2    1    2    0    0  0.51170370071E+02 -0.68335375577E+02 -0.89797466267E+02  0.14499617532E+03  0.75313847201E+02 0.  0.
        -13    1    4    4    0    0  0.25210428283E+02  0.45109340955E+01 -0.54027987125E+02  0.59790782010E+02  0.00000000000E+00 0.  1.
         14    1    4    4    0    0  0.25959941788E+02 -0.72846309672E+02 -0.35769479142E+02  0.85205393307E+02  0.00000000000E+00 0. -1.
        -13    1    3    3    0    0 -0.26977672051E+02  0.57575783494E+02 -0.11489982839E+02  0.64612578805E+02  0.00000000000E+00 0.  1.
         13    1    3    3    0    0 -0.18138017799E+01  0.43141530444E+02 -0.12201977564E+03  0.12943456715E+03  0.00000000000E+00 0. -1.
          1    1    1    2  501    0 -0.22378896240E+02 -0.32381938361E+02 -0.78850692800E+01  0.40144479652E+02  0.00000000000E+00 0. -1.
<scales pt_clust_5="13000.00000" pt_clust_6="13000.00000" pt_clust_7="13000.00000" pt_clust_8="13000.00000" pt_clust_9="39.36248"></scales>
<clustering>
<clus scale="   39.362">  1  9  2 -1</clus>
<clus scale="   75.314">  5  6 -1 -1</clus>
<clus scale="   94.109">  7  8 -1 -1</clus>
<clus scale="  119.713">  1  5  2 -1</clus>
<clus scale="   39.362">  1  5  2 -1</clus>
</clustering>
</event>
<event>
 9    2  0.6469128E-005  0.1586330E+03  0.7546771E-02  0.1191727E+00
          4   -1    0    0  502    0 -0.00000000000E+00  0.00000000000E+00  0.26867732629E+03  0.26867732629E+03  0.00000000000E+00 0. -1.
         21   -1    0    0  501  502  0.00000000000E+00 -0.00000000000E+00 -0.31974428678E+03  0.31974428678E+03  0.00000000000E+00 0. -1.
         24    2    1    2    0    0 -0.34369533812E+01  0.13342942430E+03  0.11463572093E+03  0.19359088788E+03  0.80751838606E+02 0.  0.
         23    2    1    2    0    0  0.14925199836E+03 -0.98624102854E+02 -0.13576081943E+03  0.24195838354E+03  0.90055464011E+02 0.  0.
        -11    1    3    3    0    0  0.12553041924E+02  0.45495739401E+02 -0.12882609674E+01  0.47213353847E+02  0.00000000000E+00 0.  1.
         12    1    3    3    0    0 -0.15989995305E+02  0.87933684900E+02  0.11592398189E+03  0.14637753403E+03  0.00000000000E+00 0. -1.
        -11    1    4    4    0    0  0.26467060712E+02 -0.27660939420E+02  0.89784595138E+01  0.39322329631E+02  0.00000000000E+00 0.  1.
         11    1    4    4    0    0  0.12278493764E+03 -0.70963163434E+02 -0.14473927894E+03  0.20263605391E+03  0.00000000000E+00 0. -1.
          3    1    1    2  501    0 -0.14581504497E+03 -0.34805321447E+02 -0.29941861988E+02  0.15287234165E+03  0.00000000000E+00 0. -1.
<scales pt_clust_5="13000.00000" pt_clust_6="13000.00000" pt_clust_7="13000.00000" pt_clust_8="13000.00000" pt_clust_9="149.91143"></scales>
<clustering>
<clus scale="   80.752">  5  6 -1 -1</clus>
<clus scale="   90.055">  7  8 -1 -1</clus>
<clus scale="  149.911">  2  9  1 -1</clus>
<clus scale="  153.543">  1  5  2 -1</clus>
<clus scale="  149.911">  2  5  1 -1</clus>
</clustering>
</event>
<event>
 9    2  0.6469128E-005  0.1444881E+03  0.7546771E-02  0.1209419E+00
         -1   -1    0    0    0  501 -0.00000000000E+00  0.00000000000E+00  0.22347534732E+03  0.22347534732E+03  0.00000000000E+00 0.  1.
         21   -1    0    0  501  502  0.00000000000E+00 -0.00000000000E+00 -0.16583115059E+03  0.16583115059E+03  0.00000000000E+00 0.  1.
         24    2    1    2    0    0 -0.36983706652E+02 -0.14425756068E+03  0.66817921531E+02  0.18151185353E+03  0.79396977027E+02 0.  0.
         23    2    1    2    0    0  0.54544469702E+02  0.58720634556E+02 -0.82922382255E+01  0.12046925776E+03  0.89559302987E+02 0.  0.
        -13    1    3    3    0    0 -0.23345466272E+02 -0.15126323842E+03  0.57096089163E+02  0.16335709807E+03  0.00000000000E+00 0.  1.
         14    1    3    3    0    0 -0.13638240381E+02  0.70056777330E+01  0.97218323685E+01  0.18154755459E+02  0.00000000000E+00 0. -1.
        -11    1    4    4    0    0  0.61950440618E+02  0.51713981033E+01  0.10880812332E+02  0.63110954105E+02  0.00000000000E+00 0.  1.
         11    1    4    4    0    0 -0.74059709152E+01  0.53549236453E+02 -0.19173050558E+02  0.57358303650E+02  0.00000000000E+00 0. -1.
         -2    1    1    2    0  502 -0.17560763050E+02  0.85536926126E+02 -0.88148657678E+00  0.87325386621E+02  0.00000000000E+00 0.  1.
<scales pt_clust_5="13000.00000" pt_clust_6="13000.00000" pt_clust_7="13000.00000" pt_clust_8="13000.00000" pt_clust_9="87.32094"></scales>
<clustering>
<clus scale="   79.397">  5  6 -1 -1</clus>
<clus scale="   87.321">  2  9  1 -1</clus>
<clus scale="   89.559">  7  8 -1 -1</clus>
<clus scale="  138.419">  1  5  2 -1</clus>
<clus scale="   87.321">  2  5  1 -1</clus>
</clustering>
</event>
<event>
 9    2  0.6469128E-005  0.1087954E+03  0.7546771E-02  0.1267092E+00
         21   -1    0    0  501  502  0.00000000000E+00  0.00000000000E+00  0.15847837054E+03  0.15847837054E+03  0.00000000000E+00 0. -1.
          2   -1    0    0  502    0 -0.00000000000E+00 -0.00000000000E+00 -0.10405537890E+03  0.10405537890E+03  0.00000000000E+00 0. -1.
         24    2    1    2    0    0  0.20906557779E+02  0.64406326786E+02 -0.15571576122E+02  0.10621451583E+03  0.80335485938E+02 0.  0.
         23    2    1    2    0    0  0.72313168795E+01 -0.49834290932E+02  0.36419088217E+02  0.11015217776E+03  0.90947258241E+02 0.  0.
        -11    1    3    3    0    0 -0.18461154212E+02 -0.97037050310E+01  0.46997041240E-01  0.20856133748E+02  0.00000000000E+00 0.  1.
         12    1    3    3    0    0  0.39367711992E+02  0.74110031817E+02 -0.15618573163E+02  0.85358382078E+02  0.00000000000E+00 0. -1.
        -11    1    4    4    0    0 -0.26802125528E+02 -0.87847214686E+01 -0.18400533467E+02  0.33676473924E+02  0.00000000000E+00 0.  1.
         11    1    4    4    0    0  0.34033442407E+02 -0.41049569464E+02  0.54819621684E+02  0.76475703833E+02  0.00000000000E+00 0. -1.
          1    1    1    2  501    0 -0.28137874659E+02 -0.14572035854E+02  0.33575479544E+02  0.46167055850E+02  0.00000000000E+00 0. -1.
<scales pt_clust_5="13000.00000" pt_clust_6="13000.00000" pt_clust_7="13000.00000" pt_clust_8="13000.00000" pt_clust_9="31.68729"></scales>
<clustering>
<clus scale="   31.687">  1  9  2 -1</clus>
<clus scale="   80.335">  5  6 -1 -1</clus>
<clus scale="   90.947">  7  8 -1 -1</clus>
<clus scale="  100.094">  2  5  1 -1</clus>
<clus scale="   31.687">  1  5  2 -1</clus>
</clustering>
</event>
<event>
 9    2  0.6469128E-005  0.9213818E+02  0.7546771E-02  0.1305017E+00
          2   -1    0    0  502    0 -0.00000000000E+00  0.00000000000E+00  0.16339479064E+02  0.16339479064E+02  0.00000000000E+00 0. -1.
         21   -1    0    0  501  502  0.00000000000E+00 -0.00000000000E+00 -0.66343861077E+03  0.66343861077E+03  0.00000000000E+00 0. -1.
         23    2    1    2    0    0 -0.73302653223E+00  0.18024115340E+02 -0.23601657645E+03  0.25355517636E+03  0.90890027142E+02 0.  0.
         24    2    1    2    0    0 -0.20715461882E+02 -0.52591772271E+01 -0.36179595723E+03  0.37097664623E+03  0.79186918578E+02 0.  0.
        -11    1    4    4    0    0 -0.42110723524E+02 -0.23586867541E+02 -0.28740943024E+03  0.29143409881E+03  0.00000000000E+00 0.  1.
         12    1    4    4    0    0  0.21395261642E+02  0.18327690314E+02 -0.74386526986E+02  0.79542547420E+02  0.00000000000E+00 0. -1.
        -13    1    3    3    0    0  0.12784600003E+02 -0.19980828374E+02 -0.13259245880E+02  0.27175119154E+02  0.00000000000E+00 0.  1.
         13    1    3    3    0    0 -0.13517626535E+02  0.38004943713E+02 -0.22275733057E+03  0.22638005720E+03  0.00000000000E+00 0. -1.
          1    1    1    2  501    0  0.21448488414E+02 -0.12764938112E+02 -0.49286598017E+02  0.55246267244E+02  0.00000000000E+00 0. -1.
<scales pt_clust_5="13000.00000" pt_clust_6="13000.00000" pt_clust_7="13000.00000" pt_clust_8="13000.00000" pt_clust_9="24.95961"></scales>
<clustering>
<clus scale="   24.960">  2  9  1 -1</clus>
<clus scale="   79.187">  5  6 -1 -1</clus>
<clus scale="   80.616">  2  5  1 -1</clus>
<clus scale="   90.890">  7  8 -1 -1</clus>
<clus scale="   24.960">  2  5  1 -1</clus>
</clustering>
</event>
<event>
 9    2  0.6469128E-005  0.1643447E+03  0.7546771E-02  0.1185499E+00
         21   -1    0    0  501  502  0.00000000000E+00  0.00000000000E+00  0.73728039815E+02  0.73728039815E+02  0.00000000000E+00 0.  1.
          2   -1    0    0  502    0 -0.00000000000E+00 -0.00000000000E+00 -0.60738398419E+03  0.60738398419E+03  0.00000000000E+00 0. -1.
         23    2    1    2    0    0  0.13800035985E+03 -0.56316835582E+02 -0.35539651943E+03  0.39620894039E+03  0.91973654554E+02 0.  0.
         24    2    1    2    0    0 -0.11953658522E+03  0.24668593994E+02 -0.19557237635E+03  0.24437827078E+03  0.81084216114E+02 0.  0.
        -11    1    4    4    0    0 -0.10312669048E+03  0.22052469367E+01 -0.95711093675E+02  0.14071457229E+03  0.00000000000E+00 0.  1.
         12    1    4    4    0    0 -0.16409894737E+02  0.22463347057E+02 -0.99861282671E+02  0.10366369848E+03  0.00000000000E+00 0. -1.
        -11    1    3    3    0    0  0.18411930657E+02 -0.42696754329E+02 -0.51713203784E+02  0.69543277650E+02  0.00000000000E+00 0.  1.
         11    1    3    3    0    0  0.11958842919E+03 -0.13620081252E+02 -0.30368331564E+03  0.32666566274E+03  0.00000000000E+00 0. -1.
          1    1    1    2  501    0 -0.18463774632E+02  0.31648241588E+02  0.17312951405E+02  0.40524812839E+02  0.00000000000E+00 0. -1.
<scales pt_clust_5="13000.00000" pt_clust_6="13000.00000" pt_clust_7="13000.00000" pt_clust_8="13000.00000" pt_clust_9="36.64044"></scales>
<clustering>
<clus scale="   36.640">  1  9  2 -1</clus>
<clus scale="   81.084">  5  6 -1 -1</clus>
<clus scale="   91.974">  7  8 -1 -1</clus>
<clus scale="  158.508">  1  5  2 -1</clus>
<clus scale="   36.640">  1  5  2 -1</clus>
</clustering>
</event>
<event>
 9    2  0.6469128E-005  0.1335134E+03  0.7546771E-02  0.1244928E+00
         -3   -1    0    0    0  501 -0.00000000000E+00  0.00000000000E+00  0.35589591431E+02  0.35589591431E+02  0.00000000000E+00 0.  1.
         21   -1    0    0  501  502  0.00000000000E+00 -0.00000000000E+00 -0.76784269548E+03  0.76784269548E+03  0.00000000000E+00 0.  1.
         24    2    1    2    0    0 -0.23301331312E+02  0.55390282828E+01 -0.11262956849E+03  0.14048391433E+03  0.80477808181E+02 0.  0.
         23    2    1    2    0    0 -0.81086319805E+02 -0.33070317453E+02 -0.36745507104E+03  0.38864254311E+03  0.91384681025E+02 0.  0.
        -11    1    3    3    0    0 -0.42727920118E+02  0.30379910225E+02 -0.70974481731E+02  0.88238263582E+02  0.00000000000E+00 0.  1.
         12    1    3    3    0    0  0.19426588806E+02 -0.24840881943E+02 -0.41655086764E+02  0.52245650744E+02  0.00000000000E+00 0. -1.
        -11    1    4    4    0    0 -0.39347879240E+02  0.30322276107E+02 -0.12218181796E+03  0.13189424806E+03  0.00000000000E+00 0. -1.
         11    1    4    4    0    0 -0.41738440565E+02 -0.63392593561E+02 -0.24527325307E+03  0.25674829505E+03  0.00000000000E+00 0.  1.
         -4    1    1    2    0  502  0.10438765112E+03  0.27531289170E+02 -0.25216846452E+03  0.27430582948E+03  0.00000000000E+00 0.  1.
<scales pt_clust_5="13000.00000" pt_clust_6="13000.00000" pt_clust_7="13000.00000" pt_clust_8="13000.00000" pt_clust_9="97.33791"></scales>
<clustering>
<clus scale="   80.478">  5  6 -1 -1</clus>
<clus scale="   83.966">  1  5  2 -1</clus>
<clus scale="   91.385">  7  8 -1 -1</clus>
<clus scale="   97.338">  2  9  1 -1</clus>
<clus scale="   97.338">  2  5  1 -1</clus>
</clustering>
</event>
<event>
 9    2  0.6469128E-005  0.9704957E+02  0.7546771E-02  0.1291980E+00
         21   -1    0    0  501  502  0.00000000000E+00  0.00000000000E+00  0.64352479618E+03  0.64352479618E+03  0.00000000000E+00 0.  1.
         -1   -1    0    0    0  501 -0.00000000000E+00 -0.00000000000E+00 -0.18690224436E+02  0.18690224436E+02  0.00000000000E+00 0.  1.
         23    2    1    2    0    0 -0.12646149749E+02 -0.19600819681E+02  0.23570543663E+03  0.25349208122E+03  0.90316472191E+02 0.  0.
         24    2    1    2    0    0  0.12849837915E+02  0.49171451091E+02  0.28122266162E+03  0.29683786107E+03  0.80271915489E+02 0.  0.
        -11    1    4    4    0    0 -0.10231099479E+01  0.57492652505E+02  0.27241654338E+03  0.27841915335E+03  0.00000000000E+00 0.  1.
         12    1    4    4    0    0  0.13872947863E+02 -0.83212014147E+01  0.88061182406E+01  0.18418707714E+02  0.00000000000E+00 0. -1.
        -13    1    3    3    0    0 -0.38199591881E+02 -0.18218326082E+02  0.21872100905E+03  0.22277790740E+03  0.00000000000E+00 0.  1.
         13    1    3    3    0    0  0.25553442132E+02 -0.13824935988E+01  0.16984427579E+02  0.30714173821E+02  0.00000000000E+00 0. -1.
         -2    1    1    2    0  502 -0.20368816540E+00 -0.29570631410E+02  0.10790647349E+03  0.11188507833E+03  0.00000000000E+00 0.  1.
<scales pt_clust_5="13000.00000" pt_clust_6="13000.00000" pt_clust_7="13000.00000" pt_clust_8="13000.00000" pt_clust_9="29.57133"></scales>
<clustering>
<clus scale="   29.571">  1  9  2 -1</clus>
<clus scale="   80.272">  5  6 -1 -1</clus>
<clus scale="   87.779">  1  5  2 -1</clus>
<clus scale="   90.316">  7  8 -1 -1</clus>
<clus scale="   29.571">  1  5  2 -1</clus>
</clustering>
</event>
<event>
 9    2  0.6469128E-005  0.9993896E+02  0.7546771E-02  0.1285971E+00
         21   -1    0    0  501  502  0.00000000000E+00  0.00000000000E+00  0.57459645856E+02  0.57459645856E+02  0.00000000000E+00 0.  1.
         -3   -1    0    0    0  501 -0.00000000000E+00 -0.00000000000E+00 -0.23758973031E+03  0.23758973031E+03  0.00000000000E+00 0.  1.
         23    2    1    2    0    0 -0.66456278420E+01 -0.34676140549E+02 -0.10603886448E+03  0.14443548048E+03  0.91491902093E+02 0.  0.
         24    2    1    2    0    0 -0.21445585509E+02  0.48923838307E+02 -0.41041495198E+02  0.10495869372E+03  0.80488930708E+02 0.  0.
        -11    1    4    4    0    0 -0.39403573572E+02  0.15604524890E+01  0.51809568536E+00  0.39437863093E+02  0.00000000000E+00 0.  1.
         12    1    4    4    0    0  0.17957988064E+02  0.47363385818E+02 -0.41559590883E+02  0.65520830625E+02  0.00000000000E+00 0. -1.
        -11    1    3    3    0    0  0.18482066132E+02 -0.33417487784E+02 -0.29284792397E+01  0.38300016305E+02  0.00000000000E+00 0. -1.
         11    1    3    3    0    0 -0.25127693974E+02 -0.12586527643E+01 -0.10311038524E+03  0.10613546418E+03  0.00000000000E+00 0.  1.
         -4    1    1    2    0  502  0.28091213351E+02 -0.14247697759E+02 -0.33049724780E+02  0.45655201970E+02  0.00000000000E+00 0.  1.
<scales pt_clust_5="13000.00000" pt_clust_6="13000.00000" pt_clust_7="13000.00000" pt_clust_8="13000.00000" pt_clust_9="31.49784"></scales>
<clustering>
<clus scale="   31.498">  1  9  2 -1</clus>
<clus scale="   80.489">  5  6 -1 -1</clus>
<clus scale="   89.975">  1  5  2 -1</clus>
<clus scale="   91.492">  7  8 -1 -1</clus>
<clus scale="   31.498">  1  5  2 -1</clus>
</clustering>
</event>
<event>
 9    2  0.6469128E-005  0.9999272E+02  0.7546771E-02  0.1281534E+00
         21   -1    0    0  501  502  0.00000000000E+00  0.00000000000E+00  0.36075767133E+02  0.36075767133E+02  0.00000000000E+00 0.  1.
          2   -1    0    0  502    0 -0.00000000000E+00 -0.00000000000E+00 -0.51360413332E+03  0.51360413332E+03  0.00000000000E+00 0. -1.
         24    2    1    2    0    0 -0.60324711864E+02  0.20122260154E+02 -0.29272840982E+03  0.31162035081E+03  0.85868183336E+02 0.  0.
         23    2    1    2    0    0  0.11757656612E+02  0.32494260022E+01 -0.78624597173E+02  0.11898729649E+03  0.88472301812E+02 0.  0.
        -13    1    3    3    0    0 -0.22345931561E+02 -0.29258613732E+02 -0.17052870721E+03  0.17445757971E+03  0.00000000000E+00 0.  1.
         14    1    3    3    0    0 -0.37978780303E+02  0.49380873885E+02 -0.12219970261E+03  0.13716277110E+03  0.00000000000E+00 0. -1.
        -11    1    4    4    0    0 -0.33631205428E+02  0.39857675823E+01 -0.61995216490E+02  0.70642417777E+02  0.00000000000E+00 0. -1.
         11    1    4    4    0    0  0.45388862040E+02 -0.73634158012E+00 -0.16629380684E+02  0.48344878717E+02  0.00000000000E+00 0.  1.
          1    1    1    2  501    0  0.48567055252E+02 -0.23371686156E+02 -0.10617535920E+03  0.11907225315E+03  0.00000000000E+00 0. -1.
<scales pt_clust_5="13000.00000" pt_clust_6="13000.00000" pt_clust_7="13000.00000" pt_clust_8="13000.00000" pt_clust_9="53.89803"></scales>
<clustering>
<clus scale="   53.898">  1  9  2 -1</clus>
<clus scale="   85.868">  5  6 -1 -1</clus>
<clus scale="   88.472">  7  8 -1 -1</clus>
<clus scale="   97.696">  2  5  1 -1</clus>
<clus scale="   53.898">  1  5  2 -1</clus>
</clustering>
</event>
<event>
 9    2  0.6469128E-005  0.1790323E+03  0.7546771E-02  0.1170041E+00
         21   -1    0    0  501  502  0.00000000000E+00  0.00000000000E+00  0.72292106324E+02  0.72292106324E+02  0.00000000000E+00 0.  1.
          2   -1    0    0  502    0 -0.00000000000E+00 -0.00000000000E+00 -0.51253253451E+03  0.51253253451E+03  0.00000000000E+00 0. -1.
         23    2    1    2    0    0  0.12553702393E+03  0.80762455261E+02 -0.25288630184E+03  0.30755099463E+03  0.91400295852E+02 0.  0.
         24    2    1    2    0    0 -0.14600424477E+03 -0.68783420399E+02 -0.16989517345E+03  0.24782505640E+03  0.80650419765E+02 0.  0.
        -11    1    4    4    0    0 -0.11146353850E+03 -0.48729841705E+02 -0.70258228679E+02  0.14048108978E+03  0.00000000000E+00 0.  1.
         12    1    4    4    0    0 -0.34540706264E+02 -0.20053578694E+02 -0.99636944769E+02  0.10734396662E+03  0.00000000000E+00 0. -1.
        -13    1    3    3    0    0  0.16828545513E+02  0.28040262565E+02 -0.67946963575E+01  0.33400960576E+02  0.00000000000E+00 0.  1.
         13    1    3    3    0    0  0.10870847842E+03  0.52722192696E+02 -0.24609160548E+03  0.27415003406E+03  0.00000000000E+00 0. -1.
          1    1    1    2  501    0  0.20467220835E+02 -0.11979034862E+02 -0.17458952900E+02  0.29448589802E+02  0.00000000000E+00 0. -1.
<scales pt_clust_5="13000.00000" pt_clust_6="13000.00000" pt_clust_7="13000.00000" pt_clust_8="13000.00000" pt_clust_9="23.71507"></scales>
<clustering>
<clus scale="   23.715">  1  9  2 -1</clus>
<clus scale="   80.650">  5  6 -1 -1</clus>
<clus scale="   91.400">  7  8 -1 -1</clus>
<clus scale="  173.790">  1  5  2 -1</clus>
<clus scale="   23.715">  1  5  2 -1</clus>
</clustering>
</event>
<event>
 9    2  0.6469128E-005  0.1070527E+03  0.7546771E-02  0.1272937E+00
          2   -1    0    0  502    0 -0.00000000000E+00  0.00000000000E+00  0.13312587270E+04  0.13312587270E+04  0.00000000000E+00 0. -1.
         21   -1    0    0  501  502  0.00000000000E+00 -0.00000000000E+00 -0.16249252157E+02  0.16249252157E+02  0.00000000000E+00 0.  1.
         24    2    1    2    0    0 -0.23778499977E+01 -0.42714742792E+02  0.52714699763E+03  0.53422844933E+03  0.75404744768E+02 0.  0.
         23    2    1    2    0    0  0.31920793693E+02  0.91587028329E+02  0.40935564654E+03  0.43048884723E+03  0.91331710895E+02 0.  0.
        -13    1    3    3    0    0  0.24820297432E+02  0.19349466173E+01  0.74001585950E+02  0.78077051085E+02  0.00000000000E+00 0.  1.
         14    1    3    3    0    0 -0.27198147430E+02 -0.44649689410E+02  0.45314541168E+03  0.45615139824E+03  0.00000000000E+00 0. -1.
        -11    1    4    4    0    0 -0.16924428612E+02  0.30278990959E+02  0.40175031732E+02  0.53078119334E+02  0.00000000000E+00 0.  1.
         11    1    4    4    0    0  0.48845222305E+02  0.61308037370E+02  0.36918061480E+03  0.37741072790E+03  0.00000000000E+00 0. -1.
          1    1    1    2  501    0 -0.29542943695E+02 -0.48872285537E+02  0.37850683070E+03  0.38279068262E+03  0.00000000000E+00 0. -1.
<scales pt_clust_5="13000.00000" pt_clust_6="13000.00000" pt_clust_7="13000.00000" pt_clust_8="13000.00000" pt_clust_9="57.10770"></scales>
<clustering>
<clus scale="   57.108">  2  9  1 -1</clus>
<clus scale="   75.405">  5  6 -1 -1</clus>
<clus scale="   91.332">  7  8 -1 -1</clus>
<clus scale="   93.833">  1  5  2 -1</clus>
<clus scale="   57.108">  2  5  1 -1</clus>
</clustering>
</event>
<event>
 9    2  0.6469128E-005  0.1696946E+03  0.7546771E-02  0.1199885E+00
         21   -1    0    0  501  502  0.00000000000E+00  0.00000000000E+00  0.53142101196E+02  0.53142101196E+02  0.00000000000E+00 0. -1.
          2   -1    0    0  502    0 -0.00000000000E+00 -0.00000000000E+00 -0.14196498617E+04  0.14196498617E+04  0.00000000000E+00 0. -1.
         24    2    1    2    0    0  0.10473546134E+02  0.77676434319E+02 -0.72604706974E+02  0.12760164574E+03  0.69766846732E+02 0.  0.
         23    2    1    2    0    0  0.90504858757E+02 -0.16498923158E+03 -0.10121034897E+04  0.10333712078E+04  0.89944444718E+02 0.  0.
        -13    1    3    3    0    0 -0.23756876178E+02  0.22610424179E+02 -0.37280225867E+01  0.33007856636E+02  0.00000000000E+00 0.  1.
         14    1    3    3    0    0  0.34230422312E+02  0.55066010140E+02 -0.68876684387E+02  0.94593789101E+02  0.00000000000E+00 0. -1.
        -13    1    4    4    0    0 -0.18266552959E+02 -0.20986232131E+02 -0.15456956815E+03  0.15705362235E+03  0.00000000000E+00 0.  1.
         13    1    4    4    0    0  0.10877141172E+03 -0.14400299945E+03 -0.85753392157E+03  0.87631758541E+03  0.00000000000E+00 0. -1.
          1    1    1    2  501    0 -0.10097840489E+03  0.87312797260E+02 -0.28179956380E+03  0.31181910938E+03  0.00000000000E+00 0. -1.
<scales pt_clust_5="13000.00000" pt_clust_6="13000.00000" pt_clust_7="13000.00000" pt_clust_8="13000.00000" pt_clust_9="143.89669"></scales>
<clustering>
<clus scale="   69.767">  5  6 -1 -1</clus>
<clus scale="   89.944">  7  8 -1 -1</clus>
<clus scale="  104.932">  2  5  1 -1</clus>
<clus scale="  143.897">  1  9  2 -1</clus>
<clus scale="  143.897">  1  5  2 -1</clus>
</clustering>
</event>
<event>
 9    2  0.6469128E-005  0.9366367E+02  0.7546771E-02  0.1298969E+00
         21   -1    0    0  501  502  0.00000000000E+00  0.00000000000E+00  0.11677564791E+03  0.11677564791E+03  0.00000000000E+00 0. -1.
          2   -1    0    0  502    0 -0.00000000000E+00 -0.00000000000E+00 -0.93163167394E+02  0.93163167394E+02  0.00000000000E+00 0. -1.
         23    2    1    2    0    0  0.44848511713E+01 -0.38230775711E+02 -0.76744256247E+01  0.97695090535E+02  0.89463555733E+02 0.  0.
         24    2    1    2    0    0  0.34425104257E+01  0.14433648637E+02  0.26933721352E+02  0.86785984559E+02  0.81155410657E+02 0.  0.
        -13    1    4    4    0    0 -0.33546343248E+02  0.26690255907E+02  0.86046050292E+01  0.43723747934E+02  0.00000000000E+00 0.  1.
         14    1    4    4    0    0  0.36988853674E+02 -0.12256607270E+02  0.18329116323E+02  0.43062236624E+02  0.00000000000E+00 0. -1.
        -11    1    3    3    0    0  0.14156524792E+02 -0.18782093050E+02 -0.47120485551E+02  0.52664165921E+02  0.00000000000E+00 0.  1.
         11    1    3    3    0    0 -0.96716736207E+01 -0.19448682661E+02  0.39446059927E+02  0.45030924614E+02  0.00000000000E+00 0. -1.
          1    1    1    2  501    0 -0.79273615970E+01  0.23797127074E+02  0.43531847896E+01  0.25457740211E+02  0.00000000000E+00 0. -1.
<scales pt_clust_5="13000.00000" pt_clust_6="13000.00000" pt_clust_7="13000.00000" pt_clust_8="13000.00000" pt_clust_9="25.08279"></scales>
<clustering>
<clus scale="   25.083">  1  9  2 -1</clus>
<clus scale="   81.155">  5  6 -1 -1</clus>
<clus scale="   85.763">  1  5  2 -1</clus>
<clus scale="   89.464">  7  8 -1 -1</clus>
<clus scale="   25.083">  1  5  2 -1</clus>
</clustering>
</event>
<event>
 9    2  0.6469128E-005  0.1602325E+03  0.7546771E-02  0.1215602E+00
         21   -1    0    0  501  502  0.00000000000E+00  0.00000000000E+00  0.84246089373E+02  0.84246089373E+02  0.00000000000E+00 0. -1.
          2   -1    0    0  502    0 -0.00000000000E+00 -0.00000000000E+00 -0.72455262652E+03  0.72455262652E+03  0.00000000000E+00 0. -1.
         24    2    1    2    0    0 -0.13536833936E+02 -0.40021248581E+02 -0.17523059490E+03  0.19653189611E+03  0.78320358730E+02 0.  0.
         23    2    1    2    0    0 -0.45168319149E+01 -0.94426079783E+02 -0.45747258193E+03  0.47639986264E+03  0.93482509568E+02 0.  0.
        -11    1    3    3    0    0 -0.46223269834E+02 -0.18752073463E+02 -0.93481447026E+02  0.10595759469E+03  0.00000000000E+00 0.  1.
         12    1    3    3    0    0  0.32686435898E+02 -0.21269175117E+02 -0.81749147870E+02  0.90574301429E+02  0.00000000000E+00 0. -1.
        -11    1    4    4    0    0  0.37813121229E+02 -0.42712373620E+02 -0.12678986516E+03  0.13903182695E+03  0.00000000000E+00 0.  1.
         11    1    4    4    0    0 -0.42329953144E+02 -0.51713706163E+02 -0.33068271676E+03  0.33736803569E+03  0.00000000000E+00 0. -1.
          1    1    1    2  501    0  0.18053665851E+02  0.13444732836E+03 -0.76033603280E+01  0.13586695714E+03  0.00000000000E+00 0. -1.
<scales pt_clust_5="13000.00000" pt_clust_6="13000.00000" pt_clust_7="13000.00000" pt_clust_8="13000.00000" pt_clust_9="130.13634"></scales>
<clustering>
<clus scale="   78.320">  5  6 -1 -1</clus>
<clus scale="   88.989">  2  5  1 -1</clus>
<clus scale="   93.483">  7  8 -1 -1</clus>
<clus scale="  130.136">  1  9  2 -1</clus>
<clus scale="  130.136">  1  5  2 -1</clus>
</clustering>
</event>
<event>
 9    2  0.6469128E-005  0.1271918E+03  0.7546771E-02  0.1235478E+00
         -1   -1    0    0    0  501 -0.00000000000E+00  0.00000000000E+00  0.56220293638E+03  0.56220293638E+03  0.00000000000E+00 0.  1.
         21   -1    0    0  501  502  0.00000000000E+00 -0.00000000000E+00 -0.13027536747E+03  0.13027536747E+03  0.00000000000E+00 0.  1.
         24    2    1    2    0    0  0.87270179552E+02 -0.27190999062E+02  0.26078742873E+03  0.28753491623E+03  0.79440609271E+02 0.  0.
         23    2    1    2    0    0 -0.86138822269E+02 -0.37988913551E+02  0.26176572197E+03  0.29330693725E+03  0.92976405534E+02 0.  0.
        -11    1    3    3    0    0  0.49114254310E+02 -0.24506613005E+02  0.23518938520E+03  0.24150948422E+03  0.00000000000E+00 0.  1.
         12    1    3    3    0    0  0.38155925242E+02 -0.26843860572E+01  0.25598043530E+02  0.46025432015E+02  0.00000000000E+00 0. -1.
        -11    1    4    4    0    0 -0.51032408835E+02 -0.66360112993E+02  0.19993739953E+03  0.21675547301E+03  0.00000000000E+00 0.  1.
         11    1    4    4    0    0 -0.35106413435E+02  0.28371199442E+02  0.61828322439E+02  0.76551464242E+02  0.00000000000E+00 0. -1.
         -2    1    1    2    0  502 -0.11313572832E+01  0.65179912614E+02 -0.90625581787E+02  0.11163645037E+03  0.00000000000E+00 0.  1.
<scales pt_clust_5="13000.00000" pt_clust_6="13000.00000" pt_clust_7="13000.00000" pt_clust_8="13000.00000" pt_clust_9="65.18973"></scales>
<clustering>
<clus scale="   65.190">  2  9  1 -1</clus>
<clus scale="   79.441">  5  6 -1 -1</clus>
<clus scale="   92.976">  7  8 -1 -1</clus>
<clus scale="  117.660">  1  5  2 -1</clus>
<clus scale="   65.190">  2  5  1 -1</clus>
</clustering>
</event>
<event>
 9    2  0.6469128E-005  0.1177831E+03  0.7546771E-02  0.1249607E+00
         21   -1    0    0  501  502  0.00000000000E+00  0.00000000000E+00  0.15466896934E+03  0.15466896934E+03  0.00000000000E+00 0. -1.
          2   -1    0    0  502    0 -0.00000000000E+00 -0.00000000000E+00 -0.19019638708E+03  0.19019638708E+03  0.00000000000E+00 0. -1.
         24    2    1    2    0    0  0.73862611305E+02 -0.34138965011E+02 -0.60163944864E+02  0.12907322931E+03  0.80118936472E+02 0.  0.
         23    2    1    2    0    0 -0.79120738448E+02 -0.12680473595E+02 -0.48242867474E+02  0.12901013653E+03  0.88855812425E+02 0.  0.
        -13    1    3    3    0    0  0.37496404121E+02 -0.54422527417E+02 -0.57066661360E+02  0.87317785423E+02  0.00000000000E+00 0.  1.
         14    1    3    3    0    0  0.36366207185E+02  0.20283562406E+02 -0.30972835042E+01  0.41755443884E+02  0.00000000000E+00 0. -1.
        -11    1    4    4    0    0 -0.25192491159E+02 -0.45089772248E+02 -0.34281046739E+01  0.51763897398E+02  0.00000000000E+00 0.  1.
         11    1    4    4    0    0 -0.53928247289E+02  0.32409298653E+02 -0.44814762800E+02  0.77246239130E+02  0.00000000000E+00 0. -1.
          1    1    1    2  501    0  0.52581271424E+01  0.46819438606E+02  0.72879394597E+02  0.86781990582E+02  0.00000000000E+00 0. -1.
<scales pt_clust_5="13000.00000" pt_clust_6="13000.00000" pt_clust_7="13000.00000" pt_clust_8="13000.00000" pt_clust_9="47.11377"></scales>
<clustering>
<clus scale="   47.114">  1  9  2 -1</clus>
<clus scale="   80.119">  5  6 -1 -1</clus>
<clus scale="   88.856">  7  8 -1 -1</clus>
<clus scale="  111.340">  2  5  1 -1</clus>
<clus scale="   47.114">  1  5  2 -1</clus>
</clustering>
</event>
<event>
 9    2  0.6469128E-005  0.1208214E+03  0.7546771E-02  0.1242070E+00
          2   -1    0    0  502    0 -0.00000000000E+00  0.00000000000E+00  0.10659569847E+04  0.10659569847E+04  0.00000000000E+00 0. -1.
         21   -1    0    0  501  502  0.00000000000E+00 -0.00000000000E+00 -0.24851464846E+02  0.24851464846E+02  0.00000000000E+00 0. -1.
         24    2    1    2    0    0 -0.80788319776E+02 -0.57177775481E+02  0.68343192319E+03  0.69679631462E+03  0.93004622528E+02 0.  0.
         23    2    1    2    0    0  0.46846149741E+02  0.75115664381E+01  0.25182426067E+03  0.27226286323E+03  0.91981645238E+02 0.  0.
        -11    1    3    3    0    0 -0.52429609797E+02 -0.48971482072E+02  0.20025701890E+03  0.21272034143E+03  0.00000000000E+00 0.  1.
         12    1    3    3    0    0 -0.28358709979E+02 -0.82062934092E+01  0.48317490429E+03  0.48407597319E+03  0.00000000000E+00 0. -1.
        -13    1    4    4    0    0  0.23890650090E+02  0.31754078865E+02  0.22752710925E+03  0.23097114566E+03  0.00000000000E+00 0.  1.
         13    1    4    4    0    0  0.22955499651E+02 -0.24242512427E+02  0.24297151421E+02  0.41291717574E+02  0.00000000000E+00 0. -1.
          1    1    1    2  501    0  0.33942170035E+02  0.49666209043E+02  0.10584933603E+03  0.12174927172E+03  0.00000000000E+00 0. -1.
<scales pt_clust_5="13000.00000" pt_clust_6="13000.00000" pt_clust_7="13000.00000" pt_clust_8="13000.00000" pt_clust_9="60.15649"></scales>
<clustering>
<clus scale="   60.156">  2  9  1 -1</clus>
<clus scale="   91.982">  7  8 -1 -1</clus>
<clus scale="   93.005">  5  6 -1 -1</clus>
<clus scale="  120.036">  2  7  1 -1</clus>
<clus scale="   60.156">  2  5  1 -1</clus>
</clustering>
</event>
<event>
 9    2  0.6469128E-005  0.1019130E+03  0.7546771E-02  0.1287053E+00
          2   -1    0    0  502    0 -0.00000000000E+00  0.00000000000E+00  0.64577798970E+03  0.64577798970E+03  0.00000000000E+00 0. -1.
         21   -1    0    0  501  502  0.00000000000E+00 -0.00000000000E+00 -0.40436777211E+02  0.40436777211E+02  0.00000000000E+00 0.  1.
         24    2    1    2    0    0 -0.18943231738E+02  0.16248589463E+01  0.53683233795E+03  0.54325962408E+03  0.81120736508E+02 0.  0.
         23    2    1    2    0    0  0.75715205022E+01 -0.21256404628E+02  0.56022844864E+02  0.11705892034E+03  0.10027496708E+03 0.  0.
        -13    1    3    3    0    0 -0.65719683880E+01 -0.26641409118E+02  0.66809109775E+02  0.72224736740E+02  0.00000000000E+00 0.  1.
         14    1    3    3    0    0 -0.12371263350E+02  0.28266268064E+02  0.47002322817E+03  0.47103488734E+03  0.00000000000E+00 0. -1.
        -11    1    4    4    0    0  0.12522152780E+02 -0.58423103852E+02  0.15247395346E+02  0.61664790916E+02  0.00000000000E+00 0.  1.
         11    1    4    4    0    0 -0.49506322775E+01  0.37166699223E+02  0.40775449518E+02  0.55394129423E+02  0.00000000000E+00 0. -1.
          1    1    1    2  501    0  0.11371711236E+02  0.19631545682E+02  0.12486029674E+02  0.25896222492E+02  0.00000000000E+00 0. -1.
<scales pt_clust_5="13000.00000" pt_clust_6="13000.00000" pt_clust_7="13000.00000" pt_clust_8="13000.00000" pt_clust_9="22.68730"></scales>
<clustering>
<clus scale="   22.687">  2  9  1 -1</clus>
<clus scale="   81.121">  5  6 -1 -1</clus>
<clus scale="   83.137">  1  5  2 -1</clus>
<clus scale="  100.275">  7  8 -1 -1</clus>
<clus scale="   22.687">  2  5  1 -1</clus>
</clustering>
</event>
<event>
 9    2  0.6469128E-005  0.1060137E+03  0.7546771E-02  0.1272209E+00
         21   -1    0    0  501  502  0.00000000000E+00  0.00000000000E+00  0.35753808046E+03  0.35753808046E+03  0.00000000000E+00 0. -1.
          2   -1    0    0  502    0 -0.00000000000E+00 -0.00000000000E+00 -0.10595565564E+03  0.10595565564E+03  0.00000000000E+00 0. -1.
         24    2    1    2    0    0  0.36472544940E+02  0.21556981711E+02 -0.11295343230E+02  0.92532144146E+02  0.81484126839E+02 0.  0.
         23    2    1    2    0    0 -0.79957620281E+02 -0.35136785884E+01  0.19089114045E+02  0.12266857880E+03  0.90981421021E+02 0.  0.
        -13    1    3    3    0    0 -0.50461538438E+01  0.38088135333E+02 -0.24941165891E+02  0.45806456726E+02  0.00000000000E+00 0.  1.
         14    1    3    3    0    0  0.41518698784E+02 -0.16531153622E+02  0.13645822661E+02  0.46725687420E+02  0.00000000000E+00 0. -1.
        -13    1    4    4    0    0  0.72909887658E+01  0.26080327769E+02 -0.47726354957E+01  0.27497637413E+02  0.00000000000E+00 0.  1.
         13    1    4    4    0    0 -0.87248609047E+02 -0.29594006357E+02  0.23861749541E+02  0.95170941385E+02  0.00000000000E+00 0. -1.
          1    1    1    2  501    0  0.43485075341E+02 -0.18043303122E+02  0.24378865400E+03  0.24829301316E+03  0.00000000000E+00 0. -1.
<scales pt_clust_5="13000.00000" pt_clust_6="13000.00000" pt_clust_7="13000.00000" pt_clust_8="13000.00000" pt_clust_9="47.07985"></scales>
<clustering>
<clus scale="   47.080">  1  9  2 -1</clus>
<clus scale="   81.484">  5  6 -1 -1</clus>
<clus scale="   90.981">  7  8 -1 -1</clus>
<clus scale="   97.984">  2  5  1 -1</clus>
<clus scale="   47.080">  1  5  2 -1</clus>
</clustering>
</event>
<event>
 9    2  0.6469128E-005  0.1034994E+03  0.7546771E-02  0.1283533E+00
         21   -1    0    0  501  502  0.00000000000E+00  0.00000000000E+00  0.56566806276E+02  0.56566806276E+02  0.00000000000E+00 0. -1.
         -1   -1    0    0    0  501 -0.00000000000E+00 -0.00000000000E+00 -0.50836386784E+03  0.50836386784E+03  0.00000000000E+00 0.  1.
         24    2    1    2    0    0  0.57615307645E+02 -0.34442010776E+01 -0.23631484617E+03  0.25311753233E+03  0.69945639297E+02 0.  0.
         23    2    1    2    0    0  0.37488939373E+01  0.13781613191E+02 -0.56877320257E+01  0.92984093034E+02  0.91704439336E+02 0.  0.
        -13    1    3    3    0    0  0.52031838956E+02  0.14283425970E+02 -0.22495347540E+03  0.23133394610E+03  0.00000000000E+00 0.  1.
         14    1    3    3    0    0  0.55834686893E+01 -0.17727627048E+02 -0.11361370768E+02  0.21783586231E+02  0.00000000000E+00 0. -1.
        -13    1    4    4    0    0 -0.34294967964E+02  0.16014174866E+02 -0.29551491805E+02  0.48019676094E+02  0.00000000000E+00 0.  1.
         13    1    4    4    0    0  0.38043861901E+02 -0.22325616751E+01  0.23863759779E+02  0.44964416940E+02  0.00000000000E+00 0. -1.
         -2    1    1    2    0  502 -0.61364201583E+02 -0.10337412113E+02 -0.20979448337E+03  0.21882904875E+03  0.00000000000E+00 0.  1.
<scales pt_clust_5="13000.00000" pt_clust_6="13000.00000" pt_clust_7="13000.00000" pt_clust_8="13000.00000" pt_clust_9="62.22886"></scales>
<clustering>
<clus scale="   62.229">  1  9  2 -1</clus>
<clus scale="   69.946">  5  6 -1 -1</clus>
<clus scale="   84.822">  2  5  1 -1</clus>
<clus scale="   91.704">  7  8 -1 -1</clus>
<clus scale="   62.229">  1  5  2 -1</clus>
</clustering>
</event>
<event>
 9    2  0.6469128E-005  0.9566613E+02  0.7546771E-02  0.1298165E+00
         -1   -1    0    0    0  501 -0.00000000000E+00  0.00000000000E+00  0.18569779965E+03  0.18569779965E+03  0.00000000000E+00 0.  1.
         21   -1    0    0  501  502  0.00000000000E+00 -0.00000000000E+00 -0.12472080582E+03  0.12472080582E+03  0.00000000000E+00 0. -1.
         24    2    1    2    0    0 -0.10094869470E+02  0.15540973192E+02  0.85944806538E+02  0.11801738646E+03  0.78728428788E+02 0.  0.
         23    2    1    2    0    0  0.12562335434E+02 -0.42964695449E+02 -0.80115793606E+02  0.13076155055E+03  0.93146472769E+02 0.  0.
        -11    1    3    3    0    0 -0.24323688594E+02 -0.26113533828E+02  0.28640020963E+02  0.45758160765E+02  0.00000000000E+00 0.  1.
         12    1    3    3    0    0  0.14228819124E+02  0.41654507020E+02  0.57304785575E+02  0.72259225698E+02  0.00000000000E+00 0. -1.
        -13    1    4    4    0    0  0.17875215549E+02  0.10871413404E+02 -0.73310699710E+02  0.76237586873E+02  0.00000000000E+00 0. -1.
         13    1    4    4    0    0 -0.53128801142E+01 -0.53836108853E+02 -0.68050938962E+01  0.54523963672E+02  0.00000000000E+00 0.  1.
         -2    1    1    2    0  502 -0.24674659640E+01  0.27423722257E+02  0.55147980899E+02  0.61639668461E+02  0.00000000000E+00 0.  1.
<scales pt_clust_5="13000.00000" pt_clust_6="13000.00000" pt_clust_7="13000.00000" pt_clust_8="13000.00000" pt_clust_9="27.53452"></scales>
<clustering>
<clus scale="   27.535">  2  9  1 -1</clus>
<clus scale="   78.728">  5  6 -1 -1</clus>
<clus scale="   81.694">  1  5  2 -1</clus>
<clus scale="   93.146">  7  8 -1 -1</clus>
<clus scale="   27.535">  2  5  1 -1</clus>
</clustering>
</event>
<event>
 9    2  0.7199776E-005  0.1232994E+03  0.7546771E-02  0.1241387E+00
         21   -1    0    0  501  502  0.00000000000E+00  0.00000000000E+00  0.79596011527E+02  0.79596011527E+02  0.00000000000E+00 0. -1.
         -3   -1    0    0    0  501 -0.00000000000E+00 -0.00000000000E+00 -0.44785754544E+03  0.44785754544E+03  0.00000000000E+00 0.  1.
         23    2    1    2    0    0  0.45072659082E+02  0.26390230644E+02 -0.12370223924E+03  0.16505249974E+03  0.95979658303E+02 0.  0.
         24    2    1    2    0    0 -0.94303299680E+02 -0.10913460143E+02 -0.35242943937E+02  0.14681691800E+03  0.10630581532E+03 0.  0.
        -11    1    4    4    0    0 -0.30345753856E+02  0.43732710003E+02 -0.33068432063E+02  0.62665268693E+02  0.00000000000E+00 0.  1.
         12    1    4    4    0    0 -0.63957545824E+02 -0.54646170146E+02 -0.21745118739E+01  0.84151649308E+02  0.00000000000E+00 0. -1.
        -13    1    3    3    0    0  0.66880778753E+02 -0.39377577031E+01 -0.54309221832E+02  0.86244049524E+02  0.00000000000E+00 0.  1.
         13    1    3    3    0    0 -0.21808119671E+02  0.30327988347E+02 -0.69393017409E+02  0.78808450219E+02  0.00000000000E+00 0. -1.
         -4    1    1    2    0  502  0.49230640598E+02 -0.15476770501E+02 -0.20931635074E+03  0.21558413923E+03  0.00000000000E+00 0.  1.
<scales pt_clust_5="13000.00000" pt_clust_6="13000.00000" pt_clust_7="13000.00000" pt_clust_8="13000.00000" pt_clust_9="51.60610"></scales>
<clustering>
<clus scale="   51.606">  1  9  2 -1</clus>
<clus scale="   95.980">  7  8 -1 -1</clus>
<clus scale="  106.306">  5  6 -1 -1</clus>
<clus scale="  114.516">  2  7  1 -1</clus>
<clus scale="   51.606">  1  5  2 -1</clus>
</clustering>
</event>
<event>
 9    2  0.6469128E-005  0.1505124E+03  0.7546771E-02  0.1206116E+00
         21   -1    0    0  501  502  0.00000000000E+00  0.00000000000E+00  0.13834000252E+03  0.13834000252E+03  0.00000000000E+00 0.  1.
          2   -1    0    0  502    0 -0.00000000000E+00 -0.00000000000E+00 -0.52688991090E+03  0.52688991090E+03  0.00000000000E+00 0. -1.
         23    2    1    2    0    0  0.10572022400E+03 -0.11395606912E+02 -0.43609299748E+03  0.46161664278E+03  0.10773206030E+03 0.  0.
         24    2    1    2    0    0 -0.10162622157E+03 -0.35453990931E+02 -0.44091226290E+01  0.13353704087E+03  0.78916579619E+02 0.  0.
        -11    1    4    4    0    0 -0.10845415610E+03 -0.21616211276E+02  0.11730604486E+02  0.11120778591E+03  0.00000000000E+00 0.  1.
         12    1    4    4    0    0  0.68279345309E+01 -0.13837779655E+02 -0.16139727115E+02  0.22329254960E+02  0.00000000000E+00 0. -1.
        -13    1    3    3    0    0  0.79017993491E+02  0.32080029388E+02 -0.36026789111E+03  0.37022415500E+03  0.00000000000E+00 0. -1.
         13    1    3    3    0    0  0.26702230507E+02 -0.43475636300E+02 -0.75825106371E+02  0.91392487776E+02  0.00000000000E+00 0.  1.
          1    1    1    2  501    0 -0.40940024246E+01  0.46849597844E+02  0.51952211732E+02  0.70076229763E+02  0.00000000000E+00 0. -1.
<scales pt_clust_5="13000.00000" pt_clust_6="13000.00000" pt_clust_7="13000.00000" pt_clust_8="13000.00000" pt_clust_9="47.02814"></scales>
<clustering>
<clus scale="   47.028">  1  9  2 -1</clus>
<clus scale="   78.917">  5  6 -1 -1</clus>
<clus scale="  107.732">  7  8 -1 -1</clus>
<clus scale="  131.437">  1  5  2 -1</clus>
<clus scale="   47.028">  1  5  2 -1</clus>
</clustering>
</event>
<event>
 9    2  0.6469128E-005  0.3200773E+03  0.7546771E-02  0.1075791E+00
          2   -1    0    0  502    0 -0.00000000000E+00  0.00000000000E+00  0.19385991613E+04  0.19385991613E+04  0.00000000000E+00 0. -1.
         21   -1    0    0  501  502  0.00000000000E+00 -0.00000000000E+00 -0.21356508026E+03  0.21356508026E+03  0.00000000000E+00 0. -1.
         24    2    1    2    0    0  0.32637852924E+03  0.69442991622E+02  0.16236496114E+04  0.16597980566E+04  0.85710294463E+02 0.  0.
         23    2    1    2    0    0 -0.19889895185E+03  0.11876588321E+03  0.90021754043E+02  0.26476404410E+03  0.91268585985E+02 0.  0.
        -13    1    3    3    0    0  0.30055240889E+02  0.34204572280E+02  0.18446285904E+03  0.18999951746E+03  0.00000000000E+00 0.  1.
         14    1    3    3    0    0  0.29632328836E+03  0.35238419342E+02  0.14391867524E+04  0.14697985391E+04  0.00000000000E+00 0. -1.
        -11    1    4    4    0    0 -0.13703489499E+03  0.68400576597E+02  0.10211659225E+03  0.18407878676E+03  0.00000000000E+00 0. -1.
         11    1    4    4    0    0 -0.61864056852E+02  0.50365306609E+02 -0.12094838203E+02  0.80685257335E+02  0.00000000000E+00 0.  1.
          1    1    1    2  501    0 -0.12747957740E+03 -0.18820887483E+03  0.11362715562E+02  0.22760214086E+03  0.00000000000E+00 0. -1.
<scales pt_clust_5="13000.00000" pt_clust_6="13000.00000" pt_clust_7="13000.00000" pt_clust_8="13000.00000" pt_clust_9="227.31833"></scales>
<clustering>
<clus scale="   85.710">  5  6 -1 -1</clus>
<clus scale="   91.269">  7  8 -1 -1</clus>
<clus scale="  227.318">  2  9  1 -1</clus>
<clus scale="  318.537">  1  5  2 -1</clus>
<clus scale="  227.318">  2  5  1 -1</clus>
</clustering>
</event>
<event>
 9    2  0.6469128E-005  0.2215502E+03  0.7546771E-02  0.1167612E+00
          2   -1    0    0  502    0 -0.00000000000E+00  0.00000000000E+00  0.63606115834E+03  0.63606115834E+03  0.00000000000E+00 0. -1.
         21   -1    0    0  501  502  0.00000000000E+00 -0.00000000000E+00 -0.16065742160E+03  0.16065742160E+03  0.00000000000E+00 0. -1.
         23    2    1    2    0    0 -0.30295584701E+02  0.58827470828E+01 -0.57219506396E+02  0.11258293948E+03  0.91915271763E+02 0.  0.
         24    2    1    2    0    0 -0.10721067217E+03  0.16272077160E+03  0.28703030873E+03  0.35603351212E+03  0.80008036387E+02 0.  0.
        -13    1    4    4    0    0  0.11138896983E+01  0.44866202974E+02  0.10157801557E+03  0.11105093501E+03  0.00000000000E+00 0.  1.
         14    1    4    4    0    0 -0.10832456187E+03  0.11785456863E+03  0.18545229317E+03  0.24498257712E+03  0.00000000000E+00 0. -1.
        -11    1    3    3    0    0 -0.52944453422E+02 -0.15026119884E+02 -0.96133168410E+01  0.55868732648E+02  0.00000000000E+00 0.  1.
         11    1    3    3    0    0  0.22648868721E+02  0.20908866967E+02 -0.47606189555E+02  0.56714206828E+02  0.00000000000E+00 0. -1.
          1    1    1    2  501    0  0.13750625687E+03 -0.16860351868E+03  0.24559293441E+03  0.32810212834E+03  0.00000000000E+00 0. -1.
<scales pt_clust_5="13000.00000" pt_clust_6="13000.00000" pt_clust_7="13000.00000" pt_clust_8="13000.00000" pt_clust_9="206.59915"></scales>
<clustering>
<clus scale="   80.008">  5  6 -1 -1</clus>
<clus scale="   91.915">  7  8 -1 -1</clus>
<clus scale="   96.958">  1  7  2 -1</clus>
<clus scale="  206.599">  2  9  1 -1</clus>
<clus scale="  206.599">  2  5  1 -1</clus>
</clustering>
</event>
<event>
 9    2  0.6469128E-005  0.2380886E+03  0.7546771E-02  0.1121073E+00
         21   -1    0    0  501  502  0.00000000000E+00  0.00000000000E+00  0.85917900568E+02  0.85917900568E+02  0.00000000000E+00 0. -1.
          2   -1    0    0  502    0 -0.00000000000E+00 -0.00000000000E+00 -0.54709981045E+03  0.54709981045E+03  0.00000000000E+00 0. -1.
         24    2    1    2    0    0 -0.58156757683E+02 -0.78031579745E+02 -0.27009291717E+03  0.29814004215E+03  0.80412467504E+02 0.  0.
         23    2    1    2    0    0 -0.71475456681E+00 -0.60033069192E+02 -0.14050015555E+03  0.17648911914E+03  0.88338186488E+02 0.  0.
        -11    1    3    3    0    0 -0.48151409947E+00 -0.67576705149E+02 -0.14879171467E+03  0.16341914603E+03  0.00000000000E+00 0.  1.
         12    1    3    3    0    0 -0.57675243584E+02 -0.10454874595E+02 -0.12130120250E+03  0.13472089613E+03  0.00000000000E+00 0. -1.
        -11    1    4    4    0    0  0.28515481510E+02 -0.54180595298E+02 -0.43751579155E+02  0.75252044964E+02  0.00000000000E+00 0.  1.
         11    1    4    4    0    0 -0.29230236077E+02 -0.58524738936E+01 -0.96748576399E+02  0.10123707417E+03  0.00000000000E+00 0. -1.
          1    1    1    2  501    0  0.58871512250E+02  0.13806464894E+03 -0.50588837166E+02  0.15838854973E+03  0.00000000000E+00 0. -1.
<scales pt_clust_5="13000.00000" pt_clust_6="13000.00000" pt_clust_7="13000.00000" pt_clust_8="13000.00000" pt_clust_9="150.09231"></scales>
<clustering>
<clus scale="   80.412">  5  6 -1 -1</clus>
<clus scale="   88.338">  7  8 -1 -1</clus>
<clus scale="   99.477">  5  7 -1 -1</clus>
<clus scale="  150.092">  1  9  2 -1</clus>
<clus scale="  150.092">  1  5  2 -1</clus>
</clustering>
</event>
<event>
 9    2  0.6469128E-005  0.1544336E+03  0.7546771E-02  0.1197280E+00
          2   -1    0    0  502    0 -0.00000000000E+00  0.00000000000E+00  0.48670748123E+03  0.48670748123E+03  0.00000000000E+00 0. -1.
         21   -1    0    0  501  502  0.00000000000E+00 -0.00000000000E+00 -0.89567007409E+02  0.89567007409E+02  0.00000000000E+00 0. -1.
         23    2    1    2    0    0  0.10047818030E+03 -0.75404985107E+02  0.20720956102E+03  0.25905364027E+03  0.91603547219E+02 0.  0.
         24    2    1    2    0    0 -0.11331437565E+03  0.49357489391E+02  0.23877794182E+02  0.14864778366E+03  0.79055076012E+02 0.  0.
        -13    1    4    4    0    0 -0.53279444547E+02  0.52521659599E+02 -0.15999461849E+02  0.76506252801E+02  0.00000000000E+00 0.  1.
         14    1    4    4    0    0 -0.60034931101E+02 -0.31641702072E+01  0.39877256032E+02  0.72141530854E+02  0.00000000000E+00 0. -1.
        -11    1    3    3    0    0 -0.15587336580E+01 -0.49643845725E+02  0.77056581694E+02  0.91676921040E+02  0.00000000000E+00 0.  1.
         11    1    3    3    0    0  0.10203691396E+03 -0.25761139382E+02  0.13015297933E+03  0.16737671923E+03  0.00000000000E+00 0. -1.
          1    1    1    2  501    0  0.12836195346E+02  0.26047495716E+02  0.16605311862E+03  0.16857306472E+03  0.00000000000E+00 0. -1.
<scales pt_clust_5="13000.00000" pt_clust_6="13000.00000" pt_clust_7="13000.00000" pt_clust_8="13000.00000" pt_clust_9="29.03861"></scales>
<clustering>
<clus scale="   29.039">  2  9  1 -1</clus>
<clus scale="   79.055">  5  6 -1 -1</clus>
<clus scale="   91.604">  7  8 -1 -1</clus>
<clus scale="  147.337">  2  5  1 -1</clus>
<clus scale="   29.039">  2  5  1 -1</clus>
</clustering>
</event>
<event>
 9    2  0.6469128E-005  0.1456644E+03  0.7546771E-02  0.1210763E+00
         21   -1    0    0  501  502  0.00000000000E+00  0.00000000000E+00  0.37842681651E+03  0.37842681651E+03  0.00000000000E+00 0. -1.
          4   -1    0    0  502    0 -0.00000000000E+00 -0.00000000000E+00 -0.11925294894E+03  0.11925294894E+03  0.00000000000E+00 0. -1.
         24    2    1    2    0    0 -0.81621906582E+02 -0.65551076455E+02  0.61195647908E+02  0.14483435307E+03  0.79202293193E+02 0.  0.
         23    2    1    2    0    0  0.92305180771E+02 -0.71336921279E+02  0.14161634259E+03  0.20442332016E+03  0.90136022775E+02 0.  0.
        -13    1    3    3    0    0 -0.34083901835E+02 -0.40598389108E+02 -0.11716016248E+02  0.54288181027E+02  0.00000000000E+00 0.  1.
         14    1    3    3    0    0 -0.47538004748E+02 -0.24952687347E+02  0.72911664156E+02  0.90546172041E+02  0.00000000000E+00 0. -1.
        -13    1    4    4    0    0  0.55341075344E+02  0.70549482754E+01  0.30756296727E+02  0.63705232938E+02  0.00000000000E+00 0. -1.
         13    1    4    4    0    0  0.36964105428E+02 -0.78391869554E+02  0.11086004587E+03  0.14071808722E+03  0.00000000000E+00 0.  1.
          3    1    1    2  501    0 -0.10683274189E+02  0.13688799773E+03  0.56361877075E+02  0.14842209222E+03  0.00000000000E+00 0. -1.
<scales pt_clust_5="13000.00000" pt_clust_6="13000.00000" pt_clust_7="13000.00000" pt_clust_8="13000.00000" pt_clust_9="114.42737"></scales>
<clustering>
<clus scale="   79.202">  5  6 -1 -1</clus>
<clus scale="   90.136">  7  8 -1 -1</clus>
<clus scale="  131.271">  2  5  1 -1</clus>
<clus scale="  114.427">  1  9  2 -1</clus>
<clus scale="  114.427">  1  5  2 -1</clus>
</clustering>
</event>
<event>
 9    2  0.6469128E-005  0.1066935E+03  0.7546771E-02  0.1271594E+00
         21   -1    0    0  501  502  0.00000000000E+00  0.00000000000E+00  0.30213694125E+03  0.30213694125E+03  0.00000000000E+00 0. -1.
          2   -1    0    0  502    0 -0.00000000000E+00 -0.00000000000E+00 -0.88355121721E+02  0.88355121721E+02  0.00000000000E+00 0. -1.
         23    2    1    2    0    0  0.64464063029E+02 -0.23731157151E+01 -0.26528363045E+02  0.11527001504E+03  0.91772409918E+02 0.  0.
         24    2    1    2    0    0 -0.25343818292E+02  0.10211721110E+02  0.11092443964E+03  0.13982445653E+03  0.80622943134E+02 0.  0.
        -13    1    4    4    0    0 -0.40299151929E+02 -0.24617138389E+02  0.61415658416E+02  0.77471983628E+02  0.00000000000E+00 0.  1.
         14    1    4    4    0    0  0.14955333636E+02  0.34828859499E+02  0.49508781224E+02  0.62352472897E+02  0.00000000000E+00 0. -1.
        -11    1    3    3    0    0  0.49219923613E+02 -0.43160145723E+02 -0.29125806345E+02  0.71649924316E+02  0.00000000000E+00 0. -1.
         11    1    3    3    0    0  0.15244139416E+02  0.40787030008E+02  0.25974433007E+01  0.43620090728E+02  0.00000000000E+00 0.  1.
          1    1    1    2  501    0 -0.39120244736E+02 -0.78386053950E+01  0.12938574294E+03  0.13539759141E+03  0.00000000000E+00 0. -1.
<scales pt_clust_5="13000.00000" pt_clust_6="13000.00000" pt_clust_7="13000.00000" pt_clust_8="13000.00000" pt_clust_9="39.89784"></scales>
<clustering>
<clus scale="   39.898">  1  9  2 -1</clus>
<clus scale="   80.623">  5  6 -1 -1</clus>
<clus scale="   91.772">  7  8 -1 -1</clus>
<clus scale="   97.270">  1  5  2 -1</clus>
<clus scale="   39.898">  1  5  2 -1</clus>
</clustering>
</event>
<event>
 9    2  0.6469128E-005  0.2319944E+03  0.7546771E-02  0.1156360E+00
          2   -1    0    0  502    0 -0.00000000000E+00  0.00000000000E+00  0.20758365756E+04  0.20758365756E+04  0.00000000000E+00 0. -1.
         21   -1    0    0  501  502  0.00000000000E+00 -0.00000000000E+00 -0.54019654903E+02  0.54019654903E+02  0.00000000000E+00 0. -1.
         23    2    1    2    0    0 -0.59076064359E+02  0.19426970455E+02  0.88985256661E+02  0.14119696702E+03  0.90281886508E+02 0.  0.
         24    2    1    2    0    0 -0.14622113733E+03  0.12871267946E+03  0.75406928877E+03  0.78301709673E+03  0.80917900725E+02 0.  0.
        -11    1    4    4    0    0  0.33397609445E+01  0.24221951807E+02  0.49509587085E+02  0.55218259352E+02  0.00000000000E+00 0.  1.
         12    1    4    4    0    0 -0.14956089828E+03  0.10449072765E+03  0.70455970168E+03  0.72779883738E+03  0.00000000000E+00 0. -1.
        -11    1    3    3    0    0 -0.40370385863E+02  0.48434138993E+01  0.10498673290E+03  0.11258526012E+03  0.00000000000E+00 0.  1.
         11    1    3    3    0    0 -0.18705678496E+02  0.14583556556E+02 -0.16001476235E+02  0.28611706896E+02  0.00000000000E+00 0. -1.
          1    1    1    2  501    0  0.20529720169E+03 -0.14813964991E+03  0.11787623753E+04  0.12056421668E+04  0.00000000000E+00 0. -1.
<scales pt_clust_5="13000.00000" pt_clust_6="13000.00000" pt_clust_7="13000.00000" pt_clust_8="13000.00000" pt_clust_9="217.42522"></scales>
<clustering>
<clus scale="   80.918">  5  6 -1 -1</clus>
<clus scale="   90.282">  7  8 -1 -1</clus>
<clus scale="  109.628">  1  7  2 -1</clus>
<clus scale="  217.425">  2  9  1 -1</clus>
<clus scale="  217.425">  2  5  1 -1</clus>
</clustering>
</event>
<event>
 9    2  0.7451083E-005  0.1004996E+03  0.7546771E-02  0.1281460E+00
         21   -1    0    0  501  502  0.00000000000E+00  0.00000000000E+00  0.90953286800E+02  0.90953286800E+02  0.00000000000E+00 0. -1.
          2   -1    0    0  502    0 -0.00000000000E+00 -0.00000000000E+00 -0.45500773924E+03  0.45500773924E+03  0.00000000000E+00 0. -1.
         23    2    1    2    0    0 -0.47206190988E+02  0.19495903422E+02 -0.30732462210E+03  0.32442868107E+03  0.90537456503E+02 0.  0.
         24    2    1    2    0    0 -0.53678974377E+02 -0.38370691438E+02 -0.21253004283E+02  0.11293824108E+03  0.89160607088E+02 0.  0.
        -11    1    4    4    0    0  0.23886047662E+02 -0.18934414870E+02 -0.10588026720E+02  0.32267036573E+02  0.00000000000E+00 0.  1.
         12    1    4    4    0    0 -0.77565022039E+02 -0.19436276568E+02 -0.10664977563E+02  0.80671204510E+02  0.00000000000E+00 0. -1.
        -13    1    3    3    0    0 -0.41296858552E+02  0.41308397706E+02 -0.29034419592E+03  0.29616138565E+03  0.00000000000E+00 0. -1.
         13    1    3    3    0    0 -0.59093324358E+01 -0.21812494285E+02 -0.16980426188E+02  0.28267295418E+02  0.00000000000E+00 0.  1.
          1    1    1    2  501    0  0.10088516536E+03  0.18874788016E+02 -0.35476826058E+02  0.10859410389E+03  0.00000000000E+00 0. -1.
<scales pt_clust_5="13000.00000" pt_clust_6="13000.00000" pt_clust_7="13000.00000" pt_clust_8="13000.00000" pt_clust_9="102.63564"></scales>
<clustering>
<clus scale="   89.161">  5  6 -1 -1</clus>
<clus scale="   90.537">  7  8 -1 -1</clus>
<clus scale="  102.636">  1  9  2 -1</clus>
<clus scale="  102.636">  1  5  2 -1</clus>
<clus scale="  100.500">  1  5  2 -1</clus>
</clustering>
</event>
<event>
 9    2  0.6469128E-005  0.1155125E+03  0.7546771E-02  0.1254646E+00
         21   -1    0    0  501  502  0.00000000000E+00  0.00000000000E+00  0.50434618611E+03  0.50434618611E+03  0.00000000000E+00 0. -1.
          2   -1    0    0  502    0 -0.00000000000E+00 -0.00000000000E+00 -0.39605495237E+02  0.39605495237E+02  0.00000000000E+00 0. -1.
         24    2    1    2    0    0 -0.46093892905E+02  0.77467900949E+02  0.16282272226E+03  0.20302693381E+03  0.81134298096E+02 0.  0.
         23    2    1    2    0    0  0.41057713999E+00 -0.49651568461E+02  0.20281701967E+03  0.22831164096E+03  0.92336423497E+02 0.  0.
        -13    1    3    3    0    0 -0.33527695328E+02  0.89843518620E+01  0.11080540447E+03  0.11611486809E+03  0.00000000000E+00 0.  1.
         14    1    3    3    0    0 -0.12566197576E+02  0.68483549087E+02  0.52017317789E+02  0.86912065715E+02  0.00000000000E+00 0. -1.
        -13    1    4    4    0    0 -0.35946611089E+02 -0.36913597844E+02  0.54198693573E+02  0.74781487947E+02  0.00000000000E+00 0. -1.
         13    1    4    4    0    0  0.36357188229E+02 -0.12737970617E+02  0.14861832610E+03  0.15353015301E+03  0.00000000000E+00 0.  1.
          1    1    1    2  501    0  0.45683315765E+02 -0.27816332488E+02  0.99100948942E+02  0.11261310658E+03  0.00000000000E+00 0. -1.
<scales pt_clust_5="13000.00000" pt_clust_6="13000.00000" pt_clust_7="13000.00000" pt_clust_8="13000.00000" pt_clust_9="53.48564"></scales>
<clustering>
<clus scale="   53.486">  1  9  2 -1</clus>
<clus scale="   81.134">  5  6 -1 -1</clus>
<clus scale="   92.336">  7  8 -1 -1</clus>
<clus scale="  106.770">  2  5  1 -1</clus>
<clus scale="   53.486">  1  5  2 -1</clus>
</clustering>
</event>
<event>
 9    2  0.6469128E-005  0.9332136E+02  0.7546771E-02  0.1301629E+00
          2   -1    0    0  502    0 -0.00000000000E+00  0.00000000000E+00  0.38455948687E+03  0.38455948687E+03  0.00000000000E+00 0. -1.
         21   -1    0    0  501  502  0.00000000000E+00 -0.00000000000E+00 -0.51996363070E+03  0.51996363070E+03  0.00000000000E+00 0. -1.
         24    2    1    2    0    0  0.37579246952E+01 -0.21152187687E+02  0.37025590036E+03  0.37935558553E+03  0.79747673823E+02 0.  0.
         23    2    1    2    0    0  0.34291956415E+02  0.17180662379E+02 -0.41887032315E+03  0.43032016970E+03  0.90840450242E+02 0.  0.
        -13    1    3    3    0    0  0.80852757338E+01  0.22182310239E+02  0.41649848329E+02  0.47876261728E+02  0.00000000000E+00 0.  1.
         14    1    3    3    0    0 -0.43273510386E+01 -0.43334497926E+02  0.32860605203E+03  0.33147932380E+03  0.00000000000E+00 0. -1.
        -13    1    4    4    0    0 -0.14163949773E+02 -0.27010824543E+02 -0.91612195603E+02  0.96555665287E+02  0.00000000000E+00 0.  1.
         13    1    4    4    0    0  0.48455906188E+02  0.44191486922E+02 -0.32725812755E+03  0.33376450442E+03  0.00000000000E+00 0. -1.
          1    1    1    2  501    0 -0.38049881110E+02  0.39715253078E+01 -0.86789721031E+02  0.94847362338E+02  0.00000000000E+00 0. -1.
<scales pt_clust_5="13000.00000" pt_clust_6="13000.00000" pt_clust_7="13000.00000" pt_clust_8="13000.00000" pt_clust_9="38.25659"></scales>
<clustering>
<clus scale="   38.257">  2  9  1 -1</clus>
<clus scale="   79.748">  5  6 -1 -1</clus>
<clus scale="   82.563">  1  5  2 -1</clus>
<clus scale="   90.840">  7  8 -1 -1</clus>
<clus scale="   38.257">  2  5  1 -1</clus>
</clustering>
</event>
<event>
 9    2  0.6469128E-005  0.1338435E+03  0.7546771E-02  0.1223803E+00
         21   -1    0    0  501  502  0.00000000000E+00  0.00000000000E+00  0.34522099005E+02  0.34522099005E+02  0.00000000000E+00 0. -1.
          2   -1    0    0  502    0 -0.00000000000E+00 -0.00000000000E+00 -0.96064170486E+03  0.96064170486E+03  0.00000000000E+00 0. -1.
         24    2    1    2    0    0  0.10983475324E+03  0.22810337584E+02 -0.48070319925E+03  0.50034320763E+03  0.81754358541E+02 0.  0.
         23    2    1    2    0    0 -0.59029304032E+02 -0.49523559824E+02 -0.13682980963E+03  0.18094087764E+03  0.89889725127E+02 0.  0.
        -13    1    3    3    0    0  0.36371852351E+02 -0.29648634705E+02 -0.13004378862E+03  0.13825100413E+03  0.00000000000E+00 0.  1.
         14    1    3    3    0    0  0.73462900888E+02  0.52458972289E+02 -0.35065941062E+03  0.36209220351E+03  0.00000000000E+00 0. -1.
        -13    1    4    4    0    0 -0.65240814377E+02  0.27327581195E+01 -0.67684845927E+02  0.94048233347E+02  0.00000000000E+00 0. -1.
         13    1    4    4    0    0  0.62115103442E+01 -0.52256317943E+02 -0.69144963706E+02  0.86892644290E+02  0.00000000000E+00 0.  1.
          1    1    1    2  501    0 -0.50805449207E+02  0.26713222240E+02 -0.30858659698E+03  0.31387971860E+03  0.00000000000E+00 0. -1.
<scales pt_clust_5="13000.00000" pt_clust_6="13000.00000" pt_clust_7="13000.00000" pt_clust_8="13000.00000" pt_clust_9="57.40029"></scales>
<clustering>
<clus scale="   57.400">  1  9  2 -1</clus>
<clus scale="   81.754">  5  6 -1 -1</clus>
<clus scale="   89.890">  7  8 -1 -1</clus>
<clus scale="  128.521">  2  5  1 -1</clus>
<clus scale="   57.400">  1  5  2 -1</clus>
</clustering>
</event>
<event>
 9    2  0.6469128E-005  0.1728597E+03  0.7546771E-02  0.1204129E+00
         21   -1    0    0  501  502  0.00000000000E+00  0.00000000000E+00  0.55217182044E+03  0.55217182044E+03  0.00000000000E+00 0.  1.
         -1   -1    0    0    0  501 -0.00000000000E+00 -0.00000000000E+00 -0.16066613767E+03  0.16066613767E+03  0.00000000000E+00 0.  1.
         24    2    1    2    0    0 -0.34191246975E+01 -0.31088182721E+02  0.20727183365E+02  0.92900355319E+02  0.84986436386E+02 0.  0.
         23    2    1    2    0    0 -0.39360857540E+02  0.16794520838E+03 -0.26723517269E+02  0.19736473853E+03  0.92107673496E+02 0.  0.
        -11    1    3    3    0    0  0.34660903304E+02 -0.13251211493E+02  0.32397718804E+02  0.49260379694E+02  0.00000000000E+00 0.  1.
         12    1    3    3    0    0 -0.38080028002E+02 -0.17836971228E+02 -0.11670535439E+02  0.43639975626E+02  0.00000000000E+00 0. -1.
        -11    1    4    4    0    0  0.76021519948E+01  0.83519770560E+02 -0.50470442976E+02  0.97880592579E+02  0.00000000000E+00 0. -1.
         11    1    4    4    0    0 -0.46963009535E+02  0.84425437817E+02  0.23746925707E+02  0.99484145951E+02  0.00000000000E+00 0.  1.
         -2    1    1    2    0  502  0.42779982238E+02 -0.13685702566E+03  0.39750201667E+03  0.42257286426E+03  0.00000000000E+00 0.  1.
<scales pt_clust_5="13000.00000" pt_clust_6="13000.00000" pt_clust_7="13000.00000" pt_clust_8="13000.00000" pt_clust_9="146.27597"></scales>
<clustering>
<clus scale="   84.986">  5  6 -1 -1</clus>
<clus scale="   90.559">  2  5  1 -1</clus>
<clus scale="   92.108">  7  8 -1 -1</clus>
<clus scale="  146.276">  1  9  2 -1</clus>
<clus scale="  146.276">  1  5  2 -1</clus>
</clustering>
</event>
<event>
 9    2  0.6469128E-005  0.1027061E+03  0.7546771E-02  0.1278703E+00
          2   -1    0    0  502    0 -0.00000000000E+00  0.00000000000E+00  0.54622975071E+03  0.54622975071E+03  0.00000000000E+00 0. -1.
         21   -1    0    0  501  502  0.00000000000E+00 -0.00000000000E+00 -0.46142527505E+02  0.46142527505E+02  0.00000000000E+00 0. -1.
         23    2    1    2    0    0 -0.53438429366E+02 -0.89677845937E+01  0.35916178118E+03  0.37428827423E+03  0.90324084663E+02 0.  0.
         24    2    1    2    0    0  0.22788027026E+02  0.41521324848E+01  0.12258342994E+02  0.85728951036E+02  0.81625067797E+02 0.  0.
        -11    1    4    4    0    0 -0.30918609434E+02  0.34759468825E+01  0.54745712789E+01  0.31591352405E+02  0.00000000000E+00 0.  1.
         12    1    4    4    0    0  0.53706636460E+02  0.67618560228E+00  0.67837717150E+01  0.54137598631E+02  0.00000000000E+00 0. -1.
        -13    1    3    3    0    0 -0.58098481536E+02 -0.42141901647E+02  0.23902952148E+03  0.24957260580E+03  0.00000000000E+00 0. -1.
         13    1    3    3    0    0  0.46600521701E+01  0.33174117053E+02  0.12013225971E+03  0.12471566843E+03  0.00000000000E+00 0.  1.
          1    1    1    2  501    0  0.30650402340E+02  0.48156521090E+01  0.12866709903E+03  0.13235505295E+03  0.00000000000E+00 0. -1.
<scales pt_clust_5="13000.00000" pt_clust_6="13000.00000" pt_clust_7="13000.00000" pt_clust_8="13000.00000" pt_clust_9="31.02642"></scales>
<clustering>
<clus scale="   31.026">  2  9  1 -1</clus>
<clus scale="   81.625">  5  6 -1 -1</clus>
<clus scale="   90.324">  7  8 -1 -1</clus>
<clus scale="   95.146">  2  5  1 -1</clus>
<clus scale="   31.026">  2  5  1 -1</clus>
</clustering>
</event>
<event>
 9    2  0.6469128E-005  0.1009027E+03  0.7546771E-02  0.1281788E+00
          2   -1    0    0  502    0 -0.00000000000E+00  0.00000000000E+00  0.42137487194E+03  0.42137487194E+03  0.00000000000E+00 0. -1.
         21   -1    0    0  501  502  0.00000000000E+00 -0.00000000000E+00 -0.59484924989E+02  0.59484924989E+02  0.00000000000E+00 0.  1.
         24    2    1    2    0    0  0.43574729375E+02  0.42613796287E+01  0.23223577618E+03  0.24986324266E+03  0.81125014017E+02 0.  0.
         23    2    1    2    0    0 -0.75902676248E+02  0.46350405874E-01  0.22054993193E+02  0.11856330428E+03  0.88372031701E+02 0.  0.
        -13    1    3    3    0    0 -0.54251989508E+01  0.28984878750E+02  0.38452770942E+02  0.48457936119E+02  0.00000000000E+00 0.  1.
         14    1    3    3    0    0  0.48999928326E+02 -0.24723499121E+02  0.19378300523E+03  0.20140530654E+03  0.00000000000E+00 0. -1.
        -13    1    4    4    0    0  0.65230787107E+01 -0.27556841423E+02 -0.19478185105E+01  0.28385278967E+02  0.00000000000E+00 0. -1.
         13    1    4    4    0    0 -0.82425754958E+02  0.27603191829E+02  0.24002811703E+02  0.90178025313E+02  0.00000000000E+00 0.  1.
          1    1    1    2  501    0  0.32327946873E+02 -0.43077300346E+01  0.10759917758E+03  0.11243324999E+03  0.00000000000E+00 0. -1.
<scales pt_clust_5="13000.00000" pt_clust_6="13000.00000" pt_clust_7="13000.00000" pt_clust_8="13000.00000" pt_clust_9="32.61370"></scales>
<clustering>
<clus scale="   32.614">  2  9  1 -1</clus>
<clus scale="   81.125">  5  6 -1 -1</clus>
<clus scale="   88.372">  7  8 -1 -1</clus>
<clus scale="   94.620">  1  5  2 -1</clus>
<clus scale="   32.614">  2  5  1 -1</clus>
</clustering>
</event>
<event>
 9    2  0.6469128E-005  0.3578380E+03  0.7546771E-02  0.1059778E+00
         21   -1    0    0  501  502  0.00000000000E+00  0.00000000000E+00  0.11318721369E+03  0.11318721369E+03  0.00000000000E+00 0.  1.
         -3   -1    0    0    0  501 -0.00000000000E+00 -0.00000000000E+00 -0.17595257153E+04  0.17595257153E+04  0.00000000000E+00 0.  1.
         23    2    1    2    0    0  0.59233161715E+01 -0.33174107817E+03 -0.11283350443E+04  0.11795340171E+04  0.89851526193E+02 0.  0.
         24    2    1    2    0    0 -0.35749763351E+00  0.39129280454E+03 -0.42503051707E+03  0.58262867863E+03  0.75465555258E+02 0.  0.
        -11    1    4    4    0    0 -0.20947286885E+02  0.35486235071E+03 -0.39308095810E+03  0.52997992075E+03  0.00000000000E+00 0.  1.
         12    1    4    4    0    0  0.20589789251E+02  0.36430453828E+02 -0.31949558975E+02  0.52648757879E+02  0.00000000000E+00 0. -1.
        -13    1    3    3    0    0  0.38254461771E+02 -0.13351112782E+03 -0.55202700631E+03  0.56922969072E+03  0.00000000000E+00 0.  1.
         13    1    3    3    0    0 -0.32331145599E+02 -0.19822995034E+03 -0.57630803795E+03  0.61030432638E+03  0.00000000000E+00 0. -1.
         -4    1    1    2    0  502 -0.55658185380E+01 -0.59551726371E+02 -0.92972940261E+02  0.11055023324E+03  0.00000000000E+00 0.  1.
<scales pt_clust_5="13000.00000" pt_clust_6="13000.00000" pt_clust_7="13000.00000" pt_clust_8="13000.00000" pt_clust_9="59.81126"></scales>
<clustering>
<clus scale="   59.811">  1  9  2 -1</clus>
<clus scale="   75.466">  5  6 -1 -1</clus>
<clus scale="   89.852">  7  8 -1 -1</clus>
<clus scale="  354.499">  1  5  2 -1</clus>
<clus scale="   59.811">  1  5  2 -1</clus>
</clustering>
</event>
<event>
 9    2  0.6469128E-005  0.1015880E+03  0.7546771E-02  0.1284636E+00
          2   -1    0    0  502    0 -0.00000000000E+00  0.00000000000E+00  0.71459045612E+03  0.71459045612E+03  0.00000000000E+00 0. -1.
         21   -1    0    0  501  502  0.00000000000E+00 -0.00000000000E+00 -0.52617646048E+02  0.52617646048E+02  0.00000000000E+00 0. -1.
         23    2    1    2    0    0 -0.55961440776E+02 -0.44478370169E+02  0.43348833269E+03  0.44951739357E+03  0.95098602922E+02 0.  0.
         24    2    1    2    0    0 -0.10926282827E+02  0.15505697051E+02  0.23045949556E+03  0.24477099896E+03  0.80258660223E+02 0.  0.
        -13    1    4    4    0    0 -0.35975247608E+02  0.30704639190E+01  0.20074483814E+03  0.20396601734E+03  0.00000000000E+00 0.  1.
         14    1    4    4    0    0  0.25048964781E+02  0.12435233132E+02  0.29714657424E+02  0.40804981625E+02  0.00000000000E+00 0. -1.
        -11    1    3    3    0    0 -0.19109400017E+02  0.30104408256E+02  0.12091757963E+03  0.12606548151E+03  0.00000000000E+00 0.  1.
         11    1    3    3    0    0 -0.36852040759E+02 -0.74582778425E+02  0.31257075306E+03  0.32345191205E+03  0.00000000000E+00 0. -1.
          1    1    1    2  501    0  0.66887723603E+02  0.28972673118E+02 -0.19750181807E+01  0.72919709634E+02  0.00000000000E+00 0. -1.
<scales pt_clust_5="13000.00000" pt_clust_6="13000.00000" pt_clust_7="13000.00000" pt_clust_8="13000.00000" pt_clust_9="72.89296"></scales>
<clustering>
<clus scale="   72.893">  2  9  1 -1</clus>
<clus scale="   80.259">  5  6 -1 -1</clus>
<clus scale="   87.851">  2  5  1 -1</clus>
<clus scale="   95.099">  7  8 -1 -1</clus>
<clus scale="   72.893">  2  5  1 -1</clus>
</clustering>
</event>
<event>
 9    2  0.6469128E-005  0.2130480E+03  0.7546771E-02  0.1173315E+00
         21   -1    0    0  501  502  0.00000000000E+00  0.00000000000E+00  0.11625933934E+04  0.11625933934E+04  0.00000000000E+00 0. -1.
          2   -1    0    0  502    0 -0.00000000000E+00 -0.00000000000E+00 -0.31573888732E+03  0.31573888732E+03  0.00000000000E+00 0. -1.
         24    2    1    2    0    0  0.49938850727E+02 -0.11118280291E+02 -0.18657375197E+03  0.20969080172E+03  0.80888580359E+02 0.  0.
         23    2    1    2    0    0 -0.20151839509E+03 -0.10264377276E+03  0.28381191554E+02  0.24588160060E+03  0.92232650597E+02 0.  0.
        -11    1    3    3    0    0  0.31808806369E+02  0.28584678267E+02 -0.13758856670E+03  0.14408156606E+03  0.00000000000E+00 0.  1.
         12    1    3    3    0    0  0.18130044358E+02 -0.39702958558E+02 -0.48985185275E+02  0.65609235654E+02  0.00000000000E+00 0. -1.
        -11    1    4    4    0    0 -0.10016615947E+03 -0.97065133544E+02 -0.33835466193E+01  0.13952185507E+03  0.00000000000E+00 0.  1.
         11    1    4    4    0    0 -0.10135223561E+03 -0.55786392182E+01  0.31764738173E+02  0.10635974554E+03  0.00000000000E+00 0. -1.
          1    1    1    2  501    0  0.15157954436E+03  0.11376205305E+03  0.10050470665E+04  0.10227598784E+04  0.00000000000E+00 0. -1.
<scales pt_clust_5="13000.00000" pt_clust_6="13000.00000" pt_clust_7="13000.00000" pt_clust_8="13000.00000" pt_clust_9="192.04840"></scales>
<clustering>
<clus scale="   80.889">  5  6 -1 -1</clus>
<clus scale="   92.233">  7  8 -1 -1</clus>
<clus scale="   95.710">  2  5  1 -1</clus>
<clus scale="  192.048">  1  9  2 -1</clus>
<clus scale="  192.048">  1  5  2 -1</clus>
</clustering>
</event>
<event>
 9    2  0.6469128E-005  0.1074065E+03  0.7546771E-02  0.1271856E+00
          2   -1    0    0  502    0 -0.00000000000E+00  0.00000000000E+00  0.38968754677E+03  0.38968754677E+03  0.00000000000E+00 0. -1.
         21   -1    0    0  501  502  0.00000000000E+00 -0.00000000000E+00 -0.98793750668E+02  0.98793750668E+02  0.00000000000E+00 0.  1.
         23    2    1    2    0    0  0.36455580745E+02 -0.37157904040E+02  0.31453917642E+03  0.33266600704E+03  0.94984522648E+02 0.  0.
         24    2    1    2    0    0 -0.14390756637E+02  0.44720268064E+02  0.29490453026E+02  0.97785448103E+02  0.80531427336E+02 0.  0.
        -11    1    4    4    0    0 -0.45984607473E+02  0.37471050630E+02  0.27293478235E+02  0.65296230472E+02  0.00000000000E+00 0.  1.
         12    1    4    4    0    0  0.31593850836E+02  0.72492174342E+01  0.21969747912E+01  0.32489217631E+02  0.00000000000E+00 0. -1.
        -11    1    3    3    0    0 -0.18239953620E+02 -0.43904287904E+02  0.19979556149E+03  0.20537416779E+03  0.00000000000E+00 0. -1.
         11    1    3    3    0    0  0.54695534364E+02  0.67463838637E+01  0.11474361493E+03  0.12729183926E+03  0.00000000000E+00 0.  1.
          1    1    1    2  501    0 -0.22064824108E+02 -0.75623640238E+01 -0.53135833335E+02  0.58029842294E+02  0.00000000000E+00 0. -1.
<scales pt_clust_5="13000.00000" pt_clust_6="13000.00000" pt_clust_7="13000.00000" pt_clust_8="13000.00000" pt_clust_9="23.32479"></scales>
<clustering>
<clus scale="   23.325">  2  9  1 -1</clus>
<clus scale="   80.531">  5  6 -1 -1</clus>
<clus scale="   94.865">  2  5  1 -1</clus>
<clus scale="   94.985">  7  8 -1 -1</clus>
<clus scale="   23.325">  2  5  1 -1</clus>
</clustering>
</event>
<event>
 9    2  0.6469128E-005  0.1049440E+03  0.7546771E-02  0.1275152E+00
          4   -1    0    0  502    0 -0.00000000000E+00  0.00000000000E+00  0.12292391411E+04  0.12292391411E+04  0.00000000000E+00 0. -1.
         21   -1    0    0  501  502  0.00000000000E+00 -0.00000000000E+00 -0.33180422562E+02  0.33180422562E+02  0.00000000000E+00 0. -1.
         24    2    1    2    0    0 -0.42277824129E+02 -0.37936776232E+02  0.10169693912E+04  0.10217463617E+04  0.80698646730E+02 0.  0.
         23    2    1    2    0    0 -0.13963487983E+02  0.33495629334E+02  0.14292040454E+03  0.17365827865E+03  0.91727964800E+02 0.  0.
        -13    1    3    3    0    0  0.19005590401E+02 -0.19308316011E+02  0.15099397894E+03  0.15340536239E+03  0.00000000000E+00 0.  1.
         14    1    3    3    0    0 -0.61283414530E+02 -0.18628460220E+02  0.86597541226E+03  0.86834099930E+03  0.00000000000E+00 0. -1.
        -11    1    4    4    0    0  0.31068348820E+02 -0.57104750087E+01  0.21085774022E+02  0.37979753677E+02  0.00000000000E+00 0.  1.
         11    1    4    4    0    0 -0.45031836803E+02  0.39206104342E+02  0.12183463052E+03  0.13567852497E+03  0.00000000000E+00 0. -1.
          3    1    1    2  501    0  0.56241312112E+02  0.44411468981E+01  0.36168922823E+02  0.67014923353E+02  0.00000000000E+00 0. -1.
<scales pt_clust_5="13000.00000" pt_clust_6="13000.00000" pt_clust_7="13000.00000" pt_clust_8="13000.00000" pt_clust_9="56.41639"></scales>
<clustering>
<clus scale="   56.416">  2  9  1 -1</clus>
<clus scale="   80.699">  5  6 -1 -1</clus>
<clus scale="   91.728">  7  8 -1 -1</clus>
<clus scale="   95.454">  1  5  2 -1</clus>
<clus scale="   56.416">  2  5  1 -1</clus>
</clustering>
</event>
<event>
 9    2  0.6469128E-005  0.2014282E+03  0.7546771E-02  0.1149504E+00
         -1   -1    0    0    0  501 -0.00000000000E+00  0.00000000000E+00  0.10821326049E+04  0.10821326049E+04  0.00000000000E+00 0.  1.
         21   -1    0    0  501  502  0.00000000000E+00 -0.00000000000E+00 -0.13834417158E+03  0.13834417158E+03  0.00000000000E+00 0.  1.
         23    2    1    2    0    0 -0.89912841685E+02  0.16281639705E+03  0.80860219521E+03  0.83461578509E+03  0.90291197734E+02 0.  0.
         24    2    1    2    0    0  0.18811763778E+03 -0.51319436517E+02  0.58131329825E+02  0.21848950910E+03  0.79602034336E+02 0.  0.
        -13    1    4    4    0    0  0.17531823403E+03 -0.51739561432E+02  0.74768985576E+02  0.19749396600E+03  0.00000000000E+00 0.  1.
         14    1    4    4    0    0  0.12799403751E+02  0.42012491431E+00 -0.16637655751E+02  0.20995543104E+02  0.00000000000E+00 0. -1.
        -11    1    3    3    0    0 -0.13750882979E+02  0.28430299121E+02  0.41685154754E+02  0.52297426492E+02  0.00000000000E+00 0. -1.
         11    1    3    3    0    0 -0.76161958706E+02  0.13438609793E+03  0.76691704045E+03  0.78231835860E+03  0.00000000000E+00 0.  1.
         -2    1    1    2    0  502 -0.98204796099E+02 -0.11149696053E+03  0.77054908265E+02  0.16737148226E+03  0.00000000000E+00 0.  1.
<scales pt_clust_5="13000.00000" pt_clust_6="13000.00000" pt_clust_7="13000.00000" pt_clust_8="13000.00000" pt_clust_9="148.57912"></scales>
<clustering>
<clus scale="   79.602">  5  6 -1 -1</clus>
<clus scale="   90.291">  7  8 -1 -1</clus>
<clus scale="  148.579">  2  9  1 -1</clus>
<clus scale="  196.869">  2  5  1 -1</clus>
<clus scale="  148.579">  2  5  1 -1</clus>
</clustering>
</event>
<event>
 9    2  0.6469128E-005  0.9376483E+02  0.7546771E-02  0.1301685E+00
         -3   -1    0    0    0  501 -0.00000000000E+00  0.00000000000E+00  0.85829963578E+02  0.85829963578E+02  0.00000000000E+00 0.  1.
         21   -1    0    0  501  502  0.00000000000E+00 -0.00000000000E+00 -0.12421375675E+03  0.12421375675E+03  0.00000000000E+00 0.  1.
         24    2    1    2    0    0  0.16880467042E+02 -0.25839972697E+02 -0.30277223211E+01  0.84472728745E+02  0.78573662525E+02 0.  0.
         23    2    1    2    0    0 -0.15461143426E+01  0.97221400257E+01 -0.11000220510E+02  0.92584110121E+02  0.91399683366E+02 0.  0.
        -11    1    3    3    0    0  0.16352783134E+02 -0.32391241355E+02  0.32275764322E+02  0.48562650209E+02  0.00000000000E+00 0.  1.
         12    1    3    3    0    0  0.52768390828E+00  0.65512686576E+01 -0.35303486643E+02  0.35910078536E+02  0.00000000000E+00 0. -1.
        -11    1    4    4    0    0 -0.38985234387E+02  0.17846731725E+02 -0.27429643357E+02  0.50899309113E+02  0.00000000000E+00 0.  1.
         11    1    4    4    0    0  0.37439120045E+02 -0.81245916991E+01  0.16429422847E+02  0.41684801008E+02  0.00000000000E+00 0. -1.
         -4    1    1    2    0  502 -0.15334352699E+02  0.16117832672E+02 -0.24355850344E+02  0.32986881464E+02  0.00000000000E+00 0.  1.
<scales pt_clust_5="13000.00000" pt_clust_6="13000.00000" pt_clust_7="13000.00000" pt_clust_8="13000.00000" pt_clust_9="22.24695"></scales>
<clustering>
<clus scale="   22.247">  2  9  1 -1</clus>
<clus scale="   78.574">  5  6 -1 -1</clus>
<clus scale="   81.313">  1  5  2 -1</clus>
<clus scale="   91.400">  7  8 -1 -1</clus>
<clus scale="   22.247">  2  5  1 -1</clus>
</clustering>
</event>
<event>
 9    2  0.6469128E-005  0.9673987E+02  0.7546771E-02  0.1289392E+00
         21   -1    0    0  501  502  0.00000000000E+00  0.00000000000E+00  0.21250049836E+03  0.21250049836E+03  0.00000000000E+00 0. -1.
          2   -1    0    0  502    0 -0.00000000000E+00 -0.00000000000E+00 -0.21385947057E+03  0.21385947057E+03  0.00000000000E+00 0. -1.
         24    2    1    2    0    0  0.54078146864E+02  0.44525857382E+02 -0.14409647448E+03  0.17921386039E+03  0.80292065942E+02 0.  0.
         23    2    1    2    0    0  0.18343831662E+02  0.19300577274E+01  0.75352723753E+01  0.86887760892E+02  0.84572344063E+02 0.  0.
        -11    1    3    3    0    0  0.15045495169E+00  0.22934264540E+02  0.96365258538E+00  0.22954994075E+02  0.00000000000E+00 0.  1.
         12    1    3    3    0    0  0.53927691913E+02  0.21591592842E+02 -0.14506012707E+03  0.15625886631E+03  0.00000000000E+00 0. -1.
        -11    1    4    4    0    0  0.38813806254E+02 -0.36008916338E+01 -0.26253278122E+02  0.46996942333E+02  0.00000000000E+00 0. -1.
         11    1    4    4    0    0 -0.20469974592E+02  0.55309493612E+01  0.33788550497E+02  0.39890818560E+02  0.00000000000E+00 0.  1.
          1    1    1    2  501    0 -0.72421978526E+02 -0.46455915110E+02  0.13520222990E+03  0.16025834765E+03  0.00000000000E+00 0. -1.
<scales pt_clust_5="13000.00000" pt_clust_6="13000.00000" pt_clust_7="13000.00000" pt_clust_8="13000.00000" pt_clust_9="86.04124"></scales>
<clustering>
<clus scale="   80.292">  5  6 -1 -1</clus>
<clus scale="   84.572">  7  8 -1 -1</clus>
<clus scale="   86.041">  1  9  2 -1</clus>
<clus scale="   93.021">  2  5  1 -1</clus>
<clus scale="   86.041">  1  5  2 -1</clus>
</clustering>
</event>
<event>
 9    2  0.9727967E-005  0.1260713E+03  0.7546771E-02  0.1240897E+00
         21   -1    0    0  501  502  0.00000000000E+00  0.00000000000E+00  0.11755890186E+03  0.11755890186E+03  0.00000000000E+00 0.  1.
         -1   -1    0    0    0  501 -0.00000000000E+00 -0.00000000000E+00 -0.63345611275E+03  0.63345611275E+03  0.00000000000E+00 0.  1.
         23    2    1    2    0    0 -0.54225561665E+02 -0.15929952545E+02 -0.83443790220E+02  0.13663711331E+03  0.92264075794E+02 0.  0.
         24    2    1    2    0    0 -0.33179337885E+02  0.90663682595E+02  0.36997645849E+02  0.13104669940E+03  0.80521052043E+02 0.  0.
        -13    1    4    4    0    0  0.43482103910E+00  0.90110715260E+02  0.37041572041E+02  0.97427963816E+02  0.00000000000E+00 0.  1.
         14    1    4    4    0    0 -0.33614158925E+02  0.55296733520E+00 -0.43926191161E-01  0.33618735589E+02  0.00000000000E+00 0. -1.
        -13    1    3    3    0    0 -0.41033018800E+02  0.29964047215E+02 -0.14622000744E+02  0.52871123150E+02  0.00000000000E+00 0.  1.
         13    1    3    3    0    0 -0.13192542865E+02 -0.45893999761E+02 -0.68821789475E+02  0.83765990162E+02  0.00000000000E+00 0. -1.
         -2    1    1    2    0  502  0.87404899551E+02 -0.74733730050E+02 -0.46945106651E+03  0.48333120189E+03  0.00000000000E+00 0.  1.
<scales pt_clust_5="13000.00000" pt_clust_6="13000.00000" pt_clust_7="13000.00000" pt_clust_8="13000.00000" pt_clust_9="97.00687"></scales>
<clustering>
<clus scale="   80.521">  5  6 -1 -1</clus>
<clus scale="   92.264">  7  8 -1 -1</clus>
<clus scale="  108.198">  2  7  1 -1</clus>
<clus scale="   97.007">  1  9  2 -1</clus>
<clus scale="   97.007">  1  5  2 -1</clus>
</clustering>
</event>
<event>
 9    2  0.6469128E-005  0.1271800E+03  0.7546771E-02  0.1238548E+00
         21   -1    0    0  501  502  0.00000000000E+00  0.00000000000E+00  0.59161297206E+03  0.59161297206E+03  0.00000000000E+00 0.  1.
          4   -1    0    0  502    0 -0.00000000000E+00 -0.00000000000E+00 -0.58249010673E+02  0.58249010673E+02  0.00000000000E+00 0. -1.
         23    2    1    2    0    0 -0.31579260290E+02  0.86673720772E+02  0.37473986183E+02  0.13429246840E+03  0.90114282309E+02 0.  0.
         24    2    1    2    0    0  0.49344537101E+02 -0.67205802747E+02  0.30159773379E+03  0.31949789485E+03  0.64546173565E+02 0.  0.
        -11    1    4    4    0    0  0.55722271517E+02 -0.48172691628E+02  0.28193723800E+03  0.29140038767E+03  0.00000000000E+00 0.  1.
         12    1    4    4    0    0 -0.63777344155E+01 -0.19033111119E+02  0.19660495787E+02  0.28097507180E+02  0.00000000000E+00 0. -1.
        -13    1    3    3    0    0 -0.26542884922E+02  0.16120354298E+02  0.53414230444E+02  0.61785682618E+02  0.00000000000E+00 0.  1.
         13    1    3    3    0    0 -0.50363753681E+01  0.70553366474E+02 -0.15940244261E+02  0.72506785784E+02  0.00000000000E+00 0. -1.
          3    1    1    2  501    0 -0.17765276812E+02 -0.19467918025E+02  0.19429224141E+03  0.19607161948E+03  0.00000000000E+00 0. -1.
<scales pt_clust_5="13000.00000" pt_clust_6="13000.00000" pt_clust_7="13000.00000" pt_clust_8="13000.00000" pt_clust_9="26.35536"></scales>
<clustering>
<clus scale="   26.355">  1  9  2 -1</clus>
<clus scale="   64.546">  5  6 -1 -1</clus>
<clus scale="   90.114">  7  8 -1 -1</clus>
<clus scale="  110.546">  1  5  2 -1</clus>
<clus scale="   26.355">  1  5  2 -1</clus>
</clustering>
</event>
<event>
 9    2  0.6469128E-005  0.1920797E+03  0.7546771E-02  0.1187078E+00
          2   -1    0    0  502    0 -0.00000000000E+00  0.00000000000E+00  0.51611617236E+03  0.51611617236E+03  0.00000000000E+00 0. -1.
         21   -1    0    0  501  502  0.00000000000E+00 -0.00000000000E+00 -0.10476763697E+03  0.10476763697E+03  0.00000000000E+00 0.  1.
         24    2    1    2    0    0 -0.10024796352E+02 -0.45028209864E+02  0.11248843299E+03  0.14779126971E+03  0.84027231435E+02 0.  0.
         23    2    1    2    0    0  0.84150159321E+02 -0.12728858073E+03  0.13360870604E+03  0.22310120025E+03  0.92947442824E+02 0.  0.
        -11    1    3    3    0    0  0.35660013622E+02 -0.14566313772E+02  0.30589602121E+02  0.49188797773E+02  0.00000000000E+00 0.  1.
         12    1    3    3    0    0 -0.45684809974E+02 -0.30461896093E+02  0.81898830866E+02  0.98602471942E+02  0.00000000000E+00 0. -1.
        -13    1    4    4    0    0  0.72551319199E+02 -0.93990553776E+02  0.43692627971E+02  0.12651863047E+03  0.00000000000E+00 0.  1.
         13    1    4    4    0    0  0.11598840122E+02 -0.33298026950E+02  0.89916078066E+02  0.96582569783E+02  0.00000000000E+00 0. -1.
          1    1    1    2  501    0 -0.74125362970E+02  0.17231679059E+03  0.16525139637E+03  0.24999133936E+03  0.00000000000E+00 0. -1.
<scales pt_clust_5="13000.00000" pt_clust_6="13000.00000" pt_clust_7="13000.00000" pt_clust_8="13000.00000" pt_clust_9="168.09345"></scales>
<clustering>
<clus scale="   84.027">  5  6 -1 -1</clus>
<clus scale="   92.947">  7  8 -1 -1</clus>
<clus scale="   95.857">  1  5  2 -1</clus>
<clus scale="  168.093">  2  9  1 -1</clus>
<clus scale="  168.093">  2  5  1 -1</clus>
</clustering>
</event>
<event>
 9    2  0.6469128E-005  0.9506145E+02  0.7546771E-02  0.1297928E+00
          2   -1    0    0  502    0 -0.00000000000E+00  0.00000000000E+00  0.57836824034E+03  0.57836824034E+03  0.00000000000E+00 0. -1.
         21   -1    0    0  501  502  0.00000000000E+00 -0.00000000000E+00 -0.32437711698E+02  0.32437711698E+02  0.00000000000E+00 0. -1.
         24    2    1    2    0    0 -0.46230028843E+02 -0.26107715557E+02  0.19535480842E+03  0.21718786310E+03  0.78665356575E+02 0.  0.
         23    2    1    2    0    0 -0.17830634918E+02  0.76667262129E+01  0.10962609529E+03  0.14361696798E+03  0.90726195168E+02 0.  0.
        -11    1    3    3    0    0 -0.24847590873E+02  0.25412610068E+02  0.10650875803E+03  0.11228231855E+03  0.00000000000E+00 0.  1.
         12    1    3    3    0    0 -0.21382437971E+02 -0.51520325625E+02  0.88846050396E+02  0.10490554455E+03  0.00000000000E+00 0. -1.
        -11    1    4    4    0    0 -0.42498814582E+02  0.21988160348E+01  0.14138279657E+02  0.44842780740E+02  0.00000000000E+00 0. -1.
         11    1    4    4    0    0  0.24668179664E+02  0.54679101781E+01  0.95487815636E+02  0.98774187238E+02  0.00000000000E+00 0.  1.
          1    1    1    2  501    0  0.64060663761E+02  0.18440989344E+02  0.24094962493E+03  0.25000112096E+03  0.00000000000E+00 0. -1.
<scales pt_clust_5="13000.00000" pt_clust_6="13000.00000" pt_clust_7="13000.00000" pt_clust_8="13000.00000" pt_clust_9="66.66216"></scales>
<clustering>
<clus scale="   66.662">  2  9  1 -1</clus>
<clus scale="   78.665">  5  6 -1 -1</clus>
<clus scale="   83.628">  1  5  2 -1</clus>
<clus scale="   90.726">  7  8 -1 -1</clus>
<clus scale="   66.662">  2  5  1 -1</clus>
</clustering>
</event>
<event>
 9    2  0.6469128E-005  0.9605171E+02  0.7546771E-02  0.1294719E+00
         21   -1    0    0  501  502  0.00000000000E+00  0.00000000000E+00  0.74946536913E+02  0.74946536913E+02  0.00000000000E+00 0. -1.
          2   -1    0    0  502    0 -0.00000000000E+00 -0.00000000000E+00 -0.35228365917E+03  0.35228365917E+03  0.00000000000E+00 0. -1.
         24    2    1    2    0    0 -0.20761400157E+02  0.15142829819E+02 -0.64161582294E+02  0.10668376616E+03  0.81267313771E+02 0.  0.
         23    2    1    2    0    0 -0.41368915569E+01 -0.48343689942E+02 -0.47608891501E+00  0.10383630437E+03  0.91801553447E+02 0.  0.
        -13    1    3    3    0    0  0.25052051938E+02  0.15923050546E+02 -0.51001869436E+02  0.59011350865E+02  0.00000000000E+00 0.  1.
         14    1    3    3    0    0 -0.45813452095E+02 -0.78022072646E+00 -0.13159712859E+02  0.47672415292E+02  0.00000000000E+00 0. -1.
        -13    1    4    4    0    0  0.37522942256E+02 -0.23664059384E+02  0.23060755387E+02  0.49997573352E+02  0.00000000000E+00 0. -1.
         13    1    4    4    0    0 -0.41659833813E+02 -0.24679630558E+02 -0.23536844302E+02  0.53838731017E+02  0.00000000000E+00 0.  1.
          1    1    1    2  501    0  0.24898291714E+02  0.33200860123E+02 -0.21269945105E+03  0.21671012556E+03  0.00000000000E+00 0. -1.
<scales pt_clust_5="13000.00000" pt_clust_6="13000.00000" pt_clust_7="13000.00000" pt_clust_8="13000.00000" pt_clust_9="41.49968"></scales>
<clustering>
<clus scale="   41.500">  1  9  2 -1</clus>
<clus scale="   81.267">  5  6 -1 -1</clus>
<clus scale="   86.039">  2  5  1 -1</clus>
<clus scale="   91.802">  7  8 -1 -1</clus>
<clus scale="   41.500">  1  5  2 -1</clus>
</clustering>
</event>
<event>
 9    2  0.6469128E-005  0.1138964E+03  0.7546771E-02  0.1257358E+00
          4   -1    0    0  502    0 -0.00000000000E+00  0.00000000000E+00  0.41951626345E+03  0.41951626345E+03  0.00000000000E+00 0. -1.
         21   -1    0    0  501  502  0.00000000000E+00 -0.00000000000E+00 -0.86458069544E+02  0.86458069544E+02  0.00000000000E+00 0. -1.
         24    2    1    2    0    0  0.58109545121E+02  0.53781617442E+02  0.30960860541E+03  0.32940796203E+03  0.79893274388E+02 0.  0.
         23    2    1    2    0    0 -0.44762147274E+02  0.17392664668E+02  0.15288180107E+02  0.10369291867E+03  0.90621952741E+02 0.  0.
        -11    1    3    3    0    0 -0.10247895606E+02  0.25504356027E+02  0.32349005894E+02  0.42449378359E+02  0.00000000000E+00 0.  1.
         12    1    3    3    0    0  0.68357440727E+02  0.28277261415E+02  0.27725959952E+03  0.28695858367E+03  0.00000000000E+00 0. -1.
        -13    1    4    4    0    0 -0.11057277445E+02 -0.29396911117E+02 -0.18898934436E+02  0.36655306444E+02  0.00000000000E+00 0.  1.
         13    1    4    4    0    0 -0.33704869829E+02  0.46789575785E+02  0.34187114542E+02  0.67037612226E+02  0.00000000000E+00 0. -1.
          3    1    1    2  501    0 -0.13347397848E+02 -0.71174282110E+02  0.81614083901E+01  0.72873452299E+02  0.00000000000E+00 0. -1.
<scales pt_clust_5="13000.00000" pt_clust_6="13000.00000" pt_clust_7="13000.00000" pt_clust_8="13000.00000" pt_clust_9="72.41499"></scales>
<clustering>
<clus scale="   72.415">  2  9  1 -1</clus>
<clus scale="   79.893">  5  6 -1 -1</clus>
<clus scale="   90.622">  7  8 -1 -1</clus>
<clus scale="  105.560">  1  5  2 -1</clus>
<clus scale="   72.415">  2  5  1 -1</clus>
</clustering>
</event>
<event>
 9    2  0.6469128E-005  0.1069478E+03  0.7546771E-02  0.1269927E+00
          2   -1    0    0  502    0 -0.00000000000E+00  0.00000000000E+00  0.61866189286E+03  0.61866189286E+03  0.00000000000E+00 0. -1.
         21   -1    0    0  501  502  0.00000000000E+00 -0.00000000000E+00 -0.13710183340E+03  0.13710183340E+03  0.00000000000E+00 0. -1.
         24    2    1    2    0    0 -0.56377405020E+02 -0.23228108696E+02  0.34257162353E+03  0.35678528564E+03  0.78882608790E+02 0.  0.
         23    2    1    2    0    0  0.63450912679E+02  0.23380638629E+01  0.25700498066E+03  0.27891873333E+03  0.87821494287E+02 0.  0.
        -11    1    3    3    0    0  0.96626077284E+01  0.18047931352E+02  0.50063206675E+02  0.54087137813E+02  0.00000000000E+00 0.  1.
         12    1    3    3    0    0 -0.66040012749E+02 -0.41276040048E+02  0.29250841686E+03  0.30269814783E+03  0.00000000000E+00 0. -1.
        -11    1    4    4    0    0  0.44889588235E+01  0.23292086266E+02  0.13064674496E+02  0.27080578901E+02  0.00000000000E+00 0.  1.
         11    1    4    4    0    0  0.58961953856E+02 -0.20954022403E+02  0.24394030616E+03  0.25183815443E+03  0.00000000000E+00 0. -1.
          1    1    1    2  501    0 -0.70735076591E+01  0.20890044833E+02 -0.11801654473E+03  0.12005970729E+03  0.00000000000E+00 0. -1.
<scales pt_clust_5="13000.00000" pt_clust_6="13000.00000" pt_clust_7="13000.00000" pt_clust_8="13000.00000" pt_clust_9="22.05512"></scales>
<clustering>
<clus scale="   22.055">  2  9  1 -1</clus>
<clus scale="   78.883">  5  6 -1 -1</clus>
<clus scale="   87.821">  7  8 -1 -1</clus>
<clus scale="   99.738">  1  5  2 -1</clus>
<clus scale="   22.055">  2  5  1 -1</clus>
</clustering>
</event>
<event>
 9    2  0.6469128E-005  0.9777227E+02  0.7546771E-02  0.1286288E+00
          4   -1    0    0  502    0 -0.00000000000E+00  0.00000000000E+00  0.22461216159E+03  0.22461216159E+03  0.00000000000E+00 0. -1.
         21   -1    0    0  501  502  0.00000000000E+00 -0.00000000000E+00 -0.87148652879E+02  0.87148652879E+02  0.00000000000E+00 0.  1.
         24    2    1    2    0    0  0.28215706496E+02 -0.21326168352E+02  0.10118219859E+03  0.13577382274E+03  0.83341238773E+02 0.  0.
         23    2    1    2    0    0 -0.80969854131E+02  0.15140990624E+02  0.27354913401E+02  0.12212664384E+03  0.85914253615E+02 0.  0.
        -13    1    3    3    0    0 -0.22953213126E+02 -0.27719758791E+02  0.59187756467E+02  0.69270668655E+02  0.00000000000E+00 0.  1.
         14    1    3    3    0    0  0.51168919622E+02  0.63935904391E+01  0.41994442118E+02  0.66503154082E+02  0.00000000000E+00 0. -1.
        -11    1    4    4    0    0 -0.55045115437E+02  0.78961061765E+01 -0.26740608540E+02  0.61703916985E+02  0.00000000000E+00 0.  1.
         11    1    4    4    0    0 -0.25924738694E+02  0.72448844471E+01  0.54095521940E+02  0.60422726859E+02  0.00000000000E+00 0. -1.
          3    1    1    2  501    0  0.52754147635E+02  0.61851777286E+01  0.89263967248E+01  0.53860347889E+02  0.00000000000E+00 0. -1.
<scales pt_clust_5="13000.00000" pt_clust_6="13000.00000" pt_clust_7="13000.00000" pt_clust_8="13000.00000" pt_clust_9="53.11550"></scales>
<clustering>
<clus scale="   53.116">  2  9  1 -1</clus>
<clus scale="   83.341">  5  6 -1 -1</clus>
<clus scale="   85.914">  7  8 -1 -1</clus>
<clus scale="   95.519">  1  5  2 -1</clus>
<clus scale="   53.116">  2  5  1 -1</clus>
</clustering>
</event>
<event>
 9    2  0.6469128E-005  0.1220527E+03  0.7546771E-02  0.1239952E+00
         21   -1    0    0  501  502  0.00000000000E+00  0.00000000000E+00  0.34498377309E+02  0.34498377309E+02  0.00000000000E+00 0. -1.
          2   -1    0    0  502    0 -0.00000000000E+00 -0.00000000000E+00 -0.10062479043E+04  0.10062479043E+04  0.00000000000E+00 0. -1.
         24    2    1    2    0    0  0.10041282874E+01  0.79526615766E+02 -0.73146238324E+03  0.74150572553E+03  0.92021910532E+02 0.  0.
         23    2    1    2    0    0 -0.31438247526E+02 -0.80392289813E+02 -0.23744977627E+03  0.26866220332E+03  0.91354800488E+02 0.  0.
        -13    1    3    3    0    0 -0.19442924147E+02  0.28261365534E+02 -0.72175755622E+02  0.79912901216E+02  0.00000000000E+00 0.  1.
         14    1    3    3    0    0  0.20447052434E+02  0.51265250232E+02 -0.65928662762E+03  0.66159282432E+03  0.00000000000E+00 0. -1.
        -11    1    4    4    0    0 -0.30448353625E+02 -0.16849576154E+02 -0.17889594990E+03  0.18224920122E+03  0.00000000000E+00 0. -1.
         11    1    4    4    0    0 -0.98989390073E+00 -0.63542713659E+02 -0.58553826374E+02  0.86413002101E+02  0.00000000000E+00 0.  1.
          1    1    1    2  501    0  0.30434119238E+02  0.86567404663E+00 -0.28373675240E+01  0.30578352798E+02  0.00000000000E+00 0. -1.
<scales pt_clust_5="13000.00000" pt_clust_6="13000.00000" pt_clust_7="13000.00000" pt_clust_8="13000.00000" pt_clust_9="30.44643"></scales>
<clustering>
<clus scale="   30.446">  1  9  2 -1</clus>
<clus scale="   91.355">  7  8 -1 -1</clus>
<clus scale="   92.022">  5  6 -1 -1</clus>
<clus scale="  121.551">  1  7  2 -1</clus>
<clus scale="   30.446">  1  5  2 -1</clus>
</clustering>
</event>
<event>
 9    2  0.6469128E-005  0.9313512E+02  0.7546771E-02  0.1302917E+00
          2   -1    0    0  502    0 -0.00000000000E+00  0.00000000000E+00  0.41672079156E+03  0.41672079156E+03  0.00000000000E+00 0. -1.
         21   -1    0    0  501  502  0.00000000000E+00 -0.00000000000E+00 -0.24435061342E+03  0.24435061342E+03  0.00000000000E+00 0. -1.
         24    2    1    2    0    0 -0.12080370403E+02 -0.13327085983E+02  0.38738220589E+03  0.39583234733E+03  0.79339316717E+02 0.  0.
         23    2    1    2    0    0 -0.19425869657E+01 -0.61211107941E+01 -0.63009725201E+02  0.11135736390E+03  0.91591459113E+02 0.  0.
        -11    1    3    3    0    0  0.50754105363E+01 -0.24642049758E+02  0.36398546917E+02  0.44247538079E+02  0.00000000000E+00 0.  1.
         12    1    3    3    0    0 -0.17155780940E+02  0.11314963775E+02  0.35098365898E+03  0.35158480925E+03  0.00000000000E+00 0. -1.
        -13    1    4    4    0    0 -0.25854475679E+02  0.21469760529E+01  0.14570954801E+02  0.29755270838E+02  0.00000000000E+00 0. -1.
         13    1    4    4    0    0  0.23911888713E+02 -0.82680868469E+01 -0.77580680002E+02  0.81602093058E+02  0.00000000000E+00 0.  1.
          1    1    1    2  501    0  0.14022957369E+02  0.19448196777E+02 -0.15200230256E+03  0.15388169376E+03  0.00000000000E+00 0. -1.
<scales pt_clust_5="13000.00000" pt_clust_6="13000.00000" pt_clust_7="13000.00000" pt_clust_8="13000.00000" pt_clust_9="23.97657"></scales>
<clustering>
<clus scale="   23.977">  2  9  1 -1</clus>
<clus scale="   79.339">  5  6 -1 -1</clus>
<clus scale="   81.116">  1  5  2 -1</clus>
<clus scale="   91.591">  7  8 -1 -1</clus>
<clus scale="   23.977">  2  5  1 -1</clus>
</clustering>
</event>
<event>
 9    2  0.6469128E-005  0.9539907E+02  0.7546771E-02  0.1296137E+00
         21   -1    0    0  501  502  0.00000000000E+00  0.00000000000E+00  0.35307894110E+03  0.35307894110E+03  0.00000000000E+00 0. -1.
          4   -1    0    0  502    0 -0.00000000000E+00 -0.00000000000E+00 -0.64864167364E+02  0.64864167364E+02  0.00000000000E+00 0. -1.
         24    2    1    2    0    0 -0.58905287144E+01 -0.51499633627E+02  0.30946912867E+02  0.10049953025E+03  0.80346335147E+02 0.  0.
         23    2    1    2    0    0  0.32493186702E+02 -0.27142665241E+02  0.11307999311E+03  0.15106312927E+03  0.90776939388E+02 0.  0.
        -11    1    3    3    0    0  0.24490706010E+02 -0.56495085692E+02  0.32587635940E+02  0.69666659202E+02  0.00000000000E+00 0.  1.
         12    1    3    3    0    0 -0.30381234724E+02  0.49954520649E+01 -0.16407230728E+01  0.30832871045E+02  0.00000000000E+00 0. -1.
        -13    1    4    4    0    0  0.68804748908E+01  0.33252060253E+02  0.30908102446E+02  0.45916786066E+02  0.00000000000E+00 0.  1.
         13    1    4    4    0    0  0.25612711812E+02 -0.60394725494E+02  0.82171890669E+02  0.10514634321E+03  0.00000000000E+00 0. -1.
          3    1    1    2  501    0 -0.26602657988E+02  0.78642298868E+02  0.14418786776E+03  0.16638044895E+03  0.00000000000E+00 0. -1.
<scales pt_clust_5="13000.00000" pt_clust_6="13000.00000" pt_clust_7="13000.00000" pt_clust_8="13000.00000" pt_clust_9="83.01995"></scales>
<clustering>
<clus scale="   80.346">  5  6 -1 -1</clus>
<clus scale="   83.020">  1  9  2 -1</clus>
<clus scale="   85.534">  2  5  1 -1</clus>
<clus scale="   90.777">  7  8 -1 -1</clus>
<clus scale="   83.020">  1  5  2 -1</clus>
</clustering>
</event>
<event>
 9    2  0.6469128E-005  0.9382749E+02  0.7546771E-02  0.1303082E+00
          2   -1    0    0  502    0 -0.00000000000E+00  0.00000000000E+00  0.33742924235E+03  0.33742924235E+03  0.00000000000E+00 0. -1.
         21   -1    0    0  501  502  0.00000000000E+00 -0.00000000000E+00 -0.16497613401E+03  0.16497613401E+03  0.00000000000E+00 0.  1.
         24    2    1    2    0    0  0.91167603319E+01  0.49145077382E+00  0.30134545505E+03  0.31157248011E+03  0.78644581754E+02 0.  0.
         23    2    1    2    0    0  0.12501692819E+02  0.38019784943E+01 -0.13784210877E+03  0.16704446855E+03  0.93448703354E+02 0.  0.
        -11    1    3    3    0    0 -0.23487290125E+02 -0.25757783131E+02  0.99409713677E+02  0.10534423270E+03  0.00000000000E+00 0.  1.
         12    1    3    3    0    0  0.32604050457E+02  0.26249233904E+02  0.20193574137E+03  0.20622824741E+03  0.00000000000E+00 0. -1.
        -13    1    4    4    0    0  0.39686092890E+02  0.24263456551E+01 -0.13373108801E+03  0.13951658333E+03  0.00000000000E+00 0.  1.
         13    1    4    4    0    0 -0.27184400071E+02  0.13756328391E+01 -0.41110207528E+01  0.27527885218E+02  0.00000000000E+00 0. -1.
          1    1    1    2  501    0 -0.21618453151E+02 -0.42934292681E+01  0.89497620587E+01  0.23788427700E+02  0.00000000000E+00 0. -1.
<scales pt_clust_5="13000.00000" pt_clust_6="13000.00000" pt_clust_7="13000.00000" pt_clust_8="13000.00000" pt_clust_9="22.04068"></scales>
<clustering>
<clus scale="   22.041">  2  9  1 -1</clus>
<clus scale="   78.645">  5  6 -1 -1</clus>
<clus scale="   79.094">  1  5  2 -1</clus>
<clus scale="   93.449">  7  8 -1 -1</clus>
<clus scale="   22.041">  2  5  1 -1</clus>
</clustering>
</event>
<event>
 9    2  0.6469128E-005  0.1607313E+03  0.7546771E-02  0.1188846E+00
          2   -1    0    0  502    0 -0.00000000000E+00  0.00000000000E+00  0.59205608237E+03  0.59205608237E+03  0.00000000000E+00 0. -1.
         21   -1    0    0  501  502  0.00000000000E+00 -0.00000000000E+00 -0.12403264459E+03  0.12403264459E+03  0.00000000000E+00 0.  1.
         24    2    1    2    0    0 -0.11333406219E+03  0.72722809390E+02  0.49425354871E+03  0.51957316563E+03  0.86812944762E+02 0.  0.
         23    2    1    2    0    0  0.11085894687E+03 -0.24981759260E+02 -0.23478902036E+02  0.14863129237E+03  0.92877380636E+02 0.  0.
        -11    1    3    3    0    0  0.99944862960E+01  0.23065861937E+02  0.51815909008E+02  0.57591771718E+02  0.00000000000E+00 0.  1.
         12    1    3    3    0    0 -0.12332854848E+03  0.49656947453E+02  0.44243763970E+03  0.46198139391E+03  0.00000000000E+00 0. -1.
        -13    1    4    4    0    0  0.86945375177E+02 -0.22456840155E+02 -0.57750025454E+02  0.10676550648E+03  0.00000000000E+00 0.  1.
         13    1    4    4    0    0  0.23913571690E+02 -0.25249191053E+01  0.34271123418E+02  0.41865785886E+02  0.00000000000E+00 0. -1.
          1    1    1    2  501    0  0.24751153195E+01 -0.47741050130E+02 -0.27512088855E+01  0.47884268958E+02  0.00000000000E+00 0. -1.
<scales pt_clust_5="13000.00000" pt_clust_6="13000.00000" pt_clust_7="13000.00000" pt_clust_8="13000.00000" pt_clust_9="47.80517"></scales>
<clustering>
<clus scale="   47.805">  2  9  1 -1</clus>
<clus scale="   86.813">  5  6 -1 -1</clus>
<clus scale="   92.877">  7  8 -1 -1</clus>
<clus scale="  157.305">  1  5  2 -1</clus>
<clus scale="   47.805">  2  5  1 -1</clus>
</clustering>
</event>
<event>
 9    2  0.6469128E-005  0.9127527E+02  0.7546771E-02  0.1302503E+00
         21   -1    0    0  501  502  0.00000000000E+00  0.00000000000E+00  0.23567190685E+03  0.23567190685E+03  0.00000000000E+00 0.  1.
          2   -1    0    0  502    0 -0.00000000000E+00 -0.00000000000E+00 -0.71596396254E+02  0.71596396254E+02  0.00000000000E+00 0. -1.
         23    2    1    2    0    0 -0.88738430332E+01  0.32958272502E+02  0.49783594551E+02  0.10752276953E+03  0.88981722075E+02 0.  0.
         24    2    1    2    0    0 -0.26195559733E+02  0.24425807741E+01  0.12057142860E+03  0.14952088125E+03  0.84420678654E+02 0.  0.
        -13    1    4    4    0    0 -0.39322330318E+02  0.10924575525E+02  0.12641185449E+03  0.13283654982E+03  0.00000000000E+00 0.  1.
         14    1    4    4    0    0  0.13126770585E+02 -0.84819947511E+01 -0.58404258848E+01  0.16684331436E+02  0.00000000000E+00 0. -1.
        -13    1    3    3    0    0 -0.24734614114E+02  0.48168028742E+02  0.11554685442E+01  0.54159904318E+02  0.00000000000E+00 0.  1.
         13    1    3    3    0    0  0.15860771081E+02 -0.15209756239E+02  0.48628126007E+02  0.53362865207E+02  0.00000000000E+00 0. -1.
          1    1    1    2  501    0  0.35069402766E+02 -0.35400853276E+02 -0.62795125614E+01  0.50224652324E+02  0.00000000000E+00 0. -1.
<scales pt_clust_5="13000.00000" pt_clust_6="13000.00000" pt_clust_7="13000.00000" pt_clust_8="13000.00000" pt_clust_9="49.83057"></scales>
<clustering>
<clus scale="   49.831">  1  9  2 -1</clus>
<clus scale="   84.421">  5  6 -1 -1</clus>
<clus scale="   86.835">  1  5  2 -1</clus>
<clus scale="   88.982">  7  8 -1 -1</clus>
<clus scale="   49.831">  1  5  2 -1</clus>
</clustering>
</event>
<event>
 9    2  0.6469128E-005  0.1445832E+03  0.7546771E-02  0.1208652E+00
          2   -1    0    0  502    0 -0.00000000000E+00  0.00000000000E+00  0.39526515217E+03  0.39526515217E+03  0.00000000000E+00 0. -1.
         21   -1    0    0  501  502  0.00000000000E+00 -0.00000000000E+00 -0.11920484597E+03  0.11920484597E+03  0.00000000000E+00 0. -1.
         24    2    1    2    0    0 -0.26154927858E+02  0.13336680594E+03  0.20915858333E+03  0.26342740941E+03  0.84710695143E+02 0.  0.
         23    2    1    2    0    0  0.85776637241E+02 -0.41215240595E+02  0.30986964821E+02  0.13555869777E+03  0.91431072391E+02 0.  0.
        -13    1    3    3    0    0  0.76166206867E+01  0.18632046199E+02 -0.25311668874E+01  0.20287258614E+02  0.00000000000E+00 0.  1.
         14    1    3    3    0    0 -0.33771548545E+02  0.11473475974E+03  0.21168975021E+03  0.24314015080E+03  0.00000000000E+00 0. -1.
        -13    1    4    4    0    0 -0.13954294012E+02 -0.25777200819E+02  0.16409572407E+02  0.33592565696E+02  0.00000000000E+00 0.  1.
         13    1    4    4    0    0  0.99730931253E+02 -0.15438039776E+02  0.14577392414E+02  0.10196613207E+03  0.00000000000E+00 0. -1.
          1    1    1    2  501    0 -0.59621709383E+02 -0.92151565347E+02  0.35914758056E+02  0.11548389096E+03  0.00000000000E+00 0. -1.
<scales pt_clust_5="13000.00000" pt_clust_6="13000.00000" pt_clust_7="13000.00000" pt_clust_8="13000.00000" pt_clust_9="109.75727"></scales>
<clustering>
<clus scale="   84.711">  5  6 -1 -1</clus>
<clus scale="   91.431">  7  8 -1 -1</clus>
<clus scale="  109.757">  2  9  1 -1</clus>
<clus scale="  140.430">  1  5  2 -1</clus>
<clus scale="  109.757">  2  5  1 -1</clus>
</clustering>
</event>
<event>
 9    2  0.6469128E-005  0.9447524E+02  0.7546771E-02  0.1299844E+00
         21   -1    0    0  501  502  0.00000000000E+00  0.00000000000E+00  0.21359630384E+03  0.21359630384E+03  0.00000000000E+00 0.  1.
          2   -1    0    0  502    0 -0.00000000000E+00 -0.00000000000E+00 -0.88668720913E+02  0.88668720913E+02  0.00000000000E+00 0. -1.
         23    2    1    2    0    0 -0.13643616308E+02 -0.24730187076E+02 -0.30778257080E+02  0.10159187718E+03  0.92606036416E+02 0.  0.
         24    2    1    2    0    0  0.12637728223E+01 -0.42671371706E+01  0.60730963005E+02  0.10060151024E+03  0.80078763809E+02 0.  0.
        -11    1    4    4    0    0 -0.16928851040E+02  0.12427515265E+02  0.70864813633E+02  0.73911101632E+02  0.00000000000E+00 0.  1.
         12    1    4    4    0    0  0.18192623863E+02 -0.16694652435E+02 -0.10133850628E+02  0.26690408605E+02  0.00000000000E+00 0. -1.
        -11    1    3    3    0    0  0.19591753562E+02 -0.50863483508E+02 -0.16039475424E+02  0.56817211601E+02  0.00000000000E+00 0.  1.
         11    1    3    3    0    0 -0.33235369870E+02  0.26133296432E+02 -0.14738781655E+02  0.44774665576E+02  0.00000000000E+00 0. -1.
          1    1    1    2  501    0  0.12379843485E+02  0.28997324246E+02  0.94974877003E+02  0.10007163734E+03  0.00000000000E+00 0. -1.
<scales pt_clust_5="13000.00000" pt_clust_6="13000.00000" pt_clust_7="13000.00000" pt_clust_8="13000.00000" pt_clust_9="31.52944"></scales>
<clustering>
<clus scale="   31.529">  1  9  2 -1</clus>
<clus scale="   80.079">  5  6 -1 -1</clus>
<clus scale="   82.233">  1  5  2 -1</clus>
<clus scale="   92.606">  7  8 -1 -1</clus>
<clus scale="   31.529">  1  5  2 -1</clus>
</clustering>
</event>
<event>
 9    2  0.6469128E-005  0.1054622E+03  0.7546771E-02  0.1275179E+00
         21   -1    0    0  501  502  0.00000000000E+00  0.00000000000E+00  0.13382536558E+03  0.13382536558E+03  0.00000000000E+00 0.  1.
          2   -1    0    0  502    0 -0.00000000000E+00 -0.00000000000E+00 -0.18532644279E+03  0.18532644279E+03  0.00000000000E+00 0. -1.
         23    2    1    2    0    0  0.40920646405E+02  0.66111491451E+02 -0.51249227795E+02  0.13129956516E+03  0.92562756324E+02 0.  0.
         24    2    1    2    0    0 -0.49696709312E+02  0.23166875491E+02 -0.12963183191E+02  0.97247474628E+02  0.79262602573E+02 0.  0.
        -13    1    4    4    0    0  0.48524154816E+01  0.35896844903E+02  0.85921032421E+01  0.37228398409E+02  0.00000000000E+00 0.  1.
         14    1    4    4    0    0 -0.54549124793E+02 -0.12729969412E+02 -0.21555286433E+02  0.60019076219E+02  0.00000000000E+00 0. -1.
        -11    1    3    3    0    0 -0.10686231794E+02  0.68357436474E+02 -0.31035848812E+02  0.75829800097E+02  0.00000000000E+00 0.  1.
         11    1    3    3    0    0  0.51606878199E+02 -0.22459450238E+01 -0.20213378983E+02  0.55469765066E+02  0.00000000000E+00 0. -1.
          1    1    1    2  501    0  0.87760629063E+01 -0.89278366941E+02  0.12711333773E+02  0.90604768584E+02  0.00000000000E+00 0. -1.
<scales pt_clust_5="13000.00000" pt_clust_6="13000.00000" pt_clust_7="13000.00000" pt_clust_8="13000.00000" pt_clust_9="89.70867"></scales>
<clustering>
<clus scale="   79.263">  5  6 -1 -1</clus>
<clus scale="   89.709">  1  9  2 -1</clus>
<clus scale="   92.563">  7  8 -1 -1</clus>
<clus scale="   94.005">  1  5  2 -1</clus>
<clus scale="   89.709">  1  5  2 -1</clus>
</clustering>
</event>
<event>
 9    2  0.6469128E-005  0.2332136E+03  0.7546771E-02  0.1151942E+00
         21   -1    0    0  501  502  0.00000000000E+00  0.00000000000E+00  0.51959828492E+03  0.51959828492E+03  0.00000000000E+00 0. -1.
          2   -1    0    0  502    0 -0.00000000000E+00 -0.00000000000E+00 -0.25022618909E+03  0.25022618909E+03  0.00000000000E+00 0. -1.
         24    2    1    2    0    0 -0.24794973127E+02 -0.84799250141E+02  0.91786994372E+02  0.15086852719E+03  0.80813096987E+02 0.  0.
         23    2    1    2    0    0  0.69622934021E+02 -0.12955299228E+03 -0.14249314755E+03  0.23113315816E+03  0.10717699824E+03 0.  0.
        -11    1    3    3    0    0 -0.30437387924E+02 -0.34808905560E+02  0.46327287748E-01  0.46239557050E+02  0.00000000000E+00 0.  1.
         12    1    3    3    0    0  0.56424147972E+01 -0.49990344581E+02  0.91740667084E+02  0.10462897014E+03  0.00000000000E+00 0. -1.
        -13    1    4    4    0    0 -0.18183931167E+02 -0.38505220921E+02 -0.78665380661E+02  0.89451380679E+02  0.00000000000E+00 0.  1.
         13    1    4    4    0    0  0.87806865188E+02 -0.91047771357E+02 -0.63827766893E+02  0.14168177748E+03  0.00000000000E+00 0. -1.
          1    1    1    2  501    0 -0.44827960894E+02  0.21435224242E+03  0.32007824901E+03  0.38782278865E+03  0.00000000000E+00 0. -1.
<scales pt_clust_5="13000.00000" pt_clust_6="13000.00000" pt_clust_7="13000.00000" pt_clust_8="13000.00000" pt_clust_9="207.12724"></scales>
<clustering>
<clus scale="   80.813">  5  6 -1 -1</clus>
<clus scale="  107.177">  7  8 -1 -1</clus>
<clus scale="  119.735">  2  5  1 -1</clus>
<clus scale="  207.127">  1  9  2 -1</clus>
<clus scale="  207.127">  1  5  2 -1</clus>
</clustering>
</event>
<event>
 9    2  0.6469128E-005  0.1245573E+03  0.7546771E-02  0.1241412E+00
         21   -1    0    0  501  502  0.00000000000E+00  0.00000000000E+00  0.13676284394E+03  0.13676284394E+03  0.00000000000E+00 0. -1.
          2   -1    0    0  502    0 -0.00000000000E+00 -0.00000000000E+00 -0.13490113602E+03  0.13490113602E+03  0.00000000000E+00 0. -1.
         24    2    1    2    0    0 -0.72101704443E+02  0.28990638369E+02 -0.27837639237E+01  0.10899793413E+03  0.76378579498E+02 0.  0.
         23    2    1    2    0    0  0.62878702021E+02 -0.60590139813E+02 -0.22204095583E+01  0.12903967831E+03  0.94981114693E+02 0.  0.
        -11    1    3    3    0    0 -0.10786050472E+02 -0.23252094781E+02  0.98500012494E+01  0.27459448668E+02  0.00000000000E+00 0.  1.
         12    1    3    3    0    0 -0.61315653970E+02  0.52242733150E+02 -0.12633765173E+02  0.81538485461E+02  0.00000000000E+00 0. -1.
        -11    1    4    4    0    0  0.10896850431E+01 -0.57942177357E+02 -0.25023306053E+02  0.63124077627E+02  0.00000000000E+00 0.  1.
         11    1    4    4    0    0  0.61789016978E+02 -0.26479624554E+01  0.22802896495E+02  0.65915600679E+02  0.00000000000E+00 0. -1.
          1    1    1    2  501    0  0.92230024217E+01  0.31599501444E+02  0.68658814068E+01  0.33626367521E+02  0.00000000000E+00 0. -1.
<scales pt_clust_5="13000.00000" pt_clust_6="13000.00000" pt_clust_7="13000.00000" pt_clust_8="13000.00000" pt_clust_9="32.91796"></scales>
<clustering>
<clus scale="   32.918">  1  9  2 -1</clus>
<clus scale="   76.379">  5  6 -1 -1</clus>
<clus scale="   94.981">  7  8 -1 -1</clus>
<clus scale="  111.026">  2  5  1 -1</clus>
<clus scale="   32.918">  1  5  2 -1</clus>
</clustering>
</event>
<event>
 9    2  0.6469128E-005  0.1223437E+03  0.7546771E-02  0.1241705E+00
         21   -1    0    0  501  502  0.00000000000E+00  0.00000000000E+00  0.17904729245E+03  0.17904729245E+03  0.00000000000E+00 0.  1.
         -1   -1    0    0    0  501 -0.00000000000E+00 -0.00000000000E+00 -0.59280182980E+03  0.59280182980E+03  0.00000000000E+00 0.  1.
         24    2    1    2    0    0 -0.47884509337E+02  0.46205683618E+02 -0.28072558237E+03  0.29987875722E+03  0.81807854183E+02 0.  0.
         23    2    1    2    0    0  0.10644834641E+03 -0.50343490302E+02 -0.27829305475E+03  0.31529074561E+03  0.89975065857E+02 0.  0.
        -13    1    3    3    0    0 -0.34190635948E+02 -0.11688374905E+02 -0.50530539987E+02  0.62120473001E+02  0.00000000000E+00 0.  1.
         14    1    3    3    0    0 -0.13693873389E+02  0.57894058522E+02 -0.23019504238E+03  0.23775828422E+03  0.00000000000E+00 0. -1.
        -11    1    4    4    0    0  0.58208280945E+02 -0.73275929806E+02 -0.15730323535E+03  0.18303517069E+03  0.00000000000E+00 0.  1.
         11    1    4    4    0    0  0.48240065461E+02  0.22932439505E+02 -0.12098981941E+03  0.13225557492E+03  0.00000000000E+00 0. -1.
         -2    1    1    2    0  502 -0.58563837069E+02  0.41378066840E+01  0.14526409977E+03  0.15667961941E+03  0.00000000000E+00 0.  1.
<scales pt_clust_5="13000.00000" pt_clust_6="13000.00000" pt_clust_7="13000.00000" pt_clust_8="13000.00000" pt_clust_9="58.70983"></scales>
<clustering>
<clus scale="   58.710">  1  9  2 -1</clus>
<clus scale="   81.808">  5  6 -1 -1</clus>
<clus scale="   89.975">  7  8 -1 -1</clus>
<clus scale="  116.469">  2  5  1 -1</clus>
<clus scale="   58.710">  1  5  2 -1</clus>
</clustering>
</event>
<event>
 9    2  0.6469128E-005  0.1358898E+03  0.7546771E-02  0.1231421E+00
         -1   -1    0    0    0  501 -0.00000000000E+00  0.00000000000E+00  0.55368492650E+02  0.55368492650E+02  0.00000000000E+00 0.  1.
         21   -1    0    0  501  502  0.00000000000E+00 -0.00000000000E+00 -0.58344124645E+03  0.58344124645E+03  0.00000000000E+00 0. -1.
         23    2    1    2    0    0  0.17051761936E+02  0.36829044002E+02 -0.20895343275E+03  0.23378959228E+03  0.96689685766E+02 0.  0.
         24    2    1    2    0    0 -0.64696292210E+02  0.74951484642E+02 -0.14582186472E+03  0.19336737405E+03  0.79521002520E+02 0.  0.
        -13    1    4    4    0    0 -0.62732755837E+02  0.45190216506E+02 -0.47775577026E+02  0.90884872684E+02  0.00000000000E+00 0.  1.
         14    1    4    4    0    0 -0.19635363732E+01  0.29761268136E+02 -0.98046287691E+02  0.10248250137E+03  0.00000000000E+00 0. -1.
        -11    1    3    3    0    0  0.48123864163E+02  0.27813448446E+02 -0.61788620377E+02  0.83110335245E+02  0.00000000000E+00 0.  1.
         11    1    3    3    0    0 -0.31072102227E+02  0.90155955568E+01 -0.14716481238E+03  0.15067925704E+03  0.00000000000E+00 0. -1.
         -2    1    1    2    0  502  0.47644530274E+02 -0.11178052864E+03 -0.17329745633E+03  0.21165277276E+03  0.00000000000E+00 0.  1.
<scales pt_clust_5="13000.00000" pt_clust_6="13000.00000" pt_clust_7="13000.00000" pt_clust_8="13000.00000" pt_clust_9="110.19278"></scales>
<clustering>
<clus scale="   79.521">  5  6 -1 -1</clus>
<clus scale="   96.690">  7  8 -1 -1</clus>
<clus scale="  104.862">  1  7  2 -1</clus>
<clus scale="  110.193">  2  9  1 -1</clus>
<clus scale="  110.193">  2  5  1 -1</clus>
</clustering>
</event>
<event>
 9    2  0.6469128E-005  0.9072600E+02  0.7546771E-02  0.1307537E+00
         -3   -1    0    0    0  501 -0.00000000000E+00  0.00000000000E+00  0.21659375626E+03  0.21659375626E+03  0.00000000000E+00 0.  1.
         21   -1    0    0  501  502  0.00000000000E+00 -0.00000000000E+00 -0.84491971264E+02  0.84491971264E+02  0.00000000000E+00 0. -1.
         23    2    1    2    0    0  0.23225510033E+02  0.19947259638E+02  0.82445661665E+02  0.12632690561E+03  0.90685624380E+02 0.  0.
         24    2    1    2    0    0  0.37832924111E+02  0.24042242730E+02  0.29970589563E+02  0.96972390335E+02  0.80598068626E+02 0.  0.
        -11    1    4    4    0    0 -0.10371480128E+02  0.39950260269E+02  0.10363367954E+02  0.42555731587E+02  0.00000000000E+00 0.  1.
         12    1    4    4    0    0  0.48204404239E+02 -0.15908017538E+02  0.19607221609E+02  0.54416658747E+02  0.00000000000E+00 0. -1.
        -11    1    3    3    0    0  0.25396523697E+02 -0.33551806475E+02  0.39028597010E+02  0.57392843790E+02  0.00000000000E+00 0.  1.
         11    1    3    3    0    0 -0.21710136649E+01  0.53499066113E+02  0.43417064654E+02  0.68934061816E+02  0.00000000000E+00 0. -1.
         -4    1    1    2    0  502 -0.61058434144E+02 -0.43989502368E+02  0.19685533768E+02  0.77786431583E+02  0.00000000000E+00 0.  1.
<scales pt_clust_5="13000.00000" pt_clust_6="13000.00000" pt_clust_7="13000.00000" pt_clust_8="13000.00000" pt_clust_9="75.25429"></scales>
<clustering>
<clus scale="   75.254">  2  9  1 -1</clus>
<clus scale="   80.598">  5  6 -1 -1</clus>
<clus scale="   80.643">  2  5  1 -1</clus>
<clus scale="   90.686">  7  8 -1 -1</clus>
<clus scale="   75.254">  2  5  1 -1</clus>
</clustering>
</event>
<event>
 9    2  0.6469128E-005  0.9236907E+02  0.7546771E-02  0.1304996E+00
         21   -1    0    0  501  502  0.00000000000E+00  0.00000000000E+00  0.11260570906E+03  0.11260570906E+03  0.00000000000E+00 0. -1.
          2   -1    0    0  502    0 -0.00000000000E+00 -0.00000000000E+00 -0.15282589486E+03  0.15282589486E+03  0.00000000000E+00 0. -1.
         24    2    1    2    0    0 -0.85166041533E+01  0.80932072051E+01 -0.96294330859E+02  0.12478593673E+03  0.78491396352E+02 0.  0.
         23    2    1    2    0    0  0.20014546918E+02 -0.25121482489E+02  0.19178733580E+02  0.98414917320E+02  0.91027474746E+02 0.  0.
        -11    1    3    3    0    0  0.35133561644E+02  0.23779281806E+01 -0.39276266361E+02  0.52750799004E+02  0.00000000000E+00 0.  1.
         12    1    3    3    0    0 -0.43650165798E+02  0.57152790245E+01 -0.57018064498E+02  0.72035137728E+02  0.00000000000E+00 0. -1.
        -11    1    4    4    0    0  0.24235247218E+02 -0.54536617081E+02 -0.53009441754E+01  0.59914020225E+02  0.00000000000E+00 0. -1.
         11    1    4    4    0    0 -0.42207003005E+01  0.29415134592E+02  0.24479677755E+02  0.38500897095E+02  0.00000000000E+00 0.  1.
          1    1    1    2  501    0 -0.11497942764E+02  0.17028275284E+02  0.36895411471E+02  0.42230749870E+02  0.00000000000E+00 0. -1.
<scales pt_clust_5="13000.00000" pt_clust_6="13000.00000" pt_clust_7="13000.00000" pt_clust_8="13000.00000" pt_clust_9="20.54665"></scales>
<clustering>
<clus scale="   20.547">  1  9  2 -1</clus>
<clus scale="   78.491">  5  6 -1 -1</clus>
<clus scale="   80.043">  2  5  1 -1</clus>
<clus scale="   91.027">  7  8 -1 -1</clus>
<clus scale="   20.547">  1  5  2 -1</clus>
</clustering>
</event>
<event>
 9    2  0.6469128E-005  0.9483228E+02  0.7546771E-02  0.1298233E+00
         21   -1    0    0  501  502  0.00000000000E+00  0.00000000000E+00  0.33601522726E+02  0.33601522726E+02  0.00000000000E+00 0. -1.
          2   -1    0    0  502    0 -0.00000000000E+00 -0.00000000000E+00 -0.38293183766E+03  0.38293183766E+03  0.00000000000E+00 0. -1.
         24    2    1    2    0    0 -0.15886167286E+02  0.28326974619E+02 -0.20051115972E+03  0.21853682867E+03  0.80615336703E+02 0.  0.
         23    2    1    2    0    0  0.17306420993E+02  0.80256154001E+01 -0.11206943115E+03  0.14628511962E+03  0.92064412856E+02 0.  0.
        -11    1    3    3    0    0  0.25846812455E+02 -0.10609577636E+02 -0.45994487355E+02  0.53815552759E+02  0.00000000000E+00 0.  1.
         12    1    3    3    0    0 -0.41732979742E+02  0.38936552256E+02 -0.15451667236E+03  0.16472127591E+03  0.00000000000E+00 0. -1.
        -11    1    4    4    0    0  0.32643271603E+02  0.23146111545E+02 -0.90350569333E+01  0.41023870056E+02  0.00000000000E+00 0. -1.
         11    1    4    4    0    0 -0.15336850610E+02 -0.15120496145E+02 -0.10303437421E+03  0.10526124956E+03  0.00000000000E+00 0.  1.
          1    1    1    2  501    0 -0.14202537067E+01 -0.36352590020E+02 -0.36749724070E+02  0.51711412096E+02  0.00000000000E+00 0. -1.
<scales pt_clust_5="13000.00000" pt_clust_6="13000.00000" pt_clust_7="13000.00000" pt_clust_8="13000.00000" pt_clust_9="36.38032"></scales>
<clustering>
<clus scale="   36.380">  1  9  2 -1</clus>
<clus scale="   80.615">  5  6 -1 -1</clus>
<clus scale="   83.762">  2  5  1 -1</clus>
<clus scale="   92.064">  7  8 -1 -1</clus>
<clus scale="   36.380">  1  5  2 -1</clus>
</clustering>
</event>
<event>
 9    2  0.6469128E-005  0.9054746E+02  0.7546771E-02  0.1307802E+00
         21   -1    0    0  501  502  0.00000000000E+00  0.00000000000E+00  0.12835128527E+03  0.12835128527E+03  0.00000000000E+00 0.  1.
          2   -1    0    0  502    0 -0.00000000000E+00 -0.00000000000E+00 -0.25065536811E+03  0.25065536811E+03  0.00000000000E+00 0. -1.
         23    2    1    2    0    0  0.86177577756E+01 -0.22332108394E+01 -0.21181652773E+03  0.23024798797E+03  0.89825617548E+02 0.  0.
         24    2    1    2    0    0 -0.26550321269E+02  0.25940184839E+02  0.58318952160E+02  0.10567001912E+03  0.79920210284E+02 0.  0.
        -11    1    4    4    0    0  0.20943232758E-01  0.42301764526E+02  0.61129735171E+02  0.74338981986E+02  0.00000000000E+00 0.  1.
         12    1    4    4    0    0 -0.26571264502E+02 -0.16361579687E+02 -0.28107830104E+01  0.31331037139E+02  0.00000000000E+00 0. -1.
        -13    1    3    3    0    0 -0.41679947417E+01 -0.36876393686E+02 -0.40230306193E+02  0.54733153827E+02  0.00000000000E+00 0. -1.
         13    1    3    3    0    0  0.12785752517E+02  0.34643182847E+02 -0.17158622153E+03  0.17551483415E+03  0.00000000000E+00 0.  1.
          1    1    1    2  501    0  0.17932563493E+02 -0.23706974000E+02  0.31193492726E+02  0.43088646278E+02  0.00000000000E+00 0. -1.
<scales pt_clust_5="13000.00000" pt_clust_6="13000.00000" pt_clust_7="13000.00000" pt_clust_8="13000.00000" pt_clust_9="29.72537"></scales>
<clustering>
<clus scale="   29.725">  1  9  2 -1</clus>
<clus scale="   79.920">  5  6 -1 -1</clus>
<clus scale="   80.731">  1  5  2 -1</clus>
<clus scale="   89.826">  7  8 -1 -1</clus>
<clus scale="   29.725">  1  5  2 -1</clus>
</clustering>
</event>
<event>
 9    2  0.6469128E-005  0.9729410E+02  0.7546771E-02  0.1301576E+00
         21   -1    0    0  501  502  0.00000000000E+00  0.00000000000E+00  0.20450707202E+03  0.20450707202E+03  0.00000000000E+00 0. -1.
         -1   -1    0    0    0  501 -0.00000000000E+00 -0.00000000000E+00 -0.19045544034E+03  0.19045544034E+03  0.00000000000E+00 0.  1.
         24    2    1    2    0    0  0.25468561088E+02 -0.22062864606E+02 -0.15305278135E+03  0.16995751520E+03  0.65764621924E+02 0.  0.
         23    2    1    2    0    0 -0.92129284482E+01 -0.23879410784E+02  0.13924641638E+03  0.16887117279E+03  0.92047836559E+02 0.  0.
        -11    1    3    3    0    0  0.43442267411E+02 -0.22455684281E+01 -0.11867245817E+03  0.12639392985E+03  0.00000000000E+00 0.  1.
         12    1    3    3    0    0 -0.17973706322E+02 -0.19817296178E+02 -0.34380323181E+02  0.43563585352E+02  0.00000000000E+00 0. -1.
        -11    1    4    4    0    0 -0.41400726376E+02  0.13804244982E+02  0.46881288010E+02  0.64050234109E+02  0.00000000000E+00 0.  1.
         11    1    4    4    0    0  0.32187797928E+02 -0.37683655766E+02  0.92365128367E+02  0.10482093868E+03  0.00000000000E+00 0. -1.
         -2    1    1    2    0  502 -0.16255632640E+02  0.45942275390E+02  0.27857996660E+02  0.56133824371E+02  0.00000000000E+00 0.  1.
<scales pt_clust_5="13000.00000" pt_clust_6="13000.00000" pt_clust_7="13000.00000" pt_clust_8="13000.00000" pt_clust_9="48.73334"></scales>
<clustering>
<clus scale="   48.733">  1  9  2 -1</clus>
<clus scale="   65.765">  5  6 -1 -1</clus>
<clus scale="   72.927">  2  5  1 -1</clus>
<clus scale="   92.048">  7  8 -1 -1</clus>
<clus scale="   48.733">  1  5  2 -1</clus>
</clustering>
</event>
<event>
 9    2  0.6469128E-005  0.1344300E+03  0.7546771E-02  0.1244601E+00
          2   -1    0    0  502    0 -0.00000000000E+00  0.00000000000E+00  0.53735872268E+03  0.53735872268E+03  0.00000000000E+00 0. -1.
         21   -1    0    0  501  502  0.00000000000E+00 -0.00000000000E+00 -0.51236772750E+02  0.51236772750E+02  0.00000000000E+00 0.  1.
         24    2    1    2    0    0  0.22217248617E+02  0.14175679022E+01  0.17063161227E+03  0.18966253285E+03  0.79756589853E+02 0.  0.
         23    2    1    2    0    0 -0.30567091169E+02 -0.95547311606E+02  0.12023609777E+03  0.18201282356E+03  0.92780994358E+02 0.  0.
        -13    1    3    3    0    0  0.42985537786E+02 -0.20213161765E+02  0.13488136575E+03  0.14300108808E+03  0.00000000000E+00 0.  1.
         14    1    3    3    0    0 -0.20768289169E+02  0.21630729667E+02  0.35750246525E+02  0.46661444765E+02  0.00000000000E+00 0. -1.
        -11    1    4    4    0    0 -0.30359725087E+02 -0.41698208893E+02  0.14603876942E+01  0.51600254500E+02  0.00000000000E+00 0.  1.
         11    1    4    4    0    0 -0.20736608213E+00 -0.53849102713E+02  0.11877571008E+03  0.13041256906E+03  0.00000000000E+00 0. -1.
          1    1    1    2  501    0  0.83498425521E+01  0.94129743704E+02  0.19525423988E+03  0.21692013902E+03  0.00000000000E+00 0. -1.
<scales pt_clust_5="13000.00000" pt_clust_6="13000.00000" pt_clust_7="13000.00000" pt_clust_8="13000.00000" pt_clust_9="97.27860"></scales>
<clustering>
<clus scale="   79.757">  5  6 -1 -1</clus>
<clus scale="   82.805">  1  5  2 -1</clus>
<clus scale="   92.781">  7  8 -1 -1</clus>
<clus scale="   97.279">  2  9  1 -1</clus>
<clus scale="   97.279">  2  5  1 -1</clus>
</clustering>
</event>
<event>
 9    2  0.6469128E-005  0.9496502E+02  0.7546771E-02  0.1296305E+00
         21   -1    0    0  501  502  0.00000000000E+00  0.00000000000E+00  0.36970189428E+02  0.36970189428E+02  0.00000000000E+00 0. -1.
         -1   -1    0    0    0  501 -0.00000000000E+00 -0.00000000000E+00 -0.35757091840E+03  0.35757091840E+03  0.00000000000E+00 0.  1.
         23    2    1    2    0    0  0.36682067225E+02 -0.10991874338E+02 -0.22163407833E+03  0.24230362705E+03  0.90127618676E+02 0.  0.
         24    2    1    2    0    0 -0.15596904702E+02  0.96468828051E+01 -0.10121721148E+03  0.13098993727E+03  0.81099408032E+02 0.  0.
        -11    1    4    4    0    0  0.25404414653E+02  0.80633221389E+01 -0.80951120263E+02  0.85226083564E+02  0.00000000000E+00 0.  1.
         12    1    4    4    0    0 -0.41001319355E+02  0.15835606662E+01 -0.20266091218E+02  0.45763853711E+02  0.00000000000E+00 0. -1.
        -13    1    3    3    0    0  0.57757389431E+02 -0.18434401101E+02 -0.20673605765E+03  0.21544266224E+03  0.00000000000E+00 0.  1.
         13    1    3    3    0    0 -0.21075322207E+02  0.74425267624E+01 -0.14898020677E+02  0.26860964816E+02  0.00000000000E+00 0. -1.
         -2    1    1    2    0  502 -0.21085162523E+02  0.13449915331E+01  0.22505608372E+01  0.21247543503E+02  0.00000000000E+00 0.  1.
<scales pt_clust_5="13000.00000" pt_clust_6="13000.00000" pt_clust_7="13000.00000" pt_clust_8="13000.00000" pt_clust_9="21.12802"></scales>
<clustering>
<clus scale="   21.128">  1  9  2 -1</clus>
<clus scale="   81.099">  5  6 -1 -1</clus>
<clus scale="   86.444">  1  5  2 -1</clus>
<clus scale="   90.128">  7  8 -1 -1</clus>
<clus scale="   21.128">  1  5  2 -1</clus>
</clustering>
</event>
<event>
 9    2  0.6469128E-005  0.1208729E+03  0.7546771E-02  0.1245410E+00
         21   -1    0    0  501  502  0.00000000000E+00  0.00000000000E+00  0.11786204439E+03  0.11786204439E+03  0.00000000000E+00 0.  1.
         -3   -1    0    0    0  501 -0.00000000000E+00 -0.00000000000E+00 -0.15517361395E+03  0.15517361395E+03  0.00000000000E+00 0.  1.
         23    2    1    2    0    0  0.46749440889E+02 -0.54612250663E+02 -0.25529792439E+02  0.12020075410E+03  0.92889411873E+02 0.  0.
         24    2    1    2    0    0 -0.30104694172E+02  0.79711226577E+02 -0.24474469968E+02  0.12015294229E+03  0.81102143045E+02 0.  0.
        -11    1    4    4    0    0 -0.49057947615E+02  0.83805099173E+02 -0.13993165755E+02  0.98111087852E+02  0.00000000000E+00 0.  1.
         12    1    4    4    0    0  0.18953253443E+02 -0.40938725968E+01 -0.10481304213E+02  0.22041854435E+02  0.00000000000E+00 0. -1.
        -11    1    3    3    0    0  0.34454828519E+02  0.18327418289E+02 -0.24779659855E+02  0.46228357227E+02  0.00000000000E+00 0.  1.
         11    1    3    3    0    0  0.12294612370E+02 -0.72939668951E+02 -0.75013258452E+00  0.73972396872E+02  0.00000000000E+00 0. -1.
         -4    1    1    2    0  502 -0.16644746717E+02 -0.25098975914E+02  0.12692692851E+02  0.32681961951E+02  0.00000000000E+00 0.  1.
<scales pt_clust_5="13000.00000" pt_clust_6="13000.00000" pt_clust_7="13000.00000" pt_clust_8="13000.00000" pt_clust_9="30.11654"></scales>
<clustering>
<clus scale="   30.117">  1  9  2 -1</clus>
<clus scale="   81.102">  5  6 -1 -1</clus>
<clus scale="   92.889">  7  8 -1 -1</clus>
<clus scale="  112.069">  1  5  2 -1</clus>
<clus scale="   30.117">  1  5  2 -1</clus>
</clustering>
</event>
<event>
 9    2  0.6469128E-005  0.2875337E+03  0.7546771E-02  0.1092103E+00
         21   -1    0    0  501  502  0.00000000000E+00  0.00000000000E+00  0.59600989504E+03  0.59600989504E+03  0.00000000000E+00 0. -1.
         -1   -1    0    0    0  501 -0.00000000000E+00 -0.00000000000E+00 -0.30124700454E+03  0.30124700454E+03  0.00000000000E+00 0.  1.
         24    2    1    2    0    0 -0.27622420315E+03  0.78637184414E+02 -0.11276850259E+03  0.31777659437E+03  0.76036909289E+02 0.  0.
         23    2    1    2    0    0  0.19541527782E+03 -0.88745138018E+02  0.43544469978E+03  0.49339078302E+03  0.88088295921E+02 0.  0.
        -13    1    3    3    0    0 -0.22516483722E+03  0.44931751968E+02 -0.11450168656E+03  0.25657104762E+03  0.00000000000E+00 0.  1.
         14    1    3    3    0    0 -0.51059365936E+02  0.33705432446E+02  0.17331839687E+01  0.61205546749E+02  0.00000000000E+00 0. -1.
        -11    1    4    4    0    0  0.54284353291E+02  0.12873498250E+02  0.13777800499E+03  0.14864486748E+03  0.00000000000E+00 0.  1.
         11    1    4    4    0    0  0.14113092453E+03 -0.10161863627E+03  0.29766669478E+03  0.34474591553E+03  0.00000000000E+00 0. -1.
         -2    1    1    2    0  502  0.80808925337E+02  0.10107953604E+02 -0.27913306699E+02  0.86089522191E+02  0.00000000000E+00 0.  1.
<scales pt_clust_5="13000.00000" pt_clust_6="13000.00000" pt_clust_7="13000.00000" pt_clust_8="13000.00000" pt_clust_9="81.43869"></scales>
<clustering>
<clus scale="   76.037">  5  6 -1 -1</clus>
<clus scale="   81.439">  1  9  2 -1</clus>
<clus scale="   88.088">  7  8 -1 -1</clus>
<clus scale="  284.073">  2  5  1 -1</clus>
<clus scale="   81.439">  1  5  2 -1</clus>
</clustering>
</event>
<event>
 9    2  0.6469128E-005  0.9149203E+02  0.7546771E-02  0.1311210E+00
         21   -1    0    0  501  502  0.00000000000E+00  0.00000000000E+00  0.10752055698E+03  0.10752055698E+03  0.00000000000E+00 0.  1.
         -3   -1    0    0    0  501 -0.00000000000E+00 -0.00000000000E+00 -0.10059382161E+03  0.10059382161E+03  0.00000000000E+00 0.  1.
         23    2    1    2    0    0  0.13216999332E+02  0.23124366238E+02 -0.20025221851E+02  0.96730540783E+02  0.90809485324E+02 0.  0.
         24    2    1    2    0    0  0.68396964703E+01  0.53706299507E+01  0.18575441773E+02  0.75545285020E+02  0.72707757068E+02 0.  0.
        -13    1    4    4    0    0 -0.14906218550E+02  0.34007157024E+02  0.71190470897E+01  0.37806916190E+02  0.00000000000E+00 0.  1.
         14    1    4    4    0    0  0.21745915020E+02 -0.28636527073E+02  0.11456394683E+02  0.37738368831E+02  0.00000000000E+00 0. -1.
        -13    1    3    3    0    0  0.19286389769E+02 -0.20339206768E+02  0.22256229803E+02  0.35790891681E+02  0.00000000000E+00 0.  1.
         13    1    3    3    0    0 -0.60693904375E+01  0.43463573006E+02 -0.42281451654E+02  0.60939649102E+02  0.00000000000E+00 0. -1.
         -4    1    1    2    0  502 -0.20056695802E+02 -0.28494996188E+02  0.83765154503E+01  0.35838552780E+02  0.00000000000E+00 0.  1.
<scales pt_clust_5="13000.00000" pt_clust_6="13000.00000" pt_clust_7="13000.00000" pt_clust_8="13000.00000" pt_clust_9="34.84589"></scales>
<clustering>
<clus scale="   34.846">  1  9  2 -1</clus>
<clus scale="   72.708">  5  6 -1 -1</clus>
<clus scale="   73.558">  1  5  2 -1</clus>
<clus scale="   90.809">  7  8 -1 -1</clus>
<clus scale="   34.846">  1  5  2 -1</clus>
</clustering>
</event>
<event>
 9    2  0.6469128E-005  0.1132250E+03  0.7546771E-02  0.1263077E+00
         -1   -1    0    0    0  501 -0.00000000000E+00  0.00000000000E+00  0.11743299756E+03  0.11743299756E+03  0.00000000000E+00 0.  1.
         21   -1    0    0  501  502  0.00000000000E+00 -0.00000000000E+00 -0.40282504426E+03  0.40282504426E+03  0.00000000000E+00 0.  1.
         24    2    1    2    0    0  0.30647858794E+02 -0.53416131830E+02  0.55289812650E+02  0.11150518741E+03  0.74725290555E+02 0.  0.
         23    2    1    2    0    0 -0.84204454181E+02  0.60162010334E+01 -0.11445063175E+03  0.17148585146E+03  0.95822050511E+02 0.  0.
        -13    1    3    3    0    0 -0.10798582891E+02 -0.43082044328E+02  0.37609881247E+01  0.44573725081E+02  0.00000000000E+00 0.  1.
         14    1    3    3    0    0  0.41446441685E+02 -0.10334087502E+02  0.51528824526E+02  0.66931462331E+02  0.00000000000E+00 0. -1.
        -11    1    4    4    0    0 -0.39071473730E+02  0.49493855475E+02 -0.72433865670E+02  0.96035861453E+02  0.00000000000E+00 0. -1.
         11    1    4    4    0    0 -0.45132980452E+02 -0.43477654441E+02 -0.42016766079E+02  0.75449990006E+02  0.00000000000E+00 0.  1.
         -2    1    1    2    0  502  0.53556595388E+02  0.47399930796E+02 -0.22623122760E+03  0.23726700295E+03  0.00000000000E+00 0.  1.
<scales pt_clust_5="13000.00000" pt_clust_6="13000.00000" pt_clust_7="13000.00000" pt_clust_8="13000.00000" pt_clust_9="71.51966"></scales>
<clustering>
<clus scale="   71.520">  2  9  1 -1</clus>
<clus scale="   74.725">  5  6 -1 -1</clus>
<clus scale="   95.822">  7  8 -1 -1</clus>
<clus scale="   96.031">  1  5  2 -1</clus>
<clus scale="   71.520">  2  5  1 -1</clus>
</clustering>
</event>
<event>
 9    2  0.6469128E-005  0.1177305E+03  0.7546771E-02  0.1252433E+00
          2   -1    0    0  502    0 -0.00000000000E+00  0.00000000000E+00  0.12498326540E+04  0.12498326540E+04  0.00000000000E+00 0. -1.
         21   -1    0    0  501  502  0.00000000000E+00 -0.00000000000E+00 -0.53542656090E+02  0.53542656090E+02  0.00000000000E+00 0. -1.
         24    2    1    2    0    0 -0.64118304318E+02 -0.41872088587E+01  0.99470486870E+03  0.10000551448E+04  0.80893925990E+02 0.  0.
         23    2    1    2    0    0  0.11978841220E+03 -0.25724146830E+02  0.10528759224E+03  0.18813741593E+03  0.96432436266E+02 0.  0.
        -13    1    3    3    0    0  0.18485571601E+01 -0.21588715011E+02  0.82344268947E+02  0.85147333534E+02  0.00000000000E+00 0.  1.
         14    1    3    3    0    0 -0.65966861478E+02  0.17401506153E+02  0.91236059975E+03  0.91490781132E+03  0.00000000000E+00 0. -1.
        -13    1    4    4    0    0  0.23021826846E+02  0.30361166677E+02  0.51413379219E+02  0.63993284929E+02  0.00000000000E+00 0.  1.
         13    1    4    4    0    0  0.96766585358E+02 -0.56085313507E+02  0.53874213019E+02  0.12414413100E+03  0.00000000000E+00 0. -1.
          1    1    1    2  501    0 -0.55670107886E+02  0.29911355689E+02  0.96297536952E+02  0.11518274929E+03  0.00000000000E+00 0. -1.
<scales pt_clust_5="13000.00000" pt_clust_6="13000.00000" pt_clust_7="13000.00000" pt_clust_8="13000.00000" pt_clust_9="63.19692"></scales>
<clustering>
<clus scale="   63.197">  2  9  1 -1</clus>
<clus scale="   80.894">  5  6 -1 -1</clus>
<clus scale="   96.432">  7  8 -1 -1</clus>
<clus scale="  105.381">  1  5  2 -1</clus>
<clus scale="   63.197">  2  5  1 -1</clus>
</clustering>
</event>
<event>
 9    2  0.6469128E-005  0.8884402E+02  0.7546771E-02  0.1308726E+00
         21   -1    0    0  501  502  0.00000000000E+00  0.00000000000E+00  0.36818715525E+03  0.36818715525E+03  0.00000000000E+00 0. -1.
         -1   -1    0    0    0  501 -0.00000000000E+00 -0.00000000000E+00 -0.38176094436E+02  0.38176094436E+02  0.00000000000E+00 0.  1.
         23    2    1    2    0    0  0.93274799815E+01  0.11525518582E+02  0.12845072340E+03  0.15533700884E+03  0.86082277563E+02 0.  0.
         24    2    1    2    0    0 -0.39575592220E+02  0.15249143145E+02  0.18679628337E+03  0.20801684540E+03  0.81113455265E+02 0.  0.
        -11    1    4    4    0    0 -0.15652778097E+02  0.42365242293E+02  0.54062185853E+02  0.70445320327E+02  0.00000000000E+00 0.  1.
         12    1    4    4    0    0 -0.23922814124E+02 -0.27116099149E+02  0.13273409752E+03  0.13757152508E+03  0.00000000000E+00 0. -1.
        -13    1    3    3    0    0 -0.88445819839E+01 -0.29367611425E+02  0.16617283842E+02  0.34882909190E+02  0.00000000000E+00 0.  1.
         13    1    3    3    0    0  0.18172061965E+02  0.40893130007E+02  0.11183343956E+03  0.12045409965E+03  0.00000000000E+00 0. -1.
         -2    1    1    2    0  502  0.30248112239E+02 -0.26774661727E+02  0.14764054040E+02  0.43009395442E+02  0.00000000000E+00 0.  1.
<scales pt_clust_5="13000.00000" pt_clust_6="13000.00000" pt_clust_7="13000.00000" pt_clust_8="13000.00000" pt_clust_9="40.39595"></scales>
<clustering>
<clus scale="   40.396">  1  9  2 -1</clus>
<clus scale="   81.113">  5  6 -1 -1</clus>
<clus scale="   84.039">  1  5  2 -1</clus>
<clus scale="   86.082">  7  8 -1 -1</clus>
<clus scale="   40.396">  1  5  2 -1</clus>
</clustering>
</event>
<event>
 9    2  0.6469128E-005  0.9740206E+02  0.7546771E-02  0.1286028E+00
          2   -1    0    0  502    0 -0.00000000000E+00  0.00000000000E+00  0.54300250420E+03  0.54300250420E+03  0.00000000000E+00 0. -1.
         21   -1    0    0  501  502  0.00000000000E+00 -0.00000000000E+00 -0.95871823789E+02  0.95871823789E+02  0.00000000000E+00 0. -1.
         24    2    1    2    0    0 -0.45996042646E+02  0.32840091186E+02  0.44769042016E+03  0.45828582773E+03  0.80031744128E+02 0.  0.
         23    2    1    2    0    0 -0.77897122670E+01 -0.74553922047E+02  0.14475686927E+02  0.11088186377E+03  0.80413153720E+02 0.  0.
        -11    1    3    3    0    0  0.17851929456E+02 -0.10456649925E+02  0.84947735595E+02  0.87430833781E+02  0.00000000000E+00 0.  1.
         12    1    3    3    0    0 -0.63847972102E+02  0.43296741111E+02  0.36274268456E+03  0.37085499395E+03  0.00000000000E+00 0. -1.
        -13    1    4    4    0    0 -0.11575667098E+01 -0.31992216905E+02  0.47027881532E+02  0.56889924807E+02  0.00000000000E+00 0. -1.
         13    1    4    4    0    0 -0.66321455572E+01 -0.42561705142E+02 -0.32552194605E+02  0.53991938962E+02  0.00000000000E+00 0.  1.
          1    1    1    2  501    0  0.53785754913E+02  0.41713830861E+02 -0.15035426667E+02  0.69706636497E+02  0.00000000000E+00 0. -1.
<scales pt_clust_5="13000.00000" pt_clust_6="13000.00000" pt_clust_7="13000.00000" pt_clust_8="13000.00000" pt_clust_9="68.06579"></scales>
<clustering>
<clus scale="   68.066">  2  9  1 -1</clus>
<clus scale="   80.032">  5  6 -1 -1</clus>
<clus scale="   80.413">  7  8 -1 -1</clus>
<clus scale="   97.087">  1  5  2 -1</clus>
<clus scale="   68.066">  2  5  1 -1</clus>
</clustering>
</event>
<event>
 9    2  0.6469128E-005  0.2246983E+03  0.7546771E-02  0.1153032E+00
          2   -1    0    0  502    0 -0.00000000000E+00  0.00000000000E+00  0.12247129356E+04  0.12247129356E+04  0.00000000000E+00 0. -1.
         21   -1    0    0  501  502  0.00000000000E+00 -0.00000000000E+00 -0.13643245201E+03  0.13643245201E+03  0.00000000000E+00 0. -1.
         24    2    1    2    0    0 -0.98115460697E+02  0.31906081892E+02  0.42059877446E+03  0.44037094758E+03  0.79866142466E+02 0.  0.
         23    2    1    2    0    0 -0.16188034394E+03  0.96180483908E+02  0.21371988516E+02  0.21245230869E+03  0.96037962996E+02 0.  0.
        -11    1    3    3    0    0 -0.65916186650E+02  0.50883202875E+02  0.20022815401E+03  0.21685330907E+03  0.00000000000E+00 0.  1.
         12    1    3    3    0    0 -0.32199274047E+02 -0.18977120983E+02  0.22037062045E+03  0.22351763851E+03  0.00000000000E+00 0. -1.
        -13    1    4    4    0    0 -0.13616942728E+03  0.34112703281E+02  0.33167422114E+02  0.14424239093E+03  0.00000000000E+00 0.  1.
         13    1    4    4    0    0 -0.25710916658E+02  0.62067780626E+02 -0.11795433599E+02  0.68209917761E+02  0.00000000000E+00 0. -1.
          1    1    1    2  501    0  0.25999580464E+03 -0.12808656580E+03  0.64630972063E+03  0.70832213134E+03  0.00000000000E+00 0. -1.
<scales pt_clust_5="13000.00000" pt_clust_6="13000.00000" pt_clust_7="13000.00000" pt_clust_8="13000.00000" pt_clust_9="203.14057"></scales>
<clustering>
<clus scale="   79.866">  5  6 -1 -1</clus>
<clus scale="   96.038">  7  8 -1 -1</clus>
<clus scale="  130.473">  1  5  2 -1</clus>
<clus scale="  203.141">  2  9  1 -1</clus>
<clus scale="  203.141">  2  5  1 -1</clus>
</clustering>
</event>
<event>
 9    2  0.6469128E-005  0.9471904E+02  0.7546771E-02  0.1298583E+00
         21   -1    0    0  501  502  0.00000000000E+00  0.00000000000E+00  0.34237748392E+02  0.34237748392E+02  0.00000000000E+00 0.  1.
          4   -1    0    0  502    0 -0.00000000000E+00 -0.00000000000E+00 -0.32762556829E+03  0.32762556829E+03  0.00000000000E+00 0. -1.
         24    2    1    2    0    0  0.16163888032E+02  0.93341677740E+01 -0.17049188207E+03  0.18912603283E+03  0.79704306507E+02 0.  0.
         23    2    1    2    0    0 -0.37876161174E+02 -0.94791659138E+01 -0.10539762061E+03  0.14485117737E+03  0.91371477958E+02 0.  0.
        -13    1    3    3    0    0  0.21653183271E+02  0.30984055401E+02 -0.16008178964E+03  0.16448419805E+03  0.00000000000E+00 0.  1.
         14    1    3    3    0    0 -0.54892952385E+01 -0.21649887627E+02 -0.10410092430E+02  0.24641834771E+02  0.00000000000E+00 0. -1.
        -11    1    4    4    0    0 -0.64370891689E+02 -0.10904929723E+02 -0.97180025562E+02  0.11707470503E+03  0.00000000000E+00 0. -1.
         11    1    4    4    0    0  0.26494730515E+02  0.14257638088E+01 -0.82175950470E+01  0.27776472344E+02  0.00000000000E+00 0.  1.
          3    1    1    2  501    0  0.21712273141E+02  0.14499813975E+00 -0.17498317218E+02  0.27886106485E+02  0.00000000000E+00 0. -1.
<scales pt_clust_5="13000.00000" pt_clust_6="13000.00000" pt_clust_7="13000.00000" pt_clust_8="13000.00000" pt_clust_9="21.71276"></scales>
<clustering>
<clus scale="   21.713">  1  9  2 -1</clus>
<clus scale="   79.704">  5  6 -1 -1</clus>
<clus scale="   83.521">  2  5  1 -1</clus>
<clus scale="   91.371">  7  8 -1 -1</clus>
<clus scale="   21.713">  1  5  2 -1</clus>
</clustering>
</event>
<event>
 9    2  0.6469128E-005  0.9378616E+02  0.7546771E-02  0.1301220E+00
          2   -1    0    0  502    0 -0.00000000000E+00  0.00000000000E+00  0.15303717350E+03  0.15303717350E+03  0.00000000000E+00 0. -1.
         21   -1    0    0  501  502  0.00000000000E+00 -0.00000000000E+00 -0.80903473082E+02  0.80903473082E+02  0.00000000000E+00 0.  1.
         24    2    1    2    0    0 -0.23205291394E+02 -0.20179120914E+01  0.68981805205E+02  0.10819101076E+03  0.80026544611E+02 0.  0.
         23    2    1    2    0    0  0.67600875769E+01 -0.11977405497E+02  0.23534701235E+02  0.96054982702E+02  0.92106028648E+02 0.  0.
        -11    1    3    3    0    0  0.22167630399E+02 -0.84370016780E+01 -0.18907731137E+01  0.23794155958E+02  0.00000000000E+00 0.  1.
         12    1    3    3    0    0 -0.45372921792E+02  0.64190895866E+01  0.70872578319E+02  0.84396854803E+02  0.00000000000E+00 0. -1.
        -11    1    4    4    0    0  0.11642295860E+02  0.29127310493E+02 -0.19024070532E+02  0.36685944571E+02  0.00000000000E+00 0.  1.
         11    1    4    4    0    0 -0.48822082833E+01 -0.41104715989E+02  0.42558771767E+02  0.59369038131E+02  0.00000000000E+00 0. -1.
          1    1    1    2  501    0  0.16445203817E+02  0.13995317588E+02 -0.20382806018E+02  0.29694653123E+02  0.00000000000E+00 0. -1.
<scales pt_clust_5="13000.00000" pt_clust_6="13000.00000" pt_clust_7="13000.00000" pt_clust_8="13000.00000" pt_clust_9="21.59430"></scales>
<clustering>
<clus scale="   21.594">  2  9  1 -1</clus>
<clus scale="   80.027">  5  6 -1 -1</clus>
<clus scale="   81.955">  1  5  2 -1</clus>
<clus scale="   92.106">  7  8 -1 -1</clus>
<clus scale="   21.594">  2  5  1 -1</clus>
</clustering>
</event>
<event>
 9    2  0.6469128E-005  0.9144027E+02  0.7546771E-02  0.1307448E+00
         -1   -1    0    0    0  501 -0.00000000000E+00  0.00000000000E+00  0.15663758619E+03  0.15663758619E+03  0.00000000000E+00 0.  1.
         21   -1    0    0  501  502  0.00000000000E+00 -0.00000000000E+00 -0.13554763830E+03  0.13554763830E+03  0.00000000000E+00 0.  1.
         23    2    1    2    0    0  0.10286400061E+02  0.77705075668E+01  0.99441898249E+02  0.13563766998E+03  0.91338357632E+02 0.  0.
         24    2    1    2    0    0  0.20932800614E+02  0.29691350757E+02 -0.51185794740E+02  0.10072614885E+03  0.78778252245E+02 0.  0.
        -13    1    4    4    0    0  0.35207338426E+02 -0.37642428484E+01 -0.53636867004E+02  0.64270052943E+02  0.00000000000E+00 0.  1.
         14    1    4    4    0    0 -0.14274537812E+02  0.33455593606E+02  0.24510722638E+01  0.36456095903E+02  0.00000000000E+00 0. -1.
        -11    1    3    3    0    0 -0.39172027655E+02  0.10469410998E+02  0.30455065916E+02  0.50710623711E+02  0.00000000000E+00 0. -1.
         11    1    3    3    0    0  0.49458427716E+02 -0.26989034308E+01  0.68986832333E+02  0.84927046264E+02  0.00000000000E+00 0.  1.
         -2    1    1    2    0  502 -0.31219200674E+02 -0.37461858324E+02 -0.27166155618E+02  0.55821405669E+02  0.00000000000E+00 0.  1.
<scales pt_clust_5="13000.00000" pt_clust_6="13000.00000" pt_clust_7="13000.00000" pt_clust_8="13000.00000" pt_clust_9="48.76504"></scales>
<clustering>
<clus scale="   48.765">  2  9  1 -1</clus>
<clus scale="   78.778">  5  6 -1 -1</clus>
<clus scale="   78.896">  2  5  1 -1</clus>
<clus scale="   91.338">  7  8 -1 -1</clus>
<clus scale="   48.765">  2  5  1 -1</clus>
</clustering>
</event>
<event>
 9    2  0.6469128E-005  0.1200518E+03  0.7546771E-02  0.1251183E+00
          2   -1    0    0  502    0 -0.00000000000E+00  0.00000000000E+00  0.72662584675E+03  0.72662584675E+03  0.00000000000E+00 0. -1.
         21   -1    0    0  501  502  0.00000000000E+00 -0.00000000000E+00 -0.27806857373E+02  0.27806857373E+02  0.00000000000E+00 0. -1.
         24    2    1    2    0    0 -0.20373759582E+02 -0.35084110591E+02  0.21978590426E+03  0.23766486534E+03  0.80825488616E+02 0.  0.
         23    2    1    2    0    0  0.41645243748E+02  0.84903053961E+02  0.34753954219E+03  0.37455337051E+03  0.10277956543E+03 0.  0.
        -11    1    3    3    0    0 -0.51586903846E+02 -0.25935578937E+02  0.13346736914E+03  0.14542146172E+03  0.00000000000E+00 0.  1.
         12    1    3    3    0    0  0.31213144265E+02 -0.91485316541E+01  0.86318535119E+02  0.92243403620E+02  0.00000000000E+00 0. -1.
        -11    1    4    4    0    0  0.36722054627E+02  0.29234962502E+02  0.39094962664E+02  0.61086892491E+02  0.00000000000E+00 0.  1.
         11    1    4    4    0    0  0.49231891215E+01  0.55668091459E+02  0.30844457953E+03  0.31346647801E+03  0.00000000000E+00 0. -1.
          1    1    1    2  501    0 -0.21271484167E+02 -0.49818943369E+02  0.13149354292E+03  0.14221446828E+03  0.00000000000E+00 0. -1.
<scales pt_clust_5="13000.00000" pt_clust_6="13000.00000" pt_clust_7="13000.00000" pt_clust_8="13000.00000" pt_clust_9="54.17013"></scales>
<clustering>
<clus scale="   54.170">  2  9  1 -1</clus>
<clus scale="   80.825">  5  6 -1 -1</clus>
<clus scale="  101.890">  1  5  2 -1</clus>
<clus scale="  102.780">  7  8 -1 -1</clus>
<clus scale="   54.170">  2  5  1 -1</clus>
</clustering>
</event>
<event>
 9    2  0.6469128E-005  0.9643648E+02  0.7546771E-02  0.1292207E+00
          2   -1    0    0  502    0 -0.00000000000E+00  0.00000000000E+00  0.72356676747E+03  0.72356676747E+03  0.00000000000E+00 0. -1.
         21   -1    0    0  501  502  0.00000000000E+00 -0.00000000000E+00 -0.19805249884E+02  0.19805249884E+02  0.00000000000E+00 0.  1.
         24    2    1    2    0    0  0.14410490958E+02 -0.36019325226E+02  0.50216282108E+03  0.51030854796E+03  0.82111273324E+02 0.  0.
         23    2    1    2    0    0  0.39678693516E+01  0.25224415042E+02  0.17907230037E+03  0.20205165332E+03  0.90033142490E+02 0.  0.
        -13    1    3    3    0    0 -0.60222202676E+01 -0.59387212931E+02  0.31994861556E+03  0.32546923786E+03  0.00000000000E+00 0.  1.
         14    1    3    3    0    0  0.20432711226E+02  0.23367887704E+02  0.18221420552E+03  0.18483931009E+03  0.00000000000E+00 0. -1.
        -13    1    4    4    0    0 -0.38224935662E+01  0.44784805446E+02  0.17490561961E+03  0.18058866527E+03  0.00000000000E+00 0. -1.
         13    1    4    4    0    0  0.77903629178E+01 -0.19560390404E+02  0.41666807656E+01  0.21462988043E+02  0.00000000000E+00 0.  1.
          1    1    1    2  501    0 -0.18378360310E+02  0.10794910185E+02  0.22526396140E+02  0.31011816081E+02  0.00000000000E+00 0. -1.
<scales pt_clust_5="13000.00000" pt_clust_6="13000.00000" pt_clust_7="13000.00000" pt_clust_8="13000.00000" pt_clust_9="21.31418"></scales>
<clustering>
<clus scale="   21.314">  2  9  1 -1</clus>
<clus scale="   82.111">  5  6 -1 -1</clus>
<clus scale="   89.086">  1  5  2 -1</clus>
<clus scale="   90.033">  7  8 -1 -1</clus>
<clus scale="   21.314">  2  5  1 -1</clus>
</clustering>
</event>
<event>
 9    2  0.6469128E-005  0.1047407E+03  0.7546771E-02  0.1277137E+00
          2   -1    0    0  502    0 -0.00000000000E+00  0.00000000000E+00  0.37602758405E+03  0.37602758405E+03  0.00000000000E+00 0. -1.
         21   -1    0    0  501  502  0.00000000000E+00 -0.00000000000E+00 -0.76542120806E+02  0.76542120806E+02  0.00000000000E+00 0.  1.
         24    2    1    2    0    0  0.86530163137E+01 -0.43426213484E+02  0.27252600696E+03  0.28703867931E+03  0.78486102215E+02 0.  0.
         23    2    1    2    0    0 -0.14713296079E+02  0.71762807772E+02  0.50234526573E+02  0.12836358733E+03  0.92667800407E+02 0.  0.
        -11    1    3    3    0    0  0.19200364185E+02 -0.54037134383E+02  0.26327511278E+03  0.26944841971E+03  0.00000000000E+00 0.  1.
         12    1    3    3    0    0 -0.10547347872E+02  0.10610920899E+02  0.92508941784E+01  0.17590259593E+02  0.00000000000E+00 0. -1.
        -11    1    4    4    0    0 -0.33514474032E+02  0.45157593352E+02  0.70358924684E+02  0.90071119065E+02  0.00000000000E+00 0. -1.
         11    1    4    4    0    0  0.18801177954E+02  0.26605214421E+02 -0.20124398110E+02  0.38292468269E+02  0.00000000000E+00 0.  1.
          1    1    1    2  501    0  0.60602797653E+01 -0.28336594288E+02 -0.23275070287E+02  0.37167438216E+02  0.00000000000E+00 0. -1.
<scales pt_clust_5="13000.00000" pt_clust_6="13000.00000" pt_clust_7="13000.00000" pt_clust_8="13000.00000" pt_clust_9="28.97740"></scales>
<clustering>
<clus scale="   28.977">  2  9  1 -1</clus>
<clus scale="   78.486">  5  6 -1 -1</clus>
<clus scale="   92.430">  1  5  2 -1</clus>
<clus scale="   92.668">  7  8 -1 -1</clus>
<clus scale="   28.977">  2  5  1 -1</clus>
</clustering>
</event>
<event>
 9    2  0.6469128E-005  0.1035142E+03  0.7546771E-02  0.1278397E+00
          2   -1    0    0  502    0 -0.00000000000E+00  0.00000000000E+00  0.63862002639E+03  0.63862002639E+03  0.00000000000E+00 0. -1.
         21   -1    0    0  501  502  0.00000000000E+00 -0.00000000000E+00 -0.38528107736E+02  0.38528107736E+02  0.00000000000E+00 0.  1.
         24    2    1    2    0    0 -0.47883083305E+02 -0.42163423877E+01  0.46543567629E+03  0.47473657332E+03  0.80211458496E+02 0.  0.
         23    2    1    2    0    0  0.48386602403E+02 -0.21949102173E+02  0.14010531062E+03  0.17567999958E+03  0.91711165136E+02 0.  0.
        -13    1    3    3    0    0 -0.32738205331E+02  0.27580571010E+02  0.11808110452E+03  0.12560105584E+03  0.00000000000E+00 0.  1.
         14    1    3    3    0    0 -0.15144877974E+02 -0.31796913397E+02  0.34735457177E+03  0.34913551748E+03  0.00000000000E+00 0. -1.
        -11    1    4    4    0    0  0.29437552115E+02 -0.58087081570E+02  0.89113410873E+02  0.11037154759E+03  0.00000000000E+00 0.  1.
         11    1    4    4    0    0  0.18949050287E+02  0.36137979398E+02  0.50991899745E+02  0.65308451990E+02  0.00000000000E+00 0. -1.
          1    1    1    2  501    0 -0.50351909723E+00  0.26165444560E+02 -0.54490682575E+01  0.26731561223E+02  0.00000000000E+00 0. -1.
<scales pt_clust_5="13000.00000" pt_clust_6="13000.00000" pt_clust_7="13000.00000" pt_clust_8="13000.00000" pt_clust_9="26.17029"></scales>
<clustering>
<clus scale="   26.170">  2  9  1 -1</clus>
<clus scale="   80.211">  5  6 -1 -1</clus>
<clus scale="   91.711">  7  8 -1 -1</clus>
<clus scale="   93.478">  1  5  2 -1</clus>
<clus scale="   26.170">  2  5  1 -1</clus>
</clustering>
</event>
<event>
 9    2  0.6469128E-005  0.9472152E+02  0.7546771E-02  0.1299200E+00
         -3   -1    0    0    0  501 -0.00000000000E+00  0.00000000000E+00  0.13809940671E+03  0.13809940671E+03  0.00000000000E+00 0.  1.
         21   -1    0    0  501  502  0.00000000000E+00 -0.00000000000E+00 -0.35273888735E+03  0.35273888735E+03  0.00000000000E+00 0. -1.
         24    2    1    2    0    0 -0.21105944610E+02  0.86133694065E+01  0.10364644980E+03  0.13200142491E+03  0.78499290390E+02 0.  0.
         23    2    1    2    0    0  0.53223655780E+02 -0.16749330259E+02 -0.13315343091E+03  0.17076299108E+03  0.91196849510E+02 0.  0.
        -11    1    3    3    0    0 -0.23240938820E+02  0.42410921130E+01  0.11617941120E+03  0.11855709041E+03  0.00000000000E+00 0.  1.
         12    1    3    3    0    0  0.21349942097E+01  0.43722772935E+01 -0.12532961394E+02  0.13444334506E+02  0.00000000000E+00 0. -1.
        -13    1    4    4    0    0  0.21516060083E+02 -0.53884159974E+02 -0.75167675079E+02  0.94955899840E+02  0.00000000000E+00 0.  1.
         13    1    4    4    0    0  0.31707595697E+02  0.37134829715E+02 -0.57985755827E+02  0.75807091236E+02  0.00000000000E+00 0. -1.
         -4    1    1    2    0  502 -0.32117711171E+02  0.81359608525E+01 -0.18513249954E+03  0.18807387808E+03  0.00000000000E+00 0.  1.
<scales pt_clust_5="13000.00000" pt_clust_6="13000.00000" pt_clust_7="13000.00000" pt_clust_8="13000.00000" pt_clust_9="33.13218"></scales>
<clustering>
<clus scale="   33.132">  2  9  1 -1</clus>
<clus scale="   78.499">  5  6 -1 -1</clus>
<clus scale="   82.568">  1  5  2 -1</clus>
<clus scale="   91.197">  7  8 -1 -1</clus>
<clus scale="   33.132">  2  5  1 -1</clus>
</clustering>
</event>
<event>
 9    2  0.6469128E-005  0.1003625E+03  0.7546771E-02  0.1285001E+00
          4   -1    0    0  502    0 -0.00000000000E+00  0.00000000000E+00  0.35199600009E+03  0.35199600009E+03  0.00000000000E+00 0. -1.
         21   -1    0    0  501  502  0.00000000000E+00 -0.00000000000E+00 -0.37697904295E+02  0.37697904295E+02  0.00000000000E+00 0.  1.
         23    2    1    2    0    0 -0.55638663441E+02  0.57394493192E+01  0.15440393288E+03  0.18810431758E+03  0.91728172633E+02 0.  0.
         24    2    1    2    0    0  0.23450915991E+02 -0.11776312601E+02  0.86604182858E+02  0.12131558117E+03  0.80799497194E+02 0.  0.
        -13    1    4    4    0    0 -0.25487049737E+02  0.14318449046E+02  0.34484426909E+02  0.45208222556E+02  0.00000000000E+00 0.  1.
         14    1    4    4    0    0  0.48937965729E+02 -0.26094761647E+02  0.52119755949E+02  0.76107358615E+02  0.00000000000E+00 0. -1.
        -11    1    3    3    0    0 -0.30284089483E+02  0.48627779930E+02  0.75228389353E+02  0.94557377404E+02  0.00000000000E+00 0.  1.
         11    1    3    3    0    0 -0.25354573957E+02 -0.42888330611E+02  0.79175543526E+02  0.93546940173E+02  0.00000000000E+00 0. -1.
          3    1    1    2  501    0  0.32187747449E+02  0.60368632816E+01  0.73289980062E+02  0.80274005641E+02  0.00000000000E+00 0. -1.
<scales pt_clust_5="13000.00000" pt_clust_6="13000.00000" pt_clust_7="13000.00000" pt_clust_8="13000.00000" pt_clust_9="32.74898"></scales>
<clustering>
<clus scale="   32.749">  2  9  1 -1</clus>
<clus scale="   80.799">  5  6 -1 -1</clus>
<clus scale="   90.483">  2  5  1 -1</clus>
<clus scale="   91.728">  7  8 -1 -1</clus>
<clus scale="   32.749">  2  5  1 -1</clus>
</clustering>
</event>
<event>
 9    2  0.6469128E-005  0.2283266E+03  0.7546771E-02  0.1171503E+00
         21   -1    0    0  501  502  0.00000000000E+00  0.00000000000E+00  0.19660975322E+03  0.19660975322E+03  0.00000000000E+00 0. -1.
          2   -1    0    0  502    0 -0.00000000000E+00 -0.00000000000E+00 -0.35963962129E+03  0.35963962129E+03  0.00000000000E+00 0. -1.
         24    2    1    2    0    0  0.95825352984E+01  0.91578564361E+01 -0.68984681060E+02  0.10641778027E+03  0.79938516497E+02 0.  0.
         23    2    1    2    0    0  0.10954700677E+03  0.17103687952E+03 -0.31753851528E+02  0.22501566701E+03  0.91485422125E+02 0.  0.
        -11    1    3    3    0    0 -0.80065358477E+01 -0.29969086057E+02 -0.51441580687E+02  0.60070683024E+02  0.00000000000E+00 0.  1.
         12    1    3    3    0    0  0.17589071146E+02  0.39126942493E+02 -0.17543100373E+02  0.46347097248E+02  0.00000000000E+00 0. -1.
        -13    1    4    4    0    0 -0.16449105786E+02  0.17781311166E+02 -0.59719140637E+01  0.24948183612E+02  0.00000000000E+00 0.  1.
         13    1    4    4    0    0  0.12599611256E+03  0.15325556836E+03 -0.25781937464E+02  0.20006748339E+03  0.00000000000E+00 0. -1.
          1    1    1    2  501    0 -0.11912954207E+03 -0.18019473596E+03 -0.62291335489E+02  0.22481592723E+03  0.00000000000E+00 0. -1.
<scales pt_clust_5="13000.00000" pt_clust_6="13000.00000" pt_clust_7="13000.00000" pt_clust_8="13000.00000" pt_clust_9="209.19729"></scales>
<clustering>
<clus scale="   79.939">  5  6 -1 -1</clus>
<clus scale="   81.030">  2  5  1 -1</clus>
<clus scale="   91.485">  7  8 -1 -1</clus>
<clus scale="  209.197">  1  9  2 -1</clus>
<clus scale="  209.197">  1  5  2 -1</clus>
</clustering>
</event>
<event>
 9    2  0.6469128E-005  0.2081014E+03  0.7546771E-02  0.1176146E+00
         21   -1    0    0  501  502  0.00000000000E+00  0.00000000000E+00  0.47137362506E+03  0.47137362506E+03  0.00000000000E+00 0. -1.
          2   -1    0    0  502    0 -0.00000000000E+00 -0.00000000000E+00 -0.13553716043E+03  0.13553716043E+03  0.00000000000E+00 0. -1.
         24    2    1    2    0    0 -0.40584096040E+02 -0.31812049101E+02  0.11871529133E+03  0.15286886334E+03  0.81341832191E+02 0.  0.
         23    2    1    2    0    0 -0.62855642835E+02 -0.15111483378E+03  0.83608218912E+02  0.20506856403E+03  0.90973935046E+02 0.  0.
        -13    1    3    3    0    0 -0.50974633619E+02 -0.49600454827E+02  0.10885270728E+03  0.13002895936E+03  0.00000000000E+00 0.  1.
         14    1    3    3    0    0  0.10390537579E+02  0.17788405726E+02  0.98625840509E+01  0.22839903976E+02  0.00000000000E+00 0. -1.
        -11    1    4    4    0    0  0.18139495448E+02 -0.56881242565E+02  0.45604040505E+02  0.75128194183E+02  0.00000000000E+00 0.  1.
         11    1    4    4    0    0 -0.80995138282E+02 -0.94233591219E+02  0.38004178407E+02  0.12994036985E+03  0.00000000000E+00 0. -1.
          1    1    1    2  501    0  0.10343973888E+03  0.18292688289E+03  0.13351295439E+03  0.24897335812E+03  0.00000000000E+00 0. -1.
<scales pt_clust_5="13000.00000" pt_clust_6="13000.00000" pt_clust_7="13000.00000" pt_clust_8="13000.00000" pt_clust_9="187.16298"></scales>
<clustering>
<clus scale="   81.342">  5  6 -1 -1</clus>
<clus scale="   90.974">  7  8 -1 -1</clus>
<clus scale="   96.310">  2  5  1 -1</clus>
<clus scale="  187.163">  1  9  2 -1</clus>
<clus scale="  187.163">  1  5  2 -1</clus>
</clustering>
</event>
<event>
 9    2  0.6469128E-005  0.9953637E+02  0.7546771E-02  0.1281494E+00
          2   -1    0    0  502    0 -0.00000000000E+00  0.00000000000E+00  0.41588555957E+03  0.41588555957E+03  0.00000000000E+00 0. -1.
         21   -1    0    0  501  502  0.00000000000E+00 -0.00000000000E+00 -0.39111197327E+02  0.39111197327E+02  0.00000000000E+00 0. -1.
         24    2    1    2    0    0 -0.21226139758E+02  0.40015605930E+02  0.19629860963E+03  0.22081688590E+03  0.90416565024E+02 0.  0.
         23    2    1    2    0    0  0.39266211477E+02 -0.17062385685E+02  0.17910974701E+03  0.20495384700E+03  0.89960088689E+02 0.  0.
        -13    1    3    3    0    0 -0.14594618551E+02  0.31807131036E+02  0.13181288015E+02  0.37395759507E+02  0.00000000000E+00 0.  1.
         14    1    3    3    0    0 -0.66315212078E+01  0.82084748942E+01  0.18311732161E+03  0.18342112639E+03  0.00000000000E+00 0. -1.
        -13    1    4    4    0    0 -0.23561139995E+02 -0.21891686106E+02  0.91871317165E+02  0.97338133104E+02  0.00000000000E+00 0.  1.
         13    1    4    4    0    0  0.62827351472E+02  0.48293004212E+01  0.87238429844E+02  0.10761571390E+03  0.00000000000E+00 0. -1.
          1    1    1    2  501    0 -0.18040071719E+02 -0.22953220245E+02  0.13660056055E+01  0.29226023995E+02  0.00000000000E+00 0. -1.
<scales pt_clust_5="13000.00000" pt_clust_6="13000.00000" pt_clust_7="13000.00000" pt_clust_8="13000.00000" pt_clust_9="29.19408"></scales>
<clustering>
<clus scale="   29.194">  2  9  1 -1</clus>
<clus scale="   89.960">  7  8 -1 -1</clus>
<clus scale="   90.417">  5  6 -1 -1</clus>
<clus scale="   99.122">  2  7  1 -1</clus>
<clus scale="   29.194">  2  5  1 -1</clus>
</clustering>
</event>
<event>
 9    2  0.6469128E-005  0.2297308E+03  0.7546771E-02  0.1126829E+00
         21   -1    0    0  501  502  0.00000000000E+00  0.00000000000E+00  0.77272034984E+02  0.77272034984E+02  0.00000000000E+00 0. -1.
          2   -1    0    0  502    0 -0.00000000000E+00 -0.00000000000E+00 -0.95936064700E+03  0.95936064700E+03  0.00000000000E+00 0. -1.
         24    2    1    2    0    0 -0.84227926572E+01 -0.71783593524E+02 -0.74186562825E+02  0.13258023372E+03  0.82764995826E+02 0.  0.
         23    2    1    2    0    0 -0.53773228023E+02 -0.52261067217E+02 -0.40465128460E+02  0.12417114310E+03  0.90323125269E+02 0.  0.
        -11    1    3    3    0    0  0.32814048571E+02 -0.57351993660E+02 -0.47625594121E+02  0.81450660990E+02  0.00000000000E+00 0.  1.
         12    1    3    3    0    0 -0.41236841228E+02 -0.14431599864E+02 -0.26560968704E+02  0.51129572730E+02  0.00000000000E+00 0. -1.
        -13    1    4    4    0    0 -0.99061367026E+01  0.18306220632E+02  0.13760327719E+02  0.24951871215E+02  0.00000000000E+00 0.  1.
         13    1    4    4    0    0 -0.43867091321E+02 -0.70567287849E+02 -0.54225456179E+02  0.99219271883E+02  0.00000000000E+00 0. -1.
          1    1    1    2  501    0  0.62196020680E+02  0.12404466074E+03 -0.76743692073E+03  0.77988130517E+03  0.00000000000E+00 0. -1.
<scales pt_clust_5="13000.00000" pt_clust_6="13000.00000" pt_clust_7="13000.00000" pt_clust_8="13000.00000" pt_clust_9="138.76398"></scales>
<clustering>
<clus scale="   82.765">  5  6 -1 -1</clus>
<clus scale="   90.323">  7  8 -1 -1</clus>
<clus scale="  106.214">  5  7 -1 -1</clus>
<clus scale="  138.764">  1  9  2 -1</clus>
<clus scale="  138.764">  1  5  2 -1</clus>
</clustering>
</event>
<event>
 9    2  0.6469128E-005  0.1860691E+03  0.7546771E-02  0.1177842E+00
         -3   -1    0    0    0  501 -0.00000000000E+00  0.00000000000E+00  0.34026624384E+02  0.34026624384E+02  0.00000000000E+00 0.  1.
         21   -1    0    0  501  502  0.00000000000E+00 -0.00000000000E+00 -0.19727594397E+04  0.19727594397E+04  0.00000000000E+00 0.  1.
         23    2    1    2    0    0 -0.36341880430E+02 -0.85040770863E+02 -0.57209743151E+03  0.58660821499E+03  0.90890383246E+02 0.  0.
         24    2    1    2    0    0 -0.15846899932E+02  0.21976160491E+03 -0.72583192668E+03  0.76328939389E+03  0.85043670008E+02 0.  0.
        -13    1    4    4    0    0 -0.34032720184E+01  0.19894752087E+03 -0.70054065907E+03  0.72825058416E+03  0.00000000000E+00 0.  1.
         14    1    4    4    0    0 -0.12443627914E+02  0.20814084034E+02 -0.25291267608E+02  0.35038809726E+02  0.00000000000E+00 0. -1.
        -13    1    3    3    0    0 -0.66706243764E+02 -0.58598728063E+02 -0.41904081260E+03  0.42834417997E+03  0.00000000000E+00 0.  1.
         13    1    3    3    0    0  0.30364363334E+02 -0.26442042800E+02 -0.15305661891E+03  0.15826403502E+03  0.00000000000E+00 0. -1.
         -4    1    1    2    0  502  0.52188780362E+02 -0.13472083405E+03 -0.64080345717E+03  0.65688845525E+03  0.00000000000E+00 0.  1.
<scales pt_clust_5="13000.00000" pt_clust_6="13000.00000" pt_clust_7="13000.00000" pt_clust_8="13000.00000" pt_clust_9="165.49704"></scales>
<clustering>
<clus scale="   85.044">  5  6 -1 -1</clus>
<clus scale="   90.890">  7  8 -1 -1</clus>
<clus scale="  129.668">  1  7  2 -1</clus>
<clus scale="  165.497">  2  9  1 -1</clus>
<clus scale="  165.497">  2  5  1 -1</clus>
</clustering>
</event>
<event>
 9    2  0.6469128E-005  0.1524227E+03  0.7546771E-02  0.1199483E+00
         -1   -1    0    0    0  501 -0.00000000000E+00  0.00000000000E+00  0.18044949495E+03  0.18044949495E+03  0.00000000000E+00 0.  1.
         21   -1    0    0  501  502  0.00000000000E+00 -0.00000000000E+00 -0.39354106683E+03  0.39354106683E+03  0.00000000000E+00 0.  1.
         23    2    1    2    0    0 -0.12721241698E+03  0.55189819145E+01  0.12012823728E+03  0.19773308968E+03  0.91946305904E+02 0.  0.
         24    2    1    2    0    0  0.91996287363E+02 -0.13611368151E+02 -0.17574456992E+03  0.21468979751E+03  0.80975113873E+02 0.  0.
        -11    1    4    4    0    0  0.92305520555E+02 -0.23212996987E+01 -0.92554357375E+02  0.13073640131E+03  0.00000000000E+00 0.  1.
         12    1    4    4    0    0 -0.30923319254E+00 -0.11290068453E+02 -0.83190212546E+02  0.83953396205E+02  0.00000000000E+00 0. -1.
        -13    1    3    3    0    0 -0.33849049055E+02  0.14216137268E+02  0.93207843074E+02  0.10017763568E+03  0.00000000000E+00 0. -1.
         13    1    3    3    0    0 -0.93363367920E+02 -0.86971553538E+01  0.26920394206E+02  0.97555453998E+02  0.00000000000E+00 0.  1.
         -2    1    1    2    0  502  0.35216129612E+02  0.80923862369E+01 -0.15747523924E+03  0.16156767459E+03  0.00000000000E+00 0.  1.
<scales pt_clust_5="13000.00000" pt_clust_6="13000.00000" pt_clust_7="13000.00000" pt_clust_8="13000.00000" pt_clust_9="36.13395"></scales>
<clustering>
<clus scale="   36.134">  2  9  1 -1</clus>
<clus scale="   80.975">  5  6 -1 -1</clus>
<clus scale="   91.946">  7  8 -1 -1</clus>
<clus scale="  146.067">  2  5  1 -1</clus>
<clus scale="   36.134">  2  5  1 -1</clus>
</clustering>
</event>
<event>
 9    2  0.6469128E-005  0.9618974E+02  0.7546771E-02  0.1294932E+00
         -1   -1    0    0    0  501 -0.00000000000E+00  0.00000000000E+00  0.32364483655E+03  0.32364483655E+03  0.00000000000E+00 0.  1.
         21   -1    0    0  501  502  0.00000000000E+00 -0.00000000000E+00 -0.57702686948E+02  0.57702686948E+02  0.00000000000E+00 0. -1.
         24    2    1    2    0    0  0.33739159114E+02  0.11357940884E+02  0.23195972802E+03  0.24775085335E+03  0.79421887631E+02 0.  0.
         23    2    1    2    0    0 -0.17739436736E+02  0.38449876087E+01  0.50864584775E+02  0.10580948633E+03  0.90988844746E+02 0.  0.
        -13    1    3    3    0    0  0.55285742252E+02 -0.97990823381E+01  0.13541830924E+03  0.14659690920E+03  0.00000000000E+00 0.  1.
         14    1    3    3    0    0 -0.21546583138E+02  0.21157023222E+02  0.96541418777E+02  0.10115394414E+03  0.00000000000E+00 0. -1.
        -11    1    4    4    0    0  0.17523936343E+02  0.39096691539E+02  0.21380756858E+02  0.47882944752E+02  0.00000000000E+00 0. -1.
         11    1    4    4    0    0 -0.35263373079E+02 -0.35251703930E+02  0.29483827917E+02  0.57926541581E+02  0.00000000000E+00 0.  1.
         -2    1    1    2    0  502 -0.15999722378E+02 -0.15202928492E+02 -0.16882163185E+02  0.27787183821E+02  0.00000000000E+00 0.  1.
<scales pt_clust_5="13000.00000" pt_clust_6="13000.00000" pt_clust_7="13000.00000" pt_clust_8="13000.00000" pt_clust_9="22.07080"></scales>
<clustering>
<clus scale="   22.071">  2  9  1 -1</clus>
<clus scale="   79.422">  5  6 -1 -1</clus>
<clus scale="   85.331">  1  5  2 -1</clus>
<clus scale="   90.989">  7  8 -1 -1</clus>
<clus scale="   22.071">  2  5  1 -1</clus>
</clustering>
</event>
<event>
 9    2  0.6469128E-005  0.1189130E+03  0.7546771E-02  0.1250422E+00
         21   -1    0    0  501  502  0.00000000000E+00  0.00000000000E+00  0.18136799205E+03  0.18136799205E+03  0.00000000000E+00 0. -1.
          2   -1    0    0  502    0 -0.00000000000E+00 -0.00000000000E+00 -0.95558909632E+02  0.95558909632E+02  0.00000000000E+00 0. -1.
         24    2    1    2    0    0 -0.93942298116E+01  0.79333694271E+02  0.16979944820E+02  0.11412624112E+03  0.79714451547E+02 0.  0.
         23    2    1    2    0    0  0.11519826180E+02 -0.54223184186E+02  0.78677985010E+02  0.13574413322E+03  0.95725567535E+02 0.  0.
        -11    1    3    3    0    0 -0.35553701824E+02  0.14985243599E+02 -0.95881217564E+01  0.39756198484E+02  0.00000000000E+00 0.  1.
         12    1    3    3    0    0  0.26159472012E+02  0.64348450672E+02  0.26568066576E+02  0.74370042634E+02  0.00000000000E+00 0. -1.
        -13    1    4    4    0    0  0.39294546249E+02  0.48531162080E+01  0.51676478577E+02  0.65100480336E+02  0.00000000000E+00 0.  1.
         13    1    4    4    0    0 -0.27774720069E+02 -0.59076300394E+02  0.27001506433E+02  0.70643652884E+02  0.00000000000E+00 0. -1.
          1    1    1    2  501    0 -0.21255963688E+01 -0.25110510084E+02 -0.98488474101E+01  0.27056527344E+02  0.00000000000E+00 0. -1.
<scales pt_clust_5="13000.00000" pt_clust_6="13000.00000" pt_clust_7="13000.00000" pt_clust_8="13000.00000" pt_clust_9="25.20033"></scales>
<clustering>
<clus scale="   25.200">  1  9  2 -1</clus>
<clus scale="   79.714">  5  6 -1 -1</clus>
<clus scale="   95.726">  7  8 -1 -1</clus>
<clus scale="  106.449">  2  5  1 -1</clus>
<clus scale="   25.200">  1  5  2 -1</clus>
</clustering>
</event>
<event>
 9    2  0.6469128E-005  0.1322686E+03  0.7546771E-02  0.1226163E+00
          2   -1    0    0  502    0 -0.00000000000E+00  0.00000000000E+00  0.86447485964E+03  0.86447485964E+03  0.00000000000E+00 0. -1.
         21   -1    0    0  501  502  0.00000000000E+00 -0.00000000000E+00 -0.25436115139E+03  0.25436115139E+03  0.00000000000E+00 0. -1.
         24    2    1    2    0    0 -0.53284154732E+02  0.64998238106E+02  0.34811544196E+03  0.36737752301E+03  0.81962865839E+02 0.  0.
         23    2    1    2    0    0  0.87557513860E+02 -0.68655015185E+02  0.49531347941E+03  0.51561102919E+03  0.90218962464E+02 0.  0.
        -13    1    3    3    0    0 -0.55889747916E+02  0.84752632917E+01  0.12480738186E+03  0.13701232272E+03  0.00000000000E+00 0.  1.
         14    1    3    3    0    0  0.26055931838E+01  0.56522974815E+02  0.22330806011E+03  0.23036520029E+03  0.00000000000E+00 0. -1.
        -11    1    4    4    0    0  0.41176621006E+02  0.13404836775E+02  0.23023744341E+03  0.23427437785E+03  0.00000000000E+00 0. -1.
         11    1    4    4    0    0  0.46380892854E+02 -0.82059851960E+02  0.26507603600E+03  0.28133665134E+03  0.00000000000E+00 0.  1.
          1    1    1    2  501    0 -0.34273359128E+02  0.36567770787E+01 -0.23331521313E+03  0.23584745884E+03  0.00000000000E+00 0. -1.
<scales pt_clust_5="13000.00000" pt_clust_6="13000.00000" pt_clust_7="13000.00000" pt_clust_8="13000.00000" pt_clust_9="34.46789"></scales>
<clustering>
<clus scale="   34.468">  2  9  1 -1</clus>
<clus scale="   81.963">  5  6 -1 -1</clus>
<clus scale="   90.219">  7  8 -1 -1</clus>
<clus scale="  126.781">  1  5  2 -1</clus>
<clus scale="   34.468">  2  5  1 -1</clus>
</clustering>
</event>
<event>
 9    2  0.6469128E-005  0.9256854E+02  0.7546771E-02  0.1303262E+00
         21   -1    0    0  501  502  0.00000000000E+00  0.00000000000E+00  0.11038559474E+03  0.11038559474E+03  0.00000000000E+00 0. -1.
          4   -1    0    0  502    0 -0.00000000000E+00 -0.00000000000E+00 -0.17129884259E+03  0.17129884259E+03  0.00000000000E+00 0. -1.
         24    2    1    2    0    0  0.16022240009E+02 -0.11228368469E+02 -0.17760015526E+01  0.82500215244E+02  0.80127042254E+02 0.  0.
         23    2    1    2    0    0  0.56937601097E+02 -0.17374182164E+02 -0.16120999224E+02  0.10978823880E+03  0.90828509497E+02 0.  0.
        -11    1    3    3    0    0  0.23318714075E+02 -0.42008548251E+02 -0.11504642083E+02  0.49404831158E+02  0.00000000000E+00 0.  1.
         12    1    3    3    0    0 -0.72964740660E+01  0.30780179782E+02  0.97286405308E+01  0.33095384086E+02  0.00000000000E+00 0. -1.
        -13    1    4    4    0    0  0.72383018989E+02 -0.38833292344E+02 -0.13014785650E+02  0.83166764262E+02  0.00000000000E+00 0.  1.
         13    1    4    4    0    0 -0.15445417892E+02  0.21459110180E+02 -0.31062135744E+01  0.26621474534E+02  0.00000000000E+00 0. -1.
          3    1    1    2  501    0 -0.72959841106E+02  0.28602550632E+02 -0.43016247074E+02  0.89395983294E+02  0.00000000000E+00 0. -1.
<scales pt_clust_5="13000.00000" pt_clust_6="13000.00000" pt_clust_7="13000.00000" pt_clust_8="13000.00000" pt_clust_9="78.36613"></scales>
<clustering>
<clus scale="   78.366">  1  9  2 -1</clus>
<clus scale="   80.127">  5  6 -1 -1</clus>
<clus scale="   82.094">  2  5  1 -1</clus>
<clus scale="   90.829">  7  8 -1 -1</clus>
<clus scale="   78.366">  1  5  2 -1</clus>
</clustering>
</event>
<event>
 9    2  0.6469128E-005  0.2129807E+03  0.7546771E-02  0.1173070E+00
         21   -1    0    0  501  502  0.00000000000E+00  0.00000000000E+00  0.74407357435E+02  0.74407357435E+02  0.00000000000E+00 0. -1.
          2   -1    0    0  502    0 -0.00000000000E+00 -0.00000000000E+00 -0.10048547308E+04  0.10048547308E+04  0.00000000000E+00 0. -1.
         24    2    1    2    0    0 -0.46436279507E+02 -0.37235700074E+02 -0.38339218383E+03  0.39531042636E+03  0.75749199013E+02 0.  0.
         23    2    1    2    0    0  0.11856887484E+03 -0.14837232531E+03 -0.30440363894E+03  0.37005163735E+03  0.90574355683E+02 0.  0.
        -11    1    3    3    0    0 -0.35438329178E+02 -0.59046981000E+02 -0.32106545204E+03  0.32836785110E+03  0.00000000000E+00 0.  1.
         12    1    3    3    0    0 -0.10997950329E+02  0.21811280926E+02 -0.62326731791E+02  0.66942575263E+02  0.00000000000E+00 0. -1.
        -13    1    4    4    0    0  0.72612253049E+02 -0.85596511787E+02 -0.25306007856E+03  0.27683696553E+03  0.00000000000E+00 0. -1.
         13    1    4    4    0    0  0.45956621795E+02 -0.62775813520E+02 -0.51343560375E+02  0.93214671817E+02  0.00000000000E+00 0.  1.
          1    1    1    2  501    0 -0.72132595337E+02  0.18560802538E+03 -0.24265155063E+03  0.31390002456E+03  0.00000000000E+00 0. -1.
<scales pt_clust_5="13000.00000" pt_clust_6="13000.00000" pt_clust_7="13000.00000" pt_clust_8="13000.00000" pt_clust_9="192.76170"></scales>
<clustering>
<clus scale="   75.749">  5  6 -1 -1</clus>
<clus scale="   90.574">  7  8 -1 -1</clus>
<clus scale="   96.337">  2  5  1 -1</clus>
<clus scale="  192.762">  1  9  2 -1</clus>
<clus scale="  192.762">  1  5  2 -1</clus>
</clustering>
</event>
<event>
 9    2  0.6469128E-005  0.1819705E+03  0.7546771E-02  0.1174876E+00
          2   -1    0    0  502    0 -0.00000000000E+00  0.00000000000E+00  0.81392844999E+03  0.81392844999E+03  0.00000000000E+00 0. -1.
         21   -1    0    0  501  502  0.00000000000E+00 -0.00000000000E+00 -0.24905374855E+03  0.24905374855E+03  0.00000000000E+00 0. -1.
         23    2    1    2    0    0  0.11717443264E+03  0.30616349561E+02 -0.11017892617E+03  0.18470780652E+03  0.85500698781E+02 0.  0.
         24    2    1    2    0    0 -0.40529433658E+02  0.11703520847E+03  0.69428115123E+03  0.71080757107E+03  0.88776185557E+02 0.  0.
        -13    1    4    4    0    0 -0.48167835160E+02  0.16118652676E+02  0.20872642820E+03  0.21481776728E+03  0.00000000000E+00 0.  1.
         14    1    4    4    0    0  0.76384015025E+01  0.10091655579E+03  0.48555472303E+03  0.49598980379E+03  0.00000000000E+00 0. -1.
        -13    1    3    3    0    0  0.19689849699E+02  0.32517307238E+02 -0.69178493645E+02  0.78934969653E+02  0.00000000000E+00 0. -1.
         13    1    3    3    0    0  0.97484582940E+02 -0.19009576768E+01 -0.41000432523E+02  0.10577283686E+03  0.00000000000E+00 0.  1.
          1    1    1    2  501    0 -0.76644998981E+02 -0.14765155803E+03 -0.19227523612E+02  0.16746682096E+03  0.00000000000E+00 0. -1.
<scales pt_clust_5="13000.00000" pt_clust_6="13000.00000" pt_clust_7="13000.00000" pt_clust_8="13000.00000" pt_clust_9="158.84601"></scales>
<clustering>
<clus scale="   85.501">  7  8 -1 -1</clus>
<clus scale="   88.776">  5  6 -1 -1</clus>
<clus scale="  148.248">  1  7  2 -1</clus>
<clus scale="  158.846">  2  9  1 -1</clus>
<clus scale="  158.846">  2  5  1 -1</clus>
</clustering>
</event>
<event>
 9    2  0.6469128E-005  0.1689572E+03  0.7546771E-02  0.1209550E+00
         21   -1    0    0  501  502  0.00000000000E+00  0.00000000000E+00  0.12336630616E+03  0.12336630616E+03  0.00000000000E+00 0.  1.
          2   -1    0    0  502    0 -0.00000000000E+00 -0.00000000000E+00 -0.39766361047E+03  0.39766361047E+03  0.00000000000E+00 0. -1.
         24    2    1    2    0    0 -0.25943603508E+02  0.21376910720E+02 -0.14953744108E+03  0.17266662020E+03  0.79512719560E+02 0.  0.
         23    2    1    2    0    0  0.15302222655E+03 -0.21347619231E+02 -0.13196627342E+02  0.17926175033E+03  0.89939432362E+02 0.  0.
        -11    1    3    3    0    0  0.19377341068E+02 -0.97718365611E+01 -0.85715518953E+02  0.88420135298E+02  0.00000000000E+00 0.  1.
         12    1    3    3    0    0 -0.45320944576E+02  0.31148747281E+02 -0.63821922123E+02  0.84246484900E+02  0.00000000000E+00 0. -1.
        -13    1    4    4    0    0  0.72396949068E+02 -0.26139253957E+02 -0.48648291844E+02  0.91056219618E+02  0.00000000000E+00 0. -1.
         13    1    4    4    0    0  0.80625277483E+02  0.47916347256E+01  0.35451664503E+02  0.88205530715E+02  0.00000000000E+00 0.  1.
          1    1    1    2  501    0 -0.12707862304E+03 -0.29291488844E-01 -0.11156323589E+03  0.16910154611E+03  0.00000000000E+00 0. -1.
<scales pt_clust_5="13000.00000" pt_clust_6="13000.00000" pt_clust_7="13000.00000" pt_clust_8="13000.00000" pt_clust_9="143.02955"></scales>
<clustering>
<clus scale="   79.513">  5  6 -1 -1</clus>
<clus scale="   86.327">  2  5  1 -1</clus>
<clus scale="   89.939">  7  8 -1 -1</clus>
<clus scale="  143.030">  1  9  2 -1</clus>
<clus scale="  143.030">  1  5  2 -1</clus>
</clustering>
</event>
<event>
 9    2  0.6469128E-005  0.8584165E+03  0.7546771E-02  0.9479606E-01
          2   -1    0    0  502    0 -0.00000000000E+00  0.00000000000E+00  0.22507867992E+04  0.22507867992E+04  0.00000000000E+00 0. -1.
         21   -1    0    0  501  502  0.00000000000E+00 -0.00000000000E+00 -0.39905691976E+03  0.39905691976E+03  0.00000000000E+00 0. -1.
         24    2    1    2    0    0  0.71470376605E+03 -0.56737169755E+03  0.96268552743E+03  0.13288214650E+04  0.79315476257E+02 0.  0.
         23    2    1    2    0    0 -0.68964189022E+03  0.40038493891E+03  0.67941067652E+03  0.10518402466E+04  0.94101014560E+02 0.  0.
        -13    1    3    3    0    0  0.27637761768E+03 -0.20347248161E+03  0.30999554688E+03  0.46247473164E+03  0.00000000000E+00 0.  1.
         14    1    3    3    0    0  0.43832614838E+03 -0.36389921594E+03  0.65268998055E+03  0.86634673337E+03  0.00000000000E+00 0. -1.
        -13    1    4    4    0    0 -0.44596532679E+02  0.17468495298E+02  0.72690639259E+02  0.87051295744E+02  0.00000000000E+00 0.  1.
         13    1    4    4    0    0 -0.64504535754E+03  0.38291644361E+03  0.60672003726E+03  0.96478895085E+03  0.00000000000E+00 0. -1.
          1    1    1    2  501    0 -0.25061875830E+02  0.16698675864E+03  0.20963367554E+03  0.26918200739E+03  0.00000000000E+00 0. -1.
<scales pt_clust_5="13000.00000" pt_clust_6="13000.00000" pt_clust_7="13000.00000" pt_clust_8="13000.00000" pt_clust_9="168.85705"></scales>
<clustering>
<clus scale="   79.315">  5  6 -1 -1</clus>
<clus scale="   94.101">  7  8 -1 -1</clus>
<clus scale="  168.857">  2  9  1 -1</clus>
<clus scale="  856.922">  1  5  2 -1</clus>
<clus scale="  168.857">  2  5  1 -1</clus>
</clustering>
</event>
<event>
 9    2  0.6469128E-005  0.1171677E+03  0.7546771E-02  0.1251826E+00
          2   -1    0    0  502    0 -0.00000000000E+00  0.00000000000E+00  0.11631961616E+03  0.11631961616E+03  0.00000000000E+00 0. -1.
         21   -1    0    0  501  502  0.00000000000E+00 -0.00000000000E+00 -0.18845330604E+03  0.18845330604E+03  0.00000000000E+00 0.  1.
         24    2    1    2    0    0  0.49349468886E+02 -0.59500648210E+02  0.35026375572E+02  0.11756787785E+03  0.81361303454E+02 0.  0.
         23    2    1    2    0    0 -0.93848824761E+01  0.62919284936E+02 -0.70589352710E+02  0.13292546924E+03  0.92948433126E+02 0.  0.
        -11    1    3    3    0    0  0.44258372695E+02  0.73683481202E+01  0.98555970483E+01  0.45937227832E+02  0.00000000000E+00 0.  1.
         12    1    3    3    0    0  0.50910961905E+01 -0.66868996330E+02  0.25170778523E+02  0.71630650019E+02  0.00000000000E+00 0. -1.
        -11    1    4    4    0    0  0.33317475074E+02  0.51392491299E+02 -0.17244403687E+02  0.63628702373E+02  0.00000000000E+00 0.  1.
         11    1    4    4    0    0 -0.42702357550E+02  0.11526793638E+02 -0.53344949023E+02  0.69296766866E+02  0.00000000000E+00 0. -1.
          1    1    1    2  501    0 -0.39964586410E+02 -0.34186367263E+01 -0.36570712742E+02  0.54279575113E+02  0.00000000000E+00 0. -1.
<scales pt_clust_5="13000.00000" pt_clust_6="13000.00000" pt_clust_7="13000.00000" pt_clust_8="13000.00000" pt_clust_9="40.11054"></scales>
<clustering>
<clus scale="   40.111">  2  9  1 -1</clus>
<clus scale="   81.361">  5  6 -1 -1</clus>
<clus scale="   92.948">  7  8 -1 -1</clus>
<clus scale="  108.206">  1  5  2 -1</clus>
<clus scale="   40.111">  2  5  1 -1</clus>
</clustering>
</event>
<event>
 9    2  0.6469128E-005  0.2889839E+03  0.7546771E-02  0.1133750E+00
          2   -1    0    0  502    0 -0.00000000000E+00  0.00000000000E+00  0.93223901568E+03  0.93223901568E+03  0.00000000000E+00 0. -1.
         21   -1    0    0  501  502  0.00000000000E+00 -0.00000000000E+00 -0.12965537547E+03  0.12965537547E+03  0.00000000000E+00 0. -1.
         24    2    1    2    0    0 -0.16733985156E+02 -0.50347680913E+02  0.12931917100E+03  0.16188553045E+03  0.81661262227E+02 0.  0.
         23    2    1    2    0    0 -0.23729857263E+03 -0.81789099459E+02  0.49567294777E+03  0.56306462552E+03  0.91378509492E+02 0.  0.
        -11    1    3    3    0    0  0.98443459117E+01 -0.38737317124E+02  0.12659463147E+03  0.13275425267E+03  0.00000000000E+00 0.  1.
         12    1    3    3    0    0 -0.26578331068E+02 -0.11610363789E+02  0.27245395316E+01  0.29131277784E+02  0.00000000000E+00 0. -1.
        -13    1    4    4    0    0 -0.21760425319E+02 -0.30149489832E+02  0.31657380999E+02  0.48833365836E+02  0.00000000000E+00 0.  1.
         13    1    4    4    0    0 -0.21553814731E+03 -0.51639609627E+02  0.46401556677E+03  0.51423125968E+03  0.00000000000E+00 0. -1.
          1    1    1    2  501    0  0.25403255778E+03  0.13213678037E+03  0.17759152144E+03  0.33694423519E+03  0.00000000000E+00 0. -1.
<scales pt_clust_5="13000.00000" pt_clust_6="13000.00000" pt_clust_7="13000.00000" pt_clust_8="13000.00000" pt_clust_9="274.15625"></scales>
<clustering>
<clus scale="   81.661">  5  6 -1 -1</clus>
<clus scale="   91.379">  7  8 -1 -1</clus>
<clus scale="   97.383">  1  5  2 -1</clus>
<clus scale="  274.156">  2  9  1 -1</clus>
<clus scale="  274.156">  2  5  1 -1</clus>
</clustering>
</event>
<event>
 9    2  0.6469128E-005  0.1168228E+03  0.7546771E-02  0.1255569E+00
         21   -1    0    0  501  502  0.00000000000E+00  0.00000000000E+00  0.10444602648E+03  0.10444602648E+03  0.00000000000E+00 0.  1.
          2   -1    0    0  502    0 -0.00000000000E+00 -0.00000000000E+00 -0.31057606991E+03  0.31057606991E+03  0.00000000000E+00 0. -1.
         23    2    1    2    0    0  0.63654475229E+02 -0.27591075401E+02 -0.25720329211E+03  0.28327037118E+03  0.96308930310E+02 0.  0.
         24    2    1    2    0    0 -0.52685452967E+02  0.39423679424E+01  0.29098984834E+02  0.97657017625E+02  0.76803925380E+02 0.  0.
        -13    1    4    4    0    0 -0.26194602206E+02  0.38613985775E+02  0.28739288584E+01  0.46748866823E+02  0.00000000000E+00 0.  1.
         14    1    4    4    0    0 -0.26490850760E+02 -0.34671617833E+02  0.26225055975E+02  0.50908150802E+02  0.00000000000E+00 0. -1.
        -13    1    3    3    0    0  0.41205092940E+02 -0.37836170678E+02 -0.25189136187E+03  0.25802847455E+03  0.00000000000E+00 0. -1.
         13    1    3    3    0    0  0.22449382289E+02  0.10245095277E+02 -0.53119302403E+01  0.25241896626E+02  0.00000000000E+00 0.  1.
          1    1    1    2  501    0 -0.10969022263E+02  0.23648707459E+02  0.21974263844E+02  0.34094707586E+02  0.00000000000E+00 0. -1.
<scales pt_clust_5="13000.00000" pt_clust_6="13000.00000" pt_clust_7="13000.00000" pt_clust_8="13000.00000" pt_clust_9="26.06877"></scales>
<clustering>
<clus scale="   26.069">  1  9  2 -1</clus>
<clus scale="   76.804">  5  6 -1 -1</clus>
<clus scale="   96.309">  7  8 -1 -1</clus>
<clus scale="  101.346">  1  5  2 -1</clus>
<clus scale="   26.069">  1  5  2 -1</clus>
</clustering>
</event>
<event>
 9    2  0.6469128E-005  0.1141301E+03  0.7546771E-02  0.1255857E+00
         21   -1    0    0  501  502  0.00000000000E+00  0.00000000000E+00  0.14526874847E+03  0.14526874847E+03  0.00000000000E+00 0.  1.
          2   -1    0    0  502    0 -0.00000000000E+00 -0.00000000000E+00 -0.16348074050E+03  0.16348074050E+03  0.00000000000E+00 0. -1.
         23    2    1    2    0    0 -0.75643747524E+02 -0.80238759991E+01 -0.72726570909E+02  0.13778808931E+03  0.88938429899E+02 0.  0.
         24    2    1    2    0    0  0.60296054198E+02  0.29563727762E+02 -0.55021494865E+01  0.10537539058E+03  0.81018955434E+02 0.  0.
        -11    1    4    4    0    0  0.59908930284E+02  0.52314363690E+02 -0.14610425676E+02  0.80866167923E+02  0.00000000000E+00 0.  1.
         12    1    4    4    0    0  0.38712391384E+00 -0.22750635928E+02  0.91082761892E+01  0.24509222656E+02  0.00000000000E+00 0. -1.
        -13    1    3    3    0    0 -0.47169676373E+02 -0.44458239528E+02 -0.63291446943E+02  0.90594264097E+02  0.00000000000E+00 0. -1.
         13    1    3    3    0    0 -0.28474071151E+02  0.36434363529E+02 -0.94351239666E+01  0.47193825210E+02  0.00000000000E+00 0.  1.
          1    1    1    2  501    0  0.15347693327E+02 -0.21539851763E+02  0.60016728363E+02  0.65586009086E+02  0.00000000000E+00 0. -1.
<scales pt_clust_5="13000.00000" pt_clust_6="13000.00000" pt_clust_7="13000.00000" pt_clust_8="13000.00000" pt_clust_9="26.44838"></scales>
<clustering>
<clus scale="   26.448">  1  9  2 -1</clus>
<clus scale="   81.019">  5  6 -1 -1</clus>
<clus scale="   88.938">  7  8 -1 -1</clus>
<clus scale="  108.073">  1  5  2 -1</clus>
<clus scale="   26.448">  1  5  2 -1</clus>
</clustering>
</event>
<event>
 9    2  0.6469128E-005  0.9045886E+02  0.7546771E-02  0.1311483E+00
          2   -1    0    0  502    0 -0.00000000000E+00  0.00000000000E+00  0.32395236965E+03  0.32395236965E+03  0.00000000000E+00 0. -1.
         21   -1    0    0  501  502  0.00000000000E+00 -0.00000000000E+00 -0.23770938713E+03  0.23770938713E+03  0.00000000000E+00 0. -1.
         24    2    1    2    0    0  0.21995363016E+00  0.67173422587E+00  0.25135014443E+03  0.26247863306E+03  0.75615065311E+02 0.  0.
         23    2    1    2    0    0 -0.93833225450E+01 -0.23458099358E+02  0.33075248559E+02  0.99484717164E+02  0.90359878898E+02 0.  0.
        -13    1    3    3    0    0 -0.37366748699E+02 -0.10849472428E+01  0.14188157931E+03  0.14672366396E+03  0.00000000000E+00 0.  1.
         14    1    3    3    0    0  0.37586702329E+02  0.17566814686E+01  0.10946856512E+03  0.11575496910E+03  0.00000000000E+00 0. -1.
        -13    1    4    4    0    0 -0.43716466202E+02  0.90332277604E+01  0.26079706596E+02  0.51699900552E+02  0.00000000000E+00 0.  1.
         13    1    4    4    0    0  0.34333143657E+02 -0.32491327119E+02  0.69955419634E+01  0.47784816612E+02  0.00000000000E+00 0. -1.
          1    1    1    2  501    0  0.91633689149E+01  0.22786365133E+02 -0.19818241046E+03  0.19969840656E+03  0.00000000000E+00 0. -1.
<scales pt_clust_5="13000.00000" pt_clust_6="13000.00000" pt_clust_7="13000.00000" pt_clust_8="13000.00000" pt_clust_9="24.55984"></scales>
<clustering>
<clus scale="   24.560">  2  9  1 -1</clus>
<clus scale="   75.615">  5  6 -1 -1</clus>
<clus scale="   75.733">  1  5  2 -1</clus>
<clus scale="   90.360">  7  8 -1 -1</clus>
<clus scale="   24.560">  2  5  1 -1</clus>
</clustering>
</event>
<event>
 9    2  0.6469128E-005  0.9839698E+02  0.7546771E-02  0.1289398E+00
         21   -1    0    0  501  502  0.00000000000E+00  0.00000000000E+00  0.70461122881E+02  0.70461122881E+02  0.00000000000E+00 0. -1.
          2   -1    0    0  502    0 -0.00000000000E+00 -0.00000000000E+00 -0.17497743605E+03  0.17497743605E+03  0.00000000000E+00 0. -1.
         24    2    1    2    0    0 -0.16091362164E+02 -0.25011607684E+02 -0.58984765428E+02  0.10468195007E+03  0.81207115835E+02 0.  0.
         23    2    1    2    0    0 -0.26361989189E+01  0.47353450538E+02 -0.40639815614E+02  0.11119635634E+03  0.91998566438E+02 0.  0.
        -13    1    3    3    0    0  0.12873491726E+02  0.23095689431E+02 -0.34385260423E+02  0.43376073979E+02  0.00000000000E+00 0.  1.
         14    1    3    3    0    0 -0.28964853890E+02 -0.48107297115E+02 -0.24599505005E+02  0.61305876089E+02  0.00000000000E+00 0. -1.
        -11    1    4    4    0    0  0.36769939207E+02  0.46739833272E+02 -0.40201481846E+02  0.71783003463E+02  0.00000000000E+00 0.  1.
         11    1    4    4    0    0 -0.39406138126E+02  0.61361726693E+00 -0.43833376797E+00  0.39413352873E+02  0.00000000000E+00 0. -1.
          1    1    1    2  501    0  0.18727561083E+02 -0.22341842854E+02 -0.48917321259E+01  0.29560252526E+02  0.00000000000E+00 0. -1.
<scales pt_clust_5="13000.00000" pt_clust_6="13000.00000" pt_clust_7="13000.00000" pt_clust_8="13000.00000" pt_clust_9="29.15269"></scales>
<clustering>
<clus scale="   29.153">  1  9  2 -1</clus>
<clus scale="   81.207">  5  6 -1 -1</clus>
<clus scale="   88.390">  2  5  1 -1</clus>
<clus scale="   91.999">  7  8 -1 -1</clus>
<clus scale="   29.153">  1  5  2 -1</clus>
</clustering>
</event>
<event>
 9    2  0.1297816E-004  0.1026873E+03  0.7546771E-02  0.1281099E+00
         -3   -1    0    0    0  501 -0.00000000000E+00  0.00000000000E+00  0.85343219271E+02  0.85343219271E+02  0.00000000000E+00 0.  1.
         21   -1    0    0  501  502  0.00000000000E+00 -0.00000000000E+00 -0.50810938950E+03  0.50810938950E+03  0.00000000000E+00 0.  1.
         23    2    1    2    0    0  0.48358356717E+02 -0.12429873558E+02  0.26279031496E+02  0.10903136579E+03  0.93296402980E+02 0.  0.
         24    2    1    2    0    0 -0.59917059234E+01  0.42034428481E+02 -0.11544890320E+03  0.14684480251E+03  0.80200704834E+02 0.  0.
        -13    1    4    4    0    0  0.23062716098E+02 -0.11131474587E+02 -0.15404465548E+02  0.29884714473E+02  0.00000000000E+00 0.  1.
         14    1    4    4    0    0 -0.29054422021E+02  0.53165903068E+02 -0.10004443765E+03  0.11696008804E+03  0.00000000000E+00 0. -1.
        -13    1    3    3    0    0  0.57275462389E+02 -0.44358335430E+02  0.21290884678E+02  0.75507895510E+02  0.00000000000E+00 0.  1.
         13    1    3    3    0    0 -0.89171056715E+01  0.31928461872E+02  0.49881468181E+01  0.33523470282E+02  0.00000000000E+00 0. -1.
         -4    1    1    2    0  502 -0.42366650794E+02 -0.29604554922E+02 -0.33359629853E+03  0.33757644047E+03  0.00000000000E+00 0.  1.
<scales pt_clust_5="13000.00000" pt_clust_6="13000.00000" pt_clust_7="13000.00000" pt_clust_8="13000.00000" pt_clust_9="51.68523"></scales>
<clustering>
<clus scale="   51.685">  2  9  1 -1</clus>
<clus scale="   80.201">  5  6 -1 -1</clus>
<clus scale="   90.954">  2  5  1 -1</clus>
<clus scale="   93.296">  7  8 -1 -1</clus>
<clus scale="   51.685">  2  5  1 -1</clus>
</clustering>
</event>
<event>
 9    2  0.6469128E-005  0.2047373E+03  0.7546771E-02  0.1157983E+00
          4   -1    0    0  502    0 -0.00000000000E+00  0.00000000000E+00  0.53634625232E+02  0.53634625232E+02  0.00000000000E+00 0. -1.
         21   -1    0    0  501  502  0.00000000000E+00 -0.00000000000E+00 -0.18436116971E+04  0.18436116971E+04  0.00000000000E+00 0. -1.
         23    2    1    2    0    0  0.64862825358E+02  0.10455689281E+03 -0.25559297646E+03  0.29817428456E+03  0.91873850534E+02 0.  0.
         24    2    1    2    0    0 -0.18790794986E+03  0.48640689302E+02 -0.44613418774E+03  0.49322509385E+03  0.80993613679E+02 0.  0.
        -13    1    4    4    0    0 -0.23057304776E+02  0.12429377875E+02 -0.14894560386E+02  0.30132651178E+02  0.00000000000E+00 0.  1.
         14    1    4    4    0    0 -0.16485064508E+03  0.36211311427E+02 -0.43123962736E+03  0.46309244268E+03  0.00000000000E+00 0. -1.
        -13    1    3    3    0    0  0.29616992078E+02  0.16920057460E+02 -0.16070689314E+03  0.16428682256E+03  0.00000000000E+00 0.  1.
         13    1    3    3    0    0  0.35245833279E+02  0.87636835355E+02 -0.94886083321E+02  0.13388746201E+03  0.00000000000E+00 0. -1.
          3    1    1    2  501    0  0.12304512450E+03 -0.15319758212E+03 -0.10882499077E+04  0.11058469440E+04  0.00000000000E+00 0. -1.
<scales pt_clust_5="13000.00000" pt_clust_6="13000.00000" pt_clust_7="13000.00000" pt_clust_8="13000.00000" pt_clust_9="188.03567"></scales>
<clustering>
<clus scale="   80.994">  5  6 -1 -1</clus>
<clus scale="   91.874">  7  8 -1 -1</clus>
<clus scale="  153.558">  1  7  2 -1</clus>
<clus scale="  188.036">  2  9  1 -1</clus>
<clus scale="  188.036">  2  5  1 -1</clus>
</clustering>
</event>
<event>
 9    2  0.6469128E-005  0.1693867E+03  0.7546771E-02  0.1203295E+00
          2   -1    0    0  502    0 -0.00000000000E+00  0.00000000000E+00  0.22526323798E+03  0.22526323798E+03  0.00000000000E+00 0. -1.
         21   -1    0    0  501  502  0.00000000000E+00 -0.00000000000E+00 -0.20481521710E+03  0.20481521710E+03  0.00000000000E+00 0. -1.
         24    2    1    2    0    0  0.40345276924E+02  0.38879964624E+02 -0.15481998250E+02  0.99207450088E+02  0.80392990142E+02 0.  0.
         23    2    1    2    0    0 -0.66622107116E+02 -0.14836176529E+03 -0.44787856873E+02  0.19233540671E+03  0.92397175250E+02 0.  0.
        -13    1    3    3    0    0  0.14791752387E+02 -0.24108900212E+02 -0.13150896490E+02  0.31192644752E+02  0.00000000000E+00 0.  1.
         14    1    3    3    0    0  0.25553524537E+02  0.62988864836E+02 -0.23311017599E+01  0.68014805336E+02  0.00000000000E+00 0. -1.
        -11    1    4    4    0    0 -0.11980654192E+02 -0.12695128864E+03 -0.22100850605E+02  0.12941643388E+03  0.00000000000E+00 0. -1.
         11    1    4    4    0    0 -0.54641452924E+02 -0.21410476654E+02 -0.22687006268E+02  0.62918972827E+02  0.00000000000E+00 0.  1.
          1    1    1    2  501    0  0.26276830192E+02  0.10948180067E+03  0.80717876005E+02  0.13853559827E+03  0.00000000000E+00 0. -1.
<scales pt_clust_5="13000.00000" pt_clust_6="13000.00000" pt_clust_7="13000.00000" pt_clust_8="13000.00000" pt_clust_9="141.96702"></scales>
<clustering>
<clus scale="   80.393">  5  6 -1 -1</clus>
<clus scale="   92.397">  7  8 -1 -1</clus>
<clus scale="   97.992">  1  5  2 -1</clus>
<clus scale="  141.967">  2  9  1 -1</clus>
<clus scale="  141.967">  2  5  1 -1</clus>
</clustering>
</event>
<event>
 9    2  0.6469128E-005  0.1530507E+03  0.7546771E-02  0.1204291E+00
         21   -1    0    0  501  502  0.00000000000E+00  0.00000000000E+00  0.12933813925E+03  0.12933813925E+03  0.00000000000E+00 0.  1.
          2   -1    0    0  502    0 -0.00000000000E+00 -0.00000000000E+00 -0.68350405733E+03  0.68350405733E+03  0.00000000000E+00 0. -1.
         24    2    1    2    0    0 -0.61511630303E+02  0.78824227524E+02 -0.55593035545E+03  0.57257407710E+03  0.93731393606E+02 0.  0.
         23    2    1    2    0    0 -0.21431785988E+02 -0.10834965558E+02  0.29621637797E+02  0.12946119883E+03  0.12371759232E+03 0.  0.
        -11    1    3    3    0    0  0.22342082350E+02  0.35579691761E+02 -0.14586379634E+03  0.15179370933E+03  0.00000000000E+00 0.  1.
         12    1    3    3    0    0 -0.83853712653E+02  0.43244535763E+02 -0.41006655910E+03  0.42078036776E+03  0.00000000000E+00 0. -1.
        -13    1    4    4    0    0 -0.66625912384E+02 -0.31829031143E+02  0.29809444541E+02  0.79628527604E+02  0.00000000000E+00 0. -1.
         13    1    4    4    0    0  0.45194126396E+02  0.20994065585E+02 -0.18780674486E+00  0.49832671229E+02  0.00000000000E+00 0.  1.
          1    1    1    2  501    0  0.82943416291E+02 -0.67989261966E+02 -0.27857200421E+02  0.11080692065E+03  0.00000000000E+00 0. -1.
<scales pt_clust_5="13000.00000" pt_clust_6="13000.00000" pt_clust_7="13000.00000" pt_clust_8="13000.00000" pt_clust_9="107.24808"></scales>
<clustering>
<clus scale="   93.731">  5  6 -1 -1</clus>
<clus scale="  107.248">  1  9  2 -1</clus>
<clus scale="  123.718">  7  8 -1 -1</clus>
<clus scale="  130.016">  2  5  1 -1</clus>
<clus scale="  107.248">  1  5  2 -1</clus>
</clustering>
</event>
<event>
 9    2  0.6469128E-005  0.1188927E+03  0.7546771E-02  0.1248120E+00
         21   -1    0    0  501  502  0.00000000000E+00  0.00000000000E+00  0.43415019534E+03  0.43415019534E+03  0.00000000000E+00 0. -1.
          4   -1    0    0  502    0 -0.00000000000E+00 -0.00000000000E+00 -0.56033307693E+02  0.56033307693E+02  0.00000000000E+00 0. -1.
         24    2    1    2    0    0  0.39896764558E+02 -0.74313619330E+02  0.62333492011E+02  0.13217297070E+03  0.80436087160E+02 0.  0.
         23    2    1    2    0    0 -0.63821538555E+02  0.33242639521E+02  0.17748439518E+03  0.21177157132E+03  0.90378238630E+02 0.  0.
        -11    1    3    3    0    0 -0.23649022120E+02 -0.22018733318E+02  0.28875126361E+02  0.43334441113E+02  0.00000000000E+00 0.  1.
         12    1    3    3    0    0  0.63545786678E+02 -0.52294886012E+02  0.33458365650E+02  0.88838529589E+02  0.00000000000E+00 0. -1.
        -13    1    4    4    0    0 -0.24563201917E+01 -0.28227047709E+02  0.50874077253E+02  0.58232048458E+02  0.00000000000E+00 0. -1.
         13    1    4    4    0    0 -0.61365218363E+02  0.61469687230E+02  0.12661031793E+03  0.15353952286E+03  0.00000000000E+00 0.  1.
          3    1    1    2  501    0  0.23924773996E+02  0.41070979809E+02  0.13829900046E+03  0.14623896102E+03  0.00000000000E+00 0. -1.
<scales pt_clust_5="13000.00000" pt_clust_6="13000.00000" pt_clust_7="13000.00000" pt_clust_8="13000.00000" pt_clust_9="47.53125"></scales>
<clustering>
<clus scale="   47.531">  1  9  2 -1</clus>
<clus scale="   80.436">  5  6 -1 -1</clus>
<clus scale="   90.378">  7  8 -1 -1</clus>
<clus scale="  111.522">  2  5  1 -1</clus>
<clus scale="   47.531">  1  5  2 -1</clus>
</clustering>
</event>
<event>
 9    2  0.6469128E-005  0.1285636E+03  0.7546771E-02  0.1233403E+00
         -1   -1    0    0    0  501 -0.00000000000E+00  0.00000000000E+00  0.47962775808E+03  0.47962775808E+03  0.00000000000E+00 0.  1.
         21   -1    0    0  501  502  0.00000000000E+00 -0.00000000000E+00 -0.66343572358E+02  0.66343572358E+02  0.00000000000E+00 0. -1.
         23    2    1    2    0    0 -0.48782242539E+02 -0.67987939581E+02  0.32490186469E+03  0.34812108193E+03  0.92870872106E+02 0.  0.
         24    2    1    2    0    0  0.34713177886E+02  0.10306061605E+03  0.86913433836E+02  0.16003241087E+03  0.78929919857E+02 0.  0.
        -11    1    4    4    0    0 -0.24133453722E+02  0.30403739322E+02  0.13300111963E+02  0.41032961525E+02  0.00000000000E+00 0.  1.
         12    1    4    4    0    0  0.58846631608E+02  0.72656876725E+02  0.73613321873E+02  0.11899944934E+03  0.00000000000E+00 0. -1.
        -13    1    3    3    0    0 -0.76430208990E+02 -0.44670366301E+02  0.24150694984E+03  0.25722096589E+03  0.00000000000E+00 0.  1.
         13    1    3    3    0    0  0.27647966451E+02 -0.23317573280E+02  0.83394914851E+02  0.90900116037E+02  0.00000000000E+00 0. -1.
         -2    1    1    2    0  502  0.14069064653E+02 -0.35072676466E+02  0.14688871990E+01  0.37817837648E+02  0.00000000000E+00 0.  1.
<scales pt_clust_5="13000.00000" pt_clust_6="13000.00000" pt_clust_7="13000.00000" pt_clust_8="13000.00000" pt_clust_9="37.78930"></scales>
<clustering>
<clus scale="   37.789">  2  9  1 -1</clus>
<clus scale="   78.930">  5  6 -1 -1</clus>
<clus scale="   92.871">  7  8 -1 -1</clus>
<clus scale="  118.885">  2  5  1 -1</clus>
<clus scale="   37.789">  2  5  1 -1</clus>
</clustering>
</event>
<event>
 9    2  0.6469128E-005  0.9308250E+02  0.7546771E-02  0.1300956E+00
          2   -1    0    0  502    0 -0.00000000000E+00  0.00000000000E+00  0.55030672574E+03  0.55030672574E+03  0.00000000000E+00 0. -1.
         21   -1    0    0  501  502  0.00000000000E+00 -0.00000000000E+00 -0.50502120523E+02  0.50502120523E+02  0.00000000000E+00 0. -1.
         24    2    1    2    0    0 -0.30182400539E+02  0.20060567480E+02  0.40455931711E+03  0.41401457538E+03  0.80164979200E+02 0.  0.
         23    2    1    2    0    0 -0.23578303210E+02 -0.41283804249E+01  0.92187105026E+02  0.13063912566E+03  0.89415540667E+02 0.  0.
        -13    1    3    3    0    0  0.22333083727E+02  0.20836567020E+02  0.88534534859E+02  0.93655181472E+02  0.00000000000E+00 0.  1.
         14    1    3    3    0    0 -0.52515484266E+02 -0.77599953973E+00  0.31602478225E+03  0.32035939390E+03  0.00000000000E+00 0. -1.
        -11    1    4    4    0    0  0.25211561191E+02  0.37671582743E+01  0.73508030958E+02  0.77802602235E+02  0.00000000000E+00 0.  1.
         11    1    4    4    0    0 -0.48789864401E+02 -0.78955386992E+01  0.18679074068E+02  0.52836523425E+02  0.00000000000E+00 0. -1.
          1    1    1    2  501    0  0.53760703749E+02 -0.15932187056E+02  0.30581830778E+01  0.56155145229E+02  0.00000000000E+00 0. -1.
<scales pt_clust_5="13000.00000" pt_clust_6="13000.00000" pt_clust_7="13000.00000" pt_clust_8="13000.00000" pt_clust_9="56.07181"></scales>
<clustering>
<clus scale="   56.072">  2  9  1 -1</clus>
<clus scale="   80.165">  5  6 -1 -1</clus>
<clus scale="   84.236">  1  5  2 -1</clus>
<clus scale="   89.416">  7  8 -1 -1</clus>
<clus scale="   56.072">  2  5  1 -1</clus>
</clustering>
</event>
<event>
 9    2  0.6469128E-005  0.9404494E+02  0.7546771E-02  0.1297262E+00
         21   -1    0    0  501  502  0.00000000000E+00  0.00000000000E+00  0.89725645170E+02  0.89725645170E+02  0.00000000000E+00 0.  1.
          2   -1    0    0  502    0 -0.00000000000E+00 -0.00000000000E+00 -0.52350152935E+03  0.52350152935E+03  0.00000000000E+00 0. -1.
         23    2    1    2    0    0 -0.32614381780E+00 -0.23664706143E+02 -0.38213517134E+03  0.39329788248E+03  0.89976721977E+02 0.  0.
         24    2    1    2    0    0 -0.59184738919E+02  0.67482974471E+02  0.11366339151E+02  0.12281351370E+03  0.83049264394E+02 0.  0.
        -11    1    4    4    0    0 -0.22279245658E+02  0.27177076591E+02  0.46169891111E+02  0.58022557030E+02  0.00000000000E+00 0.  1.
         12    1    4    4    0    0 -0.36905493260E+02  0.40305897880E+02 -0.34803551960E+02  0.64790956666E+02  0.00000000000E+00 0. -1.
        -13    1    3    3    0    0  0.32159175059E+02 -0.42995157695E+02 -0.25831187308E+03  0.26383293938E+03  0.00000000000E+00 0. -1.
         13    1    3    3    0    0 -0.32485318877E+02  0.19330451552E+02 -0.12382329826E+03  0.12946494310E+03  0.00000000000E+00 0.  1.
          1    1    1    2  501    0  0.59510882737E+02 -0.43818268328E+02 -0.63007051990E+02  0.97115778346E+02  0.00000000000E+00 0. -1.
<scales pt_clust_5="13000.00000" pt_clust_6="13000.00000" pt_clust_7="13000.00000" pt_clust_8="13000.00000" pt_clust_9="73.90254"></scales>
<clustering>
<clus scale="   73.903">  1  9  2 -1</clus>
<clus scale="   83.049">  5  6 -1 -1</clus>
<clus scale="   87.440">  1  5  2 -1</clus>
<clus scale="   89.977">  7  8 -1 -1</clus>
<clus scale="   73.903">  1  5  2 -1</clus>
</clustering>
</event>
<event>
 9    2  0.6469128E-005  0.1389672E+03  0.7546771E-02  0.1237709E+00
         21   -1    0    0  501  502  0.00000000000E+00  0.00000000000E+00  0.33882889321E+02  0.33882889321E+02  0.00000000000E+00 0. -1.
         -3   -1    0    0    0  501 -0.00000000000E+00 -0.00000000000E+00 -0.86686946732E+03  0.86686946732E+03  0.00000000000E+00 0.  1.
         24    2    1    2    0    0  0.99298856791E+01  0.28422053914E+02 -0.31925865893E+03  0.33068980094E+03  0.80766560931E+02 0.  0.
         23    2    1    2    0    0  0.90048889031E+02  0.29989682879E+02 -0.26874005080E+03  0.29908886327E+03  0.90690405985E+02 0.  0.
        -11    1    3    3    0    0  0.30828681561E+02  0.47126573071E+02 -0.24291797925E+03  0.24936011337E+03  0.00000000000E+00 0.  1.
         12    1    3    3    0    0 -0.20898795882E+02 -0.18704519158E+02 -0.76340679682E+02  0.81329687572E+02  0.00000000000E+00 0. -1.
        -13    1    4    4    0    0  0.88412354344E+02 -0.15640938700E+01 -0.13294931910E+03  0.15967063675E+03  0.00000000000E+00 0. -1.
         13    1    4    4    0    0  0.16365346864E+01  0.31553776749E+02 -0.13579073170E+03  0.13941822653E+03  0.00000000000E+00 0.  1.
         -4    1    1    2    0  502 -0.99978774710E+02 -0.58411736793E+02 -0.24498786827E+03  0.27097369243E+03  0.00000000000E+00 0.  1.
<scales pt_clust_5="13000.00000" pt_clust_6="13000.00000" pt_clust_7="13000.00000" pt_clust_8="13000.00000" pt_clust_9="105.29547"></scales>
<clustering>
<clus scale="   80.767">  5  6 -1 -1</clus>
<clus scale="   86.195">  2  5  1 -1</clus>
<clus scale="   90.690">  7  8 -1 -1</clus>
<clus scale="  105.295">  1  9  2 -1</clus>
<clus scale="  105.295">  1  5  2 -1</clus>
</clustering>
</event>
<event>
 9    2  0.6469128E-005  0.2139703E+03  0.7546771E-02  0.1138460E+00
          2   -1    0    0  502    0 -0.00000000000E+00  0.00000000000E+00  0.14325956923E+04  0.14325956923E+04  0.00000000000E+00 0. -1.
         21   -1    0    0  501  502  0.00000000000E+00 -0.00000000000E+00 -0.22941342011E+02  0.22941342011E+02  0.00000000000E+00 0. -1.
         24    2    1    2    0    0  0.42058953234E+02  0.47572292745E+02  0.61273032579E+03  0.62111172856E+03  0.79430778906E+02 0.  0.
         23    2    1    2    0    0  0.58945904807E+02  0.18631086040E+02  0.52963281567E+03  0.54111751684E+03  0.92062536035E+02 0.  0.
        -13    1    3    3    0    0  0.12231358106E+02 -0.17703900499E+02  0.60006990593E+02  0.63748514759E+02  0.00000000000E+00 0.  1.
         14    1    3    3    0    0  0.29827595129E+02  0.65276193244E+02  0.55272333519E+03  0.55736321380E+03  0.00000000000E+00 0. -1.
        -13    1    4    4    0    0 -0.61477566557E+01 -0.28834593878E+02  0.11411825857E+03  0.11786520121E+03  0.00000000000E+00 0.  1.
         13    1    4    4    0    0  0.65093661463E+02  0.47465679918E+02  0.41551455710E+03  0.42325231564E+03  0.00000000000E+00 0. -1.
          1    1    1    2  501    0 -0.10100485804E+03 -0.66203378786E+02  0.26729120882E+03  0.29330778889E+03  0.00000000000E+00 0. -1.
<scales pt_clust_5="13000.00000" pt_clust_6="13000.00000" pt_clust_7="13000.00000" pt_clust_8="13000.00000" pt_clust_9="120.76783"></scales>
<clustering>
<clus scale="   79.431">  5  6 -1 -1</clus>
<clus scale="   92.063">  7  8 -1 -1</clus>
<clus scale="   99.617">  5  7 -1 -1</clus>
<clus scale="  120.768">  2  9  1 -1</clus>
<clus scale="  120.768">  2  5  1 -1</clus>
</clustering>
</event>
<event>
 9    2  0.6469128E-005  0.2407050E+03  0.7546771E-02  0.1163409E+00
          2   -1    0    0  502    0 -0.00000000000E+00  0.00000000000E+00  0.24009157136E+03  0.24009157136E+03  0.00000000000E+00 0. -1.
         21   -1    0    0  501  502  0.00000000000E+00 -0.00000000000E+00 -0.32716808453E+03  0.32716808453E+03  0.00000000000E+00 0. -1.
         24    2    1    2    0    0  0.38293602088E+01  0.20799777722E+02 -0.84425808785E+01  0.83722456130E+02  0.80565983738E+02 0.  0.
         23    2    1    2    0    0 -0.12089749765E+03 -0.20407996025E+03  0.72478028247E-01  0.25225539516E+03  0.85836728840E+02 0.  0.
        -13    1    3    3    0    0 -0.39128811889E+01 -0.26321501037E+02 -0.21506179857E+02  0.34214731156E+02  0.00000000000E+00 0.  1.
         14    1    3    3    0    0  0.77422413977E+01  0.47121278759E+02  0.13063598979E+02  0.49507724973E+02  0.00000000000E+00 0. -1.
        -11    1    4    4    0    0 -0.18085947780E+02 -0.14608219541E+02  0.26293923341E+02  0.35098033990E+02  0.00000000000E+00 0.  1.
         11    1    4    4    0    0 -0.10281154987E+03 -0.18947174071E+03 -0.26221445313E+02  0.21715736117E+03  0.00000000000E+00 0. -1.
          1    1    1    2  501    0  0.11706813744E+03  0.18328018253E+03 -0.78706410315E+02  0.23128180460E+03  0.00000000000E+00 0. -1.
<scales pt_clust_5="13000.00000" pt_clust_6="13000.00000" pt_clust_7="13000.00000" pt_clust_8="13000.00000" pt_clust_9="224.87986"></scales>
<clustering>
<clus scale="   80.566">  5  6 -1 -1</clus>
<clus scale="   83.296">  1  5  2 -1</clus>
<clus scale="   85.837">  7  8 -1 -1</clus>
<clus scale="  224.880">  2  9  1 -1</clus>
<clus scale="  224.880">  2  5  1 -1</clus>
</clustering>
</event>
<event>
 9    2  0.6469128E-005  0.9751838E+02  0.7546771E-02  0.1292120E+00
         21   -1    0    0  501  502  0.00000000000E+00  0.00000000000E+00  0.67279086749E+02  0.67279086749E+02  0.00000000000E+00 0. -1.
         -1   -1    0    0    0  501 -0.00000000000E+00 -0.00000000000E+00 -0.21897524759E+03  0.21897524759E+03  0.00000000000E+00 0.  1.
         23    2    1    2    0    0  0.21168974833E+00  0.40451637236E+02 -0.97755961397E+02  0.13991599759E+03  0.91563522357E+02 0.  0.
         24    2    1    2    0    0 -0.24602994875E+02 -0.16898462436E+02 -0.27838180369E+01  0.84965189787E+02  0.79501373844E+02 0.  0.
        -11    1    4    4    0    0 -0.51494847734E+02 -0.19977402896E+00  0.66785539732E+01  0.51926508991E+02  0.00000000000E+00 0.  1.
         12    1    4    4    0    0  0.26891852859E+02 -0.16698688407E+02 -0.94623720101E+01  0.33038680796E+02  0.00000000000E+00 0. -1.
        -13    1    3    3    0    0 -0.37192131745E+02 -0.38954707945E+01 -0.59992594586E+02  0.70693286539E+02  0.00000000000E+00 0. -1.
         13    1    3    3    0    0  0.37403821493E+02  0.44347108030E+02 -0.37763366811E+02  0.69222711055E+02  0.00000000000E+00 0.  1.
         -2    1    1    2    0  502  0.24391305126E+02 -0.23553174800E+02 -0.51156381411E+02  0.61373146962E+02  0.00000000000E+00 0.  1.
<scales pt_clust_5="13000.00000" pt_clust_6="13000.00000" pt_clust_7="13000.00000" pt_clust_8="13000.00000" pt_clust_9="33.90706"></scales>
<clustering>
<clus scale="   33.907">  1  9  2 -1</clus>
<clus scale="   79.501">  5  6 -1 -1</clus>
<clus scale="   86.293">  1  5  2 -1</clus>
<clus scale="   91.564">  7  8 -1 -1</clus>
<clus scale="   33.907">  1  5  2 -1</clus>
</clustering>
</event>
<event>
 9    2  0.6469128E-005  0.1011458E+03  0.7546771E-02  0.1282363E+00
         21   -1    0    0  501  502  0.00000000000E+00  0.00000000000E+00  0.12117910968E+03  0.12117910968E+03  0.00000000000E+00 0.  1.
          2   -1    0    0  502    0 -0.00000000000E+00 -0.00000000000E+00 -0.40623116860E+03  0.40623116860E+03  0.00000000000E+00 0. -1.
         24    2    1    2    0    0  0.44803204145E+02 -0.14354158335E+02 -0.25647388951E+03  0.27335274578E+03  0.82033521572E+02 0.  0.
         23    2    1    2    0    0  0.15070699730E+02  0.47445517710E+02  0.76229999856E+02  0.12889893401E+03  0.91245378900E+02 0.  0.
        -13    1    3    3    0    0  0.52731974089E+02  0.20174730686E+02 -0.12445250998E+03  0.13666055791E+03  0.00000000000E+00 0.  1.
         14    1    3    3    0    0 -0.79287699442E+01 -0.34528889021E+02 -0.13202137953E+03  0.13669218786E+03  0.00000000000E+00 0. -1.
        -13    1    4    4    0    0  0.94816220638E+00  0.61878108980E+02  0.13964967362E+02  0.63441466691E+02  0.00000000000E+00 0.  1.
         13    1    4    4    0    0  0.14122537523E+02 -0.14432591270E+02  0.62265032494E+02  0.65457467323E+02  0.00000000000E+00 0. -1.
          1    1    1    2  501    0 -0.59873903874E+02 -0.33091359375E+02 -0.10480816927E+03  0.12515859849E+03  0.00000000000E+00 0. -1.
<scales pt_clust_5="13000.00000" pt_clust_6="13000.00000" pt_clust_7="13000.00000" pt_clust_8="13000.00000" pt_clust_9="68.40999"></scales>
<clustering>
<clus scale="   68.410">  1  9  2 -1</clus>
<clus scale="   82.034">  5  6 -1 -1</clus>
<clus scale="   91.245">  7  8 -1 -1</clus>
<clus scale="   92.921">  2  5  1 -1</clus>
<clus scale="   68.410">  1  5  2 -1</clus>
</clustering>
</event>
<event>
 9    2  0.6469128E-005  0.1166202E+03  0.7546771E-02  0.1252562E+00
         21   -1    0    0  501  502  0.00000000000E+00  0.00000000000E+00  0.46710442629E+02  0.46710442629E+02  0.00000000000E+00 0.  1.
          2   -1    0    0  502    0 -0.00000000000E+00 -0.00000000000E+00 -0.56136448384E+03  0.56136448384E+03  0.00000000000E+00 0. -1.
         23    2    1    2    0    0 -0.60033770652E+02 -0.42507818222E+02 -0.44398227775E+03  0.45935844429E+03  0.92081209553E+02 0.  0.
         24    2    1    2    0    0  0.63132855665E+02  0.18361875388E+02 -0.46044694854E+02  0.11408812110E+03  0.81074468972E+02 0.  0.
        -11    1    4    4    0    0  0.58129829313E+02  0.78108079762E+01  0.76403578680E+01  0.59147788171E+02  0.00000000000E+00 0.  1.
         12    1    4    4    0    0  0.50030263518E+01  0.10551067412E+02 -0.53685052722E+02  0.54940332926E+02  0.00000000000E+00 0. -1.
        -11    1    3    3    0    0  0.33853030529E+01  0.24898128184E+02 -0.84834219736E+02  0.88477239458E+02  0.00000000000E+00 0.  1.
         11    1    3    3    0    0 -0.63419073704E+02 -0.67405946405E+02 -0.35914805801E+03  0.37088120483E+03  0.00000000000E+00 0. -1.
          1    1    1    2  501    0 -0.30990850131E+01  0.24145942834E+02 -0.24627068602E+02  0.34628361081E+02  0.00000000000E+00 0. -1.
<scales pt_clust_5="13000.00000" pt_clust_6="13000.00000" pt_clust_7="13000.00000" pt_clust_8="13000.00000" pt_clust_9="24.34401"></scales>
<clustering>
<clus scale="   24.344">  1  9  2 -1</clus>
<clus scale="   81.074">  5  6 -1 -1</clus>
<clus scale="   92.081">  7  8 -1 -1</clus>
<clus scale="  108.141">  1  5  2 -1</clus>
<clus scale="   24.344">  1  5  2 -1</clus>
</clustering>
</event>
<event>
 9    2  0.6469128E-005  0.9821880E+02  0.7546771E-02  0.1290572E+00
          2   -1    0    0  502    0 -0.00000000000E+00  0.00000000000E+00  0.72640244602E+03  0.72640244602E+03  0.00000000000E+00 0. -1.
         21   -1    0    0  501  502  0.00000000000E+00 -0.00000000000E+00 -0.36669433395E+02  0.36669433395E+02  0.00000000000E+00 0. -1.
         24    2    1    2    0    0  0.33536849189E+02  0.99127239370E+01  0.57203862412E+03  0.57862520201E+03  0.79724240752E+02 0.  0.
         23    2    1    2    0    0 -0.36739608768E+02  0.10900016141E+02  0.12704146791E+03  0.16140767326E+03  0.91892835488E+02 0.  0.
        -13    1    3    3    0    0  0.31100385000E+02 -0.99917894330E+01  0.83309827579E+02  0.89485178518E+02  0.00000000000E+00 0.  1.
         14    1    3    3    0    0  0.24364641894E+01  0.19904513370E+02  0.48872879654E+03  0.48914002349E+03  0.00000000000E+00 0. -1.
        -11    1    4    4    0    0  0.92959630655E+01 -0.32542186156E+02  0.28283956581E+02  0.44106586912E+02  0.00000000000E+00 0.  1.
         11    1    4    4    0    0 -0.46035571834E+02  0.43442202297E+02  0.98757511331E+02  0.11730108635E+03  0.00000000000E+00 0. -1.
          1    1    1    2  501    0  0.32027595785E+01 -0.20812740078E+02 -0.93470794090E+01  0.23039004144E+02  0.00000000000E+00 0. -1.
<scales pt_clust_5="13000.00000" pt_clust_6="13000.00000" pt_clust_7="13000.00000" pt_clust_8="13000.00000" pt_clust_9="21.05773"></scales>
<clustering>
<clus scale="   21.058">  2  9  1 -1</clus>
<clus scale="   79.724">  5  6 -1 -1</clus>
<clus scale="   86.940">  1  5  2 -1</clus>
<clus scale="   91.893">  7  8 -1 -1</clus>
<clus scale="   21.058">  2  5  1 -1</clus>
</clustering>
</event>
<event>
 9    2  0.6469128E-005  0.9387668E+02  0.7546771E-02  0.1300430E+00
         -1   -1    0    0    0  501 -0.00000000000E+00  0.00000000000E+00  0.29819882883E+03  0.29819882883E+03  0.00000000000E+00 0.  1.
         21   -1    0    0  501  502  0.00000000000E+00 -0.00000000000E+00 -0.40444790677E+02  0.40444790677E+02  0.00000000000E+00 0.  1.
         24    2    1    2    0    0  0.27180191749E+02 -0.17482326361E+01  0.15570705087E+03  0.17697260465E+03  0.79578878899E+02 0.  0.
         23    2    1    2    0    0 -0.12394667177E+02  0.19615357988E+02  0.10181951697E+03  0.13847839431E+03  0.90943177921E+02 0.  0.
        -11    1    3    3    0    0  0.50558300858E+02  0.57889643062E+01  0.13685167999E+03  0.14600697315E+03  0.00000000000E+00 0.  1.
         12    1    3    3    0    0 -0.23378109109E+02 -0.75371969423E+01  0.18855370879E+02  0.30965631501E+02  0.00000000000E+00 0. -1.
        -13    1    4    4    0    0  0.27920721729E+02  0.25688285794E+02  0.87320560250E+02  0.95206801077E+02  0.00000000000E+00 0. -1.
         13    1    4    4    0    0 -0.40315388906E+02 -0.60729278068E+01  0.14498956724E+02  0.43271593233E+02  0.00000000000E+00 0.  1.
         -2    1    1    2    0  502 -0.14785524572E+02 -0.17867125352E+02  0.22747031670E+00  0.23192620549E+02  0.00000000000E+00 0.  1.
<scales pt_clust_5="13000.00000" pt_clust_6="13000.00000" pt_clust_7="13000.00000" pt_clust_8="13000.00000" pt_clust_9="23.19151"></scales>
<clustering>
<clus scale="   23.192">  2  9  1 -1</clus>
<clus scale="   79.579">  5  6 -1 -1</clus>
<clus scale="   82.915">  1  5  2 -1</clus>
<clus scale="   90.943">  7  8 -1 -1</clus>
<clus scale="   23.192">  2  5  1 -1</clus>
</clustering>
</event>
<event>
 9    2  0.6469128E-005  0.1641312E+03  0.7546771E-02  0.1208479E+00
         21   -1    0    0  501  502  0.00000000000E+00  0.00000000000E+00  0.91686574067E+02  0.91686574067E+02  0.00000000000E+00 0. -1.
          2   -1    0    0  502    0 -0.00000000000E+00 -0.00000000000E+00 -0.47864818101E+03  0.47864818101E+03  0.00000000000E+00 0. -1.
         23    2    1    2    0    0  0.10756108050E+02  0.27302256062E+02 -0.59803012276E+02  0.11339968791E+03  0.91771356612E+02 0.  0.
         24    2    1    2    0    0  0.12839819572E+03 -0.64816854498E+02 -0.11654647092E+03  0.20173175210E+03  0.80157960491E+02 0.  0.
        -11    1    4    4    0    0  0.37582135258E+02 -0.10069700121E+02  0.63363209444E+01  0.39420359134E+02  0.00000000000E+00 0.  1.
         12    1    4    4    0    0  0.90816060460E+02 -0.54747154377E+02 -0.12288279187E+03  0.16231139297E+03  0.00000000000E+00 0. -1.
        -11    1    3    3    0    0  0.40535601215E+02  0.23069865334E+02 -0.20458111545E+00  0.46641135340E+02  0.00000000000E+00 0. -1.
         11    1    3    3    0    0 -0.29779493165E+02  0.42323907280E+01 -0.59598431160E+02  0.66758552570E+02  0.00000000000E+00 0.  1.
          1    1    1    2  501    0 -0.13915430377E+03  0.37514598436E+02 -0.21061212374E+03  0.25520331507E+03  0.00000000000E+00 0. -1.
<scales pt_clust_5="13000.00000" pt_clust_6="13000.00000" pt_clust_7="13000.00000" pt_clust_8="13000.00000" pt_clust_9="143.22626"></scales>
<clustering>
<clus scale="   80.158">  5  6 -1 -1</clus>
<clus scale="   91.771">  7  8 -1 -1</clus>
<clus scale="   96.349">  2  7  1 -1</clus>
<clus scale="  143.226">  1  9  2 -1</clus>
<clus scale="  143.226">  1  5  2 -1</clus>
</clustering>
</event>
<event>
 9    2  0.6469128E-005  0.1169956E+03  0.7546771E-02  0.1256811E+00
          2   -1    0    0  502    0 -0.00000000000E+00  0.00000000000E+00  0.70343773776E+03  0.70343773776E+03  0.00000000000E+00 0. -1.
         21   -1    0    0  501  502  0.00000000000E+00 -0.00000000000E+00 -0.14027719665E+03  0.14027719665E+03  0.00000000000E+00 0. -1.
         24    2    1    2    0    0  0.53734031553E+02 -0.19102116881E+01  0.55078225294E+03  0.55924944219E+03  0.80671267352E+02 0.  0.
         23    2    1    2    0    0 -0.73996690421E+02 -0.14398571097E+02  0.11930984209E+03  0.17441591720E+03  0.10248533901E+03 0.  0.
        -11    1    3    3    0    0  0.22446197924E+02  0.12035931346E+02  0.40660665870E+02  0.47979007843E+02  0.00000000000E+00 0.  1.
         12    1    3    3    0    0  0.31287833629E+02 -0.13946143034E+02  0.51012158707E+03  0.51127043434E+03  0.00000000000E+00 0. -1.
        -13    1    4    4    0    0 -0.99372017508E+02 -0.89567168603E+01  0.82997662064E+02  0.12978302103E+03  0.00000000000E+00 0.  1.
         13    1    4    4    0    0  0.25375327087E+02 -0.54418542369E+01  0.36312180027E+02  0.44632896171E+02  0.00000000000E+00 0. -1.
          1    1    1    2  501    0  0.20262658867E+02  0.16308782785E+02 -0.10693155391E+03  0.11004957502E+03  0.00000000000E+00 0. -1.
<scales pt_clust_5="13000.00000" pt_clust_6="13000.00000" pt_clust_7="13000.00000" pt_clust_8="13000.00000" pt_clust_9="26.01061"></scales>
<clustering>
<clus scale="   26.011">  2  9  1 -1</clus>
<clus scale="   80.671">  5  6 -1 -1</clus>
<clus scale="   98.451">  1  5  2 -1</clus>
<clus scale="  102.485">  7  8 -1 -1</clus>
<clus scale="   26.011">  2  5  1 -1</clus>
</clustering>
</event>
<event>
 9    2  0.6469128E-005  0.9296126E+02  0.7546771E-02  0.1301703E+00
         -3   -1    0    0    0  501 -0.00000000000E+00  0.00000000000E+00  0.26044895511E+03  0.26044895511E+03  0.00000000000E+00 0.  1.
         21   -1    0    0  501  502  0.00000000000E+00 -0.00000000000E+00 -0.15291208216E+03  0.15291208216E+03  0.00000000000E+00 0. -1.
         24    2    1    2    0    0  0.20575136329E+02  0.11912089449E+02  0.22842481526E+03  0.24324755254E+03  0.80163841453E+02 0.  0.
         23    2    1    2    0    0  0.18403714407E+01 -0.25021162965E+02 -0.98841710487E+02  0.13604973369E+03  0.90057763370E+02 0.  0.
        -13    1    3    3    0    0  0.26296785694E+02 -0.20138590545E+02  0.19008500895E+03  0.19294920160E+03  0.00000000000E+00 0.  1.
         14    1    3    3    0    0 -0.57216493645E+01  0.32050679994E+02  0.38339806309E+02  0.50298350940E+02  0.00000000000E+00 0. -1.
        -11    1    4    4    0    0  0.42176799027E+02 -0.80806272226E+01 -0.74483239943E+02  0.85976345264E+02  0.00000000000E+00 0.  1.
         11    1    4    4    0    0 -0.40336427587E+02 -0.16940535743E+02 -0.24358470544E+02  0.50073388431E+02  0.00000000000E+00 0. -1.
         -4    1    1    2    0  502 -0.22415507770E+02  0.13109073516E+02 -0.22046231822E+02  0.34063751035E+02  0.00000000000E+00 0.  1.
<scales pt_clust_5="13000.00000" pt_clust_6="13000.00000" pt_clust_7="13000.00000" pt_clust_8="13000.00000" pt_clust_9="25.96734"></scales>
<clustering>
<clus scale="   25.967">  2  9  1 -1</clus>
<clus scale="   80.164">  5  6 -1 -1</clus>
<clus scale="   83.412">  1  5  2 -1</clus>
<clus scale="   90.058">  7  8 -1 -1</clus>
<clus scale="   25.967">  2  5  1 -1</clus>
</clustering>
</event>
<event>
 9    2  0.6469128E-005  0.9096761E+02  0.7546771E-02  0.1306546E+00
          2   -1    0    0  502    0 -0.00000000000E+00  0.00000000000E+00  0.19476117631E+03  0.19476117631E+03  0.00000000000E+00 0. -1.
         21   -1    0    0  501  502  0.00000000000E+00 -0.00000000000E+00 -0.86648071062E+02  0.86648071062E+02  0.00000000000E+00 0.  1.
         24    2    1    2    0    0  0.13583335742E+01 -0.40701683204E+01  0.12050541204E+03  0.14522207032E+03  0.80928882594E+02 0.  0.
         23    2    1    2    0    0 -0.38473283654E+02  0.53201239375E+01 -0.97780583989E+01  0.98959281548E+02  0.90492163775E+02 0.  0.
        -11    1    3    3    0    0 -0.20619318100E+02 -0.34041891689E+02  0.84840136295E+02  0.93711554224E+02  0.00000000000E+00 0.  1.
         12    1    3    3    0    0  0.21977651675E+02  0.29971723368E+02  0.35665275743E+02  0.51510516097E+02  0.00000000000E+00 0. -1.
        -13    1    4    4    0    0  0.19301533657E+02 -0.15567988223E+02  0.18882160199E+02  0.31168051473E+02  0.00000000000E+00 0. -1.
         13    1    4    4    0    0 -0.57774817312E+02  0.20888112161E+02 -0.28660218598E+02  0.67791230075E+02  0.00000000000E+00 0.  1.
          1    1    1    2  501    0  0.37114950080E+02 -0.12499556171E+01 -0.26142483955E+01  0.37227895498E+02  0.00000000000E+00 0. -1.
<scales pt_clust_5="13000.00000" pt_clust_6="13000.00000" pt_clust_7="13000.00000" pt_clust_8="13000.00000" pt_clust_9="37.13599"></scales>
<clustering>
<clus scale="   37.136">  2  9  1 -1</clus>
<clus scale="   80.929">  5  6 -1 -1</clus>
<clus scale="   81.460">  1  5  2 -1</clus>
<clus scale="   90.492">  7  8 -1 -1</clus>
<clus scale="   37.136">  2  5  1 -1</clus>
</clustering>
</event>
<event>
 9    2  0.6469128E-005  0.1148789E+03  0.7546771E-02  0.1254844E+00
          2   -1    0    0  502    0 -0.00000000000E+00  0.00000000000E+00  0.17795690285E+03  0.17795690285E+03  0.00000000000E+00 0. -1.
         21   -1    0    0  501  502  0.00000000000E+00 -0.00000000000E+00 -0.17582098197E+03  0.17582098197E+03  0.00000000000E+00 0.  1.
         24    2    1    2    0    0  0.40921301824E+02  0.58380984377E+02  0.13068767274E+03  0.17078515343E+03  0.83698318652E+02 0.  0.
         23    2    1    2    0    0 -0.18991742951E+02 -0.48681446741E+02 -0.10055463984E+03  0.14613048968E+03  0.92262207118E+02 0.  0.
        -13    1    3    3    0    0 -0.20087892104E+02  0.17993430411E+02  0.83387613497E+01  0.28228033725E+02  0.00000000000E+00 0.  1.
         14    1    3    3    0    0  0.61009193928E+02  0.40387553966E+02  0.12234891139E+03  0.14255711970E+03  0.00000000000E+00 0. -1.
        -13    1    4    4    0    0  0.15465714729E+02 -0.26981725397E+02 -0.10071695404E+03  0.10540923427E+03  0.00000000000E+00 0.  1.
         13    1    4    4    0    0 -0.34457457680E+02 -0.21699721344E+02  0.16231419939E+00  0.40721255409E+02  0.00000000000E+00 0. -1.
          1    1    1    2  501    0 -0.21929558873E+02 -0.96995376360E+01 -0.27997112014E+02  0.36862241709E+02  0.00000000000E+00 0. -1.
<scales pt_clust_5="13000.00000" pt_clust_6="13000.00000" pt_clust_7="13000.00000" pt_clust_8="13000.00000" pt_clust_9="23.97888"></scales>
<clustering>
<clus scale="   23.979">  2  9  1 -1</clus>
<clus scale="   83.698">  5  6 -1 -1</clus>
<clus scale="   92.262">  7  8 -1 -1</clus>
<clus scale="  108.121">  1  5  2 -1</clus>
<clus scale="   23.979">  2  5  1 -1</clus>
</clustering>
</event>
<event>
 9    2  0.6469128E-005  0.1611580E+03  0.7546771E-02  0.1200203E+00
         21   -1    0    0  501  502  0.00000000000E+00  0.00000000000E+00  0.14591997091E+03  0.14591997091E+03  0.00000000000E+00 0. -1.
          2   -1    0    0  502    0 -0.00000000000E+00 -0.00000000000E+00 -0.38453178007E+03  0.38453178007E+03  0.00000000000E+00 0. -1.
         23    2    1    2    0    0 -0.64745257980E+02  0.49259835763E+02  0.46246823649E+01  0.12174958597E+03  0.90460456256E+02 0.  0.
         24    2    1    2    0    0  0.16228911091E+03  0.41206946535E+02 -0.18875125039E+03  0.26493957098E+03  0.80809490708E+02 0.  0.
        -11    1    4    4    0    0  0.86474829915E+02  0.13062235330E+02 -0.41187911419E+02  0.96669344922E+02  0.00000000000E+00 0.  1.
         12    1    4    4    0    0  0.75814280990E+02  0.28144711204E+02 -0.14756333897E+03  0.16827022606E+03  0.00000000000E+00 0. -1.
        -13    1    3    3    0    0 -0.17306633950E+02 -0.24569539434E+02  0.14629566436E+02  0.33424632545E+02  0.00000000000E+00 0.  1.
         13    1    3    3    0    0 -0.47438624030E+02  0.73829375197E+02 -0.10004884071E+02  0.88324953422E+02  0.00000000000E+00 0. -1.
          1    1    1    2  501    0 -0.97543852926E+02 -0.90466782298E+02 -0.54485241136E+02  0.14376259404E+03  0.00000000000E+00 0. -1.
<scales pt_clust_5="13000.00000" pt_clust_6="13000.00000" pt_clust_7="13000.00000" pt_clust_8="13000.00000" pt_clust_9="139.43363"></scales>
<clustering>
<clus scale="   80.809">  5  6 -1 -1</clus>
<clus scale="   90.460">  7  8 -1 -1</clus>
<clus scale="  121.662">  2  7  1 -1</clus>
<clus scale="  139.434">  1  9  2 -1</clus>
<clus scale="  139.434">  1  5  2 -1</clus>
</clustering>
</event>
<event>
 9    2  0.6469128E-005  0.9946254E+02  0.7546771E-02  0.1288520E+00
         21   -1    0    0  501  502  0.00000000000E+00  0.00000000000E+00  0.16673265871E+03  0.16673265871E+03  0.00000000000E+00 0.  1.
         -3   -1    0    0    0  501 -0.00000000000E+00 -0.00000000000E+00 -0.23345948854E+03  0.23345948854E+03  0.00000000000E+00 0.  1.
         23    2    1    2    0    0 -0.31220076066E+01  0.15531598807E+02  0.12157891713E+02  0.95046010745E+02  0.92924444226E+02 0.  0.
         24    2    1    2    0    0 -0.52143033055E+02 -0.63770055557E+02  0.73508823386E+02  0.13601610971E+03  0.79443810984E+02 0.  0.
        -11    1    4    4    0    0 -0.54371173618E+02 -0.45744676925E+02  0.12226739686E+02  0.72099189669E+02  0.00000000000E+00 0.  1.
         12    1    4    4    0    0  0.22281405625E+01 -0.18025378632E+02  0.61282083700E+02  0.63916920044E+02  0.00000000000E+00 0. -1.
        -11    1    3    3    0    0 -0.17991997913E+02  0.40871018775E+02 -0.22174534142E+02  0.49858420844E+02  0.00000000000E+00 0. -1.
         11    1    3    3    0    0  0.14869990307E+02 -0.25339419968E+02  0.34332425854E+02  0.45187589901E+02  0.00000000000E+00 0.  1.
         -4    1    1    2    0  502  0.55265040662E+02  0.48238456750E+02 -0.15239354493E+03  0.16913002680E+03  0.00000000000E+00 0.  1.
<scales pt_clust_5="13000.00000" pt_clust_6="13000.00000" pt_clust_7="13000.00000" pt_clust_8="13000.00000" pt_clust_9="73.35652"></scales>
<clustering>
<clus scale="   73.357">  1  9  2 -1</clus>
<clus scale="   79.444">  5  6 -1 -1</clus>
<clus scale="   87.001">  1  5  2 -1</clus>
<clus scale="   92.924">  7  8 -1 -1</clus>
<clus scale="   73.357">  1  5  2 -1</clus>
</clustering>
</event>
<event>
 9    2  0.6469128E-005  0.1354333E+03  0.7546771E-02  0.1222618E+00
         21   -1    0    0  501  502  0.00000000000E+00  0.00000000000E+00  0.45101351978E+02  0.45101351978E+02  0.00000000000E+00 0. -1.
          2   -1    0    0  502    0 -0.00000000000E+00 -0.00000000000E+00 -0.80405583538E+03  0.80405583538E+03  0.00000000000E+00 0. -1.
         24    2    1    2    0    0 -0.91602296427E+02  0.16711916520E+02 -0.36352774365E+03  0.38355078986E+03  0.79300183693E+02 0.  0.
         23    2    1    2    0    0  0.12261228492E+03  0.43197747703E+02 -0.18232995182E+03  0.24208676015E+03  0.91988968302E+02 0.  0.
        -11    1    3    3    0    0 -0.39774399106E+02  0.46155109620E+02 -0.15119108459E+03  0.16300626070E+03  0.00000000000E+00 0.  1.
         12    1    3    3    0    0 -0.51827897322E+02 -0.29443193100E+02 -0.21233665906E+03  0.22054452916E+03  0.00000000000E+00 0. -1.
        -13    1    4    4    0    0  0.65256780208E+02  0.11500208236E+02 -0.15945941240E+03  0.17267891115E+03  0.00000000000E+00 0.  1.
         13    1    4    4    0    0  0.57355504712E+02  0.31697539467E+02 -0.22870539412E+02  0.69407848994E+02  0.00000000000E+00 0. -1.
          1    1    1    2  501    0 -0.31009988492E+02 -0.59909664223E+02 -0.21309678793E+03  0.22351963735E+03  0.00000000000E+00 0. -1.
<scales pt_clust_5="13000.00000" pt_clust_6="13000.00000" pt_clust_7="13000.00000" pt_clust_8="13000.00000" pt_clust_9="67.45956"></scales>
<clustering>
<clus scale="   67.460">  1  9  2 -1</clus>
<clus scale="   79.300">  5  6 -1 -1</clus>
<clus scale="   91.989">  7  8 -1 -1</clus>
<clus scale="  127.156">  2  5  1 -1</clus>
<clus scale="   67.460">  1  5  2 -1</clus>
</clustering>
</event>
<event>
 9    2  0.6469128E-005  0.1385899E+03  0.7546771E-02  0.1218101E+00
          2   -1    0    0  502    0 -0.00000000000E+00  0.00000000000E+00  0.16615731440E+03  0.16615731440E+03  0.00000000000E+00 0. -1.
         21   -1    0    0  501  502  0.00000000000E+00 -0.00000000000E+00 -0.31447203285E+03  0.31447203285E+03  0.00000000000E+00 0. -1.
         24    2    1    2    0    0  0.65073995667E+02  0.62090774999E+02  0.56744418571E+01  0.12098595737E+03  0.80718729782E+02 0.  0.
         23    2    1    2    0    0 -0.42895363403E+02 -0.16017777643E+03 -0.17316927382E+03  0.25726747312E+03  0.93284634679E+02 0.  0.
        -13    1    3    3    0    0  0.24534014951E+02  0.26956590344E+02 -0.37372439184E+02  0.52204165190E+02  0.00000000000E+00 0.  1.
         14    1    3    3    0    0  0.40539980716E+02  0.35134184655E+02  0.43046881041E+02  0.68781792178E+02  0.00000000000E+00 0. -1.
        -13    1    4    4    0    0  0.28584274259E+02 -0.40899288530E+02 -0.32997946543E+02  0.59822044543E+02  0.00000000000E+00 0.  1.
         13    1    4    4    0    0 -0.71479637662E+02 -0.11927848790E+03 -0.14017132728E+03  0.19744542858E+03  0.00000000000E+00 0. -1.
          1    1    1    2  501    0 -0.22178632264E+02  0.98087001433E+02  0.19180113517E+02  0.10237591677E+03  0.00000000000E+00 0. -1.
<scales pt_clust_5="13000.00000" pt_clust_6="13000.00000" pt_clust_7="13000.00000" pt_clust_8="13000.00000" pt_clust_9="100.56322"></scales>
<clustering>
<clus scale="   80.719">  5  6 -1 -1</clus>
<clus scale="   93.285">  7  8 -1 -1</clus>
<clus scale="  100.563">  2  9  1 -1</clus>
<clus scale="  130.463">  1  5  2 -1</clus>
<clus scale="  100.563">  2  5  1 -1</clus>
</clustering>
</event>
<event>
 9    2  0.6469128E-005  0.9434528E+02  0.7546771E-02  0.1298419E+00
          2   -1    0    0  502    0 -0.00000000000E+00  0.00000000000E+00  0.65675694177E+02  0.65675694177E+02  0.00000000000E+00 0. -1.
         21   -1    0    0  501  502  0.00000000000E+00 -0.00000000000E+00 -0.50209923630E+03  0.50209923630E+03  0.00000000000E+00 0. -1.
         24    2    1    2    0    0 -0.20575636492E+02 -0.14861077811E+02  0.19459027497E+02  0.88347623790E+02  0.82355573141E+02 0.  0.
         23    2    1    2    0    0 -0.26595429941E+02  0.21809537115E+01 -0.24888291215E+03  0.26674267337E+03  0.92178502831E+02 0.  0.
        -13    1    3    3    0    0  0.29714746036E+02  0.53581840333E+01 -0.15061880454E+01  0.30231521141E+02  0.00000000000E+00 0.  1.
         14    1    3    3    0    0 -0.50290382528E+02 -0.20219261845E+02  0.20965215543E+02  0.58116102649E+02  0.00000000000E+00 0. -1.
        -11    1    4    4    0    0  0.21519394856E+02 -0.27288301682E+02 -0.57213416191E+02  0.66941099154E+02  0.00000000000E+00 0.  1.
         11    1    4    4    0    0 -0.48114824796E+02  0.29469255394E+02 -0.19166949596E+03  0.19980157421E+03  0.00000000000E+00 0. -1.
          1    1    1    2  501    0  0.47171066433E+02  0.12680124100E+02 -0.20699965747E+03  0.21268463331E+03  0.00000000000E+00 0. -1.
<scales pt_clust_5="13000.00000" pt_clust_6="13000.00000" pt_clust_7="13000.00000" pt_clust_8="13000.00000" pt_clust_9="48.84562"></scales>
<clustering>
<clus scale="   48.846">  2  9  1 -1</clus>
<clus scale="   82.356">  5  6 -1 -1</clus>
<clus scale="   84.774">  1  5  2 -1</clus>
<clus scale="   92.179">  7  8 -1 -1</clus>
<clus scale="   48.846">  2  5  1 -1</clus>
</clustering>
</event>
<event>
 9    2  0.6469128E-005  0.1474151E+03  0.7546771E-02  0.1205697E+00
          2   -1    0    0  502    0 -0.00000000000E+00  0.00000000000E+00  0.71051060399E+03  0.71051060399E+03  0.00000000000E+00 0. -1.
         21   -1    0    0  501  502  0.00000000000E+00 -0.00000000000E+00 -0.55293371657E+02  0.55293371657E+02  0.00000000000E+00 0. -1.
         24    2    1    2    0    0  0.90419533739E+02 -0.92723839741E+02  0.27908618741E+03  0.31789101108E+03  0.79951187484E+02 0.  0.
         23    2    1    2    0    0 -0.11966061609E+03  0.47733308416E+01  0.21994396532E+03  0.26629595890E+03  0.90535860956E+02 0.  0.
        -11    1    3    3    0    0 -0.60850904710E+00 -0.49622260472E+02  0.69939866407E+02  0.85757354965E+02  0.00000000000E+00 0.  1.
         12    1    3    3    0    0  0.91028042786E+02 -0.43101579269E+02  0.20914632101E+03  0.23213365611E+03  0.00000000000E+00 0. -1.
        -13    1    4    4    0    0 -0.35434407529E+02  0.19216050426E+02  0.12922020501E+02  0.42330041871E+02  0.00000000000E+00 0.  1.
         13    1    4    4    0    0 -0.84226208559E+02 -0.14442719585E+02  0.20702194481E+03  0.22396591703E+03  0.00000000000E+00 0. -1.
          1    1    1    2  501    0  0.29241082349E+02  0.87950508899E+02  0.15618707960E+03  0.18161700567E+03  0.00000000000E+00 0. -1.
<scales pt_clust_5="13000.00000" pt_clust_6="13000.00000" pt_clust_7="13000.00000" pt_clust_8="13000.00000" pt_clust_9="92.68410"></scales>
<clustering>
<clus scale="   79.951">  5  6 -1 -1</clus>
<clus scale="   90.536">  7  8 -1 -1</clus>
<clus scale="   92.684">  2  9  1 -1</clus>
<clus scale="  141.162">  1  5  2 -1</clus>
<clus scale="   92.684">  2  5  1 -1</clus>
</clustering>
</event>
<event>
 9    2  0.1207924E-004  0.1146825E+03  0.7546771E-02  0.1265551E+00
          2   -1    0    0  502    0 -0.00000000000E+00  0.00000000000E+00  0.11608337260E+03  0.11608337260E+03  0.00000000000E+00 0. -1.
         21   -1    0    0  501  502  0.00000000000E+00 -0.00000000000E+00 -0.40154830253E+03  0.40154830253E+03  0.00000000000E+00 0. -1.
         23    2    1    2    0    0 -0.36401176122E+02 -0.29876102692E+02  0.63143653143E+02  0.13408514143E+03  0.10850841942E+03 0.  0.
         24    2    1    2    0    0 -0.15710450860E+02  0.20869765639E+02 -0.10608487573E+03  0.13532388284E+03  0.79851030197E+02 0.  0.
        -11    1    4    4    0    0  0.26343323499E+02  0.29280092955E+02 -0.37182693763E+02  0.54165000248E+02  0.00000000000E+00 0.  1.
         12    1    4    4    0    0 -0.42053774358E+02 -0.84103273159E+01 -0.68902181967E+02  0.81158882589E+02  0.00000000000E+00 0. -1.
        -13    1    3    3    0    0 -0.33241691345E+01 -0.53384524831E+02 -0.60918704528E+01  0.53833711348E+02  0.00000000000E+00 0.  1.
         13    1    3    3    0    0 -0.33077006987E+02  0.23508422139E+02  0.69235523595E+02  0.80251430082E+02  0.00000000000E+00 0. -1.
          1    1    1    2  501    0  0.52111626981E+02  0.90063370524E+01 -0.24252370735E+03  0.24822265086E+03  0.00000000000E+00 0. -1.
<scales pt_clust_5="13000.00000" pt_clust_6="13000.00000" pt_clust_7="13000.00000" pt_clust_8="13000.00000" pt_clust_9="52.88417"></scales>
<clustering>
<clus scale="   52.884">  2  9  1 -1</clus>
<clus scale="   79.851">  5  6 -1 -1</clus>
<clus scale="   88.058">  2  5  1 -1</clus>
<clus scale="  108.508">  7  8 -1 -1</clus>
<clus scale="   52.884">  2  5  1 -1</clus>
</clustering>
</event>
<event>
 9    2  0.6469128E-005  0.9981605E+02  0.7546771E-02  0.1291125E+00
         -3   -1    0    0    0  501 -0.00000000000E+00  0.00000000000E+00  0.12339863571E+03  0.12339863571E+03  0.00000000000E+00 0.  1.
         21   -1    0    0  501  502  0.00000000000E+00 -0.00000000000E+00 -0.21349995861E+03  0.21349995861E+03  0.00000000000E+00 0.  1.
         24    2    1    2    0    0 -0.24216317216E+02  0.21067422917E+02  0.61478500545E+02  0.10487532035E+03  0.78669946370E+02 0.  0.
         23    2    1    2    0    0 -0.30926544709E+02 -0.13601987580E+02 -0.45933740854E+02  0.11261823759E+03  0.97115877458E+02 0.  0.
        -13    1    3    3    0    0 -0.50652522904E+02  0.27165618461E+02  0.46164727640E+02  0.73721306154E+02  0.00000000000E+00 0.  1.
         14    1    3    3    0    0  0.26436205688E+02 -0.60981955437E+01  0.15313772905E+02  0.31154014198E+02  0.00000000000E+00 0. -1.
        -11    1    4    4    0    0 -0.28789747834E+02 -0.48042398933E+02 -0.10691658631E+01  0.56018432603E+02  0.00000000000E+00 0. -1.
         11    1    4    4    0    0 -0.21367968747E+01  0.34440411353E+02 -0.44864574991E+02  0.56599804984E+02  0.00000000000E+00 0.  1.
         -4    1    1    2    0  502  0.55142861925E+02 -0.74654353372E+01 -0.10564608259E+03  0.11940503638E+03  0.00000000000E+00 0.  1.
<scales pt_clust_5="13000.00000" pt_clust_6="13000.00000" pt_clust_7="13000.00000" pt_clust_8="13000.00000" pt_clust_9="55.64592"></scales>
<clustering>
<clus scale="   55.646">  2  9  1 -1</clus>
<clus scale="   78.670">  5  6 -1 -1</clus>
<clus scale="   81.980">  1  5  2 -1</clus>
<clus scale="   97.116">  7  8 -1 -1</clus>
<clus scale="   55.646">  2  5  1 -1</clus>
</clustering>
</event>
<event>
 9    2  0.6469128E-005  0.1635747E+03  0.7546771E-02  0.1186707E+00
         21   -1    0    0  501  502  0.00000000000E+00  0.00000000000E+00  0.36247906710E+02  0.36247906710E+02  0.00000000000E+00 0. -1.
          2   -1    0    0  502    0 -0.00000000000E+00 -0.00000000000E+00 -0.12504266482E+04  0.12504266482E+04  0.00000000000E+00 0. -1.
         24    2    1    2    0    0 -0.11047664272E+03  0.11973261970E+01 -0.49294310302E+03  0.51147660653E+03  0.80055568410E+02 0.  0.
         23    2    1    2    0    0  0.18625177697E+03 -0.40488497504E+01 -0.52171933425E+03  0.56175765742E+03  0.93136911737E+02 0.  0.
        -13    1    3    3    0    0 -0.11276820629E+03 -0.18529092950E+02 -0.38042102643E+03  0.39721549943E+03  0.00000000000E+00 0.  1.
         14    1    3    3    0    0  0.22915635644E+01  0.19726419147E+02 -0.11252207659E+03  0.11426110710E+03  0.00000000000E+00 0. -1.
        -11    1    4    4    0    0  0.75532692370E+02  0.16785159737E+01 -0.97815547481E+02  0.12359565673E+03  0.00000000000E+00 0. -1.
         11    1    4    4    0    0  0.11071908460E+03 -0.57273657241E+01 -0.42390378677E+03  0.43816200070E+03  0.00000000000E+00 0.  1.
          1    1    1    2  501    0 -0.75775134249E+02  0.28515235534E+01 -0.19951630423E+03  0.21344029097E+03  0.00000000000E+00 0. -1.
<scales pt_clust_5="13000.00000" pt_clust_6="13000.00000" pt_clust_7="13000.00000" pt_clust_8="13000.00000" pt_clust_9="75.82877"></scales>
<clustering>
<clus scale="   75.829">  1  9  2 -1</clus>
<clus scale="   80.056">  5  6 -1 -1</clus>
<clus scale="   93.137">  7  8 -1 -1</clus>
<clus scale="  156.496">  2  5  1 -1</clus>
<clus scale="   75.829">  1  5  2 -1</clus>
</clustering>
</event>
<event>
 9    2  0.6469128E-005  0.9832965E+02  0.7546771E-02  0.1290523E+00
          2   -1    0    0  502    0 -0.00000000000E+00  0.00000000000E+00  0.19766504654E+03  0.19766504654E+03  0.00000000000E+00 0. -1.
         21   -1    0    0  501  502  0.00000000000E+00 -0.00000000000E+00 -0.13471928806E+03  0.13471928806E+03  0.00000000000E+00 0. -1.
         24    2    1    2    0    0 -0.79708189936E+01  0.27093696679E+02  0.14084724466E+03  0.16465144839E+03  0.80464593295E+02 0.  0.
         23    2    1    2    0    0  0.24376891292E+02 -0.54123984405E+02 -0.37463406139E+02  0.11640030415E+03  0.92854108632E+02 0.  0.
        -13    1    3    3    0    0  0.18792520697E+01 -0.27005622759E+02  0.27072922669E+02  0.38285485380E+02  0.00000000000E+00 0.  1.
         14    1    3    3    0    0 -0.98500710633E+01  0.54099319437E+02  0.11377432199E+03  0.12636596301E+03  0.00000000000E+00 0. -1.
        -13    1    4    4    0    0 -0.29440950517E+02 -0.41815716220E+02 -0.33320885820E+02  0.61037735231E+02  0.00000000000E+00 0.  1.
         13    1    4    4    0    0  0.53817841809E+02 -0.12308268185E+02 -0.41425203186E+01  0.55362568919E+02  0.00000000000E+00 0. -1.
          1    1    1    2  501    0 -0.16406072298E+02  0.27030287726E+02 -0.40438080042E+02  0.51332582053E+02  0.00000000000E+00 0. -1.
<scales pt_clust_5="13000.00000" pt_clust_6="13000.00000" pt_clust_7="13000.00000" pt_clust_8="13000.00000" pt_clust_9="31.61955"></scales>
<clustering>
<clus scale="   31.620">  2  9  1 -1</clus>
<clus scale="   80.465">  5  6 -1 -1</clus>
<clus scale="   86.726">  1  5  2 -1</clus>
<clus scale="   92.854">  7  8 -1 -1</clus>
<clus scale="   31.620">  2  5  1 -1</clus>
</clustering>
</event>
<event>
 9    2  0.6469128E-005  0.9764841E+02  0.7546771E-02  0.1289754E+00
          2   -1    0    0  502    0 -0.00000000000E+00  0.00000000000E+00  0.76249589930E+03  0.76249589930E+03  0.00000000000E+00 0. -1.
         21   -1    0    0  501  502  0.00000000000E+00 -0.00000000000E+00 -0.17474724419E+02  0.17474724419E+02  0.00000000000E+00 0. -1.
         23    2    1    2    0    0  0.33537396933E+02  0.18912721103E+02  0.33308857294E+03  0.34730887218E+03  0.90515232194E+02 0.  0.
         24    2    1    2    0    0 -0.39829783292E+02  0.13033453734E+02  0.22860851210E+03  0.24646864176E+03  0.82028391510E+02 0.  0.
        -13    1    4    4    0    0  0.98832767659E+01 -0.18694980276E+02  0.18036348686E+02  0.27793728089E+02  0.00000000000E+00 0.  1.
         14    1    4    4    0    0 -0.49713060058E+02  0.31728434010E+02  0.21057216341E+03  0.21867491367E+03  0.00000000000E+00 0. -1.
        -11    1    3    3    0    0 -0.30504485302E+02  0.72385451157E+01  0.14255094696E+03  0.14595784541E+03  0.00000000000E+00 0.  1.
         11    1    3    3    0    0  0.64041882236E+02  0.11674175987E+02  0.19053762598E+03  0.20135102677E+03  0.00000000000E+00 0. -1.
          1    1    1    2  501    0  0.62923863587E+01 -0.31946174837E+02  0.18332408984E+03  0.18619310978E+03  0.00000000000E+00 0. -1.
<scales pt_clust_5="13000.00000" pt_clust_6="13000.00000" pt_clust_7="13000.00000" pt_clust_8="13000.00000" pt_clust_9="32.55999"></scales>
<clustering>
<clus scale="   32.560">  2  9  1 -1</clus>
<clus scale="   82.028">  5  6 -1 -1</clus>
<clus scale="   89.838">  2  5  1 -1</clus>
<clus scale="   90.515">  7  8 -1 -1</clus>
<clus scale="   32.560">  2  5  1 -1</clus>
</clustering>
</event>
<event>
 9    2  0.6469128E-005  0.1419956E+03  0.7546771E-02  0.1234083E+00
         21   -1    0    0  501  502  0.00000000000E+00  0.00000000000E+00  0.14735431493E+03  0.14735431493E+03  0.00000000000E+00 0. -1.
          2   -1    0    0  502    0 -0.00000000000E+00 -0.00000000000E+00 -0.25818645017E+03  0.25818645017E+03  0.00000000000E+00 0. -1.
         24    2    1    2    0    0  0.21085380509E+02 -0.30298494823E+02 -0.54775702237E+02  0.10282013626E+03  0.78797276631E+02 0.  0.
         23    2    1    2    0    0 -0.98551160692E+02 -0.49213479731E+02  0.47931171097E+02  0.15061368291E+03  0.90844848261E+02 0.  0.
        -13    1    3    3    0    0  0.23883680457E+02  0.22783493369E+02 -0.14129165422E+02  0.35904750073E+02  0.00000000000E+00 0.  1.
         14    1    3    3    0    0 -0.27982999483E+01 -0.53081988192E+02 -0.40646536814E+02  0.66915386183E+02  0.00000000000E+00 0. -1.
        -13    1    4    4    0    0 -0.93994531753E+02 -0.72315666717E+02  0.45170692767E+02  0.12690515804E+03  0.00000000000E+00 0. -1.
         13    1    4    4    0    0 -0.45566289392E+01  0.23102186986E+02  0.27604783298E+01  0.23708524868E+02  0.00000000000E+00 0.  1.
          1    1    1    2  501    0  0.77465780184E+02  0.79511974555E+02 -0.10398760410E+03  0.15210694594E+03  0.00000000000E+00 0. -1.
<scales pt_clust_5="13000.00000" pt_clust_6="13000.00000" pt_clust_7="13000.00000" pt_clust_8="13000.00000" pt_clust_9="109.13286"></scales>
<clustering>
<clus scale="   78.797">  5  6 -1 -1</clus>
<clus scale="   87.015">  2  5  1 -1</clus>
<clus scale="   90.845">  7  8 -1 -1</clus>
<clus scale="  109.133">  1  9  2 -1</clus>
<clus scale="  109.133">  1  5  2 -1</clus>
</clustering>
</event>
<event>
 9    2  0.6469128E-005  0.1081693E+03  0.7546771E-02  0.1270544E+00
          2   -1    0    0  502    0 -0.00000000000E+00  0.00000000000E+00  0.48503678376E+03  0.48503678376E+03  0.00000000000E+00 0. -1.
         21   -1    0    0  501  502  0.00000000000E+00 -0.00000000000E+00 -0.16814194120E+03  0.16814194120E+03  0.00000000000E+00 0. -1.
         24    2    1    2    0    0  0.58998440425E+02  0.87282258997E+01  0.43582463624E+03  0.44617829413E+03  0.74665646049E+02 0.  0.
         23    2    1    2    0    0 -0.39800010315E+02 -0.58990357590E+02 -0.73981615988E+02  0.13689194148E+03  0.90566114129E+02 0.  0.
        -11    1    3    3    0    0  0.46034859185E+02 -0.16066973752E+02  0.12619201775E+03  0.13528407611E+03  0.00000000000E+00 0.  1.
         12    1    3    3    0    0  0.12963581240E+02  0.24795199652E+02  0.30963261849E+03  0.31089421802E+03  0.00000000000E+00 0. -1.
        -13    1    4    4    0    0  0.29260976410E+02 -0.11922310201E+02 -0.19634466509E+02  0.37200248602E+02  0.00000000000E+00 0.  1.
         13    1    4    4    0    0 -0.69060986725E+02 -0.47068047389E+02 -0.54347149479E+02  0.99691692878E+02  0.00000000000E+00 0. -1.
          1    1    1    2  501    0 -0.19198430110E+02  0.50262131690E+02 -0.44948177695E+02  0.70108489349E+02  0.00000000000E+00 0. -1.
<scales pt_clust_5="13000.00000" pt_clust_6="13000.00000" pt_clust_7="13000.00000" pt_clust_8="13000.00000" pt_clust_9="53.80392"></scales>
<clustering>
<clus scale="   53.804">  2  9  1 -1</clus>
<clus scale="   74.666">  5  6 -1 -1</clus>
<clus scale="   90.566">  7  8 -1 -1</clus>
<clus scale="   95.254">  1  5  2 -1</clus>
<clus scale="   53.804">  2  5  1 -1</clus>
</clustering>
</event>
<event>
 9    2  0.6469128E-005  0.1059547E+03  0.7546771E-02  0.1274309E+00
         21   -1    0    0  501  502  0.00000000000E+00  0.00000000000E+00  0.72840936061E+02  0.72840936061E+02  0.00000000000E+00 0.  1.
         -1   -1    0    0    0  501 -0.00000000000E+00 -0.00000000000E+00 -0.35241258882E+03  0.35241258882E+03  0.00000000000E+00 0.  1.
         23    2    1    2    0    0  0.83606252148E+01  0.56743805200E+02 -0.23585050975E+03  0.25983011628E+03  0.92717133772E+02 0.  0.
         24    2    1    2    0    0 -0.54917389331E+02 -0.19622448753E+02 -0.38894079619E+02  0.10568374062E+03  0.79090729269E+02 0.  0.
        -11    1    4    4    0    0 -0.64899461944E+02  0.10711567542E+02 -0.31370929569E+02  0.72875325467E+02  0.00000000000E+00 0.  1.
         12    1    4    4    0    0  0.99820726135E+01 -0.30334016295E+02 -0.75231500501E+01  0.32808415154E+02  0.00000000000E+00 0. -1.
        -13    1    3    3    0    0  0.44423301990E+02  0.61832676873E+01 -0.74748601745E+02  0.87172335186E+02  0.00000000000E+00 0. -1.
         13    1    3    3    0    0 -0.36062676775E+02  0.50560537513E+02 -0.16110190801E+03  0.17265778110E+03  0.00000000000E+00 0.  1.
         -2    1    1    2    0  502  0.46556764116E+02 -0.37121356447E+02 -0.48270633908E+01  0.59739667980E+02  0.00000000000E+00 0.  1.
<scales pt_clust_5="13000.00000" pt_clust_6="13000.00000" pt_clust_7="13000.00000" pt_clust_8="13000.00000" pt_clust_9="59.54433"></scales>
<clustering>
<clus scale="   59.544">  1  9  2 -1</clus>
<clus scale="   79.091">  5  6 -1 -1</clus>
<clus scale="   92.717">  7  8 -1 -1</clus>
<clus scale="   94.262">  1  5  2 -1</clus>
<clus scale="   59.544">  1  5  2 -1</clus>
</clustering>
</event>
<event>
 9    2  0.6469128E-005  0.1249817E+03  0.7546771E-02  0.1247915E+00
         -1   -1    0    0    0  501 -0.00000000000E+00  0.00000000000E+00  0.19894716267E+03  0.19894716267E+03  0.00000000000E+00 0.  1.
         21   -1    0    0  501  502  0.00000000000E+00 -0.00000000000E+00 -0.11077143381E+03  0.11077143381E+03  0.00000000000E+00 0. -1.
         23    2    1    2    0    0 -0.41649809560E+02 -0.20752986057E+02  0.11006291133E+03  0.16532312759E+03  0.11424753389E+03 0.  0.
         24    2    1    2    0    0  0.37837468677E+02  0.47722590924E+02  0.97946235847E+01  0.10261472734E+03  0.82004438263E+02 0.  0.
        -13    1    4    4    0    0  0.45559658279E+02 -0.69615653476E+01  0.10968020666E+02  0.47375556270E+02  0.00000000000E+00 0.  1.
         14    1    4    4    0    0 -0.77221896018E+01  0.54684156272E+02 -0.11733970814E+01  0.55239171066E+02  0.00000000000E+00 0. -1.
        -13    1    3    3    0    0 -0.26442117225E+02 -0.52937384186E+02  0.11170174456E+02  0.60218975458E+02  0.00000000000E+00 0.  1.
         13    1    3    3    0    0 -0.15207692335E+02  0.32184398129E+02  0.98892736875E+02  0.10510415213E+03  0.00000000000E+00 0. -1.
         -2    1    1    2    0  502  0.38123408836E+01 -0.26969604867E+02 -0.31681806060E+02  0.41780741555E+02  0.00000000000E+00 0.  1.
<scales pt_clust_5="13000.00000" pt_clust_6="13000.00000" pt_clust_7="13000.00000" pt_clust_8="13000.00000" pt_clust_9="27.23772"></scales>
<clustering>
<clus scale="   27.238">  2  9  1 -1</clus>
<clus scale="   82.004">  5  6 -1 -1</clus>
<clus scale="   96.398">  2  5  1 -1</clus>
<clus scale="  114.248">  7  8 -1 -1</clus>
<clus scale="   27.238">  2  5  1 -1</clus>
</clustering>
</event>
<event>
 9    2  0.6469128E-005  0.1103933E+03  0.7546771E-02  0.1265037E+00
         21   -1    0    0  501  502  0.00000000000E+00  0.00000000000E+00  0.26218117496E+03  0.26218117496E+03  0.00000000000E+00 0.  1.
          2   -1    0    0  502    0 -0.00000000000E+00 -0.00000000000E+00 -0.12123511335E+03  0.12123511335E+03  0.00000000000E+00 0. -1.
         24    2    1    2    0    0 -0.60311093573E+02  0.20827912677E+02 -0.72655253930E+02  0.12593203820E+03  0.80677520826E+02 0.  0.
         23    2    1    2    0    0  0.23708982304E+02  0.13360199208E+01  0.17502648529E+03  0.19987373036E+03  0.93548579598E+02 0.  0.
        -11    1    3    3    0    0 -0.19302682990E+02  0.20075221781E+02 -0.79601467898E+02  0.84332685192E+02  0.00000000000E+00 0.  1.
         12    1    3    3    0    0 -0.41008410582E+02  0.75269089632E+00  0.69462139675E+01  0.41599353007E+02  0.00000000000E+00 0. -1.
        -11    1    4    4    0    0 -0.27141354296E+02 -0.26938841875E+02  0.65178989660E+02  0.75568875920E+02  0.00000000000E+00 0.  1.
         11    1    4    4    0    0  0.50850336600E+02  0.28274861795E+02  0.10984749563E+03  0.12430485444E+03  0.00000000000E+00 0. -1.
          1    1    1    2  501    0  0.36602111269E+02 -0.22163932598E+02  0.38574830244E+02  0.57610519751E+02  0.00000000000E+00 0. -1.
<scales pt_clust_5="13000.00000" pt_clust_6="13000.00000" pt_clust_7="13000.00000" pt_clust_8="13000.00000" pt_clust_9="42.78965"></scales>
<clustering>
<clus scale="   42.790">  1  9  2 -1</clus>
<clus scale="   80.678">  5  6 -1 -1</clus>
<clus scale="   93.549">  7  8 -1 -1</clus>
<clus scale="   99.721">  2  5  1 -1</clus>
<clus scale="   42.790">  1  5  2 -1</clus>
</clustering>
</event>
<event>
 9    2  0.6469128E-005  0.1074500E+03  0.7546771E-02  0.1268881E+00
         21   -1    0    0  501  502  0.00000000000E+00  0.00000000000E+00  0.68099880312E+02  0.68099880312E+02  0.00000000000E+00 0. -1.
          2   -1    0    0  502    0 -0.00000000000E+00 -0.00000000000E+00 -0.28826534170E+03  0.28826534170E+03  0.00000000000E+00 0. -1.
         23    2    1    2    0    0 -0.35912626468E+02 -0.51623493081E+02 -0.96882570959E+02  0.14642769350E+03  0.90000750507E+02 0.  0.
         24    2    1    2    0    0  0.69601713690E+02  0.12910369157E+01 -0.61920172251E+02  0.12371865631E+03  0.81401061797E+02 0.  0.
        -13    1    4    4    0    0  0.38780287283E+02 -0.24277145911E+02 -0.69258018446E+02  0.83005804703E+02  0.00000000000E+00 0.  1.
         14    1    4    4    0    0  0.30821426408E+02  0.25568182826E+02  0.73378461959E+01  0.40712851603E+02  0.00000000000E+00 0. -1.
        -11    1    3    3    0    0 -0.42314845270E+02 -0.27323810858E+02 -0.43656817811E+01  0.50558836492E+02  0.00000000000E+00 0. -1.
         11    1    3    3    0    0  0.64022188022E+01 -0.24299682224E+02 -0.92516889178E+02  0.95868857012E+02  0.00000000000E+00 0.  1.
          1    1    1    2  501    0 -0.33689087222E+02  0.50332456166E+02 -0.61362718180E+02  0.86218872203E+02  0.00000000000E+00 0. -1.
<scales pt_clust_5="13000.00000" pt_clust_6="13000.00000" pt_clust_7="13000.00000" pt_clust_8="13000.00000" pt_clust_9="60.56661"></scales>
<clustering>
<clus scale="   60.567">  1  9  2 -1</clus>
<clus scale="   81.401">  5  6 -1 -1</clus>
<clus scale="   90.001">  7  8 -1 -1</clus>
<clus scale="  100.357">  1  5  2 -1</clus>
<clus scale="   60.567">  1  5  2 -1</clus>
</clustering>
</event>
<event>
 9    2  0.6469128E-005  0.1007018E+03  0.7546771E-02  0.1284215E+00
          2   -1    0    0  502    0 -0.00000000000E+00  0.00000000000E+00  0.16817750361E+03  0.16817750361E+03  0.00000000000E+00 0. -1.
         21   -1    0    0  501  502  0.00000000000E+00 -0.00000000000E+00 -0.13660499644E+03  0.13660499644E+03  0.00000000000E+00 0.  1.
         23    2    1    2    0    0 -0.24354659889E+02  0.58380662927E+01  0.24208708765E+02  0.98378969516E+02  0.92006127984E+02 0.  0.
         24    2    1    2    0    0  0.72193168252E+02  0.46091355819E+02 -0.36208563655E+02  0.12343523238E+03  0.81172223614E+02 0.  0.
        -11    1    4    4    0    0  0.66458830677E+02  0.60136118664E+01 -0.46897916456E+02  0.81561965833E+02  0.00000000000E+00 0.  1.
         12    1    4    4    0    0  0.57343375759E+01  0.40077743953E+02  0.10689352801E+02  0.41873266544E+02  0.00000000000E+00 0. -1.
        -13    1    3    3    0    0 -0.23082319600E+02 -0.25764914050E+02 -0.23009957087E+02  0.41546147827E+02  0.00000000000E+00 0.  1.
         13    1    3    3    0    0 -0.12723402895E+01  0.31602980342E+02  0.47218665852E+02  0.56832821689E+02  0.00000000000E+00 0. -1.
          1    1    1    2  501    0 -0.47838508363E+02 -0.51929422112E+02  0.43572362064E+02  0.82968298158E+02  0.00000000000E+00 0. -1.
<scales pt_clust_5="13000.00000" pt_clust_6="13000.00000" pt_clust_7="13000.00000" pt_clust_8="13000.00000" pt_clust_9="70.60590"></scales>
<clustering>
<clus scale="   70.606">  2  9  1 -1</clus>
<clus scale="   81.172">  5  6 -1 -1</clus>
<clus scale="   90.910">  2  5  1 -1</clus>
<clus scale="   92.006">  7  8 -1 -1</clus>
<clus scale="   70.606">  2  5  1 -1</clus>
</clustering>
</event>
<event>
 9    2  0.6469128E-005  0.5105897E+03  0.7546771E-02  0.1011051E+00
          2   -1    0    0  502    0 -0.00000000000E+00  0.00000000000E+00  0.93754734915E+03  0.93754734915E+03  0.00000000000E+00 0. -1.
         21   -1    0    0  501  502  0.00000000000E+00 -0.00000000000E+00 -0.29242624614E+03  0.29242624614E+03  0.00000000000E+00 0.  1.
         24    2    1    2    0    0  0.17986816744E+03 -0.16835464622E+03  0.74004929954E+02  0.26885430447E+03  0.78166890746E+02 0.  0.
         23    2    1    2    0    0  0.23191429114E+03 -0.63445848059E+01  0.18319295931E+02  0.25001521836E+03  0.91364766835E+02 0.  0.
        -13    1    3    3    0    0  0.88768709610E+02 -0.13309496200E+03  0.56160736021E+02  0.16955288551E+03  0.00000000000E+00 0.  1.
         14    1    3    3    0    0  0.91099457833E+02 -0.35259684222E+02  0.17844193933E+02  0.99301418953E+02  0.00000000000E+00 0. -1.
        -13    1    4    4    0    0  0.87530561115E+01  0.22579724904E+02 -0.29520137343E+00  0.24218734730E+02  0.00000000000E+00 0.  1.
         13    1    4    4    0    0  0.22316123503E+03 -0.28924309710E+02  0.18614497304E+02  0.22579648364E+03  0.00000000000E+00 0. -1.
          1    1    1    2  501    0 -0.41178245858E+03  0.17469923103E+03  0.55279687712E+03  0.71110407246E+03  0.00000000000E+00 0. -1.
<scales pt_clust_5="13000.00000" pt_clust_6="13000.00000" pt_clust_7="13000.00000" pt_clust_8="13000.00000" pt_clust_9="447.30841"></scales>
<clustering>
<clus scale="   78.167">  5  6 -1 -1</clus>
<clus scale="   91.365">  7  8 -1 -1</clus>
<clus scale="  195.633">  5  7 -1 -1</clus>
<clus scale="  447.308">  2  9  1 -1</clus>
<clus scale="  447.308">  2  5  1 -1</clus>
</clustering>
</event>
<event>
 9    2  0.6469128E-005  0.1093755E+03  0.7546771E-02  0.1267510E+00
          4   -1    0    0  502    0 -0.00000000000E+00  0.00000000000E+00  0.10088549181E+03  0.10088549181E+03  0.00000000000E+00 0. -1.
         21   -1    0    0  501  502  0.00000000000E+00 -0.00000000000E+00 -0.21305539204E+03  0.21305539204E+03  0.00000000000E+00 0.  1.
         23    2    1    2    0    0  0.38986441587E+02  0.28135861880E+02  0.16509154985E+01  0.10409395333E+03  0.92310650774E+02 0.  0.
         24    2    1    2    0    0 -0.37483887121E+02 -0.82588681744E+02 -0.92741520404E+02  0.15143713723E+03  0.78142720575E+02 0.  0.
        -11    1    4    4    0    0 -0.30809750110E+02 -0.36835350609E+02 -0.93590746768E+02  0.10519178503E+03  0.00000000000E+00 0.  1.
         12    1    4    4    0    0 -0.66741370111E+01 -0.45753331135E+02  0.84922636446E+00  0.46245352201E+02  0.00000000000E+00 0. -1.
        -13    1    3    3    0    0 -0.14998570016E+02 -0.19701234773E+02 -0.16450185582E+02  0.29727165350E+02  0.00000000000E+00 0.  1.
         13    1    3    3    0    0  0.53985011602E+02  0.47837096653E+02  0.18101101080E+02  0.74366787978E+02  0.00000000000E+00 0. -1.
          3    1    1    2  501    0 -0.15025544655E+01  0.54452819863E+02 -0.21079295332E+02  0.58409793294E+02  0.00000000000E+00 0. -1.
<scales pt_clust_5="13000.00000" pt_clust_6="13000.00000" pt_clust_7="13000.00000" pt_clust_8="13000.00000" pt_clust_9="54.47355"></scales>
<clustering>
<clus scale="   54.474">  2  9  1 -1</clus>
<clus scale="   78.143">  5  6 -1 -1</clus>
<clus scale="   92.311">  7  8 -1 -1</clus>
<clus scale="   97.714">  2  5  1 -1</clus>
<clus scale="   54.474">  2  5  1 -1</clus>
</clustering>
</event>
<event>
 9    2  0.6469128E-005  0.9600326E+02  0.7546771E-02  0.1294895E+00
         21   -1    0    0  501  502  0.00000000000E+00  0.00000000000E+00  0.14564613942E+03  0.14564613942E+03  0.00000000000E+00 0. -1.
          2   -1    0    0  502    0 -0.00000000000E+00 -0.00000000000E+00 -0.57711276142E+03  0.57711276142E+03  0.00000000000E+00 0. -1.
         24    2    1    2    0    0 -0.25724397120E+02  0.26276079800E+02 -0.49615123191E+03  0.50397781766E+03  0.80469986895E+02 0.  0.
         23    2    1    2    0    0 -0.23464279784E+02  0.37998238865E+02 -0.17951223828E+02  0.10311174847E+03  0.91188528079E+02 0.  0.
        -13    1    3    3    0    0  0.17646865487E+02  0.13299342725E+02 -0.40955253664E+02  0.46536192164E+02  0.00000000000E+00 0.  1.
         14    1    3    3    0    0 -0.43371262607E+02  0.12976737074E+02 -0.45519597825E+03  0.45744162550E+03  0.00000000000E+00 0. -1.
        -13    1    4    4    0    0  0.32550359596E+02 -0.14723676832E+00  0.15640765204E+01  0.32588248248E+02  0.00000000000E+00 0.  1.
         13    1    4    4    0    0 -0.56014639380E+02  0.38145475633E+02 -0.19515300348E+02  0.70523500224E+02  0.00000000000E+00 0. -1.
          1    1    1    2  501    0  0.49188676904E+02 -0.64274318665E+02  0.82635833739E+02  0.11566933471E+03  0.00000000000E+00 0. -1.
<scales pt_clust_5="13000.00000" pt_clust_6="13000.00000" pt_clust_7="13000.00000" pt_clust_8="13000.00000" pt_clust_9="80.93648"></scales>
<clustering>
<clus scale="   80.470">  5  6 -1 -1</clus>
<clus scale="   80.936">  1  9  2 -1</clus>
<clus scale="   85.888">  2  5  1 -1</clus>
<clus scale="   91.189">  7  8 -1 -1</clus>
<clus scale="   80.936">  1  5  2 -1</clus>
</clustering>
</event>
<event>
 9    2  0.6469128E-005  0.1348623E+03  0.7546771E-02  0.1234375E+00
         21   -1    0    0  501  502  0.00000000000E+00  0.00000000000E+00  0.38285787162E+02  0.38285787162E+02  0.00000000000E+00 0. -1.
          4   -1    0    0  502    0 -0.00000000000E+00 -0.00000000000E+00 -0.11319737526E+04  0.11319737526E+04  0.00000000000E+00 0. -1.
         23    2    1    2    0    0  0.36002417513E+02  0.24618811128E+02 -0.15138753644E+03  0.18196354674E+03  0.91051008926E+02 0.  0.
         24    2    1    2    0    0 -0.75557833041E+01  0.84583802583E+02 -0.78990477704E+03  0.79866778684E+03  0.81909507559E+02 0.  0.
        -13    1    4    4    0    0 -0.27587465859E+02  0.29101598161E+02 -0.12786559897E+03  0.13400590542E+03  0.00000000000E+00 0.  1.
         14    1    4    4    0    0  0.20031682555E+02  0.55482204422E+02 -0.66203917807E+03  0.66466188142E+03  0.00000000000E+00 0. -1.
        -11    1    3    3    0    0 -0.23857236919E+02  0.27560069712E+02 -0.32552701707E+02  0.48871296119E+02  0.00000000000E+00 0.  1.
         11    1    3    3    0    0  0.59859654432E+02 -0.29412585838E+01 -0.11883483473E+03  0.13309225062E+03  0.00000000000E+00 0. -1.
          3    1    1    2  501    0 -0.28446634209E+02 -0.10920261371E+03 -0.15239565193E+03  0.18962820615E+03  0.00000000000E+00 0. -1.
<scales pt_clust_5="13000.00000" pt_clust_6="13000.00000" pt_clust_7="13000.00000" pt_clust_8="13000.00000" pt_clust_9="107.13862"></scales>
<clustering>
<clus scale="   81.910">  5  6 -1 -1</clus>
<clus scale="   91.051">  7  8 -1 -1</clus>
<clus scale="  100.958">  2  7  1 -1</clus>
<clus scale="  107.139">  1  9  2 -1</clus>
<clus scale="  107.139">  1  5  2 -1</clus>
</clustering>
</event>
<event>
 9    2  0.6469128E-005  0.1186917E+03  0.7546771E-02  0.1249080E+00
          2   -1    0    0  502    0 -0.00000000000E+00  0.00000000000E+00  0.71165595676E+03  0.71165595676E+03  0.00000000000E+00 0. -1.
         21   -1    0    0  501  502  0.00000000000E+00 -0.00000000000E+00 -0.39146511455E+02  0.39146511455E+02  0.00000000000E+00 0. -1.
         24    2    1    2    0    0 -0.18788156992E+02 -0.69455642895E+02  0.30530677348E+03  0.32410135353E+03  0.81562125126E+02 0.  0.
         23    2    1    2    0    0  0.92895388890E+02  0.39299793282E+02  0.23902190545E+03  0.27559993681E+03  0.93004445361E+02 0.  0.
        -13    1    3    3    0    0 -0.37422837255E+02 -0.62172621607E+00  0.10831570548E+03  0.11459994479E+03  0.00000000000E+00 0.  1.
         14    1    3    3    0    0  0.18634680263E+02 -0.68833916679E+02  0.19699106800E+03  0.20950140874E+03  0.00000000000E+00 0. -1.
        -11    1    4    4    0    0  0.40736240426E+02  0.59537362318E+02  0.18171644603E+03  0.19551216216E+03  0.00000000000E+00 0.  1.
         11    1    4    4    0    0  0.52159148464E+02 -0.20237569036E+02  0.57305459419E+02  0.80087774648E+02  0.00000000000E+00 0. -1.
          1    1    1    2  501    0 -0.74107231898E+02  0.30155849613E+02  0.12818076638E+03  0.15110117788E+03  0.00000000000E+00 0. -1.
<scales pt_clust_5="13000.00000" pt_clust_6="13000.00000" pt_clust_7="13000.00000" pt_clust_8="13000.00000" pt_clust_9="80.00786"></scales>
<clustering>
<clus scale="   80.008">  2  9  1 -1</clus>
<clus scale="   81.562">  5  6 -1 -1</clus>
<clus scale="   93.004">  7  8 -1 -1</clus>
<clus scale="  109.956">  1  5  2 -1</clus>
<clus scale="   80.008">  2  5  1 -1</clus>
</clustering>
</event>
<event>
 9    2  0.6469128E-005  0.1335820E+03  0.7546771E-02  0.1241059E+00
         21   -1    0    0  501  502  0.00000000000E+00  0.00000000000E+00  0.10521987518E+03  0.10521987518E+03  0.00000000000E+00 0.  1.
         -3   -1    0    0    0  501 -0.00000000000E+00 -0.00000000000E+00 -0.30349058324E+03  0.30349058324E+03  0.00000000000E+00 0.  1.
         24    2    1    2    0    0 -0.30031778740E+02  0.37477765827E+02  0.94850459529E+01  0.91149737306E+02  0.76888346636E+02 0.  0.
         23    2    1    2    0    0 -0.14541727094E+02  0.68645463179E+02 -0.15123896067E+03  0.18933012770E+03  0.89716289420E+02 0.  0.
        -13    1    3    3    0    0 -0.16149873187E+02  0.59216267327E+02 -0.49746434570E+01  0.61580287411E+02  0.00000000000E+00 0.  1.
         14    1    3    3    0    0 -0.13881905552E+02 -0.21738501500E+02  0.14459689410E+02  0.29569449894E+02  0.00000000000E+00 0. -1.
        -11    1    4    4    0    0 -0.51078463074E+02  0.41861118328E+02 -0.10868187679E+03  0.12717355448E+03  0.00000000000E+00 0. -1.
         11    1    4    4    0    0  0.36536735980E+02  0.26784344851E+02 -0.42557083884E+02  0.62156573216E+02  0.00000000000E+00 0.  1.
         -4    1    1    2    0  502  0.44573505833E+02 -0.10612322901E+03 -0.56516793348E+02  0.12823059341E+03  0.00000000000E+00 0.  1.
<scales pt_clust_5="13000.00000" pt_clust_6="13000.00000" pt_clust_7="13000.00000" pt_clust_8="13000.00000" pt_clust_9="98.97046"></scales>
<clustering>
<clus scale="   76.888">  5  6 -1 -1</clus>
<clus scale="   89.716">  7  8 -1 -1</clus>
<clus scale="   90.655">  2  5  1 -1</clus>
<clus scale="   98.970">  1  9  2 -1</clus>
<clus scale="   98.970">  1  5  2 -1</clus>
</clustering>
</event>
<event>
 9    2  0.6469128E-005  0.9473334E+02  0.7546771E-02  0.1306539E+00
         21   -1    0    0  501  502  0.00000000000E+00  0.00000000000E+00  0.34510636179E+02  0.34510636179E+02  0.00000000000E+00 0.  1.
          4   -1    0    0  502    0 -0.00000000000E+00 -0.00000000000E+00 -0.47310181904E+03  0.47310181904E+03  0.00000000000E+00 0. -1.
         24    2    1    2    0    0 -0.14044759377E+02 -0.16818587137E+02 -0.30720335721E+03  0.31531000493E+03  0.67574968650E+02 0.  0.
         23    2    1    2    0    0  0.11662866120E+02  0.39384647819E+02 -0.13626511337E+03  0.16909278753E+03  0.91307265542E+02 0.  0.
        -11    1    3    3    0    0 -0.28780967900E+02 -0.14208931382E+02 -0.63533970850E+02  0.71181481413E+02  0.00000000000E+00 0.  1.
         12    1    3    3    0    0  0.14736208522E+02 -0.26096557547E+01 -0.24366938636E+03  0.24412852351E+03  0.00000000000E+00 0. -1.
        -11    1    4    4    0    0 -0.10864701367E+02  0.59998870721E+02 -0.54386843365E+02  0.81705782872E+02  0.00000000000E+00 0.  1.
         11    1    4    4    0    0  0.22527567487E+02 -0.20614222903E+02 -0.81878270010E+02  0.87387004655E+02  0.00000000000E+00 0. -1.
          3    1    1    2  501    0  0.23818932579E+01 -0.22566060682E+02  0.48772877207E+01  0.23209662766E+02  0.00000000000E+00 0. -1.
<scales pt_clust_5="13000.00000" pt_clust_6="13000.00000" pt_clust_7="13000.00000" pt_clust_8="13000.00000" pt_clust_9="22.69142"></scales>
<clustering>
<clus scale="   22.691">  1  9  2 -1</clus>
<clus scale="   67.575">  5  6 -1 -1</clus>
<clus scale="   72.137">  2  5  1 -1</clus>
<clus scale="   91.307">  7  8 -1 -1</clus>
<clus scale="   22.691">  1  5  2 -1</clus>
</clustering>
</event>
<event>
 9    2  0.6469128E-005  0.9439137E+02  0.7546771E-02  0.1298284E+00
          2   -1    0    0  502    0 -0.00000000000E+00  0.00000000000E+00  0.25157552188E+03  0.25157552188E+03  0.00000000000E+00 0. -1.
         21   -1    0    0  501  502  0.00000000000E+00 -0.00000000000E+00 -0.12573146539E+03  0.12573146539E+03  0.00000000000E+00 0. -1.
         23    2    1    2    0    0  0.33399809786E+02 -0.36539086576E+01  0.17595596804E+03  0.20063727021E+03  0.90365442308E+02 0.  0.
         24    2    1    2    0    0 -0.13759551516E+02 -0.85399141294E+01  0.34512214569E+02  0.88944738980E+02  0.80360551556E+02 0.  0.
        -11    1    4    4    0    0 -0.35419747797E+02 -0.19889148172E+01  0.50156420078E+02  0.61434361649E+02  0.00000000000E+00 0.  1.
         12    1    4    4    0    0  0.21660196280E+02 -0.65509993122E+01 -0.15644205509E+02  0.27510377331E+02  0.00000000000E+00 0. -1.
        -11    1    3    3    0    0 -0.15307808258E+01  0.22424362293E+02  0.34878943211E+01  0.22745564864E+02  0.00000000000E+00 0.  1.
         11    1    3    3    0    0  0.34930590612E+02 -0.26078270951E+02  0.17246807372E+03  0.17789170534E+03  0.00000000000E+00 0. -1.
          1    1    1    2  501    0 -0.19640258269E+02  0.12193822787E+02 -0.84624126115E+02  0.87724978084E+02  0.00000000000E+00 0. -1.
<scales pt_clust_5="13000.00000" pt_clust_6="13000.00000" pt_clust_7="13000.00000" pt_clust_8="13000.00000" pt_clust_9="23.11772"></scales>
<clustering>
<clus scale="   23.118">  2  9  1 -1</clus>
<clus scale="   80.361">  5  6 -1 -1</clus>
<clus scale="   84.862">  2  5  1 -1</clus>
<clus scale="   90.365">  7  8 -1 -1</clus>
<clus scale="   23.118">  2  5  1 -1</clus>
</clustering>
</event>
<event>
 9    2  0.6469128E-005  0.1907626E+03  0.7546771E-02  0.1174817E+00
         21   -1    0    0  501  502  0.00000000000E+00  0.00000000000E+00  0.10375401176E+03  0.10375401176E+03  0.00000000000E+00 0.  1.
          4   -1    0    0  502    0 -0.00000000000E+00 -0.00000000000E+00 -0.60807236123E+03  0.60807236123E+03  0.00000000000E+00 0. -1.
         24    2    1    2    0    0 -0.98443679738E+02  0.16486815195E+02 -0.11454225029E+03  0.17240349184E+03  0.81486586270E+02 0.  0.
         23    2    1    2    0    0  0.15293036142E+03  0.12699080287E+03 -0.22733337808E+03  0.31594522454E+03  0.92879280042E+02 0.  0.
        -13    1    3    3    0    0 -0.45546748706E+02 -0.15010726518E+02 -0.69704250517E+01  0.48460448344E+02  0.00000000000E+00 0.  1.
         14    1    3    3    0    0 -0.52896931032E+02  0.31497541713E+02 -0.10757182523E+03  0.12394304349E+03  0.00000000000E+00 0. -1.
        -11    1    4    4    0    0  0.77145199070E+02  0.88879429489E+02 -0.69282474709E+02  0.13656864951E+03  0.00000000000E+00 0.  1.
         11    1    4    4    0    0  0.75785162348E+02  0.38111373376E+02 -0.15805090337E+03  0.17937657503E+03  0.00000000000E+00 0. -1.
          3    1    1    2  501    0 -0.54486681680E+02 -0.14347761806E+03 -0.16244272111E+03  0.22347765661E+03  0.00000000000E+00 0. -1.
<scales pt_clust_5="13000.00000" pt_clust_6="13000.00000" pt_clust_7="13000.00000" pt_clust_8="13000.00000" pt_clust_9="166.62474"></scales>
<clustering>
<clus scale="   81.487">  5  6 -1 -1</clus>
<clus scale="   92.879">  7  8 -1 -1</clus>
<clus scale="  128.853">  2  5  1 -1</clus>
<clus scale="  166.625">  1  9  2 -1</clus>
<clus scale="  166.625">  1  5  2 -1</clus>
</clustering>
</event>
<event>
 9    2  0.6469128E-005  0.1324354E+03  0.7546771E-02  0.1226285E+00
          2   -1    0    0  502    0 -0.00000000000E+00  0.00000000000E+00  0.43647080757E+03  0.43647080757E+03  0.00000000000E+00 0. -1.
         21   -1    0    0  501  502  0.00000000000E+00 -0.00000000000E+00 -0.21519546323E+03  0.21519546323E+03  0.00000000000E+00 0.  1.
         23    2    1    2    0    0  0.62635387891E+02  0.82101248371E+02  0.35389463403E+03  0.37952503453E+03  0.90188874265E+02 0.  0.
         24    2    1    2    0    0 -0.66496870504E+02  0.22474074571E+02 -0.12899476044E+03  0.16743189366E+03  0.80416869994E+02 0.  0.
        -13    1    4    4    0    0 -0.66029978684E+02  0.46693573313E+02 -0.11061051791E+03  0.13702165722E+03  0.00000000000E+00 0.  1.
         14    1    4    4    0    0 -0.46689182007E+00 -0.24219498742E+02 -0.18384242524E+02  0.30410236442E+02  0.00000000000E+00 0. -1.
        -13    1    3    3    0    0  0.58008144391E+02  0.15758070279E+02  0.24204645940E+03  0.24939877726E+03  0.00000000000E+00 0. -1.
         13    1    3    3    0    0  0.46272434991E+01  0.66343178091E+02  0.11184817463E+03  0.13012625727E+03  0.00000000000E+00 0.  1.
          1    1    1    2  501    0  0.38614826135E+01 -0.10457532294E+03 -0.36245292569E+01  0.10470934260E+03  0.00000000000E+00 0. -1.
<scales pt_clust_5="13000.00000" pt_clust_6="13000.00000" pt_clust_7="13000.00000" pt_clust_8="13000.00000" pt_clust_9="104.64659"></scales>
<clustering>
<clus scale="   80.417">  5  6 -1 -1</clus>
<clus scale="   90.189">  7  8 -1 -1</clus>
<clus scale="  104.647">  2  9  1 -1</clus>
<clus scale="  125.984">  2  5  1 -1</clus>
<clus scale="  104.647">  2  5  1 -1</clus>
</clustering>
</event>
<event>
 9    2  0.6469128E-005  0.1129862E+03  0.7546771E-02  0.1260870E+00
         21   -1    0    0  501  502  0.00000000000E+00  0.00000000000E+00  0.32981740169E+03  0.32981740169E+03  0.00000000000E+00 0.  1.
          2   -1    0    0  502    0 -0.00000000000E+00 -0.00000000000E+00 -0.57698523128E+03  0.57698523128E+03  0.00000000000E+00 0. -1.
         24    2    1    2    0    0  0.52766136241E+02  0.36196393930E+02 -0.55826022625E+03  0.56731978353E+03  0.78120499941E+02 0.  0.
         23    2    1    2    0    0 -0.59937759592E+02 -0.13235149929E+02  0.26348060808E+03  0.28613930889E+03  0.93198546331E+02 0.  0.
        -13    1    3    3    0    0  0.59563463169E+02 -0.40826943484E+00 -0.25948250060E+03  0.26623136732E+03  0.00000000000E+00 0.  1.
         14    1    3    3    0    0 -0.67973269286E+01  0.36604663365E+02 -0.29877772564E+03  0.30108841621E+03  0.00000000000E+00 0. -1.
        -13    1    4    4    0    0 -0.29670131641E+01 -0.41061991563E+02  0.58191607474E+02  0.71282210253E+02  0.00000000000E+00 0. -1.
         13    1    4    4    0    0 -0.56970746428E+02  0.27826841634E+02  0.20528900061E+03  0.21485709864E+03  0.00000000000E+00 0.  1.
          1    1    1    2  501    0  0.71716233512E+01 -0.22961244001E+02  0.47611788567E+02  0.53343540547E+02  0.00000000000E+00 0. -1.
<scales pt_clust_5="13000.00000" pt_clust_6="13000.00000" pt_clust_7="13000.00000" pt_clust_8="13000.00000" pt_clust_9="24.05516"></scales>
<clustering>
<clus scale="   24.055">  1  9  2 -1</clus>
<clus scale="   78.120">  5  6 -1 -1</clus>
<clus scale="   93.199">  7  8 -1 -1</clus>
<clus scale="  100.909">  2  5  1 -1</clus>
<clus scale="   24.055">  1  5  2 -1</clus>
</clustering>
</event>
<event>
 9    2  0.6469128E-005  0.1435714E+03  0.7546771E-02  0.1209529E+00
         21   -1    0    0  501  502  0.00000000000E+00  0.00000000000E+00  0.96875042826E+02  0.96875042826E+02  0.00000000000E+00 0.  1.
         -3   -1    0    0    0  501 -0.00000000000E+00 -0.00000000000E+00 -0.32829310810E+03  0.32829310810E+03  0.00000000000E+00 0.  1.
         24    2    1    2    0    0  0.41247427106E+02  0.87833667847E+02 -0.11398191263E+03  0.17354470852E+03  0.87805387079E+02 0.  0.
         23    2    1    2    0    0 -0.74197409779E+02 -0.11535749246E+03 -0.51857356222E+02  0.17324078603E+03  0.92252793257E+02 0.  0.
        -13    1    3    3    0    0  0.42539281629E+02  0.11972299500E+01 -0.25048235019E+02  0.49380541903E+02  0.00000000000E+00 0.  1.
         14    1    3    3    0    0 -0.12918545234E+01  0.86636437897E+02 -0.88933677608E+02  0.12416416662E+03  0.00000000000E+00 0. -1.
        -13    1    4    4    0    0 -0.66129739348E+02 -0.24622752562E+02 -0.40716451244E+02  0.81469330253E+02  0.00000000000E+00 0.  1.
         13    1    4    4    0    0 -0.80676704318E+01 -0.90734739903E+02 -0.11140904978E+02  0.91771455775E+02  0.00000000000E+00 0. -1.
         -4    1    1    2    0  502  0.32949982673E+02  0.27523824618E+02 -0.65578796424E+02  0.78382656374E+02  0.00000000000E+00 0.  1.
<scales pt_clust_5="13000.00000" pt_clust_6="13000.00000" pt_clust_7="13000.00000" pt_clust_8="13000.00000" pt_clust_9="42.93325"></scales>
<clustering>
<clus scale="   42.933">  1  9  2 -1</clus>
<clus scale="   87.805">  5  6 -1 -1</clus>
<clus scale="   92.253">  7  8 -1 -1</clus>
<clus scale="  140.755">  2  5  1 -1</clus>
<clus scale="   42.933">  1  5  2 -1</clus>
</clustering>
</event>
<event>
 9    2  0.6469128E-005  0.1014787E+03  0.7546771E-02  0.1281687E+00
          2   -1    0    0  502    0 -0.00000000000E+00  0.00000000000E+00  0.14382534077E+03  0.14382534077E+03  0.00000000000E+00 0. -1.
         21   -1    0    0  501  502  0.00000000000E+00 -0.00000000000E+00 -0.14068139322E+03  0.14068139322E+03  0.00000000000E+00 0. -1.
         24    2    1    2    0    0  0.51161573330E+02 -0.28286517884E+02  0.56798679737E+02  0.11353473056E+03  0.79034241589E+02 0.  0.
         23    2    1    2    0    0 -0.41949540018E+02 -0.13148520330E+02  0.44048704829E+01  0.99050925776E+02  0.88651201450E+02 0.  0.
        -11    1    3    3    0    0  0.24012746519E+01 -0.26793505842E+02  0.58851668862E+02  0.64708399788E+02  0.00000000000E+00 0.  1.
         12    1    3    3    0    0  0.48760298678E+02 -0.14930120424E+01 -0.20529891256E+01  0.48826330770E+02  0.00000000000E+00 0. -1.
        -13    1    4    4    0    0 -0.29740296752E+02  0.19461838905E+02 -0.32607259274E+02  0.48233616719E+02  0.00000000000E+00 0.  1.
         13    1    4    4    0    0 -0.12209243266E+02 -0.32610359236E+02  0.37012129757E+02  0.50817309057E+02  0.00000000000E+00 0. -1.
          1    1    1    2  501    0 -0.92120333118E+01  0.41435038215E+02 -0.58059602669E+02  0.71921077660E+02  0.00000000000E+00 0. -1.
<scales pt_clust_5="13000.00000" pt_clust_6="13000.00000" pt_clust_7="13000.00000" pt_clust_8="13000.00000" pt_clust_9="42.44672"></scales>
<clustering>
<clus scale="   42.447">  2  9  1 -1</clus>
<clus scale="   79.034">  5  6 -1 -1</clus>
<clus scale="   88.651">  7  8 -1 -1</clus>
<clus scale="   93.195">  1  5  2 -1</clus>
<clus scale="   42.447">  2  5  1 -1</clus>
</clustering>
</event>
<event>
 9    2  0.6469128E-005  0.9483140E+02  0.7546771E-02  0.1295263E+00
         21   -1    0    0  501  502  0.00000000000E+00  0.00000000000E+00  0.13756090638E+03  0.13756090638E+03  0.00000000000E+00 0. -1.
          2   -1    0    0  502    0 -0.00000000000E+00 -0.00000000000E+00 -0.32432253544E+03  0.32432253544E+03  0.00000000000E+00 0. -1.
         24    2    1    2    0    0  0.67259655893E+01 -0.21502119100E+02 -0.14755336848E+03  0.17346713549E+03  0.88381394010E+02 0.  0.
         23    2    1    2    0    0 -0.10080849636E+01 -0.30952698005E+02 -0.14164611313E+03  0.17318733588E+03  0.94716134816E+02 0.  0.
        -13    1    3    3    0    0  0.28703156398E+02 -0.14216965916E+02 -0.93927020733E+01  0.33379876562E+02  0.00000000000E+00 0.  1.
         14    1    3    3    0    0 -0.21977190809E+02 -0.72851531841E+01 -0.13816066640E+03  0.14008725893E+03  0.00000000000E+00 0. -1.
        -13    1    4    4    0    0 -0.39702304586E+02  0.11796844592E+02 -0.68485406015E+02  0.80035550656E+02  0.00000000000E+00 0.  1.
         13    1    4    4    0    0  0.38694219622E+02 -0.42749542597E+02 -0.73160707115E+02  0.93151785222E+02  0.00000000000E+00 0. -1.
          1    1    1    2  501    0 -0.57178806257E+01  0.52454817105E+02  0.10243785255E+03  0.11522897045E+03  0.00000000000E+00 0. -1.
<scales pt_clust_5="13000.00000" pt_clust_6="13000.00000" pt_clust_7="13000.00000" pt_clust_8="13000.00000" pt_clust_9="52.76554"></scales>
<clustering>
<clus scale="   52.766">  1  9  2 -1</clus>
<clus scale="   88.381">  5  6 -1 -1</clus>
<clus scale="   88.505">  2  5  1 -1</clus>
<clus scale="   94.716">  7  8 -1 -1</clus>
<clus scale="   52.766">  1  5  2 -1</clus>
</clustering>
</event>
<event>
 9    2  0.6469128E-005  0.1176000E+03  0.7546771E-02  0.1250531E+00
         21   -1    0    0  501  502  0.00000000000E+00  0.00000000000E+00  0.15279266765E+03  0.15279266765E+03  0.00000000000E+00 0. -1.
          2   -1    0    0  502    0 -0.00000000000E+00 -0.00000000000E+00 -0.67803989139E+03  0.67803989139E+03  0.00000000000E+00 0. -1.
         24    2    1    2    0    0 -0.82644939561E+02 -0.17064399892E+02 -0.46156356296E+03  0.47605869807E+03  0.80433709256E+02 0.  0.
         23    2    1    2    0    0  0.55247775609E+02  0.11832443692E+02 -0.19399594275E+03  0.22150995441E+03  0.90773953671E+02 0.  0.
        -13    1    3    3    0    0 -0.10751368559E+02 -0.36734779052E+02 -0.10426756574E+03  0.11107097363E+03  0.00000000000E+00 0.  1.
         14    1    3    3    0    0 -0.71893571002E+02  0.19670379160E+02 -0.35729599722E+03  0.36498772445E+03  0.00000000000E+00 0. -1.
        -13    1    4    4    0    0 -0.15522993614E+02  0.29988793593E+02 -0.65623783096E+02  0.73802249151E+02  0.00000000000E+00 0.  1.
         13    1    4    4    0    0  0.70770769223E+02 -0.18156349901E+02 -0.12837215965E+03  0.14770770526E+03  0.00000000000E+00 0. -1.
          1    1    1    2  501    0  0.27397163952E+02  0.52319562003E+01  0.13031228197E+03  0.13326390656E+03  0.00000000000E+00 0. -1.
<scales pt_clust_5="13000.00000" pt_clust_6="13000.00000" pt_clust_7="13000.00000" pt_clust_8="13000.00000" pt_clust_9="27.89226"></scales>
<clustering>
<clus scale="   27.892">  1  9  2 -1</clus>
<clus scale="   80.434">  5  6 -1 -1</clus>
<clus scale="   90.774">  7  8 -1 -1</clus>
<clus scale="  109.815">  2  5  1 -1</clus>
<clus scale="   27.892">  1  5  2 -1</clus>
</clustering>
</event>
<event>
 9    2  0.6469128E-005  0.1093193E+03  0.7546771E-02  0.1262097E+00
         21   -1    0    0  501  502  0.00000000000E+00  0.00000000000E+00  0.55361008222E+02  0.55361008222E+02  0.00000000000E+00 0. -1.
          2   -1    0    0  502    0 -0.00000000000E+00 -0.00000000000E+00 -0.12690995475E+04  0.12690995475E+04  0.00000000000E+00 0. -1.
         24    2    1    2    0    0  0.33562522699E+01  0.84002753343E+02 -0.85967911205E+03  0.86855158050E+03  0.90917244248E+02 0.  0.
         23    2    1    2    0    0 -0.11049395524E+02 -0.29015938381E+02 -0.38200816804E+03  0.39374896889E+03  0.90244092495E+02 0.  0.
        -13    1    3    3    0    0  0.11417165556E+02  0.46742025132E+02 -0.14336995469E+03  0.15122867615E+03  0.00000000000E+00 0.  1.
         14    1    3    3    0    0 -0.80609132859E+01  0.37260728211E+02 -0.71630915736E+03  0.71732290436E+03  0.00000000000E+00 0. -1.
        -11    1    4    4    0    0  0.35668677436E+02  0.29937128041E+00 -0.21308144384E+03  0.21604639752E+03  0.00000000000E+00 0.  1.
         11    1    4    4    0    0 -0.46718072960E+02 -0.29315309662E+02 -0.16892672420E+03  0.17770257137E+03  0.00000000000E+00 0. -1.
          1    1    1    2  501    0  0.76931432544E+01 -0.54986814961E+02  0.27948740818E+02  0.62160006322E+02  0.00000000000E+00 0. -1.
<scales pt_clust_5="13000.00000" pt_clust_6="13000.00000" pt_clust_7="13000.00000" pt_clust_8="13000.00000" pt_clust_9="55.52238"></scales>
<clustering>
<clus scale="   55.522">  1  9  2 -1</clus>
<clus scale="   90.244">  7  8 -1 -1</clus>
<clus scale="   90.917">  5  6 -1 -1</clus>
<clus scale="  108.760">  1  7  2 -1</clus>
<clus scale="   55.522">  1  5  2 -1</clus>
</clustering>
</event>
<event>
 9    2  0.6469128E-005  0.1056840E+03  0.7546771E-02  0.1269953E+00
          2   -1    0    0  502    0 -0.00000000000E+00  0.00000000000E+00  0.50101995760E+03  0.50101995760E+03  0.00000000000E+00 0. -1.
         21   -1    0    0  501  502  0.00000000000E+00 -0.00000000000E+00 -0.56186805654E+02  0.56186805654E+02  0.00000000000E+00 0. -1.
         24    2    1    2    0    0  0.53978929684E+02 -0.17624250426E+02  0.25202111926E+03  0.27331400037E+03  0.89227569676E+02 0.  0.
         23    2    1    2    0    0 -0.45763254805E+02 -0.58349758767E+02  0.64639627923E+02  0.13466906259E+03  0.91970131474E+02 0.  0.
        -13    1    3    3    0    0 -0.21395496142E+02 -0.19697374086E+02  0.90534450764E+02  0.95090696581E+02  0.00000000000E+00 0.  1.
         14    1    3    3    0    0  0.75374425826E+02  0.20731236603E+01  0.16148666850E+03  0.17822330379E+03  0.00000000000E+00 0. -1.
        -11    1    4    4    0    0 -0.51655650795E+02 -0.93720035944E+01 -0.10613778424E+01  0.52509687043E+02  0.00000000000E+00 0.  1.
         11    1    4    4    0    0  0.58923959900E+01 -0.48977755173E+02  0.65701005766E+02  0.82159375551E+02  0.00000000000E+00 0. -1.
          1    1    1    2  501    0 -0.82156748793E+01  0.75974009193E+02  0.12817240476E+03  0.14922370029E+03  0.00000000000E+00 0. -1.
<scales pt_clust_5="13000.00000" pt_clust_6="13000.00000" pt_clust_7="13000.00000" pt_clust_8="13000.00000" pt_clust_9="76.41697"></scales>
<clustering>
<clus scale="   76.417">  2  9  1 -1</clus>
<clus scale="   89.228">  5  6 -1 -1</clus>
<clus scale="   91.970">  7  8 -1 -1</clus>
<clus scale="  103.306">  1  5  2 -1</clus>
<clus scale="   76.417">  2  5  1 -1</clus>
</clustering>
</event>
<event>
 9    2  0.6469128E-005  0.1740227E+03  0.7546771E-02  0.1175512E+00
          2   -1    0    0  502    0 -0.00000000000E+00  0.00000000000E+00  0.91606043711E+03  0.91606043711E+03  0.00000000000E+00 0. -1.
         21   -1    0    0  501  502  0.00000000000E+00 -0.00000000000E+00 -0.55134631822E+02  0.55134631822E+02  0.00000000000E+00 0. -1.
         23    2    1    2    0    0  0.60793196531E+02  0.12479037897E+03  0.49879280893E+03  0.52609420116E+03  0.93340188705E+02 0.  0.
         24    2    1    2    0    0 -0.11322501730E+02 -0.17119426356E+03  0.28859704056E+03  0.34505984147E+03  0.79638982000E+02 0.  0.
        -13    1    4    4    0    0 -0.31508307346E+02 -0.97714153803E+02  0.21894312183E+03  0.24182001547E+03  0.00000000000E+00 0.  1.
         14    1    4    4    0    0  0.20185805616E+02 -0.73480109754E+02  0.69653918732E+02  0.10323982600E+03  0.00000000000E+00 0. -1.
        -11    1    3    3    0    0  0.12114582753E+02  0.67014747883E+02  0.37450373160E+03  0.38064522134E+03  0.00000000000E+00 0. -1.
         11    1    3    3    0    0  0.48678613777E+02  0.57775631084E+02  0.12428907733E+03  0.14544897982E+03  0.00000000000E+00 0.  1.
          1    1    1    2  501    0 -0.49470694800E+02  0.46403884590E+02  0.73535955807E+02  0.10004102631E+03  0.00000000000E+00 0. -1.
<scales pt_clust_5="13000.00000" pt_clust_6="13000.00000" pt_clust_7="13000.00000" pt_clust_8="13000.00000" pt_clust_9="67.82824"></scales>
<clustering>
<clus scale="   67.828">  2  9  1 -1</clus>
<clus scale="   79.639">  5  6 -1 -1</clus>
<clus scale="   93.340">  7  8 -1 -1</clus>
<clus scale="  167.074">  2  5  1 -1</clus>
<clus scale="   67.828">  2  5  1 -1</clus>
</clustering>
</event>
<event>
 9    2  0.6469128E-005  0.9219709E+02  0.7546771E-02  0.1304001E+00
          2   -1    0    0  502    0 -0.00000000000E+00  0.00000000000E+00  0.13596651292E+03  0.13596651292E+03  0.00000000000E+00 0. -1.
         21   -1    0    0  501  502  0.00000000000E+00 -0.00000000000E+00 -0.77181170474E+02  0.77181170474E+02  0.00000000000E+00 0.  1.
         23    2    1    2    0    0 -0.45654668654E+01  0.22921532730E+02  0.41419618062E+02  0.10233743197E+03  0.90615258492E+02 0.  0.
         24    2    1    2    0    0 -0.13155739781E+02 -0.83974995229E+01 -0.59615933328E+00  0.81696372050E+02  0.80189465098E+02 0.  0.
        -11    1    4    4    0    0  0.13134358786E+02  0.19609367507E+02 -0.26407174935E+02  0.35417193039E+02  0.00000000000E+00 0.  1.
         12    1    4    4    0    0 -0.26290098567E+02 -0.28006867030E+02  0.25811015601E+02  0.46279179011E+02  0.00000000000E+00 0. -1.
        -13    1    3    3    0    0  0.41957318193E+02  0.17229763359E+02  0.11708723420E+02  0.46844161851E+02  0.00000000000E+00 0. -1.
         13    1    3    3    0    0 -0.46522785059E+02  0.56917693716E+01  0.29710894642E+02  0.55493270120E+02  0.00000000000E+00 0.  1.
          1    1    1    2  501    0  0.17721206647E+02 -0.14524033207E+02  0.17961883721E+02  0.29113879378E+02  0.00000000000E+00 0. -1.
<scales pt_clust_5="13000.00000" pt_clust_6="13000.00000" pt_clust_7="13000.00000" pt_clust_8="13000.00000" pt_clust_9="22.91264"></scales>
<clustering>
<clus scale="   22.913">  2  9  1 -1</clus>
<clus scale="   80.189">  5  6 -1 -1</clus>
<clus scale="   81.973">  2  5  1 -1</clus>
<clus scale="   90.615">  7  8 -1 -1</clus>
<clus scale="   22.913">  2  5  1 -1</clus>
</clustering>
</event>
<event>
 9    2  0.6469128E-005  0.1005235E+03  0.7546771E-02  0.1284957E+00
          2   -1    0    0  502    0 -0.00000000000E+00  0.00000000000E+00  0.59624518542E+03  0.59624518542E+03  0.00000000000E+00 0. -1.
         21   -1    0    0  501  502  0.00000000000E+00 -0.00000000000E+00 -0.20116501194E+02  0.20116501194E+02  0.00000000000E+00 0.  1.
         24    2    1    2    0    0  0.42196932680E+01 -0.36049651257E+02  0.30479567553E+03  0.31716808901E+03  0.79861190180E+02 0.  0.
         23    2    1    2    0    0 -0.19674722788E+02  0.48981595627E+02  0.23548206668E+03  0.25806716855E+03  0.91436143469E+02 0.  0.
        -11    1    3    3    0    0 -0.32348865304E+01  0.25112738622E+02  0.10920526517E+03  0.11210220369E+03  0.00000000000E+00 0.  1.
         12    1    3    3    0    0  0.74545797984E+01 -0.61162389880E+02  0.19559041037E+03  0.20506588532E+03  0.00000000000E+00 0. -1.
        -11    1    4    4    0    0 -0.49781099272E+02  0.17286507136E+02  0.74488971540E+02  0.91244660418E+02  0.00000000000E+00 0.  1.
         11    1    4    4    0    0  0.30106376483E+02  0.31695088491E+02  0.16099309514E+03  0.16682250814E+03  0.00000000000E+00 0. -1.
          1    1    1    2  501    0  0.15455029520E+02 -0.12931944369E+02  0.35850942015E+02  0.41126429045E+02  0.00000000000E+00 0. -1.
<scales pt_clust_5="13000.00000" pt_clust_6="13000.00000" pt_clust_7="13000.00000" pt_clust_8="13000.00000" pt_clust_9="20.15175"></scales>
<clustering>
<clus scale="   20.152">  2  9  1 -1</clus>
<clus scale="   79.861">  5  6 -1 -1</clus>
<clus scale="   90.123">  1  5  2 -1</clus>
<clus scale="   91.436">  7  8 -1 -1</clus>
<clus scale="   20.152">  2  5  1 -1</clus>
</clustering>
</event>
<event>
 9    2  0.6469128E-005  0.9879202E+02  0.7546771E-02  0.1288518E+00
         -1   -1    0    0    0  501 -0.00000000000E+00  0.00000000000E+00  0.65322916285E+03  0.65322916285E+03  0.00000000000E+00 0.  1.
         21   -1    0    0  501  502  0.00000000000E+00 -0.00000000000E+00 -0.38808250869E+02  0.38808250869E+02  0.00000000000E+00 0. -1.
         24    2    1    2    0    0 -0.17267366457E+02 -0.35598161967E+02  0.28590232873E+03  0.29953778715E+03  0.80108384570E+02 0.  0.
         23    2    1    2    0    0  0.46027854996E+02  0.82322204759E+01  0.33674020892E+03  0.35195760414E+03  0.91070598544E+02 0.  0.
        -13    1    3    3    0    0 -0.39202216243E+02 -0.28208924885E+01  0.21352596050E+03  0.21711312029E+03  0.00000000000E+00 0.  1.
         14    1    3    3    0    0  0.21934849786E+02 -0.32777269479E+02  0.72376368225E+02  0.82424666861E+02  0.00000000000E+00 0. -1.
        -11    1    4    4    0    0  0.44250703767E+02  0.44878693688E+02  0.24905703225E+03  0.25690781857E+03  0.00000000000E+00 0.  1.
         11    1    4    4    0    0  0.17771512295E+01 -0.36646473212E+02  0.87683176669E+02  0.95049785566E+02  0.00000000000E+00 0. -1.
         -2    1    1    2    0  502 -0.28760488540E+02  0.27365941491E+02 -0.82216256591E+01  0.40542022436E+02  0.00000000000E+00 0.  1.
<scales pt_clust_5="13000.00000" pt_clust_6="13000.00000" pt_clust_7="13000.00000" pt_clust_8="13000.00000" pt_clust_9="39.69963"></scales>
<clustering>
<clus scale="   39.700">  2  9  1 -1</clus>
<clus scale="   80.108">  5  6 -1 -1</clus>
<clus scale="   88.788">  1  5  2 -1</clus>
<clus scale="   91.071">  7  8 -1 -1</clus>
<clus scale="   39.700">  2  5  1 -1</clus>
</clustering>
</event>
<event>
 9    2  0.6469128E-005  0.1017810E+03  0.7546771E-02  0.1282987E+00
          2   -1    0    0  502    0 -0.00000000000E+00  0.00000000000E+00  0.16290593823E+03  0.16290593823E+03  0.00000000000E+00 0. -1.
         21   -1    0    0  501  502  0.00000000000E+00 -0.00000000000E+00 -0.11154472062E+03  0.11154472062E+03  0.00000000000E+00 0.  1.
         23    2    1    2    0    0  0.29801311574E+02 -0.39087400096E+02  0.10966171456E+03  0.15120441253E+03  0.91766768007E+02 0.  0.
         24    2    1    2    0    0 -0.21217903229E+02  0.15918004455E+02 -0.51308008751E+02  0.97567642687E+02  0.78634285488E+02 0.  0.
        -13    1    4    4    0    0 -0.45498478493E+02  0.28828260780E+02 -0.42754410461E+02  0.68768595875E+02  0.00000000000E+00 0.  1.
         14    1    4    4    0    0  0.24280575264E+02 -0.12910256325E+02 -0.85535982897E+01  0.28799046811E+02  0.00000000000E+00 0. -1.
        -11    1    3    3    0    0  0.56529333220E+02 -0.49205562403E+02  0.86234970258E+02  0.11425070232E+03  0.00000000000E+00 0. -1.
         11    1    3    3    0    0 -0.26728021646E+02  0.10118162307E+02  0.23426744304E+02  0.36953710209E+02  0.00000000000E+00 0.  1.
          1    1    1    2  501    0 -0.85834083453E+01  0.23169395641E+02 -0.69924881959E+01  0.25678603629E+02  0.00000000000E+00 0. -1.
<scales pt_clust_5="13000.00000" pt_clust_6="13000.00000" pt_clust_7="13000.00000" pt_clust_8="13000.00000" pt_clust_9="24.70821"></scales>
<clustering>
<clus scale="   24.708">  2  9  1 -1</clus>
<clus scale="   78.634">  5  6 -1 -1</clus>
<clus scale="   90.120">  2  5  1 -1</clus>
<clus scale="   91.767">  7  8 -1 -1</clus>
<clus scale="   24.708">  2  5  1 -1</clus>
</clustering>
</event>
<event>
 9    2  0.6469128E-005  0.1927289E+03  0.7546771E-02  0.1187475E+00
         21   -1    0    0  501  502  0.00000000000E+00  0.00000000000E+00  0.84858421339E+02  0.84858421339E+02  0.00000000000E+00 0. -1.
          2   -1    0    0  502    0 -0.00000000000E+00 -0.00000000000E+00 -0.65684399538E+03  0.65684399538E+03  0.00000000000E+00 0. -1.
         24    2    1    2    0    0 -0.12410684391E+02  0.48802721547E+02 -0.12569018316E+03  0.15698753132E+03  0.79443892978E+02 0.  0.
         23    2    1    2    0    0 -0.16060220059E+03 -0.68989850381E+02 -0.17142039610E+03  0.25929632216E+03  0.85422269918E+02 0.  0.
        -11    1    3    3    0    0 -0.46212392973E+01  0.44595559375E+02 -0.13611617727E+03  0.14330992109E+03  0.00000000000E+00 0.  1.
         12    1    3    3    0    0 -0.77894450934E+01  0.42071621716E+01  0.10425994113E+02  0.13677610232E+02  0.00000000000E+00 0. -1.
        -13    1    4    4    0    0 -0.14002411567E+03 -0.21285786400E+02 -0.13646172047E+03  0.19667648265E+03  0.00000000000E+00 0. -1.
         13    1    4    4    0    0 -0.20578084916E+02 -0.47704063981E+02 -0.34958675632E+02  0.62619839516E+02  0.00000000000E+00 0.  1.
          1    1    1    2  501    0  0.17301288498E+03  0.20187128835E+02 -0.27487499478E+03  0.32541856323E+03  0.00000000000E+00 0. -1.
<scales pt_clust_5="13000.00000" pt_clust_6="13000.00000" pt_clust_7="13000.00000" pt_clust_8="13000.00000" pt_clust_9="172.76423"></scales>
<clustering>
<clus scale="   79.444">  5  6 -1 -1</clus>
<clus scale="   85.422">  7  8 -1 -1</clus>
<clus scale="   94.059">  2  5  1 -1</clus>
<clus scale="  172.764">  1  9  2 -1</clus>
<clus scale="  172.764">  1  5  2 -1</clus>
</clustering>
</event>
<event>
 9    2  0.6469128E-005  0.9721838E+02  0.7546771E-02  0.1293616E+00
         21   -1    0    0  501  502  0.00000000000E+00  0.00000000000E+00  0.12182858537E+03  0.12182858537E+03  0.00000000000E+00 0.  1.
          2   -1    0    0  502    0 -0.00000000000E+00 -0.00000000000E+00 -0.11458936852E+03  0.11458936852E+03  0.00000000000E+00 0. -1.
         23    2    1    2    0    0  0.30222672977E+02  0.66391958708E+01 -0.12443130994E+02  0.98750160073E+02  0.92947693472E+02 0.  0.
         24    2    1    2    0    0 -0.32182439328E+01 -0.41573654241E+02  0.24427730906E+02  0.93258625507E+02  0.79760462469E+02 0.  0.
        -13    1    4    4    0    0  0.37917731919E+02 -0.14131747791E+02  0.89475565902E+01  0.41442966332E+02  0.00000000000E+00 0.  1.
         14    1    4    4    0    0 -0.41135975851E+02 -0.27441906450E+02  0.15480174316E+02  0.51815659175E+02  0.00000000000E+00 0. -1.
        -11    1    3    3    0    0  0.53137788189E+02  0.31306991978E+02 -0.18820945540E+02  0.64482402803E+02  0.00000000000E+00 0. -1.
         11    1    3    3    0    0 -0.22915115211E+02 -0.24667796107E+02  0.63778145457E+01  0.34267757270E+02  0.00000000000E+00 0.  1.
          1    1    1    2  501    0 -0.27004429044E+02  0.34934458370E+02 -0.47453830709E+01  0.44409168311E+02  0.00000000000E+00 0. -1.
<scales pt_clust_5="13000.00000" pt_clust_6="13000.00000" pt_clust_7="13000.00000" pt_clust_8="13000.00000" pt_clust_9="44.15493"></scales>
<clustering>
<clus scale="   44.155">  1  9  2 -1</clus>
<clus scale="   79.760">  5  6 -1 -1</clus>
<clus scale="   84.699">  1  5  2 -1</clus>
<clus scale="   92.948">  7  8 -1 -1</clus>
<clus scale="   44.155">  1  5  2 -1</clus>
</clustering>
</event>
<event>
 9    2  0.6469128E-005  0.1197380E+03  0.7546771E-02  0.1246276E+00
         21   -1    0    0  501  502  0.00000000000E+00  0.00000000000E+00  0.11609042873E+03  0.11609042873E+03  0.00000000000E+00 0. -1.
          2   -1    0    0  502    0 -0.00000000000E+00 -0.00000000000E+00 -0.21952626304E+03  0.21952626304E+03  0.00000000000E+00 0. -1.
         23    2    1    2    0    0  0.49553579921E+02  0.96824687960E+02 -0.82840070340E+02  0.16312302312E+03  0.88972276229E+02 0.  0.
         24    2    1    2    0    0  0.89732151200E+01 -0.52655956751E+02  0.24223167242E+00  0.96267133782E+02  0.80088288779E+02 0.  0.
        -13    1    4    4    0    0  0.54265181118E+01  0.21018298772E+02 -0.51521939685E+01  0.22310559939E+02  0.00000000000E+00 0.  1.
         14    1    4    4    0    0  0.35466970082E+01 -0.73674255524E+02  0.53944256409E+01  0.73956573843E+02  0.00000000000E+00 0. -1.
        -13    1    3    3    0    0  0.22919002130E+02  0.99769009396E+01  0.15369212980E+02  0.29343345389E+02  0.00000000000E+00 0.  1.
         13    1    3    3    0    0  0.26634577790E+02  0.86847787020E+02 -0.98209283320E+02  0.13377967773E+03  0.00000000000E+00 0. -1.
          1    1    1    2  501    0 -0.58526795041E+02 -0.44168731208E+02 -0.20837995646E+02  0.76226534861E+02  0.00000000000E+00 0. -1.
<scales pt_clust_5="13000.00000" pt_clust_6="13000.00000" pt_clust_7="13000.00000" pt_clust_8="13000.00000" pt_clust_9="73.32300"></scales>
<clustering>
<clus scale="   73.323">  1  9  2 -1</clus>
<clus scale="   80.088">  5  6 -1 -1</clus>
<clus scale="   88.972">  7  8 -1 -1</clus>
<clus scale="  113.293">  1  5  2 -1</clus>
<clus scale="   73.323">  1  5  2 -1</clus>
</clustering>
</event>
<event>
 9    2  0.6469128E-005  0.1101908E+03  0.7546771E-02  0.1266907E+00
         21   -1    0    0  501  502  0.00000000000E+00  0.00000000000E+00  0.12967432320E+03  0.12967432320E+03  0.00000000000E+00 0.  1.
          2   -1    0    0  502    0 -0.00000000000E+00 -0.00000000000E+00 -0.30021336491E+03  0.30021336491E+03  0.00000000000E+00 0. -1.
         24    2    1    2    0    0  0.47870047968E+02 -0.23591869271E+02 -0.24842687255E+03  0.26640424119E+03  0.80044930699E+02 0.  0.
         23    2    1    2    0    0 -0.45810815902E+02  0.48401973529E+02  0.52937083195E+02  0.12823686527E+03  0.95921722987E+02 0.  0.
        -13    1    3    3    0    0  0.28239979539E+02  0.22984852181E+02 -0.51352202432E+02  0.62951160186E+02  0.00000000000E+00 0.  1.
         14    1    3    3    0    0  0.19630068430E+02 -0.46576721452E+02 -0.19707467012E+03  0.20345308100E+03  0.00000000000E+00 0. -1.
        -13    1    4    4    0    0 -0.59316884066E+02  0.67993921128E+02  0.52589544118E+02  0.10443814531E+03  0.00000000000E+00 0.  1.
         13    1    4    4    0    0  0.13506068164E+02 -0.19591947599E+02  0.34753907708E+00  0.23798719953E+02  0.00000000000E+00 0. -1.
          1    1    1    2  501    0 -0.20592320662E+01 -0.24810104258E+02  0.24950747645E+02  0.35246581651E+02  0.00000000000E+00 0. -1.
<scales pt_clust_5="13000.00000" pt_clust_6="13000.00000" pt_clust_7="13000.00000" pt_clust_8="13000.00000" pt_clust_9="24.89542"></scales>
<clustering>
<clus scale="   24.895">  1  9  2 -1</clus>
<clus scale="   80.045">  5  6 -1 -1</clus>
<clus scale="   95.922">  7  8 -1 -1</clus>
<clus scale="   96.686">  2  5  1 -1</clus>
<clus scale="   24.895">  1  5  2 -1</clus>
</clustering>
</event>
<event>
 9    2  0.6469128E-005  0.1006545E+03  0.7546771E-02  0.1281742E+00
         21   -1    0    0  501  502  0.00000000000E+00  0.00000000000E+00  0.70018706473E+02  0.70018706473E+02  0.00000000000E+00 0.  1.
          2   -1    0    0  502    0 -0.00000000000E+00 -0.00000000000E+00 -0.47423587946E+03  0.47423587946E+03  0.00000000000E+00 0. -1.
         24    2    1    2    0    0 -0.46654212502E+02 -0.24378217483E+02 -0.36598161315E+03  0.37946736237E+03  0.85334781353E+02 0.  0.
         23    2    1    2    0    0  0.58451999528E+00  0.12583676553E+02 -0.62648288741E+02  0.11133154944E+03  0.91165866631E+02 0.  0.
        -13    1    3    3    0    0 -0.31246597678E+02  0.28411159167E+02 -0.11441657620E+03  0.12196186593E+03  0.00000000000E+00 0.  1.
         14    1    3    3    0    0 -0.15407614824E+02 -0.52789376650E+02 -0.25156503695E+03  0.25750549644E+03  0.00000000000E+00 0. -1.
        -13    1    4    4    0    0  0.45464888594E+02  0.30149386776E+00 -0.29414408551E+02  0.54151218119E+02  0.00000000000E+00 0.  1.
         13    1    4    4    0    0 -0.44880368598E+02  0.12282182685E+02 -0.33233880191E+02  0.57180331317E+02  0.00000000000E+00 0. -1.
          1    1    1    2  501    0  0.46069692507E+02  0.11794540931E+02  0.24412728906E+02  0.53455674124E+02  0.00000000000E+00 0. -1.
<scales pt_clust_5="13000.00000" pt_clust_6="13000.00000" pt_clust_7="13000.00000" pt_clust_8="13000.00000" pt_clust_9="47.55552"></scales>
<clustering>
<clus scale="   47.556">  1  9  2 -1</clus>
<clus scale="   85.335">  5  6 -1 -1</clus>
<clus scale="   91.166">  7  8 -1 -1</clus>
<clus scale="   95.405">  2  5  1 -1</clus>
<clus scale="   47.556">  1  5  2 -1</clus>
</clustering>
</event>
<event>
 9    2  0.6469128E-005  0.1739436E+03  0.7546771E-02  0.1203712E+00
          4   -1    0    0  502    0 -0.00000000000E+00  0.00000000000E+00  0.20078318333E+03  0.20078318333E+03  0.00000000000E+00 0. -1.
         21   -1    0    0  501  502  0.00000000000E+00 -0.00000000000E+00 -0.57599641736E+03  0.57599641736E+03  0.00000000000E+00 0. -1.
         24    2    1    2    0    0 -0.41161911112E+02 -0.82295766783E+01  0.13970387458E+03  0.16601103502E+03  0.79249367927E+02 0.  0.
         23    2    1    2    0    0 -0.10581767291E+03 -0.64223974808E+02 -0.17148750552E+03  0.23024733430E+03  0.91015227086E+02 0.  0.
        -13    1    3    3    0    0 -0.32183671677E+02  0.32971334291E+02  0.87633288086E+02  0.99007528948E+02  0.00000000000E+00 0.  1.
         14    1    3    3    0    0 -0.89782394352E+01 -0.41200910969E+02  0.52070586494E+02  0.67003506071E+02  0.00000000000E+00 0. -1.
        -11    1    4    4    0    0 -0.74744026156E+02 -0.86470598166E+02 -0.11578991327E+03  0.16269953230E+03  0.00000000000E+00 0. -1.
         11    1    4    4    0    0 -0.31073646756E+02  0.22246623358E+02 -0.55697592242E+02  0.67547802001E+02  0.00000000000E+00 0.  1.
          3    1    1    2  501    0  0.14697958402E+03  0.72453551486E+02 -0.34342960309E+03  0.38052123137E+03  0.00000000000E+00 0. -1.
<scales pt_clust_5="13000.00000" pt_clust_6="13000.00000" pt_clust_7="13000.00000" pt_clust_8="13000.00000" pt_clust_9="148.23156"></scales>
<clustering>
<clus scale="   79.249">  5  6 -1 -1</clus>
<clus scale="   89.680">  1  5  2 -1</clus>
<clus scale="   91.015">  7  8 -1 -1</clus>
<clus scale="  148.232">  2  9  1 -1</clus>
<clus scale="  148.232">  2  5  1 -1</clus>
</clustering>
</event>
<event>
 9    2  0.6469128E-005  0.1074034E+03  0.7546771E-02  0.1270627E+00
         21   -1    0    0  501  502  0.00000000000E+00  0.00000000000E+00  0.18608004244E+02  0.18608004244E+02  0.00000000000E+00 0.  1.
          2   -1    0    0  502    0 -0.00000000000E+00 -0.00000000000E+00 -0.94743827022E+03  0.94743827022E+03  0.00000000000E+00 0. -1.
         24    2    1    2    0    0 -0.79879932989E+01 -0.57853704669E+02 -0.67567820051E+03  0.68285091346E+03  0.79583165232E+02 0.  0.
         23    2    1    2    0    0 -0.12283051296E+02  0.47776000505E+02 -0.20429493063E+03  0.22934840200E+03  0.91819666974E+02 0.  0.
        -11    1    3    3    0    0 -0.18396380815E+02 -0.69890852420E+02 -0.38418124523E+03  0.39091992437E+03  0.00000000000E+00 0.  1.
         12    1    3    3    0    0  0.10408387516E+02  0.12037147751E+02 -0.29149695528E+03  0.29193098909E+03  0.00000000000E+00 0. -1.
        -13    1    4    4    0    0 -0.19613998424E+01  0.74437208503E+02 -0.13114915824E+03  0.15081394766E+03  0.00000000000E+00 0.  1.
         13    1    4    4    0    0 -0.10321651453E+02 -0.26661207998E+02 -0.73145772386E+02  0.78534454341E+02  0.00000000000E+00 0. -1.
          1    1    1    2  501    0  0.20271044595E+02  0.10077704164E+02 -0.48857134838E+02  0.53846959011E+02  0.00000000000E+00 0. -1.
<scales pt_clust_5="13000.00000" pt_clust_6="13000.00000" pt_clust_7="13000.00000" pt_clust_8="13000.00000" pt_clust_9="22.63792"></scales>
<clustering>
<clus scale="   22.638">  1  9  2 -1</clus>
<clus scale="   79.583">  5  6 -1 -1</clus>
<clus scale="   91.820">  7  8 -1 -1</clus>
<clus scale="   97.150">  2  5  1 -1</clus>
<clus scale="   22.638">  1  5  2 -1</clus>
</clustering>
</event>
<event>
 9    2  0.6469128E-005  0.9516637E+02  0.7546771E-02  0.1294613E+00
          2   -1    0    0  502    0 -0.00000000000E+00  0.00000000000E+00  0.12168728745E+03  0.12168728745E+03  0.00000000000E+00 0. -1.
         21   -1    0    0  501  502  0.00000000000E+00 -0.00000000000E+00 -0.18501164141E+03  0.18501164141E+03  0.00000000000E+00 0.  1.
         24    2    1    2    0    0  0.12092544676E+02  0.28587311440E+02  0.60912700108E+02  0.10761694843E+03  0.83111891709E+02 0.  0.
         23    2    1    2    0    0 -0.52993090149E+02 -0.32674696863E+01 -0.10213201081E+03  0.14614256275E+03  0.90043084432E+02 0.  0.
        -13    1    3    3    0    0  0.23113520358E+02 -0.24861094801E+02  0.19875395593E+02  0.39336245475E+02  0.00000000000E+00 0.  1.
         14    1    3    3    0    0 -0.11020975682E+02  0.53448406241E+02  0.41037304514E+02  0.68280702958E+02  0.00000000000E+00 0. -1.
        -13    1    4    4    0    0 -0.41101660834E+02  0.37620242090E+02 -0.81753428546E+02  0.98935596310E+02  0.00000000000E+00 0.  1.
         13    1    4    4    0    0 -0.11891429315E+02 -0.40887711777E+02 -0.20378582261E+02  0.47206966440E+02  0.00000000000E+00 0. -1.
          1    1    1    2  501    0  0.40900545473E+02 -0.25319841753E+02 -0.22105043259E+02  0.52939417676E+02  0.00000000000E+00 0. -1.
<scales pt_clust_5="13000.00000" pt_clust_6="13000.00000" pt_clust_7="13000.00000" pt_clust_8="13000.00000" pt_clust_9="48.10352"></scales>
<clustering>
<clus scale="   48.104">  2  9  1 -1</clus>
<clus scale="   83.112">  5  6 -1 -1</clus>
<clus scale="   88.637">  1  5  2 -1</clus>
<clus scale="   90.043">  7  8 -1 -1</clus>
<clus scale="   48.104">  2  5  1 -1</clus>
</clustering>
</event>
<event>
 9    2  0.6469128E-005  0.2980010E+03  0.7546771E-02  0.1086646E+00
         21   -1    0    0  501  502  0.00000000000E+00  0.00000000000E+00  0.27611736145E+03  0.27611736145E+03  0.00000000000E+00 0. -1.
          4   -1    0    0  502    0 -0.00000000000E+00 -0.00000000000E+00 -0.54852822616E+03  0.54852822616E+03  0.00000000000E+00 0. -1.
         24    2    1    2    0    0  0.26912628226E+02 -0.27234552311E+03 -0.17312023793E+03  0.33338118350E+03  0.79221355811E+02 0.  0.
         23    2    1    2    0    0  0.10570847298E+03  0.29665192310E+03 -0.13087226895E+03  0.35278495550E+03  0.90294126659E+02 0.  0.
        -13    1    3    3    0    0  0.42725753214E+02 -0.12091192883E+03 -0.10849332143E+03  0.16797614508E+03  0.00000000000E+00 0.  1.
         14    1    3    3    0    0 -0.15813124988E+02 -0.15143359429E+03 -0.64626916494E+02  0.16540503843E+03  0.00000000000E+00 0. -1.
        -13    1    4    4    0    0  0.36083299909E+02  0.14539746160E+03 -0.10807160642E+03  0.18472113708E+03  0.00000000000E+00 0. -1.
         13    1    4    4    0    0  0.69625173067E+02  0.15125446151E+03 -0.22800662530E+02  0.16806381842E+03  0.00000000000E+00 0.  1.
          3    1    1    2  501    0 -0.13262110120E+03 -0.24306399987E+02  0.31581642164E+02  0.13847944861E+03  0.00000000000E+00 0. -1.
<scales pt_clust_5="13000.00000" pt_clust_6="13000.00000" pt_clust_7="13000.00000" pt_clust_8="13000.00000" pt_clust_9="134.83011"></scales>
<clustering>
<clus scale="   79.221">  5  6 -1 -1</clus>
<clus scale="   90.294">  7  8 -1 -1</clus>
<clus scale="  134.830">  1  9  2 -1</clus>
<clus scale="  294.835">  2  5  1 -1</clus>
<clus scale="  134.830">  1  5  2 -1</clus>
</clustering>
</event>
<event>
 9    2  0.6469128E-005  0.1948443E+03  0.7546771E-02  0.1184394E+00
         -1   -1    0    0    0  501 -0.00000000000E+00  0.00000000000E+00  0.58445586516E+02  0.58445586516E+02  0.00000000000E+00 0.  1.
         21   -1    0    0  501  502  0.00000000000E+00 -0.00000000000E+00 -0.98528529455E+03  0.98528529455E+03  0.00000000000E+00 0. -1.
         24    2    1    2    0    0 -0.16343341509E+02  0.38982823276E+02 -0.14682374794E+03  0.17624128268E+03  0.87846522063E+02 0.  0.
         23    2    1    2    0    0 -0.70366583185E+02 -0.17250670153E+03 -0.55429076777E+03  0.59126668197E+03  0.87452935171E+02 0.  0.
        -13    1    3    3    0    0 -0.93853549479E+01  0.67162345124E+02 -0.93132425708E+02  0.11520639830E+03  0.00000000000E+00 0.  1.
         14    1    3    3    0    0 -0.69579865609E+01 -0.28179521847E+02 -0.53691322235E+02  0.61034884385E+02  0.00000000000E+00 0. -1.
        -11    1    4    4    0    0 -0.71886344146E+02 -0.66025399412E+02 -0.22726047936E+03  0.24733444023E+03  0.00000000000E+00 0.  1.
         11    1    4    4    0    0  0.15197609610E+01 -0.10648130212E+03 -0.32703028841E+03  0.34393224174E+03  0.00000000000E+00 0. -1.
         -2    1    1    2    0  502  0.86709924694E+02  0.13352387826E+03 -0.22572519232E+03  0.27622291642E+03  0.00000000000E+00 0.  1.
<scales pt_clust_5="13000.00000" pt_clust_6="13000.00000" pt_clust_7="13000.00000" pt_clust_8="13000.00000" pt_clust_9="174.11576"></scales>
<clustering>
<clus scale="   87.453">  7  8 -1 -1</clus>
<clus scale="   87.847">  5  6 -1 -1</clus>
<clus scale="   97.487">  1  5  2 -1</clus>
<clus scale="  174.116">  2  9  1 -1</clus>
<clus scale="  174.116">  2  5  1 -1</clus>
</clustering>
</event>
<event>
 9    2  0.6469128E-005  0.1201833E+03  0.7546771E-02  0.1265989E+00
          2   -1    0    0  502    0 -0.00000000000E+00  0.00000000000E+00  0.28055054741E+03  0.28055054741E+03  0.00000000000E+00 0. -1.
         21   -1    0    0  501  502  0.00000000000E+00 -0.00000000000E+00 -0.76293553105E+02  0.76293553105E+02  0.00000000000E+00 0. -1.
         24    2    1    2    0    0 -0.20659388868E+02 -0.14951456455E+02  0.22456814816E+02  0.79116018750E+02  0.71447039776E+02 0.  0.
         23    2    1    2    0    0 -0.59375703582E+02  0.23692045146E+02  0.15727008360E+03  0.19356312755E+03  0.92983966207E+02 0.  0.
        -11    1    3    3    0    0 -0.22446461755E+02 -0.42483593285E+02  0.11329363574E+02  0.49366525325E+02  0.00000000000E+00 0.  1.
         12    1    3    3    0    0  0.17870728874E+01  0.27532136829E+02  0.11127451241E+02  0.29749493425E+02  0.00000000000E+00 0. -1.
        -13    1    4    4    0    0 -0.45337462192E+02  0.58739219485E+02  0.11528134105E+03  0.13709693278E+03  0.00000000000E+00 0. -1.
         13    1    4    4    0    0 -0.14038241390E+02 -0.35047174340E+02  0.41988742550E+02  0.56466194767E+02  0.00000000000E+00 0.  1.
          1    1    1    2  501    0  0.80035092450E+02 -0.87405886904E+01  0.24530095890E+02  0.84164954218E+02  0.00000000000E+00 0. -1.
<scales pt_clust_5="13000.00000" pt_clust_6="13000.00000" pt_clust_7="13000.00000" pt_clust_8="13000.00000" pt_clust_9="76.14467"></scales>
<clustering>
<clus scale="   71.447">  5  6 -1 -1</clus>
<clus scale="   75.862">  1  5  2 -1</clus>
<clus scale="   76.145">  2  9  1 -1</clus>
<clus scale="   92.984">  7  8 -1 -1</clus>
<clus scale="   76.145">  2  5  1 -1</clus>
</clustering>
</event>
<event>
 9    2  0.6469128E-005  0.1160441E+03  0.7546771E-02  0.1252831E+00
         21   -1    0    0  501  502  0.00000000000E+00  0.00000000000E+00  0.13490457091E+03  0.13490457091E+03  0.00000000000E+00 0. -1.
          2   -1    0    0  502    0 -0.00000000000E+00 -0.00000000000E+00 -0.21413745957E+03  0.21413745957E+03  0.00000000000E+00 0. -1.
         24    2    1    2    0    0  0.66133494380E+02 -0.13860485896E+02 -0.76633108703E+02  0.13042406053E+03  0.81068181602E+02 0.  0.
         23    2    1    2    0    0 -0.92368154765E+02  0.21719031502E+02  0.64687813749E+02  0.14597064095E+03  0.90107282882E+02 0.  0.
        -13    1    3    3    0    0  0.69858104529E+02 -0.38716152656E+02 -0.63687388070E+02  0.10215272216E+03  0.00000000000E+00 0.  1.
         14    1    3    3    0    0 -0.37246101488E+01  0.24855666761E+02 -0.12945720634E+02  0.28271338377E+02  0.00000000000E+00 0. -1.
        -11    1    4    4    0    0 -0.25625948935E+02 -0.20903645951E+02 -0.12529562929E+02  0.35364411773E+02  0.00000000000E+00 0.  1.
         11    1    4    4    0    0 -0.66742205830E+02  0.42622677453E+02  0.77217376678E+02  0.11060622918E+03  0.00000000000E+00 0. -1.
          1    1    1    2  501    0  0.26234660384E+02 -0.78585456066E+01 -0.67287593704E+02  0.72647329001E+02  0.00000000000E+00 0. -1.
<scales pt_clust_5="13000.00000" pt_clust_6="13000.00000" pt_clust_7="13000.00000" pt_clust_8="13000.00000" pt_clust_9="27.38640"></scales>
<clustering>
<clus scale="   27.386">  1  9  2 -1</clus>
<clus scale="   81.068">  5  6 -1 -1</clus>
<clus scale="   90.107">  7  8 -1 -1</clus>
<clus scale="  109.174">  2  5  1 -1</clus>
<clus scale="   27.386">  1  5  2 -1</clus>
</clustering>
</event>
<event>
 9    2  0.6469128E-005  0.3819358E+03  0.7546771E-02  0.1050221E+00
          2   -1    0    0  502    0 -0.00000000000E+00  0.00000000000E+00  0.21023986512E+04  0.21023986512E+04  0.00000000000E+00 0. -1.
         21   -1    0    0  501  502  0.00000000000E+00 -0.00000000000E+00 -0.61697108591E+02  0.61697108591E+02  0.00000000000E+00 0. -1.
         24    2    1    2    0    0  0.17275991039E+03 -0.59984904560E+01  0.55937303495E+03  0.59089787488E+03  0.79875764640E+02 0.  0.
         23    2    1    2    0    0  0.11947404893E+03  0.96350309542E+02  0.88337573258E+03  0.90154942076E+03  0.94240345025E+02 0.  0.
        -13    1    3    3    0    0  0.32827331492E+02  0.31306463841E+02  0.12104373942E+03  0.12926451649E+03  0.00000000000E+00 0.  1.
         14    1    3    3    0    0  0.13993257890E+03 -0.37304954297E+02  0.43832929553E+03  0.46163335838E+03  0.00000000000E+00 0. -1.
        -13    1    4    4    0    0  0.48684760571E+02 -0.11560023165E+02  0.20611743841E+03  0.21210431034E+03  0.00000000000E+00 0.  1.
         13    1    4    4    0    0  0.70789288362E+02  0.10791033271E+03  0.67725829417E+03  0.68944511042E+03  0.00000000000E+00 0. -1.
          1    1    1    2  501    0 -0.29223395932E+03 -0.90351819086E+02  0.59795277508E+03  0.67164846417E+03  0.00000000000E+00 0. -1.
<scales pt_clust_5="13000.00000" pt_clust_6="13000.00000" pt_clust_7="13000.00000" pt_clust_8="13000.00000" pt_clust_9="305.88256"></scales>
<clustering>
<clus scale="   79.876">  5  6 -1 -1</clus>
<clus scale="   94.240">  7  8 -1 -1</clus>
<clus scale="  168.363">  5  7 -1 -1</clus>
<clus scale="  305.883">  2  9  1 -1</clus>
<clus scale="  305.883">  2  5  1 -1</clus>
</clustering>
</event>
<event>
 9    2  0.6469128E-005  0.2174557E+03  0.7546771E-02  0.1176761E+00
         -1   -1    0    0    0  501 -0.00000000000E+00  0.00000000000E+00  0.20417985835E+03  0.20417985835E+03  0.00000000000E+00 0.  1.
         21   -1    0    0  501  502  0.00000000000E+00 -0.00000000000E+00 -0.35851453307E+03  0.35851453307E+03  0.00000000000E+00 0.  1.
         24    2    1    2    0    0 -0.90836821969E+01 -0.17137881365E+02  0.11623571150E+02  0.84050639909E+02  0.80951728845E+02 0.  0.
         23    2    1    2    0    0  0.36929700115E+02 -0.18841052166E+03 -0.16798256606E+03  0.27120787088E+03  0.92050199903E+02 0.  0.
        -13    1    3    3    0    0  0.12799990482E+02  0.21120364060E+02  0.27722725241E+02  0.37127604678E+02  0.00000000000E+00 0.  1.
         14    1    3    3    0    0 -0.21883672679E+02 -0.38258245424E+02 -0.16099154091E+02  0.46923035231E+02  0.00000000000E+00 0. -1.
        -11    1    4    4    0    0  0.57478659186E+02 -0.18042795443E+03 -0.13953913692E+03  0.23522162684E+03  0.00000000000E+00 0.  1.
         11    1    4    4    0    0 -0.20548959071E+02 -0.79825672305E+01 -0.28443429140E+02  0.35986244035E+02  0.00000000000E+00 0. -1.
         -2    1    1    2    0  502 -0.27846017918E+02  0.20554840302E+03  0.20243201952E+01  0.20743588063E+03  0.00000000000E+00 0.  1.
<scales pt_clust_5="13000.00000" pt_clust_6="13000.00000" pt_clust_7="13000.00000" pt_clust_8="13000.00000" pt_clust_9="197.01218"></scales>
<clustering>
<clus scale="   80.952">  5  6 -1 -1</clus>
<clus scale="   83.243">  1  5  2 -1</clus>
<clus scale="   92.050">  7  8 -1 -1</clus>
<clus scale="  197.012">  2  9  1 -1</clus>
<clus scale="  197.012">  2  5  1 -1</clus>
</clustering>
</event>
<event>
 9    2  0.6469128E-005  0.1698832E+03  0.7546771E-02  0.1179850E+00
         21   -1    0    0  501  502  0.00000000000E+00  0.00000000000E+00  0.67511247759E+02  0.67511247759E+02  0.00000000000E+00 0. -1.
         -3   -1    0    0    0  501 -0.00000000000E+00 -0.00000000000E+00 -0.76381292128E+03  0.76381292128E+03  0.00000000000E+00 0.  1.
         24    2    1    2    0    0  0.29915679615E+02  0.14294169668E+03 -0.57496551491E+03  0.59841116226E+03  0.78633957261E+02 0.  0.
         23    2    1    2    0    0 -0.51662514710E+02 -0.11917101099E+03 -0.74134907564E+02  0.17576470467E+03  0.92339057833E+02 0.  0.
        -13    1    3    3    0    0  0.13649668737E+02  0.14814681087E+03 -0.51775712393E+03  0.53870792681E+03  0.00000000000E+00 0.  1.
         14    1    3    3    0    0  0.16266010878E+02 -0.52051141908E+01 -0.57208390987E+02  0.59703235448E+02  0.00000000000E+00 0. -1.
        -11    1    4    4    0    0  0.23418957285E+02 -0.97943529144E+01 -0.39926289725E+01  0.25696653390E+02  0.00000000000E+00 0.  1.
         11    1    4    4    0    0 -0.75081471995E+02 -0.10937665807E+03 -0.70142278592E+02  0.15006805128E+03  0.00000000000E+00 0. -1.
         -4    1    1    2    0  502  0.21746835095E+02 -0.23770685693E+02 -0.47201251045E+02  0.57148302120E+02  0.00000000000E+00 0.  1.
<scales pt_clust_5="13000.00000" pt_clust_6="13000.00000" pt_clust_7="13000.00000" pt_clust_8="13000.00000" pt_clust_9="32.21755"></scales>
<clustering>
<clus scale="   32.218">  1  9  2 -1</clus>
<clus scale="   78.634">  5  6 -1 -1</clus>
<clus scale="   92.339">  7  8 -1 -1</clus>
<clus scale="  162.841">  2  5  1 -1</clus>
<clus scale="   32.218">  1  5  2 -1</clus>
</clustering>
</event>
<event>
 9    2  0.6469128E-005  0.1697844E+03  0.7546771E-02  0.1180595E+00
         -1   -1    0    0    0  501 -0.00000000000E+00  0.00000000000E+00  0.27693130586E+03  0.27693130586E+03  0.00000000000E+00 0.  1.
         21   -1    0    0  501  502  0.00000000000E+00 -0.00000000000E+00 -0.17818274205E+03  0.17818274205E+03  0.00000000000E+00 0. -1.
         24    2    1    2    0    0 -0.20044293467E+02 -0.13379734003E+03  0.54906961813E+02  0.16539170185E+03  0.77692590923E+02 0.  0.
         23    2    1    2    0    0  0.80229479111E+02  0.13619084520E+03 -0.37538239711E+02  0.18847678283E+03  0.95549267873E+02 0.  0.
        -13    1    3    3    0    0  0.13499368637E+02 -0.86482012945E+02  0.61563931216E+02  0.10701163088E+03  0.00000000000E+00 0.  1.
         14    1    3    3    0    0 -0.33543662104E+02 -0.47315327087E+02 -0.66569694032E+01  0.58380070969E+02  0.00000000000E+00 0. -1.
        -13    1    4    4    0    0  0.15375253361E+02  0.73717837266E+02  0.24427076762E+02  0.79166912446E+02  0.00000000000E+00 0.  1.
         13    1    4    4    0    0  0.64854225750E+02  0.62473007937E+02 -0.61965316474E+02  0.10930987039E+03  0.00000000000E+00 0. -1.
         -2    1    1    2    0  502 -0.60185185644E+02 -0.23935051708E+01  0.81379841703E+02  0.10124556323E+03  0.00000000000E+00 0.  1.
<scales pt_clust_5="13000.00000" pt_clust_6="13000.00000" pt_clust_7="13000.00000" pt_clust_8="13000.00000" pt_clust_9="60.23279"></scales>
<clustering>
<clus scale="   60.233">  2  9  1 -1</clus>
<clus scale="   77.693">  5  6 -1 -1</clus>
<clus scale="   95.549">  7  8 -1 -1</clus>
<clus scale="  160.416">  1  5  2 -1</clus>
<clus scale="   60.233">  2  5  1 -1</clus>
</clustering>
</event>
<event>
 9    2  0.6469128E-005  0.1067265E+03  0.7546771E-02  0.1276513E+00
          4   -1    0    0  502    0 -0.00000000000E+00  0.00000000000E+00  0.10479946074E+03  0.10479946074E+03  0.00000000000E+00 0. -1.
         21   -1    0    0  501  502  0.00000000000E+00 -0.00000000000E+00 -0.21763805450E+03  0.21763805450E+03  0.00000000000E+00 0. -1.
         24    2    1    2    0    0  0.17706652513E+02 -0.45368747233E+02  0.40327474050E+02  0.10188697514E+03  0.79892438757E+02 0.  0.
         23    2    1    2    0    0 -0.92034776956E+01  0.45936002974E+01 -0.56112873190E+02  0.11493690852E+03  0.99779924019E+02 0.  0.
        -11    1    3    3    0    0 -0.11126485683E+01 -0.41785270672E+02  0.60842603925E+02  0.73817811430E+02  0.00000000000E+00 0.  1.
         12    1    3    3    0    0  0.18819301081E+02 -0.35834765610E+01 -0.20515129874E+02  0.28069163707E+02  0.00000000000E+00 0. -1.
        -11    1    4    4    0    0 -0.11527806636E+02  0.34697907884E+02  0.13565204370E+02  0.38998075683E+02  0.00000000000E+00 0.  1.
         11    1    4    4    0    0  0.23243289405E+01 -0.30104307587E+02 -0.69678077560E+02  0.75938832838E+02  0.00000000000E+00 0. -1.
          3    1    1    2  501    0 -0.85031748172E+01  0.40775146935E+02 -0.97053194624E+02  0.10561363158E+03  0.00000000000E+00 0. -1.
<scales pt_clust_5="13000.00000" pt_clust_6="13000.00000" pt_clust_7="13000.00000" pt_clust_8="13000.00000" pt_clust_9="41.65233"></scales>
<clustering>
<clus scale="   41.652">  2  9  1 -1</clus>
<clus scale="   79.892">  5  6 -1 -1</clus>
<clus scale="   88.416">  1  5  2 -1</clus>
<clus scale="   99.780">  7  8 -1 -1</clus>
<clus scale="   41.652">  2  5  1 -1</clus>
</clustering>
</event>
<event>
 9    2  0.6469128E-005  0.1111705E+03  0.7546771E-02  0.1264028E+00
          2   -1    0    0  502    0 -0.00000000000E+00  0.00000000000E+00  0.44349789496E+03  0.44349789496E+03  0.00000000000E+00 0. -1.
         21   -1    0    0  501  502  0.00000000000E+00 -0.00000000000E+00 -0.10050362671E+03  0.10050362671E+03  0.00000000000E+00 0. -1.
         23    2    1    2    0    0 -0.69949381221E+02  0.37250145801E+02  0.30950170576E+03  0.33297376025E+03  0.93806875283E+02 0.  0.
         24    2    1    2    0    0  0.22162973934E+02 -0.25666369827E+02  0.97418993878E+02  0.13037843893E+03  0.79737801682E+02 0.  0.
        -11    1    4    4    0    0  0.32463455637E+02 -0.23619657190E+02  0.10815154366E+03  0.11536256131E+03  0.00000000000E+00 0.  1.
         12    1    4    4    0    0 -0.10300481703E+02 -0.20467126375E+01 -0.10732549779E+02  0.15015877620E+02  0.00000000000E+00 0. -1.
        -11    1    3    3    0    0 -0.21801123243E+02  0.64076612277E+02  0.17102789897E+03  0.18393380179E+03  0.00000000000E+00 0.  1.
         11    1    3    3    0    0 -0.48148257977E+02 -0.26826466476E+02  0.13847380679E+03  0.14903995846E+03  0.00000000000E+00 0. -1.
          1    1    1    2  501    0  0.47786407286E+02 -0.11583775974E+02 -0.63926431389E+02  0.80649322485E+02  0.00000000000E+00 0. -1.
<scales pt_clust_5="13000.00000" pt_clust_6="13000.00000" pt_clust_7="13000.00000" pt_clust_8="13000.00000" pt_clust_9="49.17036"></scales>
<clustering>
<clus scale="   49.170">  2  9  1 -1</clus>
<clus scale="   79.738">  5  6 -1 -1</clus>
<clus scale="   93.807">  7  8 -1 -1</clus>
<clus scale="   99.586">  2  5  1 -1</clus>
<clus scale="   49.170">  2  5  1 -1</clus>
</clustering>
</event>
<event>
 9    2  0.6469128E-005  0.1440602E+03  0.7546771E-02  0.1209713E+00
         21   -1    0    0  501  502  0.00000000000E+00  0.00000000000E+00  0.63421709219E+02  0.63421709219E+02  0.00000000000E+00 0.  1.
         -1   -1    0    0    0  501 -0.00000000000E+00 -0.00000000000E+00 -0.45695089908E+03  0.45695089908E+03  0.00000000000E+00 0.  1.
         24    2    1    2    0    0  0.58444993560E+02  0.10171851390E+03 -0.29595338673E+03  0.32905324160E+03  0.83217518258E+02 0.  0.
         23    2    1    2    0    0 -0.57196640030E+02 -0.76262979068E+02 -0.58498463922E+02  0.14466552356E+03  0.91752633856E+02 0.  0.
        -11    1    3    3    0    0  0.31823045927E+02  0.96836522851E+02 -0.27919252845E+03  0.29721791055E+03  0.00000000000E+00 0.  1.
         12    1    3    3    0    0  0.26621947633E+02  0.48819910479E+01 -0.16760858278E+02  0.31835331042E+02  0.00000000000E+00 0. -1.
        -11    1    4    4    0    0  0.15638125820E+02 -0.44797876745E+02 -0.24265608654E+01  0.47510934927E+02  0.00000000000E+00 0.  1.
         11    1    4    4    0    0 -0.72834765850E+02 -0.31465102322E+02 -0.56071903057E+02  0.97154588636E+02  0.00000000000E+00 0. -1.
         -2    1    1    2    0  502 -0.12483535292E+01 -0.25455534832E+02 -0.39077339206E+02  0.46653843138E+02  0.00000000000E+00 0.  1.
<scales pt_clust_5="13000.00000" pt_clust_6="13000.00000" pt_clust_7="13000.00000" pt_clust_8="13000.00000" pt_clust_9="25.48614"></scales>
<clustering>
<clus scale="   25.486">  1  9  2 -1</clus>
<clus scale="   83.218">  5  6 -1 -1</clus>
<clus scale="   91.753">  7  8 -1 -1</clus>
<clus scale="  138.780">  2  5  1 -1</clus>
<clus scale="   25.486">  1  5  2 -1</clus>
</clustering>
</event>
<event>
 9    2  0.6469128E-005  0.1275092E+03  0.7546771E-02  0.1235506E+00
         21   -1    0    0  501  502  0.00000000000E+00  0.00000000000E+00  0.98656566000E+02  0.98656566000E+02  0.00000000000E+00 0. -1.
          2   -1    0    0  502    0 -0.00000000000E+00 -0.00000000000E+00 -0.11973930375E+04  0.11973930375E+04  0.00000000000E+00 0. -1.
         24    2    1    2    0    0  0.33925552636E+02  0.85816480199E+02 -0.99788904108E+03  0.10053604866E+04  0.80322838350E+02 0.  0.
         23    2    1    2    0    0 -0.65884684973E+02 -0.19563323316E+02 -0.15843995731E+03  0.19726660301E+03  0.95327736038E+02 0.  0.
        -11    1    3    3    0    0  0.38913118143E+02  0.75496534143E+01 -0.22134436274E+03  0.22486563754E+03  0.00000000000E+00 0.  1.
         12    1    3    3    0    0 -0.49875655075E+01  0.78266826785E+02 -0.77654467834E+03  0.78049484908E+03  0.00000000000E+00 0. -1.
        -13    1    4    4    0    0 -0.88562056825E+02 -0.37061223688E+01 -0.13195808561E+03  0.15896512073E+03  0.00000000000E+00 0.  1.
         13    1    4    4    0    0  0.22677371852E+02 -0.15857200947E+02 -0.26481871705E+02  0.38301482281E+02  0.00000000000E+00 0. -1.
          1    1    1    2  501    0  0.31959132337E+02 -0.66253156884E+02  0.57592526912E+02  0.93422513844E+02  0.00000000000E+00 0. -1.
<scales pt_clust_5="13000.00000" pt_clust_6="13000.00000" pt_clust_7="13000.00000" pt_clust_8="13000.00000" pt_clust_9="73.55860"></scales>
<clustering>
<clus scale="   73.559">  1  9  2 -1</clus>
<clus scale="   80.323">  5  6 -1 -1</clus>
<clus scale="   95.328">  7  8 -1 -1</clus>
<clus scale="  116.717">  2  5  1 -1</clus>
<clus scale="   73.559">  1  5  2 -1</clus>
</clustering>
</event>
<event>
 9    2  0.6469128E-005  0.1032857E+03  0.7546771E-02  0.1279485E+00
         -1   -1    0    0    0  501 -0.00000000000E+00  0.00000000000E+00  0.17540603978E+03  0.17540603978E+03  0.00000000000E+00 0.  1.
         21   -1    0    0  501  502  0.00000000000E+00 -0.00000000000E+00 -0.93762617229E+02  0.93762617229E+02  0.00000000000E+00 0. -1.
         23    2    1    2    0    0  0.21118625256E+01  0.45674225621E+02  0.10621952988E+03  0.14795607212E+03  0.92292014281E+02 0.  0.
         24    2    1    2    0    0 -0.25512044301E+02 -0.45540876393E+02 -0.21247363325E+02  0.97576450984E+02  0.79654739415E+02 0.  0.
        -13    1    4    4    0    0  0.28521742121E+02 -0.86383435121E+01 -0.64326320751E+01  0.30487530363E+02  0.00000000000E+00 0.  1.
         14    1    4    4    0    0 -0.54033786422E+02 -0.36902532881E+02 -0.14814731250E+02  0.67088920621E+02  0.00000000000E+00 0. -1.
        -11    1    3    3    0    0  0.33459576035E+02  0.59781737919E+02  0.67423916080E+02  0.96121713867E+02  0.00000000000E+00 0.  1.
         11    1    3    3    0    0 -0.31347713510E+02 -0.14107512298E+02  0.38795613799E+02  0.51834358253E+02  0.00000000000E+00 0. -1.
         -2    1    1    2    0  502  0.23400181775E+02 -0.13334922823E+00 -0.33287440070E+01  0.23636133901E+02  0.00000000000E+00 0.  1.
<scales pt_clust_5="13000.00000" pt_clust_6="13000.00000" pt_clust_7="13000.00000" pt_clust_8="13000.00000" pt_clust_9="23.40056"></scales>
<clustering>
<clus scale="   23.401">  2  9  1 -1</clus>
<clus scale="   79.655">  5  6 -1 -1</clus>
<clus scale="   92.168">  2  5  1 -1</clus>
<clus scale="   92.292">  7  8 -1 -1</clus>
<clus scale="   23.401">  2  5  1 -1</clus>
</clustering>
</event>
<event>
 9    2  0.6469128E-005  0.1147067E+03  0.7546771E-02  0.1255001E+00
         21   -1    0    0  501  502  0.00000000000E+00  0.00000000000E+00  0.32310036268E+02  0.32310036268E+02  0.00000000000E+00 0.  1.
          2   -1    0    0  502    0 -0.00000000000E+00 -0.00000000000E+00 -0.46760074555E+03  0.46760074555E+03  0.00000000000E+00 0. -1.
         24    2    1    2    0    0  0.29139566119E+02  0.73774636597E+02 -0.22508122341E+03  0.25264498451E+03  0.82922371820E+02 0.  0.
         23    2    1    2    0    0 -0.16768944370E+02 -0.56853077727E+02 -0.18368111392E+03  0.21345565156E+03  0.91165199662E+02 0.  0.
        -13    1    3    3    0    0  0.43203822633E+02  0.46631774116E+01 -0.10035345273E+03  0.10935781174E+03  0.00000000000E+00 0.  1.
         14    1    3    3    0    0 -0.14064256515E+02  0.69111459185E+02 -0.12472777068E+03  0.14328717277E+03  0.00000000000E+00 0. -1.
        -13    1    4    4    0    0 -0.25753800277E+02 -0.21821180641E+02 -0.88129837450E+01  0.34886828972E+02  0.00000000000E+00 0.  1.
         13    1    4    4    0    0  0.89848559065E+01 -0.35031897086E+02 -0.17486813018E+03  0.17856882259E+03  0.00000000000E+00 0. -1.
          1    1    1    2  501    0 -0.12370621749E+02 -0.16921558870E+02 -0.26528371952E+02  0.33810145748E+02  0.00000000000E+00 0. -1.
<scales pt_clust_5="13000.00000" pt_clust_6="13000.00000" pt_clust_7="13000.00000" pt_clust_8="13000.00000" pt_clust_9="20.96119"></scales>
<clustering>
<clus scale="   20.961">  1  9  2 -1</clus>
<clus scale="   82.922">  5  6 -1 -1</clus>
<clus scale="   91.165">  7  8 -1 -1</clus>
<clus scale="  108.271">  2  5  1 -1</clus>
<clus scale="   20.961">  1  5  2 -1</clus>
</clustering>
</event>
<event>
 9    2  0.6469128E-005  0.1036825E+03  0.7546771E-02  0.1274805E+00
          2   -1    0    0  502    0 -0.00000000000E+00  0.00000000000E+00  0.99336321253E+03  0.99336321253E+03  0.00000000000E+00 0. -1.
         21   -1    0    0  501  502  0.00000000000E+00 -0.00000000000E+00 -0.23245741257E+02  0.23245741257E+02  0.00000000000E+00 0.  1.
         24    2    1    2    0    0 -0.94285214917E+01 -0.35950993100E+02  0.71567333059E+03  0.72297813383E+03  0.95538970859E+02 0.  0.
         23    2    1    2    0    0 -0.19909225132E+02  0.57558715479E+02  0.18004554620E+03  0.21078911607E+03  0.91138739139E+02 0.  0.
        -13    1    3    3    0    0  0.23272240872E+02  0.22945706760E+01  0.47818928850E+02  0.53230744933E+02  0.00000000000E+00 0.  1.
         14    1    3    3    0    0 -0.32700762363E+02 -0.38245563776E+02  0.66785440174E+03  0.66974738890E+03  0.00000000000E+00 0. -1.
        -13    1    4    4    0    0  0.17226987774E+02  0.38149194552E+02  0.22009283600E+02  0.47292057655E+02  0.00000000000E+00 0.  1.
         13    1    4    4    0    0 -0.37136212906E+02  0.19409520927E+02  0.15803626260E+03  0.16349705841E+03  0.00000000000E+00 0. -1.
          1    1    1    2  501    0  0.29337746624E+02 -0.21607722379E+02  0.74398594478E+02  0.82841703892E+02  0.00000000000E+00 0. -1.
<scales pt_clust_5="13000.00000" pt_clust_6="13000.00000" pt_clust_7="13000.00000" pt_clust_8="13000.00000" pt_clust_9="36.43621"></scales>
<clustering>
<clus scale="   36.436">  2  9  1 -1</clus>
<clus scale="   91.139">  7  8 -1 -1</clus>
<clus scale="   95.539">  5  6 -1 -1</clus>
<clus scale="   99.643">  2  7  1 -1</clus>
<clus scale="   36.436">  2  5  1 -1</clus>
</clustering>
</event>
<event>
 9    2  0.6469128E-005  0.9400039E+02  0.7546771E-02  0.1299342E+00
          2   -1    0    0  502    0 -0.00000000000E+00  0.00000000000E+00  0.11258390835E+04  0.11258390835E+04  0.00000000000E+00 0. -1.
         21   -1    0    0  501  502  0.00000000000E+00 -0.00000000000E+00 -0.34201683975E+02  0.34201683975E+02  0.00000000000E+00 0. -1.
         24    2    1    2    0    0 -0.24084617334E+02  0.12328116268E+02  0.88811045405E+03  0.89222231102E+03  0.81169097809E+02 0.  0.
         23    2    1    2    0    0  0.99798311321E+01  0.24548093250E+02  0.20742156733E+03  0.22814519217E+03  0.91237690715E+02 0.  0.
        -11    1    3    3    0    0 -0.68209029066E+01 -0.18850651879E+02  0.58364371212E+02  0.61711195254E+02  0.00000000000E+00 0.  1.
         12    1    3    3    0    0 -0.17263714427E+02  0.31178768147E+02  0.82974608284E+03  0.83051111576E+03  0.00000000000E+00 0. -1.
        -13    1    4    4    0    0  0.28789300004E+02 -0.14947677044E+02  0.16148611790E+03  0.16471193982E+03  0.00000000000E+00 0.  1.
         13    1    4    4    0    0 -0.18809468872E+02  0.39495770293E+02  0.45935449428E+02  0.63433252356E+02  0.00000000000E+00 0. -1.
          1    1    1    2  501    0  0.14104786202E+02 -0.36876209518E+02 -0.38946218246E+01  0.39673264314E+02  0.00000000000E+00 0. -1.
<scales pt_clust_5="13000.00000" pt_clust_6="13000.00000" pt_clust_7="13000.00000" pt_clust_8="13000.00000" pt_clust_9="39.48164"></scales>
<clustering>
<clus scale="   39.482">  2  9  1 -1</clus>
<clus scale="   81.169">  5  6 -1 -1</clus>
<clus scale="   84.263">  1  5  2 -1</clus>
<clus scale="   91.238">  7  8 -1 -1</clus>
<clus scale="   39.482">  2  5  1 -1</clus>
</clustering>
</event>
<event>
 9    2  0.1120057E-004  0.2022046E+03  0.7546771E-02  0.1173992E+00
         21   -1    0    0  501  502  0.00000000000E+00  0.00000000000E+00  0.17936729580E+03  0.17936729580E+03  0.00000000000E+00 0.  1.
         -1   -1    0    0    0  501 -0.00000000000E+00 -0.00000000000E+00 -0.47444067172E+03  0.47444067172E+03  0.00000000000E+00 0.  1.
         24    2    1    2    0    0 -0.52758562404E+02  0.52283227138E+02 -0.16468686201E+03  0.19817712653E+03  0.81458021182E+02 0.  0.
         23    2    1    2    0    0 -0.84695430567E+02  0.13327252228E+03  0.12539741543E+02  0.18405681642E+03  0.93727186011E+02 0.  0.
        -11    1    3    3    0    0 -0.63956398946E+02  0.46685985290E+02 -0.16756456219E+03  0.18533182320E+03  0.00000000000E+00 0.  1.
         12    1    3    3    0    0  0.11197836542E+02  0.55972418475E+01  0.28777001749E+01  0.12845303337E+02  0.00000000000E+00 0. -1.
        -11    1    4    4    0    0 -0.90269887320E+02  0.58840975601E+02  0.17874470017E+02  0.10922641459E+03  0.00000000000E+00 0.  1.
         11    1    4    4    0    0  0.55744567537E+01  0.74431546679E+02 -0.53347284745E+01  0.74830401823E+02  0.00000000000E+00 0. -1.
         -2    1    1    2    0  502  0.13745399297E+03 -0.18555574942E+03 -0.14292625545E+03  0.27157402457E+03  0.00000000000E+00 0.  1.
<scales pt_clust_5="13000.00000" pt_clust_6="13000.00000" pt_clust_7="13000.00000" pt_clust_8="13000.00000" pt_clust_9="179.17015"></scales>
<clustering>
<clus scale="   81.458">  5  6 -1 -1</clus>
<clus scale="   93.727">  7  8 -1 -1</clus>
<clus scale="  110.238">  2  5  1 -1</clus>
<clus scale="  179.170">  1  9  2 -1</clus>
<clus scale="  179.170">  1  5  2 -1</clus>
</clustering>
</event>
<event>
 9    2  0.6469128E-005  0.1074779E+03  0.7546771E-02  0.1269653E+00
         21   -1    0    0  501  502  0.00000000000E+00  0.00000000000E+00  0.31517370415E+03  0.31517370415E+03  0.00000000000E+00 0.  1.
         -1   -1    0    0    0  501 -0.00000000000E+00 -0.00000000000E+00 -0.47820729808E+02  0.47820729808E+02  0.00000000000E+00 0.  1.
         24    2    1    2    0    0 -0.55977807635E+02  0.19128182956E+02  0.55672709242E+02  0.11437980216E+03  0.80522582282E+02 0.  0.
         23    2    1    2    0    0  0.56047782742E+02  0.43187194112E+01  0.17301136097E+03  0.20339244395E+03  0.90970049705E+02 0.  0.
        -11    1    3    3    0    0 -0.72855002506E+02  0.10304814998E+02  0.23950647911E+02  0.77380062920E+02  0.00000000000E+00 0.  1.
         12    1    3    3    0    0  0.16877194870E+02  0.88233679581E+01  0.31722061331E+02  0.36999739241E+02  0.00000000000E+00 0. -1.
        -13    1    4    4    0    0  0.34291765272E+02  0.25472493931E+02  0.16710451262E+03  0.17247808919E+03  0.00000000000E+00 0.  1.
         13    1    4    4    0    0  0.21756017470E+02 -0.21153774520E+02  0.59068483459E+01  0.30914354756E+02  0.00000000000E+00 0. -1.
         -2    1    1    2    0  502 -0.69975106761E-01 -0.23446902367E+02  0.38668904128E+02  0.45222187846E+02  0.00000000000E+00 0.  1.
<scales pt_clust_5="13000.00000" pt_clust_6="13000.00000" pt_clust_7="13000.00000" pt_clust_8="13000.00000" pt_clust_9="23.44701"></scales>
<clustering>
<clus scale="   23.447">  1  9  2 -1</clus>
<clus scale="   80.523">  5  6 -1 -1</clus>
<clus scale="   90.970">  7  8 -1 -1</clus>
<clus scale="   98.792">  2  5  1 -1</clus>
<clus scale="   23.447">  1  5  2 -1</clus>
</clustering>
</event>
<event>
 9    2  0.6469128E-005  0.1459790E+03  0.7546771E-02  0.1221005E+00
         21   -1    0    0  501  502  0.00000000000E+00  0.00000000000E+00  0.27119733703E+03  0.27119733703E+03  0.00000000000E+00 0. -1.
         -1   -1    0    0    0  501 -0.00000000000E+00 -0.00000000000E+00 -0.23151571910E+03  0.23151571910E+03  0.00000000000E+00 0.  1.
         24    2    1    2    0    0 -0.55185543652E+02 -0.40752282400E+02 -0.58148713040E+01  0.10518940796E+03  0.79528649361E+02 0.  0.
         23    2    1    2    0    0  0.71281336710E+02  0.14822495861E+03 -0.10216727502E+03  0.21418233270E+03  0.91565562500E+02 0.  0.
        -13    1    3    3    0    0 -0.46577255995E+02 -0.27961949724E+02 -0.40149506992E+02  0.67552159996E+02  0.00000000000E+00 0.  1.
         14    1    3    3    0    0 -0.86082876563E+01 -0.12790332676E+02  0.34334635688E+02  0.37637247962E+02  0.00000000000E+00 0. -1.
        -11    1    4    4    0    0  0.69339136646E+02  0.66762643554E+02 -0.19705534342E+02  0.98252096816E+02  0.00000000000E+00 0.  1.
         11    1    4    4    0    0  0.19422000642E+01  0.81462315057E+02 -0.82461740679E+02  0.11593023588E+03  0.00000000000E+00 0. -1.
         -2    1    1    2    0  502 -0.16095793059E+02 -0.10747267621E+03  0.14766376426E+03  0.18334131548E+03  0.00000000000E+00 0.  1.
<scales pt_clust_5="13000.00000" pt_clust_6="13000.00000" pt_clust_7="13000.00000" pt_clust_8="13000.00000" pt_clust_9="113.69083"></scales>
<clustering>
<clus scale="   79.529">  5  6 -1 -1</clus>
<clus scale="   91.566">  7  8 -1 -1</clus>
<clus scale="  105.029">  2  5  1 -1</clus>
<clus scale="  113.691">  1  9  2 -1</clus>
<clus scale="  113.691">  1  5  2 -1</clus>
</clustering>
</event>
<event>
 9    2  0.6469128E-005  0.1008993E+03  0.7546771E-02  0.1284743E+00
          2   -1    0    0  502    0 -0.00000000000E+00  0.00000000000E+00  0.25700384981E+03  0.25700384981E+03  0.00000000000E+00 0. -1.
         21   -1    0    0  501  502  0.00000000000E+00 -0.00000000000E+00 -0.12844596670E+03  0.12844596670E+03  0.00000000000E+00 0. -1.
         24    2    1    2    0    0  0.17783047884E+02  0.55314456552E+02  0.16702164435E+03  0.19315636991E+03  0.77699598842E+02 0.  0.
         23    2    1    2    0    0 -0.13296681736E+02 -0.88835848518E+01  0.40536652506E+02  0.10054913507E+03  0.90615608711E+02 0.  0.
        -11    1    3    3    0    0 -0.23053881278E+02  0.49955899875E+02  0.10768490793E+03  0.12092606324E+03  0.00000000000E+00 0.  1.
         12    1    3    3    0    0  0.40836929162E+02  0.53585566769E+01  0.59336736414E+02  0.72230306668E+02  0.00000000000E+00 0. -1.
        -11    1    4    4    0    0 -0.12178495895E+02  0.38172531201E+02  0.34913235751E+02  0.53145008525E+02  0.00000000000E+00 0. -1.
         11    1    4    4    0    0 -0.11181858414E+01 -0.47056116052E+02  0.56234167547E+01  0.47404126545E+02  0.00000000000E+00 0.  1.
          1    1    1    2  501    0 -0.44863661485E+01 -0.46430871700E+02 -0.79000413743E+02  0.91744311539E+02  0.00000000000E+00 0. -1.
<scales pt_clust_5="13000.00000" pt_clust_6="13000.00000" pt_clust_7="13000.00000" pt_clust_8="13000.00000" pt_clust_9="46.64711"></scales>
<clustering>
<clus scale="   46.647">  2  9  1 -1</clus>
<clus scale="   77.700">  5  6 -1 -1</clus>
<clus scale="   89.480">  1  5  2 -1</clus>
<clus scale="   90.616">  7  8 -1 -1</clus>
<clus scale="   46.647">  2  5  1 -1</clus>
</clustering>
</event>
<event>
 9    2  0.6469128E-005  0.9847999E+02  0.7546771E-02  0.1290026E+00
          2   -1    0    0  502    0 -0.00000000000E+00  0.00000000000E+00  0.30352832495E+03  0.30352832495E+03  0.00000000000E+00 0. -1.
         21   -1    0    0  501  502  0.00000000000E+00 -0.00000000000E+00 -0.18313778221E+03  0.18313778221E+03  0.00000000000E+00 0. -1.
         24    2    1    2    0    0 -0.37267902724E+02 -0.91989542836E+01  0.22490509079E+03  0.24122204888E+03  0.78308745801E+02 0.  0.
         23    2    1    2    0    0  0.41343082976E+02 -0.19471432493E+02  0.31493681749E+02  0.10638710325E+03  0.90763299598E+02 0.  0.
        -13    1    3    3    0    0  0.19366789304E+02 -0.12170156871E+02  0.27176809677E+02  0.35521320787E+02  0.00000000000E+00 0.  1.
         14    1    3    3    0    0 -0.56634692028E+02  0.29712025877E+01  0.19772828111E+03  0.20570072809E+03  0.00000000000E+00 0. -1.
        -11    1    4    4    0    0 -0.12071128116E+01 -0.48975014831E+02  0.84526573605E+01  0.49713746746E+02  0.00000000000E+00 0. -1.
         11    1    4    4    0    0  0.42550195787E+02  0.29503582338E+02  0.23041024388E+02  0.56673356502E+02  0.00000000000E+00 0.  1.
          1    1    1    2  501    0 -0.40751802522E+01  0.28670386777E+02 -0.13600822979E+03  0.13905695504E+03  0.00000000000E+00 0. -1.
<scales pt_clust_5="13000.00000" pt_clust_6="13000.00000" pt_clust_7="13000.00000" pt_clust_8="13000.00000" pt_clust_9="28.95856"></scales>
<clustering>
<clus scale="   28.959">  2  9  1 -1</clus>
<clus scale="   78.309">  5  6 -1 -1</clus>
<clus scale="   87.135">  1  5  2 -1</clus>
<clus scale="   90.763">  7  8 -1 -1</clus>
<clus scale="   28.959">  2  5  1 -1</clus>
</clustering>
</event>
<event>
 9    2  0.6469128E-005  0.1514717E+03  0.7546771E-02  0.1214939E+00
          2   -1    0    0  502    0 -0.00000000000E+00  0.00000000000E+00  0.93355917079E+03  0.93355917079E+03  0.00000000000E+00 0. -1.
         21   -1    0    0  501  502  0.00000000000E+00 -0.00000000000E+00 -0.45544159009E+02  0.45544159009E+02  0.00000000000E+00 0. -1.
         24    2    1    2    0    0 -0.37004814544E+02  0.60661929846E+02  0.36742555445E+03  0.38264098418E+03  0.79770663002E+02 0.  0.
         23    2    1    2    0    0 -0.20073815977E+01  0.97568640918E+02  0.24094865492E+03  0.27279918222E+03  0.82701089713E+02 0.  0.
        -13    1    3    3    0    0 -0.52301046322E+02  0.43614651393E+02  0.15912428197E+03  0.17308429846E+03  0.00000000000E+00 0.  1.
         14    1    3    3    0    0  0.15296231778E+02  0.17047278452E+02  0.20830127248E+03  0.20955668571E+03  0.00000000000E+00 0. -1.
        -11    1    4    4    0    0 -0.18890661702E+02  0.44858690793E+02  0.36086584311E+02  0.60592085345E+02  0.00000000000E+00 0. -1.
         11    1    4    4    0    0  0.16883280104E+02  0.52709950125E+02  0.20486207061E+03  0.21220709688E+03  0.00000000000E+00 0.  1.
          1    1    1    2  501    0  0.39012196142E+02 -0.15823057076E+03  0.27964080241E+03  0.32366316340E+03  0.00000000000E+00 0. -1.
<scales pt_clust_5="13000.00000" pt_clust_6="13000.00000" pt_clust_7="13000.00000" pt_clust_8="13000.00000" pt_clust_9="126.90240"></scales>
<clustering>
<clus scale="   79.771">  5  6 -1 -1</clus>
<clus scale="   82.701">  7  8 -1 -1</clus>
<clus scale="  106.830">  1  5  2 -1</clus>
<clus scale="  126.902">  2  9  1 -1</clus>
<clus scale="  126.902">  2  5  1 -1</clus>
</clustering>
</event>
<event>
 9    2  0.6469128E-005  0.1269901E+03  0.7546771E-02  0.1234765E+00
          2   -1    0    0  502    0 -0.00000000000E+00  0.00000000000E+00  0.24875538139E+03  0.24875538139E+03  0.00000000000E+00 0. -1.
         21   -1    0    0  501  502  0.00000000000E+00 -0.00000000000E+00 -0.23304794495E+03  0.23304794495E+03  0.00000000000E+00 0. -1.
         24    2    1    2    0    0  0.80625665212E+02 -0.24749388647E+02  0.15256820189E+03  0.19193805792E+03  0.80312712062E+02 0.  0.
         23    2    1    2    0    0 -0.85550993279E+02  0.77675582630E+02 -0.40534958828E+01  0.14681558574E+03  0.90476056504E+02 0.  0.
        -11    1    3    3    0    0  0.80040583494E+01 -0.41072333591E+02  0.60128672848E+02  0.73256118073E+02  0.00000000000E+00 0.  1.
         12    1    3    3    0    0  0.72621606863E+02  0.16322944944E+02  0.92439529046E+02  0.11868193984E+03  0.00000000000E+00 0. -1.
        -13    1    4    4    0    0 -0.26533492723E+02  0.80114592622E+02 -0.17610339036E+02  0.86211937851E+02  0.00000000000E+00 0. -1.
         13    1    4    4    0    0 -0.59017500556E+02 -0.24390099916E+01  0.13556843154E+02  0.60603647893E+02  0.00000000000E+00 0.  1.
          1    1    1    2  501    0  0.49253280668E+01 -0.52926193983E+02 -0.13280726957E+03  0.14304968269E+03  0.00000000000E+00 0. -1.
<scales pt_clust_5="13000.00000" pt_clust_6="13000.00000" pt_clust_7="13000.00000" pt_clust_8="13000.00000" pt_clust_9="53.15488"></scales>
<clustering>
<clus scale="   53.155">  2  9  1 -1</clus>
<clus scale="   80.313">  5  6 -1 -1</clus>
<clus scale="   90.476">  7  8 -1 -1</clus>
<clus scale="  119.961">  1  5  2 -1</clus>
<clus scale="   53.155">  2  5  1 -1</clus>
</clustering>
</event>
<event>
 9    2  0.6469128E-005  0.9280393E+02  0.7546771E-02  0.1303225E+00
         21   -1    0    0  501  502  0.00000000000E+00  0.00000000000E+00  0.80640965478E+02  0.80640965478E+02  0.00000000000E+00 0.  1.
          2   -1    0    0  502    0 -0.00000000000E+00 -0.00000000000E+00 -0.23292467564E+03  0.23292467564E+03  0.00000000000E+00 0. -1.
         24    2    1    2    0    0 -0.27352240247E+02 -0.23305943043E+02 -0.12377343070E+03  0.15133660179E+03  0.79319561697E+02 0.  0.
         23    2    1    2    0    0 -0.21067274040E+02 -0.18939087792E+02 -0.21562993151E+02  0.97596564659E+02  0.90871379861E+02 0.  0.
        -11    1    3    3    0    0  0.16891080349E+01  0.27434061352E+02 -0.28798422239E+02  0.39809922528E+02  0.00000000000E+00 0.  1.
         12    1    3    3    0    0 -0.29041348281E+02 -0.50740004395E+02 -0.94975008457E+02  0.11152667926E+03  0.00000000000E+00 0. -1.
        -11    1    4    4    0    0 -0.40903301062E+02 -0.27754852569E+02 -0.44144931634E+02  0.66273575940E+02  0.00000000000E+00 0. -1.
         11    1    4    4    0    0  0.19836027022E+02  0.88157647775E+01  0.22581938483E+02  0.31322988719E+02  0.00000000000E+00 0.  1.
          1    1    1    2  501    0  0.48419514286E+02  0.42245030835E+02 -0.69472863118E+01  0.64632474663E+02  0.00000000000E+00 0. -1.
<scales pt_clust_5="13000.00000" pt_clust_6="13000.00000" pt_clust_7="13000.00000" pt_clust_8="13000.00000" pt_clust_9="64.25801"></scales>
<clustering>
<clus scale="   64.258">  1  9  2 -1</clus>
<clus scale="   79.320">  5  6 -1 -1</clus>
<clus scale="   81.526">  2  5  1 -1</clus>
<clus scale="   90.871">  7  8 -1 -1</clus>
<clus scale="   64.258">  1  5  2 -1</clus>
</clustering>
</event>
<event>
 9    2  0.6469128E-005  0.1894325E+03  0.7546771E-02  0.1160125E+00
          2   -1    0    0  502    0 -0.00000000000E+00  0.00000000000E+00  0.17845897056E+04  0.17845897056E+04  0.00000000000E+00 0. -1.
         21   -1    0    0  501  502  0.00000000000E+00 -0.00000000000E+00 -0.44031707422E+02  0.44031707422E+02  0.00000000000E+00 0.  1.
         24    2    1    2    0    0 -0.81960706038E+02 -0.15010431299E+03  0.14359179579E+04  0.14483021504E+04  0.80435533972E+02 0.  0.
         23    2    1    2    0    0  0.33874293107E+02  0.14518158685E+03  0.26655669783E+03  0.31878165364E+03  0.91346092655E+02 0.  0.
        -13    1    3    3    0    0 -0.14409476031E+02 -0.17095811804E+02  0.55313365728E+02  0.59661278974E+02  0.00000000000E+00 0.  1.
         14    1    3    3    0    0 -0.67551230007E+02 -0.13300850119E+03  0.13806045921E+04  0.13886408715E+04  0.00000000000E+00 0. -1.
        -13    1    4    4    0    0 -0.23940333356E+02  0.41934567518E+02  0.12665142362E+03  0.13554420172E+03  0.00000000000E+00 0. -1.
         13    1    4    4    0    0  0.57814626463E+02  0.10324701933E+03  0.13990527421E+03  0.18323745192E+03  0.00000000000E+00 0.  1.
          1    1    1    2  501    0  0.48086412931E+02  0.49227261447E+01  0.38083342501E+02  0.61537608967E+02  0.00000000000E+00 0. -1.
<scales pt_clust_5="13000.00000" pt_clust_6="13000.00000" pt_clust_7="13000.00000" pt_clust_8="13000.00000" pt_clust_9="48.33773"></scales>
<clustering>
<clus scale="   48.338">  2  9  1 -1</clus>
<clus scale="   80.436">  5  6 -1 -1</clus>
<clus scale="   91.346">  7  8 -1 -1</clus>
<clus scale="  184.419">  1  5  2 -1</clus>
<clus scale="   48.338">  2  5  1 -1</clus>
</clustering>
</event>
<event>
 9    2  0.6469128E-005  0.1906683E+03  0.7546771E-02  0.1158816E+00
          2   -1    0    0  502    0 -0.00000000000E+00  0.00000000000E+00  0.10491351883E+04  0.10491351883E+04  0.00000000000E+00 0. -1.
         21   -1    0    0  501  502  0.00000000000E+00 -0.00000000000E+00 -0.73762327232E+02  0.73762327232E+02  0.00000000000E+00 0. -1.
         23    2    1    2    0    0 -0.13981735732E+02 -0.18321562272E+03  0.82122737629E+03  0.84640987985E+03  0.90729420777E+02 0.  0.
         24    2    1    2    0    0 -0.32212800977E+02  0.11448852938E+03  0.77714361950E+02  0.16379750693E+03  0.81515724361E+02 0.  0.
        -11    1    4    4    0    0  0.75759874227E+00  0.90858406847E+02  0.82783126573E+02  0.12291814388E+03  0.00000000000E+00 0.  1.
         12    1    4    4    0    0 -0.32970399719E+02  0.23630122534E+02 -0.50687646233E+01  0.40879363051E+02  0.00000000000E+00 0. -1.
        -13    1    3    3    0    0 -0.21121881322E+02 -0.12627025539E+03  0.70784998197E+03  0.71933435080E+03  0.00000000000E+00 0. -1.
         13    1    3    3    0    0  0.71401455897E+01 -0.56945367339E+02  0.11337739432E+03  0.12707552905E+03  0.00000000000E+00 0.  1.
          1    1    1    2  501    0  0.46194536709E+02  0.68727093343E+02  0.76431122841E+02  0.11269012876E+03  0.00000000000E+00 0. -1.
<scales pt_clust_5="13000.00000" pt_clust_6="13000.00000" pt_clust_7="13000.00000" pt_clust_8="13000.00000" pt_clust_9="82.80911"></scales>
<clustering>
<clus scale="   81.516">  5  6 -1 -1</clus>
<clus scale="   82.809">  2  9  1 -1</clus>
<clus scale="   90.729">  7  8 -1 -1</clus>
<clus scale="  186.460">  2  5  1 -1</clus>
<clus scale="   82.809">  2  5  1 -1</clus>
</clustering>
</event>
<event>
 9    2  0.6469128E-005  0.9462942E+02  0.7546771E-02  0.1304181E+00
          2   -1    0    0  502    0 -0.00000000000E+00  0.00000000000E+00  0.11605260019E+04  0.11605260019E+04  0.00000000000E+00 0. -1.
         21   -1    0    0  501  502  0.00000000000E+00 -0.00000000000E+00 -0.19562572566E+02  0.19562572566E+02  0.00000000000E+00 0.  1.
         24    2    1    2    0    0  0.83426016936E+01 -0.63962364880E+01  0.55830203474E+03  0.56341034763E+03  0.74963637734E+02 0.  0.
         23    2    1    2    0    0  0.45338061416E+02 -0.41680728982E+02  0.46735254614E+03  0.48070345443E+03  0.94151928968E+02 0.  0.
        -11    1    3    3    0    0  0.34237956638E+02  0.10415466222E+02  0.16191451479E+03  0.16582228352E+03  0.00000000000E+00 0.  1.
         12    1    3    3    0    0 -0.25895354945E+02 -0.16811702710E+02  0.39638751994E+03  0.39758806411E+03  0.00000000000E+00 0. -1.
        -11    1    4    4    0    0  0.47375086312E+02 -0.68828948463E+02  0.38516416166E+03  0.39412339994E+03  0.00000000000E+00 0.  1.
         11    1    4    4    0    0 -0.20370248957E+01  0.27148219481E+02  0.82188384482E+02  0.86580054488E+02  0.00000000000E+00 0. -1.
          1    1    1    2  501    0 -0.53680663110E+02  0.48076965470E+02  0.11530884847E+03  0.13597477243E+03  0.00000000000E+00 0. -1.
<scales pt_clust_5="13000.00000" pt_clust_6="13000.00000" pt_clust_7="13000.00000" pt_clust_8="13000.00000" pt_clust_9="72.06253"></scales>
<clustering>
<clus scale="   72.063">  2  9  1 -1</clus>
<clus scale="   74.964">  5  6 -1 -1</clus>
<clus scale="   75.562">  1  5  2 -1</clus>
<clus scale="   94.152">  7  8 -1 -1</clus>
<clus scale="   72.063">  2  5  1 -1</clus>
</clustering>
</event>
<event>
 9    2  0.6469128E-005  0.1179604E+03  0.7546771E-02  0.1250729E+00
         21   -1    0    0  501  502  0.00000000000E+00  0.00000000000E+00  0.37666406627E+03  0.37666406627E+03  0.00000000000E+00 0. -1.
          4   -1    0    0  502    0 -0.00000000000E+00 -0.00000000000E+00 -0.12980030765E+03  0.12980030765E+03  0.00000000000E+00 0. -1.
         24    2    1    2    0    0  0.10129434616E+02 -0.65149478569E+02 -0.43591472215E+02  0.11198007496E+03  0.79323771565E+02 0.  0.
         23    2    1    2    0    0 -0.10122936208E+03  0.98109597702E+02  0.16223482558E+03  0.23377948086E+03  0.91977334897E+02 0.  0.
        -13    1    3    3    0    0 -0.19918400734E+02 -0.36860068955E+01  0.12246601772E+02  0.23670838379E+02  0.00000000000E+00 0.  1.
         14    1    3    3    0    0  0.30047835350E+02 -0.61463471674E+02 -0.55838073987E+02  0.88309236583E+02  0.00000000000E+00 0. -1.
        -13    1    4    4    0    0 -0.47112594316E+01  0.28786293128E+02  0.90241856310E+02  0.94839017645E+02  0.00000000000E+00 0.  1.
         13    1    4    4    0    0 -0.96518102646E+02  0.69323304574E+02  0.71992969266E+02  0.13894046322E+03  0.00000000000E+00 0. -1.
          3    1    1    2  501    0  0.91099927461E+02 -0.32960119133E+02  0.12822040525E+03  0.16070481810E+03  0.00000000000E+00 0. -1.
<scales pt_clust_5="13000.00000" pt_clust_6="13000.00000" pt_clust_7="13000.00000" pt_clust_8="13000.00000" pt_clust_9="96.87913"></scales>
<clustering>
<clus scale="   79.324">  5  6 -1 -1</clus>
<clus scale="   91.977">  7  8 -1 -1</clus>
<clus scale="   96.879">  1  9  2 -1</clus>
<clus scale="  108.384">  2  5  1 -1</clus>
<clus scale="   96.879">  1  5  2 -1</clus>
</clustering>
</event>
<event>
 9    2  0.6469128E-005  0.1652962E+03  0.7546771E-02  0.1192661E+00
          2   -1    0    0  502    0 -0.00000000000E+00  0.00000000000E+00  0.79827807029E+03  0.79827807029E+03  0.00000000000E+00 0. -1.
         21   -1    0    0  501  502  0.00000000000E+00 -0.00000000000E+00 -0.52348275928E+02  0.52348275928E+02  0.00000000000E+00 0. -1.
         24    2    1    2    0    0  0.75548911596E+02  0.60373864401E+01  0.20640449306E+03  0.23433223062E+03  0.81022783669E+02 0.  0.
         23    2    1    2    0    0 -0.14971247172E+03  0.38612508182E+02  0.44569605616E+03  0.48863138030E+03  0.12732203799E+03 0.  0.
        -11    1    3    3    0    0  0.32087845778E+02 -0.22385272033E+02  0.26932469729E+02  0.47498296563E+02  0.00000000000E+00 0.  1.
         12    1    3    3    0    0  0.43461065819E+02  0.28422658473E+02  0.17947202333E+03  0.18683393406E+03  0.00000000000E+00 0. -1.
        -13    1    4    4    0    0 -0.49715227003E+01 -0.34464565265E+02  0.11776094610E+03  0.12280131401E+03  0.00000000000E+00 0.  1.
         13    1    4    4    0    0 -0.14474094902E+03  0.73077073448E+02  0.32793511007E+03  0.36583006629E+03  0.00000000000E+00 0. -1.
          1    1    1    2  501    0  0.74163560127E+02 -0.44649894622E+02  0.93829245134E+02  0.12766273529E+03  0.00000000000E+00 0. -1.
<scales pt_clust_5="13000.00000" pt_clust_6="13000.00000" pt_clust_7="13000.00000" pt_clust_8="13000.00000" pt_clust_9="86.56701"></scales>
<clustering>
<clus scale="   81.023">  5  6 -1 -1</clus>
<clus scale="   86.567">  2  9  1 -1</clus>
<clus scale="  127.322">  7  8 -1 -1</clus>
<clus scale="  132.953">  1  5  2 -1</clus>
<clus scale="   86.567">  2  5  1 -1</clus>
</clustering>
</event>
<event>
 9    2  0.6469128E-005  0.1712669E+03  0.7546771E-02  0.1186229E+00
          2   -1    0    0  502    0 -0.00000000000E+00  0.00000000000E+00  0.35662435355E+03  0.35662435355E+03  0.00000000000E+00 0. -1.
         21   -1    0    0  501  502  0.00000000000E+00 -0.00000000000E+00 -0.23863839438E+03  0.23863839438E+03  0.00000000000E+00 0. -1.
         24    2    1    2    0    0 -0.33751554778E+02 -0.80728954902E+02  0.19899045877E+03  0.24204434852E+03  0.10645154936E+03 0.  0.
         23    2    1    2    0    0 -0.11216334723E+03  0.50674367950E+01  0.38647882907E+02  0.14991439898E+03  0.91511599211E+02 0.  0.
        -13    1    3    3    0    0 -0.19060463747E+02 -0.32563024585E+02  0.99377817424E+00  0.37744396185E+02  0.00000000000E+00 0.  1.
         14    1    3    3    0    0 -0.14691091031E+02 -0.48165930317E+02  0.19799668059E+03  0.20429995234E+03  0.00000000000E+00 0. -1.
        -13    1    4    4    0    0  0.50191683197E+01 -0.22297815979E+02  0.14827496693E+02  0.27244069194E+02  0.00000000000E+00 0. -1.
         13    1    4    4    0    0 -0.11718251555E+03  0.27365252774E+02  0.23820386214E+02  0.12267032979E+03  0.00000000000E+00 0.  1.
          1    1    1    2  501    0  0.14591490201E+03  0.75661518107E+02 -0.11965238250E+03  0.20330400043E+03  0.00000000000E+00 0. -1.
<scales pt_clust_5="13000.00000" pt_clust_6="13000.00000" pt_clust_7="13000.00000" pt_clust_8="13000.00000" pt_clust_9="144.76871"></scales>
<clustering>
<clus scale="   91.512">  7  8 -1 -1</clus>
<clus scale="  106.452">  5  6 -1 -1</clus>
<clus scale="  137.798">  1  5  2 -1</clus>
<clus scale="  144.769">  2  9  1 -1</clus>
<clus scale="  144.769">  2  5  1 -1</clus>
</clustering>
</event>
<event>
 9    2  0.6469128E-005  0.1250210E+03  0.7546771E-02  0.1250194E+00
         -3   -1    0    0    0  501 -0.00000000000E+00  0.00000000000E+00  0.16155240914E+03  0.16155240914E+03  0.00000000000E+00 0.  1.
         21   -1    0    0  501  502  0.00000000000E+00 -0.00000000000E+00 -0.31833915643E+03  0.31833915643E+03  0.00000000000E+00 0. -1.
         24    2    1    2    0    0 -0.45451853837E+02  0.46560930393E+01  0.12961847262E+03  0.15929944108E+03  0.80546963111E+02 0.  0.
         23    2    1    2    0    0  0.25206611573E+02 -0.80342746142E+01 -0.21306509720E+03  0.24443402876E+03  0.11683893161E+03 0.  0.
        -13    1    3    3    0    0 -0.31515904563E+02 -0.24349952476E+02  0.11888146831E+03  0.12537534021E+03  0.00000000000E+00 0.  1.
         14    1    3    3    0    0 -0.13935949274E+02  0.29006045515E+02  0.10737004312E+02  0.33924100875E+02  0.00000000000E+00 0. -1.
        -13    1    4    4    0    0  0.26972459274E+02  0.49724343077E+02 -0.69082366153E+02  0.89288281242E+02  0.00000000000E+00 0.  1.
         13    1    4    4    0    0 -0.17658477007E+01 -0.57758617691E+02 -0.14398273104E+03  0.15514574752E+03  0.00000000000E+00 0. -1.
         -4    1    1    2    0  502  0.20245242263E+02  0.33781815749E+01 -0.73340122708E+02  0.76158095721E+02  0.00000000000E+00 0.  1.
<scales pt_clust_5="13000.00000" pt_clust_6="13000.00000" pt_clust_7="13000.00000" pt_clust_8="13000.00000" pt_clust_9="20.52515"></scales>
<clustering>
<clus scale="   20.525">  2  9  1 -1</clus>
<clus scale="   80.547">  5  6 -1 -1</clus>
<clus scale="   92.015">  1  5  2 -1</clus>
<clus scale="  116.839">  7  8 -1 -1</clus>
<clus scale="   20.525">  2  5  1 -1</clus>
</clustering>
</event>
<event>
 9    2  0.6469128E-005  0.2529435E+03  0.7546771E-02  0.1112049E+00
          2   -1    0    0  502    0 -0.00000000000E+00  0.00000000000E+00  0.66804789008E+03  0.66804789008E+03  0.00000000000E+00 0. -1.
         21   -1    0    0  501  502  0.00000000000E+00 -0.00000000000E+00 -0.14808847823E+03  0.14808847823E+03  0.00000000000E+00 0.  1.
         23    2    1    2    0    0 -0.27069473080E+03  0.18172866107E+02  0.36142035734E+03  0.46104756191E+03  0.91292328804E+02 0.  0.
         24    2    1    2    0    0  0.17926291540E+03  0.16018870053E+02  0.39229059563E+02  0.20093392784E+03  0.80272829813E+02 0.  0.
        -11    1    4    4    0    0  0.29789320247E+02 -0.22664339712E+02  0.26800845150E+02  0.46036520243E+02  0.00000000000E+00 0.  1.
         12    1    4    4    0    0  0.14947359515E+03  0.38683209765E+02  0.12428214414E+02  0.15489740759E+03  0.00000000000E+00 0. -1.
        -13    1    3    3    0    0 -0.15672143488E+03  0.47404288614E+02  0.16757220671E+03  0.23428448347E+03  0.00000000000E+00 0.  1.
         13    1    3    3    0    0 -0.11397329592E+03 -0.29231422506E+02  0.19384815063E+03  0.22676307845E+03  0.00000000000E+00 0. -1.
          1    1    1    2  501    0  0.91431815405E+02 -0.34191736161E+02  0.11930999495E+03  0.15415487856E+03  0.00000000000E+00 0. -1.
<scales pt_clust_5="13000.00000" pt_clust_6="13000.00000" pt_clust_7="13000.00000" pt_clust_8="13000.00000" pt_clust_9="97.61589"></scales>
<clustering>
<clus scale="   80.273">  5  6 -1 -1</clus>
<clus scale="   91.292">  7  8 -1 -1</clus>
<clus scale="   97.616">  2  9  1 -1</clus>
<clus scale="  249.178">  2  5  1 -1</clus>
<clus scale="   97.616">  2  5  1 -1</clus>
</clustering>
</event>
<event>
 9    2  0.6469128E-005  0.2487013E+03  0.7546771E-02  0.1115289E+00
         21   -1    0    0  501  502  0.00000000000E+00  0.00000000000E+00  0.30719949409E+03  0.30719949409E+03  0.00000000000E+00 0. -1.
          2   -1    0    0  502    0 -0.00000000000E+00 -0.00000000000E+00 -0.12283321979E+04  0.12283321979E+04  0.00000000000E+00 0. -1.
         24    2    1    2    0    0  0.12197230111E+03 -0.20899933515E+03 -0.11272634276E+04  0.11561913013E+04  0.86588254678E+02 0.  0.
         23    2    1    2    0    0 -0.50526491857E+02  0.10779977398E+03  0.26173613088E+02  0.16086747127E+03  0.10497412844E+03 0.  0.
        -13    1    3    3    0    0 -0.96226809681E+00 -0.30902426938E+02 -0.63350089345E+02  0.70491983732E+02  0.00000000000E+00 0.  1.
         14    1    3    3    0    0  0.12293456921E+03 -0.17809690821E+03 -0.10639133382E+04  0.10856993176E+04  0.00000000000E+00 0. -1.
        -13    1    4    4    0    0 -0.23647710134E+02  0.10953168791E+03  0.52016741103E+02  0.12354005911E+03  0.00000000000E+00 0. -1.
         13    1    4    4    0    0 -0.26878781723E+02 -0.17319139324E+01 -0.25843128015E+02  0.37327412158E+02  0.00000000000E+00 0.  1.
          1    1    1    2  501    0 -0.71445809256E+02  0.10119956117E+03  0.17995711064E+03  0.21847291940E+03  0.00000000000E+00 0. -1.
<scales pt_clust_5="13000.00000" pt_clust_6="13000.00000" pt_clust_7="13000.00000" pt_clust_8="13000.00000" pt_clust_9="123.87839"></scales>
<clustering>
<clus scale="   86.588">  5  6 -1 -1</clus>
<clus scale="  104.974">  7  8 -1 -1</clus>
<clus scale="  123.878">  1  9  2 -1</clus>
<clus scale="  241.517">  2  5  1 -1</clus>
<clus scale="  123.878">  1  5  2 -1</clus>
</clustering>
</event>
<event>
 9    2  0.6469128E-005  0.1090332E+03  0.7546771E-02  0.1274654E+00
         21   -1    0    0  501  502  0.00000000000E+00  0.00000000000E+00  0.70063151068E+02  0.70063151068E+02  0.00000000000E+00 0. -1.
          2   -1    0    0  502    0 -0.00000000000E+00 -0.00000000000E+00 -0.27245284084E+03  0.27245284084E+03  0.00000000000E+00 0. -1.
         24    2    1    2    0    0 -0.12745924438E+02 -0.17150118797E+02 -0.12424499231E+03  0.14918905359E+03  0.79774497385E+02 0.  0.
         23    2    1    2    0    0  0.62408022833E+02  0.30388532608E+02 -0.59421571061E+02  0.13862652626E+03  0.10425049855E+03 0.  0.
        -11    1    3    3    0    0 -0.14063681744E+02 -0.23321230178E+02 -0.13445559374E+03  0.13718590893E+03  0.00000000000E+00 0.  1.
         12    1    3    3    0    0  0.13177573064E+01  0.61711113814E+01  0.10210601435E+02  0.12003144657E+02  0.00000000000E+00 0. -1.
        -13    1    4    4    0    0  0.89918455040E+02  0.10331880267E+02 -0.36547244934E+02  0.97610334591E+02  0.00000000000E+00 0. -1.
         13    1    4    4    0    0 -0.27510432207E+02  0.20056652341E+02 -0.22874326127E+02  0.41016191670E+02  0.00000000000E+00 0.  1.
          1    1    1    2  501    0 -0.49662098395E+02 -0.13238413812E+02 -0.18723126409E+02  0.54700412062E+02  0.00000000000E+00 0. -1.
<scales pt_clust_5="13000.00000" pt_clust_6="13000.00000" pt_clust_7="13000.00000" pt_clust_8="13000.00000" pt_clust_9="51.39630"></scales>
<clustering>
<clus scale="   51.396">  1  9  2 -1</clus>
<clus scale="   79.774">  5  6 -1 -1</clus>
<clus scale="   85.930">  2  5  1 -1</clus>
<clus scale="  104.250">  7  8 -1 -1</clus>
<clus scale="   51.396">  1  5  2 -1</clus>
</clustering>
</event>
<event>
 9    2  0.1160461E-004  0.1886143E+03  0.7546771E-02  0.1160525E+00
         -1   -1    0    0    0  501 -0.00000000000E+00  0.00000000000E+00  0.44251467255E+03  0.44251467255E+03  0.00000000000E+00 0.  1.
         21   -1    0    0  501  502  0.00000000000E+00 -0.00000000000E+00 -0.53789743052E+03  0.53789743052E+03  0.00000000000E+00 0.  1.
         23    2    1    2    0    0  0.33635151005E+02 -0.16593138132E+03  0.39146388374E+03  0.43657401621E+03  0.93211333322E+02 0.  0.
         24    2    1    2    0    0  0.45927597564E+01  0.11759230326E+03 -0.18353534120E+03  0.23432914571E+03  0.85882965908E+02 0.  0.
        -11    1    4    4    0    0 -0.25033415502E+02  0.27456260741E+02 -0.10428205807E+03  0.11070350392E+03  0.00000000000E+00 0.  1.
         12    1    4    4    0    0  0.29626175258E+02  0.90136042517E+02 -0.79253283130E+02  0.12362564179E+03  0.00000000000E+00 0. -1.
        -11    1    3    3    0    0  0.50263602936E+02 -0.14479712630E+03  0.37482160341E+03  0.40494922145E+03  0.00000000000E+00 0.  1.
         11    1    3    3    0    0 -0.16628451931E+02 -0.21134255022E+02  0.16642280331E+02  0.31624794760E+02  0.00000000000E+00 0. -1.
         -2    1    1    2    0  502 -0.38227910761E+02  0.48339078066E+02 -0.30331130052E+03  0.30950894116E+03  0.00000000000E+00 0.  1.
<scales pt_clust_5="13000.00000" pt_clust_6="13000.00000" pt_clust_7="13000.00000" pt_clust_8="13000.00000" pt_clust_9="61.62824"></scales>
<clustering>
<clus scale="   61.628">  2  9  1 -1</clus>
<clus scale="   85.883">  5  6 -1 -1</clus>
<clus scale="   93.211">  7  8 -1 -1</clus>
<clus scale="  185.102">  2  5  1 -1</clus>
<clus scale="   61.628">  2  5  1 -1</clus>
</clustering>
</event>
<event>
 9    2  0.6469128E-005  0.9944085E+02  0.7546771E-02  0.1286476E+00
         21   -1    0    0  501  502  0.00000000000E+00  0.00000000000E+00  0.28381372526E+02  0.28381372526E+02  0.00000000000E+00 0. -1.
          2   -1    0    0  502    0 -0.00000000000E+00 -0.00000000000E+00 -0.67136808378E+03  0.67136808378E+03  0.00000000000E+00 0. -1.
         24    2    1    2    0    0 -0.64983572750E+01  0.38290583172E+02 -0.39642373230E+03  0.40651928842E+03  0.81226589950E+02 0.  0.
         23    2    1    2    0    0  0.51033244882E+02 -0.26954903786E+02 -0.20318505794E+03  0.23003603942E+03  0.91112308397E+02 0.  0.
        -13    1    3    3    0    0 -0.24769218890E+02  0.22750919412E+01 -0.35520356872E+02  0.43363417763E+02  0.00000000000E+00 0.  1.
         14    1    3    3    0    0  0.18270861615E+02  0.36015491230E+02 -0.36090337543E+03  0.36315587066E+03  0.00000000000E+00 0. -1.
        -13    1    4    4    0    0  0.75512643462E+02 -0.18581801153E+02 -0.12064497851E+03  0.14353624454E+03  0.00000000000E+00 0. -1.
         13    1    4    4    0    0 -0.24479398580E+02 -0.83731026330E+01 -0.82540079425E+02  0.86499794878E+02  0.00000000000E+00 0.  1.
          1    1    1    2  501    0 -0.44534887607E+02 -0.11335679386E+02 -0.43377921007E+02  0.63194128463E+02  0.00000000000E+00 0. -1.
<scales pt_clust_5="13000.00000" pt_clust_6="13000.00000" pt_clust_7="13000.00000" pt_clust_8="13000.00000" pt_clust_9="45.95491"></scales>
<clustering>
<clus scale="   45.955">  1  9  2 -1</clus>
<clus scale="   81.227">  5  6 -1 -1</clus>
<clus scale="   90.470">  2  5  1 -1</clus>
<clus scale="   91.112">  7  8 -1 -1</clus>
<clus scale="   45.955">  1  5  2 -1</clus>
</clustering>
</event>
<event>
 9    2  0.6469128E-005  0.1611405E+03  0.7546771E-02  0.1188842E+00
         21   -1    0    0  501  502  0.00000000000E+00  0.00000000000E+00  0.66617287637E+02  0.66617287637E+02  0.00000000000E+00 0.  1.
         -1   -1    0    0    0  501 -0.00000000000E+00 -0.00000000000E+00 -0.53712752408E+03  0.53712752408E+03  0.00000000000E+00 0.  1.
         24    2    1    2    0    0 -0.86215055474E+02  0.11016154766E+03 -0.33741258567E+03  0.37402328496E+03  0.80483304790E+02 0.  0.
         23    2    1    2    0    0  0.92762043311E+02 -0.81437285756E+02 -0.12921375205E+03  0.20000569022E+03  0.89829027655E+02 0.  0.
        -13    1    3    3    0    0 -0.90383922477E+02  0.95809738236E+02 -0.33350973318E+03  0.35857705100E+03  0.00000000000E+00 0.  1.
         14    1    3    3    0    0  0.41688670031E+01  0.14351809426E+02 -0.39028524969E+01  0.15446233959E+02  0.00000000000E+00 0. -1.
        -13    1    4    4    0    0  0.65668935775E+02 -0.34237478653E+02 -0.18036858604E+02  0.76222977760E+02  0.00000000000E+00 0.  1.
         13    1    4    4    0    0  0.27093107536E+02 -0.47199807102E+02 -0.11117689345E+03  0.12378271246E+03  0.00000000000E+00 0. -1.
         -2    1    1    2    0  502 -0.65469878369E+01 -0.28724261907E+02 -0.38838987168E+01  0.29715836537E+02  0.00000000000E+00 0.  1.
<scales pt_clust_5="13000.00000" pt_clust_6="13000.00000" pt_clust_7="13000.00000" pt_clust_8="13000.00000" pt_clust_9="29.46093"></scales>
<clustering>
<clus scale="   29.461">  1  9  2 -1</clus>
<clus scale="   80.483">  5  6 -1 -1</clus>
<clus scale="   89.829">  7  8 -1 -1</clus>
<clus scale="  156.124">  2  5  1 -1</clus>
<clus scale="   29.461">  1  5  2 -1</clus>
</clustering>
</event>
<event>
 9    2  0.6469128E-005  0.1235313E+03  0.7546771E-02  0.1242810E+00
         -3   -1    0    0    0  501 -0.00000000000E+00  0.00000000000E+00  0.20201491781E+03  0.20201491781E+03  0.00000000000E+00 0.  1.
         21   -1    0    0  501  502  0.00000000000E+00 -0.00000000000E+00 -0.24052381120E+03  0.24052381120E+03  0.00000000000E+00 0.  1.
         24    2    1    2    0    0  0.27475277801E+02 -0.72969938779E+02  0.99205681471E+02  0.14521222022E+03  0.71870152428E+02 0.  0.
         23    2    1    2    0    0 -0.45187998689E+02  0.89087421881E+02  0.21367793826E+02  0.13645166995E+03  0.90465195823E+02 0.  0.
        -11    1    3    3    0    0  0.23081454068E+01 -0.79771875556E+02  0.71195608775E+02  0.10694715692E+03  0.00000000000E+00 0.  1.
         12    1    3    3    0    0  0.25167132394E+02  0.68019367777E+01  0.28010072696E+02  0.38265063299E+02  0.00000000000E+00 0. -1.
        -11    1    4    4    0    0  0.10411285110E+01  0.22326314019E+02 -0.32180613384E+02  0.39180864258E+02  0.00000000000E+00 0. -1.
         11    1    4    4    0    0 -0.46229127200E+02  0.66761107862E+02  0.53548407210E+02  0.97270805689E+02  0.00000000000E+00 0.  1.
         -4    1    1    2    0  502  0.17712720888E+02 -0.16117483103E+02 -0.15908236869E+03  0.16087483883E+03  0.00000000000E+00 0.  1.
<scales pt_clust_5="13000.00000" pt_clust_6="13000.00000" pt_clust_7="13000.00000" pt_clust_8="13000.00000" pt_clust_9="23.94815"></scales>
<clustering>
<clus scale="   23.948">  2  9  1 -1</clus>
<clus scale="   71.870">  5  6 -1 -1</clus>
<clus scale="   90.465">  7  8 -1 -1</clus>
<clus scale="  110.641">  1  5  2 -1</clus>
<clus scale="   23.948">  2  5  1 -1</clus>
</clustering>
</event>
<event>
 9    2  0.6469128E-005  0.1215881E+03  0.7546771E-02  0.1255540E+00
         21   -1    0    0  501  502  0.00000000000E+00  0.00000000000E+00  0.51618836895E+02  0.51618836895E+02  0.00000000000E+00 0. -1.
          2   -1    0    0  502    0 -0.00000000000E+00 -0.00000000000E+00 -0.51064462278E+03  0.51064462278E+03  0.00000000000E+00 0. -1.
         23    2    1    2    0    0  0.48307592899E+02  0.13406250289E+02 -0.40714590744E+03  0.42595524901E+03  0.11470280354E+03 0.  0.
         24    2    1    2    0    0 -0.10437363219E+02 -0.19343888863E+02 -0.51506919920E+02  0.97973514295E+02  0.80391057440E+02 0.  0.
        -11    1    4    4    0    0 -0.76373190689E+00  0.30616729281E+02 -0.97347366859E+01  0.32136155598E+02  0.00000000000E+00 0.  1.
         12    1    4    4    0    0 -0.96736313122E+01 -0.49960618144E+02 -0.41772183234E+02  0.65837358697E+02  0.00000000000E+00 0. -1.
        -11    1    3    3    0    0  0.35755543986E+02 -0.48561432376E+02 -0.16443649346E+03  0.17514574509E+03  0.00000000000E+00 0.  1.
         11    1    3    3    0    0  0.12552048914E+02  0.61967682666E+02 -0.24270941397E+03  0.25080950392E+03  0.00000000000E+00 0. -1.
          1    1    1    2  501    0 -0.37870229680E+02  0.59376385736E+01 -0.37295853212E+00  0.38334696372E+02  0.00000000000E+00 0. -1.
<scales pt_clust_5="13000.00000" pt_clust_6="13000.00000" pt_clust_7="13000.00000" pt_clust_8="13000.00000" pt_clust_9="38.33288"></scales>
<clustering>
<clus scale="   38.333">  1  9  2 -1</clus>
<clus scale="   80.391">  5  6 -1 -1</clus>
<clus scale="   89.943">  1  5  2 -1</clus>
<clus scale="  114.703">  7  8 -1 -1</clus>
<clus scale="   38.333">  1  5  2 -1</clus>
</clustering>
</event>
<event>
 9    2  0.6469128E-005  0.9345509E+02  0.7546771E-02  0.1303074E+00
         -1   -1    0    0    0  501 -0.00000000000E+00  0.00000000000E+00  0.37822458139E+03  0.37822458139E+03  0.00000000000E+00 0.  1.
         21   -1    0    0  501  502  0.00000000000E+00 -0.00000000000E+00 -0.53347492666E+02  0.53347492666E+02  0.00000000000E+00 0. -1.
         24    2    1    2    0    0  0.40119515841E+00  0.10572843548E+00  0.29510565931E+03  0.30575270691E+03  0.79982469887E+02 0.  0.
         23    2    1    2    0    0 -0.20483259416E+02 -0.79259193771E+01  0.37379602242E+02  0.10296484932E+03  0.93392405566E+02 0.  0.
        -13    1    3    3    0    0  0.11027685014E+00  0.36381319981E+02  0.21164127101E+03  0.21474552428E+03  0.00000000000E+00 0.  1.
         14    1    3    3    0    0  0.29091830827E+00 -0.36275591545E+02  0.83464388308E+02  0.91007182635E+02  0.00000000000E+00 0. -1.
        -13    1    4    4    0    0  0.42763326160E+01 -0.47225055517E+02  0.82297272577E+01  0.48127136835E+02  0.00000000000E+00 0. -1.
         13    1    4    4    0    0 -0.24759592032E+02  0.39299136140E+02  0.29149874984E+02  0.54837712484E+02  0.00000000000E+00 0.  1.
         -2    1    1    2    0  502  0.20082064257E+02  0.78201909416E+01 -0.76081728302E+01  0.22854517825E+02  0.00000000000E+00 0.  1.
<scales pt_clust_5="13000.00000" pt_clust_6="13000.00000" pt_clust_7="13000.00000" pt_clust_8="13000.00000" pt_clust_9="21.55098"></scales>
<clustering>
<clus scale="   21.551">  2  9  1 -1</clus>
<clus scale="   79.982">  5  6 -1 -1</clus>
<clus scale="   80.056">  1  5  2 -1</clus>
<clus scale="   93.392">  7  8 -1 -1</clus>
<clus scale="   21.551">  2  5  1 -1</clus>
</clustering>
</event>
<event>
 9    2  0.6469128E-005  0.2205750E+03  0.7546771E-02  0.1148530E+00
         -1   -1    0    0    0  501 -0.00000000000E+00  0.00000000000E+00  0.36548473467E+03  0.36548473467E+03  0.00000000000E+00 0.  1.
         21   -1    0    0  501  502  0.00000000000E+00 -0.00000000000E+00 -0.24352456892E+03  0.24352456892E+03  0.00000000000E+00 0. -1.
         24    2    1    2    0    0  0.10937129422E+02  0.12980131480E+03  0.12690060863E+02  0.15395290723E+03  0.81070696779E+02 0.  0.
         23    2    1    2    0    0  0.15857295192E+03 -0.18633478692E+03  0.42566843589E+02  0.26432353025E+03  0.90492864755E+02 0.  0.
        -13    1    3    3    0    0 -0.27051941695E+02  0.18928521940E+02 -0.10162570560E+02  0.34545250508E+02  0.00000000000E+00 0.  1.
         14    1    3    3    0    0  0.37989071117E+02  0.11087279286E+03  0.22852631423E+02  0.11940765673E+03  0.00000000000E+00 0. -1.
        -13    1    4    4    0    0  0.10905369317E+03 -0.10857989081E+03  0.68666914274E+02  0.16851541709E+03  0.00000000000E+00 0.  1.
         13    1    4    4    0    0  0.49519258756E+02 -0.77754896110E+02 -0.26100070684E+02  0.95808113156E+02  0.00000000000E+00 0. -1.
         -2    1    1    2    0  502 -0.16951008135E+03  0.56533472112E+02  0.66703261292E+02  0.19073286611E+03  0.00000000000E+00 0.  1.
<scales pt_clust_5="13000.00000" pt_clust_6="13000.00000" pt_clust_7="13000.00000" pt_clust_8="13000.00000" pt_clust_9="201.15754"></scales>
<clustering>
<clus scale="   81.071">  5  6 -1 -1</clus>
<clus scale="   90.493">  7  8 -1 -1</clus>
<clus scale="  153.429">  1  5  2 -1</clus>
<clus scale="  201.158">  2  9  1 -1</clus>
<clus scale="  201.158">  2  5  1 -1</clus>
</clustering>
</event>
<event>
 9    2  0.6469128E-005  0.1074625E+03  0.7546771E-02  0.1270607E+00
          2   -1    0    0  502    0 -0.00000000000E+00  0.00000000000E+00  0.52067750542E+03  0.52067750542E+03  0.00000000000E+00 0. -1.
         21   -1    0    0  501  502  0.00000000000E+00 -0.00000000000E+00 -0.38038697826E+02  0.38038697826E+02  0.00000000000E+00 0.  1.
         24    2    1    2    0    0 -0.55751564566E+02 -0.34959989159E+02  0.36044157876E+03  0.37461881238E+03  0.78042841426E+02 0.  0.
         23    2    1    2    0    0  0.16844620041E+02  0.34279778421E+02  0.93563296421E+02  0.13578471029E+03  0.90689319537E+02 0.  0.
        -11    1    3    3    0    0 -0.56532418591E+02 -0.11659369223E+01  0.13074609849E+03  0.14244934549E+03  0.00000000000E+00 0.  1.
         12    1    3    3    0    0  0.78085402495E+00 -0.33794052236E+02  0.22969548027E+03  0.23216946689E+03  0.00000000000E+00 0. -1.
        -11    1    4    4    0    0  0.21642337908E+02  0.97527311374E+01  0.10546504056E+03  0.10810356763E+03  0.00000000000E+00 0. -1.
         11    1    4    4    0    0 -0.47977178667E+01  0.24527047283E+02 -0.11901744139E+02  0.27681142656E+02  0.00000000000E+00 0.  1.
          1    1    1    2  501    0  0.38906944525E+02  0.68021073784E+00  0.28633932411E+02  0.48312680574E+02  0.00000000000E+00 0. -1.
<scales pt_clust_5="13000.00000" pt_clust_6="13000.00000" pt_clust_7="13000.00000" pt_clust_8="13000.00000" pt_clust_9="38.91289"></scales>
<clustering>
<clus scale="   38.913">  2  9  1 -1</clus>
<clus scale="   78.043">  5  6 -1 -1</clus>
<clus scale="   90.689">  7  8 -1 -1</clus>
<clus scale="   97.027">  1  5  2 -1</clus>
<clus scale="   38.913">  2  5  1 -1</clus>
</clustering>
</event>
<event>
 9    2  0.6469128E-005  0.1609929E+03  0.7546771E-02  0.1197213E+00
          2   -1    0    0  502    0 -0.00000000000E+00  0.00000000000E+00  0.81338579129E+03  0.81338579129E+03  0.00000000000E+00 0. -1.
         21   -1    0    0  501  502  0.00000000000E+00 -0.00000000000E+00 -0.78036300400E+02  0.78036300400E+02  0.00000000000E+00 0.  1.
         24    2    1    2    0    0 -0.15349381398E+02  0.10154353742E+03  0.52414090189E+02  0.14039316987E+03  0.80101883838E+02 0.  0.
         23    2    1    2    0    0  0.14088672047E+03 -0.44475024011E+02  0.41000642391E+03  0.44524032639E+03  0.91140467588E+02 0.  0.
        -13    1    3    3    0    0 -0.11221832139E+02  0.97470579653E+02  0.11175466092E+02  0.98748845344E+02  0.00000000000E+00 0.  1.
         14    1    3    3    0    0 -0.41275492595E+01  0.40729577691E+01  0.41238624096E+02  0.41644324526E+02  0.00000000000E+00 0. -1.
        -11    1    4    4    0    0 -0.37758370271E+01 -0.24405181792E+02  0.35330087538E+02  0.43105509265E+02  0.00000000000E+00 0.  1.
         11    1    4    4    0    0  0.14466255749E+03 -0.20069842219E+02  0.37467633637E+03  0.40213481712E+03  0.00000000000E+00 0. -1.
          1    1    1    2  501    0 -0.12553733907E+03 -0.57068513411E+02  0.27292897680E+03  0.30578859544E+03  0.00000000000E+00 0. -1.
<scales pt_clust_5="13000.00000" pt_clust_6="13000.00000" pt_clust_7="13000.00000" pt_clust_8="13000.00000" pt_clust_9="132.71074"></scales>
<clustering>
<clus scale="   80.102">  5  6 -1 -1</clus>
<clus scale="   91.140">  7  8 -1 -1</clus>
<clus scale="  130.242">  1  5  2 -1</clus>
<clus scale="  132.711">  2  9  1 -1</clus>
<clus scale="  132.711">  2  5  1 -1</clus>
</clustering>
</event>
<event>
 9    2  0.6469128E-005  0.1528311E+03  0.7546771E-02  0.1217844E+00
          2   -1    0    0  502    0 -0.00000000000E+00  0.00000000000E+00  0.28657666120E+03  0.28657666120E+03  0.00000000000E+00 0. -1.
         21   -1    0    0  501  502  0.00000000000E+00 -0.00000000000E+00 -0.18972376575E+03  0.18972376575E+03  0.00000000000E+00 0.  1.
         24    2    1    2    0    0 -0.56867933851E+02 -0.38634909889E+01 -0.60558814668E+02  0.11504352255E+03  0.79490588020E+02 0.  0.
         23    2    1    2    0    0  0.71574803793E+02  0.11124338296E+03 -0.11398206456E+02  0.16064902530E+03  0.90444167468E+02 0.  0.
        -11    1    3    3    0    0 -0.57784947598E+02  0.29057833917E+02 -0.36603907304E+02  0.74318933730E+02  0.00000000000E+00 0.  1.
         12    1    3    3    0    0  0.91701374738E+00 -0.32921324906E+02 -0.23954907364E+02  0.40724588820E+02  0.00000000000E+00 0. -1.
        -11    1    4    4    0    0  0.10686270532E+02  0.20106174078E+02 -0.41191859616E+02  0.47066165263E+02  0.00000000000E+00 0.  1.
         11    1    4    4    0    0  0.60888533261E+02  0.91137208880E+02  0.29793653161E+02  0.11358286004E+03  0.00000000000E+00 0. -1.
          1    1    1    2  501    0 -0.14706869942E+02 -0.10737989197E+03  0.16880991658E+03  0.20060787910E+03  0.00000000000E+00 0. -1.
<scales pt_clust_5="13000.00000" pt_clust_6="13000.00000" pt_clust_7="13000.00000" pt_clust_8="13000.00000" pt_clust_9="123.19580"></scales>
<clustering>
<clus scale="   79.491">  5  6 -1 -1</clus>
<clus scale="   90.444">  7  8 -1 -1</clus>
<clus scale="   97.814">  1  5  2 -1</clus>
<clus scale="  123.196">  2  9  1 -1</clus>
<clus scale="  123.196">  2  5  1 -1</clus>
</clustering>
</event>
<event>
 9    2  0.6469128E-005  0.1161155E+03  0.7546771E-02  0.1254069E+00
         21   -1    0    0  501  502  0.00000000000E+00  0.00000000000E+00  0.29058124272E+02  0.29058124272E+02  0.00000000000E+00 0.  1.
          2   -1    0    0  502    0 -0.00000000000E+00 -0.00000000000E+00 -0.16822421040E+04  0.16822421040E+04  0.00000000000E+00 0. -1.
         24    2    1    2    0    0  0.42122453921E+01  0.71275814243E+02 -0.14827246669E+04  0.14865432218E+04  0.78995745131E+02 0.  0.
         23    2    1    2    0    0 -0.30107911529E+02 -0.66207812766E+02 -0.11907885054E+03  0.16699696779E+03  0.91751042485E+02 0.  0.
        -11    1    3    3    0    0 -0.20958168388E+02  0.64890060392E+01 -0.11626019739E+03  0.11831223741E+03  0.00000000000E+00 0.  1.
         12    1    3    3    0    0  0.25170413780E+02  0.64786808204E+02 -0.13664644695E+04  0.13682309844E+04  0.00000000000E+00 0. -1.
        -11    1    4    4    0    0 -0.41566921941E+02 -0.17983366971E+02 -0.88646955692E+01  0.46149683800E+02  0.00000000000E+00 0.  1.
         11    1    4    4    0    0  0.11459010412E+02 -0.48224445795E+02 -0.11021415497E+03  0.12084728399E+03  0.00000000000E+00 0. -1.
          1    1    1    2  501    0  0.25895666137E+02 -0.50680014773E+01 -0.51380462330E+02  0.57760038719E+02  0.00000000000E+00 0. -1.
<scales pt_clust_5="13000.00000" pt_clust_6="13000.00000" pt_clust_7="13000.00000" pt_clust_8="13000.00000" pt_clust_9="26.38693"></scales>
<clustering>
<clus scale="   26.387">  1  9  2 -1</clus>
<clus scale="   78.996">  5  6 -1 -1</clus>
<clus scale="   91.751">  7  8 -1 -1</clus>
<clus scale="  106.324">  2  5  1 -1</clus>
<clus scale="   26.387">  1  5  2 -1</clus>
</clustering>
</event>
<event>
 9    2  0.6469128E-005  0.1262508E+03  0.7546771E-02  0.1241392E+00
         21   -1    0    0  501  502  0.00000000000E+00  0.00000000000E+00  0.15826564874E+03  0.15826564874E+03  0.00000000000E+00 0. -1.
          2   -1    0    0  502    0 -0.00000000000E+00 -0.00000000000E+00 -0.19093281700E+03  0.19093281700E+03  0.00000000000E+00 0. -1.
         23    2    1    2    0    0 -0.53372668098E+02 -0.75923097888E+01 -0.26197321893E+02  0.10983092870E+03  0.92033952198E+02 0.  0.
         24    2    1    2    0    0 -0.49412886591E+01 -0.82581440019E+02 -0.47197212577E+02  0.12451745622E+03  0.80205420386E+02 0.  0.
        -13    1    4    4    0    0  0.81310115822E+01 -0.51731167321E+02  0.14476169586E+02  0.54330346103E+02  0.00000000000E+00 0.  1.
         14    1    4    4    0    0 -0.13072300241E+02 -0.30850272698E+02 -0.61673382164E+02  0.70187110118E+02  0.00000000000E+00 0. -1.
        -13    1    3    3    0    0 -0.52757478336E+02 -0.37144211185E+02 -0.41330294508E+02  0.76623998780E+02  0.00000000000E+00 0. -1.
         13    1    3    3    0    0 -0.61518976146E+00  0.29551901397E+02  0.15132972615E+02  0.33206929921E+02  0.00000000000E+00 0.  1.
          1    1    1    2  501    0  0.58313956757E+02  0.90173749808E+02  0.40727366211E+02  0.11485008082E+03  0.00000000000E+00 0. -1.
<scales pt_clust_5="13000.00000" pt_clust_6="13000.00000" pt_clust_7="13000.00000" pt_clust_8="13000.00000" pt_clust_9="97.50054"></scales>
<clustering>
<clus scale="   80.205">  5  6 -1 -1</clus>
<clus scale="   92.034">  7  8 -1 -1</clus>
<clus scale="  106.661">  2  7  1 -1</clus>
<clus scale="   97.501">  1  9  2 -1</clus>
<clus scale="   97.501">  1  5  2 -1</clus>
</clustering>
</event>
<event>
 9    2  0.6469128E-005  0.1098954E+03  0.7546771E-02  0.1265856E+00
          2   -1    0    0  502    0 -0.00000000000E+00  0.00000000000E+00  0.36239018602E+03  0.36239018602E+03  0.00000000000E+00 0. -1.
         21   -1    0    0  501  502  0.00000000000E+00 -0.00000000000E+00 -0.17185387878E+03  0.17185387878E+03  0.00000000000E+00 0.  1.
         24    2    1    2    0    0  0.44062485096E+02  0.44109848445E+02  0.32547049358E+03  0.34052822669E+03  0.78366125717E+02 0.  0.
         23    2    1    2    0    0 -0.49123549782E+02 -0.15864037151E+02 -0.80428077196E+02  0.13211749264E+03  0.91222614750E+02 0.  0.
        -11    1    3    3    0    0 -0.20359816925E+02  0.37923528371E+01  0.39113703981E+02  0.44258173532E+02  0.00000000000E+00 0.  1.
         12    1    3    3    0    0  0.64422302021E+02  0.40317495608E+02  0.28635678960E+03  0.29627005316E+03  0.00000000000E+00 0. -1.
        -11    1    4    4    0    0 -0.40727556518E+02  0.25523610968E+02 -0.86483453755E+01  0.48836282153E+02  0.00000000000E+00 0. -1.
         11    1    4    4    0    0 -0.83959932637E+01 -0.41387648119E+02 -0.71779731821E+02  0.83281210486E+02  0.00000000000E+00 0.  1.
          1    1    1    2  501    0  0.50610646858E+01 -0.28245811294E+02 -0.54506109141E+02  0.61598345474E+02  0.00000000000E+00 0. -1.
<scales pt_clust_5="13000.00000" pt_clust_6="13000.00000" pt_clust_7="13000.00000" pt_clust_8="13000.00000" pt_clust_9="28.69565"></scales>
<clustering>
<clus scale="   28.696">  2  9  1 -1</clus>
<clus scale="   78.366">  5  6 -1 -1</clus>
<clus scale="   91.223">  7  8 -1 -1</clus>
<clus scale="   99.482">  1  5  2 -1</clus>
<clus scale="   28.696">  2  5  1 -1</clus>
</clustering>
</event>
<event>
 9    2  0.6469128E-005  0.1862420E+03  0.7546771E-02  0.1163929E+00
          2   -1    0    0  502    0 -0.00000000000E+00  0.00000000000E+00  0.90470416294E+03  0.90470416294E+03  0.00000000000E+00 0. -1.
         21   -1    0    0  501  502  0.00000000000E+00 -0.00000000000E+00 -0.43934872224E+02  0.43934872224E+02  0.00000000000E+00 0.  1.
         24    2    1    2    0    0  0.61617927545E+02 -0.15955180404E+03  0.50640058577E+03  0.54058419239E+03  0.80846574605E+02 0.  0.
         23    2    1    2    0    0 -0.52291555146E+02  0.13153595453E+03  0.31186884480E+03  0.35630441129E+03  0.98257534454E+02 0.  0.
        -11    1    3    3    0    0 -0.18589667285E+02 -0.31114770628E+02  0.73218920337E+02  0.81698928856E+02  0.00000000000E+00 0.  1.
         12    1    3    3    0    0  0.80207594829E+02 -0.12843703341E+03  0.43318166544E+03  0.45888526354E+03  0.00000000000E+00 0. -1.
        -11    1    4    4    0    0 -0.42080796008E+02  0.16431099567E+02  0.15512272292E+03  0.16156680845E+03  0.00000000000E+00 0. -1.
         11    1    4    4    0    0 -0.10210759138E+02  0.11510485496E+03  0.15674612188E+03  0.19473760284E+03  0.00000000000E+00 0.  1.
          1    1    1    2  501    0 -0.93263723989E+01  0.28015849513E+02  0.42499860148E+02  0.51750431483E+02  0.00000000000E+00 0. -1.
<scales pt_clust_5="13000.00000" pt_clust_6="13000.00000" pt_clust_7="13000.00000" pt_clust_8="13000.00000" pt_clust_9="29.52743"></scales>
<clustering>
<clus scale="   29.527">  2  9  1 -1</clus>
<clus scale="   80.847">  5  6 -1 -1</clus>
<clus scale="   98.258">  7  8 -1 -1</clus>
<clus scale="  177.673">  1  5  2 -1</clus>
<clus scale="   29.527">  2  5  1 -1</clus>
</clustering>
</event>
<event>
 9    2  0.7430554E-005  0.1048657E+03  0.7546771E-02  0.1276805E+00
         21   -1    0    0  501  502  0.00000000000E+00  0.00000000000E+00  0.23958641252E+03  0.23958641252E+03  0.00000000000E+00 0.  1.
         -1   -1    0    0    0  501 -0.00000000000E+00 -0.00000000000E+00 -0.22340155399E+03  0.22340155399E+03  0.00000000000E+00 0.  1.
         24    2    1    2    0    0 -0.52096121406E+02 -0.45676031350E+01 -0.14029957069E+03  0.16774998753E+03  0.75638746137E+02 0.  0.
         23    2    1    2    0    0  0.43478218107E+02  0.84073599984E+02  0.13498831452E+02  0.13140772243E+03  0.90150127009E+02 0.  0.
        -11    1    3    3    0    0 -0.55496793481E+02 -0.10275344019E+02 -0.14751383129E+03  0.15794241736E+03  0.00000000000E+00 0.  1.
         12    1    3    3    0    0  0.34006720755E+01  0.57077408841E+01  0.72142605998E+01  0.98075701663E+01  0.00000000000E+00 0. -1.
        -11    1    4    4    0    0 -0.11153294664E+02  0.68971474637E+02  0.23777812348E+02  0.73802741518E+02  0.00000000000E+00 0.  1.
         11    1    4    4    0    0  0.54631512771E+02  0.15102125347E+02 -0.10278980897E+02  0.57604980912E+02  0.00000000000E+00 0. -1.
         -2    1    1    2    0  502  0.86179032992E+01 -0.79505996849E+02  0.14298559777E+03  0.16383025655E+03  0.00000000000E+00 0.  1.
<scales pt_clust_5="13000.00000" pt_clust_6="13000.00000" pt_clust_7="13000.00000" pt_clust_8="13000.00000" pt_clust_9="79.97169"></scales>
<clustering>
<clus scale="   75.639">  5  6 -1 -1</clus>
<clus scale="   79.972">  1  9  2 -1</clus>
<clus scale="   90.150">  7  8 -1 -1</clus>
<clus scale="   92.688">  2  5  1 -1</clus>
<clus scale="   79.972">  1  5  2 -1</clus>
</clustering>
</event>
<event>
 9    2  0.6469128E-005  0.9250584E+02  0.7546771E-02  0.1302499E+00
          2   -1    0    0  502    0 -0.00000000000E+00  0.00000000000E+00  0.79944626097E+02  0.79944626097E+02  0.00000000000E+00 0. -1.
         21   -1    0    0  501  502  0.00000000000E+00 -0.00000000000E+00 -0.28132452279E+03  0.28132452279E+03  0.00000000000E+00 0. -1.
         23    2    1    2    0    0 -0.12694207536E+02  0.29157233271E+02 -0.29864968820E+01  0.95565094212E+02  0.90069311706E+02 0.  0.
         24    2    1    2    0    0 -0.35709108236E+02 -0.65859926400E+01 -0.37396123558E+02  0.96079572827E+02  0.80711204597E+02 0.  0.
        -11    1    4    4    0    0  0.13228058423E+02 -0.30950186822E+02 -0.17225664273E+02  0.37810304199E+02  0.00000000000E+00 0.  1.
         12    1    4    4    0    0 -0.48937166659E+02  0.24364194182E+02 -0.20170459285E+02  0.58269268629E+02  0.00000000000E+00 0. -1.
        -11    1    3    3    0    0  0.18352769687E+02  0.16682810614E+02  0.36298299940E+02  0.43962562524E+02  0.00000000000E+00 0. -1.
         11    1    3    3    0    0 -0.31046977223E+02  0.12474422657E+02 -0.39284796822E+02  0.51602531688E+02  0.00000000000E+00 0.  1.
          1    1    1    2  501    0  0.48403315772E+02 -0.22571240631E+02 -0.16099727626E+03  0.16962448185E+03  0.00000000000E+00 0. -1.
<scales pt_clust_5="13000.00000" pt_clust_6="13000.00000" pt_clust_7="13000.00000" pt_clust_8="13000.00000" pt_clust_9="53.40732"></scales>
<clustering>
<clus scale="   53.407">  2  9  1 -1</clus>
<clus scale="   80.711">  5  6 -1 -1</clus>
<clus scale="   83.422">  2  5  1 -1</clus>
<clus scale="   90.069">  7  8 -1 -1</clus>
<clus scale="   53.407">  2  5  1 -1</clus>
</clustering>
</event>
<event>
 9    2  0.6469128E-005  0.1036363E+03  0.7546771E-02  0.1277988E+00
         -1   -1    0    0    0  501 -0.00000000000E+00  0.00000000000E+00  0.51305850046E+03  0.51305850046E+03  0.00000000000E+00 0.  1.
         21   -1    0    0  501  502  0.00000000000E+00 -0.00000000000E+00 -0.30543460760E+02  0.30543460760E+02  0.00000000000E+00 0.  1.
         24    2    1    2    0    0  0.58380695017E+02  0.13276670076E+02  0.20956754877E+03  0.23190105350E+03  0.79214680426E+02 0.  0.
         23    2    1    2    0    0 -0.34715841136E+02 -0.38066218926E+01  0.10971283945E+03  0.14648814017E+03  0.90565932185E+02 0.  0.
        -11    1    3    3    0    0  0.71749955165E+02  0.26623110891E+02  0.18935206208E+03  0.20423283162E+03  0.00000000000E+00 0.  1.
         12    1    3    3    0    0 -0.13369260147E+02 -0.13346440815E+02  0.20215486695E+02  0.27668221874E+02  0.00000000000E+00 0. -1.
        -11    1    4    4    0    0 -0.55403511794E+02 -0.27927664149E+02  0.53547281098E+02  0.81956176442E+02  0.00000000000E+00 0.  1.
         11    1    4    4    0    0  0.20687670658E+02  0.24121042257E+02  0.56165558356E+02  0.64531963725E+02  0.00000000000E+00 0. -1.
         -2    1    1    2    0  502 -0.23664853882E+02 -0.94700481837E+01  0.16323465147E+03  0.16521276755E+03  0.00000000000E+00 0.  1.
<scales pt_clust_5="13000.00000" pt_clust_6="13000.00000" pt_clust_7="13000.00000" pt_clust_8="13000.00000" pt_clust_9="25.48937"></scales>
<clustering>
<clus scale="   25.489">  2  9  1 -1</clus>
<clus scale="   79.215">  5  6 -1 -1</clus>
<clus scale="   90.566">  7  8 -1 -1</clus>
<clus scale="   93.879">  1  5  2 -1</clus>
<clus scale="   25.489">  2  5  1 -1</clus>
</clustering>
</event>
<event>
 9    2  0.6469128E-005  0.1129276E+03  0.7546771E-02  0.1258792E+00
         21   -1    0    0  501  502  0.00000000000E+00  0.00000000000E+00  0.34456546594E+02  0.34456546594E+02  0.00000000000E+00 0.  1.
          2   -1    0    0  502    0 -0.00000000000E+00 -0.00000000000E+00 -0.73702784636E+03  0.73702784636E+03  0.00000000000E+00 0. -1.
         24    2    1    2    0    0  0.60298922410E+02 -0.11558517419E+02 -0.42832797030E+03  0.44024645620E+03  0.81132808937E+02 0.  0.
         23    2    1    2    0    0 -0.81584464092E+02 -0.11429413065E+02 -0.27368704856E+03  0.29990379114E+03  0.90835164598E+02 0.  0.
        -13    1    3    3    0    0  0.17990270284E+02 -0.20378052210E+02 -0.33875461546E+02  0.43433417224E+02  0.00000000000E+00 0.  1.
         14    1    3    3    0    0  0.42308652126E+02  0.88195347910E+01 -0.39445250876E+03  0.39681303898E+03  0.00000000000E+00 0. -1.
        -11    1    4    4    0    0 -0.10096253995E+03 -0.16867531619E+02 -0.23381533491E+03  0.25524019851E+03  0.00000000000E+00 0.  1.
         11    1    4    4    0    0  0.19378075859E+02  0.54381185540E+01 -0.39871713648E+02  0.44663592630E+02  0.00000000000E+00 0. -1.
          1    1    1    2  501    0  0.21285541682E+02  0.22987930484E+02 -0.55628090273E+00  0.31334145610E+02  0.00000000000E+00 0. -1.
<scales pt_clust_5="13000.00000" pt_clust_6="13000.00000" pt_clust_7="13000.00000" pt_clust_8="13000.00000" pt_clust_9="31.32921"></scales>
<clustering>
<clus scale="   31.329">  1  9  2 -1</clus>
<clus scale="   81.133">  5  6 -1 -1</clus>
<clus scale="   90.835">  7  8 -1 -1</clus>
<clus scale="  105.281">  2  5  1 -1</clus>
<clus scale="   31.329">  1  5  2 -1</clus>
</clustering>
</event>
<event>
 9    2  0.6469128E-005  0.1471391E+03  0.7546771E-02  0.1204977E+00
         -1   -1    0    0    0  501 -0.00000000000E+00  0.00000000000E+00  0.25243283653E+03  0.25243283653E+03  0.00000000000E+00 0.  1.
         21   -1    0    0  501  502  0.00000000000E+00 -0.00000000000E+00 -0.20337668674E+03  0.20337668674E+03  0.00000000000E+00 0.  1.
         23    2    1    2    0    0  0.54307088156E+02 -0.99325581225E+02  0.16701358022E+03  0.22054242443E+03  0.89053883052E+02 0.  0.
         24    2    1    2    0    0 -0.51586509061E+02  0.13187148726E+03 -0.11803001675E+03  0.20260760070E+03  0.84068412253E+02 0.  0.
        -11    1    4    4    0    0 -0.49729569683E+02  0.14051668826E+03 -0.92109194519E+02  0.17522007161E+03  0.00000000000E+00 0.  1.
         12    1    4    4    0    0 -0.18569393787E+01 -0.86452010069E+01 -0.25920822230E+02  0.27387529085E+02  0.00000000000E+00 0. -1.
        -11    1    3    3    0    0  0.15144159980E+01 -0.90351331020E+02  0.10050600706E+03  0.13515588751E+03  0.00000000000E+00 0.  1.
         11    1    3    3    0    0  0.52792672158E+02 -0.89742502053E+01  0.66507573154E+02  0.85386536920E+02  0.00000000000E+00 0. -1.
         -2    1    1    2    0  502 -0.27205790943E+01 -0.32545906033E+02  0.72586327166E-01  0.32659498142E+02  0.00000000000E+00 0.  1.
<scales pt_clust_5="13000.00000" pt_clust_6="13000.00000" pt_clust_7="13000.00000" pt_clust_8="13000.00000" pt_clust_9="32.65942"></scales>
<clustering>
<clus scale="   32.659">  2  9  1 -1</clus>
<clus scale="   84.068">  5  6 -1 -1</clus>
<clus scale="   89.054">  7  8 -1 -1</clus>
<clus scale="  144.176">  2  5  1 -1</clus>
<clus scale="   32.659">  2  5  1 -1</clus>
</clustering>
</event>
<event>
 9    2  0.6469128E-005  0.1066335E+03  0.7546771E-02  0.1273661E+00
          2   -1    0    0  502    0 -0.00000000000E+00  0.00000000000E+00  0.58314482430E+03  0.58314482430E+03  0.00000000000E+00 0. -1.
         21   -1    0    0  501  502  0.00000000000E+00 -0.00000000000E+00 -0.17634798492E+03  0.17634798492E+03  0.00000000000E+00 0. -1.
         24    2    1    2    0    0  0.53202532548E+02  0.14955398714E+02  0.50954949179E+03  0.51811895547E+03  0.75844538432E+02 0.  0.
         23    2    1    2    0    0 -0.65186932112E+02  0.65970646979E+02 -0.34194307088E+02  0.13463633730E+03  0.91412418759E+02 0.  0.
        -13    1    3    3    0    0  0.27745344906E+02  0.28714710039E+02  0.10190230494E+03  0.10944596150E+03  0.00000000000E+00 0.  1.
         14    1    3    3    0    0  0.25457187642E+02 -0.13759311325E+02  0.40764718685E+03  0.40867299396E+03  0.00000000000E+00 0. -1.
        -13    1    4    4    0    0 -0.59414016539E+02  0.17953976969E+02 -0.54101700177E+02  0.82336897029E+02  0.00000000000E+00 0.  1.
         13    1    4    4    0    0 -0.57729155725E+01  0.48016670010E+02  0.19907393089E+02  0.52299440271E+02  0.00000000000E+00 0. -1.
          1    1    1    2  501    0  0.11984399563E+02 -0.80926045693E+02 -0.68558345330E+02  0.10673751645E+03  0.00000000000E+00 0. -1.
<scales pt_clust_5="13000.00000" pt_clust_6="13000.00000" pt_clust_7="13000.00000" pt_clust_8="13000.00000" pt_clust_9="81.80862"></scales>
<clustering>
<clus scale="   75.845">  5  6 -1 -1</clus>
<clus scale="   81.809">  2  9  1 -1</clus>
<clus scale="   91.412">  7  8 -1 -1</clus>
<clus scale="   93.631">  1  5  2 -1</clus>
<clus scale="   81.809">  2  5  1 -1</clus>
</clustering>
</event>
<event>
 9    2  0.6469128E-005  0.1019231E+03  0.7546771E-02  0.1283808E+00
         21   -1    0    0  501  502  0.00000000000E+00  0.00000000000E+00  0.13711536491E+03  0.13711536491E+03  0.00000000000E+00 0.  1.
          4   -1    0    0  502    0 -0.00000000000E+00 -0.00000000000E+00 -0.25988933804E+03  0.25988933804E+03  0.00000000000E+00 0. -1.
         23    2    1    2    0    0  0.37209755446E+02 -0.51405954295E+01 -0.21583070628E+03  0.23946958320E+03  0.96704683878E+02 0.  0.
         24    2    1    2    0    0 -0.25141091623E+01 -0.13584288993E+02  0.43147182192E+02  0.93931877350E+02  0.82284048266E+02 0.  0.
        -11    1    4    4    0    0  0.39804674865E+01  0.28265698021E+02  0.42962298562E+02  0.51580547726E+02  0.00000000000E+00 0.  1.
         12    1    4    4    0    0 -0.64945766488E+01 -0.41849987014E+02  0.18488362987E+00  0.42351329623E+02  0.00000000000E+00 0. -1.
        -13    1    3    3    0    0  0.56945505866E+02 -0.34831603354E+02 -0.12156057459E+03  0.13868310829E+03  0.00000000000E+00 0. -1.
         13    1    3    3    0    0 -0.19735750421E+02  0.29691007925E+02 -0.94270131685E+02  0.10078647491E+03  0.00000000000E+00 0.  1.
          3    1    1    2  501    0 -0.34695646283E+02  0.18724884423E+02  0.49909550951E+02  0.63603242400E+02  0.00000000000E+00 0. -1.
<scales pt_clust_5="13000.00000" pt_clust_6="13000.00000" pt_clust_7="13000.00000" pt_clust_8="13000.00000" pt_clust_9="39.42600"></scales>
<clustering>
<clus scale="   39.426">  1  9  2 -1</clus>
<clus scale="   82.284">  5  6 -1 -1</clus>
<clus scale="   88.358">  1  5  2 -1</clus>
<clus scale="   96.705">  7  8 -1 -1</clus>
<clus scale="   39.426">  1  5  2 -1</clus>
</clustering>
</event>
<event>
 9    2  0.6469128E-005  0.8441647E+02  0.7546771E-02  0.1317508E+00
         21   -1    0    0  501  502  0.00000000000E+00  0.00000000000E+00  0.23659050140E+03  0.23659050140E+03  0.00000000000E+00 0.  1.
         -1   -1    0    0    0  501 -0.00000000000E+00 -0.00000000000E+00 -0.11880312405E+03  0.11880312405E+03  0.00000000000E+00 0.  1.
         24    2    1    2    0    0 -0.29589010370E+01 -0.15100296349E+02 -0.68882991834E+02  0.10756060498E+03  0.81164297169E+02 0.  0.
         23    2    1    2    0    0 -0.58777852993E+01  0.63964807853E+02  0.16144975090E+03  0.19213825323E+03  0.82006349058E+02 0.  0.
        -13    1    3    3    0    0  0.37056794482E+01 -0.41512591650E+02 -0.68660039294E+02  0.80319538852E+02  0.00000000000E+00 0.  1.
         14    1    3    3    0    0 -0.66645804852E+01  0.26412295300E+02 -0.22295254088E+00  0.27241066130E+02  0.00000000000E+00 0. -1.
        -11    1    4    4    0    0 -0.20722127195E+02 -0.13841783867E+02  0.40902530780E+02  0.47895913817E+02  0.00000000000E+00 0. -1.
         11    1    4    4    0    0  0.14844341896E+02  0.77806591720E+02  0.12054722012E+03  0.14424233941E+03  0.00000000000E+00 0.  1.
         -2    1    1    2    0  502  0.88366863362E+01 -0.48864511504E+02  0.25220618287E+02  0.55694767229E+02  0.00000000000E+00 0.  1.
<scales pt_clust_5="13000.00000" pt_clust_6="13000.00000" pt_clust_7="13000.00000" pt_clust_8="13000.00000" pt_clust_9="49.65710"></scales>
<clustering>
<clus scale="   49.657">  1  9  2 -1</clus>
<clus scale="   81.164">  5  6 -1 -1</clus>
<clus scale="   82.006">  7  8 -1 -1</clus>
<clus scale="   83.599">  2  5  1 -1</clus>
<clus scale="   49.657">  1  5  2 -1</clus>
</clustering>
</event>
<event>
 9    2  0.6469128E-005  0.3131198E+03  0.7546771E-02  0.1094851E+00
          2   -1    0    0  502    0 -0.00000000000E+00  0.00000000000E+00  0.14820302815E+04  0.14820302815E+04  0.00000000000E+00 0. -1.
         21   -1    0    0  501  502  0.00000000000E+00 -0.00000000000E+00 -0.17498764258E+03  0.17498764258E+03  0.00000000000E+00 0. -1.
         24    2    1    2    0    0 -0.25910116800E+02  0.17587215625E+03  0.48955062865E+03  0.53060806834E+03  0.10140391847E+03 0.  0.
         23    2    1    2    0    0 -0.29009855805E+03  0.10443182763E+02  0.99376688361E+02  0.32002005936E+03  0.90944371744E+02 0.  0.
        -13    1    3    3    0    0  0.16940566338E+02  0.15620921132E+03  0.36231555545E+03  0.39491880458E+03  0.00000000000E+00 0.  1.
         14    1    3    3    0    0 -0.42850683137E+02  0.19662944936E+02  0.12723507319E+03  0.13568926376E+03  0.00000000000E+00 0. -1.
        -13    1    4    4    0    0 -0.14576572298E+03  0.48925534524E+02  0.37014292484E+02  0.15814996608E+03  0.00000000000E+00 0. -1.
         13    1    4    4    0    0 -0.14433283507E+03 -0.38482351761E+02  0.62362395877E+02  0.16187009327E+03  0.00000000000E+00 0.  1.
          1    1    1    2  501    0  0.31600867485E+03 -0.18631533902E+03  0.71811532189E+03  0.80638979636E+03  0.00000000000E+00 0. -1.
<scales pt_clust_5="13000.00000" pt_clust_6="13000.00000" pt_clust_7="13000.00000" pt_clust_8="13000.00000" pt_clust_9="299.62182"></scales>
<clustering>
<clus scale="   90.944">  7  8 -1 -1</clus>
<clus scale="  101.404">  5  6 -1 -1</clus>
<clus scale="  204.659">  1  5  2 -1</clus>
<clus scale="  299.622">  2  9  1 -1</clus>
<clus scale="  299.622">  2  5  1 -1</clus>
</clustering>
</event>
<event>
 9    2  0.6469128E-005  0.2469768E+03  0.7546771E-02  0.1151631E+00
          2   -1    0    0  502    0 -0.00000000000E+00  0.00000000000E+00  0.46492284351E+03  0.46492284351E+03  0.00000000000E+00 0. -1.
         21   -1    0    0  501  502  0.00000000000E+00 -0.00000000000E+00 -0.20243041424E+03  0.20243041424E+03  0.00000000000E+00 0. -1.
         24    2    1    2    0    0 -0.54790386574E+02 -0.28570791326E+02  0.11124196940E+02  0.10216474883E+03  0.80595356989E+02 0.  0.
         23    2    1    2    0    0  0.21985320813E+03 -0.10055316611E+03  0.30536957642E+02  0.26074609511E+03  0.92788188870E+02 0.  0.
        -13    1    3    3    0    0 -0.11395604442E+02 -0.24334789018E+02  0.41206091380E+02  0.49193330076E+02  0.00000000000E+00 0.  1.
         14    1    3    3    0    0 -0.43394782132E+02 -0.42360023084E+01 -0.30081894440E+02  0.52971418755E+02  0.00000000000E+00 0. -1.
        -11    1    4    4    0    0  0.25773534078E+02  0.17541300183E+02 -0.20096945378E+01  0.31241177044E+02  0.00000000000E+00 0.  1.
         11    1    4    4    0    0  0.19407967405E+03 -0.11809446629E+03  0.32546652180E+02  0.22950491807E+03  0.00000000000E+00 0. -1.
          1    1    1    2  501    0 -0.16506282156E+03  0.12912395743E+03  0.22083127468E+03  0.30444241380E+03  0.00000000000E+00 0. -1.
<scales pt_clust_5="13000.00000" pt_clust_6="13000.00000" pt_clust_7="13000.00000" pt_clust_8="13000.00000" pt_clust_9="228.88408"></scales>
<clustering>
<clus scale="   80.595">  5  6 -1 -1</clus>
<clus scale="   92.788">  7  8 -1 -1</clus>
<clus scale="  101.557">  1  5  2 -1</clus>
<clus scale="  228.884">  2  9  1 -1</clus>
<clus scale="  228.884">  2  5  1 -1</clus>
</clustering>
</event>
<event>
 9    2  0.6469128E-005  0.1014708E+03  0.7546771E-02  0.1285318E+00
         21   -1    0    0  501  502  0.00000000000E+00  0.00000000000E+00  0.59608810209E+02  0.59608810209E+02  0.00000000000E+00 0.  1.
          2   -1    0    0  502    0 -0.00000000000E+00 -0.00000000000E+00 -0.10839672560E+04  0.10839672560E+04  0.00000000000E+00 0. -1.
         24    2    1    2    0    0 -0.36523826716E+02  0.12505788207E+02 -0.99095140785E+03  0.99481489190E+03  0.78623099469E+02 0.  0.
         23    2    1    2    0    0  0.16265541280E+02  0.25885167866E+02 -0.10680699854E+02  0.99763724604E+02  0.94361611097E+02 0.  0.
        -11    1    3    3    0    0  0.19379235172E+02  0.11632399777E+02 -0.12264357884E+03  0.12470892073E+03  0.00000000000E+00 0.  1.
         12    1    3    3    0    0 -0.55903061888E+02  0.87338843048E+00 -0.86830782902E+03  0.87010597117E+03  0.00000000000E+00 0. -1.
        -13    1    4    4    0    0  0.48037181462E+02  0.41447287104E+02 -0.27413182937E+01  0.63505615792E+02  0.00000000000E+00 0.  1.
         13    1    4    4    0    0 -0.31771640183E+02 -0.15562119237E+02 -0.79393815606E+01  0.36258108812E+02  0.00000000000E+00 0. -1.
          1    1    1    2  501    0  0.20258285437E+02 -0.38390956074E+02 -0.22726338129E+02  0.48997449748E+02  0.00000000000E+00 0. -1.
<scales pt_clust_5="13000.00000" pt_clust_6="13000.00000" pt_clust_7="13000.00000" pt_clust_8="13000.00000" pt_clust_9="43.40811"></scales>
<clustering>
<clus scale="   43.408">  1  9  2 -1</clus>
<clus scale="   78.623">  5  6 -1 -1</clus>
<clus scale="   87.028">  2  5  1 -1</clus>
<clus scale="   94.362">  7  8 -1 -1</clus>
<clus scale="   43.408">  1  5  2 -1</clus>
</clustering>
</event>
<event>
 9    2  0.6469128E-005  0.1022844E+03  0.7546771E-02  0.1280748E+00
         21   -1    0    0  501  502  0.00000000000E+00  0.00000000000E+00  0.20251547700E+03  0.20251547700E+03  0.00000000000E+00 0.  1.
          2   -1    0    0  502    0 -0.00000000000E+00 -0.00000000000E+00 -0.13948870495E+03  0.13948870495E+03  0.00000000000E+00 0. -1.
         23    2    1    2    0    0  0.24136034538E+02 -0.42034950665E+02 -0.10192611768E+03  0.14531692574E+03  0.91534639360E+02 0.  0.
         24    2    1    2    0    0 -0.17641232398E+02  0.21962987244E+02  0.12318948884E+03  0.14989785758E+03  0.80623393975E+02 0.  0.
        -13    1    4    4    0    0 -0.34306508885E+02 -0.95972148735E+01  0.10279282237E+03  0.10879065868E+03  0.00000000000E+00 0.  1.
         14    1    4    4    0    0  0.16665276487E+02  0.31560202117E+02  0.20396666473E+02  0.41107198898E+02  0.00000000000E+00 0. -1.
        -13    1    3    3    0    0 -0.18886682101E+02  0.12556743539E+02 -0.91053398579E+00  0.22698185858E+02  0.00000000000E+00 0.  1.
         13    1    3    3    0    0  0.43022716639E+02 -0.54591694204E+02 -0.10101558369E+03  0.12261873989E+03  0.00000000000E+00 0. -1.
          1    1    1    2  501    0 -0.64948021404E+01  0.20071963421E+02  0.41763400882E+02  0.46789398625E+02  0.00000000000E+00 0. -1.
<scales pt_clust_5="13000.00000" pt_clust_6="13000.00000" pt_clust_7="13000.00000" pt_clust_8="13000.00000" pt_clust_9="21.09659"></scales>
<clustering>
<clus scale="   21.097">  1  9  2 -1</clus>
<clus scale="   80.623">  5  6 -1 -1</clus>
<clus scale="   91.535">  7  8 -1 -1</clus>
<clus scale="   92.648">  1  5  2 -1</clus>
<clus scale="   21.097">  1  5  2 -1</clus>
</clustering>
</event>
<event>
 9    2  0.6469128E-005  0.1140046E+03  0.7546771E-02  0.1264414E+00
          2   -1    0    0  502    0 -0.00000000000E+00  0.00000000000E+00  0.28871712424E+03  0.28871712424E+03  0.00000000000E+00 0. -1.
         21   -1    0    0  501  502  0.00000000000E+00 -0.00000000000E+00 -0.87869224956E+02  0.87869224956E+02  0.00000000000E+00 0.  1.
         24    2    1    2    0    0 -0.26278371959E+00  0.61276965944E+02  0.17554321693E+03  0.19847364989E+03  0.69436539948E+02 0.  0.
         23    2    1    2    0    0 -0.47670628907E+02 -0.49015766529E+02 -0.71612618301E+01  0.11893511412E+03  0.97052787029E+02 0.  0.
        -11    1    3    3    0    0  0.30187787098E+02  0.26029403154E+02  0.46307385530E+02  0.61099969501E+02  0.00000000000E+00 0.  1.
         12    1    3    3    0    0 -0.30450570818E+02  0.35247562791E+02  0.12923583140E+03  0.13737368039E+03  0.00000000000E+00 0. -1.
        -11    1    4    4    0    0 -0.91059303458E+01  0.21708789994E+02  0.23006104531E+02  0.32916111194E+02  0.00000000000E+00 0. -1.
         11    1    4    4    0    0 -0.38564698561E+02 -0.70724556523E+02 -0.30167366361E+02  0.86019002922E+02  0.00000000000E+00 0.  1.
          1    1    1    2  501    0  0.47933412626E+02 -0.12261199415E+02  0.32465944183E+02  0.59177585189E+02  0.00000000000E+00 0. -1.
<scales pt_clust_5="13000.00000" pt_clust_6="13000.00000" pt_clust_7="13000.00000" pt_clust_8="13000.00000" pt_clust_9="49.47678"></scales>
<clustering>
<clus scale="   49.477">  2  9  1 -1</clus>
<clus scale="   69.437">  5  6 -1 -1</clus>
<clus scale="   91.647">  1  5  2 -1</clus>
<clus scale="   97.053">  7  8 -1 -1</clus>
<clus scale="   49.477">  2  5  1 -1</clus>
</clustering>
</event>
<event>
 9    2  0.6469128E-005  0.1105832E+03  0.7546771E-02  0.1269977E+00
          2   -1    0    0  502    0 -0.00000000000E+00  0.00000000000E+00  0.13185453239E+04  0.13185453239E+04  0.00000000000E+00 0. -1.
         21   -1    0    0  501  502  0.00000000000E+00 -0.00000000000E+00 -0.18771600289E+02  0.18771600289E+02  0.00000000000E+00 0.  1.
         24    2    1    2    0    0  0.74951924345E+01  0.39099404939E+02  0.31707448208E+03  0.32963685096E+03  0.80865845361E+02 0.  0.
         23    2    1    2    0    0  0.12383983649E+02  0.51420510832E+02  0.27821374500E+03  0.29712476108E+03  0.89904414572E+02 0.  0.
        -11    1    3    3    0    0  0.18514419850E+02  0.62007315726E+02  0.22856779523E+03  0.23755194792E+03  0.00000000000E+00 0.  1.
         12    1    3    3    0    0 -0.11019227415E+02 -0.22907910787E+02  0.88506686856E+02  0.92084903039E+02  0.00000000000E+00 0. -1.
        -13    1    4    4    0    0  0.32758421096E+02  0.67558381496E+02  0.17014929621E+03  0.18597857959E+03  0.00000000000E+00 0.  1.
         13    1    4    4    0    0 -0.20374437447E+02 -0.16137870665E+02  0.10806444878E+03  0.11114618150E+03  0.00000000000E+00 0. -1.
          1    1    1    2  501    0 -0.19879176084E+02 -0.90519915771E+02  0.70448549654E+03  0.71055531216E+03  0.00000000000E+00 0. -1.
<scales pt_clust_5="13000.00000" pt_clust_6="13000.00000" pt_clust_7="13000.00000" pt_clust_8="13000.00000" pt_clust_9="64.38823"></scales>
<clustering>
<clus scale="   80.866">  5  6 -1 -1</clus>
<clus scale="   89.904">  7  8 -1 -1</clus>
<clus scale="   90.135">  1  5  2 -1</clus>
<clus scale="   64.388">  2  9  1 -1</clus>
<clus scale="   64.388">  2  5  1 -1</clus>
</clustering>
</event>
<event>
 9    2  0.6469128E-005  0.2513222E+03  0.7546771E-02  0.1147815E+00
          2   -1    0    0  502    0 -0.00000000000E+00  0.00000000000E+00  0.10594376837E+04  0.10594376837E+04  0.00000000000E+00 0. -1.
         21   -1    0    0  501  502  0.00000000000E+00 -0.00000000000E+00 -0.87478866552E+02  0.87478866552E+02  0.00000000000E+00 0. -1.
         24    2    1    2    0    0 -0.56527511849E+02 -0.38600418794E+02  0.13437312871E+03  0.17084296715E+03  0.80285925159E+02 0.  0.
         23    2    1    2    0    0  0.25831728045E+03  0.94467954502E+02  0.52720143785E+03  0.60166915568E+03  0.91719163888E+02 0.  0.
        -11    1    3    3    0    0  0.15336034017E+02 -0.27730657068E+02  0.52875346308E+02  0.61644022646E+02  0.00000000000E+00 0.  1.
         12    1    3    3    0    0 -0.71863545866E+02 -0.10869761726E+02  0.81497782405E+02  0.10919894451E+03  0.00000000000E+00 0. -1.
        -11    1    4    4    0    0  0.24191161418E+02 -0.76606481241E+01  0.10661984977E+03  0.10959785667E+03  0.00000000000E+00 0.  1.
         11    1    4    4    0    0  0.23412611903E+03  0.10212860263E+03  0.42058158808E+03  0.49207129902E+03  0.00000000000E+00 0. -1.
          1    1    1    2  501    0 -0.20178976860E+03 -0.55867535707E+02  0.31038425059E+03  0.37440442742E+03  0.00000000000E+00 0. -1.
<scales pt_clust_5="13000.00000" pt_clust_6="13000.00000" pt_clust_7="13000.00000" pt_clust_8="13000.00000" pt_clust_9="233.98809"></scales>
<clustering>
<clus scale="   80.286">  5  6 -1 -1</clus>
<clus scale="   91.719">  7  8 -1 -1</clus>
<clus scale="  105.504">  1  5  2 -1</clus>
<clus scale="  233.988">  2  9  1 -1</clus>
<clus scale="  233.988">  2  5  1 -1</clus>
</clustering>
</event>
<event>
 9    2  0.7748582E-005  0.1146048E+03  0.7546771E-02  0.1256599E+00
         21   -1    0    0  501  502  0.00000000000E+00  0.00000000000E+00  0.12493871103E+03  0.12493871103E+03  0.00000000000E+00 0.  1.
         -1   -1    0    0    0  501 -0.00000000000E+00 -0.00000000000E+00 -0.54198502096E+03  0.54198502096E+03  0.00000000000E+00 0.  1.
         24    2    1    2    0    0  0.54191909743E+02  0.38634164489E+02 -0.36678446233E+03  0.38146337360E+03  0.80957407589E+02 0.  0.
         23    2    1    2    0    0 -0.34430130873E+02 -0.81514991344E+02  0.77073995067E+02  0.14965273695E+03  0.92873102859E+02 0.  0.
        -13    1    3    3    0    0  0.70719669104E+02  0.46513539777E+02 -0.32502669712E+03  0.33586773412E+03  0.00000000000E+00 0.  1.
         14    1    3    3    0    0 -0.16527759360E+02 -0.78793752874E+01 -0.41757765213E+02  0.45595639484E+02  0.00000000000E+00 0. -1.
        -11    1    4    4    0    0 -0.36899975046E+02 -0.79843392158E+01 -0.64993938171E+01  0.38309267170E+02  0.00000000000E+00 0. -1.
         11    1    4    4    0    0  0.24698441733E+01 -0.73530652128E+02  0.83573388884E+02  0.11134346978E+03  0.00000000000E+00 0.  1.
         -2    1    1    2    0  502 -0.19761778871E+02  0.42880826854E+02 -0.12733584266E+03  0.13580762145E+03  0.00000000000E+00 0.  1.
<scales pt_clust_5="13000.00000" pt_clust_6="13000.00000" pt_clust_7="13000.00000" pt_clust_8="13000.00000" pt_clust_9="47.21542"></scales>
<clustering>
<clus scale="   47.215">  1  9  2 -1</clus>
<clus scale="   80.957">  5  6 -1 -1</clus>
<clus scale="   92.873">  7  8 -1 -1</clus>
<clus scale="  105.181">  2  5  1 -1</clus>
<clus scale="   47.215">  1  5  2 -1</clus>
</clustering>
</event>
<event>
 9    2  0.6469128E-005  0.1020751E+03  0.7546771E-02  0.1280675E+00
          2   -1    0    0  502    0 -0.00000000000E+00  0.00000000000E+00  0.37174700524E+03  0.37174700524E+03  0.00000000000E+00 0. -1.
         21   -1    0    0  501  502  0.00000000000E+00 -0.00000000000E+00 -0.10671925103E+03  0.10671925103E+03  0.00000000000E+00 0.  1.
         23    2    1    2    0    0 -0.49545329507E+01 -0.50709379226E+02  0.32052244436E+03  0.33696572681E+03  0.90638155157E+02 0.  0.
         24    2    1    2    0    0  0.15131323078E+02  0.22497144903E+02 -0.82192804391E+01  0.85514266995E+02  0.80684910745E+02 0.  0.
        -13    1    4    4    0    0 -0.74849398462E+01  0.47120580899E+02  0.79613116347E+01  0.48371023885E+02  0.00000000000E+00 0.  1.
         14    1    4    4    0    0  0.22616262924E+02 -0.24623435996E+02 -0.16180592074E+02  0.37143243110E+02  0.00000000000E+00 0. -1.
        -13    1    3    3    0    0  0.27932809375E+02  0.88655172168E+01  0.15925173132E+03  0.16192576436E+03  0.00000000000E+00 0.  1.
         13    1    3    3    0    0 -0.32887342325E+02 -0.59574896443E+02  0.16127071304E+03  0.17503996245E+03  0.00000000000E+00 0. -1.
          1    1    1    2  501    0 -0.10176790127E+02  0.28212234323E+02 -0.47275409702E+02  0.55986262470E+02  0.00000000000E+00 0. -1.
<scales pt_clust_5="13000.00000" pt_clust_6="13000.00000" pt_clust_7="13000.00000" pt_clust_8="13000.00000" pt_clust_9="29.99162"></scales>
<clustering>
<clus scale="   29.992">  2  9  1 -1</clus>
<clus scale="   80.685">  5  6 -1 -1</clus>
<clus scale="   90.638">  7  8 -1 -1</clus>
<clus scale="   93.349">  2  5  1 -1</clus>
<clus scale="   29.992">  2  5  1 -1</clus>
</clustering>
</event>
<event>
 9    2  0.6469128E-005  0.9287912E+02  0.7546771E-02  0.1305902E+00
         -1   -1    0    0    0  501 -0.00000000000E+00  0.00000000000E+00  0.26538285110E+02  0.26538285110E+02  0.00000000000E+00 0.  1.
         21   -1    0    0  501  502  0.00000000000E+00 -0.00000000000E+00 -0.53496902954E+03  0.53496902954E+03  0.00000000000E+00 0.  1.
         24    2    1    2    0    0  0.10757514896E+01 -0.17550962460E+02 -0.80422212997E+02  0.11256740799E+03  0.76775617698E+02 0.  0.
         23    2    1    2    0    0 -0.86239570496E+01 -0.92745770514E+01 -0.21789919306E+03  0.23699057534E+03  0.92325966277E+02 0.  0.
        -13    1    3    3    0    0  0.22900141359E+02  0.19126684590E+02 -0.12501135871E+02  0.32350037647E+02  0.00000000000E+00 0.  1.
         14    1    3    3    0    0 -0.21824389869E+02 -0.36677647050E+02 -0.67921077126E+02  0.80217370340E+02  0.00000000000E+00 0. -1.
        -13    1    4    4    0    0 -0.34171216987E+02 -0.29735695299E+02 -0.57056901578E+02  0.72851723817E+02  0.00000000000E+00 0.  1.
         13    1    4    4    0    0  0.25547259938E+02  0.20461118248E+02 -0.16084229148E+03  0.16413885152E+03  0.00000000000E+00 0. -1.
         -2    1    1    2    0  502  0.75482055600E+01  0.26825539511E+02 -0.21010933837E+03  0.21194933133E+03  0.00000000000E+00 0.  1.
<scales pt_clust_5="13000.00000" pt_clust_6="13000.00000" pt_clust_7="13000.00000" pt_clust_8="13000.00000" pt_clust_9="27.86727"></scales>
<clustering>
<clus scale="   27.867">  2  9  1 -1</clus>
<clus scale="   76.776">  5  6 -1 -1</clus>
<clus scale="   77.440">  1  5  2 -1</clus>
<clus scale="   92.326">  7  8 -1 -1</clus>
<clus scale="   27.867">  2  5  1 -1</clus>
</clustering>
</event>
<event>
 9    2  0.6469128E-005  0.1026046E+03  0.7546771E-02  0.1279994E+00
          2   -1    0    0  502    0 -0.00000000000E+00  0.00000000000E+00  0.17192023620E+03  0.17192023620E+03  0.00000000000E+00 0. -1.
         21   -1    0    0  501  502  0.00000000000E+00 -0.00000000000E+00 -0.14388280646E+03  0.14388280646E+03  0.00000000000E+00 0.  1.
         24    2    1    2    0    0 -0.29782624107E+02  0.43558320421E+02  0.85182777231E+02  0.12783480921E+03  0.79380734012E+02 0.  0.
         23    2    1    2    0    0 -0.75815984941E+01 -0.36083953173E+02 -0.93622138369E+02  0.13521875412E+03  0.90329808816E+02 0.  0.
        -13    1    3    3    0    0 -0.33997765856E+02 -0.73609531187E+01  0.87021292207E+01  0.35857478536E+02  0.00000000000E+00 0.  1.
         14    1    3    3    0    0  0.42151417487E+01  0.50919273540E+02  0.76480648011E+02  0.91977330674E+02  0.00000000000E+00 0. -1.
        -11    1    4    4    0    0  0.20271598204E+02 -0.97146689316E+01 -0.94214140595E+02  0.96858746503E+02  0.00000000000E+00 0.  1.
         11    1    4    4    0    0 -0.27853196699E+02 -0.26369284241E+02  0.59200222591E+00  0.38360007617E+02  0.00000000000E+00 0. -1.
          1    1    1    2  501    0  0.37364222601E+02 -0.74743672482E+01  0.36476790883E+02  0.52749479329E+02  0.00000000000E+00 0. -1.
<scales pt_clust_5="13000.00000" pt_clust_6="13000.00000" pt_clust_7="13000.00000" pt_clust_8="13000.00000" pt_clust_9="38.10450"></scales>
<clustering>
<clus scale="   38.104">  2  9  1 -1</clus>
<clus scale="   79.381">  5  6 -1 -1</clus>
<clus scale="   90.330">  7  8 -1 -1</clus>
<clus scale="   93.110">  1  5  2 -1</clus>
<clus scale="   38.104">  2  5  1 -1</clus>
</clustering>
</event>
<event>
 9    2  0.6469128E-005  0.1041371E+03  0.7546771E-02  0.1276186E+00
          2   -1    0    0  502    0 -0.00000000000E+00  0.00000000000E+00  0.16747383474E+04  0.16747383474E+04  0.00000000000E+00 0. -1.
         21   -1    0    0  501  502  0.00000000000E+00 -0.00000000000E+00 -0.28029480603E+02  0.28029480603E+02  0.00000000000E+00 0. -1.
         24    2    1    2    0    0  0.56464575292E+02 -0.37279599215E+02  0.12703464280E+04  0.12747110062E+04  0.80808943375E+02 0.  0.
         23    2    1    2    0    0 -0.35040999813E+01 -0.40835818922E+02  0.25921839245E+03  0.27762558142E+03  0.90564593793E+02 0.  0.
        -11    1    3    3    0    0  0.26418562685E+02 -0.11775472005E+02  0.11136955215E+03  0.11506424006E+03  0.00000000000E+00 0.  1.
         12    1    3    3    0    0  0.30046012607E+02 -0.25504127210E+02  0.11589768759E+04  0.11596467661E+04  0.00000000000E+00 0. -1.
        -11    1    4    4    0    0 -0.36759929401E+02 -0.46995665485E+02  0.11572829451E+03  0.13020339141E+03  0.00000000000E+00 0. -1.
         11    1    4    4    0    0  0.33255829420E+02  0.61598465629E+01  0.14349009794E+03  0.14742219001E+03  0.00000000000E+00 0.  1.
          1    1    1    2  501    0 -0.52960475311E+02  0.78115418138E+02  0.11714404629E+03  0.15043124036E+03  0.00000000000E+00 0. -1.
<scales pt_clust_5="13000.00000" pt_clust_6="13000.00000" pt_clust_7="13000.00000" pt_clust_8="13000.00000" pt_clust_9="94.37601"></scales>
<clustering>
<clus scale="   80.809">  5  6 -1 -1</clus>
<clus scale="   90.565">  7  8 -1 -1</clus>
<clus scale="   94.376">  2  9  1 -1</clus>
<clus scale="   95.774">  1  5  2 -1</clus>
<clus scale="   94.376">  2  5  1 -1</clus>
</clustering>
</event>
<event>
 9    2  0.6469128E-005  0.9422039E+02  0.7546771E-02  0.1300548E+00
          2   -1    0    0  502    0 -0.00000000000E+00  0.00000000000E+00  0.49596452869E+03  0.49596452869E+03  0.00000000000E+00 0. -1.
         21   -1    0    0  501  502  0.00000000000E+00 -0.00000000000E+00 -0.23351084291E+02  0.23351084291E+02  0.00000000000E+00 0. -1.
         23    2    1    2    0    0  0.17710062606E+01 -0.36068488054E+00  0.19882914494E+03  0.21930164599E+03  0.92503602650E+02 0.  0.
         24    2    1    2    0    0 -0.33458476687E+02  0.89641213290E+01  0.16738054927E+03  0.18865925018E+03  0.79851357344E+02 0.  0.
        -13    1    4    4    0    0 -0.10659184518E+02 -0.35418235286E+02  0.65695937415E+02  0.75392478393E+02  0.00000000000E+00 0.  1.
         14    1    4    4    0    0 -0.22799292170E+02  0.44382356615E+02  0.10168461186E+03  0.11326677179E+03  0.00000000000E+00 0. -1.
        -11    1    3    3    0    0  0.34869756883E+02  0.23728598806E+02  0.52443959586E+02  0.67300187544E+02  0.00000000000E+00 0.  1.
         11    1    3    3    0    0 -0.33098750623E+02 -0.24089283686E+02  0.14638518535E+03  0.15200145845E+03  0.00000000000E+00 0. -1.
          1    1    1    2  501    0  0.31687470427E+02 -0.86034364485E+01  0.10640375019E+03  0.11135471681E+03  0.00000000000E+00 0. -1.
<scales pt_clust_5="13000.00000" pt_clust_6="13000.00000" pt_clust_7="13000.00000" pt_clust_8="13000.00000" pt_clust_9="32.83468"></scales>
<clustering>
<clus scale="   32.835">  2  9  1 -1</clus>
<clus scale="   79.851">  5  6 -1 -1</clus>
<clus scale="   81.834">  2  5  1 -1</clus>
<clus scale="   92.504">  7  8 -1 -1</clus>
<clus scale="   32.835">  2  5  1 -1</clus>
</clustering>
</event>
<event>
 9    2  0.6469128E-005  0.1189480E+03  0.7546771E-02  0.1247981E+00
          4   -1    0    0  502    0 -0.00000000000E+00  0.00000000000E+00  0.33608425880E+03  0.33608425880E+03  0.00000000000E+00 0. -1.
         21   -1    0    0  501  502  0.00000000000E+00 -0.00000000000E+00 -0.56656360077E+02  0.56656360077E+02  0.00000000000E+00 0. -1.
         23    2    1    2    0    0  0.68777166550E+02 -0.96893320907E+01  0.19004441758E+03  0.22186403117E+03  0.91008713201E+02 0.  0.
         24    2    1    2    0    0 -0.89684703714E+02  0.18815788843E+02  0.79429996779E+02  0.14598704826E+03  0.81275542944E+02 0.  0.
        -13    1    4    4    0    0 -0.75918416491E+00 -0.22143012787E+02  0.27001155243E+02  0.34927807837E+02  0.00000000000E+00 0.  1.
         14    1    4    4    0    0 -0.88925519549E+02  0.40958801630E+02  0.52428841536E+02  0.11105924042E+03  0.00000000000E+00 0. -1.
        -11    1    3    3    0    0 -0.42118336544E+01  0.30746184004E+02  0.50203617530E+02  0.59020933461E+02  0.00000000000E+00 0.  1.
         11    1    3    3    0    0  0.72989000205E+02 -0.40435516094E+02  0.13984080005E+03  0.16284309771E+03  0.00000000000E+00 0. -1.
          3    1    1    2  501    0  0.20907537163E+02 -0.91264567520E+01  0.99534843654E+01  0.24889539451E+02  0.00000000000E+00 0. -1.
<scales pt_clust_5="13000.00000" pt_clust_6="13000.00000" pt_clust_7="13000.00000" pt_clust_8="13000.00000" pt_clust_9="22.81266"></scales>
<clustering>
<clus scale="   22.813">  2  9  1 -1</clus>
<clus scale="   81.276">  5  6 -1 -1</clus>
<clus scale="   91.009">  7  8 -1 -1</clus>
<clus scale="  111.677">  2  5  1 -1</clus>
<clus scale="   22.813">  2  5  1 -1</clus>
</clustering>
</event>
<event>
 9    2  0.6469128E-005  0.8952734E+02  0.7546771E-02  0.1308879E+00
         21   -1    0    0  501  502  0.00000000000E+00  0.00000000000E+00  0.10852009923E+03  0.10852009923E+03  0.00000000000E+00 0.  1.
          2   -1    0    0  502    0 -0.00000000000E+00 -0.00000000000E+00 -0.21040512594E+03  0.21040512594E+03  0.00000000000E+00 0. -1.
         24    2    1    2    0    0 -0.99617151085E+01  0.28151586201E+00 -0.14364034336E+03  0.16508080882E+03  0.80745341543E+02 0.  0.
         23    2    1    2    0    0  0.22000546976E+02 -0.42951300813E+02  0.14535931638E+02  0.10182000919E+03  0.88471366299E+02 0.  0.
        -13    1    3    3    0    0 -0.44502835026E+02  0.96624043766E+01 -0.78351063867E+02  0.90624243957E+02  0.00000000000E+00 0.  1.
         14    1    3    3    0    0  0.34541119917E+02 -0.93808885146E+01 -0.65289279492E+02  0.74456564862E+02  0.00000000000E+00 0. -1.
        -13    1    4    4    0    0  0.41629840671E+02 -0.51846996622E+02  0.32271621289E+02  0.73909486764E+02  0.00000000000E+00 0.  1.
         13    1    4    4    0    0 -0.19629293695E+02  0.88956958092E+01 -0.17735689651E+02  0.27910522430E+02  0.00000000000E+00 0. -1.
          1    1    1    2  501    0 -0.12038831868E+02  0.42669784951E+02  0.27219385005E+02  0.52024407162E+02  0.00000000000E+00 0. -1.
<scales pt_clust_5="13000.00000" pt_clust_6="13000.00000" pt_clust_7="13000.00000" pt_clust_8="13000.00000" pt_clust_9="44.33558"></scales>
<clustering>
<clus scale="   44.336">  1  9  2 -1</clus>
<clus scale="   80.745">  5  6 -1 -1</clus>
<clus scale="   81.901">  2  5  1 -1</clus>
<clus scale="   88.471">  7  8 -1 -1</clus>
<clus scale="   44.336">  1  5  2 -1</clus>
</clustering>
</event>
<event>
 9    2  0.6469128E-005  0.9459907E+02  0.7546771E-02  0.1299057E+00
         21   -1    0    0  501  502  0.00000000000E+00  0.00000000000E+00  0.81135463763E+02  0.81135463763E+02  0.00000000000E+00 0. -1.
          2   -1    0    0  502    0 -0.00000000000E+00 -0.00000000000E+00 -0.39374070825E+03  0.39374070825E+03  0.00000000000E+00 0. -1.
         24    2    1    2    0    0  0.67865208899E+01  0.28875452174E+02 -0.29326036000E+03  0.30528221507E+03  0.79471652078E+02 0.  0.
         23    2    1    2    0    0 -0.37987838032E+02  0.28125142294E+02 -0.18745117859E+02  0.10460973055E+03  0.91420549188E+02 0.  0.
        -13    1    3    3    0    0 -0.10114651018E+02  0.31082544418E+02 -0.40946014954E+02  0.52392813184E+02  0.00000000000E+00 0.  1.
         14    1    3    3    0    0  0.16901171908E+02 -0.22070922438E+01 -0.25231434505E+03  0.25288940189E+03  0.00000000000E+00 0. -1.
        -11    1    4    4    0    0  0.15050274227E+02 -0.23474060963E+02 -0.11831514097E+02  0.30290708447E+02  0.00000000000E+00 0.  1.
         11    1    4    4    0    0 -0.53038112259E+02  0.51599203256E+02 -0.69136037619E+01  0.74319022099E+02  0.00000000000E+00 0. -1.
          1    1    1    2  501    0  0.31201317142E+02 -0.57000594468E+02 -0.59976662788E+00  0.64984226402E+02  0.00000000000E+00 0. -1.
<scales pt_clust_5="13000.00000" pt_clust_6="13000.00000" pt_clust_7="13000.00000" pt_clust_8="13000.00000" pt_clust_9="64.98146"></scales>
<clustering>
<clus scale="   64.981">  1  9  2 -1</clus>
<clus scale="   79.472">  5  6 -1 -1</clus>
<clus scale="   83.108">  2  5  1 -1</clus>
<clus scale="   91.421">  7  8 -1 -1</clus>
<clus scale="   64.981">  1  5  2 -1</clus>
</clustering>
</event>
<event>
 9    2  0.6469128E-005  0.9907879E+02  0.7546771E-02  0.1289008E+00
          2   -1    0    0  502    0 -0.00000000000E+00  0.00000000000E+00  0.24529979298E+03  0.24529979298E+03  0.00000000000E+00 0. -1.
         21   -1    0    0  501  502  0.00000000000E+00 -0.00000000000E+00 -0.51402340010E+02  0.51402340010E+02  0.00000000000E+00 0.  1.
         24    2    1    2    0    0 -0.23367137599E+02  0.28365065788E+02  0.87202073900E+02  0.12510453610E+03  0.81831187106E+02 0.  0.
         23    2    1    2    0    0  0.31459026189E+02  0.45222908713E+01  0.88100480320E+02  0.13296047551E+03  0.94375166077E+02 0.  0.
        -11    1    3    3    0    0  0.24380866377E+02 -0.11586711837E+02  0.20774437252E+02  0.34062527499E+02  0.00000000000E+00 0.  1.
         12    1    3    3    0    0 -0.47748003976E+02  0.39951777625E+02  0.66427636648E+02  0.91042008599E+02  0.00000000000E+00 0. -1.
        -13    1    4    4    0    0  0.40016303135E+02  0.41907191605E+02  0.35821706841E+02  0.68122770832E+02  0.00000000000E+00 0.  1.
         13    1    4    4    0    0 -0.85572769458E+01 -0.37384900734E+02  0.52278773479E+02  0.64837704679E+02  0.00000000000E+00 0. -1.
          1    1    1    2  501    0 -0.80918885903E+01 -0.32887356660E+02  0.18594898749E+02  0.38637121380E+02  0.00000000000E+00 0. -1.
<scales pt_clust_5="13000.00000" pt_clust_6="13000.00000" pt_clust_7="13000.00000" pt_clust_8="13000.00000" pt_clust_9="33.86823"></scales>
<clustering>
<clus scale="   33.868">  2  9  1 -1</clus>
<clus scale="   81.831">  5  6 -1 -1</clus>
<clus scale="   87.214">  1  5  2 -1</clus>
<clus scale="   94.375">  7  8 -1 -1</clus>
<clus scale="   33.868">  2  5  1 -1</clus>
</clustering>
</event>
<event>
 9    2  0.6469128E-005  0.1077538E+03  0.7546771E-02  0.1271126E+00
         21   -1    0    0  501  502  0.00000000000E+00  0.00000000000E+00  0.93881695136E+02  0.93881695136E+02  0.00000000000E+00 0. -1.
          2   -1    0    0  502    0 -0.00000000000E+00 -0.00000000000E+00 -0.19300768115E+03  0.19300768115E+03  0.00000000000E+00 0. -1.
         24    2    1    2    0    0 -0.54311923968E+02  0.34104899591E+00 -0.43956472569E+02  0.10338903865E+03  0.76205120775E+02 0.  0.
         23    2    1    2    0    0  0.50489193984E+02 -0.55867140742E+02 -0.28308291490E+02  0.12169997053E+03  0.91319369997E+02 0.  0.
        -11    1    3    3    0    0 -0.64507781695E+02 -0.20220682431E+02 -0.43585481128E+02  0.80435216555E+02  0.00000000000E+00 0.  1.
         12    1    3    3    0    0  0.10195857726E+02  0.20561731427E+02 -0.37099144052E+00  0.22953822093E+02  0.00000000000E+00 0. -1.
        -13    1    4    4    0    0 -0.33586154575E+01  0.22347501859E+02 -0.11166060930E+02  0.25206587509E+02  0.00000000000E+00 0.  1.
         13    1    4    4    0    0  0.53847809441E+02 -0.78214642601E+02 -0.17142230560E+02  0.96493383024E+02  0.00000000000E+00 0. -1.
          1    1    1    2  501    0  0.38227299849E+01  0.55526091746E+02 -0.26861221951E+02  0.61800367101E+02  0.00000000000E+00 0. -1.
<scales pt_clust_5="13000.00000" pt_clust_6="13000.00000" pt_clust_7="13000.00000" pt_clust_8="13000.00000" pt_clust_9="55.65755"></scales>
<clustering>
<clus scale="   55.658">  1  9  2 -1</clus>
<clus scale="   76.205">  5  6 -1 -1</clus>
<clus scale="   91.319">  7  8 -1 -1</clus>
<clus scale="   95.283">  2  5  1 -1</clus>
<clus scale="   55.658">  1  5  2 -1</clus>
</clustering>
</event>
<event>
 9    2  0.6469128E-005  0.3271668E+03  0.7546771E-02  0.1072827E+00
         -1   -1    0    0    0  501 -0.00000000000E+00  0.00000000000E+00  0.12274292317E+03  0.12274292317E+03  0.00000000000E+00 0.  1.
         21   -1    0    0  501  502  0.00000000000E+00 -0.00000000000E+00 -0.15029213692E+04  0.15029213692E+04  0.00000000000E+00 0.  1.
         23    2    1    2    0    0  0.28689213409E+03  0.21407913227E+03 -0.27943532428E+03  0.46368391841E+03  0.93710747825E+02 0.  0.
         24    2    1    2    0    0 -0.18591978661E+03 -0.12672315719E+03 -0.72061560098E+03  0.75908657483E+03  0.79376684758E+02 0.  0.
        -11    1    4    4    0    0 -0.10404388612E+03 -0.25779420801E+02 -0.36735864910E+03  0.38267752199E+03  0.00000000000E+00 0.  1.
         12    1    4    4    0    0 -0.81875900491E+02 -0.10094373639E+03 -0.35325695189E+03  0.37640905283E+03  0.00000000000E+00 0. -1.
        -11    1    3    3    0    0  0.80413486317E+02  0.52612634266E+02 -0.13096783061E+03  0.16244072987E+03  0.00000000000E+00 0. -1.
         11    1    3    3    0    0  0.20647864777E+03  0.16146649801E+03 -0.14846749368E+03  0.30124318854E+03  0.00000000000E+00 0.  1.
         -2    1    1    2    0  502 -0.10097234748E+03 -0.87355975082E+02 -0.38012752072E+03  0.40289379909E+03  0.00000000000E+00 0.  1.
<scales pt_clust_5="13000.00000" pt_clust_6="13000.00000" pt_clust_7="13000.00000" pt_clust_8="13000.00000" pt_clust_9="133.51585"></scales>
<clustering>
<clus scale="   79.377">  5  6 -1 -1</clus>
<clus scale="   93.711">  7  8 -1 -1</clus>
<clus scale="  133.516">  2  9  1 -1</clus>
<clus scale="  323.353">  2  5  1 -1</clus>
<clus scale="  133.516">  2  5  1 -1</clus>
</clustering>
</event>
<event>
 9    2  0.6469128E-005  0.9320585E+02  0.7546771E-02  0.1301143E+00
         21   -1    0    0  501  502  0.00000000000E+00  0.00000000000E+00  0.11157002876E+03  0.11157002876E+03  0.00000000000E+00 0. -1.
         -1   -1    0    0    0  501 -0.00000000000E+00 -0.00000000000E+00 -0.17010230157E+03  0.17010230157E+03  0.00000000000E+00 0.  1.
         24    2    1    2    0    0  0.13465469477E+02  0.51542325394E+00 -0.24919492859E+02  0.85262694036E+02  0.80418662888E+02 0.  0.
         23    2    1    2    0    0  0.37614325375E+02  0.59516848715E+02 -0.16158715969E+02  0.11567758894E+03  0.90349918250E+02 0.  0.
        -13    1    3    3    0    0  0.22364904519E+02  0.24899569722E+02 -0.42362853810E+02  0.53988785033E+02  0.00000000000E+00 0.  1.
         14    1    3    3    0    0 -0.88994350425E+01 -0.24384146468E+02  0.17443360951E+02  0.31273909003E+02  0.00000000000E+00 0. -1.
        -13    1    4    4    0    0 -0.23309850738E+02 -0.65633674207E+01 -0.76511530800E+01  0.25396202015E+02  0.00000000000E+00 0.  1.
         13    1    4    4    0    0  0.60924176113E+02  0.66080216136E+02 -0.85075628889E+01  0.90281386930E+02  0.00000000000E+00 0. -1.
         -2    1    1    2    0  502 -0.51079794851E+02 -0.60032271969E+02 -0.17454063974E+02  0.80732047348E+02  0.00000000000E+00 0.  1.
<scales pt_clust_5="13000.00000" pt_clust_6="13000.00000" pt_clust_7="13000.00000" pt_clust_8="13000.00000" pt_clust_9="78.82275"></scales>
<clustering>
<clus scale="   78.823">  1  9  2 -1</clus>
<clus scale="   80.419">  5  6 -1 -1</clus>
<clus scale="   83.614">  2  5  1 -1</clus>
<clus scale="   90.350">  7  8 -1 -1</clus>
<clus scale="   78.823">  1  5  2 -1</clus>
</clustering>
</event>
<event>
 9    2  0.6469128E-005  0.9645248E+02  0.7546771E-02  0.1294624E+00
          2   -1    0    0  502    0 -0.00000000000E+00  0.00000000000E+00  0.74745968986E+03  0.74745968986E+03  0.00000000000E+00 0. -1.
         21   -1    0    0  501  502  0.00000000000E+00 -0.00000000000E+00 -0.58651670109E+02  0.58651670109E+02  0.00000000000E+00 0.  1.
         24    2    1    2    0    0  0.18523075388E+02  0.22260423986E+02  0.64989915899E+03  0.65551334777E+03  0.80561786606E+02 0.  0.
         23    2    1    2    0    0  0.18939392205E+01 -0.17823458180E+01 -0.10770191193E+02  0.93115716013E+02  0.92454182100E+02 0.  0.
        -13    1    3    3    0    0  0.29487596804E+02 -0.15512171467E+02  0.13263355238E+03  0.13675454306E+03  0.00000000000E+00 0.  1.
         14    1    3    3    0    0 -0.10964521416E+02  0.37772595454E+02  0.51726560660E+03  0.51875880472E+03  0.00000000000E+00 0. -1.
        -13    1    4    4    0    0  0.19956580091E+02  0.12665952941E+02 -0.45566949599E+02  0.51332624602E+02  0.00000000000E+00 0.  1.
         13    1    4    4    0    0 -0.18062640870E+02 -0.14448298759E+02  0.34796758406E+02  0.41783091410E+02  0.00000000000E+00 0. -1.
          1    1    1    2  501    0 -0.20417014608E+02 -0.20478078168E+02  0.49679051958E+02  0.57482296182E+02  0.00000000000E+00 0. -1.
<scales pt_clust_5="13000.00000" pt_clust_6="13000.00000" pt_clust_7="13000.00000" pt_clust_8="13000.00000" pt_clust_9="28.91724"></scales>
<clustering>
<clus scale="   28.917">  2  9  1 -1</clus>
<clus scale="   80.562">  5  6 -1 -1</clus>
<clus scale="   85.121">  1  5  2 -1</clus>
<clus scale="   92.454">  7  8 -1 -1</clus>
<clus scale="   28.917">  2  5  1 -1</clus>
</clustering>
</event>
<event>
 9    2  0.6469128E-005  0.1000778E+03  0.7546771E-02  0.1285048E+00
         21   -1    0    0  501  502  0.00000000000E+00  0.00000000000E+00  0.70684556097E+02  0.70684556097E+02  0.00000000000E+00 0. -1.
          2   -1    0    0  502    0 -0.00000000000E+00 -0.00000000000E+00 -0.23000565478E+03  0.23000565478E+03  0.00000000000E+00 0. -1.
         23    2    1    2    0    0 -0.20233988153E+02  0.30064764914E+02 -0.80949960286E+02  0.13004565933E+03  0.95108743422E+02 0.  0.
         24    2    1    2    0    0  0.41221903127E+02  0.14511567215E+02 -0.28001016013E+02  0.10018398676E+03  0.85690976329E+02 0.  0.
        -11    1    4    4    0    0 -0.24942946719E+02 -0.44043721409E+00  0.38550714148E+01  0.25242942610E+02  0.00000000000E+00 0.  1.
         12    1    4    4    0    0  0.66164849847E+02  0.14952004429E+02 -0.31856087427E+02  0.74941044147E+02  0.00000000000E+00 0. -1.
        -11    1    3    3    0    0 -0.44292452897E+02  0.52433333978E+02 -0.50064638575E+02  0.84956129451E+02  0.00000000000E+00 0.  1.
         11    1    3    3    0    0  0.24058464744E+02 -0.22368569064E+02 -0.30885321711E+02  0.45089529882E+02  0.00000000000E+00 0. -1.
          1    1    1    2  501    0 -0.20987914974E+02 -0.44576332129E+02 -0.50370122383E+02  0.70460564786E+02  0.00000000000E+00 0. -1.
<scales pt_clust_5="13000.00000" pt_clust_6="13000.00000" pt_clust_7="13000.00000" pt_clust_8="13000.00000" pt_clust_9="49.27012"></scales>
<clustering>
<clus scale="   49.270">  1  9  2 -1</clus>
<clus scale="   85.691">  5  6 -1 -1</clus>
<clus scale="   91.175">  1  5  2 -1</clus>
<clus scale="   95.109">  7  8 -1 -1</clus>
<clus scale="   49.270">  1  5  2 -1</clus>
</clustering>
</event>
<event>
 9    2  0.6469128E-005  0.1205732E+03  0.7546771E-02  0.1245908E+00
          2   -1    0    0  502    0 -0.00000000000E+00  0.00000000000E+00  0.23548842807E+03  0.23548842807E+03  0.00000000000E+00 0. -1.
         21   -1    0    0  501  502  0.00000000000E+00 -0.00000000000E+00 -0.13085818326E+03  0.13085818326E+03  0.00000000000E+00 0.  1.
         24    2    1    2    0    0  0.44662000282E+02  0.57129911791E+02  0.12901043747E+03  0.16876343847E+03  0.81110320528E+02 0.  0.
         23    2    1    2    0    0 -0.63898289439E+02 -0.77547987277E+02 -0.62367329635E+02  0.15036077137E+03  0.92854703912E+02 0.  0.
        -11    1    3    3    0    0  0.28531654917E+02  0.12692365374E+02 -0.14520973703E+00  0.31227752992E+02  0.00000000000E+00 0.  1.
         12    1    3    3    0    0  0.16130345365E+02  0.44437546417E+02  0.12915564721E+03  0.13753568547E+03  0.00000000000E+00 0. -1.
        -11    1    4    4    0    0 -0.23547615438E+02  0.12389674067E+02 -0.41976386743E+02  0.49699207844E+02  0.00000000000E+00 0. -1.
         11    1    4    4    0    0 -0.40350674001E+02 -0.89937661345E+02 -0.20390942893E+02  0.10066156353E+03  0.00000000000E+00 0.  1.
          1    1    1    2  501    0  0.19236289157E+02  0.20418075486E+02  0.37987136971E+02  0.47222401489E+02  0.00000000000E+00 0. -1.
<scales pt_clust_5="13000.00000" pt_clust_6="13000.00000" pt_clust_7="13000.00000" pt_clust_8="13000.00000" pt_clust_9="28.05233"></scales>
<clustering>
<clus scale="   28.052">  2  9  1 -1</clus>
<clus scale="   81.110">  5  6 -1 -1</clus>
<clus scale="   92.855">  7  8 -1 -1</clus>
<clus scale="  111.780">  1  5  2 -1</clus>
<clus scale="   28.052">  2  5  1 -1</clus>
</clustering>
</event>
<event>
 9    2  0.6469128E-005  0.9433251E+02  0.7546771E-02  0.1296672E+00
          2   -1    0    0  502    0 -0.00000000000E+00  0.00000000000E+00  0.47098342978E+03  0.47098342978E+03  0.00000000000E+00 0. -1.
         21   -1    0    0  501  502  0.00000000000E+00 -0.00000000000E+00 -0.82671723603E+02  0.82671723603E+02  0.00000000000E+00 0.  1.
         24    2    1    2    0    0  0.44520801215E+02 -0.17273390699E+02  0.42080578898E+03  0.43140942382E+03  0.82195542203E+02 0.  0.
         23    2    1    2    0    0 -0.17507563781E+02  0.35980771268E+02 -0.28586270267E+02  0.89155669369E+02  0.74366846392E+02 0.  0.
        -11    1    3    3    0    0  0.41176231213E+02 -0.39087800190E+02  0.16192707440E+03  0.17159171182E+03  0.00000000000E+00 0.  1.
         12    1    3    3    0    0  0.33445700021E+01  0.21814409492E+02  0.25887871458E+03  0.25981771200E+03  0.00000000000E+00 0. -1.
        -11    1    4    4    0    0 -0.39683037376E+02  0.40975693899E+02 -0.64129267199E+01  0.57401015453E+02  0.00000000000E+00 0.  1.
         11    1    4    4    0    0  0.22175473595E+02 -0.49949226315E+01 -0.22173343547E+02  0.31754653916E+02  0.00000000000E+00 0. -1.
          1    1    1    2  501    0 -0.27013237434E+02 -0.18707380569E+02 -0.39078125381E+01  0.33090060188E+02  0.00000000000E+00 0. -1.
<scales pt_clust_5="13000.00000" pt_clust_6="13000.00000" pt_clust_7="13000.00000" pt_clust_8="13000.00000" pt_clust_9="32.85850"></scales>
<clustering>
<clus scale="   32.859">  2  9  1 -1</clus>
<clus scale="   74.367">  7  8 -1 -1</clus>
<clus scale="   82.196">  5  6 -1 -1</clus>
<clus scale="   87.595">  2  7  1 -1</clus>
<clus scale="   32.859">  2  5  1 -1</clus>
</clustering>
</event>
<event>
 9    2  0.6469128E-005  0.2196515E+03  0.7546771E-02  0.1166459E+00
         21   -1    0    0  501  502  0.00000000000E+00  0.00000000000E+00  0.10295312190E+03  0.10295312190E+03  0.00000000000E+00 0.  1.
         -3   -1    0    0    0  501 -0.00000000000E+00 -0.00000000000E+00 -0.79290038962E+03  0.79290038962E+03  0.00000000000E+00 0.  1.
         24    2    1    2    0    0 -0.66917167429E+02 -0.38169577804E+02 -0.28965866633E+03  0.30714818399E+03  0.67104694195E+02 0.  0.
         23    2    1    2    0    0 -0.10457405293E+03  0.16507982234E+03 -0.16759599493E+03  0.27301355075E+03  0.90889499303E+02 0.  0.
        -13    1    3    3    0    0 -0.69005621509E+02 -0.47362630863E+02 -0.28417096049E+03  0.29623998614E+03  0.00000000000E+00 0.  1.
         14    1    3    3    0    0  0.20884540800E+01  0.91930530587E+01 -0.54877058382E+01  0.10908197851E+02  0.00000000000E+00 0. -1.
        -11    1    4    4    0    0 -0.91509766036E+02  0.13176805021E+03 -0.81849266798E+02  0.18010041314E+03  0.00000000000E+00 0.  1.
         11    1    4    4    0    0 -0.13064286891E+02  0.33311772129E+02 -0.85746728136E+02  0.92913137609E+02  0.00000000000E+00 0. -1.
         -4    1    1    2    0  502  0.17149122036E+03 -0.12691024454E+03 -0.23269260645E+03  0.31569177678E+03  0.00000000000E+00 0.  1.
<scales pt_clust_5="13000.00000" pt_clust_6="13000.00000" pt_clust_7="13000.00000" pt_clust_8="13000.00000" pt_clust_9="199.96479"></scales>
<clustering>
<clus scale="   67.105">  5  6 -1 -1</clus>
<clus scale="   90.889">  7  8 -1 -1</clus>
<clus scale="  102.166">  2  5  1 -1</clus>
<clus scale="  199.965">  1  9  2 -1</clus>
<clus scale="  199.965">  1  5  2 -1</clus>
</clustering>
</event>
<event>
 9    2  0.6469128E-005  0.9668396E+02  0.7546771E-02  0.1289356E+00
         -1   -1    0    0    0  501 -0.00000000000E+00  0.00000000000E+00  0.29578071416E+03  0.29578071416E+03  0.00000000000E+00 0.  1.
         21   -1    0    0  501  502  0.00000000000E+00 -0.00000000000E+00 -0.96507712780E+02  0.96507712780E+02  0.00000000000E+00 0.  1.
         24    2    1    2    0    0  0.15022860533E+01  0.33306391574E+02  0.23194998848E+03  0.25070475693E+03  0.89109513571E+02 0.  0.
         23    2    1    2    0    0 -0.12377006646E+02  0.86344891582E+01 -0.16647038042E+02  0.95385658240E+02  0.92701430549E+02 0.  0.
        -13    1    3    3    0    0 -0.18372418932E+02  0.59006066311E+02  0.13544084733E+03  0.14887405672E+03  0.00000000000E+00 0.  1.
         14    1    3    3    0    0  0.19874704985E+02 -0.25699674737E+02  0.96509141153E+02  0.10183070021E+03  0.00000000000E+00 0. -1.
        -11    1    4    4    0    0  0.28412910690E+02 -0.26527079906E+02 -0.14506784390E+02  0.41490074181E+02  0.00000000000E+00 0. -1.
         11    1    4    4    0    0 -0.40789917337E+02  0.35161569064E+02 -0.21402536520E+01  0.53895584059E+02  0.00000000000E+00 0.  1.
         -2    1    1    2    0  502  0.10874720593E+02 -0.41940880732E+02 -0.16029949059E+02  0.46198011769E+02  0.00000000000E+00 0.  1.
<scales pt_clust_5="13000.00000" pt_clust_6="13000.00000" pt_clust_7="13000.00000" pt_clust_8="13000.00000" pt_clust_9="43.32779"></scales>
<clustering>
<clus scale="   43.328">  2  9  1 -1</clus>
<clus scale="   89.110">  5  6 -1 -1</clus>
<clus scale="   92.701">  7  8 -1 -1</clus>
<clus scale="   93.246">  1  5  2 -1</clus>
<clus scale="   43.328">  2  5  1 -1</clus>
</clustering>
</event>
<event>
 9    2  0.6469128E-005  0.1203964E+03  0.7546771E-02  0.1246525E+00
          2   -1    0    0  502    0 -0.00000000000E+00  0.00000000000E+00  0.66276675877E+02  0.66276675877E+02  0.00000000000E+00 0. -1.
         21   -1    0    0  501  502  0.00000000000E+00 -0.00000000000E+00 -0.36659741696E+03  0.36659741696E+03  0.00000000000E+00 0.  1.
         24    2    1    2    0    0 -0.30446076538E+02 -0.54617221240E+02 -0.51808415083E+02  0.11430865006E+03  0.80450924007E+02 0.  0.
         23    2    1    2    0    0  0.52853006583E+02  0.85299411741E+02 -0.11203089720E+03  0.17689452926E+03  0.93119936676E+02 0.  0.
        -13    1    3    3    0    0  0.19410044080E+02  0.87101078370E+01 -0.11778477914E+02  0.24317654733E+02  0.00000000000E+00 0.  1.
         14    1    3    3    0    0 -0.49856120618E+02 -0.63327329077E+02 -0.40029937168E+02  0.89990995331E+02  0.00000000000E+00 0. -1.
        -11    1    4    4    0    0  0.59412792366E+02  0.15720545807E+02 -0.77591969574E+02  0.98982469153E+02  0.00000000000E+00 0.  1.
         11    1    4    4    0    0 -0.65597857831E+01  0.69578865934E+02 -0.34438927625E+02  0.77912060107E+02  0.00000000000E+00 0. -1.
          1    1    1    2  501    0 -0.22406930045E+02 -0.30682190502E+02 -0.13648142880E+03  0.14167091352E+03  0.00000000000E+00 0. -1.
<scales pt_clust_5="13000.00000" pt_clust_6="13000.00000" pt_clust_7="13000.00000" pt_clust_8="13000.00000" pt_clust_9="37.99299"></scales>
<clustering>
<clus scale="   37.993">  2  9  1 -1</clus>
<clus scale="   80.451">  5  6 -1 -1</clus>
<clus scale="   93.120">  7  8 -1 -1</clus>
<clus scale="  110.889">  1  5  2 -1</clus>
<clus scale="   37.993">  2  5  1 -1</clus>
</clustering>
</event>
<event>
 9    2  0.6469128E-005  0.1510598E+03  0.7546771E-02  0.1201029E+00
         21   -1    0    0  501  502  0.00000000000E+00  0.00000000000E+00  0.87207154126E+02  0.87207154126E+02  0.00000000000E+00 0. -1.
          2   -1    0    0  502    0 -0.00000000000E+00 -0.00000000000E+00 -0.71105370003E+03  0.71105370003E+03  0.00000000000E+00 0. -1.
         23    2    1    2    0    0 -0.93141697486E+02  0.93190068121E+02 -0.59122029228E+03  0.61259511488E+03  0.91496317755E+02 0.  0.
         24    2    1    2    0    0  0.41090577207E+02 -0.43087800950E+02  0.10852867685E+02  0.10134498093E+03  0.81289767481E+02 0.  0.
        -13    1    4    4    0    0  0.30095736860E+02  0.14205578724E+02 -0.16229657304E+02  0.37026390862E+02  0.00000000000E+00 0.  1.
         14    1    4    4    0    0  0.10994840347E+02 -0.57293379675E+02  0.27082524989E+02  0.64318590070E+02  0.00000000000E+00 0. -1.
        -11    1    3    3    0    0 -0.66725722386E+02  0.99641508996E+02 -0.55196422921E+03  0.56484091802E+03  0.00000000000E+00 0. -1.
         11    1    3    3    0    0 -0.26415975100E+02 -0.64514408750E+01 -0.39256063071E+02  0.47754196859E+02  0.00000000000E+00 0.  1.
          1    1    1    2  501    0  0.52051120279E+02 -0.50102267171E+02 -0.43479121306E+02  0.84320758343E+02  0.00000000000E+00 0. -1.
<scales pt_clust_5="13000.00000" pt_clust_6="13000.00000" pt_clust_7="13000.00000" pt_clust_8="13000.00000" pt_clust_9="72.24650"></scales>
<clustering>
<clus scale="   72.246">  1  9  2 -1</clus>
<clus scale="   81.290">  5  6 -1 -1</clus>
<clus scale="   91.496">  7  8 -1 -1</clus>
<clus scale="  145.105">  1  5  2 -1</clus>
<clus scale="   72.246">  1  5  2 -1</clus>
</clustering>
</event>
<event>
 9    2  0.6469128E-005  0.2482656E+03  0.7546771E-02  0.1115152E+00
         21   -1    0    0  501  502  0.00000000000E+00  0.00000000000E+00  0.39930426345E+03  0.39930426345E+03  0.00000000000E+00 0.  1.
          2   -1    0    0  502    0 -0.00000000000E+00 -0.00000000000E+00 -0.22926741876E+03  0.22926741876E+03  0.00000000000E+00 0. -1.
         24    2    1    2    0    0 -0.22362676922E+03  0.68958373599E+02 -0.65146996498E+02  0.25588717445E+03  0.80435848337E+02 0.  0.
         23    2    1    2    0    0  0.21783950204E+03 -0.30857458282E+02  0.23338601183E+03  0.33410466328E+03  0.93544984532E+02 0.  0.
        -13    1    3    3    0    0 -0.81176242633E+02  0.48446370794E+02  0.71979893204E+01  0.94807406153E+02  0.00000000000E+00 0.  1.
         14    1    3    3    0    0 -0.14245052658E+03  0.20512002805E+02 -0.72344985819E+02  0.16107976830E+03  0.00000000000E+00 0. -1.
        -13    1    4    4    0    0  0.18302632322E+03 -0.55254477408E+02  0.16003316368E+03  0.24932369672E+03  0.00000000000E+00 0.  1.
         13    1    4    4    0    0  0.34813178821E+02  0.24397019126E+02  0.73352848141E+02  0.84780966569E+02  0.00000000000E+00 0. -1.
          1    1    1    2  501    0  0.57872671764E+01 -0.38100915317E+02  0.17978293597E+01  0.38579844476E+02  0.00000000000E+00 0. -1.
<scales pt_clust_5="13000.00000" pt_clust_6="13000.00000" pt_clust_7="13000.00000" pt_clust_8="13000.00000" pt_clust_9="38.53795"></scales>
<clustering>
<clus scale="   38.538">  1  9  2 -1</clus>
<clus scale="   80.436">  5  6 -1 -1</clus>
<clus scale="   93.545">  7  8 -1 -1</clus>
<clus scale="  243.629">  2  5  1 -1</clus>
<clus scale="   38.538">  1  5  2 -1</clus>
</clustering>
</event>
<event>
 9    2  0.6469128E-005  0.9877293E+02  0.7546771E-02  0.1291440E+00
          2   -1    0    0  502    0 -0.00000000000E+00  0.00000000000E+00  0.21823699134E+03  0.21823699134E+03  0.00000000000E+00 0. -1.
         21   -1    0    0  501  502  0.00000000000E+00 -0.00000000000E+00 -0.19933213766E+03  0.19933213766E+03  0.00000000000E+00 0.  1.
         24    2    1    2    0    0 -0.55821195987E+01 -0.24146162485E+02  0.17912119974E+03  0.19809206309E+03  0.80881790545E+02 0.  0.
         23    2    1    2    0    0 -0.20625555716E+02  0.10900719934E+02 -0.61314340910E+02  0.11630783302E+03  0.96040743313E+02 0.  0.
        -11    1    3    3    0    0  0.19202872715E+02  0.21206428782E+02  0.36374104735E+02  0.46276759150E+02  0.00000000000E+00 0.  1.
         12    1    3    3    0    0 -0.24784992314E+02 -0.45352591266E+02  0.14274709500E+03  0.15181530394E+03  0.00000000000E+00 0. -1.
        -13    1    4    4    0    0 -0.44714359772E+02 -0.24751809073E+02 -0.15387519521E+02  0.53374167714E+02  0.00000000000E+00 0. -1.
         13    1    4    4    0    0  0.24088804056E+02  0.35652529007E+02 -0.45926821390E+02  0.62933665302E+02  0.00000000000E+00 0.  1.
          1    1    1    2  501    0  0.26207675315E+02  0.13245442551E+02 -0.98902005148E+02  0.10316923289E+03  0.00000000000E+00 0. -1.
<scales pt_clust_5="13000.00000" pt_clust_6="13000.00000" pt_clust_7="13000.00000" pt_clust_8="13000.00000" pt_clust_9="29.36467"></scales>
<clustering>
<clus scale="   29.365">  2  9  1 -1</clus>
<clus scale="   80.882">  5  6 -1 -1</clus>
<clus scale="   84.108">  1  5  2 -1</clus>
<clus scale="   96.041">  7  8 -1 -1</clus>
<clus scale="   29.365">  2  5  1 -1</clus>
</clustering>
</event>
<event>
 9    2  0.6469128E-005  0.2343757E+03  0.7546771E-02  0.1153911E+00
          2   -1    0    0  502    0 -0.00000000000E+00  0.00000000000E+00  0.75348910246E+03  0.75348910246E+03  0.00000000000E+00 0. -1.
         21   -1    0    0  501  502  0.00000000000E+00 -0.00000000000E+00 -0.15321087898E+03  0.15321087898E+03  0.00000000000E+00 0. -1.
         23    2    1    2    0    0  0.12492166296E+02  0.64698718438E+02 -0.37529820841E+02  0.11870149451E+03  0.91321295211E+02 0.  0.
         24    2    1    2    0    0  0.15039481657E+03 -0.18583563203E+03  0.40196108340E+03  0.47682311837E+03  0.92919807671E+02 0.  0.
        -11    1    4    4    0    0  0.10866143322E+03 -0.62341589652E+02  0.21652713375E+03  0.25015551267E+03  0.00000000000E+00 0.  1.
         12    1    4    4    0    0  0.41733383352E+02 -0.12349404238E+03  0.18543394965E+03  0.22666760570E+03  0.00000000000E+00 0. -1.
        -11    1    3    3    0    0  0.49249227051E+02  0.55807305539E+02 -0.29358108161E+02  0.80011500620E+02  0.00000000000E+00 0. -1.
         11    1    3    3    0    0 -0.36757060755E+02  0.88914128993E+01 -0.81717126798E+01  0.38689993885E+02  0.00000000000E+00 0.  1.
          1    1    1    2  501    0 -0.16288698287E+03  0.12113691359E+03  0.23584696092E+03  0.31117536856E+03  0.00000000000E+00 0. -1.
<scales pt_clust_5="13000.00000" pt_clust_6="13000.00000" pt_clust_7="13000.00000" pt_clust_8="13000.00000" pt_clust_9="215.16937"></scales>
<clustering>
<clus scale="   91.321">  7  8 -1 -1</clus>
<clus scale="   92.920">  5  6 -1 -1</clus>
<clus scale="  112.612">  1  7  2 -1</clus>
<clus scale="  215.169">  2  9  1 -1</clus>
<clus scale="  215.169">  2  5  1 -1</clus>
</clustering>
</event>
<event>
 9    2  0.6469128E-005  0.1040147E+03  0.7546771E-02  0.1276470E+00
         21   -1    0    0  501  502  0.00000000000E+00  0.00000000000E+00  0.15479556539E+03  0.15479556539E+03  0.00000000000E+00 0. -1.
          2   -1    0    0  502    0 -0.00000000000E+00 -0.00000000000E+00 -0.10695313705E+03  0.10695313705E+03  0.00000000000E+00 0. -1.
         24    2    1    2    0    0 -0.44670791024E+02 -0.42972507030E+02 -0.33176421994E+02  0.10691455785E+03  0.80547698740E+02 0.  0.
         23    2    1    2    0    0  0.22252327875E+02  0.21487417462E+02  0.40438497555E+02  0.10373657522E+03  0.90383238205E+02 0.  0.
        -13    1    3    3    0    0  0.18007812896E+02 -0.21203342092E+02  0.78488448341E+01  0.28904453055E+02  0.00000000000E+00 0.  1.
         14    1    3    3    0    0 -0.62678603920E+02 -0.21769164938E+02 -0.41025266828E+02  0.78010104793E+02  0.00000000000E+00 0. -1.
        -11    1    4    4    0    0  0.20716977892E+02  0.53879451760E+02  0.41815103325E+02  0.71278968574E+02  0.00000000000E+00 0.  1.
         11    1    4    4    0    0  0.15353499835E+01 -0.32392034299E+02 -0.13766057701E+01  0.32457606643E+02  0.00000000000E+00 0. -1.
          1    1    1    2  501    0  0.22418463149E+02  0.21485089569E+02  0.40580352777E+02  0.51097569367E+02  0.00000000000E+00 0. -1.
<scales pt_clust_5="13000.00000" pt_clust_6="13000.00000" pt_clust_7="13000.00000" pt_clust_8="13000.00000" pt_clust_9="31.05151"></scales>
<clustering>
<clus scale="   31.052">  1  9  2 -1</clus>
<clus scale="   80.548">  5  6 -1 -1</clus>
<clus scale="   90.383">  7  8 -1 -1</clus>
<clus scale="   95.592">  2  5  1 -1</clus>
<clus scale="   31.052">  1  5  2 -1</clus>
</clustering>
</event>
<event>
 9    2  0.6469128E-005  0.9087066E+02  0.7546771E-02  0.1307090E+00
         21   -1    0    0  501  502  0.00000000000E+00  0.00000000000E+00  0.10643158829E+03  0.10643158829E+03  0.00000000000E+00 0.  1.
          2   -1    0    0  502    0 -0.00000000000E+00 -0.00000000000E+00 -0.52838064529E+03  0.52838064529E+03  0.00000000000E+00 0. -1.
         24    2    1    2    0    0 -0.47272119346E+01 -0.48498478707E+00 -0.40971646912E+03  0.41763583243E+03  0.80805456001E+02 0.  0.
         23    2    1    2    0    0 -0.21420133358E+02 -0.29691562289E+02 -0.87942347176E+02  0.13158273716E+03  0.90773064885E+02 0.  0.
        -13    1    3    3    0    0 -0.12568461834E+02 -0.32304208885E+02 -0.93372494998E+02  0.99598950631E+02  0.00000000000E+00 0.  1.
         14    1    3    3    0    0  0.78412498998E+01  0.31819224098E+02 -0.31634397412E+03  0.31803688180E+03  0.00000000000E+00 0. -1.
        -13    1    4    4    0    0  0.27137661970E+02 -0.33265936899E+01  0.44685335360E+00  0.27344443689E+02  0.00000000000E+00 0. -1.
         13    1    4    4    0    0 -0.48557795328E+02 -0.26364968599E+02 -0.88389200530E+02  0.10423829348E+03  0.00000000000E+00 0.  1.
          1    1    1    2  501    0  0.26147345292E+02  0.30176547076E+02  0.75709759304E+02  0.85593663978E+02  0.00000000000E+00 0. -1.
<scales pt_clust_5="13000.00000" pt_clust_6="13000.00000" pt_clust_7="13000.00000" pt_clust_8="13000.00000" pt_clust_9="39.92878"></scales>
<clustering>
<clus scale="   39.929">  1  9  2 -1</clus>
<clus scale="   80.805">  5  6 -1 -1</clus>
<clus scale="   80.915">  2  5  1 -1</clus>
<clus scale="   90.773">  7  8 -1 -1</clus>
<clus scale="   39.929">  1  5  2 -1</clus>
</clustering>
</event>
<event>
 9    2  0.6469128E-005  0.9165574E+02  0.7546771E-02  0.1309139E+00
         21   -1    0    0  501  502  0.00000000000E+00  0.00000000000E+00  0.89066013790E+02  0.89066013790E+02  0.00000000000E+00 0.  1.
         -1   -1    0    0    0  501 -0.00000000000E+00 -0.00000000000E+00 -0.16363997573E+03  0.16363997573E+03  0.00000000000E+00 0.  1.
         24    2    1    2    0    0  0.55447588122E+01  0.10619650146E+02 -0.49475224034E+02  0.10321955065E+03  0.89793967077E+02 0.  0.
         23    2    1    2    0    0 -0.20226703769E+02  0.45137316201E+02 -0.23419837648E+02  0.91804400854E+02  0.73709309870E+02 0.  0.
        -11    1    3    3    0    0  0.33658827831E+02  0.32924613507E+02 -0.69816535770E+01  0.47599268400E+02  0.00000000000E+00 0.  1.
         12    1    3    3    0    0 -0.28114069018E+02 -0.22304963361E+02 -0.42493570457E+02  0.55620282249E+02  0.00000000000E+00 0. -1.
        -11    1    4    4    0    0 -0.37403669820E+02  0.10768693502E+02 -0.34291470662E+02  0.51873926359E+02  0.00000000000E+00 0.  1.
         11    1    4    4    0    0  0.17176966051E+02  0.34368622699E+02  0.10871633014E+02  0.39930474494E+02  0.00000000000E+00 0. -1.
         -2    1    1    2    0  502  0.14681944957E+02 -0.55756966347E+02 -0.16789002602E+01  0.57682038019E+02  0.00000000000E+00 0.  1.
<scales pt_clust_5="13000.00000" pt_clust_6="13000.00000" pt_clust_7="13000.00000" pt_clust_8="13000.00000" pt_clust_9="57.65760"></scales>
<clustering>
<clus scale="   57.658">  1  9  2 -1</clus>
<clus scale="   73.709">  7  8 -1 -1</clus>
<clus scale="   75.966">  1  7  2 -1</clus>
<clus scale="   89.794">  5  6 -1 -1</clus>
<clus scale="   57.658">  1  5  2 -1</clus>
</clustering>
</event>
<event>
 9    2  0.6469128E-005  0.1023698E+03  0.7546771E-02  0.1280546E+00
         21   -1    0    0  501  502  0.00000000000E+00  0.00000000000E+00  0.17081575448E+02  0.17081575448E+02  0.00000000000E+00 0.  1.
          2   -1    0    0  502    0 -0.00000000000E+00 -0.00000000000E+00 -0.91816809023E+03  0.91816809023E+03  0.00000000000E+00 0. -1.
         23    2    1    2    0    0  0.42678209190E+02 -0.14852252568E+02 -0.44953746385E+03  0.46099175743E+03  0.91583022799E+02 0.  0.
         24    2    1    2    0    0 -0.22258586251E+02  0.52997647273E+02 -0.26954542316E+03  0.28718211436E+03  0.80713297434E+02 0.  0.
        -11    1    4    4    0    0 -0.52808936412E+02  0.37452168898E+02 -0.17102125310E+03  0.18286529942E+03  0.00000000000E+00 0.  1.
         12    1    4    4    0    0  0.30550350162E+02  0.15545478376E+02 -0.98524170057E+02  0.10431681494E+03  0.00000000000E+00 0. -1.
        -13    1    3    3    0    0 -0.18934010022E+02 -0.30035780384E+02 -0.11040510443E+03  0.11597384155E+03  0.00000000000E+00 0.  1.
         13    1    3    3    0    0  0.61612219212E+02  0.15183527816E+02 -0.33913235942E+03  0.34501791588E+03  0.00000000000E+00 0. -1.
          1    1    1    2  501    0 -0.20419622939E+02 -0.38145394705E+02 -0.18200362777E+03  0.18707579389E+03  0.00000000000E+00 0. -1.
<scales pt_clust_5="13000.00000" pt_clust_6="13000.00000" pt_clust_7="13000.00000" pt_clust_8="13000.00000" pt_clust_9="43.26701"></scales>
<clustering>
<clus scale="   43.267">  1  9  2 -1</clus>
<clus scale="   80.713">  5  6 -1 -1</clus>
<clus scale="   91.583">  7  8 -1 -1</clus>
<clus scale="   92.773">  1  5  2 -1</clus>
<clus scale="   43.267">  1  5  2 -1</clus>
</clustering>
</event>
<event>
 9    2  0.6469128E-005  0.1719072E+03  0.7546771E-02  0.1202300E+00
         21   -1    0    0  501  502  0.00000000000E+00  0.00000000000E+00  0.54018948896E+02  0.54018948896E+02  0.00000000000E+00 0. -1.
          2   -1    0    0  502    0 -0.00000000000E+00 -0.00000000000E+00 -0.96521580638E+03  0.96521580638E+03  0.00000000000E+00 0. -1.
         24    2    1    2    0    0  0.17676086809E+01 -0.51096712108E+02 -0.42046762733E+03  0.43123940713E+03  0.80996309784E+02 0.  0.
         23    2    1    2    0    0 -0.14506929934E+03  0.18645252836E+00 -0.23644643474E+03  0.29170668971E+03  0.90226049154E+02 0.  0.
        -13    1    3    3    0    0 -0.29120769571E+02  0.44617901262E+01 -0.89549688898E+02  0.94271276502E+02  0.00000000000E+00 0.  1.
         14    1    3    3    0    0  0.30888378252E+02 -0.55558502235E+02 -0.33091793843E+03  0.33696813063E+03  0.00000000000E+00 0. -1.
        -11    1    4    4    0    0 -0.15873725466E+02  0.28171031036E+02 -0.83544626226E+02  0.89583964642E+02  0.00000000000E+00 0.  1.
         11    1    4    4    0    0 -0.12919557387E+03 -0.27984578507E+02 -0.15290180851E+03  0.20212272507E+03  0.00000000000E+00 0. -1.
          1    1    1    2  501    0  0.14330169066E+03  0.50910259580E+02 -0.25428279542E+03  0.29628865844E+03  0.00000000000E+00 0. -1.
<scales pt_clust_5="13000.00000" pt_clust_6="13000.00000" pt_clust_7="13000.00000" pt_clust_8="13000.00000" pt_clust_9="146.32618"></scales>
<clustering>
<clus scale="   80.996">  5  6 -1 -1</clus>
<clus scale="   90.226">  7  8 -1 -1</clus>
<clus scale="   95.783">  2  5  1 -1</clus>
<clus scale="  146.326">  1  9  2 -1</clus>
<clus scale="  146.326">  1  5  2 -1</clus>
</clustering>
</event>
<event>
 9    2  0.6469128E-005  0.1147198E+03  0.7546771E-02  0.1255058E+00
         21   -1    0    0  501  502  0.00000000000E+00  0.00000000000E+00  0.12961566811E+03  0.12961566811E+03  0.00000000000E+00 0.  1.
          2   -1    0    0  502    0 -0.00000000000E+00 -0.00000000000E+00 -0.14804753615E+03  0.14804753615E+03  0.00000000000E+00 0. -1.
         24    2    1    2    0    0  0.45616980875E+02 -0.24679182213E+02 -0.10820751025E+01  0.97210453621E+02  0.82211498149E+02 0.  0.
         23    2    1    2    0    0 -0.64102903522E+02  0.69509461276E+02 -0.15094174240E+02  0.13190822394E+03  0.90725949984E+02 0.  0.
        -13    1    3    3    0    0  0.61178707546E+02 -0.30689103472E+02 -0.20654793380E+02  0.71493187217E+02  0.00000000000E+00 0.  1.
         14    1    3    3    0    0 -0.15561726671E+02  0.60099212591E+01  0.19572718277E+02  0.25717266404E+02  0.00000000000E+00 0. -1.
        -13    1    4    4    0    0 -0.33394802623E+02  0.25876709664E+02  0.37864576745E+02  0.56732205292E+02  0.00000000000E+00 0.  1.
         13    1    4    4    0    0 -0.30708100899E+02  0.43632751612E+02 -0.52958750985E+02  0.75176018650E+02  0.00000000000E+00 0. -1.
          1    1    1    2  501    0  0.18485922648E+02 -0.44830279063E+02 -0.22556187027E+01  0.48544526702E+02  0.00000000000E+00 0. -1.
<scales pt_clust_5="13000.00000" pt_clust_6="13000.00000" pt_clust_7="13000.00000" pt_clust_8="13000.00000" pt_clust_9="48.49209"></scales>
<clustering>
<clus scale="   48.492">  1  9  2 -1</clus>
<clus scale="   82.211">  5  6 -1 -1</clus>
<clus scale="   90.726">  7  8 -1 -1</clus>
<clus scale="  108.112">  2  5  1 -1</clus>
<clus scale="   48.492">  1  5  2 -1</clus>
</clustering>
</event>
<event>
 9    2  0.6469128E-005  0.9577239E+02  0.7546771E-02  0.1298077E+00
          2   -1    0    0  502    0 -0.00000000000E+00  0.00000000000E+00  0.10404319856E+03  0.10404319856E+03  0.00000000000E+00 0. -1.
         21   -1    0    0  501  502  0.00000000000E+00 -0.00000000000E+00 -0.11773775031E+03  0.11773775031E+03  0.00000000000E+00 0. -1.
         23    2    1    2    0    0  0.23771649417E+02  0.10392247760E+02 -0.50030872230E+00  0.96873395035E+02  0.93333350028E+02 0.  0.
         24    2    1    2    0    0 -0.18470972044E+02  0.14955304199E+02 -0.36630774133E+02  0.89980965660E+02  0.78676061389E+02 0.  0.
        -13    1    4    4    0    0  0.30893408260E+02  0.10970916363E+01 -0.14062386753E+02  0.33961110188E+02  0.00000000000E+00 0.  1.
         14    1    4    4    0    0 -0.49364380304E+02  0.13858212563E+02 -0.22568387380E+02  0.56019855473E+02  0.00000000000E+00 0. -1.
        -11    1    3    3    0    0  0.14041000053E+02 -0.39957063656E+02  0.12139323568E+02  0.44057687129E+02  0.00000000000E+00 0.  1.
         11    1    3    3    0    0  0.97306493640E+01  0.50349311417E+02 -0.12639632291E+02  0.52815707906E+02  0.00000000000E+00 0. -1.
          1    1    1    2  501    0 -0.53006773727E+01 -0.25347551959E+02  0.23436531107E+02  0.34926588171E+02  0.00000000000E+00 0. -1.
<scales pt_clust_5="13000.00000" pt_clust_6="13000.00000" pt_clust_7="13000.00000" pt_clust_8="13000.00000" pt_clust_9="25.89587"></scales>
<clustering>
<clus scale="   25.896">  2  9  1 -1</clus>
<clus scale="   78.676">  5  6 -1 -1</clus>
<clus scale="   81.555">  2  5  1 -1</clus>
<clus scale="   93.333">  7  8 -1 -1</clus>
<clus scale="   25.896">  2  5  1 -1</clus>
</clustering>
</event>
<event>
 9    2  0.6469128E-005  0.1084940E+03  0.7546771E-02  0.1267890E+00
          4   -1    0    0  502    0 -0.00000000000E+00  0.00000000000E+00  0.57999331417E+02  0.57999331417E+02  0.00000000000E+00 0. -1.
         21   -1    0    0  501  502  0.00000000000E+00 -0.00000000000E+00 -0.61899937779E+03  0.61899937779E+03  0.00000000000E+00 0. -1.
         24    2    1    2    0    0  0.11397433291E+02 -0.60597789476E+02 -0.10879621101E+03  0.14880399956E+03  0.80647511922E+02 0.  0.
         23    2    1    2    0    0 -0.89155009763E+02  0.15154423462E+02 -0.40806968208E+03  0.42789932741E+03  0.91644403251E+02 0.  0.
        -13    1    3    3    0    0  0.20191079476E+02  0.97699484672E+01 -0.48129939894E+01  0.22941152861E+02  0.00000000000E+00 0.  1.
         14    1    3    3    0    0 -0.87936461849E+01 -0.70367737943E+02 -0.10398321702E+03  0.12586284670E+03  0.00000000000E+00 0. -1.
        -13    1    4    4    0    0 -0.79598232785E+02 -0.24980596775E+02 -0.21833377897E+03  0.23372964706E+03  0.00000000000E+00 0.  1.
         13    1    4    4    0    0 -0.95567769777E+01  0.40135020237E+02 -0.18973590311E+03  0.19416968034E+03  0.00000000000E+00 0. -1.
          3    1    1    2  501    0  0.77757576471E+02  0.45443366014E+02 -0.44134153285E+02  0.10029538224E+03  0.00000000000E+00 0. -1.
<scales pt_clust_5="13000.00000" pt_clust_6="13000.00000" pt_clust_7="13000.00000" pt_clust_8="13000.00000" pt_clust_9="90.06302"></scales>
<clustering>
<clus scale="   80.648">  5  6 -1 -1</clus>
<clus scale="   90.063">  2  9  1 -1</clus>
<clus scale="   91.644">  7  8 -1 -1</clus>
<clus scale="   99.379">  1  5  2 -1</clus>
<clus scale="   90.063">  2  5  1 -1</clus>
</clustering>
</event>
<event>
 9    2  0.6469128E-005  0.1076184E+03  0.7546771E-02  0.1271556E+00
         -1   -1    0    0    0  501 -0.00000000000E+00  0.00000000000E+00  0.32533774006E+03  0.32533774006E+03  0.00000000000E+00 0.  1.
         21   -1    0    0  501  502  0.00000000000E+00 -0.00000000000E+00 -0.11626626374E+03  0.11626626374E+03  0.00000000000E+00 0. -1.
         24    2    1    2    0    0  0.47291024059E+02 -0.18605211021E+02  0.26969624826E+03  0.28643706506E+03  0.82021528145E+02 0.  0.
         23    2    1    2    0    0 -0.20680675746E+02  0.17673894725E+02 -0.13671042194E+02  0.10118888094E+03  0.96499923973E+02 0.  0.
        -13    1    3    3    0    0 -0.20256584898E+02 -0.11905263411E+02  0.35257682726E+02  0.42369431432E+02  0.00000000000E+00 0.  1.
         14    1    3    3    0    0  0.67547608958E+02 -0.66999476100E+01  0.23443856554E+03  0.24406763363E+03  0.00000000000E+00 0. -1.
        -13    1    4    4    0    0 -0.50646536938E+02  0.27277604781E+01  0.19230963389E+02  0.54243362118E+02  0.00000000000E+00 0.  1.
         13    1    4    4    0    0  0.29965861192E+02  0.14946134247E+02 -0.32902005583E+02  0.46945518820E+02  0.00000000000E+00 0. -1.
         -2    1    1    2    0  502 -0.26610348313E+02  0.93131629541E+00 -0.46953729742E+02  0.53978057802E+02  0.00000000000E+00 0.  1.
<scales pt_clust_5="13000.00000" pt_clust_6="13000.00000" pt_clust_7="13000.00000" pt_clust_8="13000.00000" pt_clust_9="26.62664"></scales>
<clustering>
<clus scale="   26.627">  2  9  1 -1</clus>
<clus scale="   82.022">  5  6 -1 -1</clus>
<clus scale="   94.853">  1  5  2 -1</clus>
<clus scale="   96.500">  7  8 -1 -1</clus>
<clus scale="   26.627">  2  5  1 -1</clus>
</clustering>
</event>
<event>
 9    2  0.6469128E-005  0.1033790E+03  0.7546771E-02  0.1279626E+00
         21   -1    0    0  501  502  0.00000000000E+00  0.00000000000E+00  0.80069850277E+03  0.80069850277E+03  0.00000000000E+00 0.  1.
          4   -1    0    0  502    0 -0.00000000000E+00 -0.00000000000E+00 -0.14080865640E+03  0.14080865640E+03  0.00000000000E+00 0. -1.
         23    2    1    2    0    0  0.14541797713E+00  0.36562679597E+02 -0.95344635157E+02  0.13876562017E+03  0.93959816953E+02 0.  0.
         24    2    1    2    0    0  0.15075871555E+02 -0.10561162904E+03  0.18624846668E+03  0.22937906189E+03  0.80902191564E+02 0.  0.
        -11    1    4    4    0    0  0.23133161651E+02  0.44284436588E+01  0.33121017502E+02  0.40641802144E+02  0.00000000000E+00 0.  1.
         12    1    4    4    0    0 -0.80572900959E+01 -0.11004007270E+03  0.15312744918E+03  0.18873725975E+03  0.00000000000E+00 0. -1.
        -11    1    3    3    0    0  0.24753855373E+02 -0.10992155731E+02 -0.77863230207E+02  0.82439453308E+02  0.00000000000E+00 0.  1.
         11    1    3    3    0    0 -0.24608437396E+02  0.47554835328E+02 -0.17481404950E+02  0.56326166860E+02  0.00000000000E+00 0. -1.
          3    1    1    2  501    0 -0.15221289532E+02  0.69048949444E+02  0.56898601484E+03  0.57336247711E+03  0.00000000000E+00 0. -1.
<scales pt_clust_5="13000.00000" pt_clust_6="13000.00000" pt_clust_7="13000.00000" pt_clust_8="13000.00000" pt_clust_9="70.70675"></scales>
<clustering>
<clus scale="   70.707">  1  9  2 -1</clus>
<clus scale="   80.902">  5  6 -1 -1</clus>
<clus scale="   91.673">  1  5  2 -1</clus>
<clus scale="   93.960">  7  8 -1 -1</clus>
<clus scale="   70.707">  1  5  2 -1</clus>
</clustering>
</event>
<event>
 9    2  0.6469128E-005  0.2681932E+03  0.7546771E-02  0.1102318E+00
         21   -1    0    0  501  502  0.00000000000E+00  0.00000000000E+00  0.36386918901E+02  0.36386918901E+02  0.00000000000E+00 0.  1.
          2   -1    0    0  502    0 -0.00000000000E+00 -0.00000000000E+00 -0.13820255678E+04  0.13820255678E+04  0.00000000000E+00 0. -1.
         24    2    1    2    0    0  0.10998689712E+03  0.19218487591E+02 -0.40957472749E+03  0.43199443791E+03  0.80007932030E+02 0.  0.
         23    2    1    2    0    0  0.68100640428E+02 -0.43869436700E+02 -0.42917001110E+03  0.44858510388E+03  0.10236929368E+03 0.  0.
        -13    1    3    3    0    0  0.11166243509E+03  0.37840413966E+02 -0.36758854725E+03  0.38603333588E+03  0.00000000000E+00 0.  1.
         14    1    3    3    0    0 -0.16755379676E+01 -0.18621926375E+02 -0.41986180236E+02  0.45961102035E+02  0.00000000000E+00 0. -1.
        -13    1    4    4    0    0  0.64993496715E+02  0.44046836465E+01 -0.34839512667E+03  0.35443295577E+03  0.00000000000E+00 0. -1.
         13    1    4    4    0    0  0.31071437132E+01 -0.48274120347E+02 -0.80774884436E+02  0.94152148106E+02  0.00000000000E+00 0.  1.
          1    1    1    2  501    0 -0.17808753755E+03  0.24650949110E+02 -0.50689391035E+03  0.53783294495E+03  0.00000000000E+00 0. -1.
<scales pt_clust_5="13000.00000" pt_clust_6="13000.00000" pt_clust_7="13000.00000" pt_clust_8="13000.00000" pt_clust_9="179.78554"></scales>
<clustering>
<clus scale="   80.008">  5  6 -1 -1</clus>
<clus scale="  102.369">  7  8 -1 -1</clus>
<clus scale="  118.749">  5  7 -1 -1</clus>
<clus scale="  179.786">  1  9  2 -1</clus>
<clus scale="  179.786">  1  5  2 -1</clus>
</clustering>
</event>
<event>
 9    2  0.6469128E-005  0.2460026E+03  0.7546771E-02  0.1116681E+00
         21   -1    0    0  501  502  0.00000000000E+00  0.00000000000E+00  0.91343677324E+02  0.91343677324E+02  0.00000000000E+00 0.  1.
          2   -1    0    0  502    0 -0.00000000000E+00 -0.00000000000E+00 -0.89918730290E+03  0.89918730290E+03  0.00000000000E+00 0. -1.
         24    2    1    2    0    0 -0.14309367655E+03  0.17125409468E+03 -0.53046444634E+03  0.58096656337E+03  0.79535235648E+02 0.  0.
         23    2    1    2    0    0  0.17989977184E+03 -0.15619595325E+03 -0.26362891899E+03  0.36748703658E+03  0.93730525470E+02 0.  0.
        -11    1    3    3    0    0  0.73530387198E+01  0.22730137703E+02 -0.36019910415E+02  0.43222219803E+02  0.00000000000E+00 0.  1.
         12    1    3    3    0    0 -0.15044671527E+03  0.14852395698E+03 -0.49444453592E+03  0.53774434357E+03  0.00000000000E+00 0. -1.
        -11    1    4    4    0    0  0.54324146800E+02 -0.67321104885E+02 -0.38198162126E+02  0.94563966067E+02  0.00000000000E+00 0.  1.
         11    1    4    4    0    0  0.12557562504E+03 -0.88874848361E+02 -0.22543075687E+03  0.27292307051E+03  0.00000000000E+00 0. -1.
          1    1    1    2  501    0 -0.36806095291E+02 -0.15058141432E+02 -0.13750260243E+02  0.42077380274E+02  0.00000000000E+00 0. -1.
<scales pt_clust_5="13000.00000" pt_clust_6="13000.00000" pt_clust_7="13000.00000" pt_clust_8="13000.00000" pt_clust_9="39.76728"></scales>
<clustering>
<clus scale="   39.767">  1  9  2 -1</clus>
<clus scale="   79.535">  5  6 -1 -1</clus>
<clus scale="   93.731">  7  8 -1 -1</clus>
<clus scale="  240.952">  2  5  1 -1</clus>
<clus scale="   39.767">  1  5  2 -1</clus>
</clustering>
</event>
<event>
 9    2  0.6469128E-005  0.8323137E+02  0.7546771E-02  0.1327093E+00
          2   -1    0    0  502    0 -0.00000000000E+00  0.00000000000E+00  0.30071136483E+03  0.30071136483E+03  0.00000000000E+00 0. -1.
         21   -1    0    0  501  502  0.00000000000E+00 -0.00000000000E+00 -0.10570409168E+03  0.10570409168E+03  0.00000000000E+00 0. -1.
         24    2    1    2    0    0 -0.20583524908E+02 -0.24218398899E+02  0.18579277728E+03  0.20486359968E+03  0.80249149792E+02 0.  0.
         23    2    1    2    0    0 -0.33657110960E+02  0.18309176118E+02  0.79394451697E+02  0.11265758429E+03  0.70144317585E+02 0.  0.
        -13    1    3    3    0    0 -0.10056871250E+01  0.27413492453E+02  0.36306842390E+02  0.45504920386E+02  0.00000000000E+00 0.  1.
         14    1    3    3    0    0 -0.19577837783E+02 -0.51631891352E+02  0.14948593489E+03  0.15935867929E+03  0.00000000000E+00 0. -1.
        -13    1    4    4    0    0  0.13328594958E+02  0.26822732210E+02  0.43966968114E+02  0.53199668156E+02  0.00000000000E+00 0.  1.
         13    1    4    4    0    0 -0.46985705918E+02 -0.85135560920E+01  0.35427483582E+02  0.59457916133E+02  0.00000000000E+00 0. -1.
          1    1    1    2  501    0  0.54240635868E+02  0.59092227810E+01 -0.70179955820E+02  0.88894272550E+02  0.00000000000E+00 0. -1.
<scales pt_clust_5="13000.00000" pt_clust_6="13000.00000" pt_clust_7="13000.00000" pt_clust_8="13000.00000" pt_clust_9="54.56158"></scales>
<clustering>
<clus scale="   54.562">  2  9  1 -1</clus>
<clus scale="   70.144">  7  8 -1 -1</clus>
<clus scale="   73.537">  2  7  1 -1</clus>
<clus scale="   80.249">  5  6 -1 -1</clus>
<clus scale="   54.562">  2  5  1 -1</clus>
</clustering>
</event>
<event>
 9    2  0.6469128E-005  0.2000124E+03  0.7546771E-02  0.1150633E+00
         21   -1    0    0  501  502  0.00000000000E+00  0.00000000000E+00  0.14869770018E+03  0.14869770018E+03  0.00000000000E+00 0. -1.
          2   -1    0    0  502    0 -0.00000000000E+00 -0.00000000000E+00 -0.79492655145E+03  0.79492655145E+03  0.00000000000E+00 0. -1.
         23    2    1    2    0    0  0.16874656106E+03 -0.65993637252E+02 -0.69498302518E+03  0.72389808404E+03  0.90534351309E+02 0.  0.
         24    2    1    2    0    0 -0.14499374711E+03  0.50588983114E+02  0.67066473763E+02  0.18600911159E+03  0.80740607989E+02 0.  0.
        -13    1    4    4    0    0 -0.58560390339E+02  0.55379056833E+02  0.75379368192E+01  0.80950477107E+02  0.00000000000E+00 0.  1.
         14    1    4    4    0    0 -0.86433356774E+02 -0.47900737194E+01  0.59528536943E+02  0.10505863449E+03  0.00000000000E+00 0. -1.
        -11    1    3    3    0    0  0.52152477705E+02  0.38088281428E+01 -0.92287362082E+02  0.10607235881E+03  0.00000000000E+00 0.  1.
         11    1    3    3    0    0  0.11659408335E+03 -0.69802465395E+02 -0.60269566310E+03  0.61782572524E+03  0.00000000000E+00 0. -1.
          1    1    1    2  501    0 -0.23752813947E+02  0.15404654139E+02 -0.18312299850E+02  0.33717056000E+02  0.00000000000E+00 0. -1.
<scales pt_clust_5="13000.00000" pt_clust_6="13000.00000" pt_clust_7="13000.00000" pt_clust_8="13000.00000" pt_clust_9="28.31077"></scales>
<clustering>
<clus scale="   28.311">  1  9  2 -1</clus>
<clus scale="   80.741">  5  6 -1 -1</clus>
<clus scale="   90.534">  7  8 -1 -1</clus>
<clus scale="  195.774">  1  5  2 -1</clus>
<clus scale="   28.311">  1  5  2 -1</clus>
</clustering>
</event>
<event>
 9    2  0.6469128E-005  0.1733868E+03  0.7546771E-02  0.1175723E+00
          2   -1    0    0  502    0 -0.00000000000E+00  0.00000000000E+00  0.13775913904E+04  0.13775913904E+04  0.00000000000E+00 0. -1.
         21   -1    0    0  501  502  0.00000000000E+00 -0.00000000000E+00 -0.17353749616E+03  0.17353749616E+03  0.00000000000E+00 0. -1.
         24    2    1    2    0    0  0.64556158333E+02  0.14188221973E+03  0.94417762894E+03  0.96025802064E+03  0.79536214116E+02 0.  0.
         23    2    1    2    0    0 -0.91111287529E+02 -0.10229357024E+03  0.40562797662E+03  0.43752159978E+03  0.90143516879E+02 0.  0.
        -13    1    3    3    0    0 -0.68754173963E+01  0.41460206263E+02  0.12532323758E+03  0.13218219981E+03  0.00000000000E+00 0.  1.
         14    1    3    3    0    0  0.71431575729E+02  0.10042201347E+03  0.81885439136E+03  0.82807582083E+03  0.00000000000E+00 0. -1.
        -13    1    4    4    0    0 -0.99185741665E+02 -0.55191855589E+02  0.31890648842E+03  0.33850450607E+03  0.00000000000E+00 0.  1.
         13    1    4    4    0    0  0.80744541364E+01 -0.47101714648E+02  0.86721488198E+02  0.99017093714E+02  0.00000000000E+00 0. -1.
          1    1    1    2  501    0  0.26555129196E+02 -0.39588649493E+02 -0.14575171135E+03  0.15334926611E+03  0.00000000000E+00 0. -1.
<scales pt_clust_5="13000.00000" pt_clust_6="13000.00000" pt_clust_7="13000.00000" pt_clust_8="13000.00000" pt_clust_9="47.67008"></scales>
<clustering>
<clus scale="   47.670">  2  9  1 -1</clus>
<clus scale="   79.536">  5  6 -1 -1</clus>
<clus scale="   90.144">  7  8 -1 -1</clus>
<clus scale="  168.116">  1  5  2 -1</clus>
<clus scale="   47.670">  2  5  1 -1</clus>
</clustering>
</event>
<event>
 9    2  0.2515305E-004  0.1022229E+03  0.7546771E-02  0.1280789E+00
         -1   -1    0    0    0  501 -0.00000000000E+00  0.00000000000E+00  0.25904043588E+03  0.25904043588E+03  0.00000000000E+00 0.  1.
         21   -1    0    0  501  502  0.00000000000E+00 -0.00000000000E+00 -0.21576349778E+03  0.21576349778E+03  0.00000000000E+00 0. -1.
         23    2    1    2    0    0 -0.28071965083E+02 -0.36523725650E+02  0.21125866186E+03  0.23491375245E+03  0.91827180718E+02 0.  0.
         24    2    1    2    0    0  0.11241630638E+02  0.23467894806E+02 -0.19062429333E+03  0.20880319304E+03  0.81142072130E+02 0.  0.
        -11    1    4    4    0    0 -0.16623962928E+01  0.38511844862E+02 -0.35455942939E+02  0.52374131456E+02  0.00000000000E+00 0.  1.
         12    1    4    4    0    0  0.12904026931E+02 -0.15043950056E+02 -0.15516835039E+03  0.15642906158E+03  0.00000000000E+00 0. -1.
        -11    1    3    3    0    0 -0.74374440294E+01 -0.65505287940E+02  0.11914191194E+03  0.13616553713E+03  0.00000000000E+00 0.  1.
         11    1    3    3    0    0 -0.20634521054E+02  0.28981562290E+02  0.92116749922E+02  0.98748215316E+02  0.00000000000E+00 0. -1.
         -2    1    1    2    0  502  0.16830334445E+02  0.13055830844E+02  0.22642569578E+02  0.31086988172E+02  0.00000000000E+00 0.  1.
<scales pt_clust_5="13000.00000" pt_clust_6="13000.00000" pt_clust_7="13000.00000" pt_clust_8="13000.00000" pt_clust_9="21.30059"></scales>
<clustering>
<clus scale="   21.301">  2  9  1 -1</clus>
<clus scale="   81.142">  5  6 -1 -1</clus>
<clus scale="   91.827">  7  8 -1 -1</clus>
<clus scale="   92.743">  2  5  1 -1</clus>
<clus scale="   21.301">  2  5  1 -1</clus>
</clustering>
</event>
<event>
 9    2  0.6469128E-005  0.2172661E+03  0.7546771E-02  0.1175438E+00
         21   -1    0    0  501  502  0.00000000000E+00  0.00000000000E+00  0.12685970374E+03  0.12685970374E+03  0.00000000000E+00 0.  1.
         -1   -1    0    0    0  501 -0.00000000000E+00 -0.00000000000E+00 -0.61349208257E+03  0.61349208257E+03  0.00000000000E+00 0.  1.
         24    2    1    2    0    0  0.12945457824E+02 -0.23237891392E+02 -0.21887904885E+03  0.23516696422E+03  0.81779450734E+02 0.  0.
         23    2    1    2    0    0  0.18002932614E+03 -0.41537174899E+02 -0.20789041658E+03  0.29300884592E+03  0.92194703281E+02 0.  0.
        -11    1    3    3    0    0 -0.16548738449E+02 -0.45838866031E+02 -0.12989181643E+03  0.13873336426E+03  0.00000000000E+00 0.  1.
         12    1    3    3    0    0  0.29494196273E+02  0.22600974639E+02 -0.88987232416E+02  0.96433599961E+02  0.00000000000E+00 0. -1.
        -13    1    4    4    0    0  0.13261543001E+02  0.21735400401E+02 -0.12222914098E+02  0.28243508677E+02  0.00000000000E+00 0. -1.
         13    1    4    4    0    0  0.16676778314E+03 -0.63272575300E+02 -0.19566750248E+03  0.26476533725E+03  0.00000000000E+00 0.  1.
         -2    1    1    2    0  502 -0.19297478397E+03  0.64775066291E+02 -0.59862913400E+02  0.21217597616E+03  0.00000000000E+00 0.  1.
<scales pt_clust_5="13000.00000" pt_clust_6="13000.00000" pt_clust_7="13000.00000" pt_clust_8="13000.00000" pt_clust_9="196.73513"></scales>
<clustering>
<clus scale="   81.779">  5  6 -1 -1</clus>
<clus scale="   85.997">  2  5  1 -1</clus>
<clus scale="   92.195">  7  8 -1 -1</clus>
<clus scale="  196.735">  1  9  2 -1</clus>
<clus scale="  196.735">  1  5  2 -1</clus>
</clustering>
</event>
<event>
 9    2  0.6469128E-005  0.1139480E+03  0.7546771E-02  0.1257265E+00
         -3   -1    0    0    0  501 -0.00000000000E+00  0.00000000000E+00  0.63572924536E+02  0.63572924536E+02  0.00000000000E+00 0.  1.
         21   -1    0    0  501  502  0.00000000000E+00 -0.00000000000E+00 -0.39263423694E+03  0.39263423694E+03  0.00000000000E+00 0.  1.
         23    2    1    2    0    0 -0.95611408301E+01  0.64357461718E+02 -0.36632187866E+02  0.11755917614E+03  0.90801676270E+02 0.  0.
         24    2    1    2    0    0  0.39460517841E+02 -0.68836400806E+02 -0.12425534285E+03  0.16777828502E+03  0.80091074114E+02 0.  0.
        -11    1    4    4    0    0  0.45424727079E+02 -0.64643905119E+02 -0.50729900472E+02  0.93892295217E+02  0.00000000000E+00 0.  1.
         12    1    4    4    0    0 -0.59642092382E+01 -0.41924956869E+01 -0.73525442382E+02  0.73885989804E+02  0.00000000000E+00 0. -1.
        -11    1    3    3    0    0  0.24778510874E+02 -0.12036146945E+02 -0.48262632420E+01  0.27966698970E+02  0.00000000000E+00 0.  1.
         11    1    3    3    0    0 -0.34339651704E+02  0.76393608663E+02 -0.31805924624E+02  0.89592477166E+02  0.00000000000E+00 0. -1.
         -4    1    1    2    0  502 -0.29899377011E+02  0.44789390880E+01 -0.16817378168E+03  0.17086970032E+03  0.00000000000E+00 0.  1.
<scales pt_clust_5="13000.00000" pt_clust_6="13000.00000" pt_clust_7="13000.00000" pt_clust_8="13000.00000" pt_clust_9="30.23299"></scales>
<clustering>
<clus scale="   30.233">  2  9  1 -1</clus>
<clus scale="   80.091">  5  6 -1 -1</clus>
<clus scale="   90.802">  7  8 -1 -1</clus>
<clus scale="  105.612">  2  5  1 -1</clus>
<clus scale="   30.233">  2  5  1 -1</clus>
</clustering>
</event>
<event>
 9    2  0.6469128E-005  0.8392985E+02  0.7546771E-02  0.1319800E+00
         21   -1    0    0  501  502  0.00000000000E+00  0.00000000000E+00  0.42687217045E+02  0.42687217045E+02  0.00000000000E+00 0. -1.
         -3   -1    0    0    0  501 -0.00000000000E+00 -0.00000000000E+00 -0.33707291501E+03  0.33707291501E+03  0.00000000000E+00 0.  1.
         23    2    1    2    0    0  0.89386214834E+01 -0.38586261103E+01 -0.16978727179E+03  0.18911131657E+03  0.82707825754E+02 0.  0.
         24    2    1    2    0    0  0.11543332520E+02  0.41907136465E+02 -0.49303573010E+02  0.10383571456E+03  0.80383808660E+02 0.  0.
        -11    1    4    4    0    0  0.11866493751E+02 -0.23041019685E+02 -0.19171992313E+02  0.32237672859E+02  0.00000000000E+00 0.  1.
         12    1    4    4    0    0 -0.32316123166E+00  0.64948156150E+02 -0.30131580697E+02  0.71598041703E+02  0.00000000000E+00 0. -1.
        -13    1    3    3    0    0 -0.23569558650E+02 -0.23160718887E+02 -0.31152520233E+02  0.45413902180E+02  0.00000000000E+00 0. -1.
         13    1    3    3    0    0  0.32508180133E+02  0.19302092777E+02 -0.13863475156E+03  0.14369741439E+03  0.00000000000E+00 0.  1.
         -4    1    1    2    0  502 -0.20481954003E+02 -0.38048510355E+02 -0.75294853162E+02  0.86813100927E+02  0.00000000000E+00 0.  1.
<scales pt_clust_5="13000.00000" pt_clust_6="13000.00000" pt_clust_7="13000.00000" pt_clust_8="13000.00000" pt_clust_9="43.21113"></scales>
<clustering>
<clus scale="   43.211">  1  9  2 -1</clus>
<clus scale="   80.384">  5  6 -1 -1</clus>
<clus scale="   81.641">  1  5  2 -1</clus>
<clus scale="   82.708">  7  8 -1 -1</clus>
<clus scale="   43.211">  1  5  2 -1</clus>
</clustering>
</event>
<event>
 9    2  0.6469128E-005  0.1017454E+03  0.7546771E-02  0.1283938E+00
         21   -1    0    0  501  502  0.00000000000E+00  0.00000000000E+00  0.19237191485E+03  0.19237191485E+03  0.00000000000E+00 0.  1.
          4   -1    0    0  502    0 -0.00000000000E+00 -0.00000000000E+00 -0.84417207274E+02  0.84417207274E+02  0.00000000000E+00 0. -1.
         24    2    1    2    0    0  0.13123787073E+02 -0.33923471207E+02 -0.23100480808E+02  0.91023904050E+02  0.80179069644E+02 0.  0.
         23    2    1    2    0    0  0.83855930838E+01  0.46861865676E+02  0.97694150413E+02  0.14401579484E+03  0.94498939209E+02 0.  0.
        -11    1    3    3    0    0 -0.20802350201E+02 -0.69586599702E+01  0.20158498390E+02  0.29791370895E+02  0.00000000000E+00 0.  1.
         12    1    3    3    0    0  0.33926137274E+02 -0.26964811237E+02 -0.43258979198E+02  0.61232533155E+02  0.00000000000E+00 0. -1.
        -13    1    4    4    0    0 -0.33982149220E+02  0.23389216225E+02  0.84156844243E+02  0.93724150218E+02  0.00000000000E+00 0.  1.
         13    1    4    4    0    0  0.42367742303E+02  0.23472649451E+02  0.13537306170E+02  0.50291644619E+02  0.00000000000E+00 0. -1.
          3    1    1    2  501    0 -0.21509380157E+02 -0.12938394469E+02  0.33361037972E+02  0.41749423239E+02  0.00000000000E+00 0. -1.
<scales pt_clust_5="13000.00000" pt_clust_6="13000.00000" pt_clust_7="13000.00000" pt_clust_8="13000.00000" pt_clust_9="25.10091"></scales>
<clustering>
<clus scale="   25.101">  1  9  2 -1</clus>
<clus scale="   80.179">  5  6 -1 -1</clus>
<clus scale="   88.605">  2  5  1 -1</clus>
<clus scale="   94.499">  7  8 -1 -1</clus>
<clus scale="   25.101">  1  5  2 -1</clus>
</clustering>
</event>
<event>
 9    2  0.6469128E-005  0.1016924E+03  0.7546771E-02  0.1281027E+00
         -1   -1    0    0    0  501 -0.00000000000E+00  0.00000000000E+00  0.36476232921E+03  0.36476232921E+03  0.00000000000E+00 0.  1.
         21   -1    0    0  501  502  0.00000000000E+00 -0.00000000000E+00 -0.63273041164E+02  0.63273041164E+02  0.00000000000E+00 0.  1.
         23    2    1    2    0    0  0.28936250451E+02 -0.28468163347E+02  0.17503963687E+03  0.20137733433E+03  0.90918718591E+02 0.  0.
         24    2    1    2    0    0 -0.50205316878E+02  0.17282455444E+02  0.15875769601E+03  0.18639262894E+03  0.81969195274E+02 0.  0.
        -11    1    4    4    0    0 -0.32890308559E+02 -0.30093590130E+02  0.96237870649E+02  0.10606188906E+03  0.00000000000E+00 0.  1.
         12    1    4    4    0    0 -0.17315008319E+02  0.47376045574E+02  0.62519825359E+02  0.80330739884E+02  0.00000000000E+00 0. -1.
        -13    1    3    3    0    0  0.57074222876E+02 -0.39419947514E+02  0.12328710921E+03  0.14146063225E+03  0.00000000000E+00 0. -1.
         13    1    3    3    0    0 -0.28137972424E+02  0.10951784168E+02  0.51752527665E+02  0.59916702082E+02  0.00000000000E+00 0.  1.
         -2    1    1    2    0  502  0.21269066427E+02  0.11185707902E+02 -0.32308044836E+02  0.40265407101E+02  0.00000000000E+00 0.  1.
<scales pt_clust_5="13000.00000" pt_clust_6="13000.00000" pt_clust_7="13000.00000" pt_clust_8="13000.00000" pt_clust_9="24.03109"></scales>
<clustering>
<clus scale="   24.031">  2  9  1 -1</clus>
<clus scale="   81.969">  5  6 -1 -1</clus>
<clus scale="   90.919">  7  8 -1 -1</clus>
<clus scale="   93.777">  2  5  1 -1</clus>
<clus scale="   24.031">  2  5  1 -1</clus>
</clustering>
</event>
<event>
 9    2  0.6469128E-005  0.1024697E+03  0.7546771E-02  0.1279008E+00
          2   -1    0    0  502    0 -0.00000000000E+00  0.00000000000E+00  0.78590673842E+03  0.78590673842E+03  0.00000000000E+00 0. -1.
         21   -1    0    0  501  502  0.00000000000E+00 -0.00000000000E+00 -0.26111280409E+02  0.26111280409E+02  0.00000000000E+00 0.  1.
         23    2    1    2    0    0  0.50760356118E+02  0.36220863757E+02  0.48679284650E+03  0.49910524540E+03  0.90830643818E+02 0.  0.
         24    2    1    2    0    0 -0.16238789320E+02 -0.27096647668E+02  0.26046501823E+03  0.27506860428E+03  0.82600149789E+02 0.  0.
        -13    1    4    4    0    0  0.15313822120E+02 -0.24081188790E+02  0.26429543611E+02  0.38896498261E+02  0.00000000000E+00 0.  1.
         14    1    4    4    0    0 -0.31552611440E+02 -0.30154588776E+01  0.23403547462E+03  0.23617210602E+03  0.00000000000E+00 0. -1.
        -13    1    3    3    0    0  0.76475576965E+02  0.28527306487E+02  0.40055414769E+03  0.40878594193E+03  0.00000000000E+00 0. -1.
         13    1    3    3    0    0 -0.25715220848E+02  0.76935572696E+01  0.86238698815E+02  0.90319303474E+02  0.00000000000E+00 0.  1.
          1    1    1    2  501    0 -0.34521566798E+02 -0.91242160889E+01  0.12537593279E+02  0.37844169150E+02  0.00000000000E+00 0. -1.
<scales pt_clust_5="13000.00000" pt_clust_6="13000.00000" pt_clust_7="13000.00000" pt_clust_8="13000.00000" pt_clust_9="35.70700"></scales>
<clustering>
<clus scale="   35.707">  2  9  1 -1</clus>
<clus scale="   82.600">  5  6 -1 -1</clus>
<clus scale="   90.831">  7  8 -1 -1</clus>
<clus scale="   95.250">  2  5  1 -1</clus>
<clus scale="   35.707">  2  5  1 -1</clus>
</clustering>
</event>
<event>
 9    2  0.6469128E-005  0.1973942E+03  0.7546771E-02  0.1189435E+00
          2   -1    0    0  502    0 -0.00000000000E+00  0.00000000000E+00  0.12536290546E+04  0.12536290546E+04  0.00000000000E+00 0. -1.
         21   -1    0    0  501  502  0.00000000000E+00 -0.00000000000E+00 -0.47805297077E+02  0.47805297077E+02  0.00000000000E+00 0. -1.
         24    2    1    2    0    0 -0.27197254628E+02  0.26925637030E+00  0.25198156873E+03  0.26555874395E+03  0.79290430357E+02 0.  0.
         23    2    1    2    0    0  0.14059299518E+02 -0.17429906142E+03  0.30197889867E+03  0.36105361052E+03  0.92685639206E+02 0.  0.
        -13    1    3    3    0    0  0.16904769550E+02 -0.22120861860E+02  0.46403849508E+02  0.54114887159E+02  0.00000000000E+00 0.  1.
         14    1    3    3    0    0 -0.44102024179E+02  0.22390118231E+02  0.20557771923E+03  0.21144385679E+03  0.00000000000E+00 0. -1.
        -11    1    4    4    0    0 -0.22850649524E+01 -0.97140993391E+02  0.24554754184E+03  0.26407421196E+03  0.00000000000E+00 0.  1.
         11    1    4    4    0    0  0.16344364470E+02 -0.77158068029E+02  0.56431356829E+02  0.96979398562E+02  0.00000000000E+00 0. -1.
          1    1    1    2  501    0  0.13137955110E+02  0.17402980505E+03  0.65186329012E+03  0.67482199721E+03  0.00000000000E+00 0. -1.
<scales pt_clust_5="13000.00000" pt_clust_6="13000.00000" pt_clust_7="13000.00000" pt_clust_8="13000.00000" pt_clust_9="174.28106"></scales>
<clustering>
<clus scale="   79.290">  5  6 -1 -1</clus>
<clus scale="   83.826">  1  5  2 -1</clus>
<clus scale="   92.686">  7  8 -1 -1</clus>
<clus scale="  174.281">  2  9  1 -1</clus>
<clus scale="  174.281">  2  5  1 -1</clus>
</clustering>
</event>
<event>
 9    2  0.7785649E-005  0.1232469E+03  0.7546771E-02  0.1241890E+00
         21   -1    0    0  501  502  0.00000000000E+00  0.00000000000E+00  0.59741449051E+03  0.59741449051E+03  0.00000000000E+00 0. -1.
          2   -1    0    0  502    0 -0.00000000000E+00 -0.00000000000E+00 -0.41149445874E+03  0.41149445874E+03  0.00000000000E+00 0. -1.
         24    2    1    2    0    0 -0.26586266966E+02 -0.10860928543E+03 -0.28091867064E+03  0.31247102196E+03  0.78867189482E+02 0.  0.
         23    2    1    2    0    0  0.27238706914E+02  0.31387054259E+02 -0.89268607232E+02  0.13499421817E+03  0.92344249268E+02 0.  0.
        -13    1    3    3    0    0  0.21526632112E+02 -0.15923283194E+02 -0.27516768102E+02  0.38394262131E+02  0.00000000000E+00 0.  1.
         14    1    3    3    0    0 -0.48112899077E+02 -0.92686002238E+02 -0.25340190254E+03  0.27407675983E+03  0.00000000000E+00 0. -1.
        -11    1    4    4    0    0  0.14092950226E+02  0.64217287764E+02 -0.61565450787E+02  0.90070949947E+02  0.00000000000E+00 0.  1.
         11    1    4    4    0    0  0.13145756687E+02 -0.32830233504E+02 -0.27703156445E+02  0.44923268223E+02  0.00000000000E+00 0. -1.
          1    1    1    2  501    0 -0.65243994822E+00  0.77222231174E+02  0.55610730965E+03  0.56144370912E+03  0.00000000000E+00 0. -1.
<scales pt_clust_5="13000.00000" pt_clust_6="13000.00000" pt_clust_7="13000.00000" pt_clust_8="13000.00000" pt_clust_9="77.22499"></scales>
<clustering>
<clus scale="   77.225">  1  9  2 -1</clus>
<clus scale="   78.867">  5  6 -1 -1</clus>
<clus scale="   92.344">  7  8 -1 -1</clus>
<clus scale="  113.501">  2  5  1 -1</clus>
<clus scale="   77.225">  1  5  2 -1</clus>
</clustering>
</event>
<event>
 9    2  0.6469128E-005  0.1287661E+03  0.7546771E-02  0.1239956E+00
         21   -1    0    0  501  502  0.00000000000E+00  0.00000000000E+00  0.32032828978E+03  0.32032828978E+03  0.00000000000E+00 0. -1.
          2   -1    0    0  502    0 -0.00000000000E+00 -0.00000000000E+00 -0.10554051904E+03  0.10554051904E+03  0.00000000000E+00 0. -1.
         24    2    1    2    0    0 -0.11969877638E+02 -0.72615397477E+02 -0.26111832516E+02  0.11213381645E+03  0.80472921368E+02 0.  0.
         23    2    1    2    0    0  0.54226970196E+02  0.13363669063E+02  0.18034776655E+03  0.21906211284E+03  0.11110238716E+03 0.  0.
        -13    1    3    3    0    0 -0.34039482978E+02 -0.28978980628E+02  0.16119842251E+02  0.47521753269E+02  0.00000000000E+00 0.  1.
         14    1    3    3    0    0  0.22069605339E+02 -0.43636416849E+02 -0.42231674766E+02  0.64612063184E+02  0.00000000000E+00 0. -1.
        -13    1    4    4    0    0  0.60554261135E+02 -0.38079799191E+02  0.11794148031E+03  0.13793869082E+03  0.00000000000E+00 0. -1.
         13    1    4    4    0    0 -0.63272909385E+01  0.51443468254E+02  0.62406286242E+02  0.81123422013E+02  0.00000000000E+00 0.  1.
          1    1    1    2  501    0 -0.42257092558E+02  0.59251728414E+02  0.60551836696E+02  0.94672879532E+02  0.00000000000E+00 0. -1.
<scales pt_clust_5="13000.00000" pt_clust_6="13000.00000" pt_clust_7="13000.00000" pt_clust_8="13000.00000" pt_clust_9="72.77657"></scales>
<clustering>
<clus scale="   72.777">  1  9  2 -1</clus>
<clus scale="   80.473">  5  6 -1 -1</clus>
<clus scale="  103.503">  2  5  1 -1</clus>
<clus scale="  111.102">  7  8 -1 -1</clus>
<clus scale="   72.777">  1  5  2 -1</clus>
</clustering>
</event>
<event>
 9    2  0.6469128E-005  0.9370883E+02  0.7546771E-02  0.1302641E+00
         21   -1    0    0  501  502  0.00000000000E+00  0.00000000000E+00  0.20169294426E+03  0.20169294426E+03  0.00000000000E+00 0. -1.
          4   -1    0    0  502    0 -0.00000000000E+00 -0.00000000000E+00 -0.63558184747E+02  0.63558184747E+02  0.00000000000E+00 0. -1.
         23    2    1    2    0    0 -0.58888643345E+00 -0.24368094306E+02  0.25268775370E+02  0.97818226496E+02  0.91300293640E+02 0.  0.
         24    2    1    2    0    0 -0.29464880383E+02  0.79600811865E+01  0.10198674494E+03  0.13150506316E+03  0.77205850980E+02 0.  0.
        -13    1    4    4    0    0 -0.34925663424E+02  0.30830503422E+02  0.96799215122E+02  0.10742630011E+03  0.00000000000E+00 0.  1.
         14    1    4    4    0    0  0.54607830410E+01 -0.22870422235E+02  0.51875298198E+01  0.24078763055E+02  0.00000000000E+00 0. -1.
        -11    1    3    3    0    0  0.39540970258E+02 -0.88445482289E+01 -0.10509300385E+02  0.41858807399E+02  0.00000000000E+00 0.  1.
         11    1    3    3    0    0 -0.40129856691E+02 -0.15523546077E+02  0.35778075755E+02  0.55959419097E+02  0.00000000000E+00 0. -1.
          3    1    1    2  501    0  0.30053766817E+02  0.16408013119E+02  0.10879239198E+02  0.35927839344E+02  0.00000000000E+00 0. -1.
<scales pt_clust_5="13000.00000" pt_clust_6="13000.00000" pt_clust_7="13000.00000" pt_clust_8="13000.00000" pt_clust_9="34.24110"></scales>
<clustering>
<clus scale="   34.241">  1  9  2 -1</clus>
<clus scale="   77.206">  5  6 -1 -1</clus>
<clus scale="   80.040">  1  5  2 -1</clus>
<clus scale="   91.300">  7  8 -1 -1</clus>
<clus scale="   34.241">  1  5  2 -1</clus>
</clustering>
</event>
<event>
 9    2  0.6469128E-005  0.9941244E+02  0.7546771E-02  0.1287531E+00
          4   -1    0    0  502    0 -0.00000000000E+00  0.00000000000E+00  0.65028781039E+02  0.65028781039E+02  0.00000000000E+00 0. -1.
         21   -1    0    0  501  502  0.00000000000E+00 -0.00000000000E+00 -0.22642684472E+03  0.22642684472E+03  0.00000000000E+00 0. -1.
         23    2    1    2    0    0  0.31745513213E+02  0.21177582502E+01 -0.19906733496E+02  0.99638768772E+02  0.92300290871E+02 0.  0.
         24    2    1    2    0    0 -0.40329585875E+02 -0.33553191695E+02 -0.96972228309E+02  0.13664600226E+03  0.80723136094E+02 0.  0.
        -13    1    4    4    0    0  0.65986672681E+01  0.22330030353E+02 -0.22445767961E+02  0.32341693905E+02  0.00000000000E+00 0.  1.
         14    1    4    4    0    0 -0.46928253143E+02 -0.55883222048E+02 -0.74526460348E+02  0.10430430836E+03  0.00000000000E+00 0. -1.
        -13    1    3    3    0    0  0.15567376757E+02  0.46904378626E+02 -0.46651697267E+01  0.49639981487E+02  0.00000000000E+00 0. -1.
         13    1    3    3    0    0  0.16178136456E+02 -0.44786620376E+02 -0.15241563769E+02  0.49998787286E+02  0.00000000000E+00 0.  1.
          3    1    1    2  501    0  0.85840726625E+01  0.31435433445E+02 -0.44519101875E+02  0.55170854725E+02  0.00000000000E+00 0. -1.
<scales pt_clust_5="13000.00000" pt_clust_6="13000.00000" pt_clust_7="13000.00000" pt_clust_8="13000.00000" pt_clust_9="32.58639"></scales>
<clustering>
<clus scale="   32.586">  2  9  1 -1</clus>
<clus scale="   80.723">  5  6 -1 -1</clus>
<clus scale="   88.768">  2  5  1 -1</clus>
<clus scale="   92.300">  7  8 -1 -1</clus>
<clus scale="   32.586">  2  5  1 -1</clus>
</clustering>
</event>
<event>
 9    2  0.6469128E-005  0.9105188E+02  0.7546771E-02  0.1306166E+00
         21   -1    0    0  501  502  0.00000000000E+00  0.00000000000E+00  0.59677217810E+02  0.59677217810E+02  0.00000000000E+00 0.  1.
         -3   -1    0    0    0  501 -0.00000000000E+00 -0.00000000000E+00 -0.26449786265E+03  0.26449786265E+03  0.00000000000E+00 0.  1.
         24    2    1    2    0    0 -0.59612935566E+01  0.18301053876E+02 -0.73510810466E+02  0.11038448514E+03  0.80065159158E+02 0.  0.
         23    2    1    2    0    0 -0.32133300357E+02 -0.95616978834E+01 -0.22511940378E+02  0.98185421703E+02  0.89496449746E+02 0.  0.
        -11    1    3    3    0    0 -0.40159523872E+02  0.22753421548E+02 -0.30806405060E+02  0.55493604519E+02  0.00000000000E+00 0.  1.
         12    1    3    3    0    0  0.34198230315E+02 -0.44523676722E+01 -0.42704405406E+02  0.54890880624E+02  0.00000000000E+00 0. -1.
        -13    1    4    4    0    0  0.23617531855E+02 -0.15196425557E+02  0.13923783111E+02  0.31346305951E+02  0.00000000000E+00 0.  1.
         13    1    4    4    0    0 -0.55750832212E+02  0.56347276740E+01 -0.36435723489E+02  0.66839115752E+02  0.00000000000E+00 0. -1.
         -4    1    1    2    0  502  0.38094593913E+02 -0.87393559927E+01 -0.10879789400E+03  0.11560517362E+03  0.00000000000E+00 0.  1.
<scales pt_clust_5="13000.00000" pt_clust_6="13000.00000" pt_clust_7="13000.00000" pt_clust_8="13000.00000" pt_clust_9="39.08422"></scales>
<clustering>
<clus scale="   39.084">  1  9  2 -1</clus>
<clus scale="   80.065">  5  6 -1 -1</clus>
<clus scale="   81.800">  2  5  1 -1</clus>
<clus scale="   89.496">  7  8 -1 -1</clus>
<clus scale="   39.084">  1  5  2 -1</clus>
</clustering>
</event>
<event>
 9    2  0.6469128E-005  0.1121870E+03  0.7546771E-02  0.1260051E+00
         21   -1    0    0  501  502  0.00000000000E+00  0.00000000000E+00  0.69457294678E+02  0.69457294678E+02  0.00000000000E+00 0.  1.
          2   -1    0    0  502    0 -0.00000000000E+00 -0.00000000000E+00 -0.24683525764E+03  0.24683525764E+03  0.00000000000E+00 0. -1.
         23    2    1    2    0    0 -0.11125103387E+02 -0.82698769057E+02 -0.11810016482E+03  0.17079281666E+03  0.90882797942E+02 0.  0.
         24    2    1    2    0    0  0.14942740137E+02  0.44334100371E+02 -0.46588284787E+02  0.10491099458E+03  0.81529446001E+02 0.  0.
        -13    1    4    4    0    0  0.37848845542E+02  0.55806969984E+02 -0.26890734409E+02  0.72595210618E+02  0.00000000000E+00 0.  1.
         14    1    4    4    0    0 -0.22906105405E+02 -0.11472869613E+02 -0.19697550378E+02  0.32315783959E+02  0.00000000000E+00 0. -1.
        -11    1    3    3    0    0  0.32819411416E+02 -0.63883545915E+02 -0.49685110613E+02  0.87331732039E+02  0.00000000000E+00 0.  1.
         11    1    3    3    0    0 -0.43944514803E+02 -0.18815223142E+02 -0.68415054210E+02  0.83461084618E+02  0.00000000000E+00 0. -1.
          1    1    1    2  501    0 -0.38176367502E+01  0.38364668685E+02 -0.12689513354E+02  0.40588741085E+02  0.00000000000E+00 0. -1.
<scales pt_clust_5="13000.00000" pt_clust_6="13000.00000" pt_clust_7="13000.00000" pt_clust_8="13000.00000" pt_clust_9="38.55415"></scales>
<clustering>
<clus scale="   38.554">  1  9  2 -1</clus>
<clus scale="   81.529">  5  6 -1 -1</clus>
<clus scale="   90.883">  7  8 -1 -1</clus>
<clus scale="  104.753">  1  5  2 -1</clus>
<clus scale="   38.554">  1  5  2 -1</clus>
</clustering>
</event>
<event>
 9    2  0.6469128E-005  0.1044932E+03  0.7546771E-02  0.1276379E+00
         21   -1    0    0  501  502  0.00000000000E+00  0.00000000000E+00  0.49994139817E+03  0.49994139817E+03  0.00000000000E+00 0.  1.
          2   -1    0    0  502    0 -0.00000000000E+00 -0.00000000000E+00 -0.51291165170E+02  0.51291165170E+02  0.00000000000E+00 0. -1.
         23    2    1    2    0    0  0.36287380407E+02  0.25710688116E+02  0.15900985848E+03  0.18794528978E+03  0.89785763897E+02 0.  0.
         24    2    1    2    0    0 -0.16453741068E+02  0.56838277779E+02  0.23515357482E+03  0.26240855250E+03  0.10029820168E+03 0.  0.
        -13    1    4    4    0    0  0.18449977730E+02 -0.18909284381E+02  0.10137770880E+03  0.10476355547E+03  0.00000000000E+00 0.  1.
         14    1    4    4    0    0 -0.34903718799E+02  0.75747562160E+02  0.13377586602E+03  0.15764499703E+03  0.00000000000E+00 0. -1.
        -13    1    3    3    0    0  0.25471803820E+02 -0.18327685614E+02  0.11173018328E+02  0.33309956295E+02  0.00000000000E+00 0. -1.
         13    1    3    3    0    0  0.10815576587E+02  0.44038373730E+02  0.14783684015E+03  0.15463533349E+03  0.00000000000E+00 0.  1.
          1    1    1    2  501    0 -0.19833639339E+02 -0.82548965895E+02  0.54486799708E+02  0.10087872106E+03  0.00000000000E+00 0. -1.
<scales pt_clust_5="13000.00000" pt_clust_6="13000.00000" pt_clust_7="13000.00000" pt_clust_8="13000.00000" pt_clust_9="84.89825"></scales>
<clustering>
<clus scale="   84.898">  1  9  2 -1</clus>
<clus scale="   89.786">  7  8 -1 -1</clus>
<clus scale="   94.449">  2  7  1 -1</clus>
<clus scale="  100.298">  5  6 -1 -1</clus>
<clus scale="   84.898">  1  5  2 -1</clus>
</clustering>
</event>
<event>
 9    2  0.6469128E-005  0.1059404E+03  0.7546771E-02  0.1273238E+00
         21   -1    0    0  501  502  0.00000000000E+00  0.00000000000E+00  0.66492796174E+02  0.66492796174E+02  0.00000000000E+00 0.  1.
          2   -1    0    0  502    0 -0.00000000000E+00 -0.00000000000E+00 -0.59496564286E+03  0.59496564286E+03  0.00000000000E+00 0. -1.
         23    2    1    2    0    0 -0.52831258111E+02  0.16091854203E+02 -0.53950543720E+03  0.54998042715E+03  0.91445414704E+02 0.  0.
         24    2    1    2    0    0  0.39716156215E+02 -0.80445188120E+00  0.19173930882E+01  0.89369249101E+02  0.80032281495E+02 0.  0.
        -13    1    4    4    0    0  0.41275380834E+02  0.34619538920E+02  0.20483939551E+01  0.53910717449E+02  0.00000000000E+00 0.  1.
         14    1    4    4    0    0 -0.15592246194E+01 -0.35423990801E+02 -0.13100086688E+00  0.35458531652E+02  0.00000000000E+00 0. -1.
        -13    1    3    3    0    0 -0.74229776169E+02  0.29165382515E+02 -0.45071915128E+03  0.45772091118E+03  0.00000000000E+00 0. -1.
         13    1    3    3    0    0  0.21398518058E+02 -0.13073528312E+02 -0.88786285929E+02  0.92259515968E+02  0.00000000000E+00 0.  1.
          1    1    1    2  501    0  0.13115101896E+02 -0.15287402322E+02  0.91151974317E+01  0.22108762781E+02  0.00000000000E+00 0. -1.
<scales pt_clust_5="13000.00000" pt_clust_6="13000.00000" pt_clust_7="13000.00000" pt_clust_8="13000.00000" pt_clust_9="20.14226"></scales>
<clustering>
<clus scale="   20.142">  1  9  2 -1</clus>
<clus scale="   80.032">  5  6 -1 -1</clus>
<clus scale="   91.445">  7  8 -1 -1</clus>
<clus scale="   96.261">  1  5  2 -1</clus>
<clus scale="   20.142">  1  5  2 -1</clus>
</clustering>
</event>
<event>
 9    2  0.6469128E-005  0.1151662E+03  0.7546771E-02  0.1255361E+00
         21   -1    0    0  501  502  0.00000000000E+00  0.00000000000E+00  0.38024797856E+03  0.38024797856E+03  0.00000000000E+00 0.  1.
         -1   -1    0    0    0  501 -0.00000000000E+00 -0.00000000000E+00 -0.10010863313E+03  0.10010863313E+03  0.00000000000E+00 0.  1.
         24    2    1    2    0    0  0.53624400335E+02  0.40933151798E+02 -0.35428024900E+02  0.11021260202E+03  0.79627717963E+02 0.  0.
         23    2    1    2    0    0 -0.42220443470E+02 -0.77584665647E+02  0.13416697685E+03  0.18472694882E+03  0.91221279065E+02 0.  0.
        -13    1    3    3    0    0  0.36891160994E+02  0.46896910030E+02 -0.56828426324E+02  0.82399926992E+02  0.00000000000E+00 0.  1.
         14    1    3    3    0    0  0.16733239341E+02 -0.59637582316E+01  0.21400401423E+02  0.27812675027E+02  0.00000000000E+00 0. -1.
        -11    1    4    4    0    0 -0.23000552332E+02 -0.96927332467E+02  0.10814532724E+03  0.14703518283E+03  0.00000000000E+00 0.  1.
         11    1    4    4    0    0 -0.19219891138E+02  0.19342666820E+02  0.26021649606E+02  0.37691765988E+02  0.00000000000E+00 0. -1.
         -2    1    1    2    0  502 -0.11403956865E+02  0.36651513849E+02  0.18140039348E+03  0.18541706085E+03  0.00000000000E+00 0.  1.
<scales pt_clust_5="13000.00000" pt_clust_6="13000.00000" pt_clust_7="13000.00000" pt_clust_8="13000.00000" pt_clust_9="38.38468"></scales>
<clustering>
<clus scale="   38.385">  1  9  2 -1</clus>
<clus scale="   79.628">  5  6 -1 -1</clus>
<clus scale="   91.221">  7  8 -1 -1</clus>
<clus scale="  106.219">  2  5  1 -1</clus>
<clus scale="   38.385">  1  5  2 -1</clus>
</clustering>
</event>
<event>
 9    2  0.6469128E-005  0.9599964E+02  0.7546771E-02  0.1293894E+00
         -1   -1    0    0    0  501 -0.00000000000E+00  0.00000000000E+00  0.23684004453E+03  0.23684004453E+03  0.00000000000E+00 0.  1.
         21   -1    0    0  501  502  0.00000000000E+00 -0.00000000000E+00 -0.22623121275E+03  0.22623121275E+03  0.00000000000E+00 0.  1.
         23    2    1    2    0    0 -0.35370618437E+02 -0.11393959134E+00  0.13942896202E+03  0.17055082703E+03  0.91629992459E+02 0.  0.
         24    2    1    2    0    0  0.14614029983E+02 -0.23294776914E+02  0.56968662397E+02  0.10411586703E+03  0.82695034731E+02 0.  0.
        -13    1    4    4    0    0 -0.23722089181E+02 -0.35054613300E+02  0.12276253729E+02  0.44071190526E+02  0.00000000000E+00 0.  1.
         14    1    4    4    0    0  0.38336119164E+02  0.11759836387E+02  0.44692408669E+02  0.60044676508E+02  0.00000000000E+00 0. -1.
        -11    1    3    3    0    0 -0.23476972321E+02 -0.45324240553E+02  0.80691205922E+02  0.95480499183E+02  0.00000000000E+00 0.  1.
         11    1    3    3    0    0 -0.11893646117E+02  0.45210300961E+02  0.58737756102E+02  0.75070327845E+02  0.00000000000E+00 0. -1.
         -2    1    1    2    0  502  0.20756588455E+02  0.23408716505E+02 -0.18578879264E+03  0.18840456322E+03  0.00000000000E+00 0.  1.
<scales pt_clust_5="13000.00000" pt_clust_6="13000.00000" pt_clust_7="13000.00000" pt_clust_8="13000.00000" pt_clust_9="31.28584"></scales>
<clustering>
<clus scale="   31.286">  2  9  1 -1</clus>
<clus scale="   82.695">  5  6 -1 -1</clus>
<clus scale="   87.512">  2  5  1 -1</clus>
<clus scale="   91.630">  7  8 -1 -1</clus>
<clus scale="   31.286">  2  5  1 -1</clus>
</clustering>
</event>
<event>
 9    2  0.6625012E-005  0.1054250E+03  0.7546771E-02  0.1272562E+00
          2   -1    0    0  502    0 -0.00000000000E+00  0.00000000000E+00  0.93072169761E+03  0.93072169761E+03  0.00000000000E+00 0. -1.
         21   -1    0    0  501  502  0.00000000000E+00 -0.00000000000E+00 -0.14151933785E+03  0.14151933785E+03  0.00000000000E+00 0. -1.
         24    2    1    2    0    0 -0.68482174418E+02 -0.34297940565E+01  0.65718331900E+03  0.66609937065E+03  0.84243012216E+02 0.  0.
         23    2    1    2    0    0  0.13020745882E+02 -0.38359704939E+02  0.24992873703E+03  0.26930223791E+03  0.91751375819E+02 0.  0.
        -11    1    3    3    0    0  0.75564470668E+01  0.25767576020E+02  0.14194360174E+03  0.14446125412E+03  0.00000000000E+00 0.  1.
         12    1    3    3    0    0 -0.76038621485E+02 -0.29197370077E+02  0.51523971726E+03  0.52163811653E+03  0.00000000000E+00 0. -1.
        -11    1    4    4    0    0  0.32338045312E+02  0.15361346521E+02  0.50773828028E+02  0.62126498003E+02  0.00000000000E+00 0.  1.
         11    1    4    4    0    0 -0.19317299429E+02 -0.53721051460E+02  0.19915490900E+03  0.20717573991E+03  0.00000000000E+00 0. -1.
          1    1    1    2  501    0  0.55461428536E+02  0.41789498995E+02 -0.11790969627E+03  0.13683942691E+03  0.00000000000E+00 0. -1.
<scales pt_clust_5="13000.00000" pt_clust_6="13000.00000" pt_clust_7="13000.00000" pt_clust_8="13000.00000" pt_clust_9="69.44301"></scales>
<clustering>
<clus scale="   69.443">  2  9  1 -1</clus>
<clus scale="   84.243">  5  6 -1 -1</clus>
<clus scale="   91.751">  7  8 -1 -1</clus>
<clus scale="   98.960">  1  5  2 -1</clus>
<clus scale="   69.443">  2  5  1 -1</clus>
</clustering>
</event>
<event>
 9    2  0.6469128E-005  0.9626005E+02  0.7546771E-02  0.1296327E+00
         21   -1    0    0  501  502  0.00000000000E+00  0.00000000000E+00  0.36646580253E+03  0.36646580253E+03  0.00000000000E+00 0. -1.
          2   -1    0    0  502    0 -0.00000000000E+00 -0.00000000000E+00 -0.51739815845E+02  0.51739815845E+02  0.00000000000E+00 0. -1.
         24    2    1    2    0    0  0.17186009140E+02  0.23230174531E+02  0.16345055606E+02  0.87144763437E+02  0.80573252589E+02 0.  0.
         23    2    1    2    0    0  0.15781984435E+02  0.22025553573E+01  0.15806316984E+03  0.18469560473E+03  0.94204981095E+02 0.  0.
        -11    1    3    3    0    0 -0.31743293893E+02  0.66714084337E+01 -0.15600673939E+01  0.32474269937E+02  0.00000000000E+00 0.  1.
         12    1    3    3    0    0  0.48929303032E+02  0.16558766098E+02  0.17905123000E+02  0.54670493500E+02  0.00000000000E+00 0. -1.
        -13    1    4    4    0    0 -0.19857099710E+02 -0.30776186690E+02  0.11172976222E+03  0.11757983603E+03  0.00000000000E+00 0.  1.
         13    1    4    4    0    0  0.35639084146E+02  0.32978742048E+02  0.46333407624E+02  0.67115768698E+02  0.00000000000E+00 0. -1.
          1    1    1    2  501    0 -0.32967993575E+02 -0.25432729889E+02  0.14031776124E+03  0.14636525021E+03  0.00000000000E+00 0. -1.
<scales pt_clust_5="13000.00000" pt_clust_6="13000.00000" pt_clust_7="13000.00000" pt_clust_8="13000.00000" pt_clust_9="41.63787"></scales>
<clustering>
<clus scale="   41.638">  1  9  2 -1</clus>
<clus scale="   80.573">  5  6 -1 -1</clus>
<clus scale="   82.967">  2  5  1 -1</clus>
<clus scale="   94.205">  7  8 -1 -1</clus>
<clus scale="   41.638">  1  5  2 -1</clus>
</clustering>
</event>
<event>
 9    2  0.6469128E-005  0.9243558E+02  0.7546771E-02  0.1302910E+00
          2   -1    0    0  502    0 -0.00000000000E+00  0.00000000000E+00  0.37821864004E+03  0.37821864004E+03  0.00000000000E+00 0. -1.
         21   -1    0    0  501  502  0.00000000000E+00 -0.00000000000E+00 -0.68817312132E+02  0.68817312132E+02  0.00000000000E+00 0. -1.
         24    2    1    2    0    0 -0.93397395096E+01  0.11974526914E+02  0.25446950993E+03  0.26763787946E+03  0.81514925070E+02 0.  0.
         23    2    1    2    0    0  0.47973472452E+02  0.33255836922E+02  0.18899732848E+02  0.10985195641E+03  0.91119963108E+02 0.  0.
        -13    1    3    3    0    0  0.49312405611E+01 -0.32186422574E+02  0.66780175247E+02  0.74295859492E+02  0.00000000000E+00 0.  1.
         14    1    3    3    0    0 -0.14270980071E+02  0.44160949488E+02  0.18768933469E+03  0.19334201997E+03  0.00000000000E+00 0. -1.
        -11    1    4    4    0    0  0.61688063630E+02  0.53445328125E+02  0.23670433927E+02  0.84982996741E+02  0.00000000000E+00 0. -1.
         11    1    4    4    0    0 -0.13714591178E+02 -0.20189491203E+02 -0.47707010792E+01  0.24868959669E+02  0.00000000000E+00 0.  1.
          1    1    1    2  501    0 -0.38633732943E+02 -0.45230363836E+02  0.36032085129E+02  0.69546116301E+02  0.00000000000E+00 0. -1.
<scales pt_clust_5="13000.00000" pt_clust_6="13000.00000" pt_clust_7="13000.00000" pt_clust_8="13000.00000" pt_clust_9="59.48404"></scales>
<clustering>
<clus scale="   59.484">  2  9  1 -1</clus>
<clus scale="   81.515">  5  6 -1 -1</clus>
<clus scale="   82.983">  1  5  2 -1</clus>
<clus scale="   91.120">  7  8 -1 -1</clus>
<clus scale="   59.484">  2  5  1 -1</clus>
</clustering>
</event>
<event>
 9    2  0.6469128E-005  0.9867558E+02  0.7546771E-02  0.1285544E+00
         21   -1    0    0  501  502  0.00000000000E+00  0.00000000000E+00  0.33793444353E+02  0.33793444353E+02  0.00000000000E+00 0.  1.
          2   -1    0    0  502    0 -0.00000000000E+00 -0.00000000000E+00 -0.46243443561E+03  0.46243443561E+03  0.00000000000E+00 0. -1.
         24    2    1    2    0    0 -0.52895671632E+02 -0.13413561565E+02 -0.28609870254E+03  0.30209137466E+03  0.80180143014E+02 0.  0.
         23    2    1    2    0    0  0.34454833155E+02  0.23368518913E+01 -0.62583151270E+02  0.11133420050E+03  0.85358403060E+02 0.  0.
        -13    1    3    3    0    0 -0.68242265414E+01  0.31066074103E+02 -0.74268748421E+02  0.80793056756E+02  0.00000000000E+00 0.  1.
         14    1    3    3    0    0 -0.46071445091E+02 -0.44479635668E+02 -0.21182995412E+03  0.22129831790E+03  0.00000000000E+00 0. -1.
        -11    1    4    4    0    0  0.38929338602E+02  0.32739865159E+02 -0.12184342258E+02  0.52305357000E+02  0.00000000000E+00 0.  1.
         11    1    4    4    0    0 -0.44745054471E+01 -0.30403013268E+02 -0.50398809012E+02  0.59028843497E+02  0.00000000000E+00 0. -1.
          1    1    1    2  501    0  0.18440838477E+02  0.11076709674E+02 -0.79959137443E+02  0.82802304808E+02  0.00000000000E+00 0. -1.
<scales pt_clust_5="13000.00000" pt_clust_6="13000.00000" pt_clust_7="13000.00000" pt_clust_8="13000.00000" pt_clust_9="21.51182"></scales>
<clustering>
<clus scale="   21.512">  1  9  2 -1</clus>
<clus scale="   80.180">  5  6 -1 -1</clus>
<clus scale="   85.358">  7  8 -1 -1</clus>
<clus scale="   94.232">  2  5  1 -1</clus>
<clus scale="   21.512">  1  5  2 -1</clus>
</clustering>
</event>
<event>
 9    2  0.6469128E-005  0.9439492E+02  0.7546771E-02  0.1297344E+00
         -1   -1    0    0    0  501 -0.00000000000E+00  0.00000000000E+00  0.96033736962E+02  0.96033736962E+02  0.00000000000E+00 0.  1.
         21   -1    0    0  501  502  0.00000000000E+00 -0.00000000000E+00 -0.23480824207E+03  0.23480824207E+03  0.00000000000E+00 0.  1.
         23    2    1    2    0    0  0.24341562191E+02 -0.17509579758E+02  0.33940297813E+02  0.10079063305E+03  0.90042827928E+02 0.  0.
         24    2    1    2    0    0 -0.39595849914E+02 -0.34698273197E+02 -0.10160798616E+03  0.14052742407E+03  0.81559625873E+02 0.  0.
        -11    1    4    4    0    0 -0.32813971534E+02  0.12528838560E+02 -0.81509423895E+02  0.88755364385E+02  0.00000000000E+00 0.  1.
         12    1    4    4    0    0 -0.67818783802E+01 -0.47227111757E+02 -0.20098562260E+02  0.51772059687E+02  0.00000000000E+00 0. -1.
        -13    1    3    3    0    0  0.42783982497E+02 -0.44582789933E+02  0.26291401063E+02  0.67151560566E+02  0.00000000000E+00 0.  1.
         13    1    3    3    0    0 -0.18442420307E+02  0.27073210175E+02  0.76488967499E+01  0.33639072482E+02  0.00000000000E+00 0. -1.
         -2    1    1    2    0  502  0.15254287724E+02  0.52207852955E+02 -0.71106816768E+02  0.89523921914E+02  0.00000000000E+00 0.  1.
<scales pt_clust_5="13000.00000" pt_clust_6="13000.00000" pt_clust_7="13000.00000" pt_clust_8="13000.00000" pt_clust_9="54.39075"></scales>
<clustering>
<clus scale="   54.391">  2  9  1 -1</clus>
<clus scale="   81.560">  5  6 -1 -1</clus>
<clus scale="   86.340">  2  5  1 -1</clus>
<clus scale="   90.043">  7  8 -1 -1</clus>
<clus scale="   54.391">  2  5  1 -1</clus>
</clustering>
</event>
<event>
 9    2  0.6469128E-005  0.1113115E+03  0.7546771E-02  0.1262460E+00
         21   -1    0    0  501  502  0.00000000000E+00  0.00000000000E+00  0.32245242364E+02  0.32245242364E+02  0.00000000000E+00 0.  1.
          2   -1    0    0  502    0 -0.00000000000E+00 -0.00000000000E+00 -0.84237822001E+03  0.84237822001E+03  0.00000000000E+00 0. -1.
         24    2    1    2    0    0  0.25141552152E+02 -0.83023454346E+02 -0.41499046325E+03  0.43131800485E+03  0.79329345786E+02 0.  0.
         23    2    1    2    0    0 -0.14958051093E+02  0.75656753094E+01 -0.90128888819E+02  0.12893164834E+03  0.90659641571E+02 0.  0.
        -11    1    3    3    0    0  0.21212244735E+02  0.35035470675E+01 -0.31301562084E+02  0.37973964208E+02  0.00000000000E+00 0.  1.
         12    1    3    3    0    0  0.39293074169E+01 -0.86527001414E+02 -0.38368890117E+03  0.39334404064E+03  0.00000000000E+00 0. -1.
        -11    1    4    4    0    0  0.37174942860E+02 -0.18221829924E+01 -0.24357303240E+02  0.44481175216E+02  0.00000000000E+00 0.  1.
         11    1    4    4    0    0 -0.52132993953E+02  0.93878583018E+01 -0.65771585579E+02  0.84450473128E+02  0.00000000000E+00 0. -1.
          1    1    1    2  501    0 -0.10183501059E+02  0.75457779037E+02 -0.30501362558E+03  0.31437380918E+03  0.00000000000E+00 0. -1.
<scales pt_clust_5="13000.00000" pt_clust_6="13000.00000" pt_clust_7="13000.00000" pt_clust_8="13000.00000" pt_clust_9="76.14188"></scales>
<clustering>
<clus scale="   76.142">  1  9  2 -1</clus>
<clus scale="   79.329">  5  6 -1 -1</clus>
<clus scale="   90.660">  7  8 -1 -1</clus>
<clus scale="  102.295">  2  5  1 -1</clus>
<clus scale="   76.142">  1  5  2 -1</clus>
</clustering>
</event>
<event>
 9    2  0.6469128E-005  0.1034279E+03  0.7546771E-02  0.1278257E+00
         21   -1    0    0  501  502  0.00000000000E+00  0.00000000000E+00  0.53154348524E+02  0.53154348524E+02  0.00000000000E+00 0. -1.
          2   -1    0    0  502    0 -0.00000000000E+00 -0.00000000000E+00 -0.65840920301E+03  0.65840920301E+03  0.00000000000E+00 0. -1.
         24    2    1    2    0    0  0.15455286006E+02 -0.51548135087E+02 -0.45958634093E+03  0.46970865320E+03  0.80687905049E+02 0.  0.
         23    2    1    2    0    0 -0.45712888763E+00  0.35086678743E+02 -0.17763861531E+03  0.20289322912E+03  0.91536335842E+02 0.  0.
        -13    1    3    3    0    0  0.19707468697E+02 -0.72605669930E+02 -0.37142652769E+03  0.37896917170E+03  0.00000000000E+00 0.  1.
         14    1    3    3    0    0 -0.42521826909E+01  0.21057534843E+02 -0.88159813245E+02  0.90739481499E+02  0.00000000000E+00 0. -1.
        -13    1    4    4    0    0 -0.27128250020E+02 -0.30847167491E+01 -0.10275386109E+02  0.29172606778E+02  0.00000000000E+00 0.  1.
         13    1    4    4    0    0  0.26671121132E+02  0.38171395492E+02 -0.16736322920E+03  0.17372062234E+03  0.00000000000E+00 0. -1.
          1    1    1    2  501    0 -0.14998157119E+02  0.16461456344E+02  0.31970101758E+02  0.38961669219E+02  0.00000000000E+00 0. -1.
<scales pt_clust_5="13000.00000" pt_clust_6="13000.00000" pt_clust_7="13000.00000" pt_clust_8="13000.00000" pt_clust_9="22.26936"></scales>
<clustering>
<clus scale="   22.269">  1  9  2 -1</clus>
<clus scale="   80.688">  5  6 -1 -1</clus>
<clus scale="   91.536">  7  8 -1 -1</clus>
<clus scale="   93.963">  2  5  1 -1</clus>
<clus scale="   22.269">  1  5  2 -1</clus>
</clustering>
</event>
<event>
 9    2  0.6469128E-005  0.9643528E+02  0.7546771E-02  0.1292278E+00
         21   -1    0    0  501  502  0.00000000000E+00  0.00000000000E+00  0.86565506436E+02  0.86565506436E+02  0.00000000000E+00 0.  1.
          4   -1    0    0  502    0 -0.00000000000E+00 -0.00000000000E+00 -0.34335399238E+03  0.34335399238E+03  0.00000000000E+00 0. -1.
         24    2    1    2    0    0  0.22102196339E+02  0.32650238905E+02 -0.28453411717E+03  0.29836592728E+03  0.80672284866E+02 0.  0.
         23    2    1    2    0    0 -0.32877257602E+02 -0.11992389179E+01  0.26121019894E+02  0.98268338962E+02  0.88836965958E+02 0.  0.
        -13    1    3    3    0    0 -0.11428619833E+02 -0.22421671827E+02 -0.72367144563E+02  0.76618198432E+02  0.00000000000E+00 0.  1.
         14    1    3    3    0    0  0.33530816171E+02  0.55071910732E+02 -0.21216697261E+03  0.22174772885E+03  0.00000000000E+00 0. -1.
        -11    1    4    4    0    0 -0.39897596520E+01  0.38603123284E+02  0.29829732069E+02  0.48948260691E+02  0.00000000000E+00 0. -1.
         11    1    4    4    0    0 -0.28887497950E+02 -0.39802362202E+02 -0.37087121742E+01  0.49320078271E+02  0.00000000000E+00 0.  1.
          3    1    1    2  501    0  0.10775061263E+02 -0.31450999987E+02  0.16246113326E+01  0.33285232572E+02  0.00000000000E+00 0. -1.
<scales pt_clust_5="13000.00000" pt_clust_6="13000.00000" pt_clust_7="13000.00000" pt_clust_8="13000.00000" pt_clust_9="33.24556"></scales>
<clustering>
<clus scale="   33.246">  1  9  2 -1</clus>
<clus scale="   80.672">  5  6 -1 -1</clus>
<clus scale="   88.837">  7  8 -1 -1</clus>
<clus scale="   88.971">  2  5  1 -1</clus>
<clus scale="   33.246">  1  5  2 -1</clus>
</clustering>
</event>
<event>
 9    2  0.6469128E-005  0.9904524E+02  0.7546771E-02  0.1291038E+00
         -1   -1    0    0    0  501 -0.00000000000E+00  0.00000000000E+00  0.30297148076E+02  0.30297148076E+02  0.00000000000E+00 0.  1.
         21   -1    0    0  501  502  0.00000000000E+00 -0.00000000000E+00 -0.46764301626E+03  0.46764301626E+03  0.00000000000E+00 0.  1.
         24    2    1    2    0    0 -0.10964386968E+02 -0.18464970453E+02 -0.70844415397E+02  0.10935402104E+03  0.80487252460E+02 0.  0.
         23    2    1    2    0    0  0.10606602886E+01  0.37783112739E+02 -0.33331488996E+03  0.34892984020E+03  0.96044411090E+02 0.  0.
        -11    1    3    3    0    0  0.23663203289E+02 -0.13066352762E+02 -0.69174506842E+02  0.74268359086E+02  0.00000000000E+00 0.  1.
         12    1    3    3    0    0 -0.34627590257E+02 -0.53986176906E+01 -0.16699085545E+01  0.35085661951E+02  0.00000000000E+00 0. -1.
        -11    1    4    4    0    0 -0.14916576137E+02 -0.15487176131E+02 -0.16062145042E+02  0.26839325095E+02  0.00000000000E+00 0. -1.
         11    1    4    4    0    0  0.15977236426E+02  0.53270288871E+02 -0.31725274492E+03  0.32209051510E+03  0.00000000000E+00 0.  1.
         -2    1    1    2    0  502  0.99037266790E+01 -0.19318142287E+02 -0.33186562823E+02  0.39656303100E+02  0.00000000000E+00 0.  1.
<scales pt_clust_5="13000.00000" pt_clust_6="13000.00000" pt_clust_7="13000.00000" pt_clust_8="13000.00000" pt_clust_9="21.70887"></scales>
<clustering>
<clus scale="   21.709">  2  9  1 -1</clus>
<clus scale="   80.487">  5  6 -1 -1</clus>
<clus scale="   84.045">  1  5  2 -1</clus>
<clus scale="   96.044">  7  8 -1 -1</clus>
<clus scale="   21.709">  2  5  1 -1</clus>
</clustering>
</event>
<event>
 9    2  0.6469128E-005  0.1251847E+03  0.7546771E-02  0.1238967E+00
          2   -1    0    0  502    0 -0.00000000000E+00  0.00000000000E+00  0.25167824280E+03  0.25167824280E+03  0.00000000000E+00 0. -1.
         21   -1    0    0  501  502  0.00000000000E+00 -0.00000000000E+00 -0.14429320294E+03  0.14429320294E+03  0.00000000000E+00 0.  1.
         23    2    1    2    0    0  0.32625584696E+02  0.89801009665E+02  0.18934765771E+03  0.23051538150E+03  0.90311436228E+02 0.  0.
         24    2    1    2    0    0 -0.33165482131E+02 -0.39230812342E+02 -0.65190452224E+02  0.11217434235E+03  0.75460467659E+02 0.  0.
        -11    1    4    4    0    0 -0.57476963342E+02 -0.28230430766E+02 -0.40154760631E+02  0.75584147397E+02  0.00000000000E+00 0.  1.
         12    1    4    4    0    0  0.24311481211E+02 -0.11000381576E+02 -0.25035691593E+02  0.36590194958E+02  0.00000000000E+00 0. -1.
        -11    1    3    3    0    0  0.49980060249E+02  0.40552501058E+02  0.15548483954E+03  0.16827966927E+03  0.00000000000E+00 0.  1.
         11    1    3    3    0    0 -0.17354475552E+02  0.49248508607E+02  0.33862818174E+02  0.62235712227E+02  0.00000000000E+00 0. -1.
          1    1    1    2  501    0  0.53989743493E+00 -0.50570197323E+02 -0.16772165634E+02  0.53281721881E+02  0.00000000000E+00 0. -1.
<scales pt_clust_5="13000.00000" pt_clust_6="13000.00000" pt_clust_7="13000.00000" pt_clust_8="13000.00000" pt_clust_9="50.57308"></scales>
<clustering>
<clus scale="   50.573">  2  9  1 -1</clus>
<clus scale="   75.460">  5  6 -1 -1</clus>
<clus scale="   90.311">  7  8 -1 -1</clus>
<clus scale="  114.932">  2  5  1 -1</clus>
<clus scale="   50.573">  2  5  1 -1</clus>
</clustering>
</event>
<event>
 9    2  0.6469128E-005  0.1325648E+03  0.7546771E-02  0.1227536E+00
          2   -1    0    0  502    0 -0.00000000000E+00  0.00000000000E+00  0.40674629595E+03  0.40674629595E+03  0.00000000000E+00 0. -1.
         21   -1    0    0  501  502  0.00000000000E+00 -0.00000000000E+00 -0.15856768163E+03  0.15856768163E+03  0.00000000000E+00 0. -1.
         24    2    1    2    0    0  0.53008999727E+02  0.78729166383E+02  0.21328920148E+03  0.24528722057E+03  0.75268196574E+02 0.  0.
         23    2    1    2    0    0 -0.10421208886E+03 -0.41254009195E+02  0.13754432917E+03  0.19934463080E+03  0.90872364353E+02 0.  0.
        -13    1    3    3    0    0 -0.90314315742E+01  0.45294832811E+02  0.11839552490E+03  0.12708536088E+03  0.00000000000E+00 0.  1.
         14    1    3    3    0    0  0.62040431301E+02  0.33434333572E+02  0.94893676579E+02  0.11820185968E+03  0.00000000000E+00 0. -1.
        -13    1    4    4    0    0 -0.11988554060E+02 -0.26168153629E+02 -0.46851130852E+01  0.29162441212E+02  0.00000000000E+00 0.  1.
         13    1    4    4    0    0 -0.92223534796E+02 -0.15085855566E+02  0.14222944226E+03  0.17018218959E+03  0.00000000000E+00 0. -1.
          1    1    1    2  501    0  0.51203089129E+02 -0.37475157187E+02 -0.10265491632E+03  0.12068212622E+03  0.00000000000E+00 0. -1.
<scales pt_clust_5="13000.00000" pt_clust_6="13000.00000" pt_clust_7="13000.00000" pt_clust_8="13000.00000" pt_clust_9="63.45190"></scales>
<clustering>
<clus scale="   63.452">  2  9  1 -1</clus>
<clus scale="   75.268">  5  6 -1 -1</clus>
<clus scale="   90.872">  7  8 -1 -1</clus>
<clus scale="  122.397">  1  5  2 -1</clus>
<clus scale="   63.452">  2  5  1 -1</clus>
</clustering>
</event>
<event>
 9    2  0.6469128E-005  0.1757849E+03  0.7546771E-02  0.1206950E+00
          2   -1    0    0  502    0 -0.00000000000E+00  0.00000000000E+00  0.74451225452E+03  0.74451225452E+03  0.00000000000E+00 0. -1.
         21   -1    0    0  501  502  0.00000000000E+00 -0.00000000000E+00 -0.14360856338E+03  0.14360856338E+03  0.00000000000E+00 0. -1.
         23    2    1    2    0    0  0.83874555401E+01  0.88071572438E+01  0.63920599474E+02  0.10321611637E+03  0.80123705686E+02 0.  0.
         24    2    1    2    0    0  0.14352119569E+03 -0.47124034475E+02  0.59399238781E+03  0.61818793199E+03  0.80686766189E+02 0.  0.
        -13    1    4    4    0    0  0.31624946031E+02 -0.36234618367E+02  0.92588426076E+02  0.10433456485E+03  0.00000000000E+00 0.  1.
         14    1    4    4    0    0  0.11189624965E+03 -0.10889416108E+02  0.50140396174E+03  0.51385336714E+03  0.00000000000E+00 0. -1.
        -13    1    3    3    0    0  0.54721782977E+01  0.40405243411E+02  0.58060107832E+02  0.70947195518E+02  0.00000000000E+00 0. -1.
         13    1    3    3    0    0  0.29152772424E+01 -0.31598086167E+02  0.58604916423E+01  0.32268920855E+02  0.00000000000E+00 0.  1.
          1    1    1    2  501    0 -0.15190865123E+03  0.38316877231E+02 -0.57009296154E+02  0.16671676954E+03  0.00000000000E+00 0. -1.
<scales pt_clust_5="13000.00000" pt_clust_6="13000.00000" pt_clust_7="13000.00000" pt_clust_8="13000.00000" pt_clust_9="156.17288"></scales>
<clustering>
<clus scale="   80.124">  7  8 -1 -1</clus>
<clus scale="   80.687">  5  6 -1 -1</clus>
<clus scale="   81.042">  1  7  2 -1</clus>
<clus scale="  156.173">  2  9  1 -1</clus>
<clus scale="  156.173">  2  5  1 -1</clus>
</clustering>
</event>
<event>
 9    2  0.6469128E-005  0.1330615E+03  0.7546771E-02  0.1226218E+00
          2   -1    0    0  502    0 -0.00000000000E+00  0.00000000000E+00  0.33352205531E+02  0.33352205531E+02  0.00000000000E+00 0. -1.
         21   -1    0    0  501  502  0.00000000000E+00 -0.00000000000E+00 -0.83359153647E+03  0.83359153647E+03  0.00000000000E+00 0. -1.
         23    2    1    2    0    0  0.90970459249E+02  0.44055486688E+02 -0.20267841291E+03  0.24481264913E+03  0.92941829927E+02 0.  0.
         24    2    1    2    0    0 -0.55066021721E+02 -0.68136070502E+02 -0.51969412337E+03  0.53306796435E+03  0.80029256558E+02 0.  0.
        -13    1    4    4    0    0 -0.72236013417E+02 -0.32772210541E+02 -0.34253840123E+03  0.35160292339E+03  0.00000000000E+00 0.  1.
         14    1    4    4    0    0  0.17169991697E+02 -0.35363859961E+02 -0.17715572214E+03  0.18146504096E+03  0.00000000000E+00 0. -1.
        -11    1    3    3    0    0 -0.28853532465E+00 -0.23563448810E+02 -0.39540298167E+02  0.46029931041E+02  0.00000000000E+00 0.  1.
         11    1    3    3    0    0  0.91258994574E+02  0.67618935498E+02 -0.16313811474E+03  0.19878271809E+03  0.00000000000E+00 0. -1.
          1    1    1    2  501    0 -0.35904437528E+02  0.24080583814E+02 -0.77866794667E+02  0.89063128525E+02  0.00000000000E+00 0. -1.
<scales pt_clust_5="13000.00000" pt_clust_6="13000.00000" pt_clust_7="13000.00000" pt_clust_8="13000.00000" pt_clust_9="43.23199"></scales>
<clustering>
<clus scale="   43.232">  2  9  1 -1</clus>
<clus scale="   80.029">  5  6 -1 -1</clus>
<clus scale="   92.942">  7  8 -1 -1</clus>
<clus scale="  124.386">  2  5  1 -1</clus>
<clus scale="   43.232">  2  5  1 -1</clus>
</clustering>
</event>
<event>
 9    2  0.6469128E-005  0.9660573E+02  0.7546771E-02  0.1293608E+00
         21   -1    0    0  501  502  0.00000000000E+00  0.00000000000E+00  0.50711425837E+02  0.50711425837E+02  0.00000000000E+00 0.  1.
         -1   -1    0    0    0  501 -0.00000000000E+00 -0.00000000000E+00 -0.26351178000E+03  0.26351178000E+03  0.00000000000E+00 0.  1.
         23    2    1    2    0    0 -0.60407426053E+01  0.35202898669E+02 -0.99847533620E+02  0.13952961649E+03  0.90682133084E+02 0.  0.
         24    2    1    2    0    0 -0.33550766416E+02 -0.26145179391E+02 -0.61987728815E+02  0.10952480511E+03  0.79649105942E+02 0.  0.
        -13    1    4    4    0    0 -0.47183162621E+02  0.12858647602E+02 -0.35798487372E+02  0.60606330950E+02  0.00000000000E+00 0.  1.
         14    1    4    4    0    0  0.13632396205E+02 -0.39003826993E+02 -0.26189241443E+02  0.48918474156E+02  0.00000000000E+00 0. -1.
        -11    1    3    3    0    0 -0.46486075211E+02  0.26865106210E+02 -0.71610825739E+02  0.89503069687E+02  0.00000000000E+00 0. -1.
         11    1    3    3    0    0  0.40445332606E+02  0.83377924594E+01 -0.28236707881E+02  0.50026546799E+02  0.00000000000E+00 0.  1.
         -2    1    1    2    0  502  0.39591509021E+02 -0.90577192781E+01 -0.50965091728E+02  0.65168784245E+02  0.00000000000E+00 0.  1.
<scales pt_clust_5="13000.00000" pt_clust_6="13000.00000" pt_clust_7="13000.00000" pt_clust_8="13000.00000" pt_clust_9="40.61442"></scales>
<clustering>
<clus scale="   40.614">  1  9  2 -1</clus>
<clus scale="   79.649">  5  6 -1 -1</clus>
<clus scale="   86.333">  1  5  2 -1</clus>
<clus scale="   90.682">  7  8 -1 -1</clus>
<clus scale="   40.614">  1  5  2 -1</clus>
</clustering>
</event>
<event>
 9    2  0.6469128E-005  0.1524721E+03  0.7546771E-02  0.1199357E+00
         21   -1    0    0  501  502  0.00000000000E+00  0.00000000000E+00  0.83709969536E+02  0.83709969536E+02  0.00000000000E+00 0.  1.
          2   -1    0    0  502    0 -0.00000000000E+00 -0.00000000000E+00 -0.57723614788E+03  0.57723614788E+03  0.00000000000E+00 0. -1.
         23    2    1    2    0    0  0.99310632240E+01 -0.10581390602E+03 -0.92138053757E+02  0.16789818196E+03  0.91679713298E+02 0.  0.
         24    2    1    2    0    0  0.32252612993E+01  0.14058471861E+03 -0.10272781951E+03  0.19208269475E+03  0.81044995546E+02 0.  0.
        -13    1    4    4    0    0 -0.18913841174E+02  0.19686152663E+02 -0.52760847882E+02  0.59405261247E+02  0.00000000000E+00 0.  1.
         14    1    4    4    0    0  0.22139102473E+02  0.12089856595E+03 -0.49966971625E+02  0.13267743350E+03  0.00000000000E+00 0. -1.
        -11    1    3    3    0    0  0.32087474934E+02 -0.11265760552E+03 -0.75595907205E+02  0.13941335415E+03  0.00000000000E+00 0.  1.
         11    1    3    3    0    0 -0.22156411710E+02  0.68436994989E+01 -0.16542146552E+02  0.28484827807E+02  0.00000000000E+00 0. -1.
          1    1    1    2  501    0 -0.13156324523E+02 -0.34770812590E+02 -0.29866030508E+03  0.30096524070E+03  0.00000000000E+00 0. -1.
<scales pt_clust_5="13000.00000" pt_clust_6="13000.00000" pt_clust_7="13000.00000" pt_clust_8="13000.00000" pt_clust_9="37.17660"></scales>
<clustering>
<clus scale="   37.177">  1  9  2 -1</clus>
<clus scale="   81.045">  5  6 -1 -1</clus>
<clus scale="   91.680">  7  8 -1 -1</clus>
<clus scale="  146.325">  1  5  2 -1</clus>
<clus scale="   37.177">  1  5  2 -1</clus>
</clustering>
</event>
<event>
 9    2  0.6469128E-005  0.1064254E+03  0.7546771E-02  0.1271836E+00
          4   -1    0    0  502    0 -0.00000000000E+00  0.00000000000E+00  0.28963181867E+03  0.28963181867E+03  0.00000000000E+00 0. -1.
         21   -1    0    0  501  502  0.00000000000E+00 -0.00000000000E+00 -0.60357568595E+02  0.60357568595E+02  0.00000000000E+00 0.  1.
         24    2    1    2    0    0  0.63138548890E+02  0.50155907977E+01  0.17989769201E+03  0.20666936440E+03  0.79607877030E+02 0.  0.
         23    2    1    2    0    0 -0.41919429778E+02  0.96020904728E+01  0.58670360782E+02  0.11592837468E+03  0.90264821982E+02 0.  0.
        -11    1    3    3    0    0 -0.93223777121E+01  0.24881221424E+02  0.44998262185E+02  0.52257300978E+02  0.00000000000E+00 0.  1.
         12    1    3    3    0    0  0.72460926602E+02 -0.19865630627E+02  0.13489942982E+03  0.15441206342E+03  0.00000000000E+00 0. -1.
        -11    1    4    4    0    0 -0.42822745772E+02  0.46420737982E+02  0.36942197634E+02  0.73166921736E+02  0.00000000000E+00 0.  1.
         11    1    4    4    0    0  0.90331599379E+00 -0.36818647509E+02  0.21728163149E+02  0.42761452945E+02  0.00000000000E+00 0. -1.
          3    1    1    2  501    0 -0.21219119112E+02 -0.14617681270E+02 -0.92938027106E+01  0.27391648187E+02  0.00000000000E+00 0. -1.
<scales pt_clust_5="13000.00000" pt_clust_6="13000.00000" pt_clust_7="13000.00000" pt_clust_8="13000.00000" pt_clust_9="25.76679"></scales>
<clustering>
<clus scale="   25.767">  2  9  1 -1</clus>
<clus scale="   79.608">  5  6 -1 -1</clus>
<clus scale="   90.265">  7  8 -1 -1</clus>
<clus scale="   97.550">  1  5  2 -1</clus>
<clus scale="   25.767">  2  5  1 -1</clus>
</clustering>
</event>
<event>
 9    2  0.6469128E-005  0.1001050E+03  0.7546771E-02  0.1280471E+00
         -3   -1    0    0    0  501 -0.00000000000E+00  0.00000000000E+00  0.41101598838E+03  0.41101598838E+03  0.00000000000E+00 0.  1.
         21   -1    0    0  501  502  0.00000000000E+00 -0.00000000000E+00 -0.37129261456E+02  0.37129261456E+02  0.00000000000E+00 0.  1.
         24    2    1    2    0    0  0.10343426358E+02 -0.43753616402E+02  0.24857917960E+03  0.26804189695E+03  0.89629708092E+02 0.  0.
         23    2    1    2    0    0 -0.33098439031E+02  0.35083866193E+02  0.80832841203E+02  0.12939877070E+03  0.88790254576E+02 0.  0.
        -13    1    3    3    0    0  0.35755376848E+02 -0.49657510462E+02  0.22396725535E+03  0.23217589622E+03  0.00000000000E+00 0.  1.
         14    1    3    3    0    0 -0.25411950490E+02  0.59038940600E+01  0.24611924254E+02  0.35866000729E+02  0.00000000000E+00 0. -1.
        -13    1    4    4    0    0 -0.63279649876E+01  0.62428872857E+02  0.48710651023E+02  0.79436357105E+02  0.00000000000E+00 0. -1.
         13    1    4    4    0    0 -0.26770474043E+02 -0.27345006664E+02  0.32122190180E+02  0.49962413592E+02  0.00000000000E+00 0.  1.
         -4    1    1    2    0  502  0.22755012673E+02  0.86697502087E+01  0.44474706118E+02  0.50704582187E+02  0.00000000000E+00 0.  1.
<scales pt_clust_5="13000.00000" pt_clust_6="13000.00000" pt_clust_7="13000.00000" pt_clust_8="13000.00000" pt_clust_9="24.35068"></scales>
<clustering>
<clus scale="   24.351">  2  9  1 -1</clus>
<clus scale="   88.790">  7  8 -1 -1</clus>
<clus scale="   89.630">  5  6 -1 -1</clus>
<clus scale="   99.354">  2  7  1 -1</clus>
<clus scale="   24.351">  2  5  1 -1</clus>
</clustering>
</event>
<event>
 9    2  0.6469128E-005  0.1048340E+03  0.7546771E-02  0.1274416E+00
          2   -1    0    0  502    0 -0.00000000000E+00  0.00000000000E+00  0.18896643677E+03  0.18896643677E+03  0.00000000000E+00 0. -1.
         21   -1    0    0  501  502  0.00000000000E+00 -0.00000000000E+00 -0.42344453199E+03  0.42344453199E+03  0.00000000000E+00 0.  1.
         24    2    1    2    0    0  0.18932573712E+02  0.50409526220E+02  0.16197891307E+03  0.18919064486E+03  0.81586574531E+02 0.  0.
         23    2    1    2    0    0  0.24438856042E+02 -0.36498305224E+02 -0.30205504139E+03  0.31840460778E+03  0.90635877332E+02 0.  0.
        -13    1    3    3    0    0 -0.68255467515E+01  0.26427895551E+02  0.42998175719E+01  0.27631688021E+02  0.00000000000E+00 0.  1.
         14    1    3    3    0    0  0.25758120463E+02  0.23981630669E+02  0.15767909550E+03  0.16155895684E+03  0.00000000000E+00 0. -1.
        -13    1    4    4    0    0  0.37615090859E+02 -0.56184811979E+02 -0.27121808550E+03  0.27951901199E+03  0.00000000000E+00 0.  1.
         13    1    4    4    0    0 -0.13176234817E+02  0.19686506755E+02 -0.30836955888E+02  0.38885595798E+02  0.00000000000E+00 0. -1.
          1    1    1    2  501    0 -0.43371429754E+02 -0.13911220997E+02 -0.94401966901E+02  0.10481571611E+03  0.00000000000E+00 0. -1.
<scales pt_clust_5="13000.00000" pt_clust_6="13000.00000" pt_clust_7="13000.00000" pt_clust_8="13000.00000" pt_clust_9="45.54781"></scales>
<clustering>
<clus scale="   45.548">  2  9  1 -1</clus>
<clus scale="   81.587">  5  6 -1 -1</clus>
<clus scale="   90.636">  7  8 -1 -1</clus>
<clus scale="   97.117">  1  5  2 -1</clus>
<clus scale="   45.548">  2  5  1 -1</clus>
</clustering>
</event>
<event>
 9    2  0.6469128E-005  0.1662898E+03  0.7546771E-02  0.1183730E+00
         21   -1    0    0  501  502  0.00000000000E+00  0.00000000000E+00  0.46594386873E+02  0.46594386873E+02  0.00000000000E+00 0.  1.
          2   -1    0    0  502    0 -0.00000000000E+00 -0.00000000000E+00 -0.13588281959E+04  0.13588281959E+04  0.00000000000E+00 0. -1.
         23    2    1    2    0    0  0.13108464310E+03 -0.44893486121E+02 -0.89202397454E+03  0.90725676870E+03  0.90606094945E+02 0.  0.
         24    2    1    2    0    0 -0.10247538893E+03  0.11931794132E+03 -0.35252445411E+03  0.39357709731E+03  0.76755874846E+02 0.  0.
        -13    1    4    4    0    0 -0.18169663778E+02  0.32054795079E+02 -0.25611175125E+02  0.44872919012E+02  0.00000000000E+00 0.  1.
         14    1    4    4    0    0 -0.84305725154E+02  0.87263146244E+02 -0.32691327898E+03  0.34870417830E+03  0.00000000000E+00 0. -1.
        -11    1    3    3    0    0  0.26348321975E+02 -0.53851897476E+02 -0.35799580610E+03  0.36298107130E+03  0.00000000000E+00 0. -1.
         11    1    3    3    0    0  0.10473632113E+03  0.89584113557E+01 -0.53402816844E+03  0.54427569741E+03  0.00000000000E+00 0.  1.
          1    1    1    2  501    0 -0.28609254168E+02 -0.74424455202E+02 -0.67685380357E+02  0.10458871674E+03  0.00000000000E+00 0. -1.
<scales pt_clust_5="13000.00000" pt_clust_6="13000.00000" pt_clust_7="13000.00000" pt_clust_8="13000.00000" pt_clust_9="79.73386"></scales>
<clustering>
<clus scale="   76.756">  5  6 -1 -1</clus>
<clus scale="   79.734">  1  9  2 -1</clus>
<clus scale="   90.606">  7  8 -1 -1</clus>
<clus scale="  159.168">  1  5  2 -1</clus>
<clus scale="   79.734">  1  5  2 -1</clus>
</clustering>
</event>
<event>
 9    2  0.6469128E-005  0.9398784E+02  0.7546771E-02  0.1299162E+00
         21   -1    0    0  501  502  0.00000000000E+00  0.00000000000E+00  0.80904279828E+02  0.80904279828E+02  0.00000000000E+00 0. -1.
          2   -1    0    0  502    0 -0.00000000000E+00 -0.00000000000E+00 -0.22520855077E+03  0.22520855077E+03  0.00000000000E+00 0. -1.
         23    2    1    2    0    0  0.33288974917E+01  0.23847196194E+02 -0.64708409755E+02  0.11393512531E+03  0.90632577818E+02 0.  0.
         24    2    1    2    0    0  0.50264481349E+02 -0.12334977290E+02 -0.54698422361E+00  0.95982557856E+02  0.80831197386E+02 0.  0.
        -13    1    4    4    0    0  0.63855729479E+02 -0.23323425817E+02 -0.18979195206E+02  0.70581486452E+02  0.00000000000E+00 0.  1.
         14    1    4    4    0    0 -0.13591248131E+02  0.10988448526E+02  0.18432210983E+02  0.25401071404E+02  0.00000000000E+00 0. -1.
        -11    1    3    3    0    0 -0.36960317141E+02 -0.20443886542E+01 -0.52976124033E+02  0.64627504096E+02  0.00000000000E+00 0.  1.
         11    1    3    3    0    0  0.40289214632E+02  0.25891584849E+02 -0.11732285721E+02  0.49307621215E+02  0.00000000000E+00 0. -1.
          1    1    1    2  501    0 -0.53593378840E+02 -0.11512218904E+02 -0.79048876959E+02  0.96195147425E+02  0.00000000000E+00 0. -1.
<scales pt_clust_5="13000.00000" pt_clust_6="13000.00000" pt_clust_7="13000.00000" pt_clust_8="13000.00000" pt_clust_9="54.81591"></scales>
<clustering>
<clus scale="   54.816">  1  9  2 -1</clus>
<clus scale="   80.831">  5  6 -1 -1</clus>
<clus scale="   84.576">  1  5  2 -1</clus>
<clus scale="   90.633">  7  8 -1 -1</clus>
<clus scale="   54.816">  1  5  2 -1</clus>
</clustering>
</event>
<event>
 9    2  0.6469128E-005  0.3066062E+03  0.7546771E-02  0.1127704E+00
         21   -1    0    0  501  502  0.00000000000E+00  0.00000000000E+00  0.28117582837E+03  0.28117582837E+03  0.00000000000E+00 0.  1.
          2   -1    0    0  502    0 -0.00000000000E+00 -0.00000000000E+00 -0.53823163559E+03  0.53823163559E+03  0.00000000000E+00 0. -1.
         24    2    1    2    0    0 -0.14666466273E+02  0.49768646148E+02 -0.13429509011E+03  0.16425185384E+03  0.79066281638E+02 0.  0.
         23    2    1    2    0    0  0.23209369120E+03  0.16756953298E+03  0.46359387008E+02  0.30428228274E+03  0.92149253648E+02 0.  0.
        -13    1    3    3    0    0 -0.13750856995E+02 -0.16529777643E+02 -0.10750940004E+02  0.24039599165E+02  0.00000000000E+00 0.  1.
         14    1    3    3    0    0 -0.91560927805E+00  0.66298423791E+02 -0.12354415010E+03  0.14021225468E+03  0.00000000000E+00 0. -1.
        -11    1    4    4    0    0  0.15470102311E+03  0.11138954598E+03  0.74380785970E+02  0.20462780560E+03  0.00000000000E+00 0.  1.
         11    1    4    4    0    0  0.77392668086E+02  0.56179987005E+02 -0.28021398962E+02  0.99654477136E+02  0.00000000000E+00 0. -1.
          1    1    1    2  501    0 -0.21742722492E+03 -0.21733817913E+03 -0.16912010413E+03  0.35087332738E+03  0.00000000000E+00 0. -1.
<scales pt_clust_5="13000.00000" pt_clust_6="13000.00000" pt_clust_7="13000.00000" pt_clust_8="13000.00000" pt_clust_9="292.43116"></scales>
<clustering>
<clus scale="   79.066">  5  6 -1 -1</clus>
<clus scale="   92.149">  7  8 -1 -1</clus>
<clus scale="   94.570">  2  5  1 -1</clus>
<clus scale="  292.431">  1  9  2 -1</clus>
<clus scale="  292.431">  1  5  2 -1</clus>
</clustering>
</event>
<event>
 9    2  0.6469128E-005  0.1320271E+03  0.7546771E-02  0.1235768E+00
          2   -1    0    0  502    0 -0.00000000000E+00  0.00000000000E+00  0.67289106943E+03  0.67289106943E+03  0.00000000000E+00 0. -1.
         21   -1    0    0  501  502  0.00000000000E+00 -0.00000000000E+00 -0.64794080752E+02  0.64794080752E+02  0.00000000000E+00 0.  1.
         24    2    1    2    0    0  0.65650156231E+02  0.10492626627E+02  0.39797250047E+02  0.11189525475E+03  0.80726010050E+02 0.  0.
         23    2    1    2    0    0  0.25589035683E+02  0.46398804937E+02  0.46396333031E+03  0.47596562761E+03  0.92052479292E+02 0.  0.
        -11    1    3    3    0    0  0.63527256564E+02 -0.19345818737E+02  0.58743884753E+01  0.66666944351E+02  0.00000000000E+00 0.  1.
         12    1    3    3    0    0  0.21228996670E+01  0.29838445364E+02  0.33922861572E+02  0.45228310404E+02  0.00000000000E+00 0. -1.
        -11    1    4    4    0    0  0.26730133451E+02  0.67314859025E+02  0.43003707102E+03  0.43609365133E+03  0.00000000000E+00 0.  1.
         11    1    4    4    0    0 -0.11410977675E+01 -0.20916054088E+02  0.33926259291E+02  0.39871976277E+02  0.00000000000E+00 0. -1.
          1    1    1    2  501    0 -0.91239191914E+02 -0.56891431564E+02  0.10433640832E+03  0.14982426782E+03  0.00000000000E+00 0. -1.
<scales pt_clust_5="13000.00000" pt_clust_6="13000.00000" pt_clust_7="13000.00000" pt_clust_8="13000.00000" pt_clust_9="94.64398"></scales>
<clustering>
<clus scale="   80.726">  5  6 -1 -1</clus>
<clus scale="   92.052">  7  8 -1 -1</clus>
<clus scale="  104.579">  1  5  2 -1</clus>
<clus scale="   94.644">  2  9  1 -1</clus>
<clus scale="   94.644">  2  5  1 -1</clus>
</clustering>
</event>
<event>
 9    2  0.6469128E-005  0.2761145E+03  0.7546771E-02  0.1098279E+00
         21   -1    0    0  501  502  0.00000000000E+00  0.00000000000E+00  0.63072789929E+03  0.63072789929E+03  0.00000000000E+00 0.  1.
          4   -1    0    0  502    0 -0.00000000000E+00 -0.00000000000E+00 -0.24377009838E+03  0.24377009838E+03  0.00000000000E+00 0. -1.
         23    2    1    2    0    0  0.53438808935E+01  0.26754087057E+03 -0.62839302106E+02  0.28911632640E+03  0.89625876950E+02 0.  0.
         24    2    1    2    0    0 -0.30424292535E+02 -0.24582464804E+03  0.18652160089E+03  0.32002415509E+03  0.79181797691E+02 0.  0.
        -11    1    4    4    0    0 -0.36129180414E+02 -0.11651463659E+03  0.13152992268E+03  0.17939091052E+03  0.00000000000E+00 0.  1.
         12    1    4    4    0    0  0.57048878787E+01 -0.12931001145E+03  0.54991678203E+02  0.14063324457E+03  0.00000000000E+00 0. -1.
        -11    1    3    3    0    0 -0.83861724021E+01  0.13373813318E+03 -0.75857627969E+02  0.15398245314E+03  0.00000000000E+00 0. -1.
         11    1    3    3    0    0  0.13730053296E+02  0.13380273738E+03  0.13018325864E+02  0.13513387326E+03  0.00000000000E+00 0.  1.
          3    1    1    2  501    0  0.25080411642E+02 -0.21716222529E+02  0.26327550213E+03  0.26535751617E+03  0.00000000000E+00 0. -1.
<scales pt_clust_5="13000.00000" pt_clust_6="13000.00000" pt_clust_7="13000.00000" pt_clust_8="13000.00000" pt_clust_9="33.17561"></scales>
<clustering>
<clus scale="   33.176">  1  9  2 -1</clus>
<clus scale="   79.182">  5  6 -1 -1</clus>
<clus scale="   89.626">  7  8 -1 -1</clus>
<clus scale="  272.903">  1  5  2 -1</clus>
<clus scale="   33.176">  1  5  2 -1</clus>
</clustering>
</event>
<event>
 9    2  0.6469128E-005  0.1597181E+03  0.7546771E-02  0.1190825E+00
         21   -1    0    0  501  502  0.00000000000E+00  0.00000000000E+00  0.77883393402E+02  0.77883393402E+02  0.00000000000E+00 0. -1.
          2   -1    0    0  502    0 -0.00000000000E+00 -0.00000000000E+00 -0.77211771416E+03  0.77211771416E+03  0.00000000000E+00 0. -1.
         23    2    1    2    0    0 -0.11160932278E+02  0.13842586003E+03 -0.60576749242E+03  0.62824746598E+03  0.91947476863E+02 0.  0.
         24    2    1    2    0    0  0.54735207266E+02 -0.87531481229E+02 -0.33726472541E+02  0.13523507833E+03  0.80581315080E+02 0.  0.
        -11    1    4    4    0    0  0.21026163367E+02  0.12957734492E+02 -0.98284947720E+01  0.26581981465E+02  0.00000000000E+00 0.  1.
         12    1    4    4    0    0  0.33709043899E+02 -0.10048921572E+03 -0.23897977769E+02  0.10865309686E+03  0.00000000000E+00 0. -1.
        -11    1    3    3    0    0  0.23148237153E+02  0.72996381302E-01 -0.64615678625E+02  0.68636958964E+02  0.00000000000E+00 0.  1.
         11    1    3    3    0    0 -0.34309169430E+02  0.13835286365E+03 -0.54115181380E+03  0.55961050702E+03  0.00000000000E+00 0. -1.
          1    1    1    2  501    0 -0.43574274988E+02 -0.50894378801E+02 -0.54740355790E+02  0.86518563247E+02  0.00000000000E+00 0. -1.
<scales pt_clust_5="13000.00000" pt_clust_6="13000.00000" pt_clust_7="13000.00000" pt_clust_8="13000.00000" pt_clust_9="66.99967"></scales>
<clustering>
<clus scale="   67.000">  1  9  2 -1</clus>
<clus scale="   80.581">  5  6 -1 -1</clus>
<clus scale="   91.947">  7  8 -1 -1</clus>
<clus scale="  153.456">  1  5  2 -1</clus>
<clus scale="   67.000">  1  5  2 -1</clus>
</clustering>
</event>
<event>
 9    2  0.6469128E-005  0.8410363E+02  0.7546771E-02  0.1319811E+00
         21   -1    0    0  501  502  0.00000000000E+00  0.00000000000E+00  0.22841480250E+03  0.22841480250E+03  0.00000000000E+00 0.  1.
         -1   -1    0    0    0  501 -0.00000000000E+00 -0.00000000000E+00 -0.11679024604E+03  0.11679024604E+03  0.00000000000E+00 0.  1.
         24    2    1    2    0    0  0.90836746589E+01 -0.24736176010E+02 -0.87055609186E+02  0.12146677877E+03  0.80505327189E+02 0.  0.
         23    2    1    2    0    0 -0.13279208495E+02  0.73919036141E+00  0.15074563555E+03  0.16996860360E+03  0.77383433579E+02 0.  0.
        -13    1    3    3    0    0  0.43053363179E+02 -0.14673407392E+02 -0.66310140069E+02  0.80411041788E+02  0.00000000000E+00 0.  1.
         14    1    3    3    0    0 -0.33969688520E+02 -0.10062768618E+02 -0.20745469117E+02  0.41055736984E+02  0.00000000000E+00 0. -1.
        -11    1    4    4    0    0  0.12307544223E+02 -0.32142072299E+02  0.47715998844E+02  0.58833706344E+02  0.00000000000E+00 0.  1.
         11    1    4    4    0    0 -0.25586752718E+02  0.32881262661E+02  0.10302963671E+03  0.11113489726E+03  0.00000000000E+00 0. -1.
         -2    1    1    2    0  502  0.41955338365E+01  0.23996985649E+02  0.47934530099E+02  0.53769666172E+02  0.00000000000E+00 0.  1.
<scales pt_clust_5="13000.00000" pt_clust_6="13000.00000" pt_clust_7="13000.00000" pt_clust_8="13000.00000" pt_clust_9="24.36099"></scales>
<clustering>
<clus scale="   24.361">  1  9  2 -1</clus>
<clus scale="   77.383">  7  8 -1 -1</clus>
<clus scale="   80.505">  5  6 -1 -1</clus>
<clus scale="   81.120">  1  7  2 -1</clus>
<clus scale="   24.361">  1  5  2 -1</clus>
</clustering>
</event>
<event>
 9    2  0.6469128E-005  0.1289961E+03  0.7546771E-02  0.1231986E+00
         -1   -1    0    0    0  501 -0.00000000000E+00  0.00000000000E+00  0.16896648862E+03  0.16896648862E+03  0.00000000000E+00 0.  1.
         21   -1    0    0  501  502  0.00000000000E+00 -0.00000000000E+00 -0.11542627274E+03  0.11542627274E+03  0.00000000000E+00 0. -1.
         24    2    1    2    0    0  0.56936807583E+02 -0.74709683394E+02  0.51242138715E+02  0.13375436701E+03  0.80256694819E+02 0.  0.
         23    2    1    2    0    0 -0.34465990333E+02  0.80760834958E+02  0.60612381597E+01  0.12706477682E+03  0.91643340988E+02 0.  0.
        -11    1    3    3    0    0  0.53507814204E+02 -0.35196701386E+02  0.65499340782E+02  0.91608174374E+02  0.00000000000E+00 0.  1.
         12    1    3    3    0    0  0.34289933788E+01 -0.39512982008E+02 -0.14257202067E+02  0.42146192634E+02  0.00000000000E+00 0. -1.
        -13    1    4    4    0    0 -0.12074629688E+02 -0.19060446182E+02  0.10016373782E+02  0.24686535490E+02  0.00000000000E+00 0.  1.
         13    1    4    4    0    0 -0.22391360645E+02  0.99821281140E+02 -0.39551356227E+01  0.10237824133E+03  0.00000000000E+00 0. -1.
         -2    1    1    2    0  502 -0.22470817250E+02 -0.60511515641E+01 -0.37631609934E+01  0.23573617537E+02  0.00000000000E+00 0.  1.
<scales pt_clust_5="13000.00000" pt_clust_6="13000.00000" pt_clust_7="13000.00000" pt_clust_8="13000.00000" pt_clust_9="23.27131"></scales>
<clustering>
<clus scale="   23.271">  2  9  1 -1</clus>
<clus scale="   80.257">  5  6 -1 -1</clus>
<clus scale="   91.643">  7  8 -1 -1</clus>
<clus scale="  121.172">  1  5  2 -1</clus>
<clus scale="   23.271">  2  5  1 -1</clus>
</clustering>
</event>
<event>
 9    2  0.6469128E-005  0.1107736E+03  0.7546771E-02  0.1262013E+00
         21   -1    0    0  501  502  0.00000000000E+00  0.00000000000E+00  0.54234431229E+02  0.54234431229E+02  0.00000000000E+00 0. -1.
          2   -1    0    0  502    0 -0.00000000000E+00 -0.00000000000E+00 -0.49036357442E+03  0.49036357442E+03  0.00000000000E+00 0. -1.
         24    2    1    2    0    0  0.12416890155E+02  0.66351833852E+02 -0.32751782743E+03  0.34424300130E+03  0.81722528352E+02 0.  0.
         23    2    1    2    0    0 -0.35201955510E+02 -0.53525220765E+02 -0.12730182024E+03  0.16821443552E+03  0.89365630706E+02 0.  0.
        -13    1    3    3    0    0  0.24838789557E+02 -0.10851432567E+02 -0.10258410768E+03  0.10610475109E+03  0.00000000000E+00 0.  1.
         14    1    3    3    0    0 -0.12421899403E+02  0.77203266419E+02 -0.22493371975E+03  0.23813825021E+03  0.00000000000E+00 0. -1.
        -13    1    4    4    0    0  0.28110844494E+02 -0.17781764028E+01 -0.34009030975E+02  0.44158755387E+02  0.00000000000E+00 0.  1.
         13    1    4    4    0    0 -0.63312800004E+02 -0.51747044362E+02 -0.93292789267E+02  0.12405568014E+03  0.00000000000E+00 0. -1.
          1    1    1    2  501    0  0.22785065356E+02 -0.12826613088E+02  0.18690504486E+02  0.32140568826E+02  0.00000000000E+00 0. -1.
<scales pt_clust_5="13000.00000" pt_clust_6="13000.00000" pt_clust_7="13000.00000" pt_clust_8="13000.00000" pt_clust_9="26.14730"></scales>
<clustering>
<clus scale="   26.147">  1  9  2 -1</clus>
<clus scale="   81.723">  5  6 -1 -1</clus>
<clus scale="   89.366">  7  8 -1 -1</clus>
<clus scale="  104.705">  2  5  1 -1</clus>
<clus scale="   26.147">  1  5  2 -1</clus>
</clustering>
</event>
<event>
 9    2  0.6469128E-005  0.1650076E+03  0.7546771E-02  0.1191720E+00
          2   -1    0    0  502    0 -0.00000000000E+00  0.00000000000E+00  0.12438187294E+04  0.12438187294E+04  0.00000000000E+00 0. -1.
         21   -1    0    0  501  502  0.00000000000E+00 -0.00000000000E+00 -0.17089606427E+03  0.17089606427E+03  0.00000000000E+00 0. -1.
         24    2    1    2    0    0  0.49286107814E+02 -0.98738988841E+02  0.97757929834E+03  0.98708603653E+03  0.80616689432E+02 0.  0.
         23    2    1    2    0    0  0.47113844427E+02  0.13803667107E+03  0.20252954366E+03  0.27820943071E+03  0.12291637151E+03 0.  0.
        -13    1    3    3    0    0  0.28463238323E+02 -0.11272985620E+02  0.92124329592E+02  0.97077949315E+02  0.00000000000E+00 0.  1.
         14    1    3    3    0    0  0.20822869491E+02 -0.87466003222E+02  0.88545496875E+03  0.89000808721E+03  0.00000000000E+00 0. -1.
        -13    1    4    4    0    0 -0.67435179541E+01  0.10151937260E+03  0.52094305726E+02  0.11430430760E+03  0.00000000000E+00 0.  1.
         13    1    4    4    0    0  0.53857362381E+02  0.36517298472E+02  0.15043523793E+03  0.16390512311E+03  0.00000000000E+00 0. -1.
          1    1    1    2  501    0 -0.96399952241E+02 -0.39297682227E+02 -0.10718617683E+03  0.14941932647E+03  0.00000000000E+00 0. -1.
<scales pt_clust_5="13000.00000" pt_clust_6="13000.00000" pt_clust_7="13000.00000" pt_clust_8="13000.00000" pt_clust_9="104.10215"></scales>
<clustering>
<clus scale="   80.617">  5  6 -1 -1</clus>
<clus scale="  104.102">  2  9  1 -1</clus>
<clus scale="  122.916">  7  8 -1 -1</clus>
<clus scale="  136.448">  1  5  2 -1</clus>
<clus scale="  104.102">  2  5  1 -1</clus>
</clustering>
</event>
<event>
 9    2  0.6469128E-005  0.1224366E+03  0.7546771E-02  0.1241851E+00
          2   -1    0    0  502    0 -0.00000000000E+00  0.00000000000E+00  0.42070547596E+03  0.42070547596E+03  0.00000000000E+00 0. -1.
         21   -1    0    0  501  502  0.00000000000E+00 -0.00000000000E+00 -0.69915162104E+02  0.69915162104E+02  0.00000000000E+00 0. -1.
         23    2    1    2    0    0  0.85167166507E+02  0.14688436179E+02  0.32146475084E+03  0.34487191260E+03  0.90154609718E+02 0.  0.
         24    2    1    2    0    0 -0.71911811466E+02  0.15856581808E+02  0.22167557516E+02  0.11169083940E+03  0.80998167786E+02 0.  0.
        -13    1    4    4    0    0 -0.56390652005E+02 -0.22302580027E+01  0.49753606388E+02  0.75234972140E+02  0.00000000000E+00 0.  1.
         14    1    4    4    0    0 -0.15521159461E+02  0.18086839810E+02 -0.27586048872E+02  0.36455867260E+02  0.00000000000E+00 0. -1.
        -13    1    3    3    0    0  0.66025109759E+02 -0.24045590320E+02  0.26268775258E+03  0.27192344674E+03  0.00000000000E+00 0. -1.
         13    1    3    3    0    0  0.19142056749E+02  0.38734026499E+02  0.58776998264E+02  0.72948465853E+02  0.00000000000E+00 0.  1.
          1    1    1    2  501    0 -0.13255355041E+02 -0.30545017986E+02  0.71580055002E+01  0.34057886074E+02  0.00000000000E+00 0. -1.
<scales pt_clust_5="13000.00000" pt_clust_6="13000.00000" pt_clust_7="13000.00000" pt_clust_8="13000.00000" pt_clust_9="33.29719"></scales>
<clustering>
<clus scale="   33.297">  2  9  1 -1</clus>
<clus scale="   80.998">  5  6 -1 -1</clus>
<clus scale="   90.155">  7  8 -1 -1</clus>
<clus scale="  115.860">  2  5  1 -1</clus>
<clus scale="   33.297">  2  5  1 -1</clus>
</clustering>
</event>
<event>
 9    2  0.6469128E-005  0.1045858E+03  0.7546771E-02  0.1275423E+00
          2   -1    0    0  502    0 -0.00000000000E+00  0.00000000000E+00  0.37732157214E+03  0.37732157214E+03  0.00000000000E+00 0. -1.
         21   -1    0    0  501  502  0.00000000000E+00 -0.00000000000E+00 -0.41631485747E+02  0.41631485747E+02  0.00000000000E+00 0. -1.
         24    2    1    2    0    0 -0.27522080552E+02  0.27948746388E+02  0.11327317540E+03  0.14529039351E+03  0.82096825993E+02 0.  0.
         23    2    1    2    0    0  0.29042285784E+02 -0.59755042254E+02  0.11487559558E+03  0.16150613982E+03  0.92052763680E+02 0.  0.
        -13    1    3    3    0    0 -0.13876633536E+02 -0.29012618970E+02  0.35062924315E+02  0.47578374072E+02  0.00000000000E+00 0.  1.
         14    1    3    3    0    0 -0.13645447016E+02  0.56961365357E+02  0.78210251086E+02  0.97712019438E+02  0.00000000000E+00 0. -1.
        -11    1    4    4    0    0 -0.22322974972E+02  0.30663995330E+01  0.58522397071E+02  0.62710357810E+02  0.00000000000E+00 0.  1.
         11    1    4    4    0    0  0.51365260756E+02 -0.62821441787E+02  0.56353198511E+02  0.98795782011E+02  0.00000000000E+00 0. -1.
          1    1    1    2  501    0 -0.15202052322E+01  0.31806295866E+02  0.10754131541E+03  0.11215652456E+03  0.00000000000E+00 0. -1.
<scales pt_clust_5="13000.00000" pt_clust_6="13000.00000" pt_clust_7="13000.00000" pt_clust_8="13000.00000" pt_clust_9="31.84262"></scales>
<clustering>
<clus scale="   31.843">  2  9  1 -1</clus>
<clus scale="   82.097">  5  6 -1 -1</clus>
<clus scale="   92.053">  7  8 -1 -1</clus>
<clus scale="   95.939">  1  5  2 -1</clus>
<clus scale="   31.843">  2  5  1 -1</clus>
</clustering>
</event>
<event>
 9    2  0.6469128E-005  0.9381161E+02  0.7546771E-02  0.1301362E+00
         21   -1    0    0  501  502  0.00000000000E+00  0.00000000000E+00  0.26395326046E+03  0.26395326046E+03  0.00000000000E+00 0.  1.
          2   -1    0    0  502    0 -0.00000000000E+00 -0.00000000000E+00 -0.56665588408E+02  0.56665588408E+02  0.00000000000E+00 0. -1.
         24    2    1    2    0    0  0.74149274500E+01 -0.22517350747E+02  0.49503697487E+02  0.96995720691E+02  0.79972129730E+02 0.  0.
         23    2    1    2    0    0  0.39024985650E+02 -0.40768972394E+01  0.75890473347E+02  0.12579437424E+03  0.92332497259E+02 0.  0.
        -11    1    3    3    0    0 -0.31946835493E+02 -0.28868296271E+02  0.20482892439E+02  0.47681523783E+02  0.00000000000E+00 0.  1.
         12    1    3    3    0    0  0.39361762943E+02  0.63509455241E+01  0.29020805048E+02  0.49314196908E+02  0.00000000000E+00 0. -1.
        -11    1    4    4    0    0  0.15668363132E+02 -0.33748026671E+02  0.79584595785E+02  0.87852915681E+02  0.00000000000E+00 0.  1.
         11    1    4    4    0    0  0.23356622518E+02  0.29671129432E+02 -0.36941224373E+01  0.37941458562E+02  0.00000000000E+00 0. -1.
          1    1    1    2  501    0 -0.46439913100E+02  0.26594247986E+02  0.81893501220E+02  0.97828753936E+02  0.00000000000E+00 0. -1.
<scales pt_clust_5="13000.00000" pt_clust_6="13000.00000" pt_clust_7="13000.00000" pt_clust_8="13000.00000" pt_clust_9="53.51560"></scales>
<clustering>
<clus scale="   53.516">  1  9  2 -1</clus>
<clus scale="   79.972">  5  6 -1 -1</clus>
<clus scale="   81.675">  2  5  1 -1</clus>
<clus scale="   92.332">  7  8 -1 -1</clus>
<clus scale="   53.516">  1  5  2 -1</clus>
</clustering>
</event>
<event>
 9    2  0.6469128E-005  0.1384420E+03  0.7546771E-02  0.1217700E+00
         21   -1    0    0  501  502  0.00000000000E+00  0.00000000000E+00  0.61119856880E+03  0.61119856880E+03  0.00000000000E+00 0. -1.
         -1   -1    0    0    0  501 -0.00000000000E+00 -0.00000000000E+00 -0.85589773580E+02  0.85589773580E+02  0.00000000000E+00 0.  1.
         23    2    1    2    0    0  0.72243223759E+02 -0.78147496613E+02  0.16842556195E+02  0.14121770239E+03  0.91283367401E+02 0.  0.
         24    2    1    2    0    0 -0.22972705778E+02  0.98694642133E+02  0.47495393979E+03  0.49238012875E+03  0.81169998565E+02 0.  0.
        -11    1    4    4    0    0  0.24008626735E+02  0.54105618022E+01  0.71120716314E+02  0.75258518626E+02  0.00000000000E+00 0.  1.
         12    1    4    4    0    0 -0.46981332513E+02  0.93284080331E+02  0.40383322348E+03  0.41712161012E+03  0.00000000000E+00 0. -1.
        -13    1    3    3    0    0  0.81060565600E+02 -0.29810376310E+02  0.28072518769E+02  0.90815968536E+02  0.00000000000E+00 0.  1.
         13    1    3    3    0    0 -0.88173418412E+01 -0.48337120303E+02 -0.11229962574E+02  0.50401733857E+02  0.00000000000E+00 0. -1.
         -2    1    1    2    0  502 -0.49270517981E+02 -0.20547145520E+02  0.33812299236E+02  0.63190511240E+02  0.00000000000E+00 0.  1.
<scales pt_clust_5="13000.00000" pt_clust_6="13000.00000" pt_clust_7="13000.00000" pt_clust_8="13000.00000" pt_clust_9="53.38326"></scales>
<clustering>
<clus scale="   53.383">  1  9  2 -1</clus>
<clus scale="   81.170">  5  6 -1 -1</clus>
<clus scale="   91.283">  7  8 -1 -1</clus>
<clus scale="  131.993">  1  5  2 -1</clus>
<clus scale="   53.383">  1  5  2 -1</clus>
</clustering>
</event>
<event>
 9    2  0.6469128E-005  0.1139796E+03  0.7546771E-02  0.1260987E+00
         21   -1    0    0  501  502  0.00000000000E+00  0.00000000000E+00  0.20491766606E+02  0.20491766606E+02  0.00000000000E+00 0.  1.
          2   -1    0    0  502    0 -0.00000000000E+00 -0.00000000000E+00 -0.12150964686E+04  0.12150964686E+04  0.00000000000E+00 0. -1.
         24    2    1    2    0    0 -0.28246856280E+02  0.50619929869E+02 -0.51302065240E+03  0.52222074006E+03  0.78511460104E+02 0.  0.
         23    2    1    2    0    0  0.87976242630E+02 -0.42645262633E+01 -0.36787509281E+03  0.39067610604E+03  0.97661304874E+02 0.  0.
        -13    1    3    3    0    0  0.25866990135E+01 -0.20149724044E+02 -0.98407101860E+02  0.10048213815E+03  0.00000000000E+00 0.  1.
         14    1    3    3    0    0 -0.30833555293E+02  0.70769653913E+02 -0.41461355054E+03  0.42173860191E+03  0.00000000000E+00 0. -1.
        -11    1    4    4    0    0  0.79395635247E+02  0.38043740825E+02 -0.25902454887E+03  0.27357761244E+03  0.00000000000E+00 0.  1.
         11    1    4    4    0    0  0.85806073828E+01 -0.42308267088E+02 -0.10885054394E+03  0.11709849360E+03  0.00000000000E+00 0. -1.
          1    1    1    2  501    0 -0.59729386350E+02 -0.46355403605E+02 -0.31370895675E+03  0.32269138908E+03  0.00000000000E+00 0. -1.
<scales pt_clust_5="13000.00000" pt_clust_6="13000.00000" pt_clust_7="13000.00000" pt_clust_8="13000.00000" pt_clust_9="75.60707"></scales>
<clustering>
<clus scale="   75.607">  1  9  2 -1</clus>
<clus scale="   78.511">  5  6 -1 -1</clus>
<clus scale="   97.661">  7  8 -1 -1</clus>
<clus scale="   98.070">  2  5  1 -1</clus>
<clus scale="   75.607">  1  5  2 -1</clus>
</clustering>
</event>
<event>
 9    2  0.6469128E-005  0.1646563E+03  0.7546771E-02  0.1185612E+00
         21   -1    0    0  501  502  0.00000000000E+00  0.00000000000E+00  0.72723311838E+02  0.72723311838E+02  0.00000000000E+00 0. -1.
          2   -1    0    0  502    0 -0.00000000000E+00 -0.00000000000E+00 -0.80046596663E+03  0.80046596663E+03  0.00000000000E+00 0. -1.
         23    2    1    2    0    0  0.10846056070E+03 -0.99082100598E+02 -0.30752133578E+03  0.35329006458E+03  0.93078149363E+02 0.  0.
         24    2    1    2    0    0 -0.16088249001E+02  0.13756079002E+03 -0.10958588996E+03  0.19354415679E+03  0.79173673917E+02 0.  0.
        -11    1    4    4    0    0 -0.25828187911E+02  0.53072778347E+01 -0.12428876865E+02  0.29150291060E+02  0.00000000000E+00 0.  1.
         12    1    4    4    0    0  0.97399389090E+01  0.13225351219E+03 -0.97157013095E+02  0.16439386573E+03  0.00000000000E+00 0. -1.
        -13    1    3    3    0    0  0.23903375334E+02 -0.76802519090E+02 -0.19385538220E+03  0.20988069825E+03  0.00000000000E+00 0. -1.
         13    1    3    3    0    0  0.84557185364E+02 -0.22279581508E+02 -0.11366595358E+03  0.14340936633E+03  0.00000000000E+00 0.  1.
          1    1    1    2  501    0 -0.92372311696E+02 -0.38478689424E+02 -0.31063542905E+03  0.32635505710E+03  0.00000000000E+00 0. -1.
<scales pt_clust_5="13000.00000" pt_clust_6="13000.00000" pt_clust_7="13000.00000" pt_clust_8="13000.00000" pt_clust_9="100.06630"></scales>
<clustering>
<clus scale="   79.174">  5  6 -1 -1</clus>
<clus scale="   93.078">  7  8 -1 -1</clus>
<clus scale="  100.066">  1  9  2 -1</clus>
<clus scale="  157.215">  1  5  2 -1</clus>
<clus scale="  100.066">  1  5  2 -1</clus>
</clustering>
</event>
<event>
 9    2  0.6469128E-005  0.1565904E+03  0.7546771E-02  0.1194313E+00
         21   -1    0    0  501  502  0.00000000000E+00  0.00000000000E+00  0.31187969219E+03  0.31187969219E+03  0.00000000000E+00 0. -1.
          2   -1    0    0  502    0 -0.00000000000E+00 -0.00000000000E+00 -0.21028398320E+03  0.21028398320E+03  0.00000000000E+00 0. -1.
         24    2    1    2    0    0  0.90722687671E+02  0.97506136890E+02 -0.12510925219E+03  0.19954866117E+03  0.80182856033E+02 0.  0.
         23    2    1    2    0    0 -0.17723039001E+02 -0.11149065294E+03  0.19236583983E+03  0.24073894538E+03  0.90588915910E+02 0.  0.
        -11    1    3    3    0    0  0.33530941243E+01  0.39171212762E+02 -0.44522209438E+01  0.39565760713E+02  0.00000000000E+00 0.  1.
         12    1    3    3    0    0  0.87369593546E+02  0.58334924128E+02 -0.12065703124E+03  0.15998290046E+03  0.00000000000E+00 0. -1.
        -13    1    4    4    0    0 -0.44854837101E+02 -0.21801886745E+02  0.81836165592E+02  0.95835466690E+02  0.00000000000E+00 0.  1.
         13    1    4    4    0    0  0.27131798100E+02 -0.89688766194E+02  0.11052967424E+03  0.14490347869E+03  0.00000000000E+00 0. -1.
          1    1    1    2  501    0 -0.72999648669E+02  0.13984516049E+02  0.34339121351E+02  0.81876068849E+02  0.00000000000E+00 0. -1.
<scales pt_clust_5="13000.00000" pt_clust_6="13000.00000" pt_clust_7="13000.00000" pt_clust_8="13000.00000" pt_clust_9="74.32708"></scales>
<clustering>
<clus scale="   74.327">  1  9  2 -1</clus>
<clus scale="   80.183">  5  6 -1 -1</clus>
<clus scale="   90.589">  7  8 -1 -1</clus>
<clus scale="  150.810">  2  5  1 -1</clus>
<clus scale="   74.327">  1  5  2 -1</clus>
</clustering>
</event>
<event>
 9    2  0.6469128E-005  0.2425340E+03  0.7546771E-02  0.1118116E+00
          2   -1    0    0  502    0 -0.00000000000E+00  0.00000000000E+00  0.49584193846E+03  0.49584193846E+03  0.00000000000E+00 0. -1.
         21   -1    0    0  501  502  0.00000000000E+00 -0.00000000000E+00 -0.98448310591E+02  0.98448310591E+02  0.00000000000E+00 0.  1.
         24    2    1    2    0    0  0.37558662234E+02 -0.99827953705E+02  0.25270171137E+02  0.13649071806E+03  0.81331796464E+02 0.  0.
         23    2    1    2    0    0 -0.66502853189E+01 -0.41853855078E+02  0.72652264838E+02  0.12506531653E+03  0.92558145683E+02 0.  0.
        -13    1    3    3    0    0  0.19493526423E+02 -0.13658130654E+02 -0.25480095004E+02  0.34867998893E+02  0.00000000000E+00 0.  1.
         14    1    3    3    0    0  0.18065135811E+02 -0.86169823051E+02  0.50750266141E+02  0.10162271916E+03  0.00000000000E+00 0. -1.
        -11    1    4    4    0    0  0.20039160240E+02 -0.55407285019E+02  0.74608067115E+02  0.95067864470E+02  0.00000000000E+00 0.  1.
         11    1    4    4    0    0 -0.26689445558E+02  0.13553429941E+02 -0.19558022770E+01  0.29997452057E+02  0.00000000000E+00 0. -1.
          1    1    1    2  501    0 -0.30908376915E+02  0.14168180878E+03  0.29947119190E+03  0.33273421447E+03  0.00000000000E+00 0. -1.
<scales pt_clust_5="13000.00000" pt_clust_6="13000.00000" pt_clust_7="13000.00000" pt_clust_8="13000.00000" pt_clust_9="145.01408"></scales>
<clustering>
<clus scale="   81.332">  5  6 -1 -1</clus>
<clus scale="   92.558">  7  8 -1 -1</clus>
<clus scale="   96.708">  5  7 -1 -1</clus>
<clus scale="  145.014">  2  9  1 -1</clus>
<clus scale="  145.014">  2  5  1 -1</clus>
</clustering>
</event>
<event>
 9    2  0.6469128E-005  0.3673687E+03  0.7546771E-02  0.1102168E+00
         21   -1    0    0  501  502  0.00000000000E+00  0.00000000000E+00  0.75562022291E+03  0.75562022291E+03  0.00000000000E+00 0.  1.
          2   -1    0    0  502    0 -0.00000000000E+00 -0.00000000000E+00 -0.23497740169E+03  0.23497740169E+03  0.00000000000E+00 0. -1.
         24    2    1    2    0    0 -0.41473544419E+02 -0.58481196994E+02  0.12019601632E+03  0.15943853653E+03  0.76377086241E+02 0.  0.
         23    2    1    2    0    0 -0.10177007165E+03  0.36512955207E+03  0.21011633436E+03  0.44285812846E+03  0.91091770766E+02 0.  0.
        -13    1    3    3    0    0  0.49715572015E+01 -0.37547577129E+02  0.95675962076E+02  0.10290008090E+03  0.00000000000E+00 0.  1.
         14    1    3    3    0    0 -0.46445101620E+02 -0.20933619865E+02  0.24520054243E+02  0.56538455632E+02  0.00000000000E+00 0. -1.
        -11    1    4    4    0    0 -0.11606188570E+03  0.32923479400E+03  0.17435381525E+03  0.39021169099E+03  0.00000000000E+00 0.  1.
         11    1    4    4    0    0  0.14291814044E+02  0.35894758070E+02  0.35762519112E+02  0.52646437475E+02  0.00000000000E+00 0. -1.
          1    1    1    2  501    0  0.14324361607E+03 -0.30664835507E+03  0.19033047053E+03  0.38830095960E+03  0.00000000000E+00 0. -1.
<scales pt_clust_5="13000.00000" pt_clust_6="13000.00000" pt_clust_7="13000.00000" pt_clust_8="13000.00000" pt_clust_9="355.89615"></scales>
<clustering>
<clus scale="   76.377">  5  6 -1 -1</clus>
<clus scale="   91.092">  7  8 -1 -1</clus>
<clus scale="  104.755">  2  5  1 -1</clus>
<clus scale="  355.896">  1  9  2 -1</clus>
<clus scale="  355.896">  1  5  2 -1</clus>
</clustering>
</event>
<event>
 9    2  0.6469128E-005  0.1733118E+03  0.7546771E-02  0.1211094E+00
          4   -1    0    0  502    0 -0.00000000000E+00  0.00000000000E+00  0.46460534634E+03  0.46460534634E+03  0.00000000000E+00 0. -1.
         21   -1    0    0  501  502  0.00000000000E+00 -0.00000000000E+00 -0.31944995378E+03  0.31944995378E+03  0.00000000000E+00 0. -1.
         24    2    1    2    0    0 -0.11074862625E+02  0.13882881913E+02  0.17377083193E+03  0.19022449641E+03  0.75323767913E+02 0.  0.
         23    2    1    2    0    0 -0.46401600805E+02  0.12285086227E+03  0.23911982674E+03  0.28775592176E+03  0.91540898248E+02 0.  0.
        -13    1    3    3    0    0  0.20845506152E+02  0.29575858577E+02  0.12315562340E+03  0.12836110826E+03  0.00000000000E+00 0.  1.
         14    1    3    3    0    0 -0.31920368777E+02 -0.15692976665E+02  0.50615208521E+02  0.61863388148E+02  0.00000000000E+00 0. -1.
        -13    1    4    4    0    0 -0.51471070257E+02  0.24267886188E+02  0.56648059593E+02  0.80294483180E+02  0.00000000000E+00 0.  1.
         13    1    4    4    0    0  0.50694694518E+01  0.98582976082E+02  0.18247176714E+03  0.20746143858E+03  0.00000000000E+00 0. -1.
          3    1    1    2  501    0  0.57476463430E+02 -0.13673374418E+03 -0.26773526610E+03  0.30607488195E+03  0.00000000000E+00 0. -1.
<scales pt_clust_5="13000.00000" pt_clust_6="13000.00000" pt_clust_7="13000.00000" pt_clust_8="13000.00000" pt_clust_9="147.16396"></scales>
<clustering>
<clus scale="   75.324">  5  6 -1 -1</clus>
<clus scale="   77.389">  1  5  2 -1</clus>
<clus scale="   91.541">  7  8 -1 -1</clus>
<clus scale="  147.164">  2  9  1 -1</clus>
<clus scale="  147.164">  2  5  1 -1</clus>
</clustering>
</event>
<event>
 9    2  0.6469128E-005  0.9490265E+02  0.7546771E-02  0.1296078E+00
         21   -1    0    0  501  502  0.00000000000E+00  0.00000000000E+00  0.72151637240E+02  0.72151637240E+02  0.00000000000E+00 0.  1.
          4   -1    0    0  502    0 -0.00000000000E+00 -0.00000000000E+00 -0.26060339556E+03  0.26060339556E+03  0.00000000000E+00 0. -1.
         24    2    1    2    0    0 -0.51227085396E+01  0.35163236277E+02 -0.19473423780E+03  0.21380487472E+03  0.80798550462E+02 0.  0.
         23    2    1    2    0    0 -0.12495191121E+02 -0.18336192882E+02 -0.49527472366E+01  0.92121626672E+02  0.89272160414E+02 0.  0.
        -11    1    3    3    0    0  0.29013262602E+02  0.53496254865E+01 -0.26783999986E+02  0.39846838707E+02  0.00000000000E+00 0.  1.
         12    1    3    3    0    0 -0.34135971141E+02  0.29813610790E+02 -0.16795023781E+03  0.17395803601E+03  0.00000000000E+00 0. -1.
        -11    1    4    4    0    0 -0.48212166088E+02  0.45283513204E+01  0.46256492457E+01  0.48644789603E+02  0.00000000000E+00 0.  1.
         11    1    4    4    0    0  0.35716974967E+02 -0.22864544203E+02 -0.95783964823E+01  0.43476837070E+02  0.00000000000E+00 0. -1.
          3    1    1    2  501    0  0.17617899660E+02 -0.16827043395E+02  0.11235226715E+02  0.26828531402E+02  0.00000000000E+00 0. -1.
<scales pt_clust_5="13000.00000" pt_clust_6="13000.00000" pt_clust_7="13000.00000" pt_clust_8="13000.00000" pt_clust_9="24.36267"></scales>
<clustering>
<clus scale="   24.363">  1  9  2 -1</clus>
<clus scale="   80.799">  5  6 -1 -1</clus>
<clus scale="   86.979">  2  5  1 -1</clus>
<clus scale="   89.272">  7  8 -1 -1</clus>
<clus scale="   24.363">  1  5  2 -1</clus>
</clustering>
</event>
<event>
 9    2  0.6469128E-005  0.1211495E+03  0.7546771E-02  0.1254720E+00
         21   -1    0    0  501  502  0.00000000000E+00  0.00000000000E+00  0.30771261954E+02  0.30771261954E+02  0.00000000000E+00 0. -1.
          2   -1    0    0  502    0 -0.00000000000E+00 -0.00000000000E+00 -0.94154536606E+03  0.94154536606E+03  0.00000000000E+00 0. -1.
         24    2    1    2    0    0 -0.20324119094E+02 -0.32232453334E+02 -0.19586986776E+03  0.21657558703E+03  0.84190135632E+02 0.  0.
         23    2    1    2    0    0  0.61523059461E+02 -0.51654636046E+02 -0.20482875340E+03  0.23717436759E+03  0.88563955142E+02 0.  0.
        -11    1    3    3    0    0 -0.50719775686E+02 -0.65954826326E+01 -0.12909558881E+03  0.13885844262E+03  0.00000000000E+00 0.  1.
         12    1    3    3    0    0  0.30395656592E+02 -0.25636970702E+02 -0.66774278950E+02  0.77717144413E+02  0.00000000000E+00 0. -1.
        -11    1    4    4    0    0  0.82411772830E+02 -0.39337913482E+02 -0.13275538917E+03  0.16113089428E+03  0.00000000000E+00 0. -1.
         11    1    4    4    0    0 -0.20888713369E+02 -0.12316722564E+02 -0.72073364234E+02  0.76043473309E+02  0.00000000000E+00 0.  1.
          1    1    1    2  501    0 -0.41198940367E+02  0.83887089380E+02 -0.51007548295E+03  0.51856667340E+03  0.00000000000E+00 0. -1.
<scales pt_clust_5="13000.00000" pt_clust_6="13000.00000" pt_clust_7="13000.00000" pt_clust_8="13000.00000" pt_clust_9="82.66586"></scales>
<clustering>
<clus scale="   84.190">  5  6 -1 -1</clus>
<clus scale="   88.564">  7  8 -1 -1</clus>
<clus scale="   92.412">  2  5  1 -1</clus>
<clus scale="   82.666">  1  9  2 -1</clus>
<clus scale="   82.666">  1  5  2 -1</clus>
</clustering>
</event>
<event>
 9    2  0.6469128E-005  0.1048227E+03  0.7546771E-02  0.1278214E+00
          2   -1    0    0  502    0 -0.00000000000E+00  0.00000000000E+00  0.56423891131E+03  0.56423891131E+03  0.00000000000E+00 0. -1.
         21   -1    0    0  501  502  0.00000000000E+00 -0.00000000000E+00 -0.50819098758E+02  0.50819098758E+02  0.00000000000E+00 0.  1.
         24    2    1    2    0    0  0.90760327183E+01 -0.40834656156E+02  0.37370946975E+03  0.38405335828E+03  0.78028012366E+02 0.  0.
         23    2    1    2    0    0  0.97280110906E+01  0.77906647576E+02  0.50866976964E+02  0.13291760746E+03  0.94422248919E+02 0.  0.
        -13    1    3    3    0    0  0.34369211949E+02  0.63085459067E+01  0.15621906873E+03  0.16007947375E+03  0.00000000000E+00 0.  1.
         14    1    3    3    0    0 -0.25293179230E+02 -0.47143202062E+02  0.21749040103E+03  0.22397388454E+03  0.00000000000E+00 0. -1.
        -13    1    4    4    0    0 -0.37922916954E+02  0.97528880870E+01  0.21850347459E+02  0.44840875777E+02  0.00000000000E+00 0. -1.
         13    1    4    4    0    0  0.47650928045E+02  0.68153759489E+02  0.29016629505E+02  0.88076731682E+02  0.00000000000E+00 0.  1.
          1    1    1    2  501    0 -0.18804043809E+02 -0.37071991420E+02  0.88843365833E+02  0.98087044322E+02  0.00000000000E+00 0. -1.
<scales pt_clust_5="13000.00000" pt_clust_6="13000.00000" pt_clust_7="13000.00000" pt_clust_8="13000.00000" pt_clust_9="41.56833"></scales>
<clustering>
<clus scale="   41.568">  2  9  1 -1</clus>
<clus scale="   78.028">  5  6 -1 -1</clus>
<clus scale="   90.336">  1  5  2 -1</clus>
<clus scale="   94.422">  7  8 -1 -1</clus>
<clus scale="   41.568">  2  5  1 -1</clus>
</clustering>
</event>
<event>
 9    2  0.6469128E-005  0.1344022E+03  0.7546771E-02  0.1229192E+00
         -3   -1    0    0    0  501 -0.00000000000E+00  0.00000000000E+00  0.50512400417E+02  0.50512400417E+02  0.00000000000E+00 0.  1.
         21   -1    0    0  501  502  0.00000000000E+00 -0.00000000000E+00 -0.95749550302E+03  0.95749550302E+03  0.00000000000E+00 0.  1.
         23    2    1    2    0    0  0.13201563672E+02  0.75756658616E+02 -0.10625630157E+03  0.16017220927E+03  0.91931400459E+02 0.  0.
         24    2    1    2    0    0 -0.64271835586E+02 -0.14699365434E+03 -0.35709067155E+03  0.39562346786E+03  0.57150479895E+02 0.  0.
        -11    1    4    4    0    0 -0.39628661228E+02 -0.73662732660E+02 -0.12034696620E+03  0.14656064017E+03  0.00000000000E+00 0.  1.
         12    1    4    4    0    0 -0.24643174358E+02 -0.73330921683E+02 -0.23674370535E+03  0.24906282769E+03  0.00000000000E+00 0. -1.
        -13    1    3    3    0    0  0.51320645715E+02  0.29938626329E+02 -0.62490949576E+02  0.86227888771E+02  0.00000000000E+00 0. -1.
         13    1    3    3    0    0 -0.38119082043E+02  0.45818032287E+02 -0.43765351991E+02  0.73944320494E+02  0.00000000000E+00 0.  1.
         -4    1    1    2    0  502  0.51070271914E+02  0.71236995728E+02 -0.44363612949E+03  0.45221222631E+03  0.00000000000E+00 0.  1.
<scales pt_clust_5="13000.00000" pt_clust_6="13000.00000" pt_clust_7="13000.00000" pt_clust_8="13000.00000" pt_clust_9="87.65205"></scales>
<clustering>
<clus scale="   57.150">  5  6 -1 -1</clus>
<clus scale="   87.652">  2  9  1 -1</clus>
<clus scale="   91.931">  7  8 -1 -1</clus>
<clus scale="  113.485">  2  5  1 -1</clus>
<clus scale="   87.652">  2  5  1 -1</clus>
</clustering>
</event>
<event>
 9    2  0.6469128E-005  0.9860902E+02  0.7546771E-02  0.1285970E+00
         21   -1    0    0  501  502  0.00000000000E+00  0.00000000000E+00  0.22068873400E+03  0.22068873400E+03  0.00000000000E+00 0. -1.
          2   -1    0    0  502    0 -0.00000000000E+00 -0.00000000000E+00 -0.90110524096E+02  0.90110524096E+02  0.00000000000E+00 0. -1.
         24    2    1    2    0    0  0.22510821000E+02 -0.22231427112E+02  0.24588015015E+02  0.90874173305E+02  0.81563297371E+02 0.  0.
         23    2    1    2    0    0 -0.84058688878E+02  0.14425754253E+02  0.99761016504E+02  0.15757228829E+03  0.87194036841E+02 0.  0.
        -13    1    3    3    0    0 -0.26557126289E+02 -0.14418781200E+02 -0.82406066271E+01  0.31322353130E+02  0.00000000000E+00 0.  1.
         14    1    3    3    0    0  0.49067947288E+02 -0.78126459116E+01  0.32828621642E+02  0.59551820175E+02  0.00000000000E+00 0. -1.
        -13    1    4    4    0    0 -0.19658851218E+02  0.41212846769E+02  0.65547961816E+02  0.79884319289E+02  0.00000000000E+00 0. -1.
         13    1    4    4    0    0 -0.64399837659E+02 -0.26787092516E+02  0.34213054688E+02  0.77687968998E+02  0.00000000000E+00 0.  1.
          1    1    1    2  501    0  0.61547867878E+02  0.78056728589E+01  0.62291783904E+01  0.62352796509E+02  0.00000000000E+00 0. -1.
<scales pt_clust_5="13000.00000" pt_clust_6="13000.00000" pt_clust_7="13000.00000" pt_clust_8="13000.00000" pt_clust_9="62.04089"></scales>
<clustering>
<clus scale="   62.041">  1  9  2 -1</clus>
<clus scale="   81.563">  5  6 -1 -1</clus>
<clus scale="   87.194">  7  8 -1 -1</clus>
<clus scale="   93.667">  2  5  1 -1</clus>
<clus scale="   62.041">  1  5  2 -1</clus>
</clustering>
</event>
<event>
 9    2  0.6469128E-005  0.2742391E+03  0.7546771E-02  0.1113926E+00
          2   -1    0    0  502    0 -0.00000000000E+00  0.00000000000E+00  0.14238102135E+04  0.14238102135E+04  0.00000000000E+00 0. -1.
         21   -1    0    0  501  502  0.00000000000E+00 -0.00000000000E+00 -0.14007769924E+03  0.14007769924E+03  0.00000000000E+00 0.  1.
         23    2    1    2    0    0 -0.11987993499E+03  0.10472088231E+03  0.13043570770E+03  0.22754166458E+03  0.97077666168E+02 0.  0.
         24    2    1    2    0    0  0.17885895355E+03  0.18974964517E+03  0.20495401015E+03  0.34158724435E+03  0.81732772589E+02 0.  0.
        -11    1    4    4    0    0  0.34174786205E+02  0.71355004068E+02  0.98892066339E+02  0.12664554237E+03  0.00000000000E+00 0.  1.
         12    1    4    4    0    0  0.14468416735E+03  0.11839464110E+03  0.10606194381E+03  0.21494170198E+03  0.00000000000E+00 0. -1.
        -13    1    3    3    0    0 -0.54012396068E+01  0.31952761840E+02 -0.83603869743E+01  0.33467124896E+02  0.00000000000E+00 0. -1.
         13    1    3    3    0    0 -0.11447869539E+03  0.72768120466E+02  0.13879609468E+03  0.19407453968E+03  0.00000000000E+00 0.  1.
          1    1    1    2  501    0 -0.58979018560E+02 -0.29447052748E+03  0.94834279642E+03  0.99475900383E+03  0.00000000000E+00 0. -1.
<scales pt_clust_5="13000.00000" pt_clust_6="13000.00000" pt_clust_7="13000.00000" pt_clust_8="13000.00000" pt_clust_9="261.77643"></scales>
<clustering>
<clus scale="   81.733">  5  6 -1 -1</clus>
<clus scale="   97.078">  7  8 -1 -1</clus>
<clus scale="  186.445">  1  7  2 -1</clus>
<clus scale="  261.776">  2  9  1 -1</clus>
<clus scale="  261.776">  2  5  1 -1</clus>
</clustering>
</event>
<event>
 9    2  0.6469128E-005  0.1035656E+03  0.7546771E-02  0.1277647E+00
         -1   -1    0    0    0  501 -0.00000000000E+00  0.00000000000E+00  0.32023440413E+03  0.32023440413E+03  0.00000000000E+00 0.  1.
         21   -1    0    0  501  502  0.00000000000E+00 -0.00000000000E+00 -0.72701887630E+02  0.72701887630E+02  0.00000000000E+00 0.  1.
         24    2    1    2    0    0 -0.47152773783E+02 -0.24014692043E+02  0.18402984575E+03  0.20803297534E+03  0.81305874278E+02 0.  0.
         23    2    1    2    0    0  0.49290516787E+02 -0.28096073025E+02  0.75366570943E+02  0.13141636560E+03  0.91494244450E+02 0.  0.
        -11    1    3    3    0    0  0.10259728272E+02 -0.24265129505E+02  0.11628495971E+03  0.11923191850E+03  0.00000000000E+00 0.  1.
         12    1    3    3    0    0 -0.57412502055E+02  0.25043746132E+00  0.67744886033E+02  0.88801056834E+02  0.00000000000E+00 0. -1.
        -13    1    4    4    0    0 -0.80080992088E+01 -0.36145345947E+02  0.61712996430E+02  0.71966030979E+02  0.00000000000E+00 0.  1.
         13    1    4    4    0    0  0.57298615996E+02  0.80492729227E+01  0.13653574513E+02  0.59450334621E+02  0.00000000000E+00 0. -1.
         -2    1    1    2    0  502 -0.21377430037E+01  0.52110765068E+02 -0.11863900187E+02  0.53486950827E+02  0.00000000000E+00 0.  1.
<scales pt_clust_5="13000.00000" pt_clust_6="13000.00000" pt_clust_7="13000.00000" pt_clust_8="13000.00000" pt_clust_9="52.15460"></scales>
<clustering>
<clus scale="   52.155">  2  9  1 -1</clus>
<clus scale="   81.306">  5  6 -1 -1</clus>
<clus scale="   91.494">  7  8 -1 -1</clus>
<clus scale="   94.685">  1  5  2 -1</clus>
<clus scale="   52.155">  2  5  1 -1</clus>
</clustering>
</event>
<event>
 9    2  0.6469128E-005  0.9772850E+02  0.7546771E-02  0.1290990E+00
         -1   -1    0    0    0  501 -0.00000000000E+00  0.00000000000E+00  0.34819837184E+02  0.34819837184E+02  0.00000000000E+00 0.  1.
         21   -1    0    0  501  502  0.00000000000E+00 -0.00000000000E+00 -0.40612370691E+03  0.40612370691E+03  0.00000000000E+00 0. -1.
         23    2    1    2    0    0 -0.28135702604E+02 -0.13260104397E+02 -0.72689341811E+02  0.12292200413E+03  0.94120298329E+02 0.  0.
         24    2    1    2    0    0  0.54058968923E+01  0.19225222202E+02 -0.23688526676E+03  0.25197058704E+03  0.83520741366E+02 0.  0.
        -11    1    4    4    0    0  0.47754653477E+01 -0.31041398344E+02 -0.55737893327E+02  0.63977232146E+02  0.00000000000E+00 0.  1.
         12    1    4    4    0    0  0.63043154460E+00  0.50266620546E+02 -0.18114737343E+03  0.18799335490E+03  0.00000000000E+00 0. -1.
        -11    1    3    3    0    0 -0.31988486624E+02 -0.51492994321E+02 -0.42069361583E+02  0.73787688164E+02  0.00000000000E+00 0.  1.
         11    1    3    3    0    0  0.38527840192E+01  0.38232889924E+02 -0.30619980228E+02  0.49134315970E+02  0.00000000000E+00 0. -1.
         -2    1    1    2    0  502  0.22729805712E+02 -0.59651178049E+01 -0.61729261160E+02  0.66050952919E+02  0.00000000000E+00 0.  1.
<scales pt_clust_5="13000.00000" pt_clust_6="13000.00000" pt_clust_7="13000.00000" pt_clust_8="13000.00000" pt_clust_9="23.49950"></scales>
<clustering>
<clus scale="   23.500">  2  9  1 -1</clus>
<clus scale="   83.521">  5  6 -1 -1</clus>
<clus scale="   87.567">  2  5  1 -1</clus>
<clus scale="   94.120">  7  8 -1 -1</clus>
<clus scale="   23.500">  2  5  1 -1</clus>
</clustering>
</event>
<event>
 9    2  0.7655021E-005  0.9554258E+02  0.7546771E-02  0.1295876E+00
         21   -1    0    0  501  502  0.00000000000E+00  0.00000000000E+00  0.14460705682E+03  0.14460705682E+03  0.00000000000E+00 0. -1.
          2   -1    0    0  502    0 -0.00000000000E+00 -0.00000000000E+00 -0.64382465866E+03  0.64382465866E+03  0.00000000000E+00 0. -1.
         24    2    1    2    0    0 -0.25525368088E+02  0.30209523217E+02 -0.48026198217E+03  0.48844217851E+03  0.79749799500E+02 0.  0.
         23    2    1    2    0    0  0.24936328723E+02  0.31095092985E+02 -0.13586846015E+03  0.16797735872E+03  0.90373830734E+02 0.  0.
        -13    1    3    3    0    0 -0.90247323250E+01 -0.26522575628E+02 -0.11086761529E+03  0.11435261663E+03  0.00000000000E+00 0.  1.
         14    1    3    3    0    0 -0.16500635763E+02  0.56732098845E+02 -0.36939436689E+03  0.37408956188E+03  0.00000000000E+00 0. -1.
        -11    1    4    4    0    0  0.50124641509E+02  0.23220453908E+02 -0.39111371675E+02  0.67685807673E+02  0.00000000000E+00 0.  1.
         11    1    4    4    0    0 -0.25188312786E+02  0.78746390772E+01 -0.96757088472E+02  0.10029155105E+03  0.00000000000E+00 0. -1.
          1    1    1    2  501    0  0.58903936529E+00 -0.61304616202E+02  0.11691284049E+03  0.13201217825E+03  0.00000000000E+00 0. -1.
<scales pt_clust_5="13000.00000" pt_clust_6="13000.00000" pt_clust_7="13000.00000" pt_clust_8="13000.00000" pt_clust_9="61.30745"></scales>
<clustering>
<clus scale="   61.307">  1  9  2 -1</clus>
<clus scale="   79.750">  5  6 -1 -1</clus>
<clus scale="   85.563">  2  5  1 -1</clus>
<clus scale="   90.374">  7  8 -1 -1</clus>
<clus scale="   61.307">  1  5  2 -1</clus>
</clustering>
</event>
<event>
 9    2  0.6469128E-005  0.3294560E+03  0.7546771E-02  0.1071378E+00
          2   -1    0    0  502    0 -0.00000000000E+00  0.00000000000E+00  0.24654787926E+03  0.24654787926E+03  0.00000000000E+00 0. -1.
         21   -1    0    0  501  502  0.00000000000E+00 -0.00000000000E+00 -0.40415423677E+03  0.40415423677E+03  0.00000000000E+00 0.  1.
         24    2    1    2    0    0 -0.11093104977E+03  0.29707716025E+02  0.30145296062E+02  0.14393641187E+03  0.81367718369E+02 0.  0.
         23    2    1    2    0    0 -0.15712999079E+03 -0.35715934023E+02 -0.11749392804E+02  0.18603276862E+03  0.92220826377E+02 0.  0.
        -11    1    3    3    0    0 -0.11497548749E+03  0.42335933213E+02  0.38300692760E+02  0.12836914361E+03  0.00000000000E+00 0.  1.
         12    1    3    3    0    0  0.40444377211E+01 -0.12628217187E+02 -0.81553966980E+01  0.15567268261E+02  0.00000000000E+00 0. -1.
        -13    1    4    4    0    0 -0.78370434945E+02 -0.60085173401E+02  0.13819736156E+02  0.99715285907E+02  0.00000000000E+00 0.  1.
         13    1    4    4    0    0 -0.78759555850E+02  0.24369239378E+02 -0.25569128960E+02  0.86317482710E+02  0.00000000000E+00 0. -1.
          1    1    1    2  501    0  0.26806104056E+03  0.60082179977E+01 -0.17600226077E+03  0.32073293555E+03  0.00000000000E+00 0. -1.
<scales pt_clust_5="13000.00000" pt_clust_6="13000.00000" pt_clust_7="13000.00000" pt_clust_8="13000.00000" pt_clust_9="268.12837"></scales>
<clustering>
<clus scale="   81.368">  5  6 -1 -1</clus>
<clus scale="   92.221">  7  8 -1 -1</clus>
<clus scale="  114.527">  5  7 -1 -1</clus>
<clus scale="  268.128">  2  9  1 -1</clus>
<clus scale="  268.128">  2  5  1 -1</clus>
</clustering>
</event>
<event>
 9    2  0.6469128E-005  0.1126591E+03  0.7546771E-02  0.1259935E+00
          2   -1    0    0  502    0 -0.00000000000E+00  0.00000000000E+00  0.36626077153E+03  0.36626077153E+03  0.00000000000E+00 0. -1.
         21   -1    0    0  501  502  0.00000000000E+00 -0.00000000000E+00 -0.17292911674E+03  0.17292911674E+03  0.00000000000E+00 0. -1.
         23    2    1    2    0    0  0.52613264491E+02 -0.43300979289E+02  0.31638517283E+03  0.33610004663E+03  0.90667156964E+02 0.  0.
         24    2    1    2    0    0 -0.66716072102E+02  0.69826273075E+01 -0.39820433325E+02  0.11118957904E+03  0.79231712190E+02 0.  0.
        -11    1    4    4    0    0 -0.78669694464E+02  0.23957104029E+02 -0.37216350533E+02  0.90265831894E+02  0.00000000000E+00 0.  1.
         12    1    4    4    0    0  0.11953622362E+02 -0.16974476722E+02 -0.26040827927E+01  0.20923747148E+02  0.00000000000E+00 0. -1.
        -13    1    3    3    0    0  0.47452375001E+02  0.16209727269E+02  0.18674026155E+03  0.19335565271E+03  0.00000000000E+00 0. -1.
         13    1    3    3    0    0  0.51608894908E+01 -0.59510706558E+02  0.12964491128E+03  0.14274439392E+03  0.00000000000E+00 0.  1.
          1    1    1    2  501    0  0.14102807611E+02  0.36318351981E+02 -0.83233084714E+02  0.91900262590E+02  0.00000000000E+00 0. -1.
<scales pt_clust_5="13000.00000" pt_clust_6="13000.00000" pt_clust_7="13000.00000" pt_clust_8="13000.00000" pt_clust_9="38.96039"></scales>
<clustering>
<clus scale="   38.960">  2  9  1 -1</clus>
<clus scale="   79.232">  5  6 -1 -1</clus>
<clus scale="   90.667">  7  8 -1 -1</clus>
<clus scale="  103.678">  2  5  1 -1</clus>
<clus scale="   38.960">  2  5  1 -1</clus>
</clustering>
</event>
<event>
 9    2  0.6469128E-005  0.1279425E+03  0.7546771E-02  0.1231745E+00
          2   -1    0    0  502    0 -0.00000000000E+00  0.00000000000E+00  0.23489633431E+03  0.23489633431E+03  0.00000000000E+00 0. -1.
         21   -1    0    0  501  502  0.00000000000E+00 -0.00000000000E+00 -0.12845368241E+03  0.12845368241E+03  0.00000000000E+00 0.  1.
         23    2    1    2    0    0  0.33065136580E+02  0.10229733372E+03  0.10421777828E+03  0.17403941886E+03  0.88714859316E+02 0.  0.
         24    2    1    2    0    0  0.41990932119E+01 -0.60070510178E+02 -0.47814934215E+02  0.11397329093E+03  0.84128143540E+02 0.  0.
        -11    1    4    4    0    0 -0.25001930106E+02 -0.47178478436E+02 -0.59533761955E+02  0.79969832744E+02  0.00000000000E+00 0.  1.
         12    1    4    4    0    0  0.29201023318E+02 -0.12892031742E+02  0.11718827741E+02  0.34003458190E+02  0.00000000000E+00 0. -1.
        -11    1    3    3    0    0  0.52075339719E+02  0.24370032071E+02  0.56998825464E+02  0.80960518614E+02  0.00000000000E+00 0.  1.
         11    1    3    3    0    0 -0.19010203139E+02  0.77927301647E+02  0.47218952818E+02  0.93078900243E+02  0.00000000000E+00 0. -1.
          1    1    1    2  501    0 -0.37264229792E+02 -0.42226823540E+02  0.50039807835E+02  0.75337306936E+02  0.00000000000E+00 0. -1.
<scales pt_clust_5="13000.00000" pt_clust_6="13000.00000" pt_clust_7="13000.00000" pt_clust_8="13000.00000" pt_clust_9="56.31812"></scales>
<clustering>
<clus scale="   56.318">  2  9  1 -1</clus>
<clus scale="   84.128">  5  6 -1 -1</clus>
<clus scale="   88.715">  7  8 -1 -1</clus>
<clus scale="  124.806">  2  5  1 -1</clus>
<clus scale="   56.318">  2  5  1 -1</clus>
</clustering>
</event>
<event>
 9    2  0.6469128E-005  0.9170925E+02  0.7546771E-02  0.1303904E+00
          4   -1    0    0  502    0 -0.00000000000E+00  0.00000000000E+00  0.53135996340E+03  0.53135996340E+03  0.00000000000E+00 0. -1.
         21   -1    0    0  501  502  0.00000000000E+00 -0.00000000000E+00 -0.29975439352E+02  0.29975439352E+02  0.00000000000E+00 0. -1.
         23    2    1    2    0    0  0.14528224478E+00 -0.41248636644E+02  0.20725364851E+03  0.23020309145E+03  0.91312197222E+02 0.  0.
         24    2    1    2    0    0  0.21054789752E+01 -0.23871019898E+02  0.15350652802E+03  0.17614572250E+03  0.82998811896E+02 0.  0.
        -13    1    4    4    0    0  0.42213921113E+02 -0.13334476603E+02  0.68446538716E+02  0.81515348642E+02  0.00000000000E+00 0.  1.
         14    1    4    4    0    0 -0.40108442138E+02 -0.10536543295E+02  0.85059989304E+02  0.94630373854E+02  0.00000000000E+00 0. -1.
        -11    1    3    3    0    0 -0.37611947157E+02 -0.13031597612E+02  0.15410879888E+03  0.15916658882E+03  0.00000000000E+00 0.  1.
         11    1    3    3    0    0  0.37757229401E+02 -0.28217039032E+02  0.53144849635E+02  0.71036502634E+02  0.00000000000E+00 0. -1.
          3    1    1    2  501    0 -0.22507612200E+01  0.65119656542E+02  0.14062434751E+03  0.15498658880E+03  0.00000000000E+00 0. -1.
<scales pt_clust_5="13000.00000" pt_clust_6="13000.00000" pt_clust_7="13000.00000" pt_clust_8="13000.00000" pt_clust_9="65.15857"></scales>
<clustering>
<clus scale="   65.159">  2  9  1 -1</clus>
<clus scale="   82.999">  5  6 -1 -1</clus>
<clus scale="   83.435">  2  5  1 -1</clus>
<clus scale="   91.312">  7  8 -1 -1</clus>
<clus scale="   65.159">  2  5  1 -1</clus>
</clustering>
</event>
<event>
 9    2  0.6469128E-005  0.9457113E+02  0.7546771E-02  0.1298355E+00
         21   -1    0    0  501  502  0.00000000000E+00  0.00000000000E+00  0.12047514130E+02  0.12047514130E+02  0.00000000000E+00 0.  1.
          2   -1    0    0  502    0 -0.00000000000E+00 -0.00000000000E+00 -0.91579476766E+03  0.91579476766E+03  0.00000000000E+00 0. -1.
         23    2    1    2    0    0 -0.28075214467E+02  0.14658831204E+02 -0.50796184597E+03  0.51699208329E+03  0.90843151797E+02 0.  0.
         24    2    1    2    0    0  0.23622776292E+02  0.71586436908E+01 -0.35066503054E+03  0.36053444710E+03  0.80061489873E+02 0.  0.
        -13    1    4    4    0    0  0.30071725847E+02  0.36418439437E+02 -0.27719603832E+03  0.28119078059E+03  0.00000000000E+00 0.  1.
         14    1    4    4    0    0 -0.64489495553E+01 -0.29259795746E+02 -0.73468992213E+02  0.79343666504E+02  0.00000000000E+00 0. -1.
        -11    1    3    3    0    0 -0.23041045114E+02 -0.37381133638E+02 -0.22793683995E+03  0.23212807223E+03  0.00000000000E+00 0.  1.
         11    1    3    3    0    0 -0.50341693528E+01  0.52039964842E+02 -0.28002500602E+03  0.28486401106E+03  0.00000000000E+00 0. -1.
          1    1    1    2  501    0  0.44524381747E+01 -0.21817474894E+02 -0.45120377025E+02  0.50315751404E+02  0.00000000000E+00 0. -1.
<scales pt_clust_5="13000.00000" pt_clust_6="13000.00000" pt_clust_7="13000.00000" pt_clust_8="13000.00000" pt_clust_9="22.26716"></scales>
<clustering>
<clus scale="   22.267">  1  9  2 -1</clus>
<clus scale="   80.061">  5  6 -1 -1</clus>
<clus scale="   84.268">  1  5  2 -1</clus>
<clus scale="   90.843">  7  8 -1 -1</clus>
<clus scale="   22.267">  1  5  2 -1</clus>
</clustering>
</event>
<event>
 9    2  0.6469128E-005  0.1163513E+03  0.7546771E-02  0.1251840E+00
          2   -1    0    0  502    0 -0.00000000000E+00  0.00000000000E+00  0.16352445370E+04  0.16352445370E+04  0.00000000000E+00 0. -1.
         21   -1    0    0  501  502  0.00000000000E+00 -0.00000000000E+00 -0.20724269150E+02  0.20724269150E+02  0.00000000000E+00 0. -1.
         24    2    1    2    0    0  0.47504638475E+02 -0.57708310231E+02  0.11684685765E+04  0.11736500638E+04  0.80924151706E+02 0.  0.
         23    2    1    2    0    0 -0.22561987436E+02  0.81292710037E+02  0.20473708577E+03  0.23857482214E+03  0.88786955618E+02 0.  0.
        -13    1    3    3    0    0  0.12650323893E+02 -0.21276688270E+02  0.74188899206E+02  0.78209468248E+02  0.00000000000E+00 0.  1.
         14    1    3    3    0    0  0.34854314582E+02 -0.36431621962E+02  0.10942796773E+04  0.10954405956E+04  0.00000000000E+00 0. -1.
        -11    1    4    4    0    0  0.21535755734E+02  0.21783142782E+02  0.12920675631E+03  0.13278810173E+03  0.00000000000E+00 0.  1.
         11    1    4    4    0    0 -0.44097743170E+02  0.59509567255E+02  0.75530329466E+02  0.10578672042E+03  0.00000000000E+00 0. -1.
          1    1    1    2  501    0 -0.24942651039E+02 -0.23584399806E+02  0.24131460557E+03  0.24374392016E+03  0.00000000000E+00 0. -1.
<scales pt_clust_5="13000.00000" pt_clust_6="13000.00000" pt_clust_7="13000.00000" pt_clust_8="13000.00000" pt_clust_9="34.32726"></scales>
<clustering>
<clus scale="   34.327">  2  9  1 -1</clus>
<clus scale="   80.924">  5  6 -1 -1</clus>
<clus scale="   88.787">  7  8 -1 -1</clus>
<clus scale="  110.468">  1  5  2 -1</clus>
<clus scale="   34.327">  2  5  1 -1</clus>
</clustering>
</event>
<event>
 9    2  0.6469128E-005  0.1512092E+03  0.7546771E-02  0.1200981E+00
          2   -1    0    0  502    0 -0.00000000000E+00  0.00000000000E+00  0.56745587798E+03  0.56745587798E+03  0.00000000000E+00 0. -1.
         21   -1    0    0  501  502  0.00000000000E+00 -0.00000000000E+00 -0.23133123708E+03  0.23133123708E+03  0.00000000000E+00 0. -1.
         24    2    1    2    0    0  0.53018778257E+02  0.94094665134E+02  0.15464246927E+03  0.20531589144E+03  0.81089611654E+02 0.  0.
         23    2    1    2    0    0 -0.13240709727E+03 -0.16936451252E+03 -0.12704467346E+03  0.26612298510E+03  0.92006068486E+02 0.  0.
        -13    1    3    3    0    0  0.73621895537E+02  0.59796497531E+02  0.11377059529E+03  0.14812006269E+03  0.00000000000E+00 0.  1.
         14    1    3    3    0    0 -0.20603117280E+02  0.34298167603E+02  0.40871873987E+02  0.57195828745E+02  0.00000000000E+00 0. -1.
        -13    1    4    4    0    0 -0.73416012750E+02 -0.45248693024E+02 -0.88112509742E+02  0.12329302300E+03  0.00000000000E+00 0. -1.
         13    1    4    4    0    0 -0.58991084516E+02 -0.12411581950E+03 -0.38932163719E+02  0.14282996210E+03  0.00000000000E+00 0.  1.
          1    1    1    2  501    0  0.79388319008E+02  0.75269847387E+02  0.30852684509E+03  0.32734823852E+03  0.00000000000E+00 0. -1.
<scales pt_clust_5="13000.00000" pt_clust_6="13000.00000" pt_clust_7="13000.00000" pt_clust_8="13000.00000" pt_clust_9="109.39866"></scales>
<clustering>
<clus scale="   81.090">  5  6 -1 -1</clus>
<clus scale="   92.006">  7  8 -1 -1</clus>
<clus scale="  109.399">  2  9  1 -1</clus>
<clus scale="  144.826">  1  5  2 -1</clus>
<clus scale="  109.399">  2  5  1 -1</clus>
</clustering>
</event>
<event>
 9    2  0.6469128E-005  0.2679336E+03  0.7546771E-02  0.1102913E+00
          2   -1    0    0  502    0 -0.00000000000E+00  0.00000000000E+00  0.11459192037E+04  0.11459192037E+04  0.00000000000E+00 0. -1.
         21   -1    0    0  501  502  0.00000000000E+00 -0.00000000000E+00 -0.12137548870E+03  0.12137548870E+03  0.00000000000E+00 0. -1.
         24    2    1    2    0    0  0.14697722918E+03  0.21948708251E+03  0.91506142694E+03  0.95613766412E+03  0.84172040448E+02 0.  0.
         23    2    1    2    0    0 -0.13051782396E+03 -0.15914578210E+03  0.10269242324E+03  0.24824370048E+03  0.93364440252E+02 0.  0.
        -13    1    3    3    0    0  0.62845457678E+02  0.29836076284E+02  0.24573238664E+03  0.25539018940E+03  0.00000000000E+00 0.  1.
         14    1    3    3    0    0  0.84131771504E+02  0.18965100622E+03  0.66932904030E+03  0.70074747472E+03  0.00000000000E+00 0. -1.
        -11    1    4    4    0    0 -0.43878763284E+02 -0.58577631569E+02 -0.10316266401E+02  0.73912855039E+02  0.00000000000E+00 0. -1.
         11    1    4    4    0    0 -0.86639060678E+02 -0.10056815053E+03  0.11300868964E+03  0.17433084544E+03  0.00000000000E+00 0.  1.
          1    1    1    2  501    0 -0.16459405219E+02 -0.60341300403E+02  0.67898648455E+01  0.62913327834E+02  0.00000000000E+00 0. -1.
<scales pt_clust_5="13000.00000" pt_clust_6="13000.00000" pt_clust_7="13000.00000" pt_clust_8="13000.00000" pt_clust_9="62.54586"></scales>
<clustering>
<clus scale="   62.546">  2  9  1 -1</clus>
<clus scale="   84.172">  5  6 -1 -1</clus>
<clus scale="   93.364">  7  8 -1 -1</clus>
<clus scale="  264.871">  1  5  2 -1</clus>
<clus scale="   62.546">  2  5  1 -1</clus>
</clustering>
</event>
<event>
 9    2  0.6469128E-005  0.1213545E+03  0.7546771E-02  0.1260533E+00
          2   -1    0    0  502    0 -0.00000000000E+00  0.00000000000E+00  0.38617253871E+03  0.38617253871E+03  0.00000000000E+00 0. -1.
         21   -1    0    0  501  502  0.00000000000E+00 -0.00000000000E+00 -0.81395583018E+02  0.81395583018E+02  0.00000000000E+00 0.  1.
         24    2    1    2    0    0  0.25064083858E+01  0.15254032606E+02  0.21172851642E+01  0.82008881661E+02  0.80510907218E+02 0.  0.
         23    2    1    2    0    0  0.11783265890E+01  0.70252388147E+02  0.27211083027E+03  0.29468483827E+03  0.88645718797E+02 0.  0.
        -13    1    3    3    0    0 -0.12122478994E+02  0.24684683195E+02 -0.32914714781E+02  0.42891333979E+02  0.00000000000E+00 0.  1.
         14    1    3    3    0    0  0.14628887380E+02 -0.94306505884E+01  0.35031999945E+02  0.39117547682E+02  0.00000000000E+00 0. -1.
        -11    1    4    4    0    0  0.35118939642E+02  0.64411199852E+00  0.71975428779E+02  0.80088807893E+02  0.00000000000E+00 0.  1.
         11    1    4    4    0    0 -0.33940613053E+02  0.69608276149E+02  0.20013540149E+03  0.21459603037E+03  0.00000000000E+00 0. -1.
          1    1    1    2  501    0 -0.36847349748E+01 -0.85506420754E+02  0.30548840264E+02  0.90874401805E+02  0.00000000000E+00 0. -1.
<scales pt_clust_5="13000.00000" pt_clust_6="13000.00000" pt_clust_7="13000.00000" pt_clust_8="13000.00000" pt_clust_9="82.87859"></scales>
<clustering>
<clus scale="   80.511">  5  6 -1 -1</clus>
<clus scale="   81.982">  1  5  2 -1</clus>
<clus scale="   82.879">  2  9  1 -1</clus>
<clus scale="   88.646">  7  8 -1 -1</clus>
<clus scale="   82.879">  2  5  1 -1</clus>
</clustering>
</event>
<event>
 9    2  0.6469128E-005  0.1213862E+03  0.7546771E-02  0.1243493E+00
          2   -1    0    0  502    0 -0.00000000000E+00  0.00000000000E+00  0.79817795980E+03  0.79817795980E+03  0.00000000000E+00 0. -1.
         21   -1    0    0  501  502  0.00000000000E+00 -0.00000000000E+00 -0.29781450738E+02  0.29781450738E+02  0.00000000000E+00 0.  1.
         23    2    1    2    0    0 -0.67222006244E+02  0.51988167407E+02  0.53437182537E+03  0.54862732557E+03  0.90648369758E+02 0.  0.
         24    2    1    2    0    0  0.70923531071E+02 -0.25671123820E+02  0.22537711701E+03  0.25138448259E+03  0.81915562364E+02 0.  0.
        -11    1    4    4    0    0  0.83332855813E+02 -0.29085244462E+02  0.14327467530E+03  0.16827937749E+03  0.00000000000E+00 0.  1.
         12    1    4    4    0    0 -0.12409324742E+02  0.34141206420E+01  0.82102441706E+02  0.83105105105E+02  0.00000000000E+00 0. -1.
        -11    1    3    3    0    0 -0.68413522260E+02 -0.31237489715E+01  0.32347420682E+03  0.33064441672E+03  0.00000000000E+00 0.  1.
         11    1    3    3    0    0  0.11915160167E+01  0.55111916379E+02  0.21089761855E+03  0.21798290884E+03  0.00000000000E+00 0. -1.
          1    1    1    2  501    0 -0.37015248272E+01 -0.26317043587E+02  0.86475666848E+01  0.27947602380E+02  0.00000000000E+00 0. -1.
<scales pt_clust_5="13000.00000" pt_clust_6="13000.00000" pt_clust_7="13000.00000" pt_clust_8="13000.00000" pt_clust_9="26.57608"></scales>
<clustering>
<clus scale="   26.576">  2  9  1 -1</clus>
<clus scale="   81.916">  5  6 -1 -1</clus>
<clus scale="   90.648">  7  8 -1 -1</clus>
<clus scale="  115.011">  2  5  1 -1</clus>
<clus scale="   26.576">  2  5  1 -1</clus>
</clustering>
</event>
<event>
 9    2  0.6469128E-005  0.1210576E+03  0.7546771E-02  0.1245923E+00
         21   -1    0    0  501  502  0.00000000000E+00  0.00000000000E+00  0.11367521312E+03  0.11367521312E+03  0.00000000000E+00 0. -1.
          2   -1    0    0  502    0 -0.00000000000E+00 -0.00000000000E+00 -0.16301770284E+03  0.16301770284E+03  0.00000000000E+00 0. -1.
         23    2    1    2    0    0  0.27517980591E+02 -0.80208394471E+02 -0.60163483265E+02  0.13672015006E+03  0.88781354541E+02 0.  0.
         24    2    1    2    0    0 -0.51687223354E+02  0.63181719533E+02  0.66502169721E+01  0.11011551665E+03  0.73605046572E+02 0.  0.
        -13    1    4    4    0    0 -0.20992900017E+02  0.72525199686E+02  0.14964032144E+02  0.76970960099E+02  0.00000000000E+00 0.  1.
         14    1    4    4    0    0 -0.30694323337E+02 -0.93434801526E+01 -0.83138151715E+01  0.33144556555E+02  0.00000000000E+00 0. -1.
        -13    1    3    3    0    0  0.54623883272E+02 -0.28269490618E+02 -0.16582377723E+02  0.63701710922E+02  0.00000000000E+00 0. -1.
         13    1    3    3    0    0 -0.27105902681E+02 -0.51938903853E+02 -0.43581105542E+02  0.73018439136E+02  0.00000000000E+00 0.  1.
          1    1    1    2  501    0  0.24169242764E+02  0.17026674938E+02  0.41707765756E+01  0.29857249245E+02  0.00000000000E+00 0. -1.
<scales pt_clust_5="13000.00000" pt_clust_6="13000.00000" pt_clust_7="13000.00000" pt_clust_8="13000.00000" pt_clust_9="29.56450"></scales>
<clustering>
<clus scale="   29.565">  1  9  2 -1</clus>
<clus scale="   73.605">  5  6 -1 -1</clus>
<clus scale="   88.781">  7  8 -1 -1</clus>
<clus scale="  110.411">  1  5  2 -1</clus>
<clus scale="   29.565">  1  5  2 -1</clus>
</clustering>
</event>
<event>
 9    2  0.6469128E-005  0.1857907E+03  0.7546771E-02  0.1183373E+00
          2   -1    0    0  502    0 -0.00000000000E+00  0.00000000000E+00  0.49848868653E+02  0.49848868653E+02  0.00000000000E+00 0. -1.
         21   -1    0    0  501  502  0.00000000000E+00 -0.00000000000E+00 -0.11162484585E+04  0.11162484585E+04  0.00000000000E+00 0.  1.
         24    2    1    2    0    0 -0.80643393182E+02  0.16967240161E+02 -0.26281405328E+03  0.28688885951E+03  0.80266724159E+02 0.  0.
         23    2    1    2    0    0 -0.73583120574E+02 -0.11966257858E+03 -0.32256533656E+03  0.36373530355E+03  0.92311247169E+02 0.  0.
        -13    1    3    3    0    0 -0.46066061436E+02  0.19165794229E+02 -0.47782251684E+02  0.69083668553E+02  0.00000000000E+00 0.  1.
         14    1    3    3    0    0 -0.34577331746E+02 -0.21985540675E+01 -0.21503180160E+03  0.21780519096E+03  0.00000000000E+00 0. -1.
        -13    1    4    4    0    0 -0.55816536607E+01 -0.48897797315E+02 -0.36414566655E+02  0.61222300712E+02  0.00000000000E+00 0. -1.
         13    1    4    4    0    0 -0.68001466913E+02 -0.70764781269E+02 -0.28615076991E+03  0.30251300284E+03  0.00000000000E+00 0.  1.
          1    1    1    2  501    0  0.15422651376E+03  0.10269533842E+03 -0.48102019996E+03  0.51547316405E+03  0.00000000000E+00 0. -1.
<scales pt_clust_5="13000.00000" pt_clust_6="13000.00000" pt_clust_7="13000.00000" pt_clust_8="13000.00000" pt_clust_9="161.23523"></scales>
<clustering>
<clus scale="   80.267">  5  6 -1 -1</clus>
<clus scale="   92.311">  7  8 -1 -1</clus>
<clus scale="  115.039">  1  5  2 -1</clus>
<clus scale="  161.235">  2  9  1 -1</clus>
<clus scale="  161.235">  2  5  1 -1</clus>
</clustering>
</event>
<event>
 9    2  0.6469128E-005  0.1318448E+03  0.7546771E-02  0.1227841E+00
          2   -1    0    0  502    0 -0.00000000000E+00  0.00000000000E+00  0.89407071625E+03  0.89407071625E+03  0.00000000000E+00 0. -1.
         21   -1    0    0  501  502  0.00000000000E+00 -0.00000000000E+00 -0.49541186525E+02  0.49541186525E+02  0.00000000000E+00 0. -1.
         24    2    1    2    0    0 -0.13759456245E+02  0.12676926883E+03  0.57876471056E+03  0.59803074616E+03  0.80077543677E+02 0.  0.
         23    2    1    2    0    0 -0.44547544935E+02 -0.40230145931E+02  0.17775662447E+03  0.20907412928E+03  0.92258471647E+02 0.  0.
        -13    1    3    3    0    0  0.18798011700E+02  0.23788700861E+02  0.51031442865E+02  0.59358872070E+02  0.00000000000E+00 0.  1.
         14    1    3    3    0    0 -0.32557467946E+02  0.10298056797E+03  0.52773326770E+03  0.53867187409E+03  0.00000000000E+00 0. -1.
        -13    1    4    4    0    0 -0.31926824711E+02 -0.13224244982E+02  0.17583958839E+03  0.17920313512E+03  0.00000000000E+00 0.  1.
         13    1    4    4    0    0 -0.12620720224E+02 -0.27005900949E+02  0.19170360823E+01  0.29870994165E+02  0.00000000000E+00 0. -1.
          1    1    1    2  501    0  0.58307001181E+02 -0.86539122899E+02  0.88008194691E+02  0.13650702733E+03  0.00000000000E+00 0. -1.
<scales pt_clust_5="13000.00000" pt_clust_6="13000.00000" pt_clust_7="13000.00000" pt_clust_8="13000.00000" pt_clust_9="104.34906"></scales>
<clustering>
<clus scale="   80.078">  5  6 -1 -1</clus>
<clus scale="   92.258">  7  8 -1 -1</clus>
<clus scale="  104.349">  2  9  1 -1</clus>
<clus scale="  123.628">  1  5  2 -1</clus>
<clus scale="  104.349">  2  5  1 -1</clus>
</clustering>
</event>
<event>
 9    2  0.6469128E-005  0.1321663E+03  0.7546771E-02  0.1225148E+00
         21   -1    0    0  501  502  0.00000000000E+00  0.00000000000E+00  0.17370931928E+03  0.17370931928E+03  0.00000000000E+00 0. -1.
          2   -1    0    0  502    0 -0.00000000000E+00 -0.00000000000E+00 -0.42354500380E+03  0.42354500380E+03  0.00000000000E+00 0. -1.
         23    2    1    2    0    0 -0.71045878293E+02  0.61409012768E+02 -0.37661028201E+03  0.39889263090E+03  0.91986101111E+02 0.  0.
         24    2    1    2    0    0  0.62040781989E+02 -0.27005642410E+02  0.10038330693E+03  0.15407643651E+03  0.95311996233E+02 0.  0.
        -11    1    4    4    0    0  0.68385245864E+02 -0.54665892795E+02  0.66894636164E+02  0.11018073350E+03  0.00000000000E+00 0.  1.
         12    1    4    4    0    0 -0.63444638744E+01  0.27660250385E+02  0.33488670766E+02  0.43895703012E+02  0.00000000000E+00 0. -1.
        -11    1    3    3    0    0 -0.33645099942E+02  0.66736731869E+02 -0.33259058791E+03  0.34088456008E+03  0.00000000000E+00 0. -1.
         11    1    3    3    0    0 -0.37400778351E+02 -0.53277191006E+01 -0.44019694101E+02  0.58008070824E+02  0.00000000000E+00 0.  1.
          1    1    1    2  501    0  0.90050963035E+01 -0.34403370358E+02  0.26391290566E+02  0.44285255663E+02  0.00000000000E+00 0. -1.
<scales pt_clust_5="13000.00000" pt_clust_6="13000.00000" pt_clust_7="13000.00000" pt_clust_8="13000.00000" pt_clust_9="35.56239"></scales>
<clustering>
<clus scale="   35.562">  1  9  2 -1</clus>
<clus scale="   91.986">  7  8 -1 -1</clus>
<clus scale="   95.312">  5  6 -1 -1</clus>
<clus scale="  129.788">  2  7  1 -1</clus>
<clus scale="   35.562">  1  5  2 -1</clus>
</clustering>
</event>
<event>
 9    2  0.6469128E-005  0.1304579E+03  0.7546771E-02  0.1228367E+00
          2   -1    0    0  502    0 -0.00000000000E+00  0.00000000000E+00  0.66035737593E+03  0.66035737593E+03  0.00000000000E+00 0. -1.
         21   -1    0    0  501  502  0.00000000000E+00 -0.00000000000E+00 -0.48334253138E+02  0.48334253138E+02  0.00000000000E+00 0. -1.
         23    2    1    2    0    0  0.26124419518E+02  0.96491767101E+02  0.51823294676E+03  0.53521397574E+03  0.88856436476E+02 0.  0.
         24    2    1    2    0    0 -0.27565922738E+02 -0.71613772565E+02  0.50407632303E+02  0.12344728611E+03  0.82522060908E+02 0.  0.
        -13    1    4    4    0    0 -0.40629211764E+02 -0.30742120285E+01  0.71935035551E+01  0.41375477297E+02  0.00000000000E+00 0.  1.
         14    1    4    4    0    0  0.13063289026E+02 -0.68539560536E+02  0.43214128748E+02  0.82071808815E+02  0.00000000000E+00 0. -1.
        -13    1    3    3    0    0 -0.22368466286E+02  0.17110044684E+02  0.46232453329E+02  0.54134477498E+02  0.00000000000E+00 0.  1.
         13    1    3    3    0    0  0.48492885804E+02  0.79381722417E+02  0.47200049343E+03  0.48107949824E+03  0.00000000000E+00 0. -1.
          1    1    1    2  501    0  0.14415032199E+01 -0.24877994537E+02  0.43382543733E+02  0.50030367223E+02  0.00000000000E+00 0. -1.
<scales pt_clust_5="13000.00000" pt_clust_6="13000.00000" pt_clust_7="13000.00000" pt_clust_8="13000.00000" pt_clust_9="24.91973"></scales>
<clustering>
<clus scale="   24.920">  2  9  1 -1</clus>
<clus scale="   82.522">  5  6 -1 -1</clus>
<clus scale="   88.856">  7  8 -1 -1</clus>
<clus scale="  126.229">  2  5  1 -1</clus>
<clus scale="   24.920">  2  5  1 -1</clus>
</clustering>
</event>
<event>
 9    2  0.6469128E-005  0.1035913E+03  0.7546771E-02  0.1279478E+00
         21   -1    0    0  501  502  0.00000000000E+00  0.00000000000E+00  0.44528199032E+02  0.44528199032E+02  0.00000000000E+00 0. -1.
          4   -1    0    0  502    0 -0.00000000000E+00 -0.00000000000E+00 -0.13657181293E+04  0.13657181293E+04  0.00000000000E+00 0. -1.
         24    2    1    2    0    0  0.41248230283E+02 -0.48058503885E+01 -0.12397281788E+04  0.12430513867E+04  0.80785394724E+02 0.  0.
         23    2    1    2    0    0 -0.60891905055E+02  0.22788414494E+02 -0.81372884586E+02  0.14056310978E+03  0.94389117742E+02 0.  0.
        -11    1    3    3    0    0 -0.14964660362E+02 -0.14947003499E+02 -0.11875308472E+03  0.12062192630E+03  0.00000000000E+00 0.  1.
         12    1    3    3    0    0  0.56212890646E+02  0.10141153111E+02 -0.11209750941E+04  0.11224294604E+04  0.00000000000E+00 0. -1.
        -11    1    4    4    0    0 -0.52392184896E+02  0.54301187591E+02 -0.76695538792E+02  0.10759073233E+03  0.00000000000E+00 0. -1.
         11    1    4    4    0    0 -0.84997201594E+01 -0.31512773097E+02 -0.46773457933E+01  0.32972377451E+02  0.00000000000E+00 0.  1.
          3    1    1    2  501    0  0.19643674772E+02 -0.17982564105E+02 -0.88866892030E-01  0.26631831850E+02  0.00000000000E+00 0. -1.
<scales pt_clust_5="13000.00000" pt_clust_6="13000.00000" pt_clust_7="13000.00000" pt_clust_8="13000.00000" pt_clust_9="26.63168"></scales>
<clustering>
<clus scale="   26.632">  1  9  2 -1</clus>
<clus scale="   80.785">  5  6 -1 -1</clus>
<clus scale="   91.368">  2  5  1 -1</clus>
<clus scale="   94.389">  7  8 -1 -1</clus>
<clus scale="   26.632">  1  5  2 -1</clus>
</clustering>
</event>
<event>
 9    2  0.6469128E-005  0.2014493E+03  0.7546771E-02  0.1173937E+00
          2   -1    0    0  502    0 -0.00000000000E+00  0.00000000000E+00  0.56996119050E+03  0.56996119050E+03  0.00000000000E+00 0. -1.
         21   -1    0    0  501  502  0.00000000000E+00 -0.00000000000E+00 -0.15391507268E+03  0.15391507268E+03  0.00000000000E+00 0.  1.
         24    2    1    2    0    0  0.79379212337E+02 -0.42576100826E+01  0.24592202675E+03  0.27006926039E+03  0.78361824688E+02 0.  0.
         23    2    1    2    0    0  0.41250795588E+02  0.16888342956E+03  0.12229886120E+02  0.19576855759E+03  0.89176886626E+02 0.  0.
        -13    1    3    3    0    0  0.88491179119E+02 -0.18810361469E+02  0.22779059783E+03  0.24509809248E+03  0.00000000000E+00 0.  1.
         14    1    3    3    0    0 -0.91119667815E+01  0.14552751387E+02  0.18131428925E+02  0.24971167903E+02  0.00000000000E+00 0. -1.
        -11    1    4    4    0    0  0.12174730074E+02  0.15624615573E+03 -0.10014825579E+02  0.15703942806E+03  0.00000000000E+00 0.  1.
         11    1    4    4    0    0  0.29076065514E+02  0.12637273830E+02  0.22244711698E+02  0.38729129531E+02  0.00000000000E+00 0. -1.
          1    1    1    2  501    0 -0.12063000792E+03 -0.16462581948E+03  0.15789420495E+03  0.25803844521E+03  0.00000000000E+00 0. -1.
<scales pt_clust_5="13000.00000" pt_clust_6="13000.00000" pt_clust_7="13000.00000" pt_clust_8="13000.00000" pt_clust_9="180.63592"></scales>
<clustering>
<clus scale="   78.362">  5  6 -1 -1</clus>
<clus scale="   89.177">  7  8 -1 -1</clus>
<clus scale="  111.623">  1  5  2 -1</clus>
<clus scale="  180.636">  2  9  1 -1</clus>
<clus scale="  180.636">  2  5  1 -1</clus>
</clustering>
</event>
<event>
 9    2  0.6469128E-005  0.2291103E+03  0.7546771E-02  0.1146641E+00
         21   -1    0    0  501  502  0.00000000000E+00  0.00000000000E+00  0.19981022741E+03  0.19981022741E+03  0.00000000000E+00 0. -1.
          2   -1    0    0  502    0 -0.00000000000E+00 -0.00000000000E+00 -0.67200877783E+03  0.67200877783E+03  0.00000000000E+00 0. -1.
         23    2    1    2    0    0  0.11028645547E+02 -0.11030481791E+03 -0.20173833876E+03  0.24740079436E+03  0.90664280986E+02 0.  0.
         24    2    1    2    0    0  0.10317365253E+03  0.20739750990E+03  0.66092103058E+02  0.25599370537E+03  0.86637644352E+02 0.  0.
        -13    1    4    4    0    0 -0.14461285615E+02  0.41043480927E+02  0.13680977380E+02  0.45616501952E+02  0.00000000000E+00 0.  1.
         14    1    4    4    0    0  0.11763493814E+03  0.16635402897E+03  0.52411125678E+02  0.21037720342E+03  0.00000000000E+00 0. -1.
        -13    1    3    3    0    0  0.43792034798E+02 -0.65146033231E+02 -0.15829645061E+03  0.17669044749E+03  0.00000000000E+00 0. -1.
         13    1    3    3    0    0 -0.32763389251E+02 -0.45158784674E+02 -0.43441888156E+02  0.70710346874E+02  0.00000000000E+00 0.  1.
          1    1    1    2  501    0 -0.11420229807E+03 -0.97092691990E+02 -0.33655231471E+03  0.36842450551E+03  0.00000000000E+00 0. -1.
<scales pt_clust_5="13000.00000" pt_clust_6="13000.00000" pt_clust_7="13000.00000" pt_clust_8="13000.00000" pt_clust_9="212.09785"></scales>
<clustering>
<clus scale="   86.638">  5  6 -1 -1</clus>
<clus scale="   90.664">  7  8 -1 -1</clus>
<clus scale="  143.209">  2  7  1 -1</clus>
<clus scale="  212.098">  1  9  2 -1</clus>
<clus scale="  212.098">  1  5  2 -1</clus>
</clustering>
</event>
<event>
 9    2  0.6469128E-005  0.1355920E+03  0.7546771E-02  0.1222635E+00
         21   -1    0    0  501  502  0.00000000000E+00  0.00000000000E+00  0.49586584788E+02  0.49586584788E+02  0.00000000000E+00 0.  1.
          2   -1    0    0  502    0 -0.00000000000E+00 -0.00000000000E+00 -0.58189057706E+03  0.58189057706E+03  0.00000000000E+00 0. -1.
         23    2    1    2    0    0 -0.83492841389E+02 -0.10324584316E+03 -0.32118519734E+03  0.35912768096E+03  0.90454416947E+02 0.  0.
         24    2    1    2    0    0  0.43852312841E+02  0.48446866930E+02 -0.97118233845E+02  0.13979599272E+03  0.76425414473E+02 0.  0.
        -13    1    4    4    0    0  0.39172539038E+02  0.49741369143E+02 -0.25891038308E+02  0.68403490288E+02  0.00000000000E+00 0.  1.
         14    1    4    4    0    0  0.46797738025E+01 -0.12945022124E+01 -0.71227195537E+02  0.71392502428E+02  0.00000000000E+00 0. -1.
        -11    1    3    3    0    0 -0.98872650584E+02 -0.65473922541E+02 -0.25763749199E+03  0.28361895713E+03  0.00000000000E+00 0.  1.
         11    1    3    3    0    0  0.15379809195E+02 -0.37771920618E+02 -0.63547705354E+02  0.75508723826E+02  0.00000000000E+00 0. -1.
          1    1    1    2  501    0  0.39640528548E+02  0.54798976229E+02 -0.11400056108E+03  0.13255348817E+03  0.00000000000E+00 0. -1.
<scales pt_clust_5="13000.00000" pt_clust_6="13000.00000" pt_clust_7="13000.00000" pt_clust_8="13000.00000" pt_clust_9="67.63360"></scales>
<clustering>
<clus scale="   67.634">  1  9  2 -1</clus>
<clus scale="   76.425">  5  6 -1 -1</clus>
<clus scale="   90.454">  7  8 -1 -1</clus>
<clus scale="  126.665">  1  5  2 -1</clus>
<clus scale="   67.634">  1  5  2 -1</clus>
</clustering>
</event>
<event>
 9    2  0.6469128E-005  0.9369251E+02  0.7546771E-02  0.1299251E+00
          2   -1    0    0  502    0 -0.00000000000E+00  0.00000000000E+00  0.11990891443E+03  0.11990891443E+03  0.00000000000E+00 0. -1.
         21   -1    0    0  501  502  0.00000000000E+00 -0.00000000000E+00 -0.25980434309E+03  0.25980434309E+03  0.00000000000E+00 0.  1.
         23    2    1    2    0    0  0.14208184168E+02 -0.16763786061E+02  0.47822466558E+02  0.10574597752E+03  0.91718735451E+02 0.  0.
         24    2    1    2    0    0  0.62911381545E+02  0.31427027860E+02 -0.15389153772E+03  0.18848827359E+03  0.83064576648E+02 0.  0.
        -11    1    4    4    0    0  0.30526969509E+02 -0.25630157779E+02 -0.81913294566E+02  0.91096589847E+02  0.00000000000E+00 0.  1.
         12    1    4    4    0    0  0.32384412035E+02  0.57057185639E+02 -0.71978243150E+02  0.97391683746E+02  0.00000000000E+00 0. -1.
        -13    1    3    3    0    0  0.82116058138E+01  0.32533702367E+02  0.44828105478E+02  0.55994922095E+02  0.00000000000E+00 0.  1.
         13    1    3    3    0    0  0.59965783542E+01 -0.49297488428E+02  0.29943610806E+01  0.49751055421E+02  0.00000000000E+00 0. -1.
          1    1    1    2  501    0 -0.77119565713E+02 -0.14663241799E+02 -0.33826357505E+02  0.85479006416E+02  0.00000000000E+00 0. -1.
<scales pt_clust_5="13000.00000" pt_clust_6="13000.00000" pt_clust_7="13000.00000" pt_clust_8="13000.00000" pt_clust_9="78.50120"></scales>
<clustering>
<clus scale="   78.501">  2  9  1 -1</clus>
<clus scale="   83.065">  5  6 -1 -1</clus>
<clus scale="   85.239">  2  5  1 -1</clus>
<clus scale="   91.719">  7  8 -1 -1</clus>
<clus scale="   78.501">  2  5  1 -1</clus>
</clustering>
</event>
<event>
 9    2  0.6469128E-005  0.1001940E+03  0.7546771E-02  0.1287602E+00
         -1   -1    0    0    0  501 -0.00000000000E+00  0.00000000000E+00  0.26251456264E+03  0.26251456264E+03  0.00000000000E+00 0.  1.
         21   -1    0    0  501  502  0.00000000000E+00 -0.00000000000E+00 -0.14217779153E+03  0.14217779153E+03  0.00000000000E+00 0.  1.
         23    2    1    2    0    0  0.23547612785E+02 -0.29847165968E+02  0.20789874921E+03  0.23194739745E+03  0.95563391923E+02 0.  0.
         24    2    1    2    0    0  0.18582482919E+01  0.40987667361E+01 -0.36791403240E+01  0.81395253309E+02  0.81187426441E+02 0.  0.
        -13    1    4    4    0    0 -0.23604134672E+02 -0.21090268797E+02 -0.24445326124E+02  0.39994106827E+02  0.00000000000E+00 0.  1.
         14    1    4    4    0    0  0.25462382964E+02  0.25189035534E+02  0.20766185800E+02  0.41401146482E+02  0.00000000000E+00 0. -1.
        -13    1    3    3    0    0 -0.10449206209E+02  0.30791343742E+02  0.53263578051E+02  0.62404338844E+02  0.00000000000E+00 0. -1.
         13    1    3    3    0    0  0.33996818994E+02 -0.60638509709E+02  0.15463517116E+03  0.16954305860E+03  0.00000000000E+00 0.  1.
         -2    1    1    2    0  502 -0.25405861077E+02  0.25748399232E+02 -0.83882837780E+02  0.91349703415E+02  0.00000000000E+00 0.  1.
<scales pt_clust_5="13000.00000" pt_clust_6="13000.00000" pt_clust_7="13000.00000" pt_clust_8="13000.00000" pt_clust_9="36.17234"></scales>
<clustering>
<clus scale="   36.172">  2  9  1 -1</clus>
<clus scale="   81.187">  5  6 -1 -1</clus>
<clus scale="   86.590">  2  5  1 -1</clus>
<clus scale="   95.563">  7  8 -1 -1</clus>
<clus scale="   36.172">  2  5  1 -1</clus>
</clustering>
</event>
<event>
 9    2  0.6469128E-005  0.2351464E+03  0.7546771E-02  0.1138902E+00
          2   -1    0    0  502    0 -0.00000000000E+00  0.00000000000E+00  0.21539912103E+04  0.21539912103E+04  0.00000000000E+00 0. -1.
         21   -1    0    0  501  502  0.00000000000E+00 -0.00000000000E+00 -0.93402086296E+02  0.93402086296E+02  0.00000000000E+00 0. -1.
         24    2    1    2    0    0  0.11968326981E+03  0.68190652022E+02  0.13462603567E+03  0.20871868307E+03  0.80406897016E+02 0.  0.
         23    2    1    2    0    0 -0.29506816436E+03 -0.16188467364E+03  0.17095926075E+04  0.17448130545E+04  0.91617914073E+02 0.  0.
        -11    1    3    3    0    0  0.10614119843E+03  0.72466223091E+02  0.14297309665E+03  0.19224623237E+03  0.00000000000E+00 0.  1.
         12    1    3    3    0    0  0.13542071384E+02 -0.42755710690E+01 -0.83470609806E+01  0.16472450708E+02  0.00000000000E+00 0. -1.
        -11    1    4    4    0    0 -0.62601088384E+02  0.26910518838E+01  0.37087866265E+03  0.37613444463E+03  0.00000000000E+00 0.  1.
         11    1    4    4    0    0 -0.23246707598E+03 -0.16457572552E+03  0.13387139449E+04  0.13686786099E+04  0.00000000000E+00 0. -1.
          1    1    1    2  501    0  0.17538489455E+03  0.93694021616E+02  0.21637048082E+03  0.29386155906E+03  0.00000000000E+00 0. -1.
<scales pt_clust_5="13000.00000" pt_clust_6="13000.00000" pt_clust_7="13000.00000" pt_clust_8="13000.00000" pt_clust_9="216.56406"></scales>
<clustering>
<clus scale="   80.407">  5  6 -1 -1</clus>
<clus scale="   91.618">  7  8 -1 -1</clus>
<clus scale="  159.497">  1  5  2 -1</clus>
<clus scale="  216.564">  2  9  1 -1</clus>
<clus scale="  216.564">  2  5  1 -1</clus>
</clustering>
</event>
<event>
 9    2  0.6469128E-005  0.9475608E+02  0.7546771E-02  0.1295631E+00
         21   -1    0    0  501  502  0.00000000000E+00  0.00000000000E+00  0.28367860836E+03  0.28367860836E+03  0.00000000000E+00 0. -1.
          2   -1    0    0  502    0 -0.00000000000E+00 -0.00000000000E+00 -0.10050816673E+03  0.10050816673E+03  0.00000000000E+00 0. -1.
         23    2    1    2    0    0  0.17652890055E+02 -0.10788922904E+02 -0.22879813643E+02  0.97410079959E+02  0.92397036860E+02 0.  0.
         24    2    1    2    0    0 -0.25136081238E+02 -0.77003870753E+02  0.11057982820E+03  0.15686066374E+03  0.76262380847E+02 0.  0.
        -13    1    4    4    0    0  0.18511957788E+02 -0.60889840377E+02  0.74505981895E+02  0.97986767374E+02  0.00000000000E+00 0.  1.
         14    1    4    4    0    0 -0.43648039026E+02 -0.16114030376E+02  0.36073846309E+02  0.58873896366E+02  0.00000000000E+00 0. -1.
        -13    1    3    3    0    0  0.50484549892E+02 -0.28489352830E+01  0.85365327690E+01  0.51280391981E+02  0.00000000000E+00 0.  1.
         13    1    3    3    0    0 -0.32831659836E+02 -0.79399876215E+01 -0.31416346412E+02  0.46129687978E+02  0.00000000000E+00 0. -1.
          1    1    1    2  501    0  0.74831911826E+01  0.87792793658E+02  0.95470427066E+02  0.12991603139E+03  0.00000000000E+00 0. -1.
<scales pt_clust_5="13000.00000" pt_clust_6="13000.00000" pt_clust_7="13000.00000" pt_clust_8="13000.00000" pt_clust_9="88.11114"></scales>
<clustering>
<clus scale="   76.262">  5  6 -1 -1</clus>
<clus scale="   88.111">  1  9  2 -1</clus>
<clus scale="   88.111">  1  5  2 -1</clus>
<clus scale="   92.397">  7  8 -1 -1</clus>
<clus scale="   88.111">  1  5  2 -1</clus>
</clustering>
</event>
<event>
 9    2  0.6469128E-005  0.1032976E+03  0.7546771E-02  0.1277880E+00
         21   -1    0    0  501  502  0.00000000000E+00  0.00000000000E+00  0.12334384394E+03  0.12334384394E+03  0.00000000000E+00 0. -1.
         -3   -1    0    0    0  501 -0.00000000000E+00 -0.00000000000E+00 -0.12830386017E+03  0.12830386017E+03  0.00000000000E+00 0.  1.
         23    2    1    2    0    0  0.18915257001E+02  0.25912258520E+02  0.13252343176E+02  0.96171605459E+02  0.89689023898E+02 0.  0.
         24    2    1    2    0    0 -0.42579225343E+02 -0.57585615550E+02  0.85900781771E+01  0.10771046661E+03  0.79991634724E+02 0.  0.
        -11    1    4    4    0    0 -0.20864726893E+02 -0.67315860807E+02 -0.17278542800E+02  0.72562455759E+02  0.00000000000E+00 0.  1.
         12    1    4    4    0    0 -0.21714498451E+02  0.97302452572E+01  0.25868620977E+02  0.35148010854E+02  0.00000000000E+00 0. -1.
        -11    1    3    3    0    0 -0.14518432034E+02  0.36016040912E+02 -0.23565045969E+02  0.45423027896E+02  0.00000000000E+00 0.  1.
         11    1    3    3    0    0  0.33433689036E+02 -0.10103782392E+02  0.36817389145E+02  0.50748577563E+02  0.00000000000E+00 0. -1.
         -4    1    1    2    0  502  0.23663968342E+02  0.31673357029E+02 -0.26802437585E+02  0.47765632035E+02  0.00000000000E+00 0.  1.
<scales pt_clust_5="13000.00000" pt_clust_6="13000.00000" pt_clust_7="13000.00000" pt_clust_8="13000.00000" pt_clust_9="39.53715"></scales>
<clustering>
<clus scale="   39.537">  1  9  2 -1</clus>
<clus scale="   79.992">  5  6 -1 -1</clus>
<clus scale="   89.689">  7  8 -1 -1</clus>
<clus scale="   95.000">  1  5  2 -1</clus>
<clus scale="   39.537">  1  5  2 -1</clus>
</clustering>
</event>
<event>
 9    2  0.6469128E-005  0.1179750E+03  0.7546771E-02  0.1265393E+00
          2   -1    0    0  502    0 -0.00000000000E+00  0.00000000000E+00  0.87058625601E+03  0.87058625601E+03  0.00000000000E+00 0. -1.
         21   -1    0    0  501  502  0.00000000000E+00 -0.00000000000E+00 -0.41524215169E+02  0.41524215169E+02  0.00000000000E+00 0.  1.
         24    2    1    2    0    0  0.21788873644E+02  0.14154557578E+02  0.27891496565E+03  0.29047739417E+03  0.76866455262E+02 0.  0.
         23    2    1    2    0    0  0.70524883186E+02  0.30105020123E+02  0.78553975766E+02  0.13905583828E+03  0.85356474067E+02 0.  0.
        -11    1    3    3    0    0 -0.27154664675E+02  0.11823486484E+02  0.72284047126E+02  0.78116285851E+02  0.00000000000E+00 0.  1.
         12    1    3    3    0    0  0.48943538320E+02  0.23310710935E+01  0.20663091852E+03  0.21236110832E+03  0.00000000000E+00 0. -1.
        -11    1    4    4    0    0  0.36990744441E+02  0.36737572693E+02 -0.13449856485E+01  0.52151446846E+02  0.00000000000E+00 0.  1.
         11    1    4    4    0    0  0.33534138745E+02 -0.66325525693E+01  0.79898961414E+02  0.86904391431E+02  0.00000000000E+00 0. -1.
          1    1    1    2  501    0 -0.92313756831E+02 -0.44259577701E+02  0.47159309942E+03  0.48257723873E+03  0.00000000000E+00 0. -1.
<scales pt_clust_5="13000.00000" pt_clust_6="13000.00000" pt_clust_7="13000.00000" pt_clust_8="13000.00000" pt_clust_9="81.43938"></scales>
<clustering>
<clus scale="   76.866">  5  6 -1 -1</clus>
<clus scale="   81.139">  1  5  2 -1</clus>
<clus scale="   81.439">  2  9  1 -1</clus>
<clus scale="   85.356">  7  8 -1 -1</clus>
<clus scale="   81.439">  2  5  1 -1</clus>
</clustering>
</event>
<event>
 9    2  0.6469128E-005  0.9869168E+02  0.7546771E-02  0.1288131E+00
         21   -1    0    0  501  502  0.00000000000E+00  0.00000000000E+00  0.45919902512E+02  0.45919902512E+02  0.00000000000E+00 0.  1.
          2   -1    0    0  502    0 -0.00000000000E+00 -0.00000000000E+00 -0.66528839624E+03  0.66528839624E+03  0.00000000000E+00 0. -1.
         24    2    1    2    0    0  0.27754623413E+02 -0.26539288129E+02 -0.48634085027E+03  0.49470277989E+03  0.82029048824E+02 0.  0.
         23    2    1    2    0    0  0.26576501751E+02  0.50989088154E+02 -0.65973640243E+02  0.12680655995E+03  0.91767014137E+02 0.  0.
        -13    1    3    3    0    0 -0.11339996588E+02  0.21775694249E+02 -0.81457402685E+02  0.85076934799E+02  0.00000000000E+00 0.  1.
         14    1    3    3    0    0  0.39094620001E+02 -0.48314982378E+02 -0.40488344759E+03  0.40962584509E+03  0.00000000000E+00 0. -1.
        -11    1    4    4    0    0  0.53549662750E+02  0.44591868323E+02 -0.70025577350E+02  0.98790599676E+02  0.00000000000E+00 0.  1.
         11    1    4    4    0    0 -0.26973160998E+02  0.63972198312E+01  0.40519371071E+01  0.28015960275E+02  0.00000000000E+00 0. -1.
          1    1    1    2  501    0 -0.54331125164E+02 -0.24449800025E+02 -0.67054003212E+02  0.89698958910E+02  0.00000000000E+00 0. -1.
<scales pt_clust_5="13000.00000" pt_clust_6="13000.00000" pt_clust_7="13000.00000" pt_clust_8="13000.00000" pt_clust_9="59.57906"></scales>
<clustering>
<clus scale="   59.579">  1  9  2 -1</clus>
<clus scale="   82.029">  5  6 -1 -1</clus>
<clus scale="   89.709">  2  5  1 -1</clus>
<clus scale="   91.767">  7  8 -1 -1</clus>
<clus scale="   59.579">  1  5  2 -1</clus>
</clustering>
</event>
<event>
 9    2  0.7968724E-005  0.9460634E+02  0.7546771E-02  0.1300545E+00
         21   -1    0    0  501  502  0.00000000000E+00  0.00000000000E+00  0.27776960150E+03  0.27776960150E+03  0.00000000000E+00 0. -1.
          2   -1    0    0  502    0 -0.00000000000E+00 -0.00000000000E+00 -0.92542325965E+03  0.92542325965E+03  0.00000000000E+00 0. -1.
         24    2    1    2    0    0 -0.98420309578E+01  0.42137439414E+01 -0.82283489705E+03  0.82677725367E+03  0.79929582555E+02 0.  0.
         23    2    1    2    0    0  0.11296096897E+02 -0.44445057184E+02 -0.71438213301E+02  0.12653198042E+03  0.93829413491E+02 0.  0.
        -11    1    3    3    0    0  0.82115880155E+01  0.34409783773E+02 -0.21210463210E+03  0.21503450503E+03  0.00000000000E+00 0.  1.
         12    1    3    3    0    0 -0.18053618973E+02 -0.30196039831E+02 -0.61073026496E+03  0.61174274864E+03  0.00000000000E+00 0. -1.
        -11    1    4    4    0    0  0.38355182774E+02 -0.42741910082E+02 -0.85667010218E+01  0.58063579717E+02  0.00000000000E+00 0.  1.
         11    1    4    4    0    0 -0.27059085877E+02 -0.17031471017E+01 -0.62871512279E+02  0.68468400703E+02  0.00000000000E+00 0. -1.
          1    1    1    2  501    0 -0.14540659391E+01  0.40231313243E+02  0.24661945220E+03  0.24988362706E+03  0.00000000000E+00 0. -1.
<scales pt_clust_5="13000.00000" pt_clust_6="13000.00000" pt_clust_7="13000.00000" pt_clust_8="13000.00000" pt_clust_9="40.25758"></scales>
<clustering>
<clus scale="   40.258">  1  9  2 -1</clus>
<clus scale="   79.930">  5  6 -1 -1</clus>
<clus scale="   80.840">  2  5  1 -1</clus>
<clus scale="   93.829">  7  8 -1 -1</clus>
<clus scale="   40.258">  1  5  2 -1</clus>
</clustering>
</event>
<event>
 9    2  0.6469128E-005  0.1178116E+03  0.7546771E-02  0.1248514E+00
         21   -1    0    0  501  502  0.00000000000E+00  0.00000000000E+00  0.73920162469E+02  0.73920162469E+02  0.00000000000E+00 0.  1.
          2   -1    0    0  502    0 -0.00000000000E+00 -0.00000000000E+00 -0.32749512805E+03  0.32749512805E+03  0.00000000000E+00 0. -1.
         24    2    1    2    0    0 -0.49258355435E+02 -0.68477214921E+02 -0.22823508344E+03  0.25721740833E+03  0.83390810599E+02 0.  0.
         23    2    1    2    0    0  0.43510639762E+02  0.40970382631E+02 -0.37626338972E+02  0.11352836834E+03  0.88888700119E+02 0.  0.
        -13    1    3    3    0    0 -0.25337124937E+02 -0.41021792216E+02 -0.32553290636E+02  0.58176232844E+02  0.00000000000E+00 0.  1.
         14    1    3    3    0    0 -0.23921230497E+02 -0.27455422705E+02 -0.19568179280E+03  0.19904117549E+03  0.00000000000E+00 0. -1.
        -11    1    4    4    0    0 -0.34717789756E+01  0.55465296398E+02 -0.31768160446E+02  0.64013032828E+02  0.00000000000E+00 0.  1.
         11    1    4    4    0    0  0.46982418737E+02 -0.14494913767E+02 -0.58581785268E+01  0.49515335515E+02  0.00000000000E+00 0. -1.
          1    1    1    2  501    0  0.57477156729E+01  0.27506832290E+02  0.12286456830E+02  0.30669513846E+02  0.00000000000E+00 0. -1.
<scales pt_clust_5="13000.00000" pt_clust_6="13000.00000" pt_clust_7="13000.00000" pt_clust_8="13000.00000" pt_clust_9="28.10093"></scales>
<clustering>
<clus scale="   28.101">  1  9  2 -1</clus>
<clus scale="   83.391">  5  6 -1 -1</clus>
<clus scale="   88.889">  7  8 -1 -1</clus>
<clus scale="  113.721">  2  5  1 -1</clus>
<clus scale="   28.101">  1  5  2 -1</clus>
</clustering>
</event>
<event>
 9    2  0.6469128E-005  0.1487629E+03  0.7546771E-02  0.1226458E+00
         21   -1    0    0  501  502  0.00000000000E+00  0.00000000000E+00  0.10042815553E+03  0.10042815553E+03  0.00000000000E+00 0.  1.
          2   -1    0    0  502    0 -0.00000000000E+00 -0.00000000000E+00 -0.37713658152E+03  0.37713658152E+03  0.00000000000E+00 0. -1.
         24    2    1    2    0    0 -0.25623370474E+02 -0.27751013312E+02 -0.16104947744E+03  0.18379762413E+03  0.80112150127E+02 0.  0.
         23    2    1    2    0    0  0.37835122544E+01 -0.95781527506E+02 -0.98731692164E+02  0.16718196349E+03  0.94939169481E+02 0.  0.
        -11    1    3    3    0    0  0.28530591313E+02 -0.88897325585E+01 -0.40785309308E+02  0.50561481792E+02  0.00000000000E+00 0.  1.
         12    1    3    3    0    0 -0.54153961787E+02 -0.18861280754E+02 -0.12026416813E+03  0.13323614234E+03  0.00000000000E+00 0. -1.
        -13    1    4    4    0    0  0.20780369097E+01 -0.58820201691E+02  0.29971407410E+01  0.58933158892E+02  0.00000000000E+00 0.  1.
         13    1    4    4    0    0  0.17054753447E+01 -0.36961325815E+02 -0.10172883291E+03  0.10824880460E+03  0.00000000000E+00 0. -1.
          1    1    1    2  501    0  0.21839858219E+02  0.12353254082E+03 -0.16927256389E+02  0.12658514943E+03  0.00000000000E+00 0. -1.
<scales pt_clust_5="13000.00000" pt_clust_6="13000.00000" pt_clust_7="13000.00000" pt_clust_8="13000.00000" pt_clust_9="114.52933"></scales>
<clustering>
<clus scale="   80.112">  5  6 -1 -1</clus>
<clus scale="   88.570">  2  5  1 -1</clus>
<clus scale="   94.939">  7  8 -1 -1</clus>
<clus scale="  114.529">  1  9  2 -1</clus>
<clus scale="  114.529">  1  5  2 -1</clus>
</clustering>
</event>
<event>
 9    2  0.6469128E-005  0.1310083E+03  0.7546771E-02  0.1253277E+00
         21   -1    0    0  501  502  0.00000000000E+00  0.00000000000E+00  0.41431283725E+02  0.41431283725E+02  0.00000000000E+00 0.  1.
          2   -1    0    0  502    0 -0.00000000000E+00 -0.00000000000E+00 -0.62142898208E+03  0.62142898208E+03  0.00000000000E+00 0. -1.
         24    2    1    2    0    0  0.97244043385E+01  0.49350727932E+01 -0.59907834579E+02  0.96148170078E+02  0.74408352907E+02 0.  0.
         23    2    1    2    0    0 -0.99296312734E+02 -0.49735092743E+00 -0.29590978221E+03  0.32525914147E+03  0.91492649002E+02 0.  0.
        -11    1    3    3    0    0  0.18450409766E+02  0.30537947729E+02 -0.64788211951E+01  0.36262363355E+02  0.00000000000E+00 0.  1.
         12    1    3    3    0    0 -0.87260054278E+01 -0.25602874936E+02 -0.53429013384E+02  0.59885806723E+02  0.00000000000E+00 0. -1.
        -13    1    4    4    0    0 -0.38729560660E+02 -0.28563038239E+02 -0.21522909214E+03  0.22054339284E+03  0.00000000000E+00 0. -1.
         13    1    4    4    0    0 -0.60566752073E+02  0.28065687311E+02 -0.80680690078E+02  0.10471574864E+03  0.00000000000E+00 0.  1.
          1    1    1    2  501    0  0.89571908395E+02 -0.44377218657E+01 -0.22418008156E+03  0.24145295425E+03  0.00000000000E+00 0. -1.
<scales pt_clust_5="13000.00000" pt_clust_6="13000.00000" pt_clust_7="13000.00000" pt_clust_8="13000.00000" pt_clust_9="93.76710"></scales>
<clustering>
<clus scale="   74.408">  5  6 -1 -1</clus>
<clus scale="   75.203">  2  5  1 -1</clus>
<clus scale="   91.493">  7  8 -1 -1</clus>
<clus scale="   93.767">  1  9  2 -1</clus>
<clus scale="   93.767">  1  5  2 -1</clus>
</clustering>
</event>
<event>
 9    2  0.6469128E-005  0.9574941E+02  0.7546771E-02  0.1294564E+00
         21   -1    0    0  501  502  0.00000000000E+00  0.00000000000E+00  0.22851781310E+03  0.22851781310E+03  0.00000000000E+00 0. -1.
          2   -1    0    0  502    0 -0.00000000000E+00 -0.00000000000E+00 -0.29070364569E+03  0.29070364569E+03  0.00000000000E+00 0. -1.
         24    2    1    2    0    0  0.26270192942E+01  0.29294538326E+02 -0.24305963364E+03  0.25823920346E+03  0.82124475589E+02 0.  0.
         23    2    1    2    0    0 -0.27383504426E+02 -0.22426196930E+02  0.22343526482E+02  0.10038366995E+03  0.91240656467E+02 0.  0.
        -11    1    3    3    0    0 -0.25230431893E+02  0.90924783992E+01 -0.22487977538E+02  0.34999385576E+02  0.00000000000E+00 0.  1.
         12    1    3    3    0    0  0.27857451187E+02  0.20202059927E+02 -0.22057165611E+03  0.22323981788E+03  0.00000000000E+00 0. -1.
        -13    1    4    4    0    0  0.23800045697E+02 -0.26527433073E+02  0.32278504799E+02  0.48083768079E+02  0.00000000000E+00 0.  1.
         13    1    4    4    0    0 -0.51183550123E+02  0.41012361428E+01 -0.99349783173E+01  0.52299901866E+02  0.00000000000E+00 0. -1.
          1    1    1    2  501    0  0.24756485132E+02 -0.68683413957E+01  0.15853027457E+03  0.16059858538E+03  0.00000000000E+00 0. -1.
<scales pt_clust_5="13000.00000" pt_clust_6="13000.00000" pt_clust_7="13000.00000" pt_clust_8="13000.00000" pt_clust_9="25.69159"></scales>
<clustering>
<clus scale="   25.692">  1  9  2 -1</clus>
<clus scale="   82.124">  5  6 -1 -1</clus>
<clus scale="   87.106">  2  5  1 -1</clus>
<clus scale="   91.241">  7  8 -1 -1</clus>
<clus scale="   25.692">  1  5  2 -1</clus>
</clustering>
</event>
<event>
 9    2  0.9515832E-005  0.9233014E+02  0.7546771E-02  0.1303757E+00
         21   -1    0    0  501  502  0.00000000000E+00  0.00000000000E+00  0.39147832530E+03  0.39147832530E+03  0.00000000000E+00 0. -1.
         -3   -1    0    0    0  501 -0.00000000000E+00 -0.00000000000E+00 -0.77860878765E+02  0.77860878765E+02  0.00000000000E+00 0.  1.
         23    2    1    2    0    0  0.95824106109E+00 -0.15098436328E+02 -0.39429925180E+02  0.10060984923E+03  0.91316711266E+02 0.  0.
         24    2    1    2    0    0 -0.16292942282E+02 -0.26180335833E+01  0.28823727492E+03  0.29981364535E+03  0.80840467690E+02 0.  0.
        -11    1    4    4    0    0  0.20234499912E+02  0.16448031858E+02  0.37270789399E+02  0.45487190297E+02  0.00000000000E+00 0.  1.
         12    1    4    4    0    0 -0.36527442194E+02 -0.19066065441E+02  0.25096648552E+03  0.25432645506E+03  0.00000000000E+00 0. -1.
        -13    1    3    3    0    0  0.20606571817E+02 -0.39157192034E+02  0.69480391154E+01  0.44790531785E+02  0.00000000000E+00 0.  1.
         13    1    3    3    0    0 -0.19648330756E+02  0.24058755706E+02 -0.46377964295E+02  0.55819317443E+02  0.00000000000E+00 0. -1.
         -4    1    1    2    0  502  0.15334701221E+02  0.17716469911E+02  0.64810096788E+02  0.68915709482E+02  0.00000000000E+00 0.  1.
<scales pt_clust_5="13000.00000" pt_clust_6="13000.00000" pt_clust_7="13000.00000" pt_clust_8="13000.00000" pt_clust_9="23.43131"></scales>
<clustering>
<clus scale="   23.431">  1  9  2 -1</clus>
<clus scale="   80.840">  5  6 -1 -1</clus>
<clus scale="   81.983">  1  5  2 -1</clus>
<clus scale="   91.317">  7  8 -1 -1</clus>
<clus scale="   23.431">  1  5  2 -1</clus>
</clustering>
</event>
<event>
 9    2  0.6469128E-005  0.9397430E+02  0.7546771E-02  0.1297746E+00
          2   -1    0    0  502    0 -0.00000000000E+00  0.00000000000E+00  0.21320236188E+03  0.21320236188E+03  0.00000000000E+00 0. -1.
         21   -1    0    0  501  502  0.00000000000E+00 -0.00000000000E+00 -0.23064228352E+03  0.23064228352E+03  0.00000000000E+00 0. -1.
         24    2    1    2    0    0  0.27893868698E+02 -0.75921375422E+01  0.17172427830E+03  0.19291737062E+03  0.83019128320E+02 0.  0.
         23    2    1    2    0    0  0.55915797748E+00  0.12210689386E+02 -0.41111088588E+02  0.10009415662E+03  0.90439510128E+02 0.  0.
        -11    1    3    3    0    0  0.18192136669E+02  0.30698010642E+02  0.32734982062E+02  0.48424175208E+02  0.00000000000E+00 0.  1.
         12    1    3    3    0    0  0.97017320289E+01 -0.38290148185E+02  0.13898929624E+03  0.14449319542E+03  0.00000000000E+00 0. -1.
        -11    1    4    4    0    0 -0.44229049021E+02  0.11232683629E+01 -0.27057735986E+02  0.51861272504E+02  0.00000000000E+00 0.  1.
         11    1    4    4    0    0  0.44788206998E+02  0.11087421023E+02 -0.14053352603E+02  0.48232884119E+02  0.00000000000E+00 0. -1.
          1    1    1    2  501    0 -0.28453026676E+02 -0.46185518435E+01 -0.14805311136E+03  0.15083311815E+03  0.00000000000E+00 0. -1.
<scales pt_clust_5="13000.00000" pt_clust_6="13000.00000" pt_clust_7="13000.00000" pt_clust_8="13000.00000" pt_clust_9="28.82544"></scales>
<clustering>
<clus scale="   28.825">  2  9  1 -1</clus>
<clus scale="   83.019">  5  6 -1 -1</clus>
<clus scale="   86.856">  1  5  2 -1</clus>
<clus scale="   90.440">  7  8 -1 -1</clus>
<clus scale="   28.825">  2  5  1 -1</clus>
</clustering>
</event>
<event>
 9    2  0.6469128E-005  0.1396270E+03  0.7546771E-02  0.1227363E+00
         21   -1    0    0  501  502  0.00000000000E+00  0.00000000000E+00  0.37724198425E+02  0.37724198425E+02  0.00000000000E+00 0. -1.
          2   -1    0    0  502    0 -0.00000000000E+00 -0.00000000000E+00 -0.12356886815E+04  0.12356886815E+04  0.00000000000E+00 0. -1.
         24    2    1    2    0    0  0.67049199585E+02  0.10789211059E+02 -0.72750973374E+03  0.73506542207E+03  0.80241883056E+02 0.  0.
         23    2    1    2    0    0 -0.55760930167E+02  0.97654051428E+02 -0.20159132326E+03  0.24821833473E+03  0.91256150408E+02 0.  0.
        -13    1    3    3    0    0 -0.15141389352E+02  0.16565188850E+02 -0.13458838878E+03  0.13644669855E+03  0.00000000000E+00 0.  1.
         14    1    3    3    0    0  0.82190588937E+02 -0.57759777904E+01 -0.59292134496E+03  0.59861872351E+03  0.00000000000E+00 0. -1.
        -13    1    4    4    0    0 -0.41490468378E+02  0.26817705501E+02 -0.15391130308E+03  0.16164571603E+03  0.00000000000E+00 0.  1.
         13    1    4    4    0    0 -0.14270461789E+02  0.70836345927E+02 -0.47680020183E+02  0.86572618700E+02  0.00000000000E+00 0. -1.
          1    1    1    2  501    0 -0.11288269418E+02 -0.10844326249E+03 -0.26886342603E+03  0.29012912308E+03  0.00000000000E+00 0. -1.
<scales pt_clust_5="13000.00000" pt_clust_6="13000.00000" pt_clust_7="13000.00000" pt_clust_8="13000.00000" pt_clust_9="105.67890"></scales>
<clustering>
<clus scale="   80.242">  5  6 -1 -1</clus>
<clus scale="   91.256">  7  8 -1 -1</clus>
<clus scale="  105.123">  2  5  1 -1</clus>
<clus scale="  105.679">  1  9  2 -1</clus>
<clus scale="  105.679">  1  5  2 -1</clus>
</clustering>
</event>
<event>
 9    2  0.6469128E-005  0.1221035E+03  0.7546771E-02  0.1255186E+00
          2   -1    0    0  502    0 -0.00000000000E+00  0.00000000000E+00  0.94684890298E+03  0.94684890298E+03  0.00000000000E+00 0. -1.
         21   -1    0    0  501  502  0.00000000000E+00 -0.00000000000E+00 -0.27310624516E+02  0.27310624516E+02  0.00000000000E+00 0.  1.
         24    2    1    2    0    0 -0.35598331229E+02 -0.88303069482E+01  0.16434335185E+03  0.18710160732E+03  0.81566283836E+02 0.  0.
         23    2    1    2    0    0 -0.65160418876E+02 -0.19652029063E+02  0.30990683662E+03  0.32962480782E+03  0.89320681317E+02 0.  0.
        -13    1    3    3    0    0 -0.39627881988E+02 -0.39834501206E+02  0.85766297136E+02  0.10253299099E+03  0.00000000000E+00 0.  1.
         14    1    3    3    0    0  0.40295507587E+01  0.31004194258E+02  0.78577054714E+02  0.84568616333E+02  0.00000000000E+00 0. -1.
        -13    1    4    4    0    0 -0.86217814373E+02 -0.65136368443E+01  0.25769973657E+03  0.27181812524E+03  0.00000000000E+00 0. -1.
         13    1    4    4    0    0  0.21057395496E+02 -0.13138392219E+02  0.52207100046E+02  0.57806682576E+02  0.00000000000E+00 0.  1.
          1    1    1    2  501    0  0.10075875011E+03  0.28482336011E+02  0.44528809000E+03  0.45743311236E+03  0.00000000000E+00 0. -1.
<scales pt_clust_5="13000.00000" pt_clust_6="13000.00000" pt_clust_7="13000.00000" pt_clust_8="13000.00000" pt_clust_9="83.25311"></scales>
<clustering>
<clus scale="   81.566">  5  6 -1 -1</clus>
<clus scale="   89.321">  7  8 -1 -1</clus>
<clus scale="   89.433">  1  5  2 -1</clus>
<clus scale="   83.253">  2  9  1 -1</clus>
<clus scale="   83.253">  2  5  1 -1</clus>
</clustering>
</event>
<event>
 9    2  0.6469128E-005  0.9361287E+02  0.7546771E-02  0.1303892E+00
          2   -1    0    0  502    0 -0.00000000000E+00  0.00000000000E+00  0.35546082932E+03  0.35546082932E+03  0.00000000000E+00 0. -1.
         21   -1    0    0  501  502  0.00000000000E+00 -0.00000000000E+00 -0.46934463032E+02  0.46934463032E+02  0.00000000000E+00 0. -1.
         23    2    1    2    0    0 -0.11214937506E+02  0.13554924607E+02  0.83742927818E+02  0.12501404399E+03  0.91137930801E+02 0.  0.
         24    2    1    2    0    0 -0.50409347271E+02  0.16282797818E+01  0.87297888847E+02  0.12595351469E+03  0.75495780537E+02 0.  0.
        -11    1    4    4    0    0  0.18880463916E+02 -0.84780975572E+01  0.17828866905E+02  0.27317001135E+02  0.00000000000E+00 0.  1.
         12    1    4    4    0    0 -0.69289811186E+02  0.10106377339E+02  0.69469021942E+02  0.98636513557E+02  0.00000000000E+00 0. -1.
        -11    1    3    3    0    0 -0.51452827484E+02  0.73104047220E+01  0.43639875331E+02  0.67862170553E+02  0.00000000000E+00 0.  1.
         11    1    3    3    0    0  0.40237889978E+02  0.62445198846E+01  0.40103052486E+02  0.57151873436E+02  0.00000000000E+00 0. -1.
          1    1    1    2  501    0  0.61624284776E+02 -0.15183204388E+02  0.13748554962E+03  0.15142773367E+03  0.00000000000E+00 0. -1.
<scales pt_clust_5="13000.00000" pt_clust_6="13000.00000" pt_clust_7="13000.00000" pt_clust_8="13000.00000" pt_clust_9="63.46721"></scales>
<clustering>
<clus scale="   63.467">  2  9  1 -1</clus>
<clus scale="   75.496">  5  6 -1 -1</clus>
<clus scale="   78.466">  2  5  1 -1</clus>
<clus scale="   91.138">  7  8 -1 -1</clus>
<clus scale="   63.467">  2  5  1 -1</clus>
</clustering>
</event>
<event>
 9    2  0.6469128E-005  0.9325318E+02  0.7546771E-02  0.1301178E+00
         21   -1    0    0  501  502  0.00000000000E+00  0.00000000000E+00  0.69914418228E+02  0.69914418228E+02  0.00000000000E+00 0. -1.
          2   -1    0    0  502    0 -0.00000000000E+00 -0.00000000000E+00 -0.23091989358E+03  0.23091989358E+03  0.00000000000E+00 0. -1.
         24    2    1    2    0    0 -0.23318245975E+02 -0.19661506862E+02 -0.13085882611E+03  0.15668953493E+03  0.80605598679E+02 0.  0.
         23    2    1    2    0    0  0.28814043302E+01  0.27644227975E+01 -0.56336034282E+02  0.10687468383E+03  0.90733151391E+02 0.  0.
        -11    1    3    3    0    0 -0.38016069209E+02 -0.61975063115E+01 -0.13121726024E+03  0.13675379332E+03  0.00000000000E+00 0.  1.
         12    1    3    3    0    0  0.14697823234E+02 -0.13464000551E+02  0.35843412596E+00  0.19935741613E+02  0.00000000000E+00 0. -1.
        -11    1    4    4    0    0  0.36093297935E+02 -0.25894031520E+02 -0.15803545183E+02  0.47148478921E+02  0.00000000000E+00 0.  1.
         11    1    4    4    0    0 -0.33211893604E+02  0.28658454318E+02 -0.40532489099E+02  0.59726204912E+02  0.00000000000E+00 0. -1.
          1    1    1    2  501    0  0.20436841645E+02  0.16897084064E+02  0.26189385044E+02  0.37270093041E+02  0.00000000000E+00 0. -1.
<scales pt_clust_5="13000.00000" pt_clust_6="13000.00000" pt_clust_7="13000.00000" pt_clust_8="13000.00000" pt_clust_9="26.51746"></scales>
<clustering>
<clus scale="   26.517">  1  9  2 -1</clus>
<clus scale="   80.606">  5  6 -1 -1</clus>
<clus scale="   83.432">  2  5  1 -1</clus>
<clus scale="   90.733">  7  8 -1 -1</clus>
<clus scale="   26.517">  1  5  2 -1</clus>
</clustering>
</event>
<event>
 9    2  0.6469128E-005  0.3317430E+03  0.7546771E-02  0.1108456E+00
         21   -1    0    0  501  502  0.00000000000E+00  0.00000000000E+00  0.12766893284E+03  0.12766893284E+03  0.00000000000E+00 0. -1.
          2   -1    0    0  502    0 -0.00000000000E+00 -0.00000000000E+00 -0.13181085730E+04  0.13181085730E+04  0.00000000000E+00 0. -1.
         24    2    1    2    0    0  0.86031060462E+02 -0.36053544305E+02 -0.21741644143E+03  0.24883530173E+03  0.77122609921E+02 0.  0.
         23    2    1    2    0    0 -0.10222099003E+03  0.32265250235E+03 -0.28648799964E+03  0.45281072639E+03  0.91697393186E+02 0.  0.
        -13    1    3    3    0    0  0.45517515490E+02 -0.22476633223E+02 -0.35444045322E+02  0.61913840183E+02  0.00000000000E+00 0.  1.
         14    1    3    3    0    0  0.40513544971E+02 -0.13576911082E+02 -0.18197239611E+03  0.18692146155E+03  0.00000000000E+00 0. -1.
        -11    1    4    4    0    0 -0.26310578786E+02  0.11288436980E+02 -0.36318378658E+02  0.46246080849E+02  0.00000000000E+00 0.  1.
         11    1    4    4    0    0 -0.75910411249E+02  0.31136406537E+03 -0.25016962099E+03  0.40656464554E+03  0.00000000000E+00 0. -1.
          1    1    1    2  501    0  0.16189929573E+02 -0.28659895804E+03 -0.68653519913E+03  0.74413147777E+03  0.00000000000E+00 0. -1.
<scales pt_clust_5="13000.00000" pt_clust_6="13000.00000" pt_clust_7="13000.00000" pt_clust_8="13000.00000" pt_clust_9="318.81827"></scales>
<clustering>
<clus scale="   77.123">  5  6 -1 -1</clus>
<clus scale="   91.697">  7  8 -1 -1</clus>
<clus scale="  121.033">  2  5  1 -1</clus>
<clus scale="  318.818">  1  9  2 -1</clus>
<clus scale="  318.818">  1  5  2 -1</clus>
</clustering>
</event>
<event>
 9    2  0.6469128E-005  0.2351862E+03  0.7546771E-02  0.1168440E+00
          2   -1    0    0  502    0 -0.00000000000E+00  0.00000000000E+00  0.10024015339E+03  0.10024015339E+03  0.00000000000E+00 0. -1.
         21   -1    0    0  501  502  0.00000000000E+00 -0.00000000000E+00 -0.92147715638E+03  0.92147715638E+03  0.00000000000E+00 0. -1.
         24    2    1    2    0    0 -0.16404613357E+02 -0.87712209745E+01 -0.31613811476E+02  0.85578667086E+02  0.77319011423E+02 0.  0.
         23    2    1    2    0    0  0.22879519976E+03 -0.50260953950E+01 -0.22782287576E+03  0.33537269664E+03  0.90548759610E+02 0.  0.
        -13    1    3    3    0    0 -0.76718832428E+01 -0.39739195036E+02 -0.34624086846E+02  0.53262452108E+02  0.00000000000E+00 0.  1.
         14    1    3    3    0    0 -0.87327301146E+01  0.30967974062E+02  0.30102753703E+01  0.32316214979E+02  0.00000000000E+00 0. -1.
        -13    1    4    4    0    0  0.22021677041E+03  0.18530521030E+02 -0.20257328142E+03  0.29979116152E+03  0.00000000000E+00 0. -1.
         13    1    4    4    0    0  0.85784293477E+01 -0.23556616425E+02 -0.25249594338E+02  0.35581535123E+02  0.00000000000E+00 0.  1.
          1    1    1    2  501    0 -0.21239058640E+03  0.13797316369E+02 -0.56180031576E+03  0.60076594603E+03  0.00000000000E+00 0. -1.
<scales pt_clust_5="13000.00000" pt_clust_6="13000.00000" pt_clust_7="13000.00000" pt_clust_8="13000.00000" pt_clust_9="217.05636"></scales>
<clustering>
<clus scale="   77.319">  5  6 -1 -1</clus>
<clus scale="   79.525">  1  5  2 -1</clus>
<clus scale="   90.549">  7  8 -1 -1</clus>
<clus scale="  217.056">  2  9  1 -1</clus>
<clus scale="  217.056">  2  5  1 -1</clus>
</clustering>
</event>
<event>
 9    2  0.6469128E-005  0.9535069E+02  0.7546771E-02  0.1298614E+00
          4   -1    0    0  502    0 -0.00000000000E+00  0.00000000000E+00  0.15900448932E+04  0.15900448932E+04  0.00000000000E+00 0. -1.
         21   -1    0    0  501  502  0.00000000000E+00 -0.00000000000E+00 -0.18285036124E+02  0.18285036124E+02  0.00000000000E+00 0. -1.
         24    2    1    2    0    0 -0.43833783600E+01  0.16559404838E+02  0.11176571110E+04  0.11205394673E+04  0.78471982718E+02 0.  0.
         23    2    1    2    0    0  0.44597496953E+02 -0.40043264957E+02  0.40658520059E+03  0.42125788242E+03  0.92489341890E+02 0.  0.
        -11    1    3    3    0    0 -0.24577343660E+02  0.74629959648E+01  0.12384244280E+03  0.12647803275E+03  0.00000000000E+00 0.  1.
         12    1    3    3    0    0  0.20193965300E+02  0.90964088733E+01  0.99381466821E+03  0.99406143454E+03  0.00000000000E+00 0. -1.
        -11    1    4    4    0    0 -0.14155811719E+02  0.21070360534E+02  0.99287294866E+02  0.10248079830E+03  0.00000000000E+00 0.  1.
         11    1    4    4    0    0  0.58753308672E+02 -0.61113625491E+02  0.30729790572E+03  0.31877708412E+03  0.00000000000E+00 0. -1.
          3    1    1    2  501    0 -0.40214118593E+02  0.23483860119E+02  0.47517545449E+02  0.66532579582E+02  0.00000000000E+00 0. -1.
<scales pt_clust_5="13000.00000" pt_clust_6="13000.00000" pt_clust_7="13000.00000" pt_clust_8="13000.00000" pt_clust_9="46.56895"></scales>
<clustering>
<clus scale="   46.569">  2  9  1 -1</clus>
<clus scale="   78.472">  5  6 -1 -1</clus>
<clus scale="   81.825">  1  5  2 -1</clus>
<clus scale="   92.489">  7  8 -1 -1</clus>
<clus scale="   46.569">  2  5  1 -1</clus>
</clustering>
</event>
<event>
 9    2  0.6469128E-005  0.1623288E+03  0.7546771E-02  0.1199447E+00
          2   -1    0    0  502    0 -0.00000000000E+00  0.00000000000E+00  0.86683612372E+03  0.86683612372E+03  0.00000000000E+00 0. -1.
         21   -1    0    0  501  502  0.00000000000E+00 -0.00000000000E+00 -0.12985549157E+03  0.12985549157E+03  0.00000000000E+00 0. -1.
         24    2    1    2    0    0 -0.21051524234E+02  0.88450521949E+02 -0.59115732287E+02  0.13468753694E+03  0.79871154348E+02 0.  0.
         23    2    1    2    0    0 -0.11771956565E+03 -0.81477316892E+02  0.58584968543E+03  0.60999275519E+03  0.91514251085E+02 0.  0.
        -11    1    3    3    0    0  0.27543990155E+02  0.43520268269E+02 -0.10490766670E+02  0.52561785826E+02  0.00000000000E+00 0.  1.
         12    1    3    3    0    0 -0.48595514388E+02  0.44930253680E+02 -0.48624965618E+02  0.82125751112E+02  0.00000000000E+00 0. -1.
        -13    1    4    4    0    0  0.70840415102E+01 -0.36577013599E+02  0.12426733964E+03  0.12973215973E+03  0.00000000000E+00 0.  1.
         13    1    4    4    0    0 -0.12480360716E+03 -0.44900303293E+02  0.46158234579E+03  0.48026059545E+03  0.00000000000E+00 0. -1.
          1    1    1    2  501    0  0.13877108988E+03 -0.69732050573E+01  0.21024667899E+03  0.25201132317E+03  0.00000000000E+00 0. -1.
<scales pt_clust_5="13000.00000" pt_clust_6="13000.00000" pt_clust_7="13000.00000" pt_clust_8="13000.00000" pt_clust_9="134.07377"></scales>
<clustering>
<clus scale="   79.871">  5  6 -1 -1</clus>
<clus scale="   91.514">  7  8 -1 -1</clus>
<clus scale="  121.021">  1  5  2 -1</clus>
<clus scale="  134.074">  2  9  1 -1</clus>
<clus scale="  134.074">  2  5  1 -1</clus>
</clustering>
</event>
<event>
 9    2  0.6469128E-005  0.1505275E+03  0.7546771E-02  0.1206610E+00
         21   -1    0    0  501  502  0.00000000000E+00  0.00000000000E+00  0.23517865752E+03  0.23517865752E+03  0.00000000000E+00 0.  1.
          2   -1    0    0  502    0 -0.00000000000E+00 -0.00000000000E+00 -0.35479467595E+03  0.35479467595E+03  0.00000000000E+00 0. -1.
         23    2    1    2    0    0 -0.65702943748E+02 -0.66698236057E+02 -0.18019929571E+03  0.22220423806E+03  0.90207570220E+02 0.  0.
         24    2    1    2    0    0 -0.83165013714E+02  0.96816373023E+02  0.13172842529E+03  0.20004788919E+03  0.79855809728E+02 0.  0.
        -11    1    4    4    0    0 -0.60896518369E+02  0.81331316109E+02  0.48642087288E+02  0.11264644506E+03  0.00000000000E+00 0.  1.
         12    1    4    4    0    0 -0.22268495346E+02  0.15485056914E+02  0.83086338000E+02  0.87401444123E+02  0.00000000000E+00 0. -1.
        -13    1    3    3    0    0 -0.45763298862E+02  0.81935231486E+01 -0.10205516055E+03  0.11214574953E+03  0.00000000000E+00 0. -1.
         13    1    3    3    0    0 -0.19939644887E+02 -0.74891759206E+02 -0.78144135163E+02  0.11005848852E+03  0.00000000000E+00 0.  1.
          1    1    1    2  501    0  0.14886795746E+03 -0.30118136966E+02 -0.71145148007E+02  0.16772120623E+03  0.00000000000E+00 0. -1.
<scales pt_clust_5="13000.00000" pt_clust_6="13000.00000" pt_clust_7="13000.00000" pt_clust_8="13000.00000" pt_clust_9="127.59935"></scales>
<clustering>
<clus scale="   79.856">  5  6 -1 -1</clus>
<clus scale="   90.208">  7  8 -1 -1</clus>
<clus scale="  130.011">  2  7  1 -1</clus>
<clus scale="  127.599">  1  9  2 -1</clus>
<clus scale="  127.599">  1  5  2 -1</clus>
</clustering>
</event>
<event>
 9    2  0.6469128E-005  0.9672574E+02  0.7546771E-02  0.1293759E+00
          2   -1    0    0  502    0 -0.00000000000E+00  0.00000000000E+00  0.30521165382E+03  0.30521165382E+03  0.00000000000E+00 0. -1.
         21   -1    0    0  501  502  0.00000000000E+00 -0.00000000000E+00 -0.75287793160E+02  0.75287793160E+02  0.00000000000E+00 0. -1.
         23    2    1    2    0    0 -0.13059340820E+02  0.47644421731E+02  0.14691806566E+03  0.18000695297E+03  0.91526213713E+02 0.  0.
         24    2    1    2    0    0 -0.37733398118E+02 -0.97558710972E+01  0.10108966528E+03  0.13459506642E+03  0.79860660671E+02 0.  0.
        -13    1    4    4    0    0  0.30432080601E+01 -0.37789554140E+02  0.31993431780E+02  0.49607370364E+02  0.00000000000E+00 0.  1.
         14    1    4    4    0    0 -0.40776606178E+02  0.28033683043E+02  0.69096233503E+02  0.84987696054E+02  0.00000000000E+00 0. -1.
        -11    1    3    3    0    0  0.43202616577E+01  0.57926848586E+02  0.14879004449E+03  0.15972683490E+03  0.00000000000E+00 0.  1.
         11    1    3    3    0    0 -0.17379602478E+02 -0.10282426855E+02 -0.18719788298E+01  0.20280118073E+02  0.00000000000E+00 0. -1.
          1    1    1    2  501    0  0.50792738938E+02 -0.37888550634E+02 -0.18083870285E+02  0.65897427586E+02  0.00000000000E+00 0. -1.
<scales pt_clust_5="13000.00000" pt_clust_6="13000.00000" pt_clust_7="13000.00000" pt_clust_8="13000.00000" pt_clust_9="63.36754"></scales>
<clustering>
<clus scale="   63.368">  2  9  1 -1</clus>
<clus scale="   79.861">  5  6 -1 -1</clus>
<clus scale="   85.770">  2  5  1 -1</clus>
<clus scale="   91.526">  7  8 -1 -1</clus>
<clus scale="   63.368">  2  5  1 -1</clus>
</clustering>
</event>
<event>
 9    2  0.6469128E-005  0.9284550E+02  0.7546771E-02  0.1302376E+00
          2   -1    0    0  502    0 -0.00000000000E+00  0.00000000000E+00  0.63585623084E+03  0.63585623084E+03  0.00000000000E+00 0. -1.
         21   -1    0    0  501  502  0.00000000000E+00 -0.00000000000E+00 -0.22305815312E+02  0.22305815312E+02  0.00000000000E+00 0. -1.
         23    2    1    2    0    0 -0.82707199410E+01 -0.22381064056E+01  0.36084092382E+03  0.37226588692E+03  0.91116981570E+02 0.  0.
         24    2    1    2    0    0  0.22971987466E+02 -0.34588363779E+02  0.20243616106E+03  0.22186707250E+03  0.80749807680E+02 0.  0.
        -11    1    4    4    0    0 -0.24634075663E+02  0.83684313941E+00  0.10440257324E+03  0.10727271456E+03  0.00000000000E+00 0.  1.
         12    1    4    4    0    0  0.47606063129E+02 -0.35425206918E+02  0.98033587823E+02  0.11459435795E+03  0.00000000000E+00 0. -1.
        -13    1    3    3    0    0  0.38184848549E+02  0.14206264682E+02  0.19724401007E+03  0.20140779559E+03  0.00000000000E+00 0.  1.
         13    1    3    3    0    0 -0.46455568490E+02 -0.16444371088E+02  0.16359691375E+03  0.17085809133E+03  0.00000000000E+00 0. -1.
          1    1    1    2  501    0 -0.14701267525E+02  0.36826470184E+02  0.50273330651E+02  0.64029086733E+02  0.00000000000E+00 0. -1.
<scales pt_clust_5="13000.00000" pt_clust_6="13000.00000" pt_clust_7="13000.00000" pt_clust_8="13000.00000" pt_clust_9="39.65244"></scales>
<clustering>
<clus scale="   39.652">  2  9  1 -1</clus>
<clus scale="   80.750">  5  6 -1 -1</clus>
<clus scale="   82.695">  2  5  1 -1</clus>
<clus scale="   91.117">  7  8 -1 -1</clus>
<clus scale="   39.652">  2  5  1 -1</clus>
</clustering>
</event>
<event>
 9    2  0.6469128E-005  0.9447012E+02  0.7546771E-02  0.1298481E+00
         21   -1    0    0  501  502  0.00000000000E+00  0.00000000000E+00  0.55261803111E+02  0.55261803111E+02  0.00000000000E+00 0.  1.
          2   -1    0    0  502    0 -0.00000000000E+00 -0.00000000000E+00 -0.31098558511E+03  0.31098558511E+03  0.00000000000E+00 0. -1.
         24    2    1    2    0    0  0.59669280871E+01  0.27978671710E+02 -0.20332828636E+03  0.22089041450E+03  0.81435697852E+02 0.  0.
         23    2    1    2    0    0 -0.20854351128E+02  0.10017943173E+02 -0.35393043592E+02  0.10114768190E+03  0.91885378990E+02 0.  0.
        -11    1    3    3    0    0 -0.22575844262E+02  0.46008957702E+02 -0.10321940353E+03  0.11524208518E+03  0.00000000000E+00 0.  1.
         12    1    3    3    0    0  0.28542772350E+02 -0.18030285992E+02 -0.10010888283E+03  0.10564832932E+03  0.00000000000E+00 0. -1.
        -13    1    4    4    0    0 -0.41854966992E+02 -0.10111653920E+02  0.12742399086E+02  0.44904927807E+02  0.00000000000E+00 0.  1.
         13    1    4    4    0    0  0.21000615864E+02  0.20129597093E+02 -0.48135442679E+02  0.56242754090E+02  0.00000000000E+00 0. -1.
          1    1    1    2  501    0  0.14887423040E+02 -0.37996614883E+02 -0.17002452045E+02  0.44209291816E+02  0.00000000000E+00 0. -1.
<scales pt_clust_5="13000.00000" pt_clust_6="13000.00000" pt_clust_7="13000.00000" pt_clust_8="13000.00000" pt_clust_9="40.80904"></scales>
<clustering>
<clus scale="   40.809">  1  9  2 -1</clus>
<clus scale="   81.436">  5  6 -1 -1</clus>
<clus scale="   84.341">  2  5  1 -1</clus>
<clus scale="   91.885">  7  8 -1 -1</clus>
<clus scale="   40.809">  1  5  2 -1</clus>
</clustering>
</event>
<event>
 9    2  0.6469128E-005  0.1540759E+03  0.7546771E-02  0.1198078E+00
         21   -1    0    0  501  502  0.00000000000E+00  0.00000000000E+00  0.49313137114E+02  0.49313137114E+02  0.00000000000E+00 0.  1.
          2   -1    0    0  502    0 -0.00000000000E+00 -0.00000000000E+00 -0.11386106262E+04  0.11386106262E+04  0.00000000000E+00 0. -1.
         24    2    1    2    0    0  0.11094402439E+03 -0.42879105968E+02 -0.89933702335E+03  0.91072671444E+03  0.80429301539E+02 0.  0.
         23    2    1    2    0    0 -0.12227472189E+03  0.70866776041E+02 -0.14763369380E+03  0.22520426086E+03  0.94594101343E+02 0.  0.
        -13    1    3    3    0    0  0.39269692153E+02 -0.45020738096E+02 -0.23277781416E+03  0.24032163104E+03  0.00000000000E+00 0.  1.
         14    1    3    3    0    0  0.71674332236E+02  0.21416321281E+01 -0.66655920919E+03  0.67040508340E+03  0.00000000000E+00 0. -1.
        -13    1    4    4    0    0 -0.78156969049E+02  0.86895154402E+02 -0.13062771759E+03  0.17527943483E+03  0.00000000000E+00 0. -1.
         13    1    4    4    0    0 -0.44117752839E+02 -0.16028378361E+02 -0.17005976202E+02  0.49924826039E+02  0.00000000000E+00 0.  1.
          1    1    1    2  501    0  0.11330697499E+02 -0.27987670073E+02 -0.42326771927E+02  0.51992787997E+02  0.00000000000E+00 0. -1.
<scales pt_clust_5="13000.00000" pt_clust_6="13000.00000" pt_clust_7="13000.00000" pt_clust_8="13000.00000" pt_clust_9="30.19428"></scales>
<clustering>
<clus scale="   30.194">  1  9  2 -1</clus>
<clus scale="   80.429">  5  6 -1 -1</clus>
<clus scale="   94.594">  7  8 -1 -1</clus>
<clus scale="  145.809">  2  5  1 -1</clus>
<clus scale="   30.194">  1  5  2 -1</clus>
</clustering>
</event>
<event>
 9    2  0.6469128E-005  0.1172790E+03  0.7546771E-02  0.1250663E+00
         21   -1    0    0  501  502  0.00000000000E+00  0.00000000000E+00  0.89271114076E+02  0.89271114076E+02  0.00000000000E+00 0. -1.
          2   -1    0    0  502    0 -0.00000000000E+00 -0.00000000000E+00 -0.43577610650E+03  0.43577610650E+03  0.00000000000E+00 0. -1.
         23    2    1    2    0    0  0.71467258551E+02 -0.28875355840E+02 -0.36310488977E+03  0.38222705350E+03  0.91164709360E+02 0.  0.
         24    2    1    2    0    0 -0.46663650120E+02  0.38862324263E+02 -0.12927788707E+02  0.10298497192E+03  0.82164470613E+02 0.  0.
        -13    1    4    4    0    0  0.14552072069E+02  0.29568569333E+02 -0.23089943678E+02  0.40239391061E+02  0.00000000000E+00 0.  1.
         14    1    4    4    0    0 -0.61215722189E+02  0.92937549303E+01  0.10162154971E+02  0.62745580860E+02  0.00000000000E+00 0. -1.
        -13    1    3    3    0    0  0.37827426280E+02  0.29543059739E+02 -0.10475865477E+03  0.11523056151E+03  0.00000000000E+00 0. -1.
         13    1    3    3    0    0  0.33639832271E+02 -0.58418415579E+02 -0.25834623500E+03  0.26699649198E+03  0.00000000000E+00 0.  1.
          1    1    1    2  501    0 -0.24803608431E+02 -0.99869684233E+01  0.29527686053E+02  0.39835195156E+02  0.00000000000E+00 0. -1.
<scales pt_clust_5="13000.00000" pt_clust_6="13000.00000" pt_clust_7="13000.00000" pt_clust_8="13000.00000" pt_clust_9="26.73871"></scales>
<clustering>
<clus scale="   26.739">  1  9  2 -1</clus>
<clus scale="   82.164">  5  6 -1 -1</clus>
<clus scale="   91.165">  7  8 -1 -1</clus>
<clus scale="  110.428">  1  5  2 -1</clus>
<clus scale="   26.739">  1  5  2 -1</clus>
</clustering>
</event>
<event>
 9    2  0.6469128E-005  0.1957695E+03  0.7546771E-02  0.1182337E+00
         21   -1    0    0  501  502  0.00000000000E+00  0.00000000000E+00  0.76842326622E+03  0.76842326622E+03  0.00000000000E+00 0. -1.
          2   -1    0    0  502    0 -0.00000000000E+00 -0.00000000000E+00 -0.17642353513E+03  0.17642353513E+03  0.00000000000E+00 0. -1.
         24    2    1    2    0    0  0.28661767437E+02  0.38129300972E+02 -0.53158906094E+02  0.11381021983E+03  0.88609008207E+02 0.  0.
         23    2    1    2    0    0  0.50360669392E+02 -0.16972654271E+03  0.53674494828E+02  0.21995895125E+03  0.11898610222E+03 0.  0.
        -11    1    3    3    0    0  0.56801512170E+02  0.19947128036E+02 -0.53150579647E+02  0.80307433146E+02  0.00000000000E+00 0.  1.
         12    1    3    3    0    0 -0.28139744733E+02  0.18182172935E+02 -0.83264468167E-02  0.33502786684E+02  0.00000000000E+00 0. -1.
        -11    1    4    4    0    0  0.80541630292E+02 -0.10419674491E+03  0.65109950441E+02  0.14691229188E+03  0.00000000000E+00 0.  1.
         11    1    4    4    0    0 -0.30180960900E+02 -0.65529797796E+02 -0.11435455613E+02  0.73046659370E+02  0.00000000000E+00 0. -1.
          1    1    1    2  501    0 -0.79022436829E+02  0.13159724173E+03  0.59148414235E+03  0.61107763027E+03  0.00000000000E+00 0. -1.
<scales pt_clust_5="13000.00000" pt_clust_6="13000.00000" pt_clust_7="13000.00000" pt_clust_8="13000.00000" pt_clust_9="155.46063"></scales>
<clustering>
<clus scale="   88.609">  5  6 -1 -1</clus>
<clus scale="  100.632">  2  5  1 -1</clus>
<clus scale="  118.986">  7  8 -1 -1</clus>
<clus scale="  155.461">  1  9  2 -1</clus>
<clus scale="  155.461">  1  5  2 -1</clus>
</clustering>
</event>
<event>
 9    2  0.6469128E-005  0.1137961E+03  0.7546771E-02  0.1257251E+00
         21   -1    0    0  501  502  0.00000000000E+00  0.00000000000E+00  0.77281726895E+02  0.77281726895E+02  0.00000000000E+00 0. -1.
          2   -1    0    0  502    0 -0.00000000000E+00 -0.00000000000E+00 -0.25474140539E+03  0.25474140539E+03  0.00000000000E+00 0. -1.
         23    2    1    2    0    0  0.54686676596E+02 -0.50557801804E+02 -0.15784241938E+03  0.19713139310E+03  0.91650602128E+02 0.  0.
         24    2    1    2    0    0 -0.33141885545E+02  0.35747608286E+02  0.95218215400E+01  0.95743228675E+02  0.81852456750E+02 0.  0.
        -13    1    4    4    0    0 -0.20567498947E+02 -0.25409451933E+02  0.57569552882E+01  0.33193445055E+02  0.00000000000E+00 0.  1.
         14    1    4    4    0    0 -0.12574386598E+02  0.61157060219E+02  0.37648662518E+01  0.62549783619E+02  0.00000000000E+00 0. -1.
        -11    1    3    3    0    0 -0.20985738977E+02 -0.31478829653E+02 -0.34662367297E+02  0.51310794804E+02  0.00000000000E+00 0.  1.
         11    1    3    3    0    0  0.75672415574E+02 -0.19078972151E+02 -0.12318005208E+03  0.14582059830E+03  0.00000000000E+00 0. -1.
          1    1    1    2  501    0 -0.21544791052E+02  0.14810193518E+02 -0.29139080656E+02  0.39148510508E+02  0.00000000000E+00 0. -1.
<scales pt_clust_5="13000.00000" pt_clust_6="13000.00000" pt_clust_7="13000.00000" pt_clust_8="13000.00000" pt_clust_9="26.14423"></scales>
<clustering>
<clus scale="   26.144">  1  9  2 -1</clus>
<clus scale="   81.852">  5  6 -1 -1</clus>
<clus scale="   91.651">  7  8 -1 -1</clus>
<clus scale="  106.064">  1  5  2 -1</clus>
<clus scale="   26.144">  1  5  2 -1</clus>
</clustering>
</event>
<event>
 9    2  0.6469128E-005  0.9868124E+02  0.7546771E-02  0.1286993E+00
         21   -1    0    0  501  502  0.00000000000E+00  0.00000000000E+00  0.28835050648E+03  0.28835050648E+03  0.00000000000E+00 0. -1.
          4   -1    0    0  502    0 -0.00000000000E+00 -0.00000000000E+00 -0.65426566821E+02  0.65426566821E+02  0.00000000000E+00 0. -1.
         23    2    1    2    0    0 -0.30841410495E+02  0.42065744920E+02  0.38274688357E+02  0.11175149759E+03  0.91119295151E+02 0.  0.
         24    2    1    2    0    0  0.10158157257E+02  0.34899293315E+01  0.17031869181E+03  0.18998250358E+03  0.83483693739E+02 0.  0.
        -13    1    4    4    0    0 -0.30952941168E+02 -0.19949539721E+02  0.76757495633E+02  0.85133905337E+02  0.00000000000E+00 0.  1.
         14    1    4    4    0    0  0.41111098425E+02  0.23439469053E+02  0.93561196179E+02  0.10484859824E+03  0.00000000000E+00 0. -1.
        -11    1    3    3    0    0 -0.48604091804E+01  0.68046040935E+02  0.23577720317E+02  0.72178917695E+02  0.00000000000E+00 0. -1.
         11    1    3    3    0    0 -0.25981001314E+02 -0.25980296015E+02  0.14696968041E+02  0.39572579899E+02  0.00000000000E+00 0.  1.
          3    1    1    2  501    0  0.20683253238E+02 -0.45555674252E+02  0.14330559491E+02  0.52043072126E+02  0.00000000000E+00 0. -1.
<scales pt_clust_5="13000.00000" pt_clust_6="13000.00000" pt_clust_7="13000.00000" pt_clust_8="13000.00000" pt_clust_9="50.03118"></scales>
<clustering>
<clus scale="   50.031">  1  9  2 -1</clus>
<clus scale="   83.484">  5  6 -1 -1</clus>
<clus scale="   91.119">  7  8 -1 -1</clus>
<clus scale="   91.678">  1  5  2 -1</clus>
<clus scale="   50.031">  1  5  2 -1</clus>
</clustering>
</event>
<event>
 9    2  0.6469128E-005  0.1278963E+03  0.7546771E-02  0.1232276E+00
          2   -1    0    0  502    0 -0.00000000000E+00  0.00000000000E+00  0.21452555236E+03  0.21452555236E+03  0.00000000000E+00 0. -1.
         21   -1    0    0  501  502  0.00000000000E+00 -0.00000000000E+00 -0.13848959100E+03  0.13848959100E+03  0.00000000000E+00 0. -1.
         23    2    1    2    0    0 -0.10288141690E+03 -0.33843966868E+02  0.61597152884E+02  0.15345356488E+03  0.89575595420E+02 0.  0.
         24    2    1    2    0    0  0.52094475701E+02  0.32843146693E+02 -0.52012108519E+02  0.11591924824E+03  0.83303697380E+02 0.  0.
        -13    1    4    4    0    0  0.39362304797E+02 -0.17839994741E+02 -0.15045848989E+01  0.43242574241E+02  0.00000000000E+00 0.  1.
         14    1    4    4    0    0  0.12732170903E+02  0.50683141434E+02 -0.50507523620E+02  0.72676674001E+02  0.00000000000E+00 0. -1.
        -11    1    3    3    0    0 -0.95797161295E+02 -0.15717480099E+01  0.70828028851E+02  0.11914770738E+03  0.00000000000E+00 0. -1.
         11    1    3    3    0    0 -0.70842556037E+01 -0.32272218859E+02 -0.92308759667E+01  0.34305857497E+02  0.00000000000E+00 0.  1.
          1    1    1    2  501    0  0.50786941199E+02  0.10008201752E+01  0.66450916996E+02  0.83642330233E+02  0.00000000000E+00 0. -1.
<scales pt_clust_5="13000.00000" pt_clust_6="13000.00000" pt_clust_7="13000.00000" pt_clust_8="13000.00000" pt_clust_9="50.79683"></scales>
<clustering>
<clus scale="   50.797">  2  9  1 -1</clus>
<clus scale="   83.304">  5  6 -1 -1</clus>
<clus scale="   89.576">  7  8 -1 -1</clus>
<clus scale="  123.585">  2  5  1 -1</clus>
<clus scale="   50.797">  2  5  1 -1</clus>
</clustering>
</event>
<event>
 9    2  0.6469128E-005  0.9850603E+02  0.7546771E-02  0.1290409E+00
         21   -1    0    0  501  502  0.00000000000E+00  0.00000000000E+00  0.22157633758E+03  0.22157633758E+03  0.00000000000E+00 0.  1.
         -1   -1    0    0    0  501 -0.00000000000E+00 -0.00000000000E+00 -0.83307214840E+02  0.83307214840E+02  0.00000000000E+00 0.  1.
         23    2    1    2    0    0  0.19147330508E+02 -0.30465209779E+02 -0.27335179383E+02  0.10355154648E+03  0.93171677423E+02 0.  0.
         24    2    1    2    0    0 -0.27328744113E+02  0.20609432688E+01  0.11951155462E+03  0.14657546061E+03  0.80313424919E+02 0.  0.
        -11    1    4    4    0    0 -0.78810697093E+01 -0.28011163792E+02  0.90806393609E+01  0.30482692925E+02  0.00000000000E+00 0.  1.
         12    1    4    4    0    0 -0.19447674403E+02  0.30072107061E+02  0.11043091526E+03  0.11609276768E+03  0.00000000000E+00 0. -1.
        -11    1    3    3    0    0  0.54318598195E+02 -0.19590632790E+02 -0.75225049543E-01  0.57743472893E+02  0.00000000000E+00 0.  1.
         11    1    3    3    0    0 -0.35171267687E+02 -0.10874576989E+02 -0.27259954333E+02  0.45808073586E+02  0.00000000000E+00 0. -1.
         -2    1    1    2    0  502  0.81814136050E+01  0.28404266511E+02  0.46092747494E+02  0.54756545327E+02  0.00000000000E+00 0.  1.
<scales pt_clust_5="13000.00000" pt_clust_6="13000.00000" pt_clust_7="13000.00000" pt_clust_8="13000.00000" pt_clust_9="29.55906"></scales>
<clustering>
<clus scale="   29.559">  1  9  2 -1</clus>
<clus scale="   80.313">  5  6 -1 -1</clus>
<clus scale="   86.445">  1  5  2 -1</clus>
<clus scale="   93.172">  7  8 -1 -1</clus>
<clus scale="   29.559">  1  5  2 -1</clus>
</clustering>
</event>
<event>
 9    2  0.6469128E-005  0.8841586E+02  0.7546771E-02  0.1311506E+00
          2   -1    0    0  502    0 -0.00000000000E+00  0.00000000000E+00  0.14009528249E+03  0.14009528249E+03  0.00000000000E+00 0. -1.
         21   -1    0    0  501  502  0.00000000000E+00 -0.00000000000E+00 -0.14131117899E+03  0.14131117899E+03  0.00000000000E+00 0.  1.
         24    2    1    2    0    0  0.19129554546E+02  0.17508703368E+02  0.82179839404E+02  0.11599693796E+03  0.77648368051E+02 0.  0.
         23    2    1    2    0    0  0.24697665384E+02 -0.31981205690E+02 -0.69507644235E+02  0.11721037808E+03  0.85288849979E+02 0.  0.
        -11    1    3    3    0    0  0.46566545157E+02  0.58253073362E+01  0.68872679302E+02  0.83341605982E+02  0.00000000000E+00 0.  1.
         12    1    3    3    0    0 -0.27436990611E+02  0.11683396032E+02  0.13307160102E+02  0.32655331978E+02  0.00000000000E+00 0. -1.
        -11    1    4    4    0    0 -0.27281451420E+02  0.72972467274E+01 -0.13529836548E+02  0.31314275952E+02  0.00000000000E+00 0. -1.
         11    1    4    4    0    0  0.51979116804E+02 -0.39278452417E+02 -0.55977807687E+02  0.85896102132E+02  0.00000000000E+00 0.  1.
          1    1    1    2  501    0 -0.43827219929E+02  0.14472502321E+02 -0.13888091674E+02  0.48199145433E+02  0.00000000000E+00 0. -1.
<scales pt_clust_5="13000.00000" pt_clust_6="13000.00000" pt_clust_7="13000.00000" pt_clust_8="13000.00000" pt_clust_9="46.15494"></scales>
<clustering>
<clus scale="   46.155">  2  9  1 -1</clus>
<clus scale="   77.648">  5  6 -1 -1</clus>
<clus scale="   81.071">  1  5  2 -1</clus>
<clus scale="   85.289">  7  8 -1 -1</clus>
<clus scale="   46.155">  2  5  1 -1</clus>
</clustering>
</event>
<event>
 9    2  0.7860765E-005  0.1497981E+03  0.7546771E-02  0.1205508E+00
          2   -1    0    0  502    0 -0.00000000000E+00  0.00000000000E+00  0.52393031339E+03  0.52393031339E+03  0.00000000000E+00 0. -1.
         21   -1    0    0  501  502  0.00000000000E+00 -0.00000000000E+00 -0.34061802455E+03  0.34061802455E+03  0.00000000000E+00 0. -1.
         23    2    1    2    0    0 -0.90928761381E+02 -0.59410029556E+02  0.44168797224E+03  0.46650172116E+03  0.10362432032E+03 0.  0.
         24    2    1    2    0    0  0.58703213696E+02  0.86482750336E+02 -0.30669670838E+03  0.33396588965E+03  0.80901242985E+02 0.  0.
        -13    1    4    4    0    0  0.12594019033E+02  0.59611704239E+02 -0.77203174113E+02  0.98348841837E+02  0.00000000000E+00 0.  1.
         14    1    4    4    0    0  0.46109194663E+02  0.26871046098E+02 -0.22949353427E+03  0.23561704781E+03  0.00000000000E+00 0. -1.
        -11    1    3    3    0    0 -0.10846288220E+03 -0.28946168010E+02  0.37008929521E+03  0.38674043477E+03  0.00000000000E+00 0. -1.
         11    1    3    3    0    0  0.17534120823E+02 -0.30463861546E+02  0.71598677033E+02  0.79761286387E+02  0.00000000000E+00 0.  1.
          1    1    1    2  501    0  0.32225547686E+02 -0.27072720780E+02  0.48321024980E+02  0.64080727127E+02  0.00000000000E+00 0. -1.
<scales pt_clust_5="13000.00000" pt_clust_6="13000.00000" pt_clust_7="13000.00000" pt_clust_8="13000.00000" pt_clust_9="42.08824"></scales>
<clustering>
<clus scale="   42.088">  2  9  1 -1</clus>
<clus scale="   80.901">  5  6 -1 -1</clus>
<clus scale="  103.624">  7  8 -1 -1</clus>
<clus scale="  135.080">  2  5  1 -1</clus>
<clus scale="   42.088">  2  5  1 -1</clus>
</clustering>
</event>
<event>
 9    2  0.6469128E-005  0.1170165E+03  0.7546771E-02  0.1252817E+00
          2   -1    0    0  502    0 -0.00000000000E+00  0.00000000000E+00  0.12000576110E+04  0.12000576110E+04  0.00000000000E+00 0. -1.
         21   -1    0    0  501  502  0.00000000000E+00 -0.00000000000E+00 -0.35416552041E+02  0.35416552041E+02  0.00000000000E+00 0.  1.
         24    2    1    2    0    0 -0.54116507504E+01 -0.70501507612E+02  0.91716195492E+03  0.92339076871E+03  0.80403430586E+02 0.  0.
         23    2    1    2    0    0 -0.15473643092E+02  0.67178132459E+02  0.26180046339E+03  0.28654241447E+03  0.93886833710E+02 0.  0.
        -11    1    3    3    0    0 -0.29411600052E+02 -0.14860021189E+02  0.13815390224E+03  0.14202944466E+03  0.00000000000E+00 0.  1.
         12    1    3    3    0    0  0.23999949301E+02 -0.55641486423E+02  0.77900805268E+03  0.78136132405E+03  0.00000000000E+00 0. -1.
        -11    1    4    4    0    0 -0.10509142201E+02  0.87851263530E+02  0.16284607799E+03  0.18532979170E+03  0.00000000000E+00 0.  1.
         11    1    4    4    0    0 -0.49645008912E+01 -0.20673131071E+02  0.98954385402E+02  0.10121262277E+03  0.00000000000E+00 0. -1.
          1    1    1    2  501    0  0.20885293842E+02  0.33233751528E+01 -0.14321359321E+02  0.25540979897E+02  0.00000000000E+00 0. -1.
<scales pt_clust_5="13000.00000" pt_clust_6="13000.00000" pt_clust_7="13000.00000" pt_clust_8="13000.00000" pt_clust_9="21.14806"></scales>
<clustering>
<clus scale="   21.148">  2  9  1 -1</clus>
<clus scale="   80.403">  5  6 -1 -1</clus>
<clus scale="   93.887">  7  8 -1 -1</clus>
<clus scale="  106.503">  1  5  2 -1</clus>
<clus scale="   21.148">  2  5  1 -1</clus>
</clustering>
</event>
<event>
 9    2  0.6469128E-005  0.9362661E+02  0.7546771E-02  0.1299752E+00
         21   -1    0    0  501  502  0.00000000000E+00  0.00000000000E+00  0.92962220518E+02  0.92962220518E+02  0.00000000000E+00 0. -1.
         -1   -1    0    0    0  501 -0.00000000000E+00 -0.00000000000E+00 -0.28244398997E+03  0.28244398997E+03  0.00000000000E+00 0.  1.
         24    2    1    2    0    0  0.49813780505E+01  0.28981305052E+02 -0.50320717600E+02  0.98670192824E+02  0.79617222775E+02 0.  0.
         23    2    1    2    0    0 -0.45406004908E+02 -0.10204290414E+02  0.27488832490E+02  0.10422830570E+03  0.89118297635E+02 0.  0.
        -11    1    3    3    0    0 -0.25386004711E+02  0.43929643081E+02 -0.34142527565E+02  0.61155334722E+02  0.00000000000E+00 0.  1.
         12    1    3    3    0    0  0.30367382762E+02 -0.14948338029E+02 -0.16178190035E+02  0.37514858103E+02  0.00000000000E+00 0. -1.
        -13    1    4    4    0    0 -0.57122982391E+02  0.18260735868E+02 -0.41138841959E+01  0.60111676361E+02  0.00000000000E+00 0.  1.
         13    1    4    4    0    0  0.11716977483E+02 -0.28465026282E+02  0.31602716686E+02  0.44116629342E+02  0.00000000000E+00 0. -1.
         -2    1    1    2    0  502  0.40424626858E+02 -0.18777014638E+02 -0.16664988434E+03  0.17250771196E+03  0.00000000000E+00 0.  1.
<scales pt_clust_5="13000.00000" pt_clust_6="13000.00000" pt_clust_7="13000.00000" pt_clust_8="13000.00000" pt_clust_9="44.57274"></scales>
<clustering>
<clus scale="   44.573">  1  9  2 -1</clus>
<clus scale="   79.617">  5  6 -1 -1</clus>
<clus scale="   84.633">  2  5  1 -1</clus>
<clus scale="   89.118">  7  8 -1 -1</clus>
<clus scale="   44.573">  1  5  2 -1</clus>
</clustering>
</event>
<event>
 9    2  0.6469128E-005  0.9373051E+02  0.7546771E-02  0.1294307E+00
         21   -1    0    0  501  502  0.00000000000E+00  0.00000000000E+00  0.10471191360E+03  0.10471191360E+03  0.00000000000E+00 0.  1.
          2   -1    0    0  502    0 -0.00000000000E+00 -0.00000000000E+00 -0.34076059352E+03  0.34076059352E+03  0.00000000000E+00 0. -1.
         24    2    1    2    0    0 -0.41804009401E-01 -0.11361141627E+02 -0.25280474296E+03  0.26974651602E+03  0.93401646425E+02 0.  0.
         23    2    1    2    0    0 -0.44342628465E+02 -0.35461317369E+02  0.21484551501E+02  0.11103689530E+03  0.92972213252E+02 0.  0.
        -13    1    3    3    0    0 -0.32030065621E+02  0.26987437737E+02 -0.14516717513E+03  0.15108856884E+03  0.00000000000E+00 0.  1.
         14    1    3    3    0    0  0.31988261612E+02 -0.38348579365E+02 -0.10763756784E+03  0.11865794718E+03  0.00000000000E+00 0. -1.
        -13    1    4    4    0    0 -0.59783556455E+02 -0.56875199352E+02  0.17239571089E+02  0.84297477632E+02  0.00000000000E+00 0.  1.
         13    1    4    4    0    0  0.15440927991E+02  0.21413881983E+02  0.42449804127E+01  0.26739417673E+02  0.00000000000E+00 0. -1.
          1    1    1    2  501    0  0.44384432474E+02  0.46822458996E+02 -0.47284884567E+01  0.64689095801E+02  0.00000000000E+00 0. -1.
<scales pt_clust_5="13000.00000" pt_clust_6="13000.00000" pt_clust_7="13000.00000" pt_clust_8="13000.00000" pt_clust_9="64.51605"></scales>
<clustering>
<clus scale="   64.516">  1  9  2 -1</clus>
<clus scale="   92.972">  7  8 -1 -1</clus>
<clus scale="   93.303">  1  7  2 -1</clus>
<clus scale="   93.402">  5  6 -1 -1</clus>
<clus scale="   64.516">  1  5  2 -1</clus>
</clustering>
</event>
<event>
 9    2  0.6469128E-005  0.1298931E+03  0.7546771E-02  0.1232230E+00
         21   -1    0    0  501  502  0.00000000000E+00  0.00000000000E+00  0.73838275171E+02  0.73838275171E+02  0.00000000000E+00 0.  1.
          2   -1    0    0  502    0 -0.00000000000E+00 -0.00000000000E+00 -0.62123046283E+03  0.62123046283E+03  0.00000000000E+00 0. -1.
         24    2    1    2    0    0 -0.84628874814E+02 -0.25375579871E+02 -0.48582213594E+03  0.49943798024E+03  0.74894471290E+02 0.  0.
         23    2    1    2    0    0  0.10122230968E+03  0.58104424556E+02 -0.52318478963E+02  0.15778751591E+03  0.92399116903E+02 0.  0.
        -11    1    3    3    0    0 -0.18565938034E+02 -0.43394625413E+02 -0.18593675276E+03  0.19183394798E+03  0.00000000000E+00 0.  1.
         12    1    3    3    0    0 -0.66062936780E+02  0.18019045542E+02 -0.29988538318E+03  0.30760403227E+03  0.00000000000E+00 0. -1.
        -11    1    4    4    0    0  0.73227171774E+02  0.79119807685E+02 -0.57851330456E+02  0.12234761579E+03  0.00000000000E+00 0.  1.
         11    1    4    4    0    0  0.27995137909E+02 -0.21015383129E+02  0.55328514928E+01  0.35439900116E+02  0.00000000000E+00 0. -1.
          1    1    1    2  501    0 -0.16593434869E+02 -0.32728844685E+02 -0.92515727478E+01  0.37843241847E+02  0.00000000000E+00 0. -1.
<scales pt_clust_5="13000.00000" pt_clust_6="13000.00000" pt_clust_7="13000.00000" pt_clust_8="13000.00000" pt_clust_9="36.69495"></scales>
<clustering>
<clus scale="   36.695">  1  9  2 -1</clus>
<clus scale="   74.894">  5  6 -1 -1</clus>
<clus scale="   92.399">  7  8 -1 -1</clus>
<clus scale="  118.084">  2  5  1 -1</clus>
<clus scale="   36.695">  1  5  2 -1</clus>
</clustering>
</event>
<event>
 9    2  0.6469128E-005  0.1188152E+03  0.7546771E-02  0.1248772E+00
          4   -1    0    0  502    0 -0.00000000000E+00  0.00000000000E+00  0.67797842201E+02  0.67797842201E+02  0.00000000000E+00 0. -1.
         21   -1    0    0  501  502  0.00000000000E+00 -0.00000000000E+00 -0.37975308672E+03  0.37975308672E+03  0.00000000000E+00 0. -1.
         23    2    1    2    0    0  0.42908811759E+02 -0.62249604606E+02 -0.10850101433E+03  0.16067128956E+03  0.91250280984E+02 0.  0.
         24    2    1    2    0    0  0.29875922215E+02  0.90201987029E+02 -0.11906844772E+03  0.17198876301E+03  0.79836521529E+02 0.  0.
        -11    1    4    4    0    0 -0.12482268961E+02  0.49503217999E+02 -0.96286557290E+02  0.10898383708E+03  0.00000000000E+00 0.  1.
         12    1    4    4    0    0  0.42358191177E+02  0.40698769029E+02 -0.22781890426E+02  0.63004925932E+02  0.00000000000E+00 0. -1.
        -13    1    3    3    0    0 -0.22431426150E+02 -0.37269151468E+02 -0.65274387141E+02  0.78440449686E+02  0.00000000000E+00 0. -1.
         13    1    3    3    0    0  0.65340237910E+02 -0.24980453139E+02 -0.43226627186E+02  0.82230839877E+02  0.00000000000E+00 0.  1.
          3    1    1    2  501    0 -0.72784733975E+02 -0.27952382422E+02 -0.84385782478E+02  0.11489087634E+03  0.00000000000E+00 0. -1.
<scales pt_clust_5="13000.00000" pt_clust_6="13000.00000" pt_clust_7="13000.00000" pt_clust_8="13000.00000" pt_clust_9="77.96764"></scales>
<clustering>
<clus scale="   77.968">  2  9  1 -1</clus>
<clus scale="   79.837">  5  6 -1 -1</clus>
<clus scale="   91.250">  7  8 -1 -1</clus>
<clus scale="  110.292">  2  5  1 -1</clus>
<clus scale="   77.968">  2  5  1 -1</clus>
</clustering>
</event>
<event>
 9    2  0.6469128E-005  0.1342080E+03  0.7546771E-02  0.1242799E+00
         21   -1    0    0  501  502  0.00000000000E+00  0.00000000000E+00  0.22479450066E+02  0.22479450066E+02  0.00000000000E+00 0. -1.
          2   -1    0    0  502    0 -0.00000000000E+00 -0.00000000000E+00 -0.10883838907E+04  0.10883838907E+04  0.00000000000E+00 0. -1.
         24    2    1    2    0    0  0.23655021009E+02  0.25706572108E+02 -0.26975823533E+03  0.28322590892E+03  0.78911482600E+02 0.  0.
         23    2    1    2    0    0  0.67161079597E+02  0.11661238413E+02 -0.39131923371E+03  0.41106955704E+03  0.10583403498E+03 0.  0.
        -13    1    3    3    0    0 -0.17544395765E+02 -0.15284111434E+02 -0.40424895839E+02  0.46643135493E+02  0.00000000000E+00 0.  1.
         14    1    3    3    0    0  0.41199416773E+02  0.40990683541E+02 -0.22933333949E+03  0.23658277342E+03  0.00000000000E+00 0. -1.
        -11    1    4    4    0    0 -0.12750659089E+02  0.37432016849E+02 -0.16512774420E+03  0.16979666397E+03  0.00000000000E+00 0.  1.
         11    1    4    4    0    0  0.79911738686E+02 -0.25770778435E+02 -0.22619148951E+03  0.24127289307E+03  0.00000000000E+00 0. -1.
          1    1    1    2  501    0 -0.90816100605E+02 -0.37367810521E+02 -0.40482697162E+03  0.41656787484E+03  0.00000000000E+00 0. -1.
<scales pt_clust_5="13000.00000" pt_clust_6="13000.00000" pt_clust_7="13000.00000" pt_clust_8="13000.00000" pt_clust_9="82.52855"></scales>
<clustering>
<clus scale="   78.911">  5  6 -1 -1</clus>
<clus scale="   86.298">  2  5  1 -1</clus>
<clus scale="   82.529">  1  9  2 -1</clus>
<clus scale="  105.834">  7  8 -1 -1</clus>
<clus scale="   82.529">  1  5  2 -1</clus>
</clustering>
</event>
<event>
 9    2  0.7626897E-005  0.9087725E+02  0.7546771E-02  0.1307181E+00
         21   -1    0    0  501  502  0.00000000000E+00  0.00000000000E+00  0.44123812735E+03  0.44123812735E+03  0.00000000000E+00 0.  1.
         -1   -1    0    0    0  501 -0.00000000000E+00 -0.00000000000E+00 -0.53729061161E+02  0.53729061161E+02  0.00000000000E+00 0.  1.
         23    2    1    2    0    0  0.55667402934E+01  0.12035769670E+02  0.51361567573E+01  0.91623294529E+02  0.90512980533E+02 0.  0.
         24    2    1    2    0    0  0.28607686209E+02  0.12313575706E+02  0.24575363058E+03  0.26042570270E+03  0.80353443138E+02 0.  0.
        -13    1    4    4    0    0  0.42785002547E+02  0.33306320168E+02  0.11372686316E+03  0.12599074097E+03  0.00000000000E+00 0.  1.
         14    1    4    4    0    0 -0.14177316338E+02 -0.20992744462E+02  0.13202676742E+03  0.13443496172E+03  0.00000000000E+00 0. -1.
        -11    1    3    3    0    0 -0.19049557262E+02  0.21749232538E+02 -0.33841956464E+02  0.44510591607E+02  0.00000000000E+00 0. -1.
         11    1    3    3    0    0  0.24616297556E+02 -0.97134628683E+01  0.38978113222E+02  0.47112702921E+02  0.00000000000E+00 0.  1.
         -2    1    1    2    0  502 -0.34174426502E+02 -0.24349345376E+02  0.13661927885E+03  0.14291819128E+03  0.00000000000E+00 0.  1.
<scales pt_clust_5="13000.00000" pt_clust_6="13000.00000" pt_clust_7="13000.00000" pt_clust_8="13000.00000" pt_clust_9="41.96167"></scales>
<clustering>
<clus scale="   41.962">  1  9  2 -1</clus>
<clus scale="   80.353">  5  6 -1 -1</clus>
<clus scale="   80.764">  1  5  2 -1</clus>
<clus scale="   90.513">  7  8 -1 -1</clus>
<clus scale="   41.962">  1  5  2 -1</clus>
</clustering>
</event>
<event>
 9    2  0.7616526E-005  0.1503856E+03  0.7546771E-02  0.1220530E+00
          2   -1    0    0  502    0 -0.00000000000E+00  0.00000000000E+00  0.69532235213E+03  0.69532235213E+03  0.00000000000E+00 0. -1.
         21   -1    0    0  501  502  0.00000000000E+00 -0.00000000000E+00 -0.95464758995E+02  0.95464758995E+02  0.00000000000E+00 0. -1.
         24    2    1    2    0    0 -0.59656076938E+01 -0.57224748396E+02  0.36498995068E+03  0.37766611550E+03  0.78126630493E+02 0.  0.
         23    2    1    2    0    0 -0.11126372973E+03  0.17862052139E+02  0.24969530463E+03  0.28857381992E+03  0.90710715621E+02 0.  0.
        -13    1    3    3    0    0 -0.16824463297E+02  0.12922133875E+02  0.43042300237E+02  0.47986286779E+02  0.00000000000E+00 0.  1.
         14    1    3    3    0    0  0.10858855603E+02 -0.70146882270E+02  0.32194765044E+03  0.32967982872E+03  0.00000000000E+00 0. -1.
        -11    1    4    4    0    0  0.22979039768E+01  0.27975101684E+02  0.73830424583E+02  0.78986190381E+02  0.00000000000E+00 0.  1.
         11    1    4    4    0    0 -0.11356163371E+03 -0.10113049544E+02  0.17586488005E+03  0.20958762954E+03  0.00000000000E+00 0. -1.
          1    1    1    2  501    0  0.11722933742E+03  0.39362696257E+02 -0.14827662182E+02  0.12454717570E+03  0.00000000000E+00 0. -1.
<scales pt_clust_5="13000.00000" pt_clust_6="13000.00000" pt_clust_7="13000.00000" pt_clust_8="13000.00000" pt_clust_9="119.94752"></scales>
<clustering>
<clus scale="   78.127">  5  6 -1 -1</clus>
<clus scale="   90.711">  7  8 -1 -1</clus>
<clus scale="   97.026">  1  5  2 -1</clus>
<clus scale="  119.948">  2  9  1 -1</clus>
<clus scale="  119.948">  2  5  1 -1</clus>
</clustering>
</event>
<event>
 9    2  0.6469128E-005  0.1154673E+03  0.7546771E-02  0.1254209E+00
         21   -1    0    0  501  502  0.00000000000E+00  0.00000000000E+00  0.14701435486E+03  0.14701435486E+03  0.00000000000E+00 0. -1.
          2   -1    0    0  502    0 -0.00000000000E+00 -0.00000000000E+00 -0.15558287053E+03  0.15558287053E+03  0.00000000000E+00 0. -1.
         23    2    1    2    0    0  0.41102054189E+02  0.56495056221E+02 -0.83342276468E+02  0.14125483757E+03  0.90143906364E+02 0.  0.
         24    2    1    2    0    0 -0.28666638319E+02 -0.75303102049E+02  0.41138277834E+02  0.12084883438E+03  0.80123339535E+02 0.  0.
        -11    1    4    4    0    0 -0.21256413740E+02  0.63026826327E+01  0.31245325613E+02  0.38312260519E+02  0.00000000000E+00 0.  1.
         12    1    4    4    0    0 -0.74102245795E+01 -0.81605784682E+02  0.98929522215E+01  0.82536573866E+02  0.00000000000E+00 0. -1.
        -13    1    3    3    0    0 -0.94641140420E+01 -0.20027320569E+02 -0.19408042904E+02  0.29450554377E+02  0.00000000000E+00 0.  1.
         13    1    3    3    0    0  0.50566168231E+02  0.76522376790E+02 -0.63934233564E+02  0.11180428319E+03  0.00000000000E+00 0. -1.
          1    1    1    2  501    0 -0.12435415870E+02  0.18808045828E+02  0.33635482960E+02  0.40493553433E+02  0.00000000000E+00 0. -1.
<scales pt_clust_5="13000.00000" pt_clust_6="13000.00000" pt_clust_7="13000.00000" pt_clust_8="13000.00000" pt_clust_9="22.54733"></scales>
<clustering>
<clus scale="   22.547">  1  9  2 -1</clus>
<clus scale="   80.123">  5  6 -1 -1</clus>
<clus scale="   90.144">  7  8 -1 -1</clus>
<clus scale="  107.826">  1  5  2 -1</clus>
<clus scale="   22.547">  1  5  2 -1</clus>
</clustering>
</event>
<event>
 9    2  0.6469128E-005  0.9856466E+02  0.7546771E-02  0.1292351E+00
         -3   -1    0    0    0  501 -0.00000000000E+00  0.00000000000E+00  0.26894941370E+03  0.26894941370E+03  0.00000000000E+00 0.  1.
         21   -1    0    0  501  502  0.00000000000E+00 -0.00000000000E+00 -0.14375827228E+03  0.14375827228E+03  0.00000000000E+00 0.  1.
         23    2    1    2    0    0 -0.86781966190E+01  0.21166355679E+02  0.14913889591E+03  0.17879545369E+03  0.95927463629E+02 0.  0.
         24    2    1    2    0    0 -0.13934237327E+02 -0.24230997200E+02  0.86493835719E+02  0.12113786000E+03  0.80074298697E+02 0.  0.
        -13    1    4    4    0    0 -0.64761531158E+01  0.29683539247E+02  0.31474127026E+02  0.43745556728E+02  0.00000000000E+00 0.  1.
         14    1    4    4    0    0 -0.74580842116E+01 -0.53914536447E+02  0.55019708693E+02  0.77392303268E+02  0.00000000000E+00 0. -1.
        -13    1    3    3    0    0  0.32725232232E+01  0.48250866334E+02  0.13952625664E+03  0.14767000983E+03  0.00000000000E+00 0.  1.
         13    1    3    3    0    0 -0.11950719842E+02 -0.27084510655E+02  0.96126392733E+01  0.31125443868E+02  0.00000000000E+00 0. -1.
         -4    1    1    2    0  502  0.22612433946E+02  0.30646415209E+01 -0.11044159021E+03  0.11277437229E+03  0.00000000000E+00 0.  1.
<scales pt_clust_5="13000.00000" pt_clust_6="13000.00000" pt_clust_7="13000.00000" pt_clust_8="13000.00000" pt_clust_9="22.81916"></scales>
<clustering>
<clus scale="   22.819">  2  9  1 -1</clus>
<clus scale="   80.074">  5  6 -1 -1</clus>
<clus scale="   83.215">  2  5  1 -1</clus>
<clus scale="   95.927">  7  8 -1 -1</clus>
<clus scale="   22.819">  2  5  1 -1</clus>
</clustering>
</event>
<event>
 9    2  0.6469128E-005  0.1026818E+03  0.7546771E-02  0.1278685E+00
         21   -1    0    0  501  502  0.00000000000E+00  0.00000000000E+00  0.11284690411E+03  0.11284690411E+03  0.00000000000E+00 0. -1.
          2   -1    0    0  502    0 -0.00000000000E+00 -0.00000000000E+00 -0.38384429309E+03  0.38384429309E+03  0.00000000000E+00 0. -1.
         24    2    1    2    0    0 -0.37902052779E+02  0.26938260160E+02 -0.29695377355E+03  0.31138391192E+03  0.81339790451E+02 0.  0.
         23    2    1    2    0    0  0.87137135108E+02 -0.47263706561E+01 -0.15669760780E+00  0.12531266528E+03  0.89933423331E+02 0.  0.
        -13    1    3    3    0    0 -0.20559310305E+02 -0.26654815932E+02 -0.71934188334E+02  0.79420978990E+02  0.00000000000E+00 0.  1.
         14    1    3    3    0    0 -0.17342742474E+02  0.53593076092E+02 -0.22501958522E+03  0.23196293293E+03  0.00000000000E+00 0. -1.
        -13    1    4    4    0    0  0.46734780599E+02  0.32016611917E+02  0.28744642277E+02  0.63525251797E+02  0.00000000000E+00 0. -1.
         13    1    4    4    0    0  0.40402354509E+02 -0.36742982573E+02 -0.28901339885E+02  0.61787413487E+02  0.00000000000E+00 0.  1.
          1    1    1    2  501    0 -0.49235082329E+02 -0.22211889504E+02  0.26113082179E+02  0.59994619993E+02  0.00000000000E+00 0. -1.
<scales pt_clust_5="13000.00000" pt_clust_6="13000.00000" pt_clust_7="13000.00000" pt_clust_8="13000.00000" pt_clust_9="54.01353"></scales>
<clustering>
<clus scale="   54.014">  1  9  2 -1</clus>
<clus scale="   81.340">  5  6 -1 -1</clus>
<clus scale="   89.933">  7  8 -1 -1</clus>
<clus scale="   95.245">  2  5  1 -1</clus>
<clus scale="   54.014">  1  5  2 -1</clus>
</clustering>
</event>
<event>
 9    2  0.6469128E-005  0.1539334E+03  0.7546771E-02  0.1196975E+00
         -3   -1    0    0    0  501 -0.00000000000E+00  0.00000000000E+00  0.22925917132E+03  0.22925917132E+03  0.00000000000E+00 0.  1.
         21   -1    0    0  501  502  0.00000000000E+00 -0.00000000000E+00 -0.21916064084E+03  0.21916064084E+03  0.00000000000E+00 0.  1.
         24    2    1    2    0    0  0.63517060233E+02  0.14729769327E+03  0.65818947570E+02  0.19094702706E+03  0.79985035472E+02 0.  0.
         23    2    1    2    0    0 -0.42547588151E+02 -0.46920687997E+02 -0.98651539803E+02  0.14630469955E+03  0.87527656123E+02 0.  0.
        -13    1    3    3    0    0  0.85024984792E+01  0.10289288185E+03  0.61373643656E+02  0.12010812525E+03  0.00000000000E+00 0.  1.
         14    1    3    3    0    0  0.55014561754E+02  0.44404811422E+02  0.44453039141E+01  0.70838901808E+02  0.00000000000E+00 0. -1.
        -13    1    4    4    0    0 -0.20358995486E+02  0.50566081785E+01 -0.85825915128E+02  0.88352394936E+02  0.00000000000E+00 0.  1.
         13    1    4    4    0    0 -0.22188592665E+02 -0.51977296176E+02 -0.12825624676E+02  0.57952304618E+02  0.00000000000E+00 0. -1.
         -4    1    1    2    0  502 -0.20969472082E+02 -0.10037700528E+03  0.42931122712E+02  0.11116808555E+03  0.00000000000E+00 0.  1.
<scales pt_clust_5="13000.00000" pt_clust_6="13000.00000" pt_clust_7="13000.00000" pt_clust_8="13000.00000" pt_clust_9="102.54400"></scales>
<clustering>
<clus scale="   79.985">  5  6 -1 -1</clus>
<clus scale="   87.528">  7  8 -1 -1</clus>
<clus scale="  102.544">  2  9  1 -1</clus>
<clus scale="  149.773">  1  5  2 -1</clus>
<clus scale="  102.544">  2  5  1 -1</clus>
</clustering>
</event>
<event>
 9    2  0.6469128E-005  0.4759239E+03  0.7546771E-02  0.1020406E+00
         21   -1    0    0  501  502  0.00000000000E+00  0.00000000000E+00  0.47255626561E+03  0.47255626561E+03  0.00000000000E+00 0. -1.
          2   -1    0    0  502    0 -0.00000000000E+00 -0.00000000000E+00 -0.76402796584E+03  0.76402796584E+03  0.00000000000E+00 0. -1.
         23    2    1    2    0    0 -0.19732589422E+03  0.46781068632E+03 -0.45347537177E+03  0.68662930674E+03  0.89641203187E+02 0.  0.
         24    2    1    2    0    0  0.17967872803E+03 -0.33850108047E+03  0.91546458948E+02  0.40164236474E+03  0.77899988573E+02 0.  0.
        -13    1    4    4    0    0  0.40713643116E+02 -0.24378528688E+02  0.14484110768E+02  0.49615550602E+02  0.00000000000E+00 0.  1.
         14    1    4    4    0    0  0.13896508491E+03 -0.31412255178E+03  0.77062348180E+02  0.35202681414E+03  0.00000000000E+00 0. -1.
        -13    1    3    3    0    0 -0.39672830845E+01  0.99049235390E+02 -0.91641155043E+02  0.13499848764E+03  0.00000000000E+00 0.  1.
         13    1    3    3    0    0 -0.19335861113E+03  0.36876145093E+03 -0.36183421673E+03  0.55163081910E+03  0.00000000000E+00 0. -1.
          1    1    1    2  501    0  0.17647166188E+02 -0.12930960585E+03  0.70457212601E+02  0.14831255997E+03  0.00000000000E+00 0. -1.
<scales pt_clust_5="13000.00000" pt_clust_6="13000.00000" pt_clust_7="13000.00000" pt_clust_8="13000.00000" pt_clust_9="130.50822"></scales>
<clustering>
<clus scale="   77.900">  5  6 -1 -1</clus>
<clus scale="   89.641">  7  8 -1 -1</clus>
<clus scale="  130.508">  1  9  2 -1</clus>
<clus scale="  473.853">  1  5  2 -1</clus>
<clus scale="  130.508">  1  5  2 -1</clus>
</clustering>
</event>
<event>
 9    2  0.6469128E-005  0.8798037E+02  0.7546771E-02  0.1311977E+00
          2   -1    0    0  502    0 -0.00000000000E+00  0.00000000000E+00  0.33679660044E+02  0.33679660044E+02  0.00000000000E+00 0. -1.
         21   -1    0    0  501  502  0.00000000000E+00 -0.00000000000E+00 -0.29072557642E+03  0.29072557642E+03  0.00000000000E+00 0.  1.
         23    2    1    2    0    0  0.23286277689E+01  0.15678544736E+02 -0.80391964779E+02  0.11994989927E+03  0.87600633912E+02 0.  0.
         24    2    1    2    0    0 -0.52311599722E+01  0.41600323405E+01 -0.12661379303E+03  0.15054790447E+03  0.81172335501E+02 0.  0.
        -13    1    4    4    0    0  0.27812181174E+02  0.21234417099E+02 -0.96638565557E+02  0.10277854953E+03  0.00000000000E+00 0.  1.
         14    1    4    4    0    0 -0.33043341146E+02 -0.17074384759E+02 -0.29975227476E+02  0.47769354938E+02  0.00000000000E+00 0. -1.
        -13    1    3    3    0    0  0.70765557708E+01 -0.25747955335E+02 -0.72831535451E+02  0.77572336575E+02  0.00000000000E+00 0.  1.
         13    1    3    3    0    0 -0.47479280019E+01  0.41426500071E+02 -0.75604293281E+01  0.42377562696E+02  0.00000000000E+00 0. -1.
          1    1    1    2  501    0  0.29025322033E+01 -0.19838577076E+02 -0.50040158562E+02  0.53907432721E+02  0.00000000000E+00 0. -1.
<scales pt_clust_5="13000.00000" pt_clust_6="13000.00000" pt_clust_7="13000.00000" pt_clust_8="13000.00000" pt_clust_9="20.04978"></scales>
<clustering>
<clus scale="   20.050">  2  9  1 -1</clus>
<clus scale="   81.172">  5  6 -1 -1</clus>
<clus scale="   81.582">  2  5  1 -1</clus>
<clus scale="   87.601">  7  8 -1 -1</clus>
<clus scale="   20.050">  2  5  1 -1</clus>
</clustering>
</event>
<event>
 9    2  0.6469128E-005  0.2518766E+03  0.7546771E-02  0.1158268E+00
          2   -1    0    0  502    0 -0.00000000000E+00  0.00000000000E+00  0.56761328747E+03  0.56761328747E+03  0.00000000000E+00 0. -1.
         21   -1    0    0  501  502  0.00000000000E+00 -0.00000000000E+00 -0.14541638545E+03  0.14541638545E+03  0.00000000000E+00 0. -1.
         24    2    1    2    0    0 -0.18968164978E+02 -0.11738591557E+02  0.54583057174E+02  0.98441399459E+02  0.78827743737E+02 0.  0.
         23    2    1    2    0    0  0.19222622909E+03  0.15634767210E+03  0.23035322977E+03  0.35044698664E+03  0.91405482636E+02 0.  0.
        -13    1    3    3    0    0  0.15270408574E+02 -0.35911090511E+02  0.18722500026E+02  0.43281910851E+02  0.00000000000E+00 0.  1.
         14    1    3    3    0    0 -0.34238573552E+02  0.24172498954E+02  0.35860557149E+02  0.55159488609E+02  0.00000000000E+00 0. -1.
        -13    1    4    4    0    0  0.30600973005E+02  0.14624414283E+02 -0.19169054877E+01  0.33970098155E+02  0.00000000000E+00 0.  1.
         13    1    4    4    0    0  0.16162525608E+03  0.14172325782E+03  0.23227013525E+03  0.31647688848E+03  0.00000000000E+00 0. -1.
          1    1    1    2  501    0 -0.17325806411E+03 -0.14460908055E+03  0.13726061508E+03  0.26414128683E+03  0.00000000000E+00 0. -1.
<scales pt_clust_5="13000.00000" pt_clust_6="13000.00000" pt_clust_7="13000.00000" pt_clust_8="13000.00000" pt_clust_9="234.70585"></scales>
<clustering>
<clus scale="   78.828">  5  6 -1 -1</clus>
<clus scale="   81.923">  1  5  2 -1</clus>
<clus scale="   91.405">  7  8 -1 -1</clus>
<clus scale="  234.706">  2  9  1 -1</clus>
<clus scale="  234.706">  2  5  1 -1</clus>
</clustering>
</event>
<event>
 9    2  0.6469128E-005  0.1035327E+03  0.7546771E-02  0.1277340E+00
         21   -1    0    0  501  502  0.00000000000E+00  0.00000000000E+00  0.34661427484E+02  0.34661427484E+02  0.00000000000E+00 0. -1.
          2   -1    0    0  502    0 -0.00000000000E+00 -0.00000000000E+00 -0.73328355494E+03  0.73328355494E+03  0.00000000000E+00 0. -1.
         24    2    1    2    0    0  0.49133572710E+02  0.32084168604E+00 -0.32758588509E+03  0.34138763069E+03  0.82575973335E+02 0.  0.
         23    2    1    2    0    0 -0.26546430332E+02  0.77786351246E+02 -0.17270573816E+03  0.21220740075E+03  0.91919962663E+02 0.  0.
        -13    1    3    3    0    0 -0.19301055063E+02 -0.15195206897E+02 -0.62028466008E+02  0.66715482720E+02  0.00000000000E+00 0.  1.
         14    1    3    3    0    0  0.68434627772E+02  0.15516048583E+02 -0.26555741908E+03  0.27467214797E+03  0.00000000000E+00 0. -1.
        -11    1    4    4    0    0 -0.29870016434E+02  0.51076182194E+02 -0.28799880986E+02  0.65805983118E+02  0.00000000000E+00 0. -1.
         11    1    4    4    0    0  0.33235861019E+01  0.26710169052E+02 -0.14390585718E+03  0.14640141763E+03  0.00000000000E+00 0.  1.
          1    1    1    2  501    0 -0.22587142378E+02 -0.78107192932E+02 -0.19833050420E+03  0.21434995098E+03  0.00000000000E+00 0. -1.
<scales pt_clust_5="13000.00000" pt_clust_6="13000.00000" pt_clust_7="13000.00000" pt_clust_8="13000.00000" pt_clust_9="81.30756"></scales>
<clustering>
<clus scale="   81.308">  1  9  2 -1</clus>
<clus scale="   82.576">  5  6 -1 -1</clus>
<clus scale="   91.920">  7  8 -1 -1</clus>
<clus scale="   95.334">  2  5  1 -1</clus>
<clus scale="   81.308">  1  5  2 -1</clus>
</clustering>
</event>
<event>
 9    2  0.6469128E-005  0.9513276E+02  0.7546771E-02  0.1298693E+00
         21   -1    0    0  501  502  0.00000000000E+00  0.00000000000E+00  0.26183689593E+03  0.26183689593E+03  0.00000000000E+00 0. -1.
         -1   -1    0    0    0  501 -0.00000000000E+00 -0.00000000000E+00 -0.51069251545E+02  0.51069251545E+02  0.00000000000E+00 0.  1.
         24    2    1    2    0    0 -0.22412847316E+02 -0.23117900685E+01  0.29670003095E+02  0.85404056482E+02  0.76849617317E+02 0.  0.
         23    2    1    2    0    0  0.43145664155E+02 -0.16191869920E+01  0.92452315336E+02  0.13637966736E+03  0.90486534672E+02 0.  0.
        -11    1    3    3    0    0 -0.29660694561E+02  0.10276815158E+02 -0.17575481190E+02  0.35975926266E+02  0.00000000000E+00 0.  1.
         12    1    3    3    0    0  0.72478472449E+01 -0.12588605227E+02  0.47245484285E+02  0.49428130216E+02  0.00000000000E+00 0. -1.
        -11    1    4    4    0    0 -0.27503144251E+02  0.51094107216E+01  0.36616478364E+02  0.46079230782E+02  0.00000000000E+00 0.  1.
         11    1    4    4    0    0  0.70648808406E+02 -0.67285977136E+01  0.55835836971E+02  0.90300436581E+02  0.00000000000E+00 0. -1.
         -2    1    1    2    0  502 -0.20732816838E+02  0.39309770606E+01  0.88645325954E+02  0.91122423630E+02  0.00000000000E+00 0.  1.
<scales pt_clust_5="13000.00000" pt_clust_6="13000.00000" pt_clust_7="13000.00000" pt_clust_8="13000.00000" pt_clust_9="21.10219"></scales>
<clustering>
<clus scale="   21.102">  1  9  2 -1</clus>
<clus scale="   76.850">  5  6 -1 -1</clus>
<clus scale="   82.270">  2  5  1 -1</clus>
<clus scale="   90.487">  7  8 -1 -1</clus>
<clus scale="   21.102">  1  5  2 -1</clus>
</clustering>
</event>
<event>
 9    2  0.6469128E-005  0.2381209E+03  0.7546771E-02  0.1162194E+00
          2   -1    0    0  502    0 -0.00000000000E+00  0.00000000000E+00  0.11241503090E+04  0.11241503090E+04  0.00000000000E+00 0. -1.
         21   -1    0    0  501  502  0.00000000000E+00 -0.00000000000E+00 -0.68154301415E+02  0.68154301415E+02  0.00000000000E+00 0. -1.
         24    2    1    2    0    0 -0.29840177620E+02 -0.15829168665E+02  0.23032572253E+03  0.24674075809E+03  0.81792814237E+02 0.  0.
         23    2    1    2    0    0  0.21058658030E+03  0.11239245658E+03  0.46732696338E+03  0.53276406206E+03  0.92001538119E+02 0.  0.
        -13    1    3    3    0    0  0.19154380972E+02 -0.23642604670E+02  0.41215410401E+02  0.51230587743E+02  0.00000000000E+00 0.  1.
         14    1    3    3    0    0 -0.48994558593E+02  0.78134360049E+01  0.18911031213E+03  0.19551017034E+03  0.00000000000E+00 0. -1.
        -11    1    4    4    0    0  0.16846852063E+03  0.10062624990E+03  0.43844833212E+03  0.48035843341E+03  0.00000000000E+00 0. -1.
         11    1    4    4    0    0  0.42118059673E+02  0.11766206678E+02  0.28878631268E+02  0.52405628649E+02  0.00000000000E+00 0.  1.
          1    1    1    2  501    0 -0.18074640268E+03 -0.96563287917E+02  0.35834332163E+03  0.41279979022E+03  0.00000000000E+00 0. -1.
<scales pt_clust_5="13000.00000" pt_clust_6="13000.00000" pt_clust_7="13000.00000" pt_clust_8="13000.00000" pt_clust_9="219.62990"></scales>
<clustering>
<clus scale="   81.793">  5  6 -1 -1</clus>
<clus scale="   88.493">  1  5  2 -1</clus>
<clus scale="   92.002">  7  8 -1 -1</clus>
<clus scale="  219.630">  2  9  1 -1</clus>
<clus scale="  219.630">  2  5  1 -1</clus>
</clustering>
</event>
<event>
 9    2  0.6469128E-005  0.9765580E+02  0.7546771E-02  0.1290777E+00
          2   -1    0    0  502    0 -0.00000000000E+00  0.00000000000E+00  0.44550404714E+03  0.44550404714E+03  0.00000000000E+00 0. -1.
         21   -1    0    0  501  502  0.00000000000E+00 -0.00000000000E+00 -0.10360716785E+03  0.10360716785E+03  0.00000000000E+00 0. -1.
         24    2    1    2    0    0 -0.13912425949E+01  0.22827995004E+02  0.26200895188E+03  0.27583035681E+03  0.83130271036E+02 0.  0.
         23    2    1    2    0    0  0.40222414788E+02 -0.34727311437E+02  0.15464273780E+03  0.18820597739E+03  0.93184144365E+02 0.  0.
        -11    1    3    3    0    0  0.35083134773E+02  0.23944101686E+02  0.84100886421E+02  0.94218392301E+02  0.00000000000E+00 0.  1.
         12    1    3    3    0    0 -0.36474377368E+02 -0.11161066820E+01  0.17790806546E+03  0.18161196451E+03  0.00000000000E+00 0. -1.
        -11    1    4    4    0    0 -0.30692534439E+01 -0.44789696959E+02  0.12967688910E+03  0.13722839661E+03  0.00000000000E+00 0. -1.
         11    1    4    4    0    0  0.43291668232E+02  0.10062385522E+02  0.24965848697E+02  0.50977580777E+02  0.00000000000E+00 0.  1.
          1    1    1    2  501    0 -0.38831172193E+02  0.11899316433E+02 -0.74754810390E+02  0.85074880792E+02  0.00000000000E+00 0. -1.
<scales pt_clust_5="13000.00000" pt_clust_6="13000.00000" pt_clust_7="13000.00000" pt_clust_8="13000.00000" pt_clust_9="40.61347"></scales>
<clustering>
<clus scale="   40.613">  2  9  1 -1</clus>
<clus scale="   83.130">  5  6 -1 -1</clus>
<clus scale="   88.114">  1  5  2 -1</clus>
<clus scale="   93.184">  7  8 -1 -1</clus>
<clus scale="   40.613">  2  5  1 -1</clus>
</clustering>
</event>
<event>
 9    2  0.6469128E-005  0.9470157E+02  0.7546771E-02  0.1295069E+00
         -1   -1    0    0    0  501 -0.00000000000E+00  0.00000000000E+00  0.57101180029E+02  0.57101180029E+02  0.00000000000E+00 0.  1.
         21   -1    0    0  501  502  0.00000000000E+00 -0.00000000000E+00 -0.42415426808E+03  0.42415426808E+03  0.00000000000E+00 0. -1.
         24    2    1    2    0    0 -0.26343742694E+01 -0.41597272146E+02 -0.17965139565E+02  0.92230795873E+02  0.80290102068E+02 0.  0.
         23    2    1    2    0    0 -0.58278716416E+02  0.21269439098E+02 -0.23871331004E+03  0.26132897406E+03  0.86371236327E+02 0.  0.
        -11    1    3    3    0    0 -0.33321321002E+02 -0.28813295430E+02  0.13889491944E+02  0.46189115745E+02  0.00000000000E+00 0.  1.
         12    1    3    3    0    0  0.30686946733E+02 -0.12783976716E+02 -0.31854631509E+02  0.46041680128E+02  0.00000000000E+00 0. -1.
        -11    1    4    4    0    0 -0.50185690677E+02 -0.91813327619E+01 -0.21735947607E+03  0.22326675135E+03  0.00000000000E+00 0. -1.
         11    1    4    4    0    0 -0.80930257384E+01  0.30450771860E+02 -0.21353833975E+02  0.38062222713E+02  0.00000000000E+00 0.  1.
         -2    1    1    2    0  502  0.60913090685E+02  0.20327833048E+02 -0.11037463844E+03  0.12769567817E+03  0.00000000000E+00 0.  1.
<scales pt_clust_5="13000.00000" pt_clust_6="13000.00000" pt_clust_7="13000.00000" pt_clust_8="13000.00000" pt_clust_9="64.21546"></scales>
<clustering>
<clus scale="   64.215">  2  9  1 -1</clus>
<clus scale="   80.290">  5  6 -1 -1</clus>
<clus scale="   86.371">  7  8 -1 -1</clus>
<clus scale="   89.190">  1  5  2 -1</clus>
<clus scale="   64.215">  2  5  1 -1</clus>
</clustering>
</event>
<event>
 9    2  0.6469128E-005  0.9581511E+02  0.7546771E-02  0.1295113E+00
          2   -1    0    0  502    0 -0.00000000000E+00  0.00000000000E+00  0.35915018630E+03  0.35915018630E+03  0.00000000000E+00 0. -1.
         21   -1    0    0  501  502  0.00000000000E+00 -0.00000000000E+00 -0.50274085311E+02  0.50274085311E+02  0.00000000000E+00 0. -1.
         24    2    1    2    0    0  0.39353462570E+02 -0.83821058641E+01  0.85930509438E+02  0.12489150720E+03  0.81208875148E+02 0.  0.
         23    2    1    2    0    0 -0.72662784259E+00  0.26861499103E+02  0.52637093245E+02  0.10892380983E+03  0.91496801256E+02 0.  0.
        -11    1    3    3    0    0 -0.22264313078E+02 -0.15375635264E+02  0.16037438568E+02  0.31453286512E+02  0.00000000000E+00 0.  1.
         12    1    3    3    0    0  0.61617775647E+02  0.69935294003E+01  0.69893070870E+02  0.93438220686E+02  0.00000000000E+00 0. -1.
        -11    1    4    4    0    0 -0.21567777793E+02  0.34370424079E+02 -0.10583384608E+02  0.41934509894E+02  0.00000000000E+00 0. -1.
         11    1    4    4    0    0  0.20841149950E+02 -0.75089249760E+01  0.63220477853E+02  0.66989299933E+02  0.00000000000E+00 0.  1.
          1    1    1    2  501    0 -0.38626834727E+02 -0.18479393239E+02  0.17030849830E+03  0.17560895458E+03  0.00000000000E+00 0. -1.
<scales pt_clust_5="13000.00000" pt_clust_6="13000.00000" pt_clust_7="13000.00000" pt_clust_8="13000.00000" pt_clust_9="42.81965"></scales>
<clustering>
<clus scale="   42.820">  2  9  1 -1</clus>
<clus scale="   81.209">  5  6 -1 -1</clus>
<clus scale="   86.045">  1  5  2 -1</clus>
<clus scale="   91.497">  7  8 -1 -1</clus>
<clus scale="   42.820">  2  5  1 -1</clus>
</clustering>
</event>
<event>
 9    2  0.6469128E-005  0.1265409E+03  0.7546771E-02  0.1235486E+00
          2   -1    0    0  502    0 -0.00000000000E+00  0.00000000000E+00  0.27799040175E+02  0.27799040175E+02  0.00000000000E+00 0. -1.
         21   -1    0    0  501  502  0.00000000000E+00 -0.00000000000E+00 -0.11067141275E+04  0.11067141275E+04  0.00000000000E+00 0. -1.
         24    2    1    2    0    0  0.46449813674E+02  0.11007192350E+03 -0.27256212908E+03  0.30830145709E+03  0.80537324912E+02 0.  0.
         23    2    1    2    0    0 -0.25221407405E+02 -0.32443014583E+02 -0.44352978135E+03  0.45457001429E+03  0.90700398893E+02 0.  0.
        -11    1    3    3    0    0  0.58367231648E+02  0.52464684341E+02 -0.20027092904E+03  0.21509933020E+03  0.00000000000E+00 0.  1.
         12    1    3    3    0    0 -0.11917417974E+02  0.57607239156E+02 -0.72291200039E+02  0.93202126893E+02  0.00000000000E+00 0. -1.
        -13    1    4    4    0    0  0.12702647918E+02 -0.53963361803E+02 -0.22467325436E+03  0.23141191176E+03  0.00000000000E+00 0.  1.
         13    1    4    4    0    0 -0.37924055323E+02  0.21520347220E+02 -0.21885652699E+03  0.22315810253E+03  0.00000000000E+00 0. -1.
          1    1    1    2  501    0 -0.21228406269E+02 -0.77628908914E+02 -0.36282317687E+03  0.37164169627E+03  0.00000000000E+00 0. -1.
<scales pt_clust_5="13000.00000" pt_clust_6="13000.00000" pt_clust_7="13000.00000" pt_clust_8="13000.00000" pt_clust_9="80.47914"></scales>
<clustering>
<clus scale="   80.479">  2  9  1 -1</clus>
<clus scale="   80.537">  5  6 -1 -1</clus>
<clus scale="   90.700">  7  8 -1 -1</clus>
<clus scale="  119.467">  1  5  2 -1</clus>
<clus scale="   80.479">  2  5  1 -1</clus>
</clustering>
</event>
<event>
 9    2  0.6469128E-005  0.2249530E+03  0.7546771E-02  0.1130925E+00
          2   -1    0    0  502    0 -0.00000000000E+00  0.00000000000E+00  0.16692542060E+04  0.16692542060E+04  0.00000000000E+00 0. -1.
         21   -1    0    0  501  502  0.00000000000E+00 -0.00000000000E+00 -0.69466344001E+02  0.69466344001E+02  0.00000000000E+00 0. -1.
         24    2    1    2    0    0 -0.19438369262E+03 -0.34093937528E+02  0.42810479380E+03  0.47824702652E+03  0.80616917410E+02 0.  0.
         23    2    1    2    0    0  0.22459000363E+03 -0.72618029344E+02  0.35208886342E+03  0.43340972569E+03  0.90351395484E+02 0.  0.
        -13    1    3    3    0    0 -0.15307600012E+02  0.17202165099E+02  0.82309625744E+02  0.85469945550E+02  0.00000000000E+00 0.  1.
         14    1    3    3    0    0 -0.17907609260E+03 -0.51296102627E+02  0.34579516805E+03  0.39277708097E+03  0.00000000000E+00 0. -1.
        -11    1    4    4    0    0  0.46538139345E+02 -0.32238786096E+02  0.32317154730E+02  0.65188467021E+02  0.00000000000E+00 0.  1.
         11    1    4    4    0    0  0.17805186428E+03 -0.40379243248E+02  0.31977170869E+03  0.36822125867E+03  0.00000000000E+00 0. -1.
          1    1    1    2  501    0 -0.30206311009E+02  0.10671196687E+03  0.81959420475E+03  0.82706379776E+03  0.00000000000E+00 0. -1.
<scales pt_clust_5="13000.00000" pt_clust_6="13000.00000" pt_clust_7="13000.00000" pt_clust_8="13000.00000" pt_clust_9="110.90481"></scales>
<clustering>
<clus scale="   80.617">  5  6 -1 -1</clus>
<clus scale="   90.351">  7  8 -1 -1</clus>
<clus scale="  110.905">  2  9  1 -1</clus>
<clus scale="  221.223">  1  5  2 -1</clus>
<clus scale="  110.905">  2  5  1 -1</clus>
</clustering>
</event>
<event>
 9    2  0.6469128E-005  0.9571802E+02  0.7546771E-02  0.1292668E+00
         -1   -1    0    0    0  501 -0.00000000000E+00  0.00000000000E+00  0.89566679953E+03  0.89566679953E+03  0.00000000000E+00 0.  1.
         21   -1    0    0  501  502  0.00000000000E+00 -0.00000000000E+00 -0.13113631215E+02  0.13113631215E+02  0.00000000000E+00 0.  1.
         24    2    1    2    0    0  0.37807362014E+02  0.19680757566E+02  0.48019565436E+03  0.48921035851E+03  0.83199636819E+02 0.  0.
         23    2    1    2    0    0 -0.13562485944E+02 -0.21716546618E+02  0.28356371459E+03  0.29831032945E+03  0.89023159920E+02 0.  0.
        -11    1    3    3    0    0  0.23337142168E+02  0.52351687140E+02  0.31814582671E+03  0.32326782767E+03  0.00000000000E+00 0.  1.
         12    1    3    3    0    0  0.14470219846E+02 -0.32670929574E+02  0.16204982764E+03  0.16594253084E+03  0.00000000000E+00 0. -1.
        -13    1    4    4    0    0  0.25922875864E+02 -0.31006694847E+02  0.69159704268E+02  0.80102904522E+02  0.00000000000E+00 0.  1.
         13    1    4    4    0    0 -0.39485361808E+02  0.92901482296E+01  0.21440401032E+03  0.21820742493E+03  0.00000000000E+00 0. -1.
         -2    1    1    2    0  502 -0.24244876070E+02  0.20357890516E+01  0.11879379937E+03  0.12125974279E+03  0.00000000000E+00 0.  1.
<scales pt_clust_5="13000.00000" pt_clust_6="13000.00000" pt_clust_7="13000.00000" pt_clust_8="13000.00000" pt_clust_9="24.33021"></scales>
<clustering>
<clus scale="   24.330">  2  9  1 -1</clus>
<clus scale="   83.200">  5  6 -1 -1</clus>
<clus scale="   89.023">  7  8 -1 -1</clus>
<clus scale="   90.327">  1  5  2 -1</clus>
<clus scale="   24.330">  2  5  1 -1</clus>
</clustering>
</event>
<event>
 9    2  0.6469128E-005  0.2952748E+03  0.7546771E-02  0.1088109E+00
          4   -1    0    0  502    0 -0.00000000000E+00  0.00000000000E+00  0.17505377353E+03  0.17505377353E+03  0.00000000000E+00 0. -1.
         21   -1    0    0  501  502  0.00000000000E+00 -0.00000000000E+00 -0.10750611668E+04  0.10750611668E+04  0.00000000000E+00 0. -1.
         23    2    1    2    0    0 -0.27584474866E+03  0.58901284499E+02 -0.12290865622E+02  0.29715490756E+03  0.92683801351E+02 0.  0.
         24    2    1    2    0    0  0.25618816122E+03 -0.10295508220E+03 -0.65497166195E+03  0.71526844471E+03  0.79930889791E+02 0.  0.
        -13    1    4    4    0    0  0.18987386053E+03 -0.62258128843E+02 -0.54563833120E+03  0.58107602428E+03  0.00000000000E+00 0.  1.
         14    1    4    4    0    0  0.66314300683E+02 -0.40696953356E+02 -0.10933333075E+03  0.13419242043E+03  0.00000000000E+00 0. -1.
        -11    1    3    3    0    0 -0.87548858996E+02 -0.75481767398E+01 -0.38174300156E+02  0.95807384246E+02  0.00000000000E+00 0.  1.
         11    1    3    3    0    0 -0.18829588966E+03  0.66449461239E+02  0.25883434534E+02  0.20134752332E+03  0.00000000000E+00 0. -1.
          3    1    1    2  501    0  0.19656587443E+02  0.44053797700E+02 -0.23274486573E+03  0.23769158809E+03  0.00000000000E+00 0. -1.
<scales pt_clust_5="13000.00000" pt_clust_6="13000.00000" pt_clust_7="13000.00000" pt_clust_8="13000.00000" pt_clust_9="48.24022"></scales>
<clustering>
<clus scale="   48.240">  2  9  1 -1</clus>
<clus scale="   79.931">  5  6 -1 -1</clus>
<clus scale="   92.684">  7  8 -1 -1</clus>
<clus scale="  291.523">  2  5  1 -1</clus>
<clus scale="   48.240">  2  5  1 -1</clus>
</clustering>
</event>
<event>
 9    2  0.6469128E-005  0.1963486E+03  0.7546771E-02  0.1153834E+00
         -1   -1    0    0    0  501 -0.00000000000E+00  0.00000000000E+00  0.11153812670E+04  0.11153812670E+04  0.00000000000E+00 0.  1.
         21   -1    0    0  501  502  0.00000000000E+00 -0.00000000000E+00 -0.10364440672E+03  0.10364440672E+03  0.00000000000E+00 0.  1.
         23    2    1    2    0    0  0.16276113497E+03  0.47197496122E+02  0.85086831839E+03  0.87216660357E+03  0.89324679896E+02 0.  0.
         24    2    1    2    0    0 -0.18591373759E+03 -0.69802221538E+02  0.20230093878E+03  0.29428854492E+03  0.79017782075E+02 0.  0.
        -11    1    4    4    0    0 -0.77817996318E+02 -0.36937475243E+02  0.14235757882E+03  0.16639019765E+03  0.00000000000E+00 0.  1.
         12    1    4    4    0    0 -0.10809574128E+03 -0.32864746295E+02  0.59943359965E+02  0.12789834727E+03  0.00000000000E+00 0. -1.
        -11    1    3    3    0    0  0.10035185107E+03  0.72881295254E+02  0.56084140874E+03  0.57439121073E+03  0.00000000000E+00 0.  1.
         11    1    3    3    0    0  0.62409283906E+02 -0.25683799132E+02  0.29002690965E+03  0.29777539283E+03  0.00000000000E+00 0. -1.
         -2    1    1    2    0  502  0.23152602621E+02  0.22604725416E+02 -0.41432396841E+02  0.52570525271E+02  0.00000000000E+00 0.  1.
<scales pt_clust_5="13000.00000" pt_clust_6="13000.00000" pt_clust_7="13000.00000" pt_clust_8="13000.00000" pt_clust_9="32.35764"></scales>
<clustering>
<clus scale="   32.358">  2  9  1 -1</clus>
<clus scale="   79.018">  5  6 -1 -1</clus>
<clus scale="   89.325">  7  8 -1 -1</clus>
<clus scale="  191.879">  2  5  1 -1</clus>
<clus scale="   32.358">  2  5  1 -1</clus>
</clustering>
</event>
<event>
 9    2  0.6469128E-005  0.9711881E+02  0.7546771E-02  0.1292208E+00
         21   -1    0    0  501  502  0.00000000000E+00  0.00000000000E+00  0.12954952993E+03  0.12954952993E+03  0.00000000000E+00 0.  1.
          2   -1    0    0  502    0 -0.00000000000E+00 -0.00000000000E+00 -0.18979556160E+03  0.18979556160E+03  0.00000000000E+00 0. -1.
         23    2    1    2    0    0 -0.40905038333E+02 -0.94467078621E+01 -0.91616009236E+02  0.13552606607E+03  0.90616549176E+02 0.  0.
         24    2    1    2    0    0  0.10096393655E+02 -0.40993722580E+02  0.69036225535E+02  0.11373225177E+03  0.79916219892E+02 0.  0.
        -11    1    4    4    0    0 -0.27396765028E+02 -0.32472225274E+02  0.61185553803E+02  0.74489597545E+02  0.00000000000E+00 0.  1.
         12    1    4    4    0    0  0.37493158683E+02 -0.85214973068E+01  0.78506717320E+01  0.39242654230E+02  0.00000000000E+00 0. -1.
        -11    1    3    3    0    0 -0.28635858982E+02  0.23222022739E+02 -0.93573296610E+02  0.10057453255E+03  0.00000000000E+00 0. -1.
         11    1    3    3    0    0 -0.12269179351E+02 -0.32668730601E+02  0.19572873742E+01  0.34951533513E+02  0.00000000000E+00 0.  1.
          1    1    1    2  501    0  0.30808644678E+02  0.50440430443E+02 -0.37666247964E+02  0.70086773687E+02  0.00000000000E+00 0. -1.
<scales pt_clust_5="13000.00000" pt_clust_6="13000.00000" pt_clust_7="13000.00000" pt_clust_8="13000.00000" pt_clust_9="59.10510"></scales>
<clustering>
<clus scale="   59.105">  1  9  2 -1</clus>
<clus scale="   79.916">  5  6 -1 -1</clus>
<clus scale="   87.220">  1  5  2 -1</clus>
<clus scale="   90.617">  7  8 -1 -1</clus>
<clus scale="   59.105">  1  5  2 -1</clus>
</clustering>
</event>
<event>
 9    2  0.6469128E-005  0.1420060E+03  0.7546771E-02  0.1213313E+00
          2   -1    0    0  502    0 -0.00000000000E+00  0.00000000000E+00  0.10472863421E+04  0.10472863421E+04  0.00000000000E+00 0. -1.
         21   -1    0    0  501  502  0.00000000000E+00 -0.00000000000E+00 -0.92925478167E+02  0.92925478167E+02  0.00000000000E+00 0. -1.
         24    2    1    2    0    0  0.11006233362E+03 -0.17482337212E+02  0.88791542426E+03  0.89848683369E+03  0.80407961494E+02 0.  0.
         23    2    1    2    0    0 -0.47739584175E+02  0.87280543664E+02  0.20992119580E+02  0.13769653362E+03  0.92858521889E+02 0.  0.
        -13    1    3    3    0    0 -0.37958199738E+00 -0.23740458564E+02  0.96505170213E+02  0.99383103861E+02  0.00000000000E+00 0.  1.
         14    1    3    3    0    0  0.11044191562E+03  0.62581213523E+01  0.79141025405E+03  0.79910372983E+03  0.00000000000E+00 0. -1.
        -11    1    4    4    0    0 -0.44110280735E+02 -0.34854004812E+01 -0.90143337999E+00  0.44256948213E+02  0.00000000000E+00 0.  1.
         11    1    4    4    0    0 -0.36293034404E+01  0.90765944146E+02  0.21893552960E+02  0.93439585409E+02  0.00000000000E+00 0. -1.
          1    1    1    2  501    0 -0.62322749443E+02 -0.69798206452E+02  0.45453320131E+02  0.10402845300E+03  0.00000000000E+00 0. -1.
<scales pt_clust_5="13000.00000" pt_clust_6="13000.00000" pt_clust_7="13000.00000" pt_clust_8="13000.00000" pt_clust_9="93.57304"></scales>
<clustering>
<clus scale="   80.408">  5  6 -1 -1</clus>
<clus scale="   92.859">  7  8 -1 -1</clus>
<clus scale="   93.573">  2  9  1 -1</clus>
<clus scale="  134.195">  1  5  2 -1</clus>
<clus scale="   93.573">  2  5  1 -1</clus>
</clustering>
</event>
<event>
 9    2  0.6469128E-005  0.3336656E+03  0.7546771E-02  0.1111686E+00
          2   -1    0    0  502    0 -0.00000000000E+00  0.00000000000E+00  0.10813721737E+04  0.10813721737E+04  0.00000000000E+00 0. -1.
         21   -1    0    0  501  502  0.00000000000E+00 -0.00000000000E+00 -0.14442154797E+03  0.14442154797E+03  0.00000000000E+00 0. -1.
         24    2    1    2    0    0 -0.63409716986E+02  0.37975712776E+02  0.58411605166E+02  0.12415848584E+03  0.80873153889E+02 0.  0.
         23    2    1    2    0    0  0.26227337492E+03  0.20615484025E+03  0.51880035923E+03  0.62355743271E+03  0.91558275428E+02 0.  0.
        -11    1    3    3    0    0 -0.26197656310E+02 -0.11583949430E+02  0.55093104643E+02  0.62094728116E+02  0.00000000000E+00 0.  1.
         12    1    3    3    0    0 -0.37212060675E+02  0.49559662205E+02  0.33185005226E+01  0.62063757728E+02  0.00000000000E+00 0. -1.
        -13    1    4    4    0    0  0.84327180387E+02  0.30939121722E+02  0.88854961800E+02  0.12634677218E+03  0.00000000000E+00 0.  1.
         13    1    4    4    0    0  0.17794619453E+03  0.17521571853E+03  0.42994539743E+03  0.49721066052E+03  0.00000000000E+00 0. -1.
          1    1    1    2  501    0 -0.19886365793E+03 -0.24413055303E+03  0.35973866133E+03  0.47807780311E+03  0.00000000000E+00 0. -1.
<scales pt_clust_5="13000.00000" pt_clust_6="13000.00000" pt_clust_7="13000.00000" pt_clust_8="13000.00000" pt_clust_9="320.85790"></scales>
<clustering>
<clus scale="   80.873">  5  6 -1 -1</clus>
<clus scale="   91.558">  7  8 -1 -1</clus>
<clus scale="  109.560">  1  5  2 -1</clus>
<clus scale="  320.858">  2  9  1 -1</clus>
<clus scale="  320.858">  2  5  1 -1</clus>
</clustering>
</event>
<event>
 9    2  0.6469128E-005  0.1339795E+03  0.7546771E-02  0.1224912E+00
          2   -1    0    0  502    0 -0.00000000000E+00  0.00000000000E+00  0.15519308607E+03  0.15519308607E+03  0.00000000000E+00 0. -1.
         21   -1    0    0  501  502  0.00000000000E+00 -0.00000000000E+00 -0.27042476550E+03  0.27042476550E+03  0.00000000000E+00 0. -1.
         24    2    1    2    0    0  0.76071004787E+02 -0.61396969693E+02  0.69649903736E+02  0.14365319983E+03  0.78922411735E+02 0.  0.
         23    2    1    2    0    0 -0.91211993700E+02  0.35293539865E+02 -0.20539911253E+03  0.24547345273E+03  0.92212574074E+02 0.  0.
        -11    1    3    3    0    0  0.92523984915E+01  0.18827400334E+02  0.15163928537E+02  0.25884794954E+02  0.00000000000E+00 0.  1.
         12    1    3    3    0    0  0.66818606296E+02 -0.80224370027E+02  0.54485975199E+02  0.11776840488E+03  0.00000000000E+00 0. -1.
        -13    1    4    4    0    0 -0.46109087492E+02 -0.21255026756E+02 -0.38964844770E+02  0.64000650307E+02  0.00000000000E+00 0.  1.
         13    1    4    4    0    0 -0.45102906208E+02  0.56548566622E+02 -0.16643426776E+03  0.18147280243E+03  0.00000000000E+00 0. -1.
          1    1    1    2  501    0  0.15140988912E+02  0.26103429828E+02  0.20517529369E+02  0.36491199013E+02  0.00000000000E+00 0. -1.
<scales pt_clust_5="13000.00000" pt_clust_6="13000.00000" pt_clust_7="13000.00000" pt_clust_8="13000.00000" pt_clust_9="30.17680"></scales>
<clustering>
<clus scale="   30.177">  2  9  1 -1</clus>
<clus scale="   78.922">  5  6 -1 -1</clus>
<clus scale="   92.213">  7  8 -1 -1</clus>
<clus scale="  125.204">  1  5  2 -1</clus>
<clus scale="   30.177">  2  5  1 -1</clus>
</clustering>
</event>
<event>
 9    2  0.6469128E-005  0.2411111E+03  0.7546771E-02  0.1120100E+00
          2   -1    0    0  502    0 -0.00000000000E+00  0.00000000000E+00  0.16713112080E+04  0.16713112080E+04  0.00000000000E+00 0. -1.
         21   -1    0    0  501  502  0.00000000000E+00 -0.00000000000E+00 -0.59799948254E+02  0.59799948254E+02  0.00000000000E+00 0. -1.
         23    2    1    2    0    0 -0.64300375509E+00 -0.22833092926E+03  0.12218139932E+04  0.12464932807E+04  0.93705059634E+02 0.  0.
         24    2    1    2    0    0  0.54275510112E+02  0.20007268605E+03  0.25802015843E+03  0.33965638117E+03  0.76270206566E+02 0.  0.
        -13    1    4    4    0    0 -0.19628947057E+02  0.39838860917E+02  0.53779327502E+02  0.69747017630E+02  0.00000000000E+00 0.  1.
         14    1    4    4    0    0  0.73904457170E+02  0.16023382513E+03  0.20424083093E+03  0.26990936353E+03  0.00000000000E+00 0. -1.
        -13    1    3    3    0    0 -0.47770550006E+01 -0.20356047013E+02  0.29434414486E+02  0.36105036499E+02  0.00000000000E+00 0.  1.
         13    1    3    3    0    0  0.41340512456E+01 -0.20797488225E+03  0.11923795787E+04  0.12103882442E+04  0.00000000000E+00 0. -1.
          1    1    1    2  501    0 -0.53632506357E+02  0.28258243217E+02  0.13167710816E+03  0.14496149441E+03  0.00000000000E+00 0. -1.
<scales pt_clust_5="13000.00000" pt_clust_6="13000.00000" pt_clust_7="13000.00000" pt_clust_8="13000.00000" pt_clust_9="60.62156"></scales>
<clustering>
<clus scale="   60.622">  2  9  1 -1</clus>
<clus scale="   76.270">  5  6 -1 -1</clus>
<clus scale="   93.705">  7  8 -1 -1</clus>
<clus scale="  234.885">  2  5  1 -1</clus>
<clus scale="   60.622">  2  5  1 -1</clus>
</clustering>
</event>
<event>
 9    2  0.6469128E-005  0.1190467E+03  0.7546771E-02  0.1248201E+00
          2   -1    0    0  502    0 -0.00000000000E+00  0.00000000000E+00  0.15880097718E+03  0.15880097718E+03  0.00000000000E+00 0. -1.
         21   -1    0    0  501  502  0.00000000000E+00 -0.00000000000E+00 -0.34992823798E+03  0.34992823798E+03  0.00000000000E+00 0. -1.
         24    2    1    2    0    0  0.66176482292E+02  0.25615407159E+02  0.81875745952E+02  0.13464414777E+03  0.79937055620E+02 0.  0.
         23    2    1    2    0    0 -0.11778653605E+03  0.23892131265E+02 -0.85145465133E+02  0.17307499314E+03  0.90888398633E+02 0.  0.
        -11    1    3    3    0    0  0.22175760966E+02  0.66662712607E+01 -0.14286786006E+02  0.27208744942E+02  0.00000000000E+00 0.  1.
         12    1    3    3    0    0  0.44000721326E+02  0.18949135898E+02  0.96162531957E+02  0.10743540283E+03  0.00000000000E+00 0. -1.
        -11    1    4    4    0    0 -0.11082046428E+02  0.36195572358E+02 -0.44024999577E+02  0.58061448476E+02  0.00000000000E+00 0. -1.
         11    1    4    4    0    0 -0.10670448962E+03 -0.12303441093E+02 -0.41120465556E+02  0.11501354466E+03  0.00000000000E+00 0.  1.
          1    1    1    2  501    0  0.51610053761E+02 -0.49507538424E+02 -0.18785754161E+03  0.20101007425E+03  0.00000000000E+00 0. -1.
<scales pt_clust_5="13000.00000" pt_clust_6="13000.00000" pt_clust_7="13000.00000" pt_clust_8="13000.00000" pt_clust_9="71.51639"></scales>
<clustering>
<clus scale="   71.516">  2  9  1 -1</clus>
<clus scale="   79.937">  5  6 -1 -1</clus>
<clus scale="   90.888">  7  8 -1 -1</clus>
<clus scale="  110.911">  1  5  2 -1</clus>
<clus scale="   71.516">  2  5  1 -1</clus>
</clustering>
</event>
<event>
 9    2  0.6469128E-005  0.1033757E+03  0.7546771E-02  0.1280913E+00
         21   -1    0    0  501  502  0.00000000000E+00  0.00000000000E+00  0.89921571695E+02  0.89921571695E+02  0.00000000000E+00 0. -1.
          2   -1    0    0  502    0 -0.00000000000E+00 -0.00000000000E+00 -0.38042871245E+03  0.38042871245E+03  0.00000000000E+00 0. -1.
         24    2    1    2    0    0  0.47964473751E+02 -0.24930467638E+02 -0.23297899595E+03  0.25282701299E+03  0.81976624620E+02 0.  0.
         23    2    1    2    0    0  0.21741252726E+01 -0.46933432056E+02 -0.70753640842E+02  0.12890491562E+03  0.96968684187E+02 0.  0.
        -11    1    3    3    0    0  0.13139353075E+02 -0.36828040103E+02 -0.38420760075E+02  0.54818810110E+02  0.00000000000E+00 0.  1.
         12    1    3    3    0    0  0.34825120677E+02  0.11897572465E+02 -0.19455823588E+03  0.19800820288E+03  0.00000000000E+00 0. -1.
        -11    1    4    4    0    0 -0.25267007530E+02 -0.38921338901E+02 -0.85093024835E+02  0.96923243688E+02  0.00000000000E+00 0.  1.
         11    1    4    4    0    0  0.27441132802E+02 -0.80120931551E+01  0.14339383993E+02  0.31981671931E+02  0.00000000000E+00 0. -1.
          1    1    1    2  501    0 -0.50138599024E+02  0.71863899695E+02  0.13225496043E+02  0.88618355531E+02  0.00000000000E+00 0. -1.
<scales pt_clust_5="13000.00000" pt_clust_6="13000.00000" pt_clust_7="13000.00000" pt_clust_8="13000.00000" pt_clust_9="87.62590"></scales>
<clustering>
<clus scale="   81.977">  5  6 -1 -1</clus>
<clus scale="   87.626">  1  9  2 -1</clus>
<clus scale="   89.464">  2  5  1 -1</clus>
<clus scale="   96.969">  7  8 -1 -1</clus>
<clus scale="   87.626">  1  5  2 -1</clus>
</clustering>
</event>
<event>
 9    2  0.1066012E-004  0.9142461E+02  0.7546771E-02  0.1310034E+00
         21   -1    0    0  501  502  0.00000000000E+00  0.00000000000E+00  0.55648214498E+02  0.55648214498E+02  0.00000000000E+00 0.  1.
         -1   -1    0    0    0  501 -0.00000000000E+00 -0.00000000000E+00 -0.38464821813E+03  0.38464821813E+03  0.00000000000E+00 0.  1.
         23    2    1    2    0    0 -0.21604123525E+02  0.42459489531E+01 -0.30736592235E+03  0.32072964348E+03  0.88932152497E+02 0.  0.
         24    2    1    2    0    0  0.11075830010E+02 -0.25024489114E+02 -0.42591220264E+02  0.88233191055E+02  0.72264686358E+02 0.  0.
        -13    1    4    4    0    0 -0.24150499315E+02  0.10829349588E+02 -0.19747173590E+02  0.33022299957E+02  0.00000000000E+00 0.  1.
         14    1    4    4    0    0  0.35226329325E+02 -0.35853838702E+02 -0.22844046674E+02  0.55210891098E+02  0.00000000000E+00 0. -1.
        -11    1    3    3    0    0  0.27603176302E+02  0.16441620980E+02 -0.58398942240E+02  0.66653572276E+02  0.00000000000E+00 0. -1.
         11    1    3    3    0    0 -0.49207299827E+02 -0.12195672027E+02 -0.24896698011E+03  0.25407607120E+03  0.00000000000E+00 0.  1.
         -2    1    1    2    0  502  0.10528293515E+02  0.20778540161E+02  0.20957138979E+02  0.31333598098E+02  0.00000000000E+00 0.  1.
<scales pt_clust_5="13000.00000" pt_clust_6="13000.00000" pt_clust_7="13000.00000" pt_clust_8="13000.00000" pt_clust_9="23.29362"></scales>
<clustering>
<clus scale="   23.294">  1  9  2 -1</clus>
<clus scale="   72.265">  5  6 -1 -1</clus>
<clus scale="   75.311">  1  5  2 -1</clus>
<clus scale="   88.932">  7  8 -1 -1</clus>
<clus scale="   23.294">  1  5  2 -1</clus>
</clustering>
</event>
<event>
 9    2  0.6469128E-005  0.1971400E+03  0.7546771E-02  0.1153349E+00
         21   -1    0    0  501  502  0.00000000000E+00  0.00000000000E+00  0.43559067899E+02  0.43559067899E+02  0.00000000000E+00 0.  1.
          2   -1    0    0  502    0 -0.00000000000E+00 -0.00000000000E+00 -0.11947992797E+04  0.11947992797E+04  0.00000000000E+00 0. -1.
         24    2    1    2    0    0  0.59791960439E+02  0.18377134444E+03 -0.65110859399E+03  0.68386023318E+03  0.79846301038E+02 0.  0.
         23    2    1    2    0    0 -0.41777441157E+02 -0.13975189929E+03 -0.27662098172E+03  0.32598282193E+03  0.92030890023E+02 0.  0.
        -11    1    3    3    0    0 -0.11775683402E+02  0.73217698198E+02 -0.17968294721E+03  0.19438482340E+03  0.00000000000E+00 0.  1.
         12    1    3    3    0    0  0.71567643841E+02  0.11055364624E+03 -0.47142564678E+03  0.48947540978E+03  0.00000000000E+00 0. -1.
        -11    1    4    4    0    0  0.20441634660E+02 -0.22496284467E+02 -0.10324693778E+03  0.10762840426E+03  0.00000000000E+00 0. -1.
         11    1    4    4    0    0 -0.62219075817E+02 -0.11725561482E+03 -0.17337404394E+03  0.21835441767E+03  0.00000000000E+00 0.  1.
          1    1    1    2  501    0 -0.18014519282E+02 -0.44019445156E+02 -0.22351063607E+03  0.22851529247E+03  0.00000000000E+00 0. -1.
<scales pt_clust_5="13000.00000" pt_clust_6="13000.00000" pt_clust_7="13000.00000" pt_clust_8="13000.00000" pt_clust_9="47.56298"></scales>
<clustering>
<clus scale="   47.563">  1  9  2 -1</clus>
<clus scale="   79.846">  5  6 -1 -1</clus>
<clus scale="   92.031">  7  8 -1 -1</clus>
<clus scale="  191.755">  2  5  1 -1</clus>
<clus scale="   47.563">  1  5  2 -1</clus>
</clustering>
</event>
<event>
 9    2  0.6469128E-005  0.1804330E+03  0.7546771E-02  0.1169239E+00
         -1   -1    0    0    0  501 -0.00000000000E+00  0.00000000000E+00  0.18711209890E+03  0.18711209890E+03  0.00000000000E+00 0.  1.
         21   -1    0    0  501  502  0.00000000000E+00 -0.00000000000E+00 -0.33824905910E+03  0.33824905910E+03  0.00000000000E+00 0. -1.
         24    2    1    2    0    0  0.15973455512E+03 -0.66412406827E+01  0.92477765361E+02  0.20168789186E+03  0.81034773148E+02 0.  0.
         23    2    1    2    0    0 -0.12324468068E+03  0.41955684820E+02 -0.17511678733E+03  0.23840552053E+03  0.96030058883E+02 0.  0.
        -11    1    3    3    0    0  0.10625811203E+03  0.34148762398E+02  0.51391501840E+02  0.12287396310E+03  0.00000000000E+00 0.  1.
         12    1    3    3    0    0  0.53476443088E+02 -0.40790003081E+02  0.41086263522E+02  0.78813928762E+02  0.00000000000E+00 0. -1.
        -11    1    4    4    0    0 -0.69704646935E+02 -0.24309830587E+02 -0.59633146973E+02  0.94898987800E+02  0.00000000000E+00 0.  1.
         11    1    4    4    0    0 -0.53540033745E+02  0.66265515407E+02 -0.11548364036E+03  0.14350653273E+03  0.00000000000E+00 0. -1.
         -2    1    1    2    0  502 -0.36489874439E+02 -0.35314444137E+02 -0.68497938223E+02  0.85267745614E+02  0.00000000000E+00 0.  1.
<scales pt_clust_5="13000.00000" pt_clust_6="13000.00000" pt_clust_7="13000.00000" pt_clust_8="13000.00000" pt_clust_9="50.78012"></scales>
<clustering>
<clus scale="   50.780">  2  9  1 -1</clus>
<clus scale="   81.035">  5  6 -1 -1</clus>
<clus scale="   96.030">  7  8 -1 -1</clus>
<clus scale="  172.919">  1  5  2 -1</clus>
<clus scale="   50.780">  2  5  1 -1</clus>
</clustering>
</event>
<event>
 9    2  0.6469128E-005  0.1148194E+03  0.7546771E-02  0.1260774E+00
         21   -1    0    0  501  502  0.00000000000E+00  0.00000000000E+00  0.41859544908E+02  0.41859544908E+02  0.00000000000E+00 0. -1.
         -1   -1    0    0    0  501 -0.00000000000E+00 -0.00000000000E+00 -0.40714811130E+03  0.40714811130E+03  0.00000000000E+00 0.  1.
         23    2    1    2    0    0 -0.35481073341E+01  0.48787517415E+02 -0.23667283618E+03  0.26115865230E+03  0.98979792688E+02 0.  0.
         24    2    1    2    0    0  0.44483809100E+00 -0.73168729934E+02 -0.12342058308E+03  0.16272802946E+03  0.76771806821E+02 0.  0.
        -13    1    4    4    0    0  0.27207643701E+02 -0.74385373608E+02 -0.94570662839E+02  0.12335740737E+03  0.00000000000E+00 0.  1.
         14    1    4    4    0    0 -0.26762805610E+02  0.12166436738E+01 -0.28849920243E+02  0.39370622092E+02  0.00000000000E+00 0. -1.
        -13    1    3    3    0    0 -0.50986261118E+02  0.20133038610E+02 -0.11045951492E+03  0.12331359415E+03  0.00000000000E+00 0. -1.
         13    1    3    3    0    0  0.47438153784E+02  0.28654478806E+02 -0.12621332126E+03  0.13784505814E+03  0.00000000000E+00 0.  1.
         -2    1    1    2    0  502  0.31032692431E+01  0.24381212519E+02 -0.51951471283E+01  0.25120974455E+02  0.00000000000E+00 0.  1.
<scales pt_clust_5="13000.00000" pt_clust_6="13000.00000" pt_clust_7="13000.00000" pt_clust_8="13000.00000" pt_clust_9="24.57791"></scales>
<clustering>
<clus scale="   24.578">  1  9  2 -1</clus>
<clus scale="   76.772">  5  6 -1 -1</clus>
<clus scale="   96.335">  1  5  2 -1</clus>
<clus scale="   98.980">  7  8 -1 -1</clus>
<clus scale="   24.578">  1  5  2 -1</clus>
</clustering>
</event>
<event>
 9    2  0.6469128E-005  0.1433601E+03  0.7546771E-02  0.1223846E+00
         21   -1    0    0  501  502  0.00000000000E+00  0.00000000000E+00  0.29630670680E+03  0.29630670680E+03  0.00000000000E+00 0. -1.
          4   -1    0    0  502    0 -0.00000000000E+00 -0.00000000000E+00 -0.12218975620E+03  0.12218975620E+03  0.00000000000E+00 0. -1.
         24    2    1    2    0    0 -0.38355553528E+02  0.54465256818E+02  0.15428720920E+02  0.10562677736E+03  0.80506881560E+02 0.  0.
         23    2    1    2    0    0 -0.47182870909E+02 -0.12184558647E+03  0.72064152535E+02  0.17372709108E+03  0.88967914696E+02 0.  0.
        -11    1    3    3    0    0  0.20105729335E+02 -0.46786658608E+00  0.15524296875E+02  0.25405964746E+02  0.00000000000E+00 0.  1.
         12    1    3    3    0    0 -0.58461282863E+02  0.54933123404E+02 -0.95575955250E-01  0.80220812609E+02  0.00000000000E+00 0. -1.
        -11    1    4    4    0    0 -0.32967676054E+02 -0.20550125600E+01  0.33587124694E+02  0.47108233741E+02  0.00000000000E+00 0.  1.
         11    1    4    4    0    0 -0.14215194855E+02 -0.11979057391E+03  0.38477027841E+02  0.12661885734E+03  0.00000000000E+00 0. -1.
          3    1    1    2  501    0  0.85538424437E+02  0.67380329652E+02  0.86624077147E+02  0.13914259456E+03  0.00000000000E+00 0. -1.
<scales pt_clust_5="13000.00000" pt_clust_6="13000.00000" pt_clust_7="13000.00000" pt_clust_8="13000.00000" pt_clust_9="112.41367"></scales>
<clustering>
<clus scale="   80.507">  5  6 -1 -1</clus>
<clus scale="   88.968">  7  8 -1 -1</clus>
<clus scale="  104.494">  2  5  1 -1</clus>
<clus scale="  112.414">  1  9  2 -1</clus>
<clus scale="  112.414">  1  5  2 -1</clus>
</clustering>
</event>
<event>
 9    2  0.6469128E-005  0.8799689E+02  0.7546771E-02  0.1309755E+00
         21   -1    0    0  501  502  0.00000000000E+00  0.00000000000E+00  0.49993758494E+02  0.49993758494E+02  0.00000000000E+00 0. -1.
          2   -1    0    0  502    0 -0.00000000000E+00 -0.00000000000E+00 -0.39366538125E+03  0.39366538125E+03  0.00000000000E+00 0. -1.
         23    2    1    2    0    0 -0.65734791480E+01 -0.29601853601E+02 -0.15320172073E+03  0.17668839817E+03  0.82634995303E+02 0.  0.
         24    2    1    2    0    0 -0.20952193482E+02  0.32290790382E+02 -0.15116270262E+02  0.89449505639E+02  0.79315968614E+02 0.  0.
        -11    1    4    4    0    0 -0.46056422133E+02  0.26729334540E+01  0.37434140305E+01  0.46285545709E+02  0.00000000000E+00 0.  1.
         12    1    4    4    0    0  0.25104228651E+02  0.29617856928E+02 -0.18859684293E+02  0.43163959930E+02  0.00000000000E+00 0. -1.
        -13    1    3    3    0    0 -0.12239996412E+00 -0.55571925783E+02 -0.70523681373E+02  0.89787769498E+02  0.00000000000E+00 0.  1.
         13    1    3    3    0    0 -0.64510791838E+01  0.25970072183E+02 -0.82678039356E+02  0.86900628672E+02  0.00000000000E+00 0. -1.
          1    1    1    2  501    0  0.27525672630E+02 -0.26889367814E+01 -0.17535363177E+03  0.17752123594E+03  0.00000000000E+00 0. -1.
<scales pt_clust_5="13000.00000" pt_clust_6="13000.00000" pt_clust_7="13000.00000" pt_clust_8="13000.00000" pt_clust_9="27.65671"></scales>
<clustering>
<clus scale="   27.657">  1  9  2 -1</clus>
<clus scale="   79.316">  5  6 -1 -1</clus>
<clus scale="   82.635">  7  8 -1 -1</clus>
<clus scale="   84.888">  1  5  2 -1</clus>
<clus scale="   27.657">  1  5  2 -1</clus>
</clustering>
</event>
<event>
 9    2  0.6469128E-005  0.9925635E+02  0.7546771E-02  0.1290579E+00
         21   -1    0    0  501  502  0.00000000000E+00  0.00000000000E+00  0.41635752646E+02  0.41635752646E+02  0.00000000000E+00 0. -1.
          2   -1    0    0  502    0 -0.00000000000E+00 -0.00000000000E+00 -0.74499705566E+03  0.74499705566E+03  0.00000000000E+00 0. -1.
         24    2    1    2    0    0  0.23097676053E+02 -0.32798237210E+01 -0.55960712931E+03  0.56575910889E+03  0.79868455841E+02 0.  0.
         23    2    1    2    0    0 -0.44052065406E+02  0.35270357699E+01 -0.16191294779E+03  0.19314485841E+03  0.95582996490E+02 0.  0.
        -13    1    3    3    0    0 -0.21637479165E+02  0.39343826293E+01 -0.56715837611E+02  0.60830470220E+02  0.00000000000E+00 0.  1.
         14    1    3    3    0    0  0.44735155218E+02 -0.72142063503E+01 -0.50289129170E+03  0.50492863867E+03  0.00000000000E+00 0. -1.
        -13    1    4    4    0    0 -0.22026209588E+02 -0.16722327432E+02 -0.16084629537E+03  0.16320637511E+03  0.00000000000E+00 0. -1.
         13    1    4    4    0    0 -0.22025855818E+02  0.20249363202E+02 -0.10666524253E+01  0.29938483295E+02  0.00000000000E+00 0.  1.
          1    1    1    2  501    0  0.20954389354E+02 -0.24721204893E+00  0.18158774091E+02  0.27728841005E+02  0.00000000000E+00 0. -1.
<scales pt_clust_5="13000.00000" pt_clust_6="13000.00000" pt_clust_7="13000.00000" pt_clust_8="13000.00000" pt_clust_9="20.95585"></scales>
<clustering>
<clus scale="   20.956">  1  9  2 -1</clus>
<clus scale="   79.868">  5  6 -1 -1</clus>
<clus scale="   84.230">  2  5  1 -1</clus>
<clus scale="   95.583">  7  8 -1 -1</clus>
<clus scale="   20.956">  1  5  2 -1</clus>
</clustering>
</event>
<event>
 9    2  0.6469128E-005  0.1349313E+03  0.7546771E-02  0.1222681E+00
         21   -1    0    0  501  502  0.00000000000E+00  0.00000000000E+00  0.64651905045E+02  0.64651905045E+02  0.00000000000E+00 0. -1.
          2   -1    0    0  502    0 -0.00000000000E+00 -0.00000000000E+00 -0.62205323756E+03  0.62205323756E+03  0.00000000000E+00 0. -1.
         23    2    1    2    0    0  0.47139467905E+02 -0.82262404136E+02 -0.45611962708E+03  0.47468969760E+03  0.91082172988E+02 0.  0.
         24    2    1    2    0    0 -0.66065022821E+02  0.96651421658E+02 -0.11631535398E+03  0.18388661561E+03  0.81110673029E+02 0.  0.
        -13    1    4    4    0    0 -0.53244945159E+02  0.94545374550E+01 -0.39386760529E+02  0.66900892135E+02  0.00000000000E+00 0.  1.
         14    1    4    4    0    0 -0.12820077662E+02  0.87196884203E+02 -0.76928593451E+02  0.11698572347E+03  0.00000000000E+00 0. -1.
        -13    1    3    3    0    0  0.69109993137E+02 -0.55470989872E+02 -0.39110257779E+03  0.40101676800E+03  0.00000000000E+00 0. -1.
         13    1    3    3    0    0 -0.21970525232E+02 -0.26791414264E+02 -0.65017049293E+02  0.73672929601E+02  0.00000000000E+00 0.  1.
          1    1    1    2  501    0  0.18925554916E+02 -0.14389017522E+02  0.15033648548E+02  0.28128829389E+02  0.00000000000E+00 0. -1.
<scales pt_clust_5="13000.00000" pt_clust_6="13000.00000" pt_clust_7="13000.00000" pt_clust_8="13000.00000" pt_clust_9="23.77437"></scales>
<clustering>
<clus scale="   23.774">  1  9  2 -1</clus>
<clus scale="   81.111">  5  6 -1 -1</clus>
<clus scale="   91.082">  7  8 -1 -1</clus>
<clus scale="  128.411">  1  5  2 -1</clus>
<clus scale="   23.774">  1  5  2 -1</clus>
</clustering>
</event>
<event>
 9    2  0.6469128E-005  0.1028693E+03  0.7546771E-02  0.1283079E+00
          2   -1    0    0  502    0 -0.00000000000E+00  0.00000000000E+00  0.22196087835E+03  0.22196087835E+03  0.00000000000E+00 0. -1.
         21   -1    0    0  501  502  0.00000000000E+00 -0.00000000000E+00 -0.14596008919E+03  0.14596008919E+03  0.00000000000E+00 0. -1.
         24    2    1    2    0    0  0.41671516062E+02  0.27243004181E+01  0.12740773095E+03  0.15600753643E+03  0.79760168342E+02 0.  0.
         23    2    1    2    0    0 -0.12397279607E+02 -0.32746726344E+02  0.40782319734E+02  0.11063566002E+03  0.96700625835E+02 0.  0.
        -13    1    3    3    0    0 -0.10109790810E+02 -0.25047159658E+02  0.20110275793E+02  0.33674786853E+02  0.00000000000E+00 0.  1.
         14    1    3    3    0    0  0.51781306872E+02  0.27771460076E+02  0.10729745516E+03  0.12233274958E+03  0.00000000000E+00 0. -1.
        -11    1    4    4    0    0 -0.52480798047E+02 -0.28331852089E+01  0.24916834634E+02  0.58164505931E+02  0.00000000000E+00 0.  1.
         11    1    4    4    0    0  0.40083518440E+02 -0.29913541135E+02  0.15865485100E+02  0.52471154087E+02  0.00000000000E+00 0. -1.
          1    1    1    2  501    0 -0.29274236456E+02  0.30022425926E+02 -0.92189261524E+02  0.10127777110E+03  0.00000000000E+00 0. -1.
<scales pt_clust_5="13000.00000" pt_clust_6="13000.00000" pt_clust_7="13000.00000" pt_clust_8="13000.00000" pt_clust_9="41.93241"></scales>
<clustering>
<clus scale="   41.932">  2  9  1 -1</clus>
<clus scale="   79.760">  5  6 -1 -1</clus>
<clus scale="   87.137">  1  5  2 -1</clus>
<clus scale="   96.701">  7  8 -1 -1</clus>
<clus scale="   41.932">  2  5  1 -1</clus>
</clustering>
</event>
<event>
 9    2  0.6469128E-005  0.1555856E+03  0.7546771E-02  0.1195970E+00
          2   -1    0    0  502    0 -0.00000000000E+00  0.00000000000E+00  0.83181032429E+03  0.83181032429E+03  0.00000000000E+00 0. -1.
         21   -1    0    0  501  502  0.00000000000E+00 -0.00000000000E+00 -0.57468769988E+02  0.57468769988E+02  0.00000000000E+00 0. -1.
         24    2    1    2    0    0 -0.65864014398E+02 -0.79352028558E+02  0.20670030758E+03  0.24401210258E+03  0.78626180260E+02 0.  0.
         23    2    1    2    0    0  0.11780235478E+01  0.17092533819E+03  0.38130044620E+03  0.42779781598E+03  0.91673780940E+02 0.  0.
        -11    1    3    3    0    0 -0.63574196831E+02 -0.25818016257E+02  0.15520303728E+03  0.16969452333E+03  0.00000000000E+00 0.  1.
         12    1    3    3    0    0 -0.22898175674E+01 -0.53534012301E+02  0.51497270302E+02  0.74317579253E+02  0.00000000000E+00 0. -1.
        -11    1    4    4    0    0 -0.19289205952E+02  0.16684611410E+03  0.36326842614E+03  0.40021700200E+03  0.00000000000E+00 0. -1.
         11    1    4    4    0    0  0.20467229500E+02  0.40792240839E+01  0.18032020060E+02  0.27580813983E+02  0.00000000000E+00 0.  1.
          1    1    1    2  501    0  0.64685990850E+02 -0.91573309629E+02  0.18634080052E+03  0.21746917572E+03  0.00000000000E+00 0. -1.
<scales pt_clust_5="13000.00000" pt_clust_6="13000.00000" pt_clust_7="13000.00000" pt_clust_8="13000.00000" pt_clust_9="112.11578"></scales>
<clustering>
<clus scale="   78.626">  5  6 -1 -1</clus>
<clus scale="   91.674">  7  8 -1 -1</clus>
<clus scale="  112.116">  2  9  1 -1</clus>
<clus scale="  148.273">  1  5  2 -1</clus>
<clus scale="  112.116">  2  5  1 -1</clus>
</clustering>
</event>
<event>
 9    2  0.6469128E-005  0.1071462E+03  0.7546771E-02  0.1281139E+00
         -1   -1    0    0    0  501 -0.00000000000E+00  0.00000000000E+00  0.11352326428E+03  0.11352326428E+03  0.00000000000E+00 0.  1.
         21   -1    0    0  501  502  0.00000000000E+00 -0.00000000000E+00 -0.14402071067E+03  0.14402071067E+03  0.00000000000E+00 0.  1.
         24    2    1    2    0    0 -0.14610070095E+02  0.27925879274E+01 -0.11456193519E+02  0.74008644887E+02  0.71587585883E+02 0.  0.
         23    2    1    2    0    0  0.72001818630E+02 -0.31198665853E+01 -0.22176962299E+02  0.12605705081E+03  0.10101765662E+03 0.  0.
        -11    1    3    3    0    0 -0.23588688198E+02 -0.28687599886E+02  0.48169239761E+01  0.37451399903E+02  0.00000000000E+00 0.  1.
         12    1    3    3    0    0  0.89786181032E+01  0.31480187813E+02 -0.16273117495E+02  0.36557244984E+02  0.00000000000E+00 0. -1.
        -11    1    4    4    0    0  0.71839479887E+02  0.18390506650E+02  0.21636304409E+02  0.77247985565E+02  0.00000000000E+00 0.  1.
         11    1    4    4    0    0  0.16233874259E+00 -0.21510373235E+02 -0.43813266708E+02  0.48809065246E+02  0.00000000000E+00 0. -1.
         -2    1    1    2    0  502 -0.57391748535E+02  0.32727865786E+00  0.31357094287E+01  0.57478279244E+02  0.00000000000E+00 0.  1.
<scales pt_clust_5="13000.00000" pt_clust_6="13000.00000" pt_clust_7="13000.00000" pt_clust_8="13000.00000" pt_clust_9="57.39271"></scales>
<clustering>
<clus scale="   57.393">  2  9  1 -1</clus>
<clus scale="   71.588">  5  6 -1 -1</clus>
<clus scale="   80.003">  1  5  2 -1</clus>
<clus scale="  101.018">  7  8 -1 -1</clus>
<clus scale="   57.393">  2  5  1 -1</clus>
</clustering>
</event>
<event>
 9    2  0.6469128E-005  0.9393033E+02  0.7546771E-02  0.1300118E+00
         21   -1    0    0  501  502  0.00000000000E+00  0.00000000000E+00  0.73163184359E+03  0.73163184359E+03  0.00000000000E+00 0. -1.
         -1   -1    0    0    0  501 -0.00000000000E+00 -0.00000000000E+00 -0.12668319170E+03  0.12668319170E+03  0.00000000000E+00 0.  1.
         24    2    1    2    0    0  0.10806727075E+02  0.10486099194E+02 -0.76227235545E+02  0.11162584699E+03  0.80143587703E+02 0.  0.
         23    2    1    2    0    0 -0.15426112760E+02 -0.90053113219E+02  0.10888286801E+03  0.16887299907E+03  0.91187075370E+02 0.  0.
        -13    1    3    3    0    0 -0.17879940160E+02  0.37658759220E+02 -0.33998344028E+02  0.53793696682E+02  0.00000000000E+00 0.  1.
         14    1    3    3    0    0  0.28686667235E+02 -0.27172660026E+02 -0.42228891517E+02  0.57832150303E+02  0.00000000000E+00 0. -1.
        -11    1    4    4    0    0  0.15121153120E+02 -0.70590903844E+02  0.11119968575E+03  0.13257863737E+03  0.00000000000E+00 0. -1.
         11    1    4    4    0    0 -0.30547265881E+02 -0.19462209375E+02 -0.23168177426E+01  0.36294361697E+02  0.00000000000E+00 0.  1.
         -2    1    1    2    0  502  0.46193856851E+01  0.79567014025E+02  0.57229301943E+03  0.57781618923E+03  0.00000000000E+00 0.  1.
<scales pt_clust_5="13000.00000" pt_clust_6="13000.00000" pt_clust_7="13000.00000" pt_clust_8="13000.00000" pt_clust_9="79.70099"></scales>
<clustering>
<clus scale="   79.701">  1  9  2 -1</clus>
<clus scale="   80.144">  5  6 -1 -1</clus>
<clus scale="   83.252">  2  5  1 -1</clus>
<clus scale="   91.187">  7  8 -1 -1</clus>
<clus scale="   79.701">  1  5  2 -1</clus>
</clustering>
</event>
<event>
 9    2  0.6469128E-005  0.1138059E+03  0.7546771E-02  0.1257293E+00
         21   -1    0    0  501  502  0.00000000000E+00  0.00000000000E+00  0.14183758225E+03  0.14183758225E+03  0.00000000000E+00 0.  1.
          2   -1    0    0  502    0 -0.00000000000E+00 -0.00000000000E+00 -0.19314604440E+03  0.19314604440E+03  0.00000000000E+00 0. -1.
         24    2    1    2    0    0  0.31580008286E+02  0.53937695432E+02 -0.76861550509E+02  0.12866158778E+03  0.82094666766E+02 0.  0.
         23    2    1    2    0    0 -0.71690926191E+02 -0.38959461400E+02 -0.38865189216E+02  0.12897252229E+03  0.92010760470E+02 0.  0.
        -11    1    3    3    0    0 -0.60001124363E+01  0.36753852152E+02  0.43975536215E+01  0.37499139658E+02  0.00000000000E+00 0.  1.
         12    1    3    3    0    0  0.37580120722E+02  0.17183843280E+02 -0.81259104131E+02  0.91162448122E+02  0.00000000000E+00 0. -1.
        -13    1    4    4    0    0 -0.22951185625E+02  0.30443458545E+02 -0.13655882899E+02  0.40497459519E+02  0.00000000000E+00 0.  1.
         13    1    4    4    0    0 -0.48739740566E+02 -0.69402919945E+02 -0.25209306317E+02  0.88475062771E+02  0.00000000000E+00 0. -1.
          1    1    1    2  501    0  0.40110917905E+02 -0.14978234032E+02  0.64418277571E+02  0.77349516580E+02  0.00000000000E+00 0. -1.
<scales pt_clust_5="13000.00000" pt_clust_6="13000.00000" pt_clust_7="13000.00000" pt_clust_8="13000.00000" pt_clust_9="42.81627"></scales>
<clustering>
<clus scale="   42.816">  1  9  2 -1</clus>
<clus scale="   82.095">  5  6 -1 -1</clus>
<clus scale="   92.011">  7  8 -1 -1</clus>
<clus scale="  105.950">  2  5  1 -1</clus>
<clus scale="   42.816">  1  5  2 -1</clus>
</clustering>
</event>
<event>
 9    2  0.8272154E-005  0.9609170E+02  0.7546771E-02  0.1293731E+00
         -3   -1    0    0    0  501 -0.00000000000E+00  0.00000000000E+00  0.42493174419E+03  0.42493174419E+03  0.00000000000E+00 0.  1.
         21   -1    0    0  501  502  0.00000000000E+00 -0.00000000000E+00 -0.52453638754E+02  0.52453638754E+02  0.00000000000E+00 0. -1.
         23    2    1    2    0    0  0.17452934049E+02 -0.20420740075E+02  0.21813023944E+03  0.23741608154E+03  0.89799681971E+02 0.  0.
         24    2    1    2    0    0 -0.99392030031E+01  0.68936064178E+02  0.36962473070E+02  0.11273124382E+03  0.80567612700E+02 0.  0.
        -13    1    4    4    0    0 -0.70241408977E+01  0.78525661457E+02  0.52155891957E+02  0.94529652112E+02  0.00000000000E+00 0.  1.
         14    1    4    4    0    0 -0.29150621054E+01 -0.95895972790E+01 -0.15193418888E+02  0.18201591704E+02  0.00000000000E+00 0. -1.
        -11    1    3    3    0    0  0.52232624560E+02 -0.74106544035E+00  0.10192455197E+03  0.11453126447E+03  0.00000000000E+00 0. -1.
         11    1    3    3    0    0 -0.34779690511E+02 -0.19679674635E+02  0.11620568747E+03  0.12288481707E+03  0.00000000000E+00 0.  1.
         -4    1    1    2    0  502 -0.75137310459E+01 -0.48515324103E+02  0.11738539293E+03  0.12723805759E+03  0.00000000000E+00 0.  1.
<scales pt_clust_5="13000.00000" pt_clust_6="13000.00000" pt_clust_7="13000.00000" pt_clust_8="13000.00000" pt_clust_9="49.09374"></scales>
<clustering>
<clus scale="   49.094">  2  9  1 -1</clus>
<clus scale="   80.568">  5  6 -1 -1</clus>
<clus scale="   87.526">  2  5  1 -1</clus>
<clus scale="   89.800">  7  8 -1 -1</clus>
<clus scale="   49.094">  2  5  1 -1</clus>
</clustering>
</event>
<event>
 9    2  0.6469128E-005  0.9637455E+02  0.7546771E-02  0.1295858E+00
         -1   -1    0    0    0  501 -0.00000000000E+00  0.00000000000E+00  0.62393204383E+02  0.62393204383E+02  0.00000000000E+00 0.  1.
         21   -1    0    0  501  502  0.00000000000E+00 -0.00000000000E+00 -0.20741994496E+03  0.20741994496E+03  0.00000000000E+00 0.  1.
         23    2    1    2    0    0  0.19447731460E+02  0.28429952855E+01 -0.34011967258E+02  0.10030391940E+03  0.92291740953E+02 0.  0.
         24    2    1    2    0    0 -0.33573903756E+02  0.23834909226E+02 -0.51112368636E+02  0.10243048950E+03  0.78639818418E+02 0.  0.
        -11    1    4    4    0    0 -0.51725019884E+02  0.26235194815E+02 -0.58783907752E+02  0.82579119271E+02  0.00000000000E+00 0.  1.
         12    1    4    4    0    0  0.18151116129E+02 -0.24002855884E+01  0.76715391168E+01  0.19851370231E+02  0.00000000000E+00 0. -1.
        -11    1    3    3    0    0  0.50604289801E+02  0.37490144419E+01 -0.44423741726E+02  0.67441219477E+02  0.00000000000E+00 0. -1.
         11    1    3    3    0    0 -0.31156558341E+02 -0.90601915638E+00  0.10411774468E+02  0.32862699919E+02  0.00000000000E+00 0.  1.
         -2    1    1    2    0  502  0.14126172296E+02 -0.26677904512E+02 -0.59902404687E+02  0.67078740449E+02  0.00000000000E+00 0.  1.
<scales pt_clust_5="13000.00000" pt_clust_6="13000.00000" pt_clust_7="13000.00000" pt_clust_8="13000.00000" pt_clust_9="30.18707"></scales>
<clustering>
<clus scale="   30.187">  2  9  1 -1</clus>
<clus scale="   78.640">  5  6 -1 -1</clus>
<clus scale="   83.394">  2  5  1 -1</clus>
<clus scale="   92.292">  7  8 -1 -1</clus>
<clus scale="   30.187">  2  5  1 -1</clus>
</clustering>
</event>
<event>
 9    2  0.6469128E-005  0.1164767E+03  0.7546771E-02  0.1252615E+00
          2   -1    0    0  502    0 -0.00000000000E+00  0.00000000000E+00  0.64520744133E+03  0.64520744133E+03  0.00000000000E+00 0. -1.
         21   -1    0    0  501  502  0.00000000000E+00 -0.00000000000E+00 -0.31671590689E+02  0.31671590689E+02  0.00000000000E+00 0.  1.
         23    2    1    2    0    0  0.18916174896E+02 -0.74439850671E+02  0.38871013456E+03  0.40663737601E+03  0.91429064412E+02 0.  0.
         24    2    1    2    0    0 -0.27651817562E+02  0.55390915538E+02  0.96898223216E+02  0.14060903352E+03  0.80925015330E+02 0.  0.
        -13    1    4    4    0    0 -0.42417189328E+02  0.61225495977E+02  0.46588468370E+02  0.87853654979E+02  0.00000000000E+00 0.  1.
         14    1    4    4    0    0  0.14765371766E+02 -0.58345804386E+01  0.50309754846E+02  0.52755378541E+02  0.00000000000E+00 0. -1.
        -11    1    3    3    0    0 -0.27884652068E+02  0.29087812465E+01  0.71639279878E+02  0.76929846293E+02  0.00000000000E+00 0.  1.
         11    1    3    3    0    0  0.46800826964E+02 -0.77348631917E+02  0.31707085468E+03  0.32970752972E+03  0.00000000000E+00 0. -1.
          1    1    1    2  501    0  0.87356426656E+01  0.19048935133E+02  0.12792749287E+03  0.12963262249E+03  0.00000000000E+00 0. -1.
<scales pt_clust_5="13000.00000" pt_clust_6="13000.00000" pt_clust_7="13000.00000" pt_clust_8="13000.00000" pt_clust_9="20.95647"></scales>
<clustering>
<clus scale="   20.956">  2  9  1 -1</clus>
<clus scale="   80.925">  5  6 -1 -1</clus>
<clus scale="   91.429">  7  8 -1 -1</clus>
<clus scale="  108.427">  2  5  1 -1</clus>
<clus scale="   20.956">  2  5  1 -1</clus>
</clustering>
</event>
<event>
 9    2  0.6469128E-005  0.1601936E+03  0.7546771E-02  0.1216487E+00
         21   -1    0    0  501  502  0.00000000000E+00  0.00000000000E+00  0.38673022599E+02  0.38673022599E+02  0.00000000000E+00 0. -1.
          2   -1    0    0  502    0 -0.00000000000E+00 -0.00000000000E+00 -0.98196816596E+03  0.98196816596E+03  0.00000000000E+00 0. -1.
         24    2    1    2    0    0 -0.38187956823E+02 -0.53020439147E+01 -0.18326451166E+03  0.20303983275E+03  0.78440172950E+02 0.  0.
         23    2    1    2    0    0 -0.43301225008E+02  0.11946915780E+03 -0.32870882654E+03  0.36404527741E+03  0.91277574496E+02 0.  0.
        -11    1    3    3    0    0 -0.51728575382E+01  0.34941875516E+02 -0.76565411513E+02  0.84320551231E+02  0.00000000000E+00 0.  1.
         12    1    3    3    0    0 -0.33015099285E+02 -0.40243919430E+02 -0.10669910015E+03  0.11871928152E+03  0.00000000000E+00 0. -1.
        -11    1    4    4    0    0  0.80220083305E+01  0.65702966415E+02 -0.76742906124E+02  0.10134449198E+03  0.00000000000E+00 0.  1.
         11    1    4    4    0    0 -0.51323233338E+02  0.53766191385E+02 -0.25196592042E+03  0.26270078544E+03  0.00000000000E+00 0. -1.
          1    1    1    2  501    0  0.81489181831E+02 -0.11416711389E+03 -0.43132180516E+03  0.45355607840E+03  0.00000000000E+00 0. -1.
<scales pt_clust_5="13000.00000" pt_clust_6="13000.00000" pt_clust_7="13000.00000" pt_clust_8="13000.00000" pt_clust_9="131.64507"></scales>
<clustering>
<clus scale="   78.440">  5  6 -1 -1</clus>
<clus scale="   87.403">  2  5  1 -1</clus>
<clus scale="   91.278">  7  8 -1 -1</clus>
<clus scale="  131.645">  1  9  2 -1</clus>
<clus scale="  131.645">  1  5  2 -1</clus>
</clustering>
</event>
<event>
 9    2  0.6469128E-005  0.2317806E+03  0.7546771E-02  0.1125728E+00
         21   -1    0    0  501  502  0.00000000000E+00  0.00000000000E+00  0.15748150660E+03  0.15748150660E+03  0.00000000000E+00 0.  1.
          2   -1    0    0  502    0 -0.00000000000E+00 -0.00000000000E+00 -0.82899943484E+03  0.82899943484E+03  0.00000000000E+00 0. -1.
         24    2    1    2    0    0 -0.19310012760E+03  0.36029143407E+01 -0.45346789804E+03  0.50023737301E+03  0.85461421310E+02 0.  0.
         23    2    1    2    0    0  0.27170567749E+03  0.63343172564E+02 -0.24200435489E+03  0.38025101823E+03  0.90489758482E+02 0.  0.
        -11    1    3    3    0    0 -0.14829593407E+03  0.18821181865E+02 -0.24951243253E+03  0.29086487401E+03  0.00000000000E+00 0.  1.
         12    1    3    3    0    0 -0.44804193530E+02 -0.15218267525E+02 -0.20395546551E+03  0.20937249900E+03  0.00000000000E+00 0. -1.
        -11    1    4    4    0    0  0.80862350393E+02  0.56875604680E+02 -0.55714675763E+02  0.11347986259E+03  0.00000000000E+00 0.  1.
         11    1    4    4    0    0  0.19084332710E+03  0.64675678841E+01 -0.18628967913E+03  0.26677115564E+03  0.00000000000E+00 0. -1.
          1    1    1    2  501    0 -0.78605549896E+02 -0.66946086905E+02  0.23954324690E+02  0.10599255020E+03  0.00000000000E+00 0. -1.
<scales pt_clust_5="13000.00000" pt_clust_6="13000.00000" pt_clust_7="13000.00000" pt_clust_8="13000.00000" pt_clust_9="103.25023"></scales>
<clustering>
<clus scale="   85.461">  5  6 -1 -1</clus>
<clus scale="   90.490">  7  8 -1 -1</clus>
<clus scale="  103.250">  1  9  2 -1</clus>
<clus scale="  229.864">  2  5  1 -1</clus>
<clus scale="  103.250">  1  5  2 -1</clus>
</clustering>
</event>
<event>
 9    2  0.6469128E-005  0.9125098E+02  0.7546771E-02  0.1306295E+00
         21   -1    0    0  501  502  0.00000000000E+00  0.00000000000E+00  0.82449626430E+02  0.82449626430E+02  0.00000000000E+00 0. -1.
          4   -1    0    0  502    0 -0.00000000000E+00 -0.00000000000E+00 -0.34853769193E+03  0.34853769193E+03  0.00000000000E+00 0. -1.
         23    2    1    2    0    0 -0.38662894077E+01  0.12066064748E+02 -0.26301550021E+03  0.27809856555E+03  0.89448983770E+02 0.  0.
         24    2    1    2    0    0  0.52871990504E+02 -0.22634744939E+02 -0.20380647718E+02  0.99852675869E+02  0.79040540348E+02 0.  0.
        -13    1    4    4    0    0 -0.66850529512E+00 -0.40888215370E+02 -0.12357181715E+02  0.42719936744E+02  0.00000000000E+00 0.  1.
         14    1    4    4    0    0  0.53540495799E+02  0.18253470431E+02 -0.80234660024E+01  0.57132739125E+02  0.00000000000E+00 0. -1.
        -11    1    3    3    0    0 -0.17774349592E+02  0.46871758551E+02 -0.11576108336E+03  0.12614879180E+03  0.00000000000E+00 0.  1.
         11    1    3    3    0    0  0.13908060184E+02 -0.34805693803E+02 -0.14725441685E+03  0.15194977374E+03  0.00000000000E+00 0. -1.
          3    1    1    2  501    0 -0.49005701097E+02  0.10568680191E+02  0.17308082421E+02  0.53036076948E+02  0.00000000000E+00 0. -1.
<scales pt_clust_5="13000.00000" pt_clust_6="13000.00000" pt_clust_7="13000.00000" pt_clust_8="13000.00000" pt_clust_9="50.13238"></scales>
<clustering>
<clus scale="   50.132">  1  9  2 -1</clus>
<clus scale="   79.041">  5  6 -1 -1</clus>
<clus scale="   81.074">  1  5  2 -1</clus>
<clus scale="   89.449">  7  8 -1 -1</clus>
<clus scale="   50.132">  1  5  2 -1</clus>
</clustering>
</event>
<event>
 9    2  0.6469128E-005  0.9655217E+02  0.7546771E-02  0.1292982E+00
          2   -1    0    0  502    0 -0.00000000000E+00  0.00000000000E+00  0.51279366174E+03  0.51279366174E+03  0.00000000000E+00 0. -1.
         21   -1    0    0  501  502  0.00000000000E+00 -0.00000000000E+00 -0.38568851276E+02  0.38568851276E+02  0.00000000000E+00 0. -1.
         23    2    1    2    0    0  0.11241253221E+02 -0.37042169579E+01  0.24830611852E+03  0.26482741794E+03  0.91310162647E+02 0.  0.
         24    2    1    2    0    0 -0.75389892312E+02 -0.36884151207E+01  0.15281236592E+03  0.18899416105E+03  0.81669660595E+02 0.  0.
        -11    1    4    4    0    0  0.43277131755E+01 -0.23101548325E+02  0.12930777887E+02  0.26825652892E+02  0.00000000000E+00 0.  1.
         12    1    4    4    0    0 -0.79717605487E+02  0.19413133204E+02  0.13988158804E+03  0.16216850815E+03  0.00000000000E+00 0. -1.
        -13    1    3    3    0    0 -0.75130426168E+01  0.41885234670E+02  0.10587582316E+03  0.11410744333E+03  0.00000000000E+00 0. -1.
         13    1    3    3    0    0  0.18754295838E+02 -0.45589451628E+02  0.14243029535E+03  0.15071997461E+03  0.00000000000E+00 0.  1.
          1    1    1    2  501    0  0.64148639091E+02  0.73926320786E+01  0.73106326020E+02  0.97540934025E+02  0.00000000000E+00 0. -1.
<scales pt_clust_5="13000.00000" pt_clust_6="13000.00000" pt_clust_7="13000.00000" pt_clust_8="13000.00000" pt_clust_9="64.57321"></scales>
<clustering>
<clus scale="   64.573">  2  9  1 -1</clus>
<clus scale="   81.670">  5  6 -1 -1</clus>
<clus scale="   87.491">  2  5  1 -1</clus>
<clus scale="   91.310">  7  8 -1 -1</clus>
<clus scale="   64.573">  2  5  1 -1</clus>
</clustering>
</event>
<event>
 9    2  0.6469128E-005  0.1444696E+03  0.7546771E-02  0.1221603E+00
         21   -1    0    0  501  502  0.00000000000E+00  0.00000000000E+00  0.19451874745E+03  0.19451874745E+03  0.00000000000E+00 0.  1.
         -1   -1    0    0    0  501 -0.00000000000E+00 -0.00000000000E+00 -0.20177220658E+03  0.20177220658E+03  0.00000000000E+00 0.  1.
         23    2    1    2    0    0  0.35067771283E+02  0.46574363483E+02 -0.41665070622E+02  0.14510308429E+03  0.12617451028E+03 0.  0.
         24    2    1    2    0    0 -0.11629802363E+03 -0.11632749254E+02  0.66933634773E+02  0.15697029018E+03  0.80616433678E+02 0.  0.
        -13    1    4    4    0    0 -0.85746112793E+02  0.29435060349E+02  0.46119115731E+02  0.10171426386E+03  0.00000000000E+00 0.  1.
         14    1    4    4    0    0 -0.30551910837E+02 -0.41067809603E+02  0.20814519042E+02  0.55256026317E+02  0.00000000000E+00 0. -1.
        -11    1    3    3    0    0 -0.33924125208E+02 -0.19044014641E+02  0.47242873781E+01  0.39189790201E+02  0.00000000000E+00 0. -1.
         11    1    3    3    0    0  0.68991896491E+02  0.65618378124E+02 -0.46389358000E+02  0.10591329409E+03  0.00000000000E+00 0.  1.
         -2    1    1    2    0  502  0.81230252347E+02 -0.34941614230E+02 -0.32522023275E+02  0.94217579566E+02  0.00000000000E+00 0.  1.
<scales pt_clust_5="13000.00000" pt_clust_6="13000.00000" pt_clust_7="13000.00000" pt_clust_8="13000.00000" pt_clust_9="88.42668"></scales>
<clustering>
<clus scale="   80.616">  5  6 -1 -1</clus>
<clus scale="   88.427">  1  9  2 -1</clus>
<clus scale="  107.007">  1  5  2 -1</clus>
<clus scale="  126.175">  7  8 -1 -1</clus>
<clus scale="   88.427">  1  5  2 -1</clus>
</clustering>
</event>
<event>
 9    2  0.6469128E-005  0.1398576E+03  0.7546771E-02  0.1216158E+00
         21   -1    0    0  501  502  0.00000000000E+00  0.00000000000E+00  0.20331581068E+03  0.20331581068E+03  0.00000000000E+00 0.  1.
          4   -1    0    0  502    0 -0.00000000000E+00 -0.00000000000E+00 -0.13432149162E+03  0.13432149162E+03  0.00000000000E+00 0. -1.
         23    2    1    2    0    0 -0.39679769236E+02 -0.88142363554E+02  0.27420429376E+01  0.13391844421E+03  0.92644862570E+02 0.  0.
         24    2    1    2    0    0  0.35852686260E+02  0.11507406378E+03  0.87317603989E+02  0.16931375557E+03  0.80717585393E+02 0.  0.
        -13    1    4    4    0    0  0.42480443091E+00  0.83778623339E+02  0.18455873281E+02  0.85788445876E+02  0.00000000000E+00 0.  1.
         14    1    4    4    0    0  0.35427881829E+02  0.31295440443E+02  0.68861730708E+02  0.83525309694E+02  0.00000000000E+00 0. -1.
        -11    1    3    3    0    0 -0.51372025036E+02 -0.72790981767E+01  0.54410359455E+01  0.52169676045E+02  0.00000000000E+00 0. -1.
         11    1    3    3    0    0  0.11692255800E+02 -0.80863265377E+02 -0.26989930079E+01  0.81748768164E+02  0.00000000000E+00 0.  1.
          3    1    1    2  501    0  0.38270829761E+01 -0.26931700228E+02 -0.21065327867E+02  0.34405102520E+02  0.00000000000E+00 0. -1.
<scales pt_clust_5="13000.00000" pt_clust_6="13000.00000" pt_clust_7="13000.00000" pt_clust_8="13000.00000" pt_clust_9="27.20228"></scales>
<clustering>
<clus scale="   27.202">  1  9  2 -1</clus>
<clus scale="   80.718">  5  6 -1 -1</clus>
<clus scale="   92.645">  7  8 -1 -1</clus>
<clus scale="  132.259">  1  5  2 -1</clus>
<clus scale="   27.202">  1  5  2 -1</clus>
</clustering>
</event>
<event>
 9    2  0.6469128E-005  0.1092862E+03  0.7546771E-02  0.1270064E+00
          2   -1    0    0  502    0 -0.00000000000E+00  0.00000000000E+00  0.12967633219E+04  0.12967633219E+04  0.00000000000E+00 0. -1.
         21   -1    0    0  501  502  0.00000000000E+00 -0.00000000000E+00 -0.19362611375E+02  0.19362611375E+02  0.00000000000E+00 0.  1.
         24    2    1    2    0    0 -0.22734574898E+02  0.58836276713E+02  0.10658361418E+04  0.10701112257E+04  0.71782908258E+02 0.  0.
         23    2    1    2    0    0  0.13280923921E+02 -0.35816218015E+02  0.18229050618E+03  0.20759250879E+03  0.91682259181E+02 0.  0.
        -11    1    3    3    0    0 -0.31467410740E+02  0.33594179079E+02  0.27511700291E+03  0.27894109073E+03  0.00000000000E+00 0.  1.
         12    1    3    3    0    0  0.87328358414E+01  0.25242097634E+02  0.79071913889E+03  0.79117013501E+03  0.00000000000E+00 0. -1.
        -11    1    4    4    0    0  0.18965926589E+01  0.30267735509E+02  0.77050777014E+02  0.82804318215E+02  0.00000000000E+00 0. -1.
         11    1    4    4    0    0  0.11384331262E+02 -0.66083953524E+02  0.10523972917E+03  0.12478819057E+03  0.00000000000E+00 0.  1.
          1    1    1    2  501    0  0.94536509775E+01 -0.23020058699E+02  0.29274062550E+02  0.38422198759E+02  0.00000000000E+00 0. -1.
<scales pt_clust_5="13000.00000" pt_clust_6="13000.00000" pt_clust_7="13000.00000" pt_clust_8="13000.00000" pt_clust_9="24.88563"></scales>
<clustering>
<clus scale="   24.886">  2  9  1 -1</clus>
<clus scale="   71.783">  5  6 -1 -1</clus>
<clus scale="   91.682">  7  8 -1 -1</clus>
<clus scale="   93.224">  1  5  2 -1</clus>
<clus scale="   24.886">  2  5  1 -1</clus>
</clustering>
</event>
<event>
 9    2  0.6469128E-005  0.9864901E+02  0.7546771E-02  0.1291851E+00
         21   -1    0    0  501  502  0.00000000000E+00  0.00000000000E+00  0.43199664288E+03  0.43199664288E+03  0.00000000000E+00 0. -1.
          4   -1    0    0  502    0 -0.00000000000E+00 -0.00000000000E+00 -0.72053000014E+02  0.72053000014E+02  0.00000000000E+00 0. -1.
         24    2    1    2    0    0 -0.13857191748E+02 -0.12515571549E+02 -0.18404839613E+02  0.84141786252E+02  0.79952740905E+02 0.  0.
         23    2    1    2    0    0  0.32159623970E+02  0.47553113012E+02  0.14290869859E+03  0.18117264731E+03  0.95420605898E+02 0.  0.
        -11    1    3    3    0    0  0.20525958960E+02  0.21951836297E+02 -0.18811801660E+02  0.35455352060E+02  0.00000000000E+00 0.  1.
         12    1    3    3    0    0 -0.34383150708E+02 -0.34467407845E+02  0.40696204630E+00  0.48686434192E+02  0.00000000000E+00 0. -1.
        -13    1    4    4    0    0  0.37118151521E+02  0.17686641329E+02  0.67233848219E+01  0.41662673429E+02  0.00000000000E+00 0. -1.
         13    1    4    4    0    0 -0.49585275506E+01  0.29866471683E+02  0.13618531377E+03  0.13950997388E+03  0.00000000000E+00 0.  1.
          3    1    1    2  501    0 -0.18302432222E+02 -0.35037541463E+02  0.23543978389E+03  0.23873520933E+03  0.00000000000E+00 0. -1.
<scales pt_clust_5="13000.00000" pt_clust_6="13000.00000" pt_clust_7="13000.00000" pt_clust_8="13000.00000" pt_clust_9="39.52984"></scales>
<clustering>
<clus scale="   39.530">  1  9  2 -1</clus>
<clus scale="   79.953">  5  6 -1 -1</clus>
<clus scale="   83.779">  2  5  1 -1</clus>
<clus scale="   95.421">  7  8 -1 -1</clus>
<clus scale="   39.530">  1  5  2 -1</clus>
</clustering>
</event>
<event>
 9    2  0.6469128E-005  0.9728586E+02  0.7546771E-02  0.1289720E+00
         21   -1    0    0  501  502  0.00000000000E+00  0.00000000000E+00  0.26043547603E+02  0.26043547603E+02  0.00000000000E+00 0.  1.
          2   -1    0    0  502    0 -0.00000000000E+00 -0.00000000000E+00 -0.71453992669E+03  0.71453992669E+03  0.00000000000E+00 0. -1.
         24    2    1    2    0    0 -0.18538884101E+02 -0.32436590574E+02 -0.51994288175E+03  0.52755207280E+03  0.81084934482E+02 0.  0.
         23    2    1    2    0    0  0.28084303066E+02  0.53020602275E+02 -0.12849501685E+03  0.16699339090E+03  0.88181125551E+02 0.  0.
        -11    1    3    3    0    0  0.19305797575E+02  0.17530962677E+02 -0.12810260901E+03  0.13072997708E+03  0.00000000000E+00 0.  1.
         12    1    3    3    0    0 -0.37844681676E+02 -0.49967553250E+02 -0.39184027274E+03  0.39682209572E+03  0.00000000000E+00 0. -1.
        -13    1    4    4    0    0  0.50725100331E+02  0.52572330820E+02 -0.59005223499E+02  0.93906880321E+02  0.00000000000E+00 0.  1.
         13    1    4    4    0    0 -0.22640797265E+02  0.44827145547E+00 -0.69489793351E+02  0.73086510576E+02  0.00000000000E+00 0. -1.
          1    1    1    2  501    0 -0.95454189647E+01 -0.20584011702E+02 -0.40058480491E+02  0.46038010602E+02  0.00000000000E+00 0. -1.
<scales pt_clust_5="13000.00000" pt_clust_6="13000.00000" pt_clust_7="13000.00000" pt_clust_8="13000.00000" pt_clust_9="22.68957"></scales>
<clustering>
<clus scale="   22.690">  1  9  2 -1</clus>
<clus scale="   81.085">  5  6 -1 -1</clus>
<clus scale="   88.181">  7  8 -1 -1</clus>
<clus scale="   90.903">  2  5  1 -1</clus>
<clus scale="   22.690">  1  5  2 -1</clus>
</clustering>
</event>
<event>
 9    2  0.6469128E-005  0.1677251E+03  0.7546771E-02  0.1200550E+00
         21   -1    0    0  501  502  0.00000000000E+00  0.00000000000E+00  0.23002282044E+03  0.23002282044E+03  0.00000000000E+00 0. -1.
          2   -1    0    0  502    0 -0.00000000000E+00 -0.00000000000E+00 -0.31805420877E+03  0.31805420877E+03  0.00000000000E+00 0. -1.
         23    2    1    2    0    0 -0.58770764516E+01 -0.56809864581E+02  0.40938149572E+02  0.11467102092E+03  0.90617935346E+02 0.  0.
         24    2    1    2    0    0 -0.14210262727E+03  0.35562117945E+02 -0.20612790241E+03  0.26517143198E+03  0.79808240658E+02 0.  0.
        -13    1    4    4    0    0 -0.43050289809E+01  0.24424832119E+02 -0.14016343837E+02  0.28487955229E+02  0.00000000000E+00 0.  1.
         14    1    4    4    0    0 -0.13779759829E+03  0.11137285826E+02 -0.19211155857E+03  0.23668347675E+03  0.00000000000E+00 0. -1.
        -13    1    3    3    0    0  0.16467761592E+02 -0.42139247274E+02 -0.18978562343E+02  0.49062094954E+02  0.00000000000E+00 0. -1.
         13    1    3    3    0    0 -0.22344838043E+02 -0.14670617307E+02  0.59916711915E+02  0.65608925963E+02  0.00000000000E+00 0.  1.
          1    1    1    2  501    0  0.14797970372E+03  0.21247746637E+02  0.77158364508E+02  0.16823457631E+03  0.00000000000E+00 0. -1.
<scales pt_clust_5="13000.00000" pt_clust_6="13000.00000" pt_clust_7="13000.00000" pt_clust_8="13000.00000" pt_clust_9="147.52067"></scales>
<clustering>
<clus scale="   79.808">  5  6 -1 -1</clus>
<clus scale="   90.618">  7  8 -1 -1</clus>
<clus scale="  107.115">  2  7  1 -1</clus>
<clus scale="  147.521">  1  9  2 -1</clus>
<clus scale="  147.521">  1  5  2 -1</clus>
</clustering>
</event>
<event>
 9    2  0.6469128E-005  0.9341342E+02  0.7546771E-02  0.1299947E+00
         21   -1    0    0  501  502  0.00000000000E+00  0.00000000000E+00  0.32736869559E+02  0.32736869559E+02  0.00000000000E+00 0. -1.
         -1   -1    0    0    0  501 -0.00000000000E+00 -0.00000000000E+00 -0.46217054704E+03  0.46217054704E+03  0.00000000000E+00 0.  1.
         24    2    1    2    0    0  0.17561114731E+02 -0.18660668136E+02 -0.18145376669E+03  0.19921971444E+03  0.78143533894E+02 0.  0.
         23    2    1    2    0    0  0.12600773297E+02  0.60159288025E+02 -0.13936501993E+03  0.17556664048E+03  0.87310463554E+02 0.  0.
        -11    1    3    3    0    0 -0.17187947262E+02 -0.37761459190E+02 -0.76523914668E+02  0.87047474675E+02  0.00000000000E+00 0.  1.
         12    1    3    3    0    0  0.34749061993E+02  0.19100791054E+02 -0.10492985202E+03  0.11217223976E+03  0.00000000000E+00 0. -1.
        -13    1    4    4    0    0  0.35798819822E+02  0.61238712123E+02 -0.13417328633E+03  0.15177024124E+03  0.00000000000E+00 0.  1.
         13    1    4    4    0    0 -0.23198046525E+02 -0.10794240972E+01 -0.51917336058E+01  0.23796399240E+02  0.00000000000E+00 0. -1.
         -2    1    1    2    0  502 -0.30161888028E+02 -0.41498619889E+02 -0.10861489086E+03  0.12012106167E+03  0.00000000000E+00 0.  1.
<scales pt_clust_5="13000.00000" pt_clust_6="13000.00000" pt_clust_7="13000.00000" pt_clust_8="13000.00000" pt_clust_9="51.30183"></scales>
<clustering>
<clus scale="   51.302">  1  9  2 -1</clus>
<clus scale="   78.144">  5  6 -1 -1</clus>
<clus scale="   84.908">  2  5  1 -1</clus>
<clus scale="   87.310">  7  8 -1 -1</clus>
<clus scale="   51.302">  1  5  2 -1</clus>
</clustering>
</event>
<event>
 9    2  0.6469128E-005  0.1127388E+03  0.7546771E-02  0.1259284E+00
         21   -1    0    0  501  502  0.00000000000E+00  0.00000000000E+00  0.22046937114E+02  0.22046937114E+02  0.00000000000E+00 0. -1.
          2   -1    0    0  502    0 -0.00000000000E+00 -0.00000000000E+00 -0.79027422793E+03  0.79027422793E+03  0.00000000000E+00 0. -1.
         24    2    1    2    0    0 -0.94375694697E+01 -0.55209366754E+02 -0.33294098712E+03  0.34722452133E+03  0.81105027042E+02 0.  0.
         23    2    1    2    0    0 -0.13721906913E+02  0.85050918486E+02 -0.31620624915E+03  0.34016890882E+03  0.91140249402E+02 0.  0.
        -11    1    3    3    0    0 -0.21916738558E+01 -0.21532652143E+02 -0.12615481660E+02  0.25052124064E+02  0.00000000000E+00 0.  1.
         12    1    3    3    0    0 -0.72458956139E+01 -0.33676714611E+02 -0.32032550546E+03  0.32217239726E+03  0.00000000000E+00 0. -1.
        -11    1    4    4    0    0 -0.37153673700E+02  0.91859190552E+02 -0.22697189874E+03  0.24765853342E+03  0.00000000000E+00 0. -1.
         11    1    4    4    0    0  0.23431766788E+02 -0.68082720665E+01 -0.89234350408E+02  0.92510375397E+02  0.00000000000E+00 0.  1.
          1    1    1    2  501    0  0.23159476382E+02 -0.29841551732E+02 -0.11908005455E+03  0.12492773490E+03  0.00000000000E+00 0. -1.
<scales pt_clust_5="13000.00000" pt_clust_6="13000.00000" pt_clust_7="13000.00000" pt_clust_8="13000.00000" pt_clust_9="37.77408"></scales>
<clustering>
<clus scale="   37.774">  1  9  2 -1</clus>
<clus scale="   81.105">  5  6 -1 -1</clus>
<clus scale="   91.140">  7  8 -1 -1</clus>
<clus scale="  104.793">  2  5  1 -1</clus>
<clus scale="   37.774">  1  5  2 -1</clus>
</clustering>
</event>
<event>
 9    2  0.6764829E-005  0.9771082E+02  0.7546771E-02  0.1290408E+00
          2   -1    0    0  502    0 -0.00000000000E+00  0.00000000000E+00  0.23413615908E+03  0.23413615908E+03  0.00000000000E+00 0. -1.
         21   -1    0    0  501  502  0.00000000000E+00 -0.00000000000E+00 -0.14224651272E+03  0.14224651272E+03  0.00000000000E+00 0. -1.
         23    2    1    2    0    0  0.16349160022E+02  0.38172257385E+02  0.19647251254E+03  0.22018541605E+03  0.90309207668E+02 0.  0.
         24    2    1    2    0    0  0.78678588857E+00 -0.80260294768E+01 -0.65653265864E+02  0.10406329866E+03  0.80335438188E+02 0.  0.
        -13    1    4    4    0    0 -0.62223927824E+00 -0.34261908420E+02 -0.10075251791E+01  0.34282366565E+02  0.00000000000E+00 0.  1.
         14    1    4    4    0    0  0.14090251668E+01  0.26235878943E+02 -0.64645740685E+02  0.69780932098E+02  0.00000000000E+00 0. -1.
        -11    1    3    3    0    0 -0.28486231205E+02  0.85890822479E+00  0.21366045178E+02  0.35618969358E+02  0.00000000000E+00 0.  1.
         11    1    3    3    0    0  0.44835391227E+02  0.37313349160E+02  0.17510646737E+03  0.18456644669E+03  0.00000000000E+00 0. -1.
          1    1    1    2  501    0 -0.17135945910E+02 -0.30146227908E+02 -0.38929600324E+02  0.52133957079E+02  0.00000000000E+00 0. -1.
<scales pt_clust_5="13000.00000" pt_clust_6="13000.00000" pt_clust_7="13000.00000" pt_clust_8="13000.00000" pt_clust_9="34.67615"></scales>
<clustering>
<clus scale="   34.676">  2  9  1 -1</clus>
<clus scale="   80.335">  5  6 -1 -1</clus>
<clus scale="   88.574">  2  5  1 -1</clus>
<clus scale="   90.309">  7  8 -1 -1</clus>
<clus scale="   34.676">  2  5  1 -1</clus>
</clustering>
</event>
<event>
 9    2  0.6469128E-005  0.1327056E+03  0.7546771E-02  0.1226415E+00
         21   -1    0    0  501  502  0.00000000000E+00  0.00000000000E+00  0.40585113204E+03  0.40585113204E+03  0.00000000000E+00 0. -1.
          4   -1    0    0  502    0 -0.00000000000E+00 -0.00000000000E+00 -0.70788013899E+02  0.70788013899E+02  0.00000000000E+00 0. -1.
         23    2    1    2    0    0 -0.20421334649E+02 -0.12766811918E+03  0.12692185390E+03  0.20261196170E+03  0.90698789739E+02 0.  0.
         24    2    1    2    0    0  0.15939760707E+02  0.59601584117E+02  0.16602977040E+03  0.19386163295E+03  0.78803700874E+02 0.  0.
        -13    1    4    4    0    0  0.42968856733E+02  0.13174483448E+02  0.59645241593E+02  0.74682290456E+02  0.00000000000E+00 0.  1.
         14    1    4    4    0    0 -0.27029096026E+02  0.46427100669E+02  0.10638452881E+03  0.11917934250E+03  0.00000000000E+00 0. -1.
        -13    1    3    3    0    0 -0.46236690867E+02 -0.85662202310E+02  0.45562967847E+02  0.10747943304E+03  0.00000000000E+00 0. -1.
         13    1    3    3    0    0  0.25815356217E+02 -0.42005916869E+02  0.81358886056E+02  0.95132528659E+02  0.00000000000E+00 0.  1.
          3    1    1    2  501    0  0.44815739419E+01  0.68066535063E+02  0.42111493838E+02  0.80165551290E+02  0.00000000000E+00 0. -1.
<scales pt_clust_5="13000.00000" pt_clust_6="13000.00000" pt_clust_7="13000.00000" pt_clust_8="13000.00000" pt_clust_9="68.21395"></scales>
<clustering>
<clus scale="   68.214">  1  9  2 -1</clus>
<clus scale="   78.804">  5  6 -1 -1</clus>
<clus scale="   90.699">  7  8 -1 -1</clus>
<clus scale="  124.878">  1  5  2 -1</clus>
<clus scale="   68.214">  1  5  2 -1</clus>
</clustering>
</event>
<event>
 9    2  0.6469128E-005  0.1733855E+03  0.7546771E-02  0.1196702E+00
          2   -1    0    0  502    0 -0.00000000000E+00  0.00000000000E+00  0.18644833989E+04  0.18644833989E+04  0.00000000000E+00 0. -1.
         21   -1    0    0  501  502  0.00000000000E+00 -0.00000000000E+00 -0.29151148936E+02  0.29151148936E+02  0.00000000000E+00 0. -1.
         23    2    1    2    0    0  0.84612685388E+01  0.61307359351E+02  0.21877493057E+03  0.24285539125E+03  0.85358569820E+02 0.  0.
         24    2    1    2    0    0 -0.74834707770E+02  0.10170337816E+03  0.93445013195E+03  0.94633033008E+03  0.80001462009E+02 0.  0.
        -13    1    4    4    0    0 -0.10188726323E+02  0.29506206867E+02  0.72303433178E+02  0.78754129016E+02  0.00000000000E+00 0.  1.
         14    1    4    4    0    0 -0.64645981448E+02  0.72197171296E+02  0.86214669877E+03  0.86757620107E+03  0.00000000000E+00 0. -1.
        -13    1    3    3    0    0  0.27948816997E+02  0.75903834452E+02  0.16162597081E+03  0.18073594799E+03  0.00000000000E+00 0. -1.
         13    1    3    3    0    0 -0.19487548458E+02 -0.14596475100E+02  0.57148959760E+02  0.62119443268E+02  0.00000000000E+00 0.  1.
          1    1    1    2  501    0  0.66373439231E+02 -0.16301073751E+03  0.68210718746E+03  0.70444882651E+03  0.00000000000E+00 0. -1.
<scales pt_clust_5="13000.00000" pt_clust_6="13000.00000" pt_clust_7="13000.00000" pt_clust_8="13000.00000" pt_clust_9="153.82549"></scales>
<clustering>
<clus scale="   80.001">  5  6 -1 -1</clus>
<clus scale="   85.359">  7  8 -1 -1</clus>
<clus scale="  105.434">  1  7  2 -1</clus>
<clus scale="  153.825">  2  9  1 -1</clus>
<clus scale="  153.825">  2  5  1 -1</clus>
</clustering>
</event>
<event>
 9    2  0.6469128E-005  0.1038819E+03  0.7546771E-02  0.1277564E+00
         21   -1    0    0  501  502  0.00000000000E+00  0.00000000000E+00  0.46246595314E+02  0.46246595314E+02  0.00000000000E+00 0. -1.
          2   -1    0    0  502    0 -0.00000000000E+00 -0.00000000000E+00 -0.45980463648E+03  0.45980463648E+03  0.00000000000E+00 0. -1.
         23    2    1    2    0    0 -0.42080494791E+02 -0.24371368381E+02 -0.23902217301E+03  0.26075334684E+03  0.92173624511E+02 0.  0.
         24    2    1    2    0    0  0.52937328580E+02 -0.10042511576E+02 -0.18392836535E+03  0.20800975042E+03  0.80840583221E+02 0.  0.
        -11    1    4    4    0    0  0.48209051239E+02  0.30018237000E+02 -0.10536455072E+03  0.11969501127E+03  0.00000000000E+00 0.  1.
         12    1    4    4    0    0  0.47282773404E+01 -0.40060748576E+02 -0.78563814632E+02  0.88314739158E+02  0.00000000000E+00 0. -1.
        -13    1    3    3    0    0 -0.20546415993E+02  0.30396893297E+02 -0.45325600359E+02  0.58314118190E+02  0.00000000000E+00 0.  1.
         13    1    3    3    0    0 -0.21534078797E+02 -0.54768261679E+02 -0.19369657265E+03  0.20243922865E+03  0.00000000000E+00 0. -1.
          1    1    1    2  501    0 -0.10856833789E+02  0.34413879958E+02  0.93924971947E+01  0.37288134537E+02  0.00000000000E+00 0. -1.
<scales pt_clust_5="13000.00000" pt_clust_6="13000.00000" pt_clust_7="13000.00000" pt_clust_8="13000.00000" pt_clust_9="36.08581"></scales>
<clustering>
<clus scale="   36.086">  1  9  2 -1</clus>
<clus scale="   80.841">  5  6 -1 -1</clus>
<clus scale="   92.174">  7  8 -1 -1</clus>
<clus scale="   93.972">  1  5  2 -1</clus>
<clus scale="   36.086">  1  5  2 -1</clus>
</clustering>
</event>
<event>
 9    2  0.6469128E-005  0.1050464E+03  0.7546771E-02  0.1275838E+00
         21   -1    0    0  501  502  0.00000000000E+00  0.00000000000E+00  0.95342562295E+02  0.95342562295E+02  0.00000000000E+00 0.  1.
         -1   -1    0    0    0  501 -0.00000000000E+00 -0.00000000000E+00 -0.34671293985E+03  0.34671293985E+03  0.00000000000E+00 0.  1.
         24    2    1    2    0    0  0.51453334479E+02 -0.18203941634E+01 -0.23147771585E+03  0.25008750805E+03  0.79442238640E+02 0.  0.
         23    2    1    2    0    0 -0.35652477228E+02  0.37148330960E+02  0.46213639375E+02  0.11536660214E+03  0.92318225717E+02 0.  0.
        -13    1    3    3    0    0  0.44467024080E+02 -0.37245800252E+01 -0.23688434469E+03  0.24105057869E+03  0.00000000000E+00 0.  1.
         14    1    3    3    0    0  0.69863103993E+01  0.19041858618E+01  0.54066288382E+01  0.90369293560E+01  0.00000000000E+00 0. -1.
        -13    1    4    4    0    0 -0.26914835689E+02  0.13556421109E+02  0.72783553915E+02  0.78775825314E+02  0.00000000000E+00 0.  1.
         13    1    4    4    0    0 -0.87376415386E+01  0.23591909850E+02 -0.26569914540E+02  0.36590776826E+02  0.00000000000E+00 0. -1.
         -2    1    1    2    0  502 -0.15800857251E+02 -0.35327936796E+02 -0.66106301076E+02  0.76601391959E+02  0.00000000000E+00 0.  1.
<scales pt_clust_5="13000.00000" pt_clust_6="13000.00000" pt_clust_7="13000.00000" pt_clust_8="13000.00000" pt_clust_9="38.70054"></scales>
<clustering>
<clus scale="   38.701">  1  9  2 -1</clus>
<clus scale="   79.442">  5  6 -1 -1</clus>
<clus scale="   92.318">  7  8 -1 -1</clus>
<clus scale="   93.932">  2  5  1 -1</clus>
<clus scale="   38.701">  1  5  2 -1</clus>
</clustering>
</event>
<event>
 9    2  0.6469128E-005  0.1118887E+03  0.7546771E-02  0.1260736E+00
         -3   -1    0    0    0  501 -0.00000000000E+00  0.00000000000E+00  0.16795596361E+03  0.16795596361E+03  0.00000000000E+00 0.  1.
         21   -1    0    0  501  502  0.00000000000E+00 -0.00000000000E+00 -0.60671649200E+03  0.60671649200E+03  0.00000000000E+00 0.  1.
         24    2    1    2    0    0  0.34986989622E+02 -0.47672046343E+02 -0.69118156883E+02  0.12097499662E+03  0.79755355626E+02 0.  0.
         23    2    1    2    0    0 -0.53098179167E+02  0.96109427849E+02 -0.49669950233E+03  0.51651980190E+03  0.89587227814E+02 0.  0.
        -13    1    3    3    0    0 -0.15148269965E+02 -0.44155645721E+02 -0.20282414514E+02  0.50897617532E+02  0.00000000000E+00 0.  1.
         14    1    3    3    0    0  0.50135259587E+02 -0.35164006225E+01 -0.48835742369E+02  0.70077379088E+02  0.00000000000E+00 0. -1.
        -11    1    4    4    0    0  0.17077590472E+01  0.42958840994E+02 -0.63762370873E+02  0.76902655350E+02  0.00000000000E+00 0. -1.
         11    1    4    4    0    0 -0.54805938214E+02  0.53150586855E+02 -0.43293713145E+03  0.43961714655E+03  0.00000000000E+00 0.  1.
         -4    1    1    2    0  502  0.18111189545E+02 -0.48437381506E+02  0.12705713082E+03  0.13717765710E+03  0.00000000000E+00 0.  1.
<scales pt_clust_5="13000.00000" pt_clust_6="13000.00000" pt_clust_7="13000.00000" pt_clust_8="13000.00000" pt_clust_9="51.71265"></scales>
<clustering>
<clus scale="   51.713">  2  9  1 -1</clus>
<clus scale="   79.755">  5  6 -1 -1</clus>
<clus scale="   89.587">  7  8 -1 -1</clus>
<clus scale="  104.183">  1  5  2 -1</clus>
<clus scale="   51.713">  2  5  1 -1</clus>
</clustering>
</event>
<event>
 9    2  0.6469128E-005  0.9972728E+02  0.7546771E-02  0.1284695E+00
          2   -1    0    0  502    0 -0.00000000000E+00  0.00000000000E+00  0.19907194359E+03  0.19907194359E+03  0.00000000000E+00 0. -1.
         21   -1    0    0  501  502  0.00000000000E+00 -0.00000000000E+00 -0.19832966719E+03  0.19832966719E+03  0.00000000000E+00 0. -1.
         23    2    1    2    0    0 -0.32557555785E+01  0.11707574226E+02  0.48878351219E+02  0.10332863456E+03  0.90222204934E+02 0.  0.
         24    2    1    2    0    0  0.38174733757E+02 -0.60112683898E+02  0.91464115216E+02  0.14224872672E+03  0.82451020726E+02 0.  0.
        -11    1    4    4    0    0 -0.13157282375E+01 -0.64476196698E+02  0.75850464169E+02  0.99560052210E+02  0.00000000000E+00 0.  1.
         12    1    4    4    0    0  0.39490461995E+02  0.43635128002E+01  0.15613651048E+02  0.42688674512E+02  0.00000000000E+00 0. -1.
        -13    1    3    3    0    0 -0.44022202423E+02  0.19388515871E+02  0.17026351527E+02  0.51027105544E+02  0.00000000000E+00 0. -1.
         13    1    3    3    0    0  0.40766446845E+02 -0.76809416448E+01  0.31851999692E+02  0.52301529015E+02  0.00000000000E+00 0.  1.
          1    1    1    2  501    0 -0.34918978179E+02  0.48405109672E+02 -0.13960019004E+03  0.15182424951E+03  0.00000000000E+00 0. -1.
<scales pt_clust_5="13000.00000" pt_clust_6="13000.00000" pt_clust_7="13000.00000" pt_clust_8="13000.00000" pt_clust_9="59.68576"></scales>
<clustering>
<clus scale="   59.686">  2  9  1 -1</clus>
<clus scale="   82.451">  5  6 -1 -1</clus>
<clus scale="   90.222">  7  8 -1 -1</clus>
<clus scale="   92.756">  2  5  1 -1</clus>
<clus scale="   59.686">  2  5  1 -1</clus>
</clustering>
</event>
<event>
 9    2  0.6469128E-005  0.8815893E+02  0.7546771E-02  0.1310677E+00
          2   -1    0    0  502    0 -0.00000000000E+00  0.00000000000E+00  0.26684700325E+03  0.26684700325E+03  0.00000000000E+00 0. -1.
         21   -1    0    0  501  502  0.00000000000E+00 -0.00000000000E+00 -0.76311286585E+02  0.76311286585E+02  0.00000000000E+00 0.  1.
         23    2    1    2    0    0  0.27198622595E+02  0.10182402812E+02  0.17834914457E+03  0.20021662653E+03  0.86225482151E+02 0.  0.
         24    2    1    2    0    0  0.28510819472E+02 -0.11874975359E+02  0.88881008766E+01  0.87108996796E+02  0.80963554262E+02 0.  0.
        -11    1    4    4    0    0  0.82977860013E+01  0.30434171389E+02 -0.14490928643E+02  0.34714248567E+02  0.00000000000E+00 0.  1.
         12    1    4    4    0    0  0.20213033471E+02 -0.42309146748E+02  0.23379029520E+02  0.52394748228E+02  0.00000000000E+00 0. -1.
        -11    1    3    3    0    0  0.76030065106E+01  0.44598907962E+02  0.58249252516E+02  0.73755296204E+02  0.00000000000E+00 0.  1.
         11    1    3    3    0    0  0.19595616084E+02 -0.34416505150E+02  0.12009989206E+03  0.12646133033E+03  0.00000000000E+00 0. -1.
          1    1    1    2  501    0 -0.55709442067E+02  0.16925725469E+01  0.32984712182E+01  0.55832666510E+02  0.00000000000E+00 0. -1.
<scales pt_clust_5="13000.00000" pt_clust_6="13000.00000" pt_clust_7="13000.00000" pt_clust_8="13000.00000" pt_clust_9="55.73515"></scales>
<clustering>
<clus scale="   55.735">  2  9  1 -1</clus>
<clus scale="   80.964">  5  6 -1 -1</clus>
<clus scale="   83.020">  2  5  1 -1</clus>
<clus scale="   86.225">  7  8 -1 -1</clus>
<clus scale="   55.735">  2  5  1 -1</clus>
</clustering>
</event>
<event>
 9    2  0.6469128E-005  0.1694786E+03  0.7546771E-02  0.1193514E+00
         21   -1    0    0  501  502  0.00000000000E+00  0.00000000000E+00  0.61812897398E+03  0.61812897398E+03  0.00000000000E+00 0.  1.
         -1   -1    0    0    0  501 -0.00000000000E+00 -0.00000000000E+00 -0.16039430422E+03  0.16039430422E+03  0.00000000000E+00 0.  1.
         24    2    1    2    0    0  0.72223928705E+02  0.52389939961E+02 -0.63306675783E+02  0.13661345680E+03  0.81819922358E+02 0.  0.
         23    2    1    2    0    0  0.84275661773E+02 -0.21651192054E+02  0.36069587292E+02  0.13138597401E+03  0.91597476788E+02 0.  0.
        -11    1    3    3    0    0  0.33962869296E+02  0.26888695601E+02 -0.77248773038E+02  0.88565520254E+02  0.00000000000E+00 0.  1.
         12    1    3    3    0    0  0.38261059408E+02  0.25501244360E+02  0.13942097255E+02  0.48047936551E+02  0.00000000000E+00 0. -1.
        -13    1    4    4    0    0  0.28737764355E+02 -0.43333924658E+02 -0.13645238593E+02  0.53757610276E+02  0.00000000000E+00 0. -1.
         13    1    4    4    0    0  0.55537897418E+02  0.21682732604E+02  0.49714825885E+02  0.77628363731E+02  0.00000000000E+00 0.  1.
         -2    1    1    2    0  502 -0.15649959048E+03 -0.30738747907E+02  0.48497175825E+03  0.51052384738E+03  0.00000000000E+00 0.  1.
<scales pt_clust_5="13000.00000" pt_clust_6="13000.00000" pt_clust_7="13000.00000" pt_clust_8="13000.00000" pt_clust_9="142.59343"></scales>
<clustering>
<clus scale="   81.820">  5  6 -1 -1</clus>
<clus scale="   91.597">  7  8 -1 -1</clus>
<clus scale="  121.060">  2  5  1 -1</clus>
<clus scale="  142.593">  1  9  2 -1</clus>
<clus scale="  142.593">  1  5  2 -1</clus>
</clustering>
</event>
<event>
 9    2  0.6469128E-005  0.9490885E+02  0.7546771E-02  0.1298355E+00
          2   -1    0    0  502    0 -0.00000000000E+00  0.00000000000E+00  0.40129192280E+03  0.40129192280E+03  0.00000000000E+00 0. -1.
         21   -1    0    0  501  502  0.00000000000E+00 -0.00000000000E+00 -0.16179174369E+03  0.16179174369E+03  0.00000000000E+00 0. -1.
         24    2    1    2    0    0  0.23443576378E+02 -0.23639218379E+01  0.37106602414E+03  0.38031230133E+03  0.79951628319E+02 0.  0.
         23    2    1    2    0    0 -0.22003789460E+02  0.29296750642E+02 -0.93656885021E+02  0.13624675336E+03  0.91918982484E+02 0.  0.
        -11    1    3    3    0    0 -0.21364676619E+02  0.22070046860E+02  0.17709740435E+03  0.17974155613E+03  0.00000000000E+00 0.  1.
         12    1    3    3    0    0  0.44808252998E+02 -0.24433968698E+02  0.19396861980E+03  0.20057074520E+03  0.00000000000E+00 0. -1.
        -11    1    4    4    0    0  0.32566775015E+02  0.27380542321E+02 -0.28386070048E+02  0.51147413477E+02  0.00000000000E+00 0. -1.
         11    1    4    4    0    0 -0.54570564476E+02  0.19162083217E+01 -0.65270814973E+02  0.85099339884E+02  0.00000000000E+00 0.  1.
          1    1    1    2  501    0 -0.14397869178E+01 -0.26932828804E+02 -0.37908960014E+02  0.46524611800E+02  0.00000000000E+00 0. -1.
<scales pt_clust_5="13000.00000" pt_clust_6="13000.00000" pt_clust_7="13000.00000" pt_clust_8="13000.00000" pt_clust_9="26.97129"></scales>
<clustering>
<clus scale="   26.971">  2  9  1 -1</clus>
<clus scale="   79.952">  5  6 -1 -1</clus>
<clus scale="   83.372">  1  5  2 -1</clus>
<clus scale="   91.919">  7  8 -1 -1</clus>
<clus scale="   26.971">  2  5  1 -1</clus>
</clustering>
</event>
<event>
 9    2  0.6469128E-005  0.1245465E+03  0.7546771E-02  0.1254255E+00
          4   -1    0    0  502    0 -0.00000000000E+00  0.00000000000E+00  0.57121219299E+03  0.57121219299E+03  0.00000000000E+00 0. -1.
         21   -1    0    0  501  502  0.00000000000E+00 -0.00000000000E+00 -0.57042133548E+02  0.57042133548E+02  0.00000000000E+00 0.  1.
         24    2    1    2    0    0 -0.10661337878E+02  0.30271762032E+02  0.10507507687E+03  0.13568258916E+03  0.79617520185E+02 0.  0.
         23    2    1    2    0    0 -0.80995818823E+02 -0.22732596054E+02  0.72445196423E+02  0.14358613321E+03  0.91058100006E+02 0.  0.
        -13    1    3    3    0    0  0.13115375828E+02 -0.23476818396E+02  0.37122194599E+02  0.45839190842E+02  0.00000000000E+00 0.  1.
         14    1    3    3    0    0 -0.23776713706E+02  0.53748580428E+02  0.67952882267E+02  0.89843398316E+02  0.00000000000E+00 0. -1.
        -11    1    4    4    0    0 -0.78564874809E+02 -0.45309005121E+02  0.78650228066E+02  0.12004667373E+03  0.00000000000E+00 0. -1.
         11    1    4    4    0    0 -0.24309440136E+01  0.22576409067E+02 -0.62050316428E+01  0.23539459485E+02  0.00000000000E+00 0.  1.
          3    1    1    2  501    0  0.91657156700E+02 -0.75391659774E+01  0.33664978616E+03  0.34898560417E+03  0.00000000000E+00 0. -1.
<scales pt_clust_5="13000.00000" pt_clust_6="13000.00000" pt_clust_7="13000.00000" pt_clust_8="13000.00000" pt_clust_9="84.97213"></scales>
<clustering>
<clus scale="   79.618">  5  6 -1 -1</clus>
<clus scale="   85.843">  1  5  2 -1</clus>
<clus scale="   84.972">  2  9  1 -1</clus>
<clus scale="   91.058">  7  8 -1 -1</clus>
<clus scale="   84.972">  2  5  1 -1</clus>
</clustering>
</event>
<event>
 9    2  0.6469128E-005  0.1352684E+03  0.7546771E-02  0.1241481E+00
         21   -1    0    0  501  502  0.00000000000E+00  0.00000000000E+00  0.21572672636E+03  0.21572672636E+03  0.00000000000E+00 0. -1.
          2   -1    0    0  502    0 -0.00000000000E+00 -0.00000000000E+00 -0.13204118832E+03  0.13204118832E+03  0.00000000000E+00 0. -1.
         24    2    1    2    0    0 -0.27681904588E+02 -0.15287522572E+02  0.41761050076E+02  0.96110091660E+02  0.80580197489E+02 0.  0.
         23    2    1    2    0    0  0.36790327353E+02  0.10688027462E+03 -0.71363334521E+01  0.14735461219E+03  0.94263106191E+02 0.  0.
        -11    1    3    3    0    0 -0.54897560472E+02 -0.19859112254E+02  0.23033862285E+02  0.62758945953E+02  0.00000000000E+00 0.  1.
         12    1    3    3    0    0  0.27215655884E+02  0.45715896816E+01  0.18727187791E+02  0.33351145707E+02  0.00000000000E+00 0. -1.
        -11    1    4    4    0    0  0.66235098244E+02  0.93571155138E+02 -0.21677236194E+01  0.11466188704E+03  0.00000000000E+00 0. -1.
         11    1    4    4    0    0 -0.29444770890E+02  0.13309119479E+02 -0.49686098327E+01  0.32692725150E+02  0.00000000000E+00 0.  1.
          1    1    1    2  501    0 -0.91084227653E+01 -0.91592752045E+02  0.49060821417E+02  0.10430321084E+03  0.00000000000E+00 0. -1.
<scales pt_clust_5="13000.00000" pt_clust_6="13000.00000" pt_clust_7="13000.00000" pt_clust_8="13000.00000" pt_clust_9="97.01554"></scales>
<clustering>
<clus scale="   80.580">  5  6 -1 -1</clus>
<clus scale="   86.563">  2  5  1 -1</clus>
<clus scale="   94.263">  7  8 -1 -1</clus>
<clus scale="   97.016">  1  9  2 -1</clus>
<clus scale="   97.016">  1  5  2 -1</clus>
</clustering>
</event>
<event>
 9    2  0.6469128E-005  0.9018738E+02  0.7546771E-02  0.1306430E+00
         -1   -1    0    0    0  501 -0.00000000000E+00  0.00000000000E+00  0.30687378597E+03  0.30687378597E+03  0.00000000000E+00 0.  1.
         21   -1    0    0  501  502  0.00000000000E+00 -0.00000000000E+00 -0.49256509259E+02  0.49256509259E+02  0.00000000000E+00 0.  1.
         24    2    1    2    0    0 -0.15392461779E+02 -0.20056189826E+02  0.22798325985E+03  0.24322167343E+03  0.80877914323E+02 0.  0.
         23    2    1    2    0    0 -0.33499192952E+00  0.72489393666E+01  0.18370508232E+02  0.89708512077E+02  0.87507041001E+02 0.  0.
        -11    1    3    3    0    0 -0.24106078539E+02 -0.45571688194E+02  0.18841098874E+03  0.19533709956E+03  0.00000000000E+00 0.  1.
         12    1    3    3    0    0  0.87136167594E+01  0.25515498367E+02  0.39572271114E+02  0.47884573874E+02  0.00000000000E+00 0. -1.
        -11    1    4    4    0    0 -0.36181548737E+02 -0.10331716264E+02  0.30000431901E+02  0.48123536281E+02  0.00000000000E+00 0. -1.
         11    1    4    4    0    0  0.35846556807E+02  0.17580655631E+02 -0.11629923669E+02  0.41584975795E+02  0.00000000000E+00 0.  1.
         -2    1    1    2    0  502  0.15727453709E+02  0.12807250459E+02  0.11263508635E+02  0.23200109725E+02  0.00000000000E+00 0.  1.
<scales pt_clust_5="13000.00000" pt_clust_6="13000.00000" pt_clust_7="13000.00000" pt_clust_8="13000.00000" pt_clust_9="20.28247"></scales>
<clustering>
<clus scale="   20.282">  2  9  1 -1</clus>
<clus scale="   80.878">  5  6 -1 -1</clus>
<clus scale="   83.771">  1  5  2 -1</clus>
<clus scale="   87.507">  7  8 -1 -1</clus>
<clus scale="   20.282">  2  5  1 -1</clus>
</clustering>
</event>
<event>
 9    2  0.6469128E-005  0.1509683E+03  0.7546771E-02  0.1201490E+00
         21   -1    0    0  501  502  0.00000000000E+00  0.00000000000E+00  0.12968979000E+03  0.12968979000E+03  0.00000000000E+00 0.  1.
          2   -1    0    0  502    0 -0.00000000000E+00 -0.00000000000E+00 -0.36365893028E+03  0.36365893028E+03  0.00000000000E+00 0. -1.
         24    2    1    2    0    0  0.99436707700E+02 -0.59289526224E+02 -0.25460560736E+03  0.29099283275E+03  0.80311310867E+02 0.  0.
         23    2    1    2    0    0 -0.12569416238E+03  0.63014256884E+02  0.35543672231E+02  0.17193299632E+03  0.92345999172E+02 0.  0.
        -11    1    3    3    0    0  0.52523616550E+02  0.13352638587E+02 -0.10630820868E+03  0.11932501198E+03  0.00000000000E+00 0.  1.
         12    1    3    3    0    0  0.46913091150E+02 -0.72642164811E+02 -0.14829739868E+03  0.17166782076E+03  0.00000000000E+00 0. -1.
        -11    1    4    4    0    0 -0.46597463326E+02 -0.15054320662E+02  0.36032047121E+02  0.60796912576E+02  0.00000000000E+00 0.  1.
         11    1    4    4    0    0 -0.79096699050E+02  0.78068577546E+02 -0.48837489031E+00  0.11113608375E+03  0.00000000000E+00 0. -1.
          1    1    1    2  501    0  0.26257454676E+02 -0.37247306599E+01 -0.14907205148E+02  0.30422891215E+02  0.00000000000E+00 0. -1.
<scales pt_clust_5="13000.00000" pt_clust_6="13000.00000" pt_clust_7="13000.00000" pt_clust_8="13000.00000" pt_clust_9="26.52034"></scales>
<clustering>
<clus scale="   26.520">  1  9  2 -1</clus>
<clus scale="   80.311">  5  6 -1 -1</clus>
<clus scale="   92.346">  7  8 -1 -1</clus>
<clus scale="  143.922">  2  5  1 -1</clus>
<clus scale="   26.520">  1  5  2 -1</clus>
</clustering>
</event>
<event>
 9    2  0.6469128E-005  0.9998392E+02  0.7546771E-02  0.1284917E+00
         21   -1    0    0  501  502  0.00000000000E+00  0.00000000000E+00  0.74818876674E+02  0.74818876674E+02  0.00000000000E+00 0. -1.
          2   -1    0    0  502    0 -0.00000000000E+00 -0.00000000000E+00 -0.44313098239E+03  0.44313098239E+03  0.00000000000E+00 0. -1.
         24    2    1    2    0    0 -0.49275990518E+01  0.32366881858E+02 -0.26408012836E+03  0.27833231826E+03  0.81600667395E+02 0.  0.
         23    2    1    2    0    0  0.52299594896E+01 -0.65528820791E+02 -0.14738306112E+03  0.18519492009E+03  0.90851598180E+02 0.  0.
        -13    1    3    3    0    0 -0.19707192313E+02 -0.19879972184E+02 -0.48298087285E+02  0.55823758009E+02  0.00000000000E+00 0.  1.
         14    1    3    3    0    0  0.14779593261E+02  0.52246854041E+02 -0.21578204107E+03  0.22250856025E+03  0.00000000000E+00 0. -1.
        -13    1    4    4    0    0 -0.36175629726E+02 -0.14768732464E+02 -0.25011540594E+02  0.46393628954E+02  0.00000000000E+00 0.  1.
         13    1    4    4    0    0  0.41405589216E+02 -0.50760088328E+02 -0.12237152053E+03  0.13880129114E+03  0.00000000000E+00 0. -1.
          1    1    1    2  501    0 -0.30236043779E+00  0.33161938934E+02  0.43151083762E+02  0.54422620715E+02  0.00000000000E+00 0. -1.
<scales pt_clust_5="13000.00000" pt_clust_6="13000.00000" pt_clust_7="13000.00000" pt_clust_8="13000.00000" pt_clust_9="33.16332"></scales>
<clustering>
<clus scale="   33.163">  1  9  2 -1</clus>
<clus scale="   81.601">  5  6 -1 -1</clus>
<clus scale="   90.852">  7  8 -1 -1</clus>
<clus scale="   91.659">  2  5  1 -1</clus>
<clus scale="   33.163">  1  5  2 -1</clus>
</clustering>
</event>
<event>
 9    2  0.6469128E-005  0.1667632E+03  0.7546771E-02  0.1183212E+00
         21   -1    0    0  501  502  0.00000000000E+00  0.00000000000E+00  0.69482463782E+03  0.69482463782E+03  0.00000000000E+00 0.  1.
         -3   -1    0    0    0  501 -0.00000000000E+00 -0.00000000000E+00 -0.60843361450E+02  0.60843361450E+02  0.00000000000E+00 0.  1.
         24    2    1    2    0    0  0.78016034654E+02 -0.82432168404E+02  0.20202110591E+03  0.24469160899E+03  0.78612290547E+02 0.  0.
         23    2    1    2    0    0 -0.14536392095E+03  0.98297344746E+02  0.27086971248E+03  0.33565503602E+03  0.92200133236E+02 0.  0.
        -11    1    3    3    0    0  0.17476464114E+02 -0.75061020171E+02  0.11407358301E+03  0.13766759200E+03  0.00000000000E+00 0.  1.
         12    1    3    3    0    0  0.60539570540E+02 -0.73711482329E+01  0.87947522901E+02  0.10702401699E+03  0.00000000000E+00 0. -1.
        -13    1    4    4    0    0 -0.47835069864E+02  0.76135839863E+01  0.21587987252E+02  0.53030196714E+02  0.00000000000E+00 0. -1.
         13    1    4    4    0    0 -0.97528851083E+02  0.90683760759E+02  0.24928172523E+03  0.28262483931E+03  0.00000000000E+00 0.  1.
         -4    1    1    2    0  502  0.67347886292E+02 -0.15865176342E+02  0.16109045798E+03  0.17532135426E+03  0.00000000000E+00 0.  1.
<scales pt_clust_5="13000.00000" pt_clust_6="13000.00000" pt_clust_7="13000.00000" pt_clust_8="13000.00000" pt_clust_9="69.19134"></scales>
<clustering>
<clus scale="   69.191">  1  9  2 -1</clus>
<clus scale="   78.612">  5  6 -1 -1</clus>
<clus scale="   92.200">  7  8 -1 -1</clus>
<clus scale="  159.653">  2  5  1 -1</clus>
<clus scale="   69.191">  1  5  2 -1</clus>
</clustering>
</event>
<event>
 9    2  0.6469128E-005  0.1573859E+03  0.7546771E-02  0.1217203E+00
          2   -1    0    0  502    0 -0.00000000000E+00  0.00000000000E+00  0.48040216469E+03  0.48040216469E+03  0.00000000000E+00 0. -1.
         21   -1    0    0  501  502  0.00000000000E+00 -0.00000000000E+00 -0.66549269584E+02  0.66549269584E+02  0.00000000000E+00 0. -1.
         24    2    1    2    0    0  0.24547573317E+02 -0.19010195064E+02  0.14504548030E+03  0.17111369336E+03  0.85309635025E+02 0.  0.
         23    2    1    2    0    0  0.57050970672E+02  0.85615792805E+02  0.16868077852E+03  0.23051062257E+03  0.11873106099E+03 0.  0.
        -13    1    3    3    0    0  0.11314709478E+02  0.29125692853E+02  0.96686196375E+02  0.10160978892E+03  0.00000000000E+00 0.  1.
         14    1    3    3    0    0  0.13232863839E+02 -0.48135887917E+02  0.48359283925E+02  0.69503904442E+02  0.00000000000E+00 0. -1.
        -11    1    4    4    0    0 -0.19280040587E+02 -0.18951438831E+02  0.21890847520E+02  0.34786293335E+02  0.00000000000E+00 0.  1.
         11    1    4    4    0    0  0.76331011259E+02  0.10456723164E+03  0.14678993100E+03  0.19572432924E+03  0.00000000000E+00 0. -1.
          1    1    1    2  501    0 -0.81598543989E+02 -0.66605597742E+02  0.10012663628E+03  0.14532711834E+03  0.00000000000E+00 0. -1.
<scales pt_clust_5="13000.00000" pt_clust_6="13000.00000" pt_clust_7="13000.00000" pt_clust_8="13000.00000" pt_clust_9="103.31142"></scales>
<clustering>
<clus scale="   85.310">  5  6 -1 -1</clus>
<clus scale="   90.784">  1  5  2 -1</clus>
<clus scale="  103.311">  2  9  1 -1</clus>
<clus scale="  118.731">  7  8 -1 -1</clus>
<clus scale="  103.311">  2  5  1 -1</clus>
</clustering>
</event>
<event>
 9    2  0.6469128E-005  0.9829111E+02  0.7546771E-02  0.1292091E+00
         21   -1    0    0  501  502  0.00000000000E+00  0.00000000000E+00  0.28572588774E+02  0.28572588774E+02  0.00000000000E+00 0. -1.
          2   -1    0    0  502    0 -0.00000000000E+00 -0.00000000000E+00 -0.88457366028E+03  0.88457366028E+03  0.00000000000E+00 0. -1.
         24    2    1    2    0    0  0.16541058960E+02  0.33655334759E+02 -0.59512015955E+03  0.60111690807E+03  0.75942377288E+02 0.  0.
         23    2    1    2    0    0 -0.35653953008E+02 -0.18248395637E+02 -0.26845313719E+03  0.28633858220E+03  0.91205748076E+02 0.  0.
        -11    1    3    3    0    0  0.25038629251E+02  0.36862925807E+02 -0.16531595633E+03  0.17121674472E+03  0.00000000000E+00 0.  1.
         12    1    3    3    0    0 -0.84975702908E+01 -0.32075910472E+01 -0.42980420322E+03  0.42990016335E+03  0.00000000000E+00 0. -1.
        -11    1    4    4    0    0  0.28507457487E+02 -0.15890437199E+02 -0.12467787385E+03  0.12887883206E+03  0.00000000000E+00 0.  1.
         11    1    4    4    0    0 -0.64161410495E+02 -0.23579584380E+01 -0.14377526334E+03  0.15745975014E+03  0.00000000000E+00 0. -1.
          1    1    1    2  501    0  0.19112894048E+02 -0.15406939123E+02  0.75722252355E+01  0.25690758787E+02  0.00000000000E+00 0. -1.
<scales pt_clust_5="13000.00000" pt_clust_6="13000.00000" pt_clust_7="13000.00000" pt_clust_8="13000.00000" pt_clust_9="24.54947"></scales>
<clustering>
<clus scale="   24.549">  1  9  2 -1</clus>
<clus scale="   75.942">  5  6 -1 -1</clus>
<clus scale="   84.320">  2  5  1 -1</clus>
<clus scale="   91.206">  7  8 -1 -1</clus>
<clus scale="   24.549">  1  5  2 -1</clus>
</clustering>
</event>
<event>
 9    2  0.6469128E-005  0.1803159E+03  0.7546771E-02  0.1168682E+00
         21   -1    0    0  501  502  0.00000000000E+00  0.00000000000E+00  0.20894445562E+03  0.20894445562E+03  0.00000000000E+00 0.  1.
         -1   -1    0    0    0  501 -0.00000000000E+00 -0.00000000000E+00 -0.18570266458E+03  0.18570266458E+03  0.00000000000E+00 0.  1.
         23    2    1    2    0    0  0.11500683750E+03  0.11696239539E+03 -0.30402510702E+02  0.19148171786E+03  0.93990217636E+02 0.  0.
         24    2    1    2    0    0 -0.11230795500E+03 -0.85646503244E+02  0.44089188318E+02  0.17031316862E+03  0.84346420228E+02 0.  0.
        -11    1    4    4    0    0 -0.11330136078E+03 -0.43823551704E+02  0.41591697744E+02  0.12840393826E+03  0.00000000000E+00 0.  1.
         12    1    4    4    0    0  0.99340578129E+00 -0.41822951540E+02  0.24974905739E+01  0.41909230365E+02  0.00000000000E+00 0. -1.
        -13    1    3    3    0    0  0.10804969212E+02  0.67005359446E+02 -0.33908954270E+02  0.75870170250E+02  0.00000000000E+00 0. -1.
         13    1    3    3    0    0  0.10420186828E+03  0.49957035947E+02  0.35064435677E+01  0.11561154761E+03  0.00000000000E+00 0.  1.
         -2    1    1    2    0  502 -0.26988824969E+01 -0.31315892148E+02  0.95551134218E+01  0.32852233718E+02  0.00000000000E+00 0.  1.
<scales pt_clust_5="13000.00000" pt_clust_6="13000.00000" pt_clust_7="13000.00000" pt_clust_8="13000.00000" pt_clust_9="31.43198"></scales>
<clustering>
<clus scale="   31.432">  1  9  2 -1</clus>
<clus scale="   84.346">  5  6 -1 -1</clus>
<clus scale="   93.990">  7  8 -1 -1</clus>
<clus scale="  175.482">  1  5  2 -1</clus>
<clus scale="   31.432">  1  5  2 -1</clus>
</clustering>
</event>
<event>
 9    2  0.6469128E-005  0.9667704E+02  0.7546771E-02  0.1292432E+00
         21   -1    0    0  501  502  0.00000000000E+00  0.00000000000E+00  0.48367717680E+02  0.48367717680E+02  0.00000000000E+00 0.  1.
          2   -1    0    0  502    0 -0.00000000000E+00 -0.00000000000E+00 -0.35165272716E+03  0.35165272716E+03  0.00000000000E+00 0. -1.
         23    2    1    2    0    0 -0.37854746336E+02 -0.17254698197E+02 -0.25415255974E+03  0.27168044370E+03  0.86521866806E+02 0.  0.
         24    2    1    2    0    0  0.32783579127E+02  0.41841007927E+02 -0.36684433376E+02  0.10031935742E+03  0.76764528375E+02 0.  0.
        -11    1    4    4    0    0  0.31806395966E+02  0.64981636907E+01  0.16530346641E+02  0.36429731206E+02  0.00000000000E+00 0.  1.
         12    1    4    4    0    0  0.97718316096E+00  0.35342844236E+02 -0.53214780017E+02  0.63889626215E+02  0.00000000000E+00 0. -1.
        -13    1    3    3    0    0  0.15667359736E+02  0.20630127088E+02 -0.39512285661E+02  0.47247105974E+02  0.00000000000E+00 0.  1.
         13    1    3    3    0    0 -0.53522106072E+02 -0.37884825285E+02 -0.21464027408E+03  0.22443333773E+03  0.00000000000E+00 0. -1.
          1    1    1    2  501    0  0.50711672087E+01 -0.24586309730E+02 -0.12448016359E+02  0.28020643717E+02  0.00000000000E+00 0. -1.
<scales pt_clust_5="13000.00000" pt_clust_6="13000.00000" pt_clust_7="13000.00000" pt_clust_8="13000.00000" pt_clust_9="25.10385"></scales>
<clustering>
<clus scale="   25.104">  1  9  2 -1</clus>
<clus scale="   76.765">  5  6 -1 -1</clus>
<clus scale="   86.522">  7  8 -1 -1</clus>
<clus scale="   88.052">  1  5  2 -1</clus>
<clus scale="   25.104">  1  5  2 -1</clus>
</clustering>
</event>
<event>
 9    2  0.6469128E-005  0.1380032E+03  0.7546771E-02  0.1234101E+00
         21   -1    0    0  501  502  0.00000000000E+00  0.00000000000E+00  0.21301762190E+03  0.21301762190E+03  0.00000000000E+00 0.  1.
          4   -1    0    0  502    0 -0.00000000000E+00 -0.00000000000E+00 -0.19550710019E+03  0.19550710019E+03  0.00000000000E+00 0. -1.
         23    2    1    2    0    0 -0.15622925476E+02 -0.21496501856E+02  0.61315210436E+02  0.11286073622E+03  0.90949520932E+02 0.  0.
         24    2    1    2    0    0 -0.10869347144E+03  0.15575397274E+02  0.45582274833E+02  0.14243326024E+03  0.78438677369E+02 0.  0.
        -13    1    4    4    0    0 -0.69792232306E+02  0.47189895238E+02  0.22224641240E+02  0.87130801564E+02  0.00000000000E+00 0.  1.
         14    1    4    4    0    0 -0.38901239138E+02 -0.31614497964E+02  0.23357633594E+02  0.55302458672E+02  0.00000000000E+00 0. -1.
        -13    1    3    3    0    0 -0.22316541154E+02  0.22529890752E+02 -0.58765018878E+01  0.32251469127E+02  0.00000000000E+00 0. -1.
         13    1    3    3    0    0  0.66936156789E+01 -0.44026392608E+02  0.67191712324E+02  0.80609267098E+02  0.00000000000E+00 0.  1.
          3    1    1    2  501    0  0.12431639692E+03  0.59211045822E+01 -0.89386963562E+02  0.15323072563E+03  0.00000000000E+00 0. -1.
<scales pt_clust_5="13000.00000" pt_clust_6="13000.00000" pt_clust_7="13000.00000" pt_clust_8="13000.00000" pt_clust_9="113.54408"></scales>
<clustering>
<clus scale="   78.439">  5  6 -1 -1</clus>
<clus scale="   90.950">  7  8 -1 -1</clus>
<clus scale="   94.752">  2  7  1 -1</clus>
<clus scale="  113.544">  1  9  2 -1</clus>
<clus scale="  113.544">  1  5  2 -1</clus>
</clustering>
</event>
<event>
 9    2  0.6469128E-005  0.9181369E+02  0.7546771E-02  0.1304743E+00
          2   -1    0    0  502    0 -0.00000000000E+00  0.00000000000E+00  0.10515337008E+04  0.10515337008E+04  0.00000000000E+00 0. -1.
         21   -1    0    0  501  502  0.00000000000E+00 -0.00000000000E+00 -0.31821733952E+02  0.31821733952E+02  0.00000000000E+00 0.  1.
         24    2    1    2    0    0 -0.69914732433E+01 -0.19938629853E+02  0.37786368914E+03  0.38707367929E+03  0.81231988584E+02 0.  0.
         23    2    1    2    0    0 -0.20295657997E+02 -0.44480213101E+02  0.81928744953E+02  0.13200854325E+03  0.91233399318E+02 0.  0.
        -11    1    3    3    0    0 -0.27664394166E+01  0.31492165904E+02  0.16884215011E+03  0.17177625376E+03  0.00000000000E+00 0.  1.
         12    1    3    3    0    0 -0.42250338268E+01 -0.51430795757E+02  0.20902153903E+03  0.21529742553E+03  0.00000000000E+00 0. -1.
        -11    1    4    4    0    0  0.32530223134E+02 -0.65190438698E+01  0.48794173167E+02  0.59004954751E+02  0.00000000000E+00 0. -1.
         11    1    4    4    0    0 -0.52825881131E+02 -0.37961169231E+02  0.33134571786E+02  0.73003588501E+02  0.00000000000E+00 0.  1.
          1    1    1    2  501    0  0.27287131240E+02  0.64418842953E+02  0.55991953276E+03  0.56427321221E+03  0.00000000000E+00 0. -1.
<scales pt_clust_5="13000.00000" pt_clust_6="13000.00000" pt_clust_7="13000.00000" pt_clust_8="13000.00000" pt_clust_9="69.95984"></scales>
<clustering>
<clus scale="   69.960">  2  9  1 -1</clus>
<clus scale="   81.232">  5  6 -1 -1</clus>
<clus scale="   81.883">  1  5  2 -1</clus>
<clus scale="   91.233">  7  8 -1 -1</clus>
<clus scale="   69.960">  2  5  1 -1</clus>
</clustering>
</event>
<event>
 9    2  0.6469128E-005  0.9081496E+02  0.7546771E-02  0.1305715E+00
         21   -1    0    0  501  502  0.00000000000E+00  0.00000000000E+00  0.16116479526E+02  0.16116479526E+02  0.00000000000E+00 0. -1.
          2   -1    0    0  502    0 -0.00000000000E+00 -0.00000000000E+00 -0.10713509046E+04  0.10713509046E+04  0.00000000000E+00 0. -1.
         24    2    1    2    0    0  0.23805157123E+02  0.46183005707E+00 -0.68202712975E+03  0.68730454260E+03  0.81606554663E+02 0.  0.
         23    2    1    2    0    0  0.29621997089E+01  0.12994007308E+02 -0.35207765934E+03  0.36350206593E+03  0.89428490304E+02 0.  0.
        -11    1    3    3    0    0  0.16106098558E+01  0.29368907519E+02 -0.10261047110E+03  0.10674284788E+03  0.00000000000E+00 0.  1.
         12    1    3    3    0    0  0.22194547267E+02 -0.28907077462E+02 -0.57941665865E+03  0.58056169472E+03  0.00000000000E+00 0. -1.
        -13    1    4    4    0    0  0.34722496495E+02 -0.20534732724E+02 -0.21779767273E+03  0.22150203895E+03  0.00000000000E+00 0. -1.
         13    1    4    4    0    0 -0.31760296786E+02  0.33528740032E+02 -0.13427998660E+03  0.14200002698E+03  0.00000000000E+00 0.  1.
          1    1    1    2  501    0 -0.26767356832E+02 -0.13455837365E+02 -0.21129635994E+02  0.36660775609E+02  0.00000000000E+00 0. -1.
<scales pt_clust_5="13000.00000" pt_clust_6="13000.00000" pt_clust_7="13000.00000" pt_clust_8="13000.00000" pt_clust_9="29.95915"></scales>
<clustering>
<clus scale="   29.959">  1  9  2 -1</clus>
<clus scale="   81.607">  5  6 -1 -1</clus>
<clus scale="   83.124">  2  5  1 -1</clus>
<clus scale="   89.428">  7  8 -1 -1</clus>
<clus scale="   29.959">  1  5  2 -1</clus>
</clustering>
</event>
<event>
 9    2  0.6469128E-005  0.1753509E+03  0.7546771E-02  0.1173402E+00
          2   -1    0    0  502    0 -0.00000000000E+00  0.00000000000E+00  0.29702103519E+03  0.29702103519E+03  0.00000000000E+00 0. -1.
         21   -1    0    0  501  502  0.00000000000E+00 -0.00000000000E+00 -0.19137134819E+03  0.19137134819E+03  0.00000000000E+00 0. -1.
         23    2    1    2    0    0 -0.76554629199E+02  0.14003394250E+03  0.18658094614E+03  0.26089591822E+03  0.88227628207E+02 0.  0.
         24    2    1    2    0    0  0.19879384603E+02 -0.13121468174E+03 -0.64714208678E+02  0.16789063124E+03  0.79917786617E+02 0.  0.
        -13    1    4    4    0    0  0.49680415572E+02 -0.92128582216E+02 -0.34565069255E+02  0.11022959387E+03  0.00000000000E+00 0.  1.
         14    1    4    4    0    0 -0.29801030968E+02 -0.39086099527E+02 -0.30149139423E+02  0.57661037373E+02  0.00000000000E+00 0. -1.
        -11    1    3    3    0    0 -0.24855182452E+02  0.23094809469E+02 -0.93110364190E+00  0.33941379953E+02  0.00000000000E+00 0.  1.
         11    1    3    3    0    0 -0.51699446747E+02  0.11693913303E+03  0.18751204978E+03  0.22695453827E+03  0.00000000000E+00 0. -1.
          1    1    1    2  501    0  0.56675244595E+02 -0.88192607608E+01 -0.16217050456E+02  0.59605833908E+02  0.00000000000E+00 0. -1.
<scales pt_clust_5="13000.00000" pt_clust_6="13000.00000" pt_clust_7="13000.00000" pt_clust_8="13000.00000" pt_clust_9="57.35732"></scales>
<clustering>
<clus scale="   57.357">  2  9  1 -1</clus>
<clus scale="   79.918">  5  6 -1 -1</clus>
<clus scale="   88.228">  7  8 -1 -1</clus>
<clus scale="  171.320">  2  5  1 -1</clus>
<clus scale="   57.357">  2  5  1 -1</clus>
</clustering>
</event>
<event>
 9    2  0.6469128E-005  0.2006916E+03  0.7546771E-02  0.1186150E+00
          2   -1    0    0  502    0 -0.00000000000E+00  0.00000000000E+00  0.37700706607E+03  0.37700706607E+03  0.00000000000E+00 0. -1.
         21   -1    0    0  501  502  0.00000000000E+00 -0.00000000000E+00 -0.25402294049E+03  0.25402294049E+03  0.00000000000E+00 0. -1.
         24    2    1    2    0    0  0.11401093759E+02  0.28980238882E+02  0.73744810502E+01  0.86106308432E+02  0.79937939656E+02 0.  0.
         23    2    1    2    0    0 -0.17948570560E+03 -0.27207766761E+02 -0.13457911473E+03  0.24351037119E+03  0.90721451005E+02 0.  0.
        -13    1    3    3    0    0 -0.15933639590E+02 -0.21202872267E+02  0.11294415936E+02  0.28827183253E+02  0.00000000000E+00 0.  1.
         14    1    3    3    0    0  0.27334733349E+02  0.50183111149E+02 -0.39199348855E+01  0.57279125180E+02  0.00000000000E+00 0. -1.
        -13    1    4    4    0    0 -0.25503163243E+02  0.23782709916E+02 -0.36610126865E+01  0.35063251992E+02  0.00000000000E+00 0.  1.
         13    1    4    4    0    0 -0.15398254235E+03 -0.50990476677E+02 -0.13091810204E+03  0.20844711920E+03  0.00000000000E+00 0. -1.
          1    1    1    2  501    0  0.16808461184E+03 -0.17724721215E+01  0.25018875926E+03  0.30141332694E+03  0.00000000000E+00 0. -1.
<scales pt_clust_5="13000.00000" pt_clust_6="13000.00000" pt_clust_7="13000.00000" pt_clust_8="13000.00000" pt_clust_9="179.01616"></scales>
<clustering>
<clus scale="   79.938">  5  6 -1 -1</clus>
<clus scale="   85.790">  1  5  2 -1</clus>
<clus scale="   90.721">  7  8 -1 -1</clus>
<clus scale="  179.016">  2  9  1 -1</clus>
<clus scale="  179.016">  2  5  1 -1</clus>
</clustering>
</event>
<event>
 9    2  0.6469128E-005  0.1446284E+03  0.7546771E-02  0.1209008E+00
         21   -1    0    0  501  502  0.00000000000E+00  0.00000000000E+00  0.24964874746E+03  0.24964874746E+03  0.00000000000E+00 0. -1.
          4   -1    0    0  502    0 -0.00000000000E+00 -0.00000000000E+00 -0.16807022993E+03  0.16807022993E+03  0.00000000000E+00 0. -1.
         24    2    1    2    0    0 -0.62901446718E+01 -0.12041283099E+03 -0.82756055399E+02  0.16766325512E+03  0.81997479377E+02 0.  0.
         23    2    1    2    0    0 -0.37965746126E+02  0.87457751414E+02  0.10042354615E+03  0.16562089248E+03  0.90857774805E+02 0.  0.
        -11    1    3    3    0    0  0.24506336134E+02 -0.80188899560E+01 -0.19633502006E+01  0.25859579479E+02  0.00000000000E+00 0.  1.
         12    1    3    3    0    0 -0.30796480805E+02 -0.11239394103E+03 -0.80792705198E+02  0.14180367564E+03  0.00000000000E+00 0. -1.
        -11    1    4    4    0    0 -0.20066635966E+01  0.64011607470E+02  0.90674949113E+01  0.64681775282E+02  0.00000000000E+00 0.  1.
         11    1    4    4    0    0 -0.35959082529E+02  0.23446143943E+02  0.91356051240E+02  0.10093911720E+03  0.00000000000E+00 0. -1.
          3    1    1    2  501    0  0.44255890798E+02  0.32955079575E+02  0.63911026773E+02  0.84434829799E+02  0.00000000000E+00 0. -1.
<scales pt_clust_5="13000.00000" pt_clust_6="13000.00000" pt_clust_7="13000.00000" pt_clust_8="13000.00000" pt_clust_9="55.17809"></scales>
<clustering>
<clus scale="   55.178">  1  9  2 -1</clus>
<clus scale="   81.997">  5  6 -1 -1</clus>
<clus scale="   90.858">  7  8 -1 -1</clus>
<clus scale="  139.233">  2  5  1 -1</clus>
<clus scale="   55.178">  1  5  2 -1</clus>
</clustering>
</event>
<event>
 9    2  0.6469128E-005  0.1603908E+03  0.7546771E-02  0.1211419E+00
         -3   -1    0    0    0  501 -0.00000000000E+00  0.00000000000E+00  0.14965056891E+03  0.14965056891E+03  0.00000000000E+00 0.  1.
         21   -1    0    0  501  502  0.00000000000E+00 -0.00000000000E+00 -0.42655299077E+03  0.42655299077E+03  0.00000000000E+00 0.  1.
         23    2    1    2    0    0 -0.18373900449E+02  0.29006366091E+02 -0.22288604299E+03  0.24306450376E+03  0.90681835759E+02 0.  0.
         24    2    1    2    0    0  0.44841584910E+02  0.11406705971E+03  0.49427463844E+02  0.15461406584E+03  0.80251936586E+02 0.  0.
        -11    1    4    4    0    0  0.34143757459E+02  0.79997731539E+02  0.71533054397E+02  0.11261621152E+03  0.00000000000E+00 0.  1.
         12    1    4    4    0    0  0.10697827451E+02  0.34069328168E+02 -0.22105590554E+02  0.41997854323E+02  0.00000000000E+00 0. -1.
        -11    1    3    3    0    0 -0.34899727705E+02  0.54857817706E+02 -0.13209743734E+03  0.14723146440E+03  0.00000000000E+00 0.  1.
         11    1    3    3    0    0  0.16525827256E+02 -0.25851451615E+02 -0.90788605649E+02  0.95833039359E+02  0.00000000000E+00 0. -1.
         -4    1    1    2    0  502 -0.26467684461E+02 -0.14307342580E+03 -0.10344384271E+03  0.17852499008E+03  0.00000000000E+00 0.  1.
<scales pt_clust_5="13000.00000" pt_clust_6="13000.00000" pt_clust_7="13000.00000" pt_clust_8="13000.00000" pt_clust_9="138.86986"></scales>
<clustering>
<clus scale="   80.252">  5  6 -1 -1</clus>
<clus scale="   90.682">  7  8 -1 -1</clus>
<clus scale="   96.965">  1  7  2 -1</clus>
<clus scale="  138.870">  2  9  1 -1</clus>
<clus scale="  138.870">  2  5  1 -1</clus>
</clustering>
</event>
<event>
 9    2  0.6469128E-005  0.9816797E+02  0.7546771E-02  0.1290648E+00
          2   -1    0    0  502    0 -0.00000000000E+00  0.00000000000E+00  0.79772533460E+03  0.79772533460E+03  0.00000000000E+00 0. -1.
         21   -1    0    0  501  502  0.00000000000E+00 -0.00000000000E+00 -0.12784130281E+03  0.12784130281E+03  0.00000000000E+00 0. -1.
         24    2    1    2    0    0 -0.30077045609E+02 -0.21512782204E+02  0.71568486690E+03  0.72100911502E+03  0.79258354558E+02 0.  0.
         23    2    1    2    0    0 -0.18128675959E+02  0.50951507248E+02  0.29672201670E+02  0.11028870780E+03  0.91424583854E+02 0.  0.
        -11    1    3    3    0    0 -0.16681084857E+02  0.28480988549E+02  0.19672642667E+03  0.19947609443E+03  0.00000000000E+00 0.  1.
         12    1    3    3    0    0 -0.13395960752E+02 -0.49993770753E+02  0.51895844023E+03  0.52153302059E+03  0.00000000000E+00 0. -1.
        -11    1    4    4    0    0  0.19774606159E+02  0.79656397706E+01 -0.23768377255E+02  0.31928392115E+02  0.00000000000E+00 0.  1.
         11    1    4    4    0    0 -0.37903282118E+02  0.42985867478E+02  0.53440578924E+02  0.78360315683E+02  0.00000000000E+00 0. -1.
          1    1    1    2  501    0  0.48205721568E+02 -0.29438725044E+02 -0.75473036779E+02  0.94268814593E+02  0.00000000000E+00 0. -1.
<scales pt_clust_5="13000.00000" pt_clust_6="13000.00000" pt_clust_7="13000.00000" pt_clust_8="13000.00000" pt_clust_9="56.48389"></scales>
<clustering>
<clus scale="   56.484">  2  9  1 -1</clus>
<clus scale="   79.258">  5  6 -1 -1</clus>
<clus scale="   86.950">  1  5  2 -1</clus>
<clus scale="   91.425">  7  8 -1 -1</clus>
<clus scale="   56.484">  2  5  1 -1</clus>
</clustering>
</event>
<event>
 9    2  0.6469128E-005  0.1221452E+03  0.7546771E-02  0.1242449E+00
         21   -1    0    0  501  502  0.00000000000E+00  0.00000000000E+00  0.10635168509E+03  0.10635168509E+03  0.00000000000E+00 0. -1.
          2   -1    0    0  502    0 -0.00000000000E+00 -0.00000000000E+00 -0.21622633742E+03  0.21622633742E+03  0.00000000000E+00 0. -1.
         24    2    1    2    0    0  0.19044508898E+02  0.75269755903E+02 -0.69366994317E+02  0.13228375083E+03  0.81602581827E+02 0.  0.
         23    2    1    2    0    0 -0.46550839532E+00 -0.91932106414E+02  0.14206884925E+02  0.13015697549E+03  0.91034464908E+02 0.  0.
        -13    1    3    3    0    0 -0.29245255416E+02  0.20328272349E+02 -0.39739825296E+02  0.53364570041E+02  0.00000000000E+00 0.  1.
         14    1    3    3    0    0  0.48289764314E+02  0.54941483554E+02 -0.29627169021E+02  0.78919180792E+02  0.00000000000E+00 0. -1.
        -11    1    4    4    0    0 -0.30820113617E+02 -0.42557944763E+02 -0.26967327488E+02  0.59061788135E+02  0.00000000000E+00 0.  1.
         11    1    4    4    0    0  0.30354605222E+02 -0.49374161650E+02  0.41174212413E+02  0.71095187352E+02  0.00000000000E+00 0. -1.
          1    1    1    2  501    0 -0.18579000503E+02  0.16662350510E+02 -0.54714542936E+02  0.60137296189E+02  0.00000000000E+00 0. -1.
<scales pt_clust_5="13000.00000" pt_clust_6="13000.00000" pt_clust_7="13000.00000" pt_clust_8="13000.00000" pt_clust_9="24.95624"></scales>
<clustering>
<clus scale="   24.956">  1  9  2 -1</clus>
<clus scale="   81.603">  5  6 -1 -1</clus>
<clus scale="   91.034">  7  8 -1 -1</clus>
<clus scale="  115.287">  2  5  1 -1</clus>
<clus scale="   24.956">  1  5  2 -1</clus>
</clustering>
</event>
<event>
 9    2  0.6469128E-005  0.1288978E+03  0.7546771E-02  0.1231157E+00
          2   -1    0    0  502    0 -0.00000000000E+00  0.00000000000E+00  0.67466412764E+03  0.67466412764E+03  0.00000000000E+00 0. -1.
         21   -1    0    0  501  502  0.00000000000E+00 -0.00000000000E+00 -0.43568544266E+02  0.43568544266E+02  0.00000000000E+00 0. -1.
         23    2    1    2    0    0 -0.50145661287E+02  0.52297216674E+02  0.26671162711E+03  0.28983654132E+03  0.87295718285E+02 0.  0.
         24    2    1    2    0    0  0.11166951149E+03 -0.73954577604E+02  0.29268246849E+03  0.33146662643E+03  0.79169045272E+02 0.  0.
        -11    1    4    4    0    0  0.26715179412E+02  0.94776799192E+01  0.10853621175E+03  0.11217680905E+03  0.00000000000E+00 0.  1.
         12    1    4    4    0    0  0.84954332081E+02 -0.83432257523E+02  0.18414625674E+03  0.21928981738E+03  0.00000000000E+00 0. -1.
        -11    1    3    3    0    0  0.46080855673E-01  0.58330908075E+02  0.10154151147E+03  0.11710326858E+03  0.00000000000E+00 0. -1.
         11    1    3    3    0    0 -0.50191742143E+02 -0.60336914010E+01  0.16517011564E+03  0.17273327275E+03  0.00000000000E+00 0.  1.
          1    1    1    2  501    0 -0.61523850205E+02  0.21657360930E+02  0.71701487760E+02  0.96929504144E+02  0.00000000000E+00 0. -1.
<scales pt_clust_5="13000.00000" pt_clust_6="13000.00000" pt_clust_7="13000.00000" pt_clust_8="13000.00000" pt_clust_9="65.22442"></scales>
<clustering>
<clus scale="   65.224">  2  9  1 -1</clus>
<clus scale="   79.169">  5  6 -1 -1</clus>
<clus scale="   87.296">  7  8 -1 -1</clus>
<clus scale="  123.539">  2  5  1 -1</clus>
<clus scale="   65.224">  2  5  1 -1</clus>
</clustering>
</event>
<event>
 9    2  0.6469128E-005  0.1009965E+03  0.7546771E-02  0.1281124E+00
         21   -1    0    0  501  502  0.00000000000E+00  0.00000000000E+00  0.20058270521E+02  0.20058270521E+02  0.00000000000E+00 0. -1.
          2   -1    0    0  502    0 -0.00000000000E+00 -0.00000000000E+00 -0.86412899373E+03  0.86412899373E+03  0.00000000000E+00 0. -1.
         24    2    1    2    0    0  0.37222920240E+02 -0.37577703493E+02 -0.54618507955E+03  0.55543719405E+03  0.85992475355E+02 0.  0.
         23    2    1    2    0    0  0.44534507594E+01  0.24141826484E+02 -0.19953024297E+03  0.22108750690E+03  0.92003841448E+02 0.  0.
        -11    1    3    3    0    0  0.16722495353E+02  0.20688127972E+02 -0.63944842006E+02  0.69257370070E+02  0.00000000000E+00 0.  1.
         12    1    3    3    0    0  0.20500424887E+02 -0.58265831465E+02 -0.48224023755E+03  0.48617982398E+03  0.00000000000E+00 0. -1.
        -11    1    4    4    0    0 -0.76349786205E+01 -0.23314484400E+02 -0.14792089255E+03  0.14994148370E+03  0.00000000000E+00 0.  1.
         11    1    4    4    0    0  0.12088429380E+02  0.47456310883E+02 -0.51609350420E+02  0.71146023208E+02  0.00000000000E+00 0. -1.
          1    1    1    2  501    0 -0.41676370999E+02  0.13435877010E+02 -0.98355400690E+02  0.10766256330E+03  0.00000000000E+00 0. -1.
<scales pt_clust_5="13000.00000" pt_clust_6="13000.00000" pt_clust_7="13000.00000" pt_clust_8="13000.00000" pt_clust_9="43.78861"></scales>
<clustering>
<clus scale="   43.789">  1  9  2 -1</clus>
<clus scale="   85.992">  5  6 -1 -1</clus>
<clus scale="   92.004">  7  8 -1 -1</clus>
<clus scale="   95.553">  2  5  1 -1</clus>
<clus scale="   43.789">  1  5  2 -1</clus>
</clustering>
</event>
<event>
 9    2  0.6469128E-005  0.9819729E+02  0.7546771E-02  0.1286036E+00
          4   -1    0    0  502    0 -0.00000000000E+00  0.00000000000E+00  0.20274678325E+03  0.20274678325E+03  0.00000000000E+00 0. -1.
         21   -1    0    0  501  502  0.00000000000E+00 -0.00000000000E+00 -0.91846617918E+02  0.91846617918E+02  0.00000000000E+00 0.  1.
         23    2    1    2    0    0  0.37946924193E+02  0.29208297069E+02  0.14222887047E+03  0.17442897909E+03  0.88900638242E+02 0.  0.
         24    2    1    2    0    0 -0.19717690406E+02 -0.77464797651E+01 -0.20708896612E+02  0.90069656755E+02  0.85058153080E+02 0.  0.
        -11    1    4    4    0    0  0.31315341947E+01 -0.37352304504E+02 -0.33774632517E+02  0.50455197550E+02  0.00000000000E+00 0.  1.
         12    1    4    4    0    0 -0.22849224601E+02  0.29605824739E+02  0.13065735905E+02  0.39614459205E+02  0.00000000000E+00 0. -1.
        -13    1    3    3    0    0 -0.11558123613E+02 -0.24075109083E+02  0.25688956103E+02  0.37055681945E+02  0.00000000000E+00 0.  1.
         13    1    3    3    0    0  0.49505047805E+02  0.53283406151E+02  0.11653991436E+03  0.13737329715E+03  0.00000000000E+00 0. -1.
          3    1    1    2  501    0 -0.18229233786E+02 -0.21461817304E+02 -0.10619808525E+02  0.30094765317E+02  0.00000000000E+00 0. -1.
<scales pt_clust_5="13000.00000" pt_clust_6="13000.00000" pt_clust_7="13000.00000" pt_clust_8="13000.00000" pt_clust_9="28.15874"></scales>
<clustering>
<clus scale="   28.159">  2  9  1 -1</clus>
<clus scale="   85.058">  5  6 -1 -1</clus>
<clus scale="   88.901">  7  8 -1 -1</clus>
<clus scale="   94.733">  2  5  1 -1</clus>
<clus scale="   28.159">  2  5  1 -1</clus>
</clustering>
</event>
<event>
 9    2  0.6469128E-005  0.2247007E+03  0.7546771E-02  0.1149115E+00
          2   -1    0    0  502    0 -0.00000000000E+00  0.00000000000E+00  0.16571612714E+04  0.16571612714E+04  0.00000000000E+00 0. -1.
         21   -1    0    0  501  502  0.00000000000E+00 -0.00000000000E+00 -0.53485642111E+02  0.53485642111E+02  0.00000000000E+00 0. -1.
         24    2    1    2    0    0 -0.94519325222E+02 -0.76070766700E+02  0.43682349139E+03  0.45967565749E+03  0.75936045924E+02 0.  0.
         23    2    1    2    0    0  0.24321485904E+03  0.56694270574E+02  0.49604373894E+03  0.56360692869E+03  0.96050357336E+02 0.  0.
        -13    1    3    3    0    0 -0.66170793128E+02 -0.82486505681E+02  0.26342337729E+03  0.28385643059E+03  0.00000000000E+00 0.  1.
         14    1    3    3    0    0 -0.28348532094E+02  0.64157389805E+01  0.17340011409E+03  0.17581922690E+03  0.00000000000E+00 0. -1.
        -11    1    4    4    0    0  0.17275184281E+03  0.75199444931E+02  0.40747336174E+03  0.44892393147E+03  0.00000000000E+00 0. -1.
         11    1    4    4    0    0  0.70463016231E+02 -0.18505174357E+02  0.88570377202E+02  0.11468299722E+03  0.00000000000E+00 0.  1.
          1    1    1    2  501    0 -0.14869553382E+03  0.19376496126E+02  0.67080839893E+03  0.68736432731E+03  0.00000000000E+00 0. -1.
<scales pt_clust_5="13000.00000" pt_clust_6="13000.00000" pt_clust_7="13000.00000" pt_clust_8="13000.00000" pt_clust_9="203.13737"></scales>
<clustering>
<clus scale="   75.936">  5  6 -1 -1</clus>
<clus scale="   96.050">  7  8 -1 -1</clus>
<clus scale="  143.133">  1  5  2 -1</clus>
<clus scale="  203.137">  2  9  1 -1</clus>
<clus scale="  203.137">  2  5  1 -1</clus>
</clustering>
</event>
<event>
 9    2  0.6469128E-005  0.9034059E+02  0.7546771E-02  0.1309232E+00
         -3   -1    0    0    0  501 -0.00000000000E+00  0.00000000000E+00  0.91123370911E+02  0.91123370911E+02  0.00000000000E+00 0.  1.
         21   -1    0    0  501  502  0.00000000000E+00 -0.00000000000E+00 -0.13248509628E+03  0.13248509628E+03  0.00000000000E+00 0. -1.
         24    2    1    2    0    0  0.51152428244E+01 -0.68586655714E+01  0.66860746090E+01  0.79687857375E+02  0.78944562933E+02 0.  0.
         23    2    1    2    0    0  0.17719385127E+02  0.43043602815E+00 -0.17057588138E+01  0.91859807403E+02  0.90117438482E+02 0.  0.
        -11    1    3    3    0    0 -0.29139455830E+02 -0.46391604025E+01  0.26835467155E+02  0.39884483107E+02  0.00000000000E+00 0.  1.
         12    1    3    3    0    0  0.34254698654E+02 -0.22195051688E+01 -0.20149392546E+02  0.39803374267E+02  0.00000000000E+00 0. -1.
        -11    1    4    4    0    0  0.82460883102E+01  0.44979510218E+02 -0.59621365979E+01  0.46116172702E+02  0.00000000000E+00 0.  1.
         11    1    4    4    0    0  0.94732968165E+01 -0.44549074190E+02  0.42563777841E+01  0.45743634701E+02  0.00000000000E+00 0. -1.
         -4    1    1    2    0  502 -0.22834627951E+02  0.64282295432E+01 -0.46342041166E+02  0.52060802415E+02  0.00000000000E+00 0.  1.
<scales pt_clust_5="13000.00000" pt_clust_6="13000.00000" pt_clust_7="13000.00000" pt_clust_8="13000.00000" pt_clust_9="23.72219"></scales>
<clustering>
<clus scale="   23.722">  2  9  1 -1</clus>
<clus scale="   78.945">  5  6 -1 -1</clus>
<clus scale="   79.199">  1  5  2 -1</clus>
<clus scale="   90.117">  7  8 -1 -1</clus>
<clus scale="   23.722">  2  5  1 -1</clus>
</clustering>
</event>
<event>
 9    2  0.6469128E-005  0.2148255E+03  0.7546771E-02  0.1177527E+00
          2   -1    0    0  502    0 -0.00000000000E+00  0.00000000000E+00  0.96879134507E+03  0.96879134507E+03  0.00000000000E+00 0. -1.
         21   -1    0    0  501  502  0.00000000000E+00 -0.00000000000E+00 -0.92759860442E+02  0.92759860442E+02  0.00000000000E+00 0. -1.
         24    2    1    2    0    0  0.34473981541E+02 -0.82812231240E+01  0.42917977528E+02  0.95092098573E+02  0.77094230370E+02 0.  0.
         23    2    1    2    0    0  0.16580130251E+03 -0.15039388823E+02  0.69880444579E+03  0.72419279832E+03  0.91713142743E+02 0.  0.
        -11    1    3    3    0    0  0.30260872822E+02  0.35517234215E+01  0.63812220313E+02  0.70713044232E+02  0.00000000000E+00 0.  1.
         12    1    3    3    0    0  0.42131087182E+01 -0.11832946545E+02 -0.20894242785E+02  0.24379054342E+02  0.00000000000E+00 0. -1.
        -13    1    4    4    0    0  0.49126251366E+01  0.20737730235E+02  0.42964891143E+02  0.47960079358E+02  0.00000000000E+00 0.  1.
         13    1    4    4    0    0  0.16088867737E+03 -0.35777119059E+02  0.65583955465E+03  0.67623271896E+03  0.00000000000E+00 0. -1.
          1    1    1    2  501    0 -0.20027528405E+03  0.23320611947E+02  0.13430906131E+03  0.24226630862E+03  0.00000000000E+00 0. -1.
<scales pt_clust_5="13000.00000" pt_clust_6="13000.00000" pt_clust_7="13000.00000" pt_clust_8="13000.00000" pt_clust_9="194.26452"></scales>
<clustering>
<clus scale="   77.094">  5  6 -1 -1</clus>
<clus scale="   84.856">  1  5  2 -1</clus>
<clus scale="   91.713">  7  8 -1 -1</clus>
<clus scale="  194.265">  2  9  1 -1</clus>
<clus scale="  194.265">  2  5  1 -1</clus>
</clustering>
</event>
<event>
 9    2  0.6469128E-005  0.1187335E+03  0.7546771E-02  0.1270640E+00
         21   -1    0    0  501  502  0.00000000000E+00  0.00000000000E+00  0.62957269007E+02  0.62957269007E+02  0.00000000000E+00 0. -1.
         -1   -1    0    0    0  501 -0.00000000000E+00 -0.00000000000E+00 -0.33699330061E+03  0.33699330061E+03  0.00000000000E+00 0.  1.
         24    2    1    2    0    0 -0.17488144652E+02  0.18622378296E+02 -0.20321011721E+02  0.74706391171E+02  0.67197270686E+02 0.  0.
         23    2    1    2    0    0  0.53240521447E+02  0.60275828264E+02 -0.14626409792E+03  0.18722657060E+03  0.84810811823E+02 0.  0.
        -13    1    3    3    0    0 -0.30058604614E+02  0.11471704861E+02 -0.39335336888E+02  0.50817206258E+02  0.00000000000E+00 0.  1.
         14    1    3    3    0    0  0.12570459962E+02  0.71506734347E+01  0.19014325167E+02  0.23889184913E+02  0.00000000000E+00 0. -1.
        -11    1    4    4    0    0  0.19272246023E+02  0.74504314023E+02 -0.11767292604E+03  0.14060309313E+03  0.00000000000E+00 0.  1.
         11    1    4    4    0    0  0.33968275423E+02 -0.14228485759E+02 -0.28591171884E+02  0.46623477475E+02  0.00000000000E+00 0. -1.
         -2    1    1    2    0  502 -0.35752376795E+02 -0.78898206560E+02 -0.10745092196E+03  0.13801760785E+03  0.00000000000E+00 0.  1.
<scales pt_clust_5="13000.00000" pt_clust_6="13000.00000" pt_clust_7="13000.00000" pt_clust_8="13000.00000" pt_clust_9="83.09498"></scales>
<clustering>
<clus scale="   67.197">  5  6 -1 -1</clus>
<clus scale="   71.890">  2  5  1 -1</clus>
<clus scale="   83.095">  1  9  2 -1</clus>
<clus scale="   84.811">  7  8 -1 -1</clus>
<clus scale="   83.095">  1  5  2 -1</clus>
</clustering>
</event>
<event>
 9    2  0.6469128E-005  0.9704747E+02  0.7546771E-02  0.1290471E+00
         21   -1    0    0  501  502  0.00000000000E+00  0.00000000000E+00  0.19827915964E+03  0.19827915964E+03  0.00000000000E+00 0.  1.
          2   -1    0    0  502    0 -0.00000000000E+00 -0.00000000000E+00 -0.70789559262E+02  0.70789559262E+02  0.00000000000E+00 0. -1.
         23    2    1    2    0    0 -0.27279841861E+02  0.83248714084E+01  0.24074239303E+02  0.98011233235E+02  0.90626373569E+02 0.  0.
         24    2    1    2    0    0  0.31619426333E+02 -0.40745289068E+02  0.96645565750E+02  0.13765470729E+03  0.83357581287E+02 0.  0.
        -13    1    4    4    0    0  0.53521030190E+02 -0.46091874151E+02  0.89480438335E+02  0.11399872973E+03  0.00000000000E+00 0.  1.
         14    1    4    4    0    0 -0.21901603858E+02  0.53465850835E+01  0.71651274156E+01  0.23655977563E+02  0.00000000000E+00 0. -1.
        -11    1    3    3    0    0  0.25298459302E+02  0.75704448147E+01 -0.16897064003E+02  0.31350190584E+02  0.00000000000E+00 0.  1.
         11    1    3    3    0    0 -0.52578301163E+02  0.75442659364E+00  0.40971303307E+02  0.66661042651E+02  0.00000000000E+00 0. -1.
          1    1    1    2  501    0 -0.43395844714E+01  0.32420417660E+02  0.67697953278E+01  0.33402778378E+02  0.00000000000E+00 0. -1.
<scales pt_clust_5="13000.00000" pt_clust_6="13000.00000" pt_clust_7="13000.00000" pt_clust_8="13000.00000" pt_clust_9="32.70958"></scales>
<clustering>
<clus scale="   32.710">  1  9  2 -1</clus>
<clus scale="   83.358">  5  6 -1 -1</clus>
<clus scale="   90.297">  1  5  2 -1</clus>
<clus scale="   90.626">  7  8 -1 -1</clus>
<clus scale="   32.710">  1  5  2 -1</clus>
</clustering>
</event>
<event>
 9    2  0.6469128E-005  0.9511336E+02  0.7546771E-02  0.1293466E+00
         21   -1    0    0  501  502  0.00000000000E+00  0.00000000000E+00  0.21589559034E+02  0.21589559034E+02  0.00000000000E+00 0.  1.
          2   -1    0    0  502    0 -0.00000000000E+00 -0.00000000000E+00 -0.56938863502E+03  0.56938863502E+03  0.00000000000E+00 0. -1.
         23    2    1    2    0    0 -0.26311813841E+02  0.47725475033E+02 -0.30032782718E+03  0.31671757109E+03  0.84517356449E+02 0.  0.
         24    2    1    2    0    0  0.28580084875E+02 -0.16504774950E+02 -0.16635999058E+03  0.18731861138E+03  0.79519726216E+02 0.  0.
        -11    1    4    4    0    0 -0.21619547632E+02  0.14645408675E+02 -0.39157434583E+02  0.47065884866E+02  0.00000000000E+00 0.  1.
         12    1    4    4    0    0  0.50199632507E+02 -0.31150183625E+02 -0.12720255599E+03  0.14025272651E+03  0.00000000000E+00 0. -1.
        -13    1    3    3    0    0 -0.56664771316E+02  0.34369117499E+02 -0.17670123781E+03  0.18872058709E+03  0.00000000000E+00 0. -1.
         13    1    3    3    0    0  0.30352957476E+02  0.13356357533E+02 -0.12362658937E+03  0.12799698400E+03  0.00000000000E+00 0.  1.
          1    1    1    2  501    0 -0.22682710342E+01 -0.31220700083E+02 -0.81111258224E+02  0.86942011582E+02  0.00000000000E+00 0. -1.
<scales pt_clust_5="13000.00000" pt_clust_6="13000.00000" pt_clust_7="13000.00000" pt_clust_8="13000.00000" pt_clust_9="31.30301"></scales>
<clustering>
<clus scale="   31.303">  1  9  2 -1</clus>
<clus scale="   79.520">  5  6 -1 -1</clus>
<clus scale="   84.517">  7  8 -1 -1</clus>
<clus scale="   90.701">  1  5  2 -1</clus>
<clus scale="   31.303">  1  5  2 -1</clus>
</clustering>
</event>
<event>
 9    2  0.6469128E-005  0.1090147E+03  0.7546771E-02  0.1266745E+00
          2   -1    0    0  502    0 -0.00000000000E+00  0.00000000000E+00  0.68971360428E+03  0.68971360428E+03  0.00000000000E+00 0. -1.
         21   -1    0    0  501  502  0.00000000000E+00 -0.00000000000E+00 -0.81467857241E+02  0.81467857241E+02  0.00000000000E+00 0. -1.
         24    2    1    2    0    0 -0.49445296834E+02 -0.35243317442E+02  0.63023701480E+03  0.63831655440E+03  0.81008641479E+02 0.  0.
         23    2    1    2    0    0  0.35633052266E+02  0.12708610652E+02 -0.11850200781E+01  0.99227263729E+02  0.91724709845E+02 0.  0.
        -13    1    3    3    0    0 -0.49853460146E+02 -0.23140257142E+01  0.17747923566E+03  0.18436268954E+03  0.00000000000E+00 0.  1.
         14    1    3    3    0    0  0.40816331251E+00 -0.32929291727E+02  0.45275777914E+03  0.45395386486E+03  0.00000000000E+00 0. -1.
        -11    1    4    4    0    0  0.51324249254E+02 -0.11995257554E+02 -0.27869795549E+02  0.59622061934E+02  0.00000000000E+00 0.  1.
         11    1    4    4    0    0 -0.15691196988E+02  0.24703868206E+02  0.26684775471E+02  0.39605201795E+02  0.00000000000E+00 0. -1.
          1    1    1    2  501    0  0.13812244568E+02  0.22534706790E+02 -0.20806247685E+02  0.33637643390E+02  0.00000000000E+00 0. -1.
<scales pt_clust_5="13000.00000" pt_clust_6="13000.00000" pt_clust_7="13000.00000" pt_clust_8="13000.00000" pt_clust_9="26.43087"></scales>
<clustering>
<clus scale="   26.431">  2  9  1 -1</clus>
<clus scale="   81.009">  5  6 -1 -1</clus>
<clus scale="   91.725">  7  8 -1 -1</clus>
<clus scale="  100.166">  1  5  2 -1</clus>
<clus scale="   26.431">  2  5  1 -1</clus>
</clustering>
</event>
<event>
 9    2  0.6469128E-005  0.1079674E+03  0.7546771E-02  0.1268471E+00
         21   -1    0    0  501  502  0.00000000000E+00  0.00000000000E+00  0.39598523092E+03  0.39598523092E+03  0.00000000000E+00 0. -1.
          2   -1    0    0  502    0 -0.00000000000E+00 -0.00000000000E+00 -0.92033528028E+02  0.92033528028E+02  0.00000000000E+00 0. -1.
         23    2    1    2    0    0  0.56451557679E+02 -0.27628317709E+02 -0.19873823321E+02  0.11289222626E+03  0.91649242188E+02 0.  0.
         24    2    1    2    0    0 -0.54847488619E+02 -0.38053585924E+02  0.11448591181E+03  0.15571878519E+03  0.81761810453E+02 0.  0.
        -13    1    4    4    0    0  0.72107115602E+01 -0.42372826352E+02  0.53188013566E+02  0.68384322482E+02  0.00000000000E+00 0.  1.
         14    1    4    4    0    0 -0.62058200179E+02  0.43192404272E+01  0.61297898244E+02  0.87334462708E+02  0.00000000000E+00 0. -1.
        -11    1    3    3    0    0  0.24601891449E+02  0.33358009451E+02 -0.64628687746E+00  0.41453920733E+02  0.00000000000E+00 0.  1.
         11    1    3    3    0    0  0.31849666230E+02 -0.60986327160E+02 -0.19227536443E+02  0.71438305531E+02  0.00000000000E+00 0. -1.
          1    1    1    2  501    0 -0.16040690600E+01  0.65681903634E+02  0.20933961440E+03  0.21940774750E+03  0.00000000000E+00 0. -1.
<scales pt_clust_5="13000.00000" pt_clust_6="13000.00000" pt_clust_7="13000.00000" pt_clust_8="13000.00000" pt_clust_9="65.70149"></scales>
<clustering>
<clus scale="   65.701">  1  9  2 -1</clus>
<clus scale="   81.762">  5  6 -1 -1</clus>
<clus scale="   91.649">  7  8 -1 -1</clus>
<clus scale="   99.711">  1  5  2 -1</clus>
<clus scale="   65.701">  1  5  2 -1</clus>
</clustering>
</event>
<event>
 9    2  0.6469128E-005  0.1295050E+03  0.7546771E-02  0.1230717E+00
         21   -1    0    0  501  502  0.00000000000E+00  0.00000000000E+00  0.13423324593E+03  0.13423324593E+03  0.00000000000E+00 0.  1.
          2   -1    0    0  502    0 -0.00000000000E+00 -0.00000000000E+00 -0.18493122005E+03  0.18493122005E+03  0.00000000000E+00 0. -1.
         24    2    1    2    0    0  0.98261819952E+02  0.15592320792E+02 -0.71963730417E+01  0.12828147064E+03  0.80658801118E+02 0.  0.
         23    2    1    2    0    0 -0.86471428846E+02  0.15813729877E+02  0.11349087981E+02  0.12658718340E+03  0.90377713761E+02 0.  0.
        -11    1    3    3    0    0 -0.23663746282E+01  0.24169600528E+02  0.91935122124E+01  0.25967094281E+02  0.00000000000E+00 0.  1.
         12    1    3    3    0    0  0.10062819458E+03 -0.85772797362E+01 -0.16389885254E+02  0.10231437636E+03  0.00000000000E+00 0. -1.
        -11    1    4    4    0    0 -0.49872169729E+02  0.43032316748E+02 -0.22695680631E+02  0.69671425401E+02  0.00000000000E+00 0. -1.
         11    1    4    4    0    0 -0.36599259117E+02 -0.27218586870E+02  0.34044768611E+02  0.56915758002E+02  0.00000000000E+00 0.  1.
          1    1    1    2  501    0 -0.11790391106E+02 -0.31406050670E+02 -0.54850689067E+02  0.64295811933E+02  0.00000000000E+00 0. -1.
<scales pt_clust_5="13000.00000" pt_clust_6="13000.00000" pt_clust_7="13000.00000" pt_clust_8="13000.00000" pt_clust_9="33.54630"></scales>
<clustering>
<clus scale="   33.546">  1  9  2 -1</clus>
<clus scale="   80.659">  5  6 -1 -1</clus>
<clus scale="   90.378">  7  8 -1 -1</clus>
<clus scale="  122.920">  2  5  1 -1</clus>
<clus scale="   33.546">  1  5  2 -1</clus>
</clustering>
</event>
<event>
 9    2  0.6469128E-005  0.1691351E+03  0.7546771E-02  0.1209124E+00
          2   -1    0    0  502    0 -0.00000000000E+00  0.00000000000E+00  0.49409116511E+03  0.49409116511E+03  0.00000000000E+00 0. -1.
         21   -1    0    0  501  502  0.00000000000E+00 -0.00000000000E+00 -0.91760304466E+02  0.91760304466E+02  0.00000000000E+00 0. -1.
         24    2    1    2    0    0 -0.16798712226E+02 -0.10824592946E+02  0.18659996252E+03  0.20581790481E+03  0.84510918730E+02 0.  0.
         23    2    1    2    0    0 -0.12092887430E+02  0.14698283993E+03  0.12745348919E+03  0.21521034528E+03  0.91219009263E+02 0.  0.
        -13    1    3    3    0    0  0.25316770286E+02  0.21166804155E+02  0.57360885804E+02  0.66175854177E+02  0.00000000000E+00 0.  1.
         14    1    3    3    0    0 -0.42115482511E+02 -0.31991397101E+02  0.12923907672E+03  0.13964205064E+03  0.00000000000E+00 0. -1.
        -11    1    4    4    0    0 -0.51736048851E+02  0.84502943180E+02  0.66341123716E+02  0.11924139739E+03  0.00000000000E+00 0. -1.
         11    1    4    4    0    0  0.39643161422E+02  0.62479896746E+02  0.61112365474E+02  0.95968947888E+02  0.00000000000E+00 0.  1.
          1    1    1    2  501    0  0.28891599655E+02 -0.13615824698E+03  0.88277408932E+02  0.16482321948E+03  0.00000000000E+00 0. -1.
<scales pt_clust_5="13000.00000" pt_clust_6="13000.00000" pt_clust_7="13000.00000" pt_clust_8="13000.00000" pt_clust_9="142.42816"></scales>
<clustering>
<clus scale="   84.511">  5  6 -1 -1</clus>
<clus scale="   86.842">  1  5  2 -1</clus>
<clus scale="   91.219">  7  8 -1 -1</clus>
<clus scale="  142.428">  2  9  1 -1</clus>
<clus scale="  142.428">  2  5  1 -1</clus>
</clustering>
</event>
<event>
 9    2  0.6469128E-005  0.1181041E+03  0.7546771E-02  0.1248323E+00
          2   -1    0    0  502    0 -0.00000000000E+00  0.00000000000E+00  0.73476872673E+03  0.73476872673E+03  0.00000000000E+00 0. -1.
         21   -1    0    0  501  502  0.00000000000E+00 -0.00000000000E+00 -0.38740328401E+02  0.38740328401E+02  0.00000000000E+00 0.  1.
         24    2    1    2    0    0 -0.71398623594E+02 -0.14124980853E+02  0.48872018919E+03  0.50062112956E+03  0.80478652472E+02 0.  0.
         23    2    1    2    0    0  0.10206009391E+03  0.31774705581E+02  0.18618535185E+03  0.23168339130E+03  0.87099448191E+02 0.  0.
        -11    1    3    3    0    0  0.16370086971E+02 -0.12628461708E+02  0.87222418344E+02  0.89639322032E+02  0.00000000000E+00 0.  1.
         12    1    3    3    0    0 -0.87768710565E+02 -0.14965191444E+01  0.40149777085E+03  0.41098180753E+03  0.00000000000E+00 0. -1.
        -13    1    4    4    0    0 -0.30989056770E+00  0.20930591297E+02  0.84247684383E+02  0.86809319822E+02  0.00000000000E+00 0. -1.
         13    1    4    4    0    0  0.10236998448E+03  0.10844114284E+02  0.10193766747E+03  0.14487407147E+03  0.00000000000E+00 0.  1.
          1    1    1    2  501    0 -0.30661470317E+02 -0.17649724729E+02  0.21122857292E+02  0.41204534279E+02  0.00000000000E+00 0. -1.
<scales pt_clust_5="13000.00000" pt_clust_6="13000.00000" pt_clust_7="13000.00000" pt_clust_8="13000.00000" pt_clust_9="35.37850"></scales>
<clustering>
<clus scale="   35.379">  2  9  1 -1</clus>
<clus scale="   80.479">  5  6 -1 -1</clus>
<clus scale="   87.099">  7  8 -1 -1</clus>
<clus scale="  113.310">  1  5  2 -1</clus>
<clus scale="   35.379">  2  5  1 -1</clus>
</clustering>
</event>
<event>
 9    2  0.6469128E-005  0.1043477E+03  0.7546771E-02  0.1276277E+00
         21   -1    0    0  501  502  0.00000000000E+00  0.00000000000E+00  0.35218182809E+03  0.35218182809E+03  0.00000000000E+00 0. -1.
          2   -1    0    0  502    0 -0.00000000000E+00 -0.00000000000E+00 -0.56765254172E+02  0.56765254172E+02  0.00000000000E+00 0. -1.
         23    2    1    2    0    0  0.31672501382E+02  0.17389278168E+02  0.52142964849E+02  0.11097396665E+03  0.91053820089E+02 0.  0.
         24    2    1    2    0    0 -0.48120834328E+02 -0.62469051742E+02  0.11429464614E+03  0.16035659581E+03  0.80205826235E+02 0.  0.
        -13    1    4    4    0    0  0.18739138543E+02 -0.10053137666E+02  0.48315480701E+02  0.52788318458E+02  0.00000000000E+00 0.  1.
         14    1    4    4    0    0 -0.66859972870E+02 -0.52415914076E+02  0.65979165434E+02  0.10756827735E+03  0.00000000000E+00 0. -1.
        -11    1    3    3    0    0  0.56835608307E+02 -0.61359763385E+01  0.50839083268E+02  0.76501953993E+02  0.00000000000E+00 0.  1.
         11    1    3    3    0    0 -0.25163106925E+02  0.23525254507E+02  0.13038815815E+01  0.34472012661E+02  0.00000000000E+00 0. -1.
          1    1    1    2  501    0  0.16448332946E+02  0.45079773574E+02  0.12897896293E+03  0.13761651980E+03  0.00000000000E+00 0. -1.
<scales pt_clust_5="13000.00000" pt_clust_6="13000.00000" pt_clust_7="13000.00000" pt_clust_8="13000.00000" pt_clust_9="47.98681"></scales>
<clustering>
<clus scale="   47.987">  1  9  2 -1</clus>
<clus scale="   80.206">  5  6 -1 -1</clus>
<clus scale="   91.054">  7  8 -1 -1</clus>
<clus scale="   95.030">  1  5  2 -1</clus>
<clus scale="   47.987">  1  5  2 -1</clus>
</clustering>
</event>
<event>
 9    2  0.6469128E-005  0.2755777E+03  0.7546771E-02  0.1098631E+00
         21   -1    0    0  501  502  0.00000000000E+00  0.00000000000E+00  0.67083310286E+02  0.67083310286E+02  0.00000000000E+00 0.  1.
          2   -1    0    0  502    0 -0.00000000000E+00 -0.00000000000E+00 -0.20706350484E+04  0.20706350484E+04  0.00000000000E+00 0. -1.
         24    2    1    2    0    0 -0.30056277147E+02 -0.26472093529E+03 -0.15931018935E+04  0.16172716083E+04  0.81321943429E+02 0.  0.
         23    2    1    2    0    0 -0.10298456042E+02  0.23288341916E+03 -0.25915854059E+03  0.36066192448E+03  0.92591195551E+02 0.  0.
        -11    1    3    3    0    0 -0.55162492221E+02 -0.21380874040E+03 -0.13187848445E+04  0.13371426790E+04  0.00000000000E+00 0.  1.
         12    1    3    3    0    0  0.25106215074E+02 -0.50912194895E+02 -0.27431704897E+03  0.28012892921E+03  0.00000000000E+00 0. -1.
        -11    1    4    4    0    0 -0.19450109852E+02  0.17426117209E+02 -0.66657763080E+02  0.71590737621E+02  0.00000000000E+00 0. -1.
         11    1    4    4    0    0  0.91516538100E+01  0.21545730195E+03 -0.19250077751E+03  0.28907118686E+03  0.00000000000E+00 0.  1.
          1    1    1    2  501    0  0.40354733189E+02  0.31837516138E+02 -0.15129130402E+03  0.15978482593E+03  0.00000000000E+00 0. -1.
<scales pt_clust_5="13000.00000" pt_clust_6="13000.00000" pt_clust_7="13000.00000" pt_clust_8="13000.00000" pt_clust_9="51.40170"></scales>
<clustering>
<clus scale="   51.402">  1  9  2 -1</clus>
<clus scale="   81.322">  5  6 -1 -1</clus>
<clus scale="   92.591">  7  8 -1 -1</clus>
<clus scale="  271.999">  2  5  1 -1</clus>
<clus scale="   51.402">  1  5  2 -1</clus>
</clustering>
</event>
<event>
 9    2  0.6469128E-005  0.9859926E+02  0.7546771E-02  0.1287596E+00
         -1   -1    0    0    0  501 -0.00000000000E+00  0.00000000000E+00  0.39271293360E+02  0.39271293360E+02  0.00000000000E+00 0.  1.
         21   -1    0    0  501  502  0.00000000000E+00 -0.00000000000E+00 -0.49489964025E+03  0.49489964025E+03  0.00000000000E+00 0. -1.
         23    2    1    2    0    0 -0.45649729288E+01  0.27089562552E+02 -0.89344771723E+02  0.12929797826E+03  0.89335298570E+02 0.  0.
         24    2    1    2    0    0  0.27299050336E+02 -0.76295781956E+02 -0.28580231815E+03  0.30784036786E+03  0.80724485329E+02 0.  0.
        -11    1    4    4    0    0 -0.10091423520E+02 -0.30080608456E+02 -0.25127446370E+02  0.40473057641E+02  0.00000000000E+00 0.  1.
         12    1    4    4    0    0  0.37390473856E+02 -0.46215173499E+02 -0.26067487178E+03  0.26736731022E+03  0.00000000000E+00 0. -1.
        -13    1    3    3    0    0  0.31765522595E+02  0.43005173812E+02 -0.45835001332E+02  0.70422586912E+02  0.00000000000E+00 0. -1.
         13    1    3    3    0    0 -0.36330495523E+02 -0.15915611260E+02 -0.43509770391E+02  0.58875391347E+02  0.00000000000E+00 0.  1.
         -2    1    1    2    0  502 -0.22734077407E+02  0.49206219404E+02 -0.80481257013E+02  0.97032587485E+02  0.00000000000E+00 0.  1.
<scales pt_clust_5="13000.00000" pt_clust_6="13000.00000" pt_clust_7="13000.00000" pt_clust_8="13000.00000" pt_clust_9="54.20418"></scales>
<clustering>
<clus scale="   54.204">  2  9  1 -1</clus>
<clus scale="   80.724">  5  6 -1 -1</clus>
<clus scale="   89.335">  7  8 -1 -1</clus>
<clus scale="   90.871">  2  5  1 -1</clus>
<clus scale="   54.204">  2  5  1 -1</clus>
</clustering>
</event>
<event>
 9    2  0.6469128E-005  0.1124130E+03  0.7546771E-02  0.1260624E+00
          4   -1    0    0  502    0 -0.00000000000E+00  0.00000000000E+00  0.12854633115E+03  0.12854633115E+03  0.00000000000E+00 0. -1.
         21   -1    0    0  501  502  0.00000000000E+00 -0.00000000000E+00 -0.18469648206E+03  0.18469648206E+03  0.00000000000E+00 0. -1.
         23    2    1    2    0    0 -0.37978774863E+02  0.41007666391E+02  0.44381150766E+02  0.11690305891E+03  0.92588458229E+02 0.  0.
         24    2    1    2    0    0  0.66509997465E+02 -0.63913984939E+02 -0.10228511735E+03  0.15970908461E+03  0.80846578408E+02 0.  0.
        -13    1    4    4    0    0 -0.13334154334E+02 -0.31625484980E+02 -0.43609296415E+02  0.55495420584E+02  0.00000000000E+00 0.  1.
         14    1    4    4    0    0  0.79844151799E+02 -0.32288499959E+02 -0.58675820939E+02  0.10421366402E+03  0.00000000000E+00 0. -1.
        -13    1    3    3    0    0  0.22588378123E+02  0.32492136681E+02  0.38907693901E+02  0.55495787381E+02  0.00000000000E+00 0.  1.
         13    1    3    3    0    0 -0.60567152986E+02  0.85155297098E+01  0.54734568652E+01  0.61407271533E+02  0.00000000000E+00 0. -1.
          3    1    1    2  501    0 -0.28531222603E+02  0.22906318548E+02  0.17538156693E+01  0.36630669691E+02  0.00000000000E+00 0. -1.
<scales pt_clust_5="13000.00000" pt_clust_6="13000.00000" pt_clust_7="13000.00000" pt_clust_8="13000.00000" pt_clust_9="36.58868"></scales>
<clustering>
<clus scale="   36.589">  2  9  1 -1</clus>
<clus scale="   80.847">  5  6 -1 -1</clus>
<clus scale="   92.588">  7  8 -1 -1</clus>
<clus scale="  102.957">  2  5  1 -1</clus>
<clus scale="   36.589">  2  5  1 -1</clus>
</clustering>
</event>
<event>
 9    2  0.6469128E-005  0.9732324E+02  0.7546771E-02  0.1287827E+00
          2   -1    0    0  502    0 -0.00000000000E+00  0.00000000000E+00  0.28666684407E+03  0.28666684407E+03  0.00000000000E+00 0. -1.
         21   -1    0    0  501  502  0.00000000000E+00 -0.00000000000E+00 -0.94216001520E+02  0.94216001520E+02  0.00000000000E+00 0. -1.
         23    2    1    2    0    0  0.49134898865E+02  0.13086540518E+02  0.17831364096E+03  0.20502185698E+03  0.87479777412E+02 0.  0.
         24    2    1    2    0    0 -0.94459871543E+01  0.35669047009E+02 -0.32897306502E+02  0.97346264012E+02  0.83860328846E+02 0.  0.
        -13    1    4    4    0    0  0.23875210302E+02 -0.80643897527E+01  0.10501320437E+02  0.27300875077E+02  0.00000000000E+00 0.  1.
         14    1    4    4    0    0 -0.33321197456E+02  0.43733436762E+02 -0.43398626939E+02  0.70045388935E+02  0.00000000000E+00 0. -1.
        -13    1    3    3    0    0 -0.19106063919E+02 -0.15295596755E+02  0.25902823537E+02  0.35636403097E+02  0.00000000000E+00 0.  1.
         13    1    3    3    0    0  0.68240962783E+02  0.28382137272E+02  0.15241081743E+03  0.16938545388E+03  0.00000000000E+00 0. -1.
          1    1    1    2  501    0 -0.39688911711E+02 -0.48755587527E+02  0.47034508089E+02  0.78514724600E+02  0.00000000000E+00 0. -1.
<scales pt_clust_5="13000.00000" pt_clust_6="13000.00000" pt_clust_7="13000.00000" pt_clust_8="13000.00000" pt_clust_9="62.86749"></scales>
<clustering>
<clus scale="   62.867">  2  9  1 -1</clus>
<clus scale="   83.860">  5  6 -1 -1</clus>
<clus scale="   87.480">  7  8 -1 -1</clus>
<clus scale="   94.083">  2  5  1 -1</clus>
<clus scale="   62.867">  2  5  1 -1</clus>
</clustering>
</event>
<event>
 9    2  0.6469128E-005  0.1161773E+03  0.7546771E-02  0.1252612E+00
          2   -1    0    0  502    0 -0.00000000000E+00  0.00000000000E+00  0.69348346889E+03  0.69348346889E+03  0.00000000000E+00 0. -1.
         21   -1    0    0  501  502  0.00000000000E+00 -0.00000000000E+00 -0.62690890341E+02  0.62690890341E+02  0.00000000000E+00 0. -1.
         24    2    1    2    0    0  0.38617434080E+02 -0.62202062028E+02  0.56428099181E+03  0.57466255540E+03  0.80396592751E+02 0.  0.
         23    2    1    2    0    0 -0.11430003930E+02  0.85031293346E+02  0.75100906965E+02  0.14498638005E+03  0.89554108424E+02 0.  0.
        -11    1    3    3    0    0 -0.53391731393E+01 -0.32742916455E+02  0.68981105071E+02  0.76544093205E+02  0.00000000000E+00 0.  1.
         12    1    3    3    0    0  0.43956607219E+02 -0.29459145573E+02  0.49529988674E+03  0.49811846219E+03  0.00000000000E+00 0. -1.
        -11    1    4    4    0    0  0.14962925791E+02  0.47600428423E+02  0.84593539585E+02  0.98212814204E+02  0.00000000000E+00 0. -1.
         11    1    4    4    0    0 -0.26392929720E+02  0.37430864923E+02 -0.94926326199E+01  0.46773565849E+02  0.00000000000E+00 0.  1.
          1    1    1    2  501    0 -0.27187430150E+02 -0.22829231319E+02 -0.85893202192E+01  0.36525423784E+02  0.00000000000E+00 0. -1.
<scales pt_clust_5="13000.00000" pt_clust_6="13000.00000" pt_clust_7="13000.00000" pt_clust_8="13000.00000" pt_clust_9="35.50113"></scales>
<clustering>
<clus scale="   35.501">  2  9  1 -1</clus>
<clus scale="   80.397">  5  6 -1 -1</clus>
<clus scale="   89.554">  7  8 -1 -1</clus>
<clus scale="  109.274">  1  5  2 -1</clus>
<clus scale="   35.501">  2  5  1 -1</clus>
</clustering>
</event>
<event>
 9    2  0.6469128E-005  0.9437761E+02  0.7546771E-02  0.1298905E+00
         21   -1    0    0  501  502  0.00000000000E+00  0.00000000000E+00  0.33028359222E+02  0.33028359222E+02  0.00000000000E+00 0.  1.
          2   -1    0    0  502    0 -0.00000000000E+00 -0.00000000000E+00 -0.51544380919E+03  0.51544380919E+03  0.00000000000E+00 0. -1.
         23    2    1    2    0    0  0.19870005308E+02 -0.13975814951E+02 -0.30778644139E+03  0.32250004976E+03  0.93186093784E+02 0.  0.
         24    2    1    2    0    0  0.17912247412E+02  0.49446819355E+00 -0.57636163763E+02  0.10229281130E+03  0.82588127254E+02 0.  0.
        -11    1    4    4    0    0 -0.45585630889E+01  0.38780164960E+02 -0.35113694812E+02  0.52513362634E+02  0.00000000000E+00 0.  1.
         12    1    4    4    0    0  0.22470810501E+02 -0.38285696766E+02 -0.22522468950E+02  0.49779448662E+02  0.00000000000E+00 0. -1.
        -13    1    3    3    0    0  0.25673307959E+02  0.36467965142E+02 -0.16637085332E+03  0.17224486075E+03  0.00000000000E+00 0. -1.
         13    1    3    3    0    0 -0.58033026512E+01 -0.50443780093E+02 -0.14141558808E+03  0.15025518900E+03  0.00000000000E+00 0.  1.
          1    1    1    2  501    0 -0.37782252720E+02  0.13481346757E+02 -0.11699284481E+03  0.12367930736E+03  0.00000000000E+00 0. -1.
<scales pt_clust_5="13000.00000" pt_clust_6="13000.00000" pt_clust_7="13000.00000" pt_clust_8="13000.00000" pt_clust_9="40.11542"></scales>
<clustering>
<clus scale="   40.115">  1  9  2 -1</clus>
<clus scale="   82.588">  5  6 -1 -1</clus>
<clus scale="   83.930">  1  5  2 -1</clus>
<clus scale="   93.186">  7  8 -1 -1</clus>
<clus scale="   40.115">  1  5  2 -1</clus>
</clustering>
</event>
<event>
 9    2  0.6469128E-005  0.1133106E+03  0.7546771E-02  0.1259127E+00
         -1   -1    0    0    0  501 -0.00000000000E+00  0.00000000000E+00  0.26945300568E+03  0.26945300568E+03  0.00000000000E+00 0.  1.
         21   -1    0    0  501  502  0.00000000000E+00 -0.00000000000E+00 -0.71667016653E+03  0.71667016653E+03  0.00000000000E+00 0.  1.
         23    2    1    2    0    0 -0.12140854313E+02 -0.57231788784E+02  0.19395497071E+03  0.22200109619E+03  0.90791398562E+02 0.  0.
         24    2    1    2    0    0  0.24807662825E+02  0.15416181415E+03 -0.75855574564E+02  0.19041597750E+03  0.78248905548E+02 0.  0.
        -13    1    4    4    0    0  0.13635383376E+01  0.10914534182E+03 -0.13454962729E+02  0.10998000227E+03  0.00000000000E+00 0.  1.
         14    1    4    4    0    0  0.23444124487E+02  0.45016472330E+02 -0.62400611835E+02  0.80435975231E+02  0.00000000000E+00 0. -1.
        -13    1    3    3    0    0  0.32715947248E+02 -0.46995671034E+02  0.13897332737E+03  0.15030805707E+03  0.00000000000E+00 0.  1.
         13    1    3    3    0    0 -0.44856801561E+02 -0.10236117750E+02  0.54981643343E+02  0.71693039115E+02  0.00000000000E+00 0. -1.
         -2    1    1    2    0  502 -0.12666808512E+02 -0.96930025367E+02 -0.56531655700E+03  0.57370609852E+03  0.00000000000E+00 0.  1.
<scales pt_clust_5="13000.00000" pt_clust_6="13000.00000" pt_clust_7="13000.00000" pt_clust_8="13000.00000" pt_clust_9="97.75417"></scales>
<clustering>
<clus scale="   78.249">  5  6 -1 -1</clus>
<clus scale="   90.791">  7  8 -1 -1</clus>
<clus scale="   97.754">  2  9  1 -1</clus>
<clus scale="  103.533">  2  5  1 -1</clus>
<clus scale="   97.754">  2  5  1 -1</clus>
</clustering>
</event>
<event>
 9    2  0.6469128E-005  0.1053911E+03  0.7546771E-02  0.1274203E+00
         -1   -1    0    0    0  501 -0.00000000000E+00  0.00000000000E+00  0.18344958695E+03  0.18344958695E+03  0.00000000000E+00 0.  1.
         21   -1    0    0  501  502  0.00000000000E+00 -0.00000000000E+00 -0.18215769185E+03  0.18215769185E+03  0.00000000000E+00 0.  1.
         24    2    1    2    0    0 -0.46530787763E+02 -0.10973724577E+02  0.10285867577E+03  0.13892792614E+03  0.80221721753E+02 0.  0.
         23    2    1    2    0    0  0.67172243901E+02  0.52722700825E+01  0.92364272839E+01  0.11382578743E+03  0.91274810940E+02 0.  0.
        -13    1    3    3    0    0 -0.67116846700E+02  0.44889072386E+01  0.79762276313E+02  0.10434003125E+03  0.00000000000E+00 0.  1.
         14    1    3    3    0    0  0.20586058937E+02 -0.15462631815E+02  0.23096399453E+02  0.34587894890E+02  0.00000000000E+00 0. -1.
        -11    1    4    4    0    0  0.77404957693E+02 -0.15172335775E+02 -0.15235675139E+02  0.80335876451E+02  0.00000000000E+00 0. -1.
         11    1    4    4    0    0 -0.10232713792E+02  0.20444605858E+02  0.24472102423E+02  0.33489910977E+02  0.00000000000E+00 0.  1.
         -2    1    1    2    0  502 -0.20641456137E+02  0.57014544943E+01 -0.11080320794E+03  0.11285356523E+03  0.00000000000E+00 0.  1.
<scales pt_clust_5="13000.00000" pt_clust_6="13000.00000" pt_clust_7="13000.00000" pt_clust_8="13000.00000" pt_clust_9="21.41439"></scales>
<clustering>
<clus scale="   21.414">  2  9  1 -1</clus>
<clus scale="   80.222">  5  6 -1 -1</clus>
<clus scale="   91.275">  7  8 -1 -1</clus>
<clus scale="   95.978">  1  5  2 -1</clus>
<clus scale="   21.414">  2  5  1 -1</clus>
</clustering>
</event>
<event>
 9    2  0.6469128E-005  0.1624352E+03  0.7546771E-02  0.1216379E+00
         21   -1    0    0  501  502  0.00000000000E+00  0.00000000000E+00  0.23533476702E+03  0.23533476702E+03  0.00000000000E+00 0. -1.
          4   -1    0    0  502    0 -0.00000000000E+00 -0.00000000000E+00 -0.40741164011E+03  0.40741164011E+03  0.00000000000E+00 0. -1.
         24    2    1    2    0    0 -0.20413130388E+02 -0.16557845541E+02 -0.24151905666E+03  0.25571875791E+03  0.79810840567E+02 0.  0.
         23    2    1    2    0    0  0.47525883545E+02  0.14783660095E+03 -0.72342414232E+02  0.19190695534E+03  0.86489793763E+02 0.  0.
        -11    1    3    3    0    0  0.20106090283E+02 -0.22253265054E+02 -0.39488682082E+02  0.49586476832E+02  0.00000000000E+00 0.  1.
         12    1    3    3    0    0 -0.40519220671E+02  0.56954195126E+01 -0.20203037458E+03  0.20613228107E+03  0.00000000000E+00 0. -1.
        -13    1    4    4    0    0  0.24022077036E+02  0.13953739051E+03 -0.33083910935E+02  0.14540388130E+03  0.00000000000E+00 0. -1.
         13    1    4    4    0    0  0.23503806509E+02  0.82992104437E+01 -0.39258503297E+02  0.46503074044E+02  0.00000000000E+00 0.  1.
          3    1    1    2  501    0 -0.27112753157E+02 -0.13127875541E+03  0.14178459780E+03  0.19512069388E+03  0.00000000000E+00 0. -1.
<scales pt_clust_5="13000.00000" pt_clust_6="13000.00000" pt_clust_7="13000.00000" pt_clust_8="13000.00000" pt_clust_9="137.49439"></scales>
<clustering>
<clus scale="   79.811">  5  6 -1 -1</clus>
<clus scale="   84.028">  2  5  1 -1</clus>
<clus scale="   86.490">  7  8 -1 -1</clus>
<clus scale="  137.494">  1  9  2 -1</clus>
<clus scale="  137.494">  1  5  2 -1</clus>
</clustering>
</event>
<event>
 9    2  0.6469128E-005  0.9437965E+02  0.7546771E-02  0.1299335E+00
         21   -1    0    0  501  502  0.00000000000E+00  0.00000000000E+00  0.69849524101E+02  0.69849524101E+02  0.00000000000E+00 0.  1.
          2   -1    0    0  502    0 -0.00000000000E+00 -0.00000000000E+00 -0.36602916743E+03  0.36602916743E+03  0.00000000000E+00 0. -1.
         24    2    1    2    0    0  0.29895929623E+02 -0.20166392547E+02 -0.13817345221E+03  0.16341876275E+03  0.79456523512E+02 0.  0.
         23    2    1    2    0    0 -0.56210039636E+01 -0.58505329715E+02 -0.17726825154E+02  0.10980442652E+03  0.91040114577E+02 0.  0.
        -11    1    3    3    0    0  0.23650700558E+02 -0.43264800355E+02 -0.43449962594E+02  0.65719843548E+02  0.00000000000E+00 0.  1.
         12    1    3    3    0    0  0.62452290651E+01  0.23098407808E+02 -0.94723489614E+02  0.97698919205E+02  0.00000000000E+00 0. -1.
        -13    1    4    4    0    0 -0.23737206465E+02 -0.77622667305E+02 -0.19251454808E+02  0.83422730491E+02  0.00000000000E+00 0.  1.
         13    1    4    4    0    0  0.18116202502E+02  0.19117337591E+02  0.15246296546E+01  0.26381696026E+02  0.00000000000E+00 0. -1.
          1    1    1    2  501    0 -0.24274925659E+02  0.78671722262E+02 -0.14027936597E+03  0.16265550226E+03  0.00000000000E+00 0. -1.
<scales pt_clust_5="13000.00000" pt_clust_6="13000.00000" pt_clust_7="13000.00000" pt_clust_8="13000.00000" pt_clust_9="82.33176"></scales>
<clustering>
<clus scale="   79.457">  5  6 -1 -1</clus>
<clus scale="   82.332">  1  9  2 -1</clus>
<clus scale="   83.262">  2  5  1 -1</clus>
<clus scale="   91.040">  7  8 -1 -1</clus>
<clus scale="   82.332">  1  5  2 -1</clus>
</clustering>
</event>
<event>
 9    2  0.6469128E-005  0.1071299E+03  0.7546771E-02  0.1271886E+00
          2   -1    0    0  502    0 -0.00000000000E+00  0.00000000000E+00  0.13757400648E+04  0.13757400648E+04  0.00000000000E+00 0. -1.
         21   -1    0    0  501  502  0.00000000000E+00 -0.00000000000E+00 -0.22186964459E+02  0.22186964459E+02  0.00000000000E+00 0.  1.
         24    2    1    2    0    0  0.37807964604E+02  0.13591271159E+02  0.80639857290E+03  0.81137139626E+03  0.80191766762E+02 0.  0.
         23    2    1    2    0    0 -0.84978966836E+02 -0.38990621722E+02  0.49268026458E+03  0.51015094874E+03  0.93693404283E+02 0.  0.
        -13    1    3    3    0    0 -0.78464539911E+01 -0.21178473447E+02  0.94412324419E+02  0.97076163810E+02  0.00000000000E+00 0.  1.
         14    1    3    3    0    0  0.45654418595E+02  0.34769744605E+02  0.71198624848E+03  0.71429523245E+03  0.00000000000E+00 0. -1.
        -13    1    4    4    0    0  0.83902210411E+01  0.20158123054E+02  0.80388486961E+02  0.83300987810E+02  0.00000000000E+00 0. -1.
         13    1    4    4    0    0 -0.93369187877E+02 -0.59148744776E+02  0.41229177762E+03  0.42684996093E+03  0.00000000000E+00 0.  1.
          1    1    1    2  501    0  0.47171002232E+02  0.25399350563E+02  0.54474262822E+02  0.76404684219E+02  0.00000000000E+00 0. -1.
<scales pt_clust_5="13000.00000" pt_clust_6="13000.00000" pt_clust_7="13000.00000" pt_clust_8="13000.00000" pt_clust_9="53.57453"></scales>
<clustering>
<clus scale="   53.575">  2  9  1 -1</clus>
<clus scale="   80.192">  5  6 -1 -1</clus>
<clus scale="   93.693">  7  8 -1 -1</clus>
<clus scale="   95.546">  1  5  2 -1</clus>
<clus scale="   53.575">  2  5  1 -1</clus>
</clustering>
</event>
<event>
 9    2  0.6469128E-005  0.9654844E+02  0.7546771E-02  0.1291919E+00
         -1   -1    0    0    0  501 -0.00000000000E+00  0.00000000000E+00  0.44076803682E+03  0.44076803682E+03  0.00000000000E+00 0.  1.
         21   -1    0    0  501  502  0.00000000000E+00 -0.00000000000E+00 -0.30389873079E+03  0.30389873079E+03  0.00000000000E+00 0.  1.
         23    2    1    2    0    0  0.44296721357E+01 -0.64477244870E+01  0.18119230377E+03  0.20289258592E+03  0.90959086038E+02 0.  0.
         24    2    1    2    0    0  0.24656486460E+02  0.54609009303E+02  0.23524040734E+03  0.25660543965E+03  0.83175814931E+02 0.  0.
        -11    1    4    4    0    0 -0.24510662796E+02  0.43929169950E+02  0.14214523704E+03  0.15078399443E+03  0.00000000000E+00 0.  1.
         12    1    4    4    0    0  0.49167149256E+02  0.10679839353E+02  0.93095170297E+02  0.10582144521E+03  0.00000000000E+00 0. -1.
        -13    1    3    3    0    0  0.42033831028E+02 -0.19485816550E+02  0.63161958266E+02  0.78332451574E+02  0.00000000000E+00 0.  1.
         13    1    3    3    0    0 -0.37604158893E+02  0.13038092063E+02  0.11803034550E+03  0.12456013435E+03  0.00000000000E+00 0. -1.
         -2    1    1    2    0  502 -0.29086158595E+02 -0.48161284816E+02 -0.27956340507E+03  0.28516874204E+03  0.00000000000E+00 0.  1.
<scales pt_clust_5="13000.00000" pt_clust_6="13000.00000" pt_clust_7="13000.00000" pt_clust_8="13000.00000" pt_clust_9="56.26290"></scales>
<clustering>
<clus scale="   56.263">  2  9  1 -1</clus>
<clus scale="   83.176">  5  6 -1 -1</clus>
<clus scale="   89.254">  2  5  1 -1</clus>
<clus scale="   90.959">  7  8 -1 -1</clus>
<clus scale="   56.263">  2  5  1 -1</clus>
</clustering>
</event>
<event>
 9    2  0.6469128E-005  0.1647658E+03  0.7546771E-02  0.1184778E+00
          2   -1    0    0  502    0 -0.00000000000E+00  0.00000000000E+00  0.85022582506E+03  0.85022582506E+03  0.00000000000E+00 0. -1.
         21   -1    0    0  501  502  0.00000000000E+00 -0.00000000000E+00 -0.61174165062E+02  0.61174165062E+02  0.00000000000E+00 0. -1.
         24    2    1    2    0    0 -0.14072468809E+03  0.30318258887E+02  0.67191722896E+03  0.69183480780E+03  0.80249635854E+02 0.  0.
         23    2    1    2    0    0  0.11794280561E+03 -0.20981425512E+01  0.10387381490E+03  0.18094869523E+03  0.89653517972E+02 0.  0.
        -13    1    3    3    0    0 -0.36973507285E+02  0.45927146369E+02  0.20753295736E+03  0.21574584910E+03  0.00000000000E+00 0.  1.
         14    1    3    3    0    0 -0.10375118080E+03 -0.15608887482E+02  0.46438427160E+03  0.47608895870E+03  0.00000000000E+00 0. -1.
        -11    1    4    4    0    0  0.54521375402E+02 -0.21997418554E+02  0.97918426640E+02  0.11421245586E+03  0.00000000000E+00 0.  1.
         11    1    4    4    0    0  0.63421430209E+02  0.19899276003E+02  0.59553882634E+01  0.66736239365E+02  0.00000000000E+00 0. -1.
          1    1    1    2  501    0  0.22781882478E+02 -0.28220116336E+02  0.13260616140E+02  0.38616487096E+02  0.00000000000E+00 0. -1.
<scales pt_clust_5="13000.00000" pt_clust_6="13000.00000" pt_clust_7="13000.00000" pt_clust_8="13000.00000" pt_clust_9="36.26829"></scales>
<clustering>
<clus scale="   36.268">  2  9  1 -1</clus>
<clus scale="   80.250">  5  6 -1 -1</clus>
<clus scale="   89.654">  7  8 -1 -1</clus>
<clus scale="  159.844">  1  5  2 -1</clus>
<clus scale="   36.268">  2  5  1 -1</clus>
</clustering>
</event>
<event>
 9    2  0.6469128E-005  0.1351322E+03  0.7546771E-02  0.1243485E+00
          4   -1    0    0  502    0 -0.00000000000E+00  0.00000000000E+00  0.42866709473E+03  0.42866709473E+03  0.00000000000E+00 0. -1.
         21   -1    0    0  501  502  0.00000000000E+00 -0.00000000000E+00 -0.94813779547E+02  0.94813779547E+02  0.00000000000E+00 0. -1.
         23    2    1    2    0    0  0.28557050479E+02  0.55415914091E+01 -0.17383033769E+02  0.85169660871E+02  0.78137615157E+02 0.  0.
         24    2    1    2    0    0 -0.38622239358E+02  0.10486622591E+03  0.26449713129E+03  0.29754585533E+03  0.78014106778E+02 0.  0.
        -13    1    4    4    0    0 -0.34790784372E+02  0.13788310747E+02  0.37729435378E+02  0.53141570210E+02  0.00000000000E+00 0.  1.
         14    1    4    4    0    0 -0.38314549858E+01  0.91077915164E+02  0.22676769591E+03  0.24440428512E+03  0.00000000000E+00 0. -1.
        -13    1    3    3    0    0 -0.73776233252E+01  0.35322445623E+02 -0.12741911951E+02  0.38268274208E+02  0.00000000000E+00 0. -1.
         13    1    3    3    0    0  0.35934673804E+02 -0.29780854214E+02 -0.46411218183E+01  0.46901386663E+02  0.00000000000E+00 0.  1.
          3    1    1    2  501    0  0.10065188879E+02 -0.11040781732E+03  0.86739217664E+02  0.14076535807E+03  0.00000000000E+00 0. -1.
<scales pt_clust_5="13000.00000" pt_clust_6="13000.00000" pt_clust_7="13000.00000" pt_clust_8="13000.00000" pt_clust_9="110.33813"></scales>
<clustering>
<clus scale="   78.014">  5  6 -1 -1</clus>
<clus scale="   78.138">  7  8 -1 -1</clus>
<clus scale="   83.377">  1  7  2 -1</clus>
<clus scale="  110.338">  2  9  1 -1</clus>
<clus scale="  110.338">  2  5  1 -1</clus>
</clustering>
</event>
<event>
 9    2  0.6469128E-005  0.1111662E+03  0.7546771E-02  0.1261692E+00
          2   -1    0    0  502    0 -0.00000000000E+00  0.00000000000E+00  0.20368962924E+03  0.20368962924E+03  0.00000000000E+00 0. -1.
         21   -1    0    0  501  502  0.00000000000E+00 -0.00000000000E+00 -0.13679924724E+03  0.13679924724E+03  0.00000000000E+00 0.  1.
         24    2    1    2    0    0 -0.29194065591E+01  0.56728873807E+02  0.10684606621E+03  0.14538044266E+03  0.80577311852E+02 0.  0.
         23    2    1    2    0    0 -0.10814556903E+02 -0.97173893298E+02  0.57274441000E+01  0.13256749069E+03  0.89339889147E+02 0.  0.
        -11    1    3    3    0    0 -0.34764233533E+02  0.29826255745E+01  0.49621610448E+02  0.60660961185E+02  0.00000000000E+00 0.  1.
         12    1    3    3    0    0  0.31844826974E+02  0.53746248233E+02  0.57224455765E+02  0.84719481476E+02  0.00000000000E+00 0. -1.
        -13    1    4    4    0    0  0.20644612642E+02 -0.56368996461E+02  0.38674632599E+02  0.71410020304E+02  0.00000000000E+00 0.  1.
         13    1    4    4    0    0 -0.31459169545E+02 -0.40804896837E+02 -0.32947188499E+02  0.61157470388E+02  0.00000000000E+00 0. -1.
          1    1    1    2  501    0  0.13733963462E+02  0.40445019491E+02 -0.45683128321E+02  0.62540943126E+02  0.00000000000E+00 0. -1.
<scales pt_clust_5="13000.00000" pt_clust_6="13000.00000" pt_clust_7="13000.00000" pt_clust_8="13000.00000" pt_clust_9="42.71325"></scales>
<clustering>
<clus scale="   42.713">  2  9  1 -1</clus>
<clus scale="   80.577">  5  6 -1 -1</clus>
<clus scale="   89.340">  7  8 -1 -1</clus>
<clus scale="  104.255">  1  5  2 -1</clus>
<clus scale="   42.713">  2  5  1 -1</clus>
</clustering>
</event>
<event>
 9    2  0.6469128E-005  0.9820752E+02  0.7546771E-02  0.1290385E+00
         21   -1    0    0  501  502  0.00000000000E+00  0.00000000000E+00  0.11071625760E+03  0.11071625760E+03  0.00000000000E+00 0.  1.
         -3   -1    0    0    0  501 -0.00000000000E+00 -0.00000000000E+00 -0.16756213219E+03  0.16756213219E+03  0.00000000000E+00 0.  1.
         23    2    1    2    0    0 -0.42251422676E+02  0.16802230867E+02 -0.10438311164E+03  0.14621517504E+03  0.91736283647E+02 0.  0.
         24    2    1    2    0    0  0.10322579988E+02  0.10270421274E+02  0.28694897718E+02  0.86156643970E+02  0.79922042857E+02 0.  0.
        -11    1    4    4    0    0 -0.20593189531E+02 -0.26165460680E+02  0.91687363279E+01  0.34536596727E+02  0.00000000000E+00 0.  1.
         12    1    4    4    0    0  0.30915769519E+02  0.36435881954E+02  0.19526161390E+02  0.51620047243E+02  0.00000000000E+00 0. -1.
        -13    1    3    3    0    0 -0.63932046580E+02  0.38657662918E+01 -0.36341665569E+02  0.73640799732E+02  0.00000000000E+00 0.  1.
         13    1    3    3    0    0  0.21680623904E+02  0.12936464575E+02 -0.68041446068E+02  0.72574375310E+02  0.00000000000E+00 0. -1.
         -4    1    1    2    0  502  0.31928842688E+02 -0.27072652141E+02  0.18842339324E+02  0.45906570777E+02  0.00000000000E+00 0.  1.
<scales pt_clust_5="13000.00000" pt_clust_6="13000.00000" pt_clust_7="13000.00000" pt_clust_8="13000.00000" pt_clust_9="41.86143"></scales>
<clustering>
<clus scale="   41.861">  1  9  2 -1</clus>
<clus scale="   79.922">  5  6 -1 -1</clus>
<clus scale="   87.274">  1  5  2 -1</clus>
<clus scale="   91.736">  7  8 -1 -1</clus>
<clus scale="   41.861">  1  5  2 -1</clus>
</clustering>
</event>
<event>
 9    2  0.6469128E-005  0.1236219E+03  0.7546771E-02  0.1250083E+00
         21   -1    0    0  501  502  0.00000000000E+00  0.00000000000E+00  0.62559325357E+02  0.62559325357E+02  0.00000000000E+00 0. -1.
          2   -1    0    0  502    0 -0.00000000000E+00 -0.00000000000E+00 -0.45255633571E+03  0.45255633571E+03  0.00000000000E+00 0. -1.
         23    2    1    2    0    0  0.27971654540E+02  0.80220629666E+01 -0.17212248531E+03  0.19678627049E+03  0.90840075686E+02 0.  0.
         24    2    1    2    0    0  0.16188855290E+01  0.89894984601E+02 -0.72877966091E+02  0.14088263695E+03  0.80330507315E+02 0.  0.
        -11    1    4    4    0    0  0.22377187867E+02  0.76585621805E+01 -0.46314905916E+02  0.52004448093E+02  0.00000000000E+00 0.  1.
         12    1    4    4    0    0 -0.20758302338E+02  0.82236422420E+02 -0.26563060175E+02  0.88878188856E+02  0.00000000000E+00 0. -1.
        -11    1    3    3    0    0 -0.19076449526E+02  0.33749010740E+02 -0.48907793418E+02  0.62408964977E+02  0.00000000000E+00 0.  1.
         11    1    3    3    0    0  0.47048104066E+02 -0.25726947773E+02 -0.12321469189E+03  0.13437730551E+03  0.00000000000E+00 0. -1.
          1    1    1    2  501    0 -0.29590540069E+02 -0.97917047568E+02 -0.14499655895E+03  0.17744675363E+03  0.00000000000E+00 0. -1.
<scales pt_clust_5="13000.00000" pt_clust_6="13000.00000" pt_clust_7="13000.00000" pt_clust_8="13000.00000" pt_clust_9="93.96484"></scales>
<clustering>
<clus scale="   80.331">  5  6 -1 -1</clus>
<clus scale="   90.840">  7  8 -1 -1</clus>
<clus scale="   95.387">  2  7  1 -1</clus>
<clus scale="   93.965">  1  9  2 -1</clus>
<clus scale="   93.965">  1  5  2 -1</clus>
</clustering>
</event>
<event>
 9    2  0.6469128E-005  0.9165898E+02  0.7546771E-02  0.1309066E+00
          2   -1    0    0  502    0 -0.00000000000E+00  0.00000000000E+00  0.14767926520E+04  0.14767926520E+04  0.00000000000E+00 0. -1.
         21   -1    0    0  501  502  0.00000000000E+00 -0.00000000000E+00 -0.97106428494E+02  0.97106428494E+02  0.00000000000E+00 0. -1.
         24    2    1    2    0    0 -0.86027972882E+00 -0.19968443169E+01  0.12915546128E+04  0.12937858811E+04  0.75920096241E+02 0.  0.
         23    2    1    2    0    0  0.51053942492E+00  0.34470782104E+02  0.16771576486E+03  0.19415788230E+03  0.91543486975E+02 0.  0.
        -13    1    3    3    0    0 -0.19404481078E+02  0.11787614318E+02  0.12774618243E+03  0.12974809772E+03  0.00000000000E+00 0.  1.
         14    1    3    3    0    0  0.18544201349E+02 -0.13784458635E+02  0.11638084303E+04  0.11640377834E+04  0.00000000000E+00 0. -1.
        -11    1    4    4    0    0 -0.23095454537E+01 -0.25868591628E+02  0.10043854316E+03  0.10374207914E+03  0.00000000000E+00 0. -1.
         11    1    4    4    0    0  0.28200848786E+01  0.60339373732E+02  0.67277221708E+02  0.90415803164E+02  0.00000000000E+00 0.  1.
          1    1    1    2  501    0  0.34974030390E+00 -0.32473937787E+02 -0.79584154087E+02  0.85955317086E+02  0.00000000000E+00 0. -1.
<scales pt_clust_5="13000.00000" pt_clust_6="13000.00000" pt_clust_7="13000.00000" pt_clust_8="13000.00000" pt_clust_9="32.47582"></scales>
<clustering>
<clus scale="   32.476">  2  9  1 -1</clus>
<clus scale="   75.920">  5  6 -1 -1</clus>
<clus scale="   76.059">  1  5  2 -1</clus>
<clus scale="   91.543">  7  8 -1 -1</clus>
<clus scale="   32.476">  2  5  1 -1</clus>
</clustering>
</event>
<event>
 9    2  0.6668988E-005  0.1055315E+03  0.7546771E-02  0.1273486E+00
         21   -1    0    0  501  502  0.00000000000E+00  0.00000000000E+00  0.81925303627E+02  0.81925303627E+02  0.00000000000E+00 0.  1.
         -1   -1    0    0    0  501 -0.00000000000E+00 -0.00000000000E+00 -0.35594999072E+03  0.35594999072E+03  0.00000000000E+00 0.  1.
         23    2    1    2    0    0  0.22738055987E+02  0.45929243818E+02 -0.29366947262E+03  0.31261758750E+03  0.94135446215E+02 0.  0.
         24    2    1    2    0    0 -0.31079464473E+02 -0.14405780963E+02  0.15881068571E+02  0.92432817341E+02  0.84369175328E+02 0.  0.
        -13    1    4    4    0    0 -0.41538508999E+02  0.24342923994E+02  0.19900524976E+02  0.52096608074E+02  0.00000000000E+00 0.  1.
         14    1    4    4    0    0  0.10459044526E+02 -0.38748704957E+02 -0.40194564057E+01  0.40336209267E+02  0.00000000000E+00 0. -1.
        -13    1    3    3    0    0  0.27321504750E+02 -0.12969793629E+02 -0.30703999372E+02  0.43097746415E+02  0.00000000000E+00 0. -1.
         13    1    3    3    0    0 -0.45834487632E+01  0.58899037447E+02 -0.26296547325E+03  0.26951984108E+03  0.00000000000E+00 0.  1.
         -2    1    1    2    0  502  0.83414084857E+01 -0.31523462854E+02  0.37637169600E+01  0.32824889508E+02  0.00000000000E+00 0.  1.
<scales pt_clust_5="13000.00000" pt_clust_6="13000.00000" pt_clust_7="13000.00000" pt_clust_8="13000.00000" pt_clust_9="32.60840"></scales>
<clustering>
<clus scale="   32.608">  1  9  2 -1</clus>
<clus scale="   84.369">  5  6 -1 -1</clus>
<clus scale="   94.135">  7  8 -1 -1</clus>
<clus scale="   96.920">  1  5  2 -1</clus>
<clus scale="   32.608">  1  5  2 -1</clus>
</clustering>
</event>
<event>
 9    2  0.6469128E-005  0.1021333E+03  0.7546771E-02  0.1282804E+00
          2   -1    0    0  502    0 -0.00000000000E+00  0.00000000000E+00  0.62811138012E+03  0.62811138012E+03  0.00000000000E+00 0. -1.
         21   -1    0    0  501  502  0.00000000000E+00 -0.00000000000E+00 -0.25802470310E+02  0.25802470310E+02  0.00000000000E+00 0. -1.
         24    2    1    2    0    0  0.84279471370E+01 -0.25398753575E+02  0.23244458008E+03  0.24737939220E+03  0.80311605020E+02 0.  0.
         23    2    1    2    0    0 -0.27968758235E+01  0.67512156062E+02  0.19744351460E+03  0.22895578518E+03  0.94186497850E+02 0.  0.
        -11    1    3    3    0    0  0.13425555831E+02 -0.50997796206E+02  0.19312434457E+03  0.20019498803E+03  0.00000000000E+00 0.  1.
         12    1    3    3    0    0 -0.49976086938E+01  0.25599042631E+02  0.39320235510E+02  0.47184404170E+02  0.00000000000E+00 0. -1.
        -13    1    4    4    0    0  0.23983702240E+02  0.49652451599E+01  0.52150312696E+01  0.25041329513E+02  0.00000000000E+00 0. -1.
         13    1    4    4    0    0 -0.26780578063E+02  0.62546910902E+02  0.19222848333E+03  0.20391445566E+03  0.00000000000E+00 0.  1.
          1    1    1    2  501    0 -0.56310713135E+01 -0.42113402487E+02  0.17242081513E+03  0.17757867306E+03  0.00000000000E+00 0. -1.
<scales pt_clust_5="13000.00000" pt_clust_6="13000.00000" pt_clust_7="13000.00000" pt_clust_8="13000.00000" pt_clust_9="42.48823"></scales>
<clustering>
<clus scale="   42.488">  2  9  1 -1</clus>
<clus scale="   80.312">  5  6 -1 -1</clus>
<clus scale="   89.499">  1  5  2 -1</clus>
<clus scale="   94.186">  7  8 -1 -1</clus>
<clus scale="   42.488">  2  5  1 -1</clus>
</clustering>
</event>
<event>
 9    2  0.6612940E-005  0.1022131E+03  0.7546771E-02  0.1285953E+00
         21   -1    0    0  501  502  0.00000000000E+00  0.00000000000E+00  0.64482661541E+02  0.64482661541E+02  0.00000000000E+00 0. -1.
          4   -1    0    0  502    0 -0.00000000000E+00 -0.00000000000E+00 -0.49109124282E+03  0.49109124282E+03  0.00000000000E+00 0. -1.
         23    2    1    2    0    0  0.11220232580E+02 -0.74510741912E+01 -0.25282388304E+03  0.27263771273E+03  0.10114343501E+03 0.  0.
         24    2    1    2    0    0 -0.32123746567E+02 -0.23543522920E+02  0.12665519441E+02  0.92774929479E+02  0.82828374318E+02 0.  0.
        -11    1    4    4    0    0 -0.10452098716E+01  0.20411521163E+02 -0.20982777699E+02  0.29291630542E+02  0.00000000000E+00 0.  1.
         12    1    4    4    0    0 -0.31078536695E+02 -0.43955044083E+02  0.33648297140E+02  0.63483298937E+02  0.00000000000E+00 0. -1.
        -13    1    3    3    0    0 -0.30276003575E+02 -0.39256487426E+02 -0.11501907429E+03  0.12524813630E+03  0.00000000000E+00 0. -1.
         13    1    3    3    0    0  0.41496236155E+02  0.31805413235E+02 -0.13780480875E+03  0.14738957643E+03  0.00000000000E+00 0.  1.
          3    1    1    2  501    0  0.20903513987E+02  0.30994597111E+02 -0.18645021769E+03  0.19016126215E+03  0.00000000000E+00 0. -1.
<scales pt_clust_5="13000.00000" pt_clust_6="13000.00000" pt_clust_7="13000.00000" pt_clust_8="13000.00000" pt_clust_9="37.38480"></scales>
<clustering>
<clus scale="   37.385">  1  9  2 -1</clus>
<clus scale="   82.828">  5  6 -1 -1</clus>
<clus scale="   84.131">  1  5  2 -1</clus>
<clus scale="  101.143">  7  8 -1 -1</clus>
<clus scale="   37.385">  1  5  2 -1</clus>
</clustering>
</event>
<event>
 9    2  0.6469128E-005  0.1124211E+03  0.7546771E-02  0.1259139E+00
          2   -1    0    0  502    0 -0.00000000000E+00  0.00000000000E+00  0.69185773206E+03  0.69185773206E+03  0.00000000000E+00 0. -1.
         21   -1    0    0  501  502  0.00000000000E+00 -0.00000000000E+00 -0.45848167113E+02  0.45848167113E+02  0.00000000000E+00 0. -1.
         24    2    1    2    0    0  0.54412278212E+02 -0.51377878714E+02  0.46067061702E+03  0.47513342655E+03  0.89072853338E+02 0.  0.
         23    2    1    2    0    0 -0.19488707723E+02 -0.23639877905E+02  0.83421418575E+02  0.13129222897E+03  0.96642965366E+02 0.  0.
        -11    1    3    3    0    0 -0.21796765074E+02 -0.55166053237E+01  0.48260314626E+02  0.53240866538E+02  0.00000000000E+00 0.  1.
         12    1    3    3    0    0  0.76209043286E+02 -0.45861273390E+02  0.41241030239E+03  0.42189256001E+03  0.00000000000E+00 0. -1.
        -13    1    4    4    0    0  0.39706085968E+01 -0.52652224178E+02  0.77104187286E+02  0.93450939753E+02  0.00000000000E+00 0. -1.
         13    1    4    4    0    0 -0.23459316319E+02  0.29012346273E+02  0.63172312886E+01  0.37841289217E+02  0.00000000000E+00 0.  1.
          1    1    1    2  501    0 -0.34923570490E+02  0.75017756619E+02  0.10191752935E+03  0.13128024365E+03  0.00000000000E+00 0. -1.
<scales pt_clust_5="13000.00000" pt_clust_6="13000.00000" pt_clust_7="13000.00000" pt_clust_8="13000.00000" pt_clust_9="82.74853"></scales>
<clustering>
<clus scale="   82.749">  2  9  1 -1</clus>
<clus scale="   89.073">  5  6 -1 -1</clus>
<clus scale="   96.643">  7  8 -1 -1</clus>
<clus scale="  105.984">  1  5  2 -1</clus>
<clus scale="   82.749">  2  5  1 -1</clus>
</clustering>
</event>
<event>
 9    2  0.6469128E-005  0.1854588E+03  0.7546771E-02  0.1162872E+00
         21   -1    0    0  501  502  0.00000000000E+00  0.00000000000E+00  0.42478565746E+03  0.42478565746E+03  0.00000000000E+00 0. -1.
         -1   -1    0    0    0  501 -0.00000000000E+00 -0.00000000000E+00 -0.18755917573E+03  0.18755917573E+03  0.00000000000E+00 0.  1.
         24    2    1    2    0    0  0.63361779226E+02 -0.15896426164E+03 -0.10149685855E+03  0.21770584808E+03  0.88373482711E+02 0.  0.
         23    2    1    2    0    0 -0.44056864642E+02  0.11242058941E+03  0.23463959452E+03  0.27899980800E+03  0.90585635199E+02 0.  0.
        -13    1    3    3    0    0  0.65501143248E+02 -0.74985906089E+02 -0.87483935893E+02  0.13253952210E+03  0.00000000000E+00 0.  1.
         14    1    3    3    0    0 -0.21393640228E+01 -0.83978355549E+02 -0.14012922656E+02  0.85166325978E+02  0.00000000000E+00 0. -1.
        -13    1    4    4    0    0  0.10325139872E+02  0.23784466025E+02  0.12589225462E+03  0.12853470003E+03  0.00000000000E+00 0. -1.
         13    1    4    4    0    0 -0.54382004514E+02  0.88636123381E+02  0.10874733990E+03  0.15046510798E+03  0.00000000000E+00 0.  1.
         -2    1    1    2    0  502 -0.19304914584E+02  0.46543672232E+02  0.10408374576E+03  0.11563917711E+03  0.00000000000E+00 0.  1.
<scales pt_clust_5="13000.00000" pt_clust_6="13000.00000" pt_clust_7="13000.00000" pt_clust_8="13000.00000" pt_clust_9="50.38842"></scales>
<clustering>
<clus scale="   50.388">  1  9  2 -1</clus>
<clus scale="   88.373">  5  6 -1 -1</clus>
<clus scale="   90.586">  7  8 -1 -1</clus>
<clus scale="  184.388">  2  5  1 -1</clus>
<clus scale="   50.388">  1  5  2 -1</clus>
</clustering>
</event>
<event>
 9    2  0.6469128E-005  0.1236744E+03  0.7546771E-02  0.1240525E+00
         21   -1    0    0  501  502  0.00000000000E+00  0.00000000000E+00  0.10001610036E+03  0.10001610036E+03  0.00000000000E+00 0. -1.
         -1   -1    0    0    0  501 -0.00000000000E+00 -0.00000000000E+00 -0.36029528104E+03  0.36029528104E+03  0.00000000000E+00 0.  1.
         24    2    1    2    0    0 -0.62718937990E+02  0.39325121294E+02 -0.10123721912E+03  0.14941224426E+03  0.81209074947E+02 0.  0.
         23    2    1    2    0    0  0.97169981481E+02 -0.45869135619E+02  0.62635706568E+01  0.14191506243E+03  0.92491457567E+02 0.  0.
        -13    1    3    3    0    0 -0.47497215661E+02 -0.51126536029E+01 -0.88778763754E+02  0.10081564172E+03  0.00000000000E+00 0.  1.
         14    1    3    3    0    0 -0.15221722328E+02  0.44437774897E+02 -0.12458455365E+02  0.48596602541E+02  0.00000000000E+00 0. -1.
        -11    1    4    4    0    0  0.55469300074E+01  0.25161458546E+02 -0.69323001580E+00  0.25774949011E+02  0.00000000000E+00 0.  1.
         11    1    4    4    0    0  0.91623051474E+02 -0.71030594165E+02  0.69568006726E+01  0.11614011342E+03  0.00000000000E+00 0. -1.
         -2    1    1    2    0  502 -0.34451043492E+02  0.65440143253E+01 -0.16530553222E+03  0.16898407470E+03  0.00000000000E+00 0.  1.
<scales pt_clust_5="13000.00000" pt_clust_6="13000.00000" pt_clust_7="13000.00000" pt_clust_8="13000.00000" pt_clust_9="35.06708"></scales>
<clustering>
<clus scale="   35.067">  1  9  2 -1</clus>
<clus scale="   81.209">  5  6 -1 -1</clus>
<clus scale="   92.491">  7  8 -1 -1</clus>
<clus scale="  115.480">  2  5  1 -1</clus>
<clus scale="   35.067">  1  5  2 -1</clus>
</clustering>
</event>
<event>
 9    2  0.6469128E-005  0.1043453E+03  0.7546771E-02  0.1281439E+00
         21   -1    0    0  501  502  0.00000000000E+00  0.00000000000E+00  0.59599617113E+02  0.59599617113E+02  0.00000000000E+00 0.  1.
          2   -1    0    0  502    0 -0.00000000000E+00 -0.00000000000E+00 -0.28398755121E+03  0.28398755121E+03  0.00000000000E+00 0. -1.
         24    2    1    2    0    0  0.40748037380E+02  0.31992707055E+02 -0.19128764546E+03  0.21041425229E+03  0.70705434081E+02 0.  0.
         23    2    1    2    0    0 -0.20686933997E+02 -0.32107628768E+02 -0.64934724246E+01  0.99850494973E+02  0.92027751787E+02 0.  0.
        -13    1    3    3    0    0  0.47424045202E+01 -0.21068754949E+02 -0.31046174968E+02  0.37818617318E+02  0.00000000000E+00 0.  1.
         14    1    3    3    0    0  0.36005632860E+02  0.53061462004E+02 -0.16024147049E+03  0.17259563498E+03  0.00000000000E+00 0. -1.
        -11    1    4    4    0    0 -0.54227189275E+02 -0.76382611661E+01  0.90763608319E+01  0.55509561485E+02  0.00000000000E+00 0. -1.
         11    1    4    4    0    0  0.33540255278E+02 -0.24469367602E+02 -0.15569833257E+02  0.44340933488E+02  0.00000000000E+00 0.  1.
          1    1    1    2  501    0 -0.20061103384E+02  0.11492171310E+00 -0.26606816209E+02  0.33322421052E+02  0.00000000000E+00 0. -1.
<scales pt_clust_5="13000.00000" pt_clust_6="13000.00000" pt_clust_7="13000.00000" pt_clust_8="13000.00000" pt_clust_9="20.06144"></scales>
<clustering>
<clus scale="   20.061">  1  9  2 -1</clus>
<clus scale="   70.705">  5  6 -1 -1</clus>
<clus scale="   86.128">  2  5  1 -1</clus>
<clus scale="   92.028">  7  8 -1 -1</clus>
<clus scale="   20.061">  1  5  2 -1</clus>
</clustering>
</event>
<event>
 9    2  0.6469128E-005  0.1231766E+03  0.7546771E-02  0.1240792E+00
          4   -1    0    0  502    0 -0.00000000000E+00  0.00000000000E+00  0.89049577790E+03  0.89049577790E+03  0.00000000000E+00 0. -1.
         21   -1    0    0  501  502  0.00000000000E+00 -0.00000000000E+00 -0.16523662413E+03  0.16523662413E+03  0.00000000000E+00 0.  1.
         24    2    1    2    0    0  0.65753666323E+02  0.49615061505E+02  0.83303448195E+03  0.84108771450E+03  0.81834567275E+02 0.  0.
         23    2    1    2    0    0 -0.45633354830E+02 -0.83318640838E+02 -0.42563862049E+02  0.13853099947E+03  0.91404356993E+02 0.  0.
        -13    1    3    3    0    0  0.15449107775E+02 -0.13998986318E+02  0.54682261507E+02  0.58521758966E+02  0.00000000000E+00 0.  1.
         14    1    3    3    0    0  0.50304558548E+02  0.63614047823E+02  0.77835222044E+03  0.78256595553E+03  0.00000000000E+00 0. -1.
        -13    1    4    4    0    0  0.14918788710E+02 -0.45706625109E+02  0.11053863536E+02  0.49334103159E+02  0.00000000000E+00 0. -1.
         13    1    4    4    0    0 -0.60552143540E+02 -0.37612015729E+02 -0.53617725585E+02  0.89196896310E+02  0.00000000000E+00 0.  1.
          3    1    1    2  501    0 -0.20120311493E+02  0.33703579333E+02 -0.65211466133E+02  0.76113688057E+02  0.00000000000E+00 0. -1.
<scales pt_clust_5="13000.00000" pt_clust_6="13000.00000" pt_clust_7="13000.00000" pt_clust_8="13000.00000" pt_clust_9="39.25249"></scales>
<clustering>
<clus scale="   39.252">  2  9  1 -1</clus>
<clus scale="   81.835">  5  6 -1 -1</clus>
<clus scale="   91.404">  7  8 -1 -1</clus>
<clus scale="  116.252">  1  5  2 -1</clus>
<clus scale="   39.252">  2  5  1 -1</clus>
</clustering>
</event>
<event>
 9    2  0.6469128E-005  0.1211405E+03  0.7546771E-02  0.1243045E+00
         -3   -1    0    0    0  501 -0.00000000000E+00  0.00000000000E+00  0.28559083674E+03  0.28559083674E+03  0.00000000000E+00 0.  1.
         21   -1    0    0  501  502  0.00000000000E+00 -0.00000000000E+00 -0.96553828521E+02  0.96553828521E+02  0.00000000000E+00 0.  1.
         23    2    1    2    0    0 -0.76669013950E+02  0.71072916863E+02  0.14128170297E+03  0.19833090731E+03  0.91897399234E+02 0.  0.
         24    2    1    2    0    0  0.17600921748E+02 -0.24381891450E+02  0.32511365735E+02  0.10699273829E+03  0.97397063957E+02 0.  0.
        -11    1    4    4    0    0 -0.98004848371E+01 -0.33755316824E+02 -0.24638037247E+02  0.42924396284E+02  0.00000000000E+00 0.  1.
         12    1    4    4    0    0  0.27401406585E+02  0.93734253742E+01  0.57149402982E+02  0.64068342005E+02  0.00000000000E+00 0. -1.
        -13    1    3    3    0    0  0.12345217101E+02  0.22327502778E+02  0.14531207173E+01  0.25554516732E+02  0.00000000000E+00 0. -1.
         13    1    3    3    0    0 -0.89014231051E+02  0.48745414085E+02  0.13982858226E+03  0.17277639057E+03  0.00000000000E+00 0.  1.
         -4    1    1    2    0  502  0.59068092202E+02 -0.46691025413E+02  0.15243939507E+02  0.76821019664E+02  0.00000000000E+00 0.  1.
<scales pt_clust_5="13000.00000" pt_clust_6="13000.00000" pt_clust_7="13000.00000" pt_clust_8="13000.00000" pt_clust_9="75.29337"></scales>
<clustering>
<clus scale="   75.293">  2  9  1 -1</clus>
<clus scale="   91.897">  7  8 -1 -1</clus>
<clus scale="   97.397">  5  6 -1 -1</clus>
<clus scale="  116.765">  1  7  2 -1</clus>
<clus scale="   75.293">  2  5  1 -1</clus>
</clustering>
</event>
<event>
 9    2  0.6469128E-005  0.5083191E+03  0.7546771E-02  0.1011637E+00
          2   -1    0    0  502    0 -0.00000000000E+00  0.00000000000E+00  0.19254108599E+04  0.19254108599E+04  0.00000000000E+00 0. -1.
         21   -1    0    0  501  502  0.00000000000E+00 -0.00000000000E+00 -0.23782570008E+03  0.23782570008E+03  0.00000000000E+00 0. -1.
         23    2    1    2    0    0  0.24589657375E+03 -0.44597226873E+03  0.13163944116E+04  0.14143413194E+04  0.90059598858E+02 0.  0.
         24    2    1    2    0    0 -0.11381357540E+03  0.47596422990E+03  0.35742922762E+03  0.61275261082E+03  0.90634602719E+02 0.  0.
        -11    1    4    4    0    0 -0.12196261824E+02  0.17551101386E+02 -0.19538370800E+01  0.21461766975E+02  0.00000000000E+00 0.  1.
         12    1    4    4    0    0 -0.10161731358E+03  0.45841312852E+03  0.35938306470E+03  0.59129084384E+03  0.00000000000E+00 0. -1.
        -13    1    3    3    0    0  0.22169583088E+03 -0.33092978035E+03  0.97278141363E+03  0.10511742195E+04  0.00000000000E+00 0. -1.
         13    1    3    3    0    0  0.24200742872E+02 -0.11504248838E+03  0.34361299801E+03  0.36316709996E+03  0.00000000000E+00 0.  1.
          1    1    1    2  501    0 -0.13208299835E+03 -0.29991961176E+02  0.13761520556E+02  0.13614262975E+03  0.00000000000E+00 0. -1.
<scales pt_clust_5="13000.00000" pt_clust_6="13000.00000" pt_clust_7="13000.00000" pt_clust_8="13000.00000" pt_clust_9="135.44533"></scales>
<clustering>
<clus scale="   90.060">  7  8 -1 -1</clus>
<clus scale="   90.635">  5  6 -1 -1</clus>
<clus scale="  135.445">  2  9  1 -1</clus>
<clus scale="  508.217">  1  7  2 -1</clus>
<clus scale="  135.445">  2  5  1 -1</clus>
</clustering>
</event>
<event>
 9    2  0.6469128E-005  0.9956853E+02  0.7546771E-02  0.1286502E+00
         21   -1    0    0  501  502  0.00000000000E+00  0.00000000000E+00  0.12574953621E+03  0.12574953621E+03  0.00000000000E+00 0.  1.
          4   -1    0    0  502    0 -0.00000000000E+00 -0.00000000000E+00 -0.16187363859E+03  0.16187363859E+03  0.00000000000E+00 0. -1.
         24    2    1    2    0    0 -0.41595695076E+02 -0.15050317628E+02 -0.90678149296E+02  0.12906180492E+03  0.80484214722E+02 0.  0.
         23    2    1    2    0    0  0.33773950101E+02 -0.30926006499E+02  0.42678238802E+02  0.11043614891E+03  0.90981390052E+02 0.  0.
        -13    1    3    3    0    0  0.14104145508E+02  0.18205170533E+02 -0.89279079321E+01  0.24699447255E+02  0.00000000000E+00 0.  1.
         14    1    3    3    0    0 -0.55699840584E+02 -0.33255488161E+02 -0.81750241364E+02  0.10436235766E+03  0.00000000000E+00 0. -1.
        -11    1    4    4    0    0  0.53441151194E+02 -0.30077605921E+00  0.50142175273E+02  0.73282227370E+02  0.00000000000E+00 0.  1.
         11    1    4    4    0    0 -0.19667201093E+02 -0.30625230440E+02 -0.74639364707E+01  0.37153921542E+02  0.00000000000E+00 0. -1.
          3    1    1    2  501    0  0.78217449748E+01  0.45976324127E+02  0.11875808121E+02  0.48125220968E+02  0.00000000000E+00 0. -1.
<scales pt_clust_5="13000.00000" pt_clust_6="13000.00000" pt_clust_7="13000.00000" pt_clust_8="13000.00000" pt_clust_9="46.63692"></scales>
<clustering>
<clus scale="   46.637">  1  9  2 -1</clus>
<clus scale="   80.484">  5  6 -1 -1</clus>
<clus scale="   90.078">  2  5  1 -1</clus>
<clus scale="   90.981">  7  8 -1 -1</clus>
<clus scale="   46.637">  1  5  2 -1</clus>
</clustering>
</event>
<event>
 9    2  0.6469128E-005  0.1503339E+03  0.7546771E-02  0.1202402E+00
         21   -1    0    0  501  502  0.00000000000E+00  0.00000000000E+00  0.21130198218E+03  0.21130198218E+03  0.00000000000E+00 0. -1.
          2   -1    0    0  502    0 -0.00000000000E+00 -0.00000000000E+00 -0.16033020290E+03  0.16033020290E+03  0.00000000000E+00 0. -1.
         24    2    1    2    0    0  0.27578461823E+02 -0.11837342882E+03 -0.18815448514E+02  0.14600062787E+03  0.78672244334E+02 0.  0.
         23    2    1    2    0    0 -0.72567732732E+02  0.97540477128E+02  0.84342270016E+02  0.17396052444E+03  0.91479096183E+02 0.  0.
        -13    1    3    3    0    0 -0.49850780891E+01 -0.23988829047E+02 -0.37135238288E+02  0.44489783606E+02  0.00000000000E+00 0.  1.
         14    1    3    3    0    0  0.32563539912E+02 -0.94384599775E+02  0.18319789773E+02  0.10151084427E+03  0.00000000000E+00 0. -1.
        -11    1    4    4    0    0 -0.23749042061E+02 -0.11211869084E+02  0.37716614003E+02  0.45959394894E+02  0.00000000000E+00 0.  1.
         11    1    4    4    0    0 -0.48818690671E+02  0.10875234621E+03  0.46625656013E+02  0.12800112954E+03  0.00000000000E+00 0. -1.
          1    1    1    2  501    0  0.44989270909E+02  0.20832951695E+02 -0.14555042222E+02  0.51671032769E+02  0.00000000000E+00 0. -1.
<scales pt_clust_5="13000.00000" pt_clust_6="13000.00000" pt_clust_7="13000.00000" pt_clust_8="13000.00000" pt_clust_9="49.57871"></scales>
<clustering>
<clus scale="   49.579">  1  9  2 -1</clus>
<clus scale="   78.672">  5  6 -1 -1</clus>
<clus scale="   91.479">  7  8 -1 -1</clus>
<clus scale="  142.903">  2  5  1 -1</clus>
<clus scale="   49.579">  1  5  2 -1</clus>
</clustering>
</event>
<event>
 9    2  0.6469128E-005  0.1276441E+03  0.7546771E-02  0.1251577E+00
          2   -1    0    0  502    0 -0.00000000000E+00  0.00000000000E+00  0.10974529736E+04  0.10974529736E+04  0.00000000000E+00 0. -1.
         21   -1    0    0  501  502  0.00000000000E+00 -0.00000000000E+00 -0.70675903312E+02  0.70675903312E+02  0.00000000000E+00 0.  1.
         24    2    1    2    0    0  0.25315380996E+02  0.13157385932E+02  0.81212142457E+03  0.81646488722E+03  0.79118382845E+02 0.  0.
         23    2    1    2    0    0 -0.10726606463E+03 -0.33805583293E+02  0.22353434461E+03  0.26668696986E+03  0.92225325114E+02 0.  0.
        -13    1    3    3    0    0  0.11714871196E+01  0.38107711604E+02  0.21642180294E+03  0.21975433296E+03  0.00000000000E+00 0.  1.
         14    1    3    3    0    0  0.24143893876E+02 -0.24950325672E+02  0.59569962163E+03  0.59671055426E+03  0.00000000000E+00 0. -1.
        -11    1    4    4    0    0 -0.84189615515E+02 -0.59851163161E+02  0.12481963677E+03  0.16201850146E+03  0.00000000000E+00 0.  1.
         11    1    4    4    0    0 -0.23076449120E+02  0.26045579868E+02  0.98714707833E+02  0.10466846840E+03  0.00000000000E+00 0. -1.
          1    1    1    2  501    0  0.81950683639E+02  0.20648197361E+02 -0.88786988951E+01  0.84977019818E+02  0.00000000000E+00 0. -1.
<scales pt_clust_5="13000.00000" pt_clust_6="13000.00000" pt_clust_7="13000.00000" pt_clust_8="13000.00000" pt_clust_9="88.24691"></scales>
<clustering>
<clus scale="   79.118">  5  6 -1 -1</clus>
<clus scale="   84.105">  1  5  2 -1</clus>
<clus scale="   88.247">  2  9  1 -1</clus>
<clus scale="   92.225">  7  8 -1 -1</clus>
<clus scale="   88.247">  2  5  1 -1</clus>
</clustering>
</event>
<event>
 9    2  0.6469128E-005  0.9618087E+02  0.7546771E-02  0.1291206E+00
          4   -1    0    0  502    0 -0.00000000000E+00  0.00000000000E+00  0.35128577716E+03  0.35128577716E+03  0.00000000000E+00 0. -1.
         21   -1    0    0  501  502  0.00000000000E+00 -0.00000000000E+00 -0.91651423171E+02  0.91651423171E+02  0.00000000000E+00 0.  1.
         24    2    1    2    0    0 -0.18403279938E+02  0.25071301303E+02  0.29600537402E+03  0.31013421108E+03  0.87159604026E+02 0.  0.
         23    2    1    2    0    0  0.50625693584E+01 -0.25376261820E+01 -0.56225591103E+01  0.92414761730E+02  0.92069570758E+02 0.  0.
        -13    1    3    3    0    0 -0.18866540178E+02  0.37974870632E+02  0.58359576277E+02  0.72137904607E+02  0.00000000000E+00 0.  1.
         14    1    3    3    0    0  0.46326023923E+00 -0.12903569329E+02  0.23764579774E+03  0.23799630648E+03  0.00000000000E+00 0. -1.
        -13    1    4    4    0    0  0.43354166685E+02  0.10484231390E+02 -0.20800390409E+02  0.49215435770E+02  0.00000000000E+00 0.  1.
         13    1    4    4    0    0 -0.38291597327E+02 -0.13021857572E+02  0.15177831299E+02  0.43199325960E+02  0.00000000000E+00 0. -1.
          3    1    1    2  501    0  0.13340710580E+02 -0.22533675121E+02 -0.30748460919E+02  0.40388227519E+02  0.00000000000E+00 0. -1.
<scales pt_clust_5="13000.00000" pt_clust_6="13000.00000" pt_clust_7="13000.00000" pt_clust_8="13000.00000" pt_clust_9="26.18666"></scales>
<clustering>
<clus scale="   26.187">  2  9  1 -1</clus>
<clus scale="   87.160">  5  6 -1 -1</clus>
<clus scale="   91.492">  1  5  2 -1</clus>
<clus scale="   92.070">  7  8 -1 -1</clus>
<clus scale="   26.187">  2  5  1 -1</clus>
</clustering>
</event>
<event>
 9    2  0.6469128E-005  0.1393212E+03  0.7546771E-02  0.1239005E+00
         21   -1    0    0  501  502  0.00000000000E+00  0.00000000000E+00  0.69184376826E+03  0.69184376826E+03  0.00000000000E+00 0.  1.
         -3   -1    0    0    0  501 -0.00000000000E+00 -0.00000000000E+00 -0.76381092181E+02  0.76381092181E+02  0.00000000000E+00 0.  1.
         24    2    1    2    0    0  0.14926099172E+02 -0.20658603866E+02  0.24831283292E+03  0.26191613346E+03  0.79317284520E+02 0.  0.
         23    2    1    2    0    0 -0.94750317945E+02  0.84543168278E+02  0.37271576555E+02  0.16094976264E+03  0.91599594003E+02 0.  0.
        -11    1    3    3    0    0  0.32204433968E+02  0.15910232293E+02  0.17024760063E+03  0.17399570850E+03  0.00000000000E+00 0.  1.
         12    1    3    3    0    0 -0.17278334796E+02 -0.36568836159E+02  0.78065232290E+02  0.87920424953E+02  0.00000000000E+00 0. -1.
        -11    1    4    4    0    0 -0.92516751396E+02  0.25756406175E+02  0.11492804251E+02  0.96720351000E+02  0.00000000000E+00 0.  1.
         11    1    4    4    0    0 -0.22335665492E+01  0.58786762103E+02  0.25778772303E+02  0.64229411640E+02  0.00000000000E+00 0. -1.
         -4    1    1    2    0  502  0.79824218773E+02 -0.63884564412E+02  0.32987826661E+03  0.34535896434E+03  0.00000000000E+00 0.  1.
<scales pt_clust_5="13000.00000" pt_clust_6="13000.00000" pt_clust_7="13000.00000" pt_clust_8="13000.00000" pt_clust_9="104.97573"></scales>
<clustering>
<clus scale="   79.317">  5  6 -1 -1</clus>
<clus scale="   83.311">  2  5  1 -1</clus>
<clus scale="   91.600">  7  8 -1 -1</clus>
<clus scale="  104.976">  1  9  2 -1</clus>
<clus scale="  104.976">  1  5  2 -1</clus>
</clustering>
</event>
<event>
 9    2  0.6469128E-005  0.2918569E+03  0.7546771E-02  0.1132348E+00
          2   -1    0    0  502    0 -0.00000000000E+00  0.00000000000E+00  0.62601656843E+03  0.62601656843E+03  0.00000000000E+00 0. -1.
         21   -1    0    0  501  502  0.00000000000E+00 -0.00000000000E+00 -0.19797699290E+03  0.19797699290E+03  0.00000000000E+00 0.  1.
         23    2    1    2    0    0 -0.20555918121E+01 -0.28378437601E+02 -0.13739341826E+02  0.98787975236E+02  0.93598789303E+02 0.  0.
         24    2    1    2    0    0 -0.17020368454E+03  0.23813224186E+03  0.24745117117E+03  0.39138948458E+03  0.79229967026E+02 0.  0.
        -13    1    4    4    0    0 -0.15168742220E+03  0.23825305092E+03  0.24239544932E+03  0.37219503513E+03  0.00000000000E+00 0.  1.
         14    1    4    4    0    0 -0.18516262344E+02 -0.12080905413E+00  0.50557218509E+01  0.19194449444E+02  0.00000000000E+00 0. -1.
        -13    1    3    3    0    0 -0.27100990942E+02 -0.27883661766E+02  0.29505780605E+02  0.48811406378E+02  0.00000000000E+00 0.  1.
         13    1    3    3    0    0  0.25045399130E+02 -0.49477583473E+00 -0.43245122431E+02  0.49976568857E+02  0.00000000000E+00 0. -1.
          1    1    1    2  501    0  0.17225927636E+03 -0.20975380426E+03  0.19432774619E+03  0.33381610152E+03  0.00000000000E+00 0. -1.
<scales pt_clust_5="13000.00000" pt_clust_6="13000.00000" pt_clust_7="13000.00000" pt_clust_8="13000.00000" pt_clust_9="280.89691"></scales>
<clustering>
<clus scale="   79.230">  5  6 -1 -1</clus>
<clus scale="   93.599">  7  8 -1 -1</clus>
<clus scale="   97.828">  1  7  2 -1</clus>
<clus scale="  280.897">  2  9  1 -1</clus>
<clus scale="  280.897">  2  5  1 -1</clus>
</clustering>
</event>
<event>
 9    2  0.6469128E-005  0.1282785E+03  0.7546771E-02  0.1234073E+00
          2   -1    0    0  502    0 -0.00000000000E+00  0.00000000000E+00  0.91044961887E+03  0.91044961887E+03  0.00000000000E+00 0. -1.
         21   -1    0    0  501  502  0.00000000000E+00 -0.00000000000E+00 -0.64970248862E+02  0.64970248862E+02  0.00000000000E+00 0. -1.
         24    2    1    2    0    0 -0.16191650238E+02 -0.80888704279E+02  0.61451535425E+03  0.62492963095E+03  0.78120234348E+02 0.  0.
         23    2    1    2    0    0  0.33559748186E+02  0.10465615515E+03  0.26739715211E+03  0.30365098005E+03  0.92862873194E+02 0.  0.
        -11    1    3    3    0    0  0.10341109029E+02 -0.40422402537E+02  0.10299369710E+03  0.11112430339E+03  0.00000000000E+00 0.  1.
         12    1    3    3    0    0 -0.26532759266E+02 -0.40466301741E+02  0.51152165715E+03  0.51380532756E+03  0.00000000000E+00 0. -1.
        -13    1    4    4    0    0  0.10480049772E+02  0.74185031104E+02  0.25120164800E+03  0.26213644966E+03  0.00000000000E+00 0. -1.
         13    1    4    4    0    0  0.23079698414E+02  0.30471124049E+02  0.16195504106E+02  0.41514530383E+02  0.00000000000E+00 0.  1.
          1    1    1    2  501    0 -0.17368097948E+02 -0.23767450874E+02 -0.36433136348E+02  0.46839256736E+02  0.00000000000E+00 0. -1.
<scales pt_clust_5="13000.00000" pt_clust_6="13000.00000" pt_clust_7="13000.00000" pt_clust_8="13000.00000" pt_clust_9="29.43709"></scales>
<clustering>
<clus scale="   29.437">  2  9  1 -1</clus>
<clus scale="   78.120">  5  6 -1 -1</clus>
<clus scale="   92.863">  7  8 -1 -1</clus>
<clus scale="  118.045">  1  5  2 -1</clus>
<clus scale="   29.437">  2  5  1 -1</clus>
</clustering>
</event>
<event>
 9    2  0.6469128E-005  0.3698620E+03  0.7546771E-02  0.1054911E+00
          2   -1    0    0  502    0 -0.00000000000E+00  0.00000000000E+00  0.15834006706E+04  0.15834006706E+04  0.00000000000E+00 0. -1.
         21   -1    0    0  501  502  0.00000000000E+00 -0.00000000000E+00 -0.19071057442E+03  0.19071057442E+03  0.00000000000E+00 0. -1.
         24    2    1    2    0    0  0.33614079759E+03 -0.13255722884E+03  0.11748374818E+04  0.12319986782E+04  0.83759057276E+02 0.  0.
         23    2    1    2    0    0 -0.34391557728E+03  0.60248029340E+02  0.56622315216E+02  0.36523894839E+03  0.91025565129E+02 0.  0.
        -13    1    3    3    0    0  0.28334300965E+02 -0.63314083381E+01  0.40156747412E+02  0.49552837512E+02  0.00000000000E+00 0.  1.
         14    1    3    3    0    0  0.30780649663E+03 -0.12622582050E+03  0.11346807344E+04  0.11824458407E+04  0.00000000000E+00 0. -1.
        -11    1    4    4    0    0 -0.18302684063E+03  0.15648900305E+02  0.72598826821E+02  0.19752038408E+03  0.00000000000E+00 0.  1.
         11    1    4    4    0    0 -0.16088873665E+03  0.44599129034E+02 -0.15976511605E+02  0.16771856431E+03  0.00000000000E+00 0. -1.
          1    1    1    2  501    0  0.77747796862E+01  0.72309199502E+02  0.16123029913E+03  0.17687361841E+03  0.00000000000E+00 0. -1.
<scales pt_clust_5="13000.00000" pt_clust_6="13000.00000" pt_clust_7="13000.00000" pt_clust_8="13000.00000" pt_clust_9="72.72601"></scales>
<clustering>
<clus scale="   72.726">  2  9  1 -1</clus>
<clus scale="   83.759">  5  6 -1 -1</clus>
<clus scale="   91.026">  7  8 -1 -1</clus>
<clus scale="  368.141">  1  5  2 -1</clus>
<clus scale="   72.726">  2  5  1 -1</clus>
</clustering>
</event>
<event>
 9    2  0.6469128E-005  0.1142791E+03  0.7546771E-02  0.1255274E+00
         21   -1    0    0  501  502  0.00000000000E+00  0.00000000000E+00  0.24579907880E+03  0.24579907880E+03  0.00000000000E+00 0.  1.
          2   -1    0    0  502    0 -0.00000000000E+00 -0.00000000000E+00 -0.22096065433E+03  0.22096065433E+03  0.00000000000E+00 0. -1.
         24    2    1    2    0    0 -0.54772485523E+02  0.48188678792E+02 -0.16442586919E+03  0.19675739076E+03  0.79720953510E+02 0.  0.
         23    2    1    2    0    0  0.39621420011E+02 -0.89637466378E+02  0.18355042236E+03  0.22550284682E+03  0.86925508748E+02 0.  0.
        -13    1    3    3    0    0  0.12159892496E+02  0.20067843955E+02 -0.88539331825E+01  0.25079343678E+02  0.00000000000E+00 0.  1.
         14    1    3    3    0    0 -0.66932378020E+02  0.28120834837E+02 -0.15557193600E+03  0.17167804709E+03  0.00000000000E+00 0. -1.
        -11    1    4    4    0    0 -0.25440573433E+02 -0.43967499231E+02  0.60336248170E+02  0.78872216961E+02  0.00000000000E+00 0. -1.
         11    1    4    4    0    0  0.65061993444E+02 -0.45669967148E+02  0.12321417419E+03  0.14663062986E+03  0.00000000000E+00 0.  1.
          1    1    1    2  501    0  0.15151065512E+02  0.41448787586E+02  0.57138712902E+01  0.44499495543E+02  0.00000000000E+00 0. -1.
<scales pt_clust_5="13000.00000" pt_clust_6="13000.00000" pt_clust_7="13000.00000" pt_clust_8="13000.00000" pt_clust_9="44.13113"></scales>
<clustering>
<clus scale="   44.131">  1  9  2 -1</clus>
<clus scale="   79.721">  5  6 -1 -1</clus>
<clus scale="   86.926">  7  8 -1 -1</clus>
<clus scale="  108.899">  2  5  1 -1</clus>
<clus scale="   44.131">  1  5  2 -1</clus>
</clustering>
</event>
<event>
 9    2  0.6469128E-005  0.2325079E+03  0.7546771E-02  0.1128679E+00
          2   -1    0    0  502    0 -0.00000000000E+00  0.00000000000E+00  0.26591097741E+03  0.26591097741E+03  0.00000000000E+00 0. -1.
         21   -1    0    0  501  502  0.00000000000E+00 -0.00000000000E+00 -0.22815658240E+03  0.22815658240E+03  0.00000000000E+00 0. -1.
         23    2    1    2    0    0 -0.40503627465E+02  0.20448009344E+03  0.66413169524E+02  0.25309087904E+03  0.12724634185E+03 0.  0.
         24    2    1    2    0    0  0.34798741741E+02 -0.17237431325E+03 -0.51305758121E+02  0.20127513534E+03  0.83399898064E+02 0.  0.
        -13    1    4    4    0    0  0.43845430642E+02 -0.61734201665E+02  0.67153523895E+01  0.76017296723E+02  0.00000000000E+00 0.  1.
         14    1    4    4    0    0 -0.90466889011E+01 -0.11064011158E+03 -0.58021110511E+02  0.12525783862E+03  0.00000000000E+00 0. -1.
        -11    1    3    3    0    0 -0.74400881292E+01  0.20058902720E+03  0.28671641296E+02  0.20276433552E+03  0.00000000000E+00 0. -1.
         11    1    3    3    0    0 -0.33063539336E+02  0.38910662462E+01  0.37741528228E+02  0.50326543522E+02  0.00000000000E+00 0.  1.
          1    1    1    2  501    0  0.57048857234E+01 -0.32105780197E+02  0.22646983606E+02  0.39701545431E+02  0.00000000000E+00 0. -1.
<scales pt_clust_5="13000.00000" pt_clust_6="13000.00000" pt_clust_7="13000.00000" pt_clust_8="13000.00000" pt_clust_9="32.60871"></scales>
<clustering>
<clus scale="   32.609">  2  9  1 -1</clus>
<clus scale="   83.400">  5  6 -1 -1</clus>
<clus scale="  127.246">  7  8 -1 -1</clus>
<clus scale="  211.716">  2  5  1 -1</clus>
<clus scale="   32.609">  2  5  1 -1</clus>
</clustering>
</event>
<event>
 9    2  0.6469128E-005  0.1052159E+03  0.7546771E-02  0.1274222E+00
          2   -1    0    0  502    0 -0.00000000000E+00  0.00000000000E+00  0.71006557815E+03  0.71006557815E+03  0.00000000000E+00 0. -1.
         21   -1    0    0  501  502  0.00000000000E+00 -0.00000000000E+00 -0.12387778201E+03  0.12387778201E+03  0.00000000000E+00 0. -1.
         24    2    1    2    0    0 -0.34812086511E+02  0.58819822812E+02  0.56215963057E+03  0.57011586029E+03  0.65855834888E+02 0.  0.
         23    2    1    2    0    0  0.20989637144E+02 -0.83133819515E+02  0.11817667985E+03  0.16561256576E+03  0.78166472761E+02 0.  0.
        -13    1    3    3    0    0 -0.19862527411E+02 -0.63743793949E+01  0.60033658246E+02  0.63554644443E+02  0.00000000000E+00 0.  1.
         14    1    3    3    0    0 -0.14949559100E+02  0.65194202206E+02  0.50212597232E+03  0.50656121585E+03  0.00000000000E+00 0. -1.
        -11    1    4    4    0    0 -0.75446779612E+01 -0.33711002827E+02  0.18614921354E+00  0.34545455977E+02  0.00000000000E+00 0.  1.
         11    1    4    4    0    0  0.28534315105E+02 -0.49422816688E+02  0.11799053064E+03  0.13106710979E+03  0.00000000000E+00 0. -1.
          1    1    1    2  501    0  0.13822449367E+02  0.24313996704E+02 -0.94148514275E+02  0.98214934111E+02  0.00000000000E+00 0. -1.
<scales pt_clust_5="13000.00000" pt_clust_6="13000.00000" pt_clust_7="13000.00000" pt_clust_8="13000.00000" pt_clust_9="27.96838"></scales>
<clustering>
<clus scale="   27.968">  2  9  1 -1</clus>
<clus scale="   65.856">  5  6 -1 -1</clus>
<clus scale="   78.166">  7  8 -1 -1</clus>
<clus scale="   96.423">  1  5  2 -1</clus>
<clus scale="   27.968">  2  5  1 -1</clus>
</clustering>
</event>
<event>
 9    2  0.6469128E-005  0.1478102E+03  0.7546771E-02  0.1204621E+00
         21   -1    0    0  501  502  0.00000000000E+00  0.00000000000E+00  0.25877540441E+03  0.25877540441E+03  0.00000000000E+00 0. -1.
          2   -1    0    0  502    0 -0.00000000000E+00 -0.00000000000E+00 -0.10070727530E+03  0.10070727530E+03  0.00000000000E+00 0. -1.
         23    2    1    2    0    0  0.49184608930E+02  0.10097173329E+03  0.77243848925E+02  0.16280589801E+03  0.89020961306E+02 0.  0.
         24    2    1    2    0    0 -0.77088856098E+02 -0.98609192664E+02  0.78287294862E+02  0.16855801745E+03  0.81341502924E+02 0.  0.
        -11    1    4    4    0    0 -0.53652059843E+02 -0.67673788057E+02  0.93126338108E+02  0.12700708628E+03  0.00000000000E+00 0.  1.
         12    1    4    4    0    0 -0.23436796254E+02 -0.30935404607E+02 -0.14839043246E+02  0.41550931173E+02  0.00000000000E+00 0. -1.
        -11    1    3    3    0    0  0.56383652677E+00  0.92025663888E+02  0.62401495093E+02  0.11118897120E+03  0.00000000000E+00 0. -1.
         11    1    3    3    0    0  0.48620772403E+02  0.89460694021E+01  0.14842353832E+02  0.51616926817E+02  0.00000000000E+00 0.  1.
          1    1    1    2  501    0  0.27904247168E+02 -0.23625406260E+01  0.25369853268E+01  0.28118764247E+02  0.00000000000E+00 0. -1.
<scales pt_clust_5="13000.00000" pt_clust_6="13000.00000" pt_clust_7="13000.00000" pt_clust_8="13000.00000" pt_clust_9="28.00410"></scales>
<clustering>
<clus scale="   28.004">  1  9  2 -1</clus>
<clus scale="   81.342">  5  6 -1 -1</clus>
<clus scale="   89.021">  7  8 -1 -1</clus>
<clus scale="  143.316">  1  5  2 -1</clus>
<clus scale="   28.004">  1  5  2 -1</clus>
</clustering>
</event>
<event>
 9    2  0.6469128E-005  0.1026643E+03  0.7546771E-02  0.1279848E+00
          4   -1    0    0  502    0 -0.00000000000E+00  0.00000000000E+00  0.25007987287E+03  0.25007987287E+03  0.00000000000E+00 0. -1.
         21   -1    0    0  501  502  0.00000000000E+00 -0.00000000000E+00 -0.11462346877E+03  0.11462346877E+03  0.00000000000E+00 0. -1.
         24    2    1    2    0    0  0.45085074324E+02 -0.25178745354E+02  0.14476698347E+03  0.17370357372E+03  0.80924772930E+02 0.  0.
         23    2    1    2    0    0  0.19352817139E+02  0.65546546712E+02  0.47133797610E+00  0.11433499668E+03  0.91659085693E+02 0.  0.
        -13    1    3    3    0    0 -0.33241738573E+01  0.24981823579E+02  0.27666982834E+02  0.37424638680E+02  0.00000000000E+00 0.  1.
         14    1    3    3    0    0  0.48409248181E+02 -0.50160568933E+02  0.11710000064E+03  0.13627893504E+03  0.00000000000E+00 0. -1.
        -13    1    4    4    0    0  0.47982249607E+02  0.37095685605E+02 -0.26083656117E+02  0.66020779186E+02  0.00000000000E+00 0. -1.
         13    1    4    4    0    0 -0.28629432468E+02  0.28450861107E+02  0.26554994093E+02  0.48314217498E+02  0.00000000000E+00 0.  1.
          3    1    1    2  501    0 -0.64437891463E+02 -0.40367801358E+02 -0.97819173516E+01  0.76664771243E+02  0.00000000000E+00 0. -1.
<scales pt_clust_5="13000.00000" pt_clust_6="13000.00000" pt_clust_7="13000.00000" pt_clust_8="13000.00000" pt_clust_9="76.03816"></scales>
<clustering>
<clus scale="   76.038">  2  9  1 -1</clus>
<clus scale="   80.925">  5  6 -1 -1</clus>
<clus scale="   91.659">  7  8 -1 -1</clus>
<clus scale="   93.206">  1  5  2 -1</clus>
<clus scale="   76.038">  2  5  1 -1</clus>
</clustering>
</event>
<event>
 9    2  0.6469128E-005  0.3895413E+03  0.7546771E-02  0.1062265E+00
         21   -1    0    0  501  502  0.00000000000E+00  0.00000000000E+00  0.18083052713E+04  0.18083052713E+04  0.00000000000E+00 0. -1.
          4   -1    0    0  502    0 -0.00000000000E+00 -0.00000000000E+00 -0.16004773723E+03  0.16004773723E+03  0.00000000000E+00 0. -1.
         24    2    1    2    0    0 -0.18265958878E+03 -0.16089633353E+03  0.30605084131E+03  0.39923009568E+03  0.80407688165E+02 0.  0.
         23    2    1    2    0    0  0.45773648502E+03  0.96192356105E+02  0.10927417941E+04  0.11921790985E+04  0.91818926039E+02 0.  0.
        -13    1    3    3    0    0 -0.11631311469E+03 -0.49311812102E+02  0.15884827612E+03  0.20296100682E+03  0.00000000000E+00 0.  1.
         14    1    3    3    0    0 -0.66346474098E+02 -0.11158452143E+03  0.14720256518E+03  0.19626908887E+03  0.00000000000E+00 0. -1.
        -13    1    4    4    0    0  0.10729320729E+03  0.60344882641E+02  0.24595387242E+03  0.27503935092E+03  0.00000000000E+00 0.  1.
         13    1    4    4    0    0  0.35044327773E+03  0.35847473464E+02  0.84678792166E+03  0.91713974755E+03  0.00000000000E+00 0. -1.
          3    1    1    2  501    0 -0.27507689623E+03  0.64703977428E+02  0.24946489869E+03  0.37694381440E+03  0.00000000000E+00 0. -1.
<scales pt_clust_5="13000.00000" pt_clust_6="13000.00000" pt_clust_7="13000.00000" pt_clust_8="13000.00000" pt_clust_9="378.56553"></scales>
<clustering>
<clus scale="   80.408">  5  6 -1 -1</clus>
<clus scale="   91.819">  7  8 -1 -1</clus>
<clus scale="  256.354">  2  5  1 -1</clus>
<clus scale="  378.566">  1  9  2 -1</clus>
<clus scale="  378.566">  1  5  2 -1</clus>
</clustering>
</event>
<event>
 9    2  0.6469128E-005  0.9255913E+02  0.7546771E-02  0.1301139E+00
          2   -1    0    0  502    0 -0.00000000000E+00  0.00000000000E+00  0.39670832266E+03  0.39670832266E+03  0.00000000000E+00 0. -1.
         21   -1    0    0  501  502  0.00000000000E+00 -0.00000000000E+00 -0.41196357280E+02  0.41196357280E+02  0.00000000000E+00 0.  1.
         24    2    1    2    0    0 -0.26494278013E+02  0.11768285246E+01  0.19322877584E+03  0.21197735182E+03  0.83028345645E+02 0.  0.
         23    2    1    2    0    0 -0.27972231571E+01 -0.13739418004E+02  0.40486948421E+02  0.10003000866E+03  0.90389233740E+02 0.  0.
        -13    1    3    3    0    0 -0.25305175510E+02  0.30085825095E+02  0.17108204757E+03  0.17554080944E+03  0.00000000000E+00 0.  1.
         14    1    3    3    0    0 -0.11891025030E+01 -0.28908996571E+02  0.22146728268E+02  0.36436542378E+02  0.00000000000E+00 0. -1.
        -13    1    4    4    0    0 -0.22599650960E+01  0.27777671678E+02  0.50173831852E+02  0.57394423848E+02  0.00000000000E+00 0. -1.
         13    1    4    4    0    0 -0.53725806109E+00 -0.41517089682E+02 -0.96868834312E+01  0.42635584815E+02  0.00000000000E+00 0.  1.
          1    1    1    2  501    0  0.29291501170E+02  0.12562589479E+02  0.12179624112E+03  0.12589731945E+03  0.00000000000E+00 0. -1.
<scales pt_clust_5="13000.00000" pt_clust_6="13000.00000" pt_clust_7="13000.00000" pt_clust_8="13000.00000" pt_clust_9="31.87180"></scales>
<clustering>
<clus scale="   31.872">  2  9  1 -1</clus>
<clus scale="   83.028">  5  6 -1 -1</clus>
<clus scale="   85.386">  1  5  2 -1</clus>
<clus scale="   90.389">  7  8 -1 -1</clus>
<clus scale="   31.872">  2  5  1 -1</clus>
</clustering>
</event>
<event>
 9    2  0.6469128E-005  0.1500514E+03  0.7546771E-02  0.1202449E+00
         -1   -1    0    0    0  501 -0.00000000000E+00  0.00000000000E+00  0.92249936832E+02  0.92249936832E+02  0.00000000000E+00 0.  1.
         21   -1    0    0  501  502  0.00000000000E+00 -0.00000000000E+00 -0.41739013943E+03  0.41739013943E+03  0.00000000000E+00 0. -1.
         24    2    1    2    0    0  0.48397067425E+02  0.10597428921E+03 -0.11702139142E+02  0.14222454159E+03  0.80734466377E+02 0.  0.
         23    2    1    2    0    0 -0.77827003984E+02 -0.10393386584E+03 -0.28547537768E+03  0.32676831719E+03  0.91771732239E+02 0.  0.
        -11    1    3    3    0    0 -0.20521382141E+02  0.36399737035E+02 -0.14566757782E+02  0.44252213656E+02  0.00000000000E+00 0.  1.
         12    1    3    3    0    0  0.68918449565E+02  0.69574552174E+02  0.28646186407E+01  0.97972327933E+02  0.00000000000E+00 0. -1.
        -11    1    4    4    0    0 -0.39756764133E+02  0.81819180112E+01 -0.71454981969E+02  0.82178820416E+02  0.00000000000E+00 0. -1.
         11    1    4    4    0    0 -0.38070239851E+02 -0.11211578385E+03 -0.21402039571E+03  0.24458949677E+03  0.00000000000E+00 0.  1.
         -2    1    1    2    0  502  0.29429936560E+02 -0.20404233695E+01 -0.27962685771E+02  0.40647217481E+02  0.00000000000E+00 0.  1.
<scales pt_clust_5="13000.00000" pt_clust_6="13000.00000" pt_clust_7="13000.00000" pt_clust_8="13000.00000" pt_clust_9="29.50058"></scales>
<clustering>
<clus scale="   29.501">  2  9  1 -1</clus>
<clus scale="   80.734">  5  6 -1 -1</clus>
<clus scale="   91.772">  7  8 -1 -1</clus>
<clus scale="  143.567">  1  5  2 -1</clus>
<clus scale="   29.501">  2  5  1 -1</clus>
</clustering>
</event>
<event>
 9    2  0.6469128E-005  0.9230735E+02  0.7546771E-02  0.1304668E+00
         21   -1    0    0  501  502  0.00000000000E+00  0.00000000000E+00  0.54637971649E+02  0.54637971649E+02  0.00000000000E+00 0.  1.
          2   -1    0    0  502    0 -0.00000000000E+00 -0.00000000000E+00 -0.23153979385E+03  0.23153979385E+03  0.00000000000E+00 0. -1.
         23    2    1    2    0    0 -0.43674657992E+01  0.14714448160E+01 -0.96941780908E+02  0.13348876348E+03  0.91653156976E+02 0.  0.
         24    2    1    2    0    0 -0.32649090893E+02  0.12907615137E+02 -0.38948686031E+02  0.95602102510E+02  0.79938677723E+02 0.  0.
        -13    1    4    4    0    0 -0.56314678734E+02 -0.51727064740E+01 -0.18598642978E+02  0.59531583666E+02  0.00000000000E+00 0.  1.
         14    1    4    4    0    0  0.23665587841E+02  0.18080321611E+02 -0.20350043053E+02  0.36070518844E+02  0.00000000000E+00 0. -1.
        -13    1    3    3    0    0  0.42339090141E+02 -0.82002837577E+01 -0.36536063356E+02  0.56521917282E+02  0.00000000000E+00 0.  1.
         13    1    3    3    0    0 -0.46706555940E+02  0.96717285736E+01 -0.60405717552E+02  0.76966846202E+02  0.00000000000E+00 0. -1.
          1    1    1    2  501    0  0.37016556692E+02 -0.14379059953E+02 -0.41011355258E+02  0.57086899500E+02  0.00000000000E+00 0. -1.
<scales pt_clust_5="13000.00000" pt_clust_6="13000.00000" pt_clust_7="13000.00000" pt_clust_8="13000.00000" pt_clust_9="39.71126"></scales>
<clustering>
<clus scale="   39.711">  1  9  2 -1</clus>
<clus scale="   79.939">  5  6 -1 -1</clus>
<clus scale="   80.688">  1  5  2 -1</clus>
<clus scale="   91.653">  7  8 -1 -1</clus>
<clus scale="   39.711">  1  5  2 -1</clus>
</clustering>
</event>
<event>
 9    2  0.6469128E-005  0.1122690E+03  0.7546771E-02  0.1260270E+00
         21   -1    0    0  501  502  0.00000000000E+00  0.00000000000E+00  0.26251375101E+03  0.26251375101E+03  0.00000000000E+00 0.  1.
          2   -1    0    0  502    0 -0.00000000000E+00 -0.00000000000E+00 -0.29766444539E+03  0.29766444539E+03  0.00000000000E+00 0. -1.
         24    2    1    2    0    0  0.64672648542E+02  0.39366131158E+01 -0.24630577736E+03  0.26720635075E+03  0.80837179101E+02 0.  0.
         23    2    1    2    0    0 -0.73917551070E+02  0.36875863738E+02  0.61400916645E+02  0.13748089149E+03  0.91144332120E+02 0.  0.
        -13    1    3    3    0    0  0.17713891829E+02 -0.31459165936E+02 -0.46168189552E+02  0.58608555788E+02  0.00000000000E+00 0.  1.
         14    1    3    3    0    0  0.46958756713E+02  0.35395779052E+02 -0.20013758781E+03  0.20859779496E+03  0.00000000000E+00 0. -1.
        -11    1    4    4    0    0  0.15044127536E+02  0.22815094783E+02 -0.19006990742E+01  0.27394652402E+02  0.00000000000E+00 0. -1.
         11    1    4    4    0    0 -0.88961678606E+02  0.14060768955E+02  0.63301615719E+02  0.11008623909E+03  0.00000000000E+00 0.  1.
          1    1    1    2  501    0  0.92449025281E+01 -0.40812476854E+02  0.14975416633E+03  0.15549095416E+03  0.00000000000E+00 0. -1.
<scales pt_clust_5="13000.00000" pt_clust_6="13000.00000" pt_clust_7="13000.00000" pt_clust_8="13000.00000" pt_clust_9="41.84646"></scales>
<clustering>
<clus scale="   41.846">  1  9  2 -1</clus>
<clus scale="   80.837">  5  6 -1 -1</clus>
<clus scale="   91.144">  7  8 -1 -1</clus>
<clus scale="  104.075">  2  5  1 -1</clus>
<clus scale="   41.846">  1  5  2 -1</clus>
</clustering>
</event>
<event>
 9    2  0.6469128E-005  0.1462385E+03  0.7546771E-02  0.1207481E+00
         21   -1    0    0  501  502  0.00000000000E+00  0.00000000000E+00  0.25693403760E+02  0.25693403760E+02  0.00000000000E+00 0. -1.
          2   -1    0    0  502    0 -0.00000000000E+00 -0.00000000000E+00 -0.13650428242E+04  0.13650428242E+04  0.00000000000E+00 0. -1.
         23    2    1    2    0    0  0.45376463224E+02  0.92424700548E+02 -0.51160775440E+03  0.53008965258E+03  0.93011809590E+02 0.  0.
         24    2    1    2    0    0  0.16309905146E+02 -0.13571556045E+03 -0.51912029402E+03  0.54295732806E+03  0.81437424333E+02 0.  0.
        -11    1    4    4    0    0  0.37464520219E+02 -0.46771008383E+02 -0.29277494125E+03  0.29884491584E+03  0.00000000000E+00 0.  1.
         12    1    4    4    0    0 -0.21154615073E+02 -0.88944552062E+02 -0.22634535277E+03  0.24411241222E+03  0.00000000000E+00 0. -1.
        -11    1    3    3    0    0 -0.15987608110E+02  0.40086274595E+02 -0.78920396465E+02  0.89949663714E+02  0.00000000000E+00 0.  1.
         11    1    3    3    0    0  0.61364071334E+02  0.52338425953E+02 -0.43268735794E+03  0.44013998887E+03  0.00000000000E+00 0. -1.
          1    1    1    2  501    0 -0.61686368370E+02  0.43290859897E+02 -0.30862137204E+03  0.31768924734E+03  0.00000000000E+00 0. -1.
<scales pt_clust_5="13000.00000" pt_clust_6="13000.00000" pt_clust_7="13000.00000" pt_clust_8="13000.00000" pt_clust_9="75.36121"></scales>
<clustering>
<clus scale="   75.361">  1  9  2 -1</clus>
<clus scale="   81.437">  5  6 -1 -1</clus>
<clus scale="   93.012">  7  8 -1 -1</clus>
<clus scale="  139.164">  1  5  2 -1</clus>
<clus scale="   75.361">  1  5  2 -1</clus>
</clustering>
</event>
<event>
 9    2  0.6469128E-005  0.9721395E+02  0.7546771E-02  0.1293981E+00
         21   -1    0    0  501  502  0.00000000000E+00  0.00000000000E+00  0.49484198049E+03  0.49484198049E+03  0.00000000000E+00 0.  1.
          4   -1    0    0  502    0 -0.00000000000E+00 -0.00000000000E+00 -0.40447280187E+02  0.40447280187E+02  0.00000000000E+00 0. -1.
         23    2    1    2    0    0  0.14129569853E+02  0.14488584150E+02  0.39920179352E+02  0.10418872557E+03  0.94085631215E+02 0.  0.
         24    2    1    2    0    0 -0.19816041062E+02 -0.36884638171E+02  0.27127605986E+03  0.28604979072E+03  0.80502360826E+02 0.  0.
        -13    1    4    4    0    0 -0.47693265876E+02 -0.21835994916E+02  0.11228057723E+03  0.12392895669E+03  0.00000000000E+00 0.  1.
         14    1    4    4    0    0  0.27877224814E+02 -0.15048643255E+02  0.15899548264E+03  0.16212083403E+03  0.00000000000E+00 0. -1.
        -11    1    3    3    0    0  0.15133492513E+02  0.51888776046E+02  0.39198360532E+02  0.66768099745E+02  0.00000000000E+00 0.  1.
         11    1    3    3    0    0 -0.10039226606E+01 -0.37400191896E+02  0.72181882038E+00  0.37420625823E+02  0.00000000000E+00 0. -1.
          3    1    1    2  501    0  0.56864712090E+01  0.22396054021E+02  0.14319846108E+03  0.14505074439E+03  0.00000000000E+00 0. -1.
<scales pt_clust_5="13000.00000" pt_clust_6="13000.00000" pt_clust_7="13000.00000" pt_clust_8="13000.00000" pt_clust_9="23.10669"></scales>
<clustering>
<clus scale="   23.107">  1  9  2 -1</clus>
<clus scale="   80.502">  5  6 -1 -1</clus>
<clus scale="   84.137">  1  5  2 -1</clus>
<clus scale="   94.086">  7  8 -1 -1</clus>
<clus scale="   23.107">  1  5  2 -1</clus>
</clustering>
</event>
<event>
 9    2  0.6469128E-005  0.1143875E+03  0.7546771E-02  0.1257913E+00
         21   -1    0    0  501  502  0.00000000000E+00  0.00000000000E+00  0.13480434347E+03  0.13480434347E+03  0.00000000000E+00 0.  1.
         -3   -1    0    0    0  501 -0.00000000000E+00 -0.00000000000E+00 -0.42672113426E+03  0.42672113426E+03  0.00000000000E+00 0.  1.
         24    2    1    2    0    0 -0.60749776463E+02  0.97058606794E+01 -0.33557413902E+03  0.35091239618E+03  0.82126536183E+02 0.  0.
         23    2    1    2    0    0  0.75738735241E+02  0.56177594976E+02  0.93950276312E+01  0.13485553917E+03  0.95945149471E+02 0.  0.
        -11    1    3    3    0    0 -0.80415878189E+02  0.55870556134E+01 -0.29211564217E+03  0.30303378864E+03  0.00000000000E+00 0.  1.
         12    1    3    3    0    0  0.19666101726E+02  0.41188050660E+01 -0.43458496849E+02  0.47878607547E+02  0.00000000000E+00 0. -1.
        -11    1    4    4    0    0  0.92219632497E+02  0.43649159466E+02  0.29284117964E+02  0.10614739424E+03  0.00000000000E+00 0.  1.
         11    1    4    4    0    0 -0.16480897256E+02  0.12528435511E+02 -0.19889090333E+02  0.28708144924E+02  0.00000000000E+00 0. -1.
         -4    1    1    2    0  502 -0.14988958778E+02 -0.65883455656E+02  0.34262320598E+02  0.75757542378E+02  0.00000000000E+00 0.  1.
<scales pt_clust_5="13000.00000" pt_clust_6="13000.00000" pt_clust_7="13000.00000" pt_clust_8="13000.00000" pt_clust_9="67.56699"></scales>
<clustering>
<clus scale="   67.567">  1  9  2 -1</clus>
<clus scale="   82.127">  5  6 -1 -1</clus>
<clus scale="   95.945">  7  8 -1 -1</clus>
<clus scale="  103.072">  2  5  1 -1</clus>
<clus scale="   67.567">  1  5  2 -1</clus>
</clustering>
</event>
<event>
 9    2  0.6469128E-005  0.2158688E+03  0.7546771E-02  0.1138050E+00
         21   -1    0    0  501  502  0.00000000000E+00  0.00000000000E+00  0.15798394357E+03  0.15798394357E+03  0.00000000000E+00 0. -1.
          2   -1    0    0  502    0 -0.00000000000E+00 -0.00000000000E+00 -0.81093420088E+03  0.81093420088E+03  0.00000000000E+00 0. -1.
         23    2    1    2    0    0 -0.41823467053E+02  0.20157959652E+03 -0.64900182956E+03  0.68716943023E+03  0.92816566066E+02 0.  0.
         24    2    1    2    0    0  0.95130484042E+02 -0.13432640072E+03 -0.42562702474E+02  0.18764402455E+03  0.79405953069E+02 0.  0.
        -13    1    4    4    0    0 -0.11312293125E+02 -0.36229029805E+02 -0.71218082286E+01  0.38616456709E+02  0.00000000000E+00 0.  1.
         14    1    4    4    0    0  0.10644277717E+03 -0.98097370918E+02 -0.35440894245E+02  0.14902756784E+03  0.00000000000E+00 0. -1.
        -11    1    3    3    0    0 -0.24738671914E+02  0.56874559051E+02 -0.88713526978E+02  0.10824420180E+03  0.00000000000E+00 0. -1.
         11    1    3    3    0    0 -0.17084795138E+02  0.14470503747E+03 -0.56028830258E+03  0.57892522842E+03  0.00000000000E+00 0.  1.
          1    1    1    2  501    0 -0.53307016990E+02 -0.67253195799E+02  0.38614274721E+02  0.94104689669E+02  0.00000000000E+00 0. -1.
<scales pt_clust_5="13000.00000" pt_clust_6="13000.00000" pt_clust_7="13000.00000" pt_clust_8="13000.00000" pt_clust_9="85.81742"></scales>
<clustering>
<clus scale="   79.406">  5  6 -1 -1</clus>
<clus scale="   85.817">  1  9  2 -1</clus>
<clus scale="   92.817">  7  8 -1 -1</clus>
<clus scale="  210.451">  1  5  2 -1</clus>
<clus scale="   85.817">  1  5  2 -1</clus>
</clustering>
</event>
<event>
 9    2  0.6469128E-005  0.1202754E+03  0.7546771E-02  0.1246288E+00
          2   -1    0    0  502    0 -0.00000000000E+00  0.00000000000E+00  0.28440009797E+02  0.28440009797E+02  0.00000000000E+00 0. -1.
         21   -1    0    0  501  502  0.00000000000E+00 -0.00000000000E+00 -0.10600820577E+04  0.10600820577E+04  0.00000000000E+00 0. -1.
         23    2    1    2    0    0  0.93533020719E+02  0.52378736761E+02 -0.22423773510E+03  0.26459509322E+03  0.90752649987E+02 0.  0.
         24    2    1    2    0    0 -0.23877392042E+02 -0.30821429472E+02 -0.36172887315E+03  0.37232624176E+03  0.79113603571E+02 0.  0.
        -11    1    4    4    0    0 -0.25360667010E+02 -0.51817883268E+02 -0.32424031741E+03  0.32933271913E+03  0.00000000000E+00 0.  1.
         12    1    4    4    0    0  0.14832749687E+01  0.20996453796E+02 -0.37488555737E+02  0.42993522628E+02  0.00000000000E+00 0. -1.
        -11    1    3    3    0    0  0.75262660401E+02 -0.14560560290E+01 -0.81462582291E+02  0.11091771934E+03  0.00000000000E+00 0. -1.
         11    1    3    3    0    0  0.18270360318E+02  0.53834792790E+02 -0.14277515281E+03  0.15367737388E+03  0.00000000000E+00 0.  1.
          1    1    1    2  501    0 -0.69655628678E+02 -0.21557307289E+02 -0.44567543960E+03  0.45160073247E+03  0.00000000000E+00 0. -1.
<scales pt_clust_5="13000.00000" pt_clust_6="13000.00000" pt_clust_7="13000.00000" pt_clust_8="13000.00000" pt_clust_9="72.91518"></scales>
<clustering>
<clus scale="   72.915">  2  9  1 -1</clus>
<clus scale="   79.114">  5  6 -1 -1</clus>
<clus scale="   90.753">  7  8 -1 -1</clus>
<clus scale="  111.755">  2  5  1 -1</clus>
<clus scale="   72.915">  2  5  1 -1</clus>
</clustering>
</event>
<event>
 9    2  0.6469128E-005  0.1012751E+03  0.7546771E-02  0.1282510E+00
          2   -1    0    0  502    0 -0.00000000000E+00  0.00000000000E+00  0.17280594319E+03  0.17280594319E+03  0.00000000000E+00 0. -1.
         21   -1    0    0  501  502  0.00000000000E+00 -0.00000000000E+00 -0.36733438573E+03  0.36733438573E+03  0.00000000000E+00 0. -1.
         24    2    1    2    0    0 -0.36637073173E+02  0.37439893988E+02  0.12899533845E+03  0.16096960337E+03  0.80792295884E+02 0.  0.
         23    2    1    2    0    0 -0.39035542123E+02 -0.17261418637E+02 -0.97525039239E+02  0.13998680711E+03  0.90903480478E+02 0.  0.
        -13    1    3    3    0    0 -0.20171104621E+02  0.24435586678E+02  0.14592466269E+01  0.31719091391E+02  0.00000000000E+00 0.  1.
         14    1    3    3    0    0 -0.16465968552E+02  0.13004307309E+02  0.12753609182E+03  0.12925051198E+03  0.00000000000E+00 0. -1.
        -11    1    4    4    0    0 -0.31868243309E+02 -0.54154688537E+02 -0.60263500046E+02  0.87063222200E+02  0.00000000000E+00 0.  1.
         11    1    4    4    0    0 -0.71672988143E+01  0.36893269901E+02 -0.37261539193E+02  0.52923584906E+02  0.00000000000E+00 0. -1.
          1    1    1    2  501    0  0.75672615296E+02 -0.20178475351E+02 -0.22599874175E+03  0.23918391845E+03  0.00000000000E+00 0. -1.
<scales pt_clust_5="13000.00000" pt_clust_6="13000.00000" pt_clust_7="13000.00000" pt_clust_8="13000.00000" pt_clust_9="78.31676"></scales>
<clustering>
<clus scale="   78.317">  2  9  1 -1</clus>
<clus scale="   80.792">  5  6 -1 -1</clus>
<clus scale="   90.903">  7  8 -1 -1</clus>
<clus scale="   92.307">  1  5  2 -1</clus>
<clus scale="   78.317">  2  5  1 -1</clus>
</clustering>
</event>
<event>
 9    2  0.6469128E-005  0.1210169E+03  0.7546771E-02  0.1245408E+00
         21   -1    0    0  501  502  0.00000000000E+00  0.00000000000E+00  0.10187206241E+03  0.10187206241E+03  0.00000000000E+00 0.  1.
          2   -1    0    0  502    0 -0.00000000000E+00 -0.00000000000E+00 -0.26909981362E+03  0.26909981362E+03  0.00000000000E+00 0. -1.
         24    2    1    2    0    0  0.71101577539E+02 -0.26612359179E+02 -0.18138706730E+03  0.21191728396E+03  0.79019080380E+02 0.  0.
         23    2    1    2    0    0 -0.93757963928E+02  0.16542815307E+02  0.19613262418E+02  0.13366851147E+03  0.91751677685E+02 0.  0.
        -13    1    3    3    0    0  0.22650964101E+02 -0.47223894171E+02 -0.60252119830E+02  0.79834079812E+02  0.00000000000E+00 0.  1.
         14    1    3    3    0    0  0.48450613439E+02  0.20611534992E+02 -0.12113494747E+03  0.13208320414E+03  0.00000000000E+00 0. -1.
        -11    1    4    4    0    0 -0.78121048940E+02 -0.26109586488E+02  0.28916963722E+02  0.87297191163E+02  0.00000000000E+00 0.  1.
         11    1    4    4    0    0 -0.15636914988E+02  0.42652401795E+02 -0.93037013037E+01  0.46371320309E+02  0.00000000000E+00 0. -1.
          1    1    1    2  501    0  0.22656386389E+02  0.10069543872E+02 -0.54539463245E+01  0.25386080606E+02  0.00000000000E+00 0. -1.
<scales pt_clust_5="13000.00000" pt_clust_6="13000.00000" pt_clust_7="13000.00000" pt_clust_8="13000.00000" pt_clust_9="24.79330"></scales>
<clustering>
<clus scale="   24.793">  1  9  2 -1</clus>
<clus scale="   79.019">  5  6 -1 -1</clus>
<clus scale="   91.752">  7  8 -1 -1</clus>
<clus scale="  111.672">  2  5  1 -1</clus>
<clus scale="   24.793">  1  5  2 -1</clus>
</clustering>
</event>
<event>
 9    2  0.6469128E-005  0.9190572E+02  0.7546771E-02  0.1329020E+00
         21   -1    0    0  501  502  0.00000000000E+00  0.00000000000E+00  0.23566964223E+02  0.23566964223E+02  0.00000000000E+00 0. -1.
         -1   -1    0    0    0  501 -0.00000000000E+00 -0.00000000000E+00 -0.42302887266E+03  0.42302887266E+03  0.00000000000E+00 0.  1.
         24    2    1    2    0    0  0.10928235532E+02 -0.86514279613E+01 -0.20992786276E+03  0.21680426206E+03  0.52346030871E+02 0.  0.
         23    2    1    2    0    0  0.16955972105E+02 -0.12084486864E+02 -0.15139790332E+03  0.17819823656E+03  0.91650131315E+02 0.  0.
        -13    1    3    3    0    0  0.38798940875E+01 -0.30689731774E+02 -0.11359528847E+03  0.11773191062E+03  0.00000000000E+00 0.  1.
         14    1    3    3    0    0  0.70483414449E+01  0.22038303812E+02 -0.96332574285E+02  0.99072351443E+02  0.00000000000E+00 0. -1.
        -11    1    4    4    0    0  0.28031670365E+02 -0.38075999454E+02 -0.13993749619E+03  0.14770937383E+03  0.00000000000E+00 0.  1.
         11    1    4    4    0    0 -0.11075698261E+02  0.25991512590E+02 -0.11460407127E+02  0.30488862724E+02  0.00000000000E+00 0. -1.
         -2    1    1    2    0  502 -0.27884207637E+02  0.20735914826E+02 -0.38136142363E+02  0.51593338267E+02  0.00000000000E+00 0.  1.
<scales pt_clust_5="13000.00000" pt_clust_6="13000.00000" pt_clust_7="13000.00000" pt_clust_8="13000.00000" pt_clust_9="34.74920"></scales>
<clustering>
<clus scale="   34.749">  1  9  2 -1</clus>
<clus scale="   52.346">  5  6 -1 -1</clus>
<clus scale="   52.792">  2  5  1 -1</clus>
<clus scale="   91.650">  7  8 -1 -1</clus>
<clus scale="   34.749">  1  5  2 -1</clus>
</clustering>
</event>
<event>
 9    2  0.7357630E-005  0.1008958E+03  0.7546771E-02  0.1278915E+00
         21   -1    0    0  501  502  0.00000000000E+00  0.00000000000E+00  0.12618188878E+03  0.12618188878E+03  0.00000000000E+00 0. -1.
          2   -1    0    0  502    0 -0.00000000000E+00 -0.00000000000E+00 -0.56955246206E+03  0.56955246206E+03  0.00000000000E+00 0. -1.
         24    2    1    2    0    0  0.94501356016E+01 -0.58240573432E+02 -0.39938888355E+03  0.41162364085E+03  0.80257535159E+02 0.  0.
         23    2    1    2    0    0  0.12483521628E+02  0.68861562370E+02 -0.14546049314E+03  0.17974673983E+03  0.79072007247E+02 0.  0.
        -13    1    3    3    0    0  0.15062632861E+02  0.17482935818E+02 -0.75196553568E+02  0.78657851624E+02  0.00000000000E+00 0.  1.
         14    1    3    3    0    0 -0.56124972592E+01 -0.75723509250E+02 -0.32419232998E+03  0.33296578923E+03  0.00000000000E+00 0. -1.
        -13    1    4    4    0    0 -0.87724836378E+01  0.76285507044E+02 -0.81672989890E+02  0.11210224053E+03  0.00000000000E+00 0.  1.
         13    1    4    4    0    0  0.21256005266E+02 -0.74239446745E+01 -0.63787503255E+02  0.67644499302E+02  0.00000000000E+00 0. -1.
          1    1    1    2  501    0 -0.21933657230E+02 -0.10620988938E+02  0.10147880341E+03  0.10436397016E+03  0.00000000000E+00 0. -1.
<scales pt_clust_5="13000.00000" pt_clust_6="13000.00000" pt_clust_7="13000.00000" pt_clust_8="13000.00000" pt_clust_9="24.36987"></scales>
<clustering>
<clus scale="   24.370">  1  9  2 -1</clus>
<clus scale="   79.072">  7  8 -1 -1</clus>
<clus scale="   80.258">  5  6 -1 -1</clus>
<clus scale="   99.955">  1  7  2 -1</clus>
<clus scale="   24.370">  1  5  2 -1</clus>
</clustering>
</event>
<event>
 9    2  0.6469128E-005  0.1386025E+03  0.7546771E-02  0.1216989E+00
          2   -1    0    0  502    0 -0.00000000000E+00  0.00000000000E+00  0.88131571660E+03  0.88131571660E+03  0.00000000000E+00 0. -1.
         21   -1    0    0  501  502  0.00000000000E+00 -0.00000000000E+00 -0.32651918874E+02  0.32651918874E+02  0.00000000000E+00 0. -1.
         24    2    1    2    0    0 -0.16463722691E+02  0.11355421184E+03  0.58891896907E+03  0.60533729987E+03  0.80262577214E+02 0.  0.
         23    2    1    2    0    0 -0.11647537031E+02 -0.88331732398E+02  0.17063751330E+03  0.21184950050E+03  0.88458407457E+02 0.  0.
        -13    1    3    3    0    0  0.16701679110E+02  0.28092546044E+02  0.58105978856E+02  0.66666648387E+02  0.00000000000E+00 0.  1.
         14    1    3    3    0    0 -0.33165401801E+02  0.85461665791E+02  0.53081299021E+03  0.53867065149E+03  0.00000000000E+00 0. -1.
        -11    1    4    4    0    0  0.16379798409E+02 -0.94505803952E+02  0.11974517428E+03  0.15342278690E+03  0.00000000000E+00 0. -1.
         11    1    4    4    0    0 -0.28027335439E+02  0.61740715532E+01  0.50892339024E+02  0.58426713606E+02  0.00000000000E+00 0.  1.
          1    1    1    2  501    0  0.28111259721E+02 -0.25222479437E+02  0.89107315364E+02  0.96780835105E+02  0.00000000000E+00 0. -1.
<scales pt_clust_5="13000.00000" pt_clust_6="13000.00000" pt_clust_7="13000.00000" pt_clust_8="13000.00000" pt_clust_9="37.76793"></scales>
<clustering>
<clus scale="   37.768">  2  9  1 -1</clus>
<clus scale="   80.263">  5  6 -1 -1</clus>
<clus scale="   88.458">  7  8 -1 -1</clus>
<clus scale="  133.521">  1  5  2 -1</clus>
<clus scale="   37.768">  2  5  1 -1</clus>
</clustering>
</event>
<event>
 9    2  0.6469128E-005  0.3992375E+03  0.7546771E-02  0.1096818E+00
         21   -1    0    0  501  502  0.00000000000E+00  0.00000000000E+00  0.14208941028E+03  0.14208941028E+03  0.00000000000E+00 0. -1.
          2   -1    0    0  502    0 -0.00000000000E+00 -0.00000000000E+00 -0.17983535928E+04  0.17983535928E+04  0.00000000000E+00 0. -1.
         24    2    1    2    0    0  0.22798616784E+02 -0.43444717039E+02 -0.27756673258E+01  0.93824338249E+02  0.79925476245E+02 0.  0.
         23    2    1    2    0    0  0.29122032912E+02 -0.35783684957E+03 -0.11015520800E+04  0.11622529161E+04  0.92301420873E+02 0.  0.
        -11    1    3    3    0    0 -0.61312169059E+01 -0.39047201983E+02 -0.33194628186E+02  0.51615493254E+02  0.00000000000E+00 0.  1.
         12    1    3    3    0    0  0.28929833690E+02 -0.43975150553E+01  0.30418960860E+02  0.42208844995E+02  0.00000000000E+00 0. -1.
        -11    1    4    4    0    0  0.15525918063E+02 -0.20668296321E+03 -0.77365372932E+03  0.80093632350E+03  0.00000000000E+00 0.  1.
         11    1    4    4    0    0  0.13596114849E+02 -0.15115388636E+03 -0.32789835066E+03  0.36131659257E+03  0.00000000000E+00 0. -1.
          1    1    1    2  501    0 -0.51920649695E+02  0.40128156661E+03 -0.55193643525E+03  0.68436574880E+03  0.00000000000E+00 0. -1.
<scales pt_clust_5="13000.00000" pt_clust_6="13000.00000" pt_clust_7="13000.00000" pt_clust_8="13000.00000" pt_clust_9="388.42123"></scales>
<clustering>
<clus scale="   79.925">  5  6 -1 -1</clus>
<clus scale="   92.301">  7  8 -1 -1</clus>
<clus scale="   93.783">  2  5  1 -1</clus>
<clus scale="  388.421">  1  9  2 -1</clus>
<clus scale="  388.421">  1  5  2 -1</clus>
</clustering>
</event>
<event>
 9    2  0.6469128E-005  0.1977130E+03  0.7546771E-02  0.1183583E+00
         21   -1    0    0  501  502  0.00000000000E+00  0.00000000000E+00  0.11805339106E+03  0.11805339106E+03  0.00000000000E+00 0.  1.
         -3   -1    0    0    0  501 -0.00000000000E+00 -0.00000000000E+00 -0.73999379315E+03  0.73999379315E+03  0.00000000000E+00 0.  1.
         23    2    1    2    0    0  0.20994254529E+02  0.13056864570E+02 -0.17775397934E+02  0.96659467762E+02  0.91737928365E+02 0.  0.
         24    2    1    2    0    0  0.15483698556E+03  0.45485995432E+02 -0.53332092182E+03  0.56298717348E+03  0.80497726480E+02 0.  0.
        -13    1    4    4    0    0  0.11959267655E+03  0.68217257962E+02 -0.42899403802E+03  0.45054620986E+03  0.00000000000E+00 0.  1.
         14    1    4    4    0    0  0.35244309008E+02 -0.22731262530E+02 -0.10432688380E+03  0.11244096361E+03  0.00000000000E+00 0. -1.
        -11    1    3    3    0    0  0.69106073824E+01  0.31279383175E+02 -0.48583999276E+02  0.58194168882E+02  0.00000000000E+00 0. -1.
         11    1    3    3    0    0  0.14083647146E+02 -0.18222518605E+02  0.30808601342E+02  0.38465298880E+02  0.00000000000E+00 0.  1.
         -4    1    1    2    0  502 -0.17583124009E+03 -0.58542860001E+02 -0.70844082334E+02  0.19840054297E+03  0.00000000000E+00 0.  1.
<scales pt_clust_5="13000.00000" pt_clust_6="13000.00000" pt_clust_7="13000.00000" pt_clust_8="13000.00000" pt_clust_9="180.58391"></scales>
<clustering>
<clus scale="   80.498">  5  6 -1 -1</clus>
<clus scale="   91.738">  7  8 -1 -1</clus>
<clus scale="   95.011">  2  7  1 -1</clus>
<clus scale="  180.584">  1  9  2 -1</clus>
<clus scale="  180.584">  1  5  2 -1</clus>
</clustering>
</event>
<event>
 9    2  0.6469128E-005  0.9913263E+02  0.7546771E-02  0.1292022E+00
          2   -1    0    0  502    0 -0.00000000000E+00  0.00000000000E+00  0.26235684186E+03  0.26235684186E+03  0.00000000000E+00 0. -1.
         21   -1    0    0  501  502  0.00000000000E+00 -0.00000000000E+00 -0.76913091374E+02  0.76913091374E+02  0.00000000000E+00 0.  1.
         24    2    1    2    0    0  0.20978749864E+02  0.21288256901E+02  0.15504190956E+03  0.17622765422E+03  0.78261705604E+02 0.  0.
         23    2    1    2    0    0 -0.22821635794E+02  0.55221827258E+01  0.65816046536E+02  0.11858598745E+03  0.95810035353E+02 0.  0.
        -13    1    3    3    0    0  0.55117554770E+01 -0.26671141085E+02  0.25823365677E+02  0.37530992927E+02  0.00000000000E+00 0.  1.
         14    1    3    3    0    0  0.15466994387E+02  0.47959397986E+02  0.12921854388E+03  0.13869666129E+03  0.00000000000E+00 0. -1.
        -13    1    4    4    0    0 -0.23333547661E+02 -0.26326366653E+02 -0.98141233647E+01  0.36521898158E+02  0.00000000000E+00 0.  1.
         13    1    4    4    0    0  0.51191186654E+00  0.31848549379E+02  0.75630169901E+02  0.82064089288E+02  0.00000000000E+00 0. -1.
          1    1    1    2  501    0  0.18428859303E+01 -0.26810439627E+02 -0.35414205608E+02  0.44456291572E+02  0.00000000000E+00 0. -1.
<scales pt_clust_5="13000.00000" pt_clust_6="13000.00000" pt_clust_7="13000.00000" pt_clust_8="13000.00000" pt_clust_9="26.87370"></scales>
<clustering>
<clus scale="   26.874">  2  9  1 -1</clus>
<clus scale="   78.262">  5  6 -1 -1</clus>
<clus scale="   82.296">  1  5  2 -1</clus>
<clus scale="   95.810">  7  8 -1 -1</clus>
<clus scale="   26.874">  2  5  1 -1</clus>
</clustering>
</event>
<event>
 9    2  0.6469128E-005  0.1712465E+03  0.7546771E-02  0.1198038E+00
          4   -1    0    0  502    0 -0.00000000000E+00  0.00000000000E+00  0.26748156234E+03  0.26748156234E+03  0.00000000000E+00 0. -1.
         21   -1    0    0  501  502  0.00000000000E+00 -0.00000000000E+00 -0.21978961598E+03  0.21978961598E+03  0.00000000000E+00 0. -1.
         24    2    1    2    0    0  0.61787193426E+02  0.81850477690E+01 -0.78562604953E+02  0.13217389074E+03  0.86099954801E+02 0.  0.
         23    2    1    2    0    0  0.68192876495E+02  0.10682203815E+03  0.39773730238E+02  0.16118911136E+03  0.91316831776E+02 0.  0.
        -13    1    3    3    0    0  0.11386840752E+02  0.22544805113E+02 -0.75573771127E+02  0.79682640910E+02  0.00000000000E+00 0.  1.
         14    1    3    3    0    0  0.50400352674E+02 -0.14359757344E+02 -0.29888338254E+01  0.52491249826E+02  0.00000000000E+00 0. -1.
        -11    1    4    4    0    0  0.33620365859E+02  0.11556587589E+03  0.33968270892E+02  0.12505856268E+03  0.00000000000E+00 0. -1.
         11    1    4    4    0    0  0.34572510636E+02 -0.87438377421E+01  0.58054593467E+01  0.36130548686E+02  0.00000000000E+00 0.  1.
          3    1    1    2  501    0 -0.12998006992E+03 -0.11500708592E+03  0.86480821076E+02  0.19390817621E+03  0.00000000000E+00 0. -1.
<scales pt_clust_5="13000.00000" pt_clust_6="13000.00000" pt_clust_7="13000.00000" pt_clust_8="13000.00000" pt_clust_9="144.86759"></scales>
<clustering>
<clus scale="   86.100">  5  6 -1 -1</clus>
<clus scale="   91.317">  7  8 -1 -1</clus>
<clus scale="  106.291">  1  5  2 -1</clus>
<clus scale="  144.868">  2  9  1 -1</clus>
<clus scale="  144.868">  2  5  1 -1</clus>
</clustering>
</event>
<event>
 9    2  0.6469128E-005  0.1008407E+03  0.7546771E-02  0.1282909E+00
          2   -1    0    0  502    0 -0.00000000000E+00  0.00000000000E+00  0.10764981794E+03  0.10764981794E+03  0.00000000000E+00 0. -1.
         21   -1    0    0  501  502  0.00000000000E+00 -0.00000000000E+00 -0.31985878469E+03  0.31985878469E+03  0.00000000000E+00 0.  1.
         23    2    1    2    0    0 -0.45651009356E+02  0.33425971085E+01  0.66400031994E+02  0.12165004452E+03  0.91074592896E+02 0.  0.
         24    2    1    2    0    0  0.24389981649E+02 -0.27402794737E+02 -0.16627646408E+03  0.18902738611E+03  0.82083529584E+02 0.  0.
        -13    1    4    4    0    0  0.45973514682E+02 -0.35695301165E+02 -0.14958672419E+03  0.16051139098E+03  0.00000000000E+00 0.  1.
         14    1    4    4    0    0 -0.21583533034E+02  0.82925064286E+01 -0.16689739881E+02  0.28515995132E+02  0.00000000000E+00 0. -1.
        -13    1    3    3    0    0  0.14490745003E+02 -0.24678935731E+02  0.42274525662E+02  0.51050632508E+02  0.00000000000E+00 0.  1.
         13    1    3    3    0    0 -0.60141754359E+02  0.28021532839E+02  0.24125506332E+02  0.70599412008E+02  0.00000000000E+00 0. -1.
          1    1    1    2  501    0  0.21261027707E+02  0.24060197628E+02 -0.11233253466E+03  0.11683117201E+03  0.00000000000E+00 0. -1.
<scales pt_clust_5="13000.00000" pt_clust_6="13000.00000" pt_clust_7="13000.00000" pt_clust_8="13000.00000" pt_clust_9="32.10801"></scales>
<clustering>
<clus scale="   32.108">  2  9  1 -1</clus>
<clus scale="   82.084">  5  6 -1 -1</clus>
<clus scale="   91.075">  7  8 -1 -1</clus>
<clus scale="   92.801">  2  5  1 -1</clus>
<clus scale="   32.108">  2  5  1 -1</clus>
</clustering>
</event>
<event>
 9    2  0.6469128E-005  0.9155977E+02  0.7546771E-02  0.1306089E+00
          2   -1    0    0  502    0 -0.00000000000E+00  0.00000000000E+00  0.18475208170E+03  0.18475208170E+03  0.00000000000E+00 0. -1.
         21   -1    0    0  501  502  0.00000000000E+00 -0.00000000000E+00 -0.23364959039E+03  0.23364959039E+03  0.00000000000E+00 0. -1.
         24    2    1    2    0    0  0.74180492194E+01 -0.50055706057E+00  0.15353514546E+03  0.17328328515E+03  0.79992362209E+02 0.  0.
         23    2    1    2    0    0 -0.38540627959E+02  0.16430433967E+02 -0.12551799742E+03  0.16063027946E+03  0.91060308794E+02 0.  0.
        -11    1    3    3    0    0 -0.24247488871E+02  0.27438018479E+02  0.54926747253E+02  0.66013128531E+02  0.00000000000E+00 0.  1.
         12    1    3    3    0    0  0.31665538090E+02 -0.27938575539E+02  0.98608398202E+02  0.10727015662E+03  0.00000000000E+00 0. -1.
        -13    1    4    4    0    0 -0.49821365670E+02  0.40723857533E+02 -0.53133989143E+02  0.83449516786E+02  0.00000000000E+00 0. -1.
         13    1    4    4    0    0  0.11280737710E+02 -0.24293423566E+02 -0.72384008282E+02  0.77180762673E+02  0.00000000000E+00 0.  1.
          1    1    1    2  501    0  0.31122578740E+02 -0.15929876907E+02 -0.76914656720E+02  0.84488107471E+02  0.00000000000E+00 0. -1.
<scales pt_clust_5="13000.00000" pt_clust_6="13000.00000" pt_clust_7="13000.00000" pt_clust_8="13000.00000" pt_clust_9="34.96249"></scales>
<clustering>
<clus scale="   34.962">  2  9  1 -1</clus>
<clus scale="   79.992">  5  6 -1 -1</clus>
<clus scale="   80.560">  1  5  2 -1</clus>
<clus scale="   91.060">  7  8 -1 -1</clus>
<clus scale="   34.962">  2  5  1 -1</clus>
</clustering>
</event>
<event>
 9    2  0.6469128E-005  0.1226069E+03  0.7546771E-02  0.1241494E+00
         21   -1    0    0  501  502  0.00000000000E+00  0.00000000000E+00  0.48805479059E+02  0.48805479059E+02  0.00000000000E+00 0. -1.
          2   -1    0    0  502    0 -0.00000000000E+00 -0.00000000000E+00 -0.64095106769E+03  0.64095106769E+03  0.00000000000E+00 0. -1.
         23    2    1    2    0    0  0.82019256432E+02 -0.34094463671E+02 -0.31047198351E+03  0.33536564497E+03  0.90485758020E+02 0.  0.
         24    2    1    2    0    0 -0.83437579009E+02 -0.32119076925E+02 -0.25633103791E+03  0.28347905291E+03  0.81616834959E+02 0.  0.
        -11    1    4    4    0    0 -0.64322264240E+02 -0.79511939842E-01 -0.22724327313E+03  0.23617126240E+03  0.00000000000E+00 0.  1.
         12    1    4    4    0    0 -0.19115314769E+02 -0.32039564985E+02 -0.29087764777E+02  0.47307790509E+02  0.00000000000E+00 0. -1.
        -13    1    3    3    0    0  0.83420683551E+01 -0.42336022528E+02 -0.58363322475E+02  0.72582410530E+02  0.00000000000E+00 0.  1.
         13    1    3    3    0    0  0.73677188077E+02  0.82415588577E+01 -0.25210866103E+03  0.26278323444E+03  0.00000000000E+00 0. -1.
          1    1    1    2  501    0  0.14183225771E+01  0.66213540596E+02 -0.25342567214E+02  0.70911848870E+02  0.00000000000E+00 0. -1.
<scales pt_clust_5="13000.00000" pt_clust_6="13000.00000" pt_clust_7="13000.00000" pt_clust_8="13000.00000" pt_clust_9="66.22873"></scales>
<clustering>
<clus scale="   66.229">  1  9  2 -1</clus>
<clus scale="   81.617">  5  6 -1 -1</clus>
<clus scale="   90.486">  7  8 -1 -1</clus>
<clus scale="  116.216">  1  5  2 -1</clus>
<clus scale="   66.229">  1  5  2 -1</clus>
</clustering>
</event>
<event>
 9    2  0.6469128E-005  0.1343256E+03  0.7546771E-02  0.1224155E+00
          2   -1    0    0  502    0 -0.00000000000E+00  0.00000000000E+00  0.98464665103E+03  0.98464665103E+03  0.00000000000E+00 0. -1.
         21   -1    0    0  501  502  0.00000000000E+00 -0.00000000000E+00 -0.28611166784E+02  0.28611166784E+02  0.00000000000E+00 0. -1.
         23    2    1    2    0    0 -0.10636347693E+03 -0.13070714136E+02  0.71227872567E+03  0.72613704059E+03  0.91923804724E+02 0.  0.
         24    2    1    2    0    0  0.80439046130E+02  0.44006252019E+01  0.23032576023E+03  0.25666362255E+03  0.79601844623E+02 0.  0.
        -11    1    4    4    0    0  0.84228131908E+02 -0.11063665679E+02  0.22393509467E+03  0.23950722229E+03  0.00000000000E+00 0.  1.
         12    1    4    4    0    0 -0.37890857780E+01  0.15464290881E+02  0.63906655615E+01  0.17156400258E+02  0.00000000000E+00 0. -1.
        -11    1    3    3    0    0 -0.83636096427E+02  0.31853527597E+02  0.50199309996E+03  0.50990853714E+03  0.00000000000E+00 0. -1.
         11    1    3    3    0    0 -0.22727380507E+02 -0.44924241733E+02  0.21028562572E+03  0.21622850345E+03  0.00000000000E+00 0.  1.
          1    1    1    2  501    0  0.25924430804E+02  0.86700889341E+01  0.13430998340E+02  0.30457154678E+02  0.00000000000E+00 0. -1.
<scales pt_clust_5="13000.00000" pt_clust_6="13000.00000" pt_clust_7="13000.00000" pt_clust_8="13000.00000" pt_clust_9="27.33581"></scales>
<clustering>
<clus scale="   27.336">  2  9  1 -1</clus>
<clus scale="   79.602">  5  6 -1 -1</clus>
<clus scale="   91.924">  7  8 -1 -1</clus>
<clus scale="  126.213">  2  5  1 -1</clus>
<clus scale="   27.336">  2  5  1 -1</clus>
</clustering>
</event>
<event>
 9    2  0.6469128E-005  0.1194370E+03  0.7546771E-02  0.1246191E+00
         -1   -1    0    0    0  501 -0.00000000000E+00  0.00000000000E+00  0.34798416284E+03  0.34798416284E+03  0.00000000000E+00 0.  1.
         21   -1    0    0  501  502  0.00000000000E+00 -0.00000000000E+00 -0.10967041272E+03  0.10967041272E+03  0.00000000000E+00 0.  1.
         23    2    1    2    0    0 -0.31814305345E+02  0.72466684281E+02  0.22816448836E+03  0.25739023669E+03  0.89034430652E+02 0.  0.
         24    2    1    2    0    0  0.77322425354E+02 -0.49713804435E+02  0.52607464080E+02  0.13399683950E+03  0.82081592977E+02 0.  0.
        -13    1    4    4    0    0  0.75441079712E+02 -0.10146727482E+02  0.11630423396E+02  0.77003761824E+02  0.00000000000E+00 0.  1.
         14    1    4    4    0    0  0.18813456418E+01 -0.39567076953E+02  0.40977040683E+02  0.56993077678E+02  0.00000000000E+00 0. -1.
        -11    1    3    3    0    0 -0.56912243264E+02  0.70083123530E+02  0.20091677182E+03  0.22026846537E+03  0.00000000000E+00 0.  1.
         11    1    3    3    0    0  0.25097937919E+02  0.23835607504E+01  0.27247716534E+02  0.37121771320E+02  0.00000000000E+00 0. -1.
         -2    1    1    2    0  502 -0.45508120009E+02 -0.22752879845E+02 -0.42458202320E+02  0.66267499366E+02  0.00000000000E+00 0.  1.
<scales pt_clust_5="13000.00000" pt_clust_6="13000.00000" pt_clust_7="13000.00000" pt_clust_8="13000.00000" pt_clust_9="50.87910"></scales>
<clustering>
<clus scale="   50.879">  2  9  1 -1</clus>
<clus scale="   82.082">  5  6 -1 -1</clus>
<clus scale="   89.034">  7  8 -1 -1</clus>
<clus scale="  114.348">  2  5  1 -1</clus>
<clus scale="   50.879">  2  5  1 -1</clus>
</clustering>
</event>
<event>
 9    2  0.6469128E-005  0.1181268E+03  0.7546771E-02  0.1248758E+00
         21   -1    0    0  501  502  0.00000000000E+00  0.00000000000E+00  0.73477858497E+03  0.73477858497E+03  0.00000000000E+00 0.  1.
         -1   -1    0    0    0  501 -0.00000000000E+00 -0.00000000000E+00 -0.29429393585E+02  0.29429393585E+02  0.00000000000E+00 0.  1.
         24    2    1    2    0    0  0.61886404346E+02 -0.51336438599E+02  0.17586367101E+03  0.21050066175E+03  0.83169350385E+02 0.  0.
         23    2    1    2    0    0 -0.72952574908E+02  0.10364801012E+02  0.34176726937E+03  0.36125140763E+03  0.90929675116E+02 0.  0.
        -11    1    3    3    0    0  0.61208385536E+02 -0.71201538332E+02  0.12861889993E+03  0.15924492752E+03  0.00000000000E+00 0.  1.
         12    1    3    3    0    0  0.67801880992E+00  0.19865099733E+02  0.47244771077E+02  0.51255734226E+02  0.00000000000E+00 0. -1.
        -13    1    4    4    0    0 -0.43461492151E+02 -0.29923011959E+02  0.26113370867E+03  0.26641152706E+03  0.00000000000E+00 0.  1.
         13    1    4    4    0    0 -0.29491082757E+02  0.40287812972E+02  0.80633560700E+02  0.94839880574E+02  0.00000000000E+00 0. -1.
         -2    1    1    2    0  502  0.11066170562E+02  0.40971637586E+02  0.18771825101E+03  0.19245590918E+03  0.00000000000E+00 0.  1.
<scales pt_clust_5="13000.00000" pt_clust_6="13000.00000" pt_clust_7="13000.00000" pt_clust_8="13000.00000" pt_clust_9="42.43978"></scales>
<clustering>
<clus scale="   42.440">  1  9  2 -1</clus>
<clus scale="   83.169">  5  6 -1 -1</clus>
<clus scale="   90.930">  7  8 -1 -1</clus>
<clus scale="  112.263">  2  5  1 -1</clus>
<clus scale="   42.440">  1  5  2 -1</clus>
</clustering>
</event>
<event>
 9    2  0.6469128E-005  0.1290550E+03  0.7546771E-02  0.1234637E+00
         -1   -1    0    0    0  501 -0.00000000000E+00  0.00000000000E+00  0.35421974924E+03  0.35421974924E+03  0.00000000000E+00 0.  1.
         21   -1    0    0  501  502  0.00000000000E+00 -0.00000000000E+00 -0.50222946525E+02  0.50222946525E+02  0.00000000000E+00 0. -1.
         23    2    1    2    0    0  0.55527911238E+02  0.51421552727E+02  0.15846128928E+03  0.20207986009E+03  0.99993823014E+02 0.  0.
         24    2    1    2    0    0 -0.75265433697E+02 -0.47702959040E+02  0.11861191559E+03  0.16877298821E+03  0.80467864513E+02 0.  0.
        -11    1    4    4    0    0 -0.15824921361E+02 -0.36505641288E+02  0.96484896001E+02  0.10436678178E+03  0.00000000000E+00 0.  1.
         12    1    4    4    0    0 -0.59440512336E+02 -0.11197317753E+02  0.22127019588E+02  0.64406206435E+02  0.00000000000E+00 0. -1.
        -11    1    3    3    0    0  0.10365738018E+02  0.28688906447E+02 -0.50593826935E+01  0.30920854306E+02  0.00000000000E+00 0. -1.
         11    1    3    3    0    0  0.45162173220E+02  0.22732646280E+02  0.16352067198E+03  0.17115900578E+03  0.00000000000E+00 0.  1.
         -2    1    1    2    0  502  0.19737522458E+02 -0.37185936867E+01  0.26923597840E+02  0.33589847461E+02  0.00000000000E+00 0.  1.
<scales pt_clust_5="13000.00000" pt_clust_6="13000.00000" pt_clust_7="13000.00000" pt_clust_8="13000.00000" pt_clust_9="20.08477"></scales>
<clustering>
<clus scale="   20.085">  2  9  1 -1</clus>
<clus scale="   80.468">  5  6 -1 -1</clus>
<clus scale="   99.994">  7  8 -1 -1</clus>
<clus scale="  114.593">  2  5  1 -1</clus>
<clus scale="   20.085">  2  5  1 -1</clus>
</clustering>
</event>
<event>
 9    2  0.6469128E-005  0.1625984E+03  0.7546771E-02  0.1206832E+00
          2   -1    0    0  502    0 -0.00000000000E+00  0.00000000000E+00  0.27158257535E+03  0.27158257535E+03  0.00000000000E+00 0. -1.
         21   -1    0    0  501  502  0.00000000000E+00 -0.00000000000E+00 -0.21944355555E+03  0.21944355555E+03  0.00000000000E+00 0.  1.
         24    2    1    2    0    0  0.38662065216E+02  0.54731899001E+02  0.13296955496E+03  0.16798841737E+03  0.77774480204E+02 0.  0.
         23    2    1    2    0    0 -0.19912803803E+02 -0.16714444113E+03 -0.92495885839E+02  0.20847683523E+03  0.81076001222E+02 0.  0.
        -11    1    3    3    0    0  0.53567601958E+02  0.31483649336E+02  0.47624975895E+02  0.78286949641E+02  0.00000000000E+00 0.  1.
         12    1    3    3    0    0 -0.14905536743E+02  0.23248249665E+02  0.85344579061E+02  0.89701467731E+02  0.00000000000E+00 0. -1.
        -13    1    4    4    0    0 -0.38599806860E+02 -0.38350274659E+02 -0.42570456393E+02  0.69086412655E+02  0.00000000000E+00 0.  1.
         13    1    4    4    0    0  0.18687003057E+02 -0.12879416647E+03 -0.49925429447E+02  0.13939042257E+03  0.00000000000E+00 0. -1.
          1    1    1    2  501    0 -0.18749261413E+02  0.11241254213E+03  0.11665350690E+02  0.11456087830E+03  0.00000000000E+00 0. -1.
<scales pt_clust_5="13000.00000" pt_clust_6="13000.00000" pt_clust_7="13000.00000" pt_clust_8="13000.00000" pt_clust_9="140.94308"></scales>
<clustering>
<clus scale="   77.774">  5  6 -1 -1</clus>
<clus scale="   81.076">  7  8 -1 -1</clus>
<clus scale="  102.661">  1  5  2 -1</clus>
<clus scale="  140.943">  2  9  1 -1</clus>
<clus scale="  140.943">  2  5  1 -1</clus>
</clustering>
</event>
<event>
 9    2  0.6469128E-005  0.1059257E+03  0.7546771E-02  0.1271225E+00
          2   -1    0    0  502    0 -0.00000000000E+00  0.00000000000E+00  0.78242872850E+03  0.78242872850E+03  0.00000000000E+00 0. -1.
         21   -1    0    0  501  502  0.00000000000E+00 -0.00000000000E+00 -0.39051637342E+02  0.39051637342E+02  0.00000000000E+00 0.  1.
         23    2    1    2    0    0 -0.53588903534E+02 -0.14203770130E+02  0.28063232771E+03  0.30124830629E+03  0.94459097070E+02 0.  0.
         24    2    1    2    0    0  0.26356859156E+02 -0.82132266512E+02  0.14599125711E+03  0.18803482901E+03  0.81260424217E+02 0.  0.
        -13    1    4    4    0    0  0.39795897890E+02 -0.81165353182E+02  0.80096192311E+02  0.12077635559E+03  0.00000000000E+00 0.  1.
         14    1    4    4    0    0 -0.13439038733E+02 -0.96691333024E+00  0.65895064796E+02  0.67258473429E+02  0.00000000000E+00 0. -1.
        -13    1    3    3    0    0  0.10779231083E+02  0.28231138663E+02  0.10868144832E+03  0.11280446012E+03  0.00000000000E+00 0.  1.
         13    1    3    3    0    0 -0.64368134618E+02 -0.42434908793E+02  0.17195087939E+03  0.18844384617E+03  0.00000000000E+00 0. -1.
          1    1    1    2  501    0  0.27232044378E+02  0.96336036642E+02  0.31675350634E+03  0.33219723054E+03  0.00000000000E+00 0. -1.
<scales pt_clust_5="13000.00000" pt_clust_6="13000.00000" pt_clust_7="13000.00000" pt_clust_8="13000.00000" pt_clust_9="100.11107"></scales>
<clustering>
<clus scale="   81.260">  5  6 -1 -1</clus>
<clus scale="   94.459">  7  8 -1 -1</clus>
<clus scale="  100.111">  2  9  1 -1</clus>
<clus scale="  100.111">  2  5  1 -1</clus>
<clus scale="  100.111">  2  5  1 -1</clus>
</clustering>
</event>
<event>
 9    2  0.6469128E-005  0.1523101E+03  0.7546771E-02  0.1199622E+00
         -1   -1    0    0    0  501 -0.00000000000E+00  0.00000000000E+00  0.27159274953E+03  0.27159274953E+03  0.00000000000E+00 0.  1.
         21   -1    0    0  501  502  0.00000000000E+00 -0.00000000000E+00 -0.38977839456E+03  0.38977839456E+03  0.00000000000E+00 0.  1.
         24    2    1    2    0    0 -0.86234187303E+02 -0.77140737365E+02  0.19550818278E+03  0.24114348644E+03  0.80868430770E+02 0.  0.
         23    2    1    2    0    0  0.11752477081E+03  0.12533946546E+03 -0.14746192928E+03  0.24434342842E+03  0.91851168017E+02 0.  0.
        -13    1    3    3    0    0 -0.52975403042E+02 -0.53685721583E+01  0.12218851888E+03  0.13328634229E+03  0.00000000000E+00 0.  1.
         14    1    3    3    0    0 -0.33258784261E+02 -0.71772165207E+02  0.73319663898E+02  0.10785714415E+03  0.00000000000E+00 0. -1.
        -11    1    4    4    0    0  0.58647685432E+02  0.11700106353E+03 -0.75875718774E+02  0.15128094583E+03  0.00000000000E+00 0.  1.
         11    1    4    4    0    0  0.58877085381E+02  0.83384019371E+01 -0.71586210508E+02  0.93062482584E+02  0.00000000000E+00 0. -1.
         -2    1    1    2    0  502 -0.31290583509E+02 -0.48198728099E+02 -0.16623189853E+03  0.17588422924E+03  0.00000000000E+00 0.  1.
<scales pt_clust_5="13000.00000" pt_clust_6="13000.00000" pt_clust_7="13000.00000" pt_clust_8="13000.00000" pt_clust_9="57.46493"></scales>
<clustering>
<clus scale="   57.465">  2  9  1 -1</clus>
<clus scale="   80.868">  5  6 -1 -1</clus>
<clus scale="   91.851">  7  8 -1 -1</clus>
<clus scale="  145.950">  1  5  2 -1</clus>
<clus scale="   57.465">  2  5  1 -1</clus>
</clustering>
</event>
<event>
 9    2  0.6469128E-005  0.1515921E+03  0.7546771E-02  0.1200079E+00
         21   -1    0    0  501  502  0.00000000000E+00  0.00000000000E+00  0.15651125386E+03  0.15651125386E+03  0.00000000000E+00 0. -1.
          2   -1    0    0  502    0 -0.00000000000E+00 -0.00000000000E+00 -0.45629703851E+03  0.45629703851E+03  0.00000000000E+00 0. -1.
         24    2    1    2    0    0 -0.11957863852E+03 -0.34530368982E+02 -0.37999836239E+03  0.40788167732E+03  0.80481737714E+02 0.  0.
         23    2    1    2    0    0  0.97332409747E+02  0.34123520914E+02  0.10460181805E+03  0.17191305324E+03  0.89300307210E+02 0.  0.
        -13    1    3    3    0    0 -0.36014064822E+02  0.22824895573E+02 -0.72479468930E+02  0.84090796995E+02  0.00000000000E+00 0.  1.
         14    1    3    3    0    0 -0.83564573694E+02 -0.57355264554E+02 -0.30751889346E+03  0.32379088033E+03  0.00000000000E+00 0. -1.
        -13    1    4    4    0    0  0.43539266464E+02 -0.10029585442E+02  0.90467532321E+02  0.10089913138E+03  0.00000000000E+00 0. -1.
         13    1    4    4    0    0  0.53793143283E+02  0.44153106356E+02  0.14134285729E+02  0.71013921862E+02  0.00000000000E+00 0.  1.
          1    1    1    2  501    0  0.22246228768E+02  0.40684806821E+00 -0.24389240314E+02  0.33013561802E+02  0.00000000000E+00 0. -1.
<scales pt_clust_5="13000.00000" pt_clust_6="13000.00000" pt_clust_7="13000.00000" pt_clust_8="13000.00000" pt_clust_9="22.24996"></scales>
<clustering>
<clus scale="   22.250">  1  9  2 -1</clus>
<clus scale="   80.482">  5  6 -1 -1</clus>
<clus scale="   89.300">  7  8 -1 -1</clus>
<clus scale="  146.571">  2  5  1 -1</clus>
<clus scale="   22.250">  1  5  2 -1</clus>
</clustering>
</event>
<event>
 9    2  0.6469128E-005  0.1109086E+03  0.7546771E-02  0.1265113E+00
         21   -1    0    0  501  502  0.00000000000E+00  0.00000000000E+00  0.21509125018E+02  0.21509125018E+02  0.00000000000E+00 0.  1.
          2   -1    0    0  502    0 -0.00000000000E+00 -0.00000000000E+00 -0.82519318813E+03  0.82519318813E+03  0.00000000000E+00 0. -1.
         24    2    1    2    0    0 -0.55525268273E+02 -0.23152941736E+02 -0.36774591885E+03  0.38082035241E+03  0.78536398257E+02 0.  0.
         23    2    1    2    0    0  0.37776015128E+02  0.49069688309E+02 -0.40995099995E+03  0.42511376959E+03  0.93952291631E+02 0.  0.
        -11    1    3    3    0    0 -0.28195309066E+02  0.15449540076E+02 -0.49141778573E+02  0.58724595726E+02  0.00000000000E+00 0.  1.
         12    1    3    3    0    0 -0.27329959207E+02 -0.38602481812E+02 -0.31860414028E+03  0.32209575669E+03  0.00000000000E+00 0. -1.
        -13    1    4    4    0    0  0.56985256162E+02  0.65632714666E+02 -0.30520500676E+03  0.31734061953E+03  0.00000000000E+00 0.  1.
         13    1    4    4    0    0 -0.19209241034E+02 -0.16563026357E+02 -0.10474599319E+03  0.10777315006E+03  0.00000000000E+00 0. -1.
          1    1    1    2  501    0  0.17749253145E+02 -0.25916746573E+02 -0.25987144308E+02  0.40768191147E+02  0.00000000000E+00 0. -1.
<scales pt_clust_5="13000.00000" pt_clust_6="13000.00000" pt_clust_7="13000.00000" pt_clust_8="13000.00000" pt_clust_9="31.41200"></scales>
<clustering>
<clus scale="   31.412">  1  9  2 -1</clus>
<clus scale="   78.536">  5  6 -1 -1</clus>
<clus scale="   93.952">  7  8 -1 -1</clus>
<clus scale="   98.192">  2  5  1 -1</clus>
<clus scale="   31.412">  1  5  2 -1</clus>
</clustering>
</event>
<event>
 9    2  0.6469128E-005  0.3294898E+03  0.7546771E-02  0.1122229E+00
         21   -1    0    0  501  502  0.00000000000E+00  0.00000000000E+00  0.12577037357E+03  0.12577037357E+03  0.00000000000E+00 0. -1.
          2   -1    0    0  502    0 -0.00000000000E+00 -0.00000000000E+00 -0.12686624540E+04  0.12686624540E+04  0.00000000000E+00 0. -1.
         24    2    1    2    0    0 -0.36910578639E+01  0.31773004997E+02 -0.18637907557E+03  0.20580302899E+03  0.81207014333E+02 0.  0.
         23    2    1    2    0    0 -0.30509067561E+03 -0.95610173235E+02 -0.72409871015E+03  0.79691849242E+03  0.92404090498E+02 0.  0.
        -11    1    3    3    0    0  0.32062787269E+02  0.12692801952E+02 -0.35161145659E+02  0.49248712805E+02  0.00000000000E+00 0.  1.
         12    1    3    3    0    0 -0.35753845133E+02  0.19080203045E+02 -0.15121792991E+03  0.15655431619E+03  0.00000000000E+00 0. -1.
        -13    1    4    4    0    0 -0.28565986742E+02  0.17728828639E+02 -0.62998662977E+02  0.71408392366E+02  0.00000000000E+00 0.  1.
         13    1    4    4    0    0 -0.27652468887E+03 -0.11333900187E+03 -0.66110004718E+03  0.72551010005E+03  0.00000000000E+00 0. -1.
          1    1    1    2  501    0  0.30878173348E+03  0.63837168238E+02 -0.23241429468E+03  0.39171130613E+03  0.00000000000E+00 0. -1.
<scales pt_clust_5="13000.00000" pt_clust_6="13000.00000" pt_clust_7="13000.00000" pt_clust_8="13000.00000" pt_clust_9="316.26730"></scales>
<clustering>
<clus scale="   81.207">  5  6 -1 -1</clus>
<clus scale="   87.280">  2  5  1 -1</clus>
<clus scale="   92.404">  7  8 -1 -1</clus>
<clus scale="  316.267">  1  9  2 -1</clus>
<clus scale="  316.267">  1  5  2 -1</clus>
</clustering>
</event>
<event>
 9    2  0.6469128E-005  0.1020793E+03  0.7546771E-02  0.1281002E+00
          2   -1    0    0  502    0 -0.00000000000E+00  0.00000000000E+00  0.33260855145E+03  0.33260855145E+03  0.00000000000E+00 0. -1.
         21   -1    0    0  501  502  0.00000000000E+00 -0.00000000000E+00 -0.70213315254E+02  0.70213315254E+02  0.00000000000E+00 0. -1.
         24    2    1    2    0    0 -0.25655375922E+02 -0.58134241152E+02  0.20099879501E+03  0.22556916998E+03  0.80269212909E+02 0.  0.
         23    2    1    2    0    0  0.29854514115E+02 -0.61747683428E+01  0.59414296104E+02  0.11277626411E+03  0.90879081138E+02 0.  0.
        -13    1    3    3    0    0 -0.32579220198E+02 -0.58610385787E+02  0.80065547094E+02  0.10443694146E+03  0.00000000000E+00 0.  1.
         14    1    3    3    0    0  0.69238442760E+01  0.47614463487E+00  0.12093324792E+03  0.12113222852E+03  0.00000000000E+00 0. -1.
        -13    1    4    4    0    0 -0.28302631220E+02 -0.65791597708E+01  0.43793254909E+02  0.52556383559E+02  0.00000000000E+00 0.  1.
         13    1    4    4    0    0  0.58157145335E+02  0.40439142798E+00  0.15621041195E+02  0.60219880554E+02  0.00000000000E+00 0. -1.
          1    1    1    2  501    0 -0.41991381931E+01  0.64309009495E+02  0.19821450845E+01  0.64476432617E+02  0.00000000000E+00 0. -1.
<scales pt_clust_5="13000.00000" pt_clust_6="13000.00000" pt_clust_7="13000.00000" pt_clust_8="13000.00000" pt_clust_9="64.44596"></scales>
<clustering>
<clus scale="   64.446">  2  9  1 -1</clus>
<clus scale="   80.269">  5  6 -1 -1</clus>
<clus scale="   90.879">  7  8 -1 -1</clus>
<clus scale="   92.760">  1  5  2 -1</clus>
<clus scale="   64.446">  2  5  1 -1</clus>
</clustering>
</event>
<event>
 9    2  0.6469128E-005  0.9793056E+02  0.7546771E-02  0.1290030E+00
          2   -1    0    0  502    0 -0.00000000000E+00  0.00000000000E+00  0.46306799466E+03  0.46306799466E+03  0.00000000000E+00 0. -1.
         21   -1    0    0  501  502  0.00000000000E+00 -0.00000000000E+00 -0.55864737414E+02  0.55864737414E+02  0.00000000000E+00 0.  1.
         23    2    1    2    0    0 -0.93411244086E+01  0.22458604085E+02  0.94700822290E+02  0.13296768704E+03  0.90113897665E+02 0.  0.
         24    2    1    2    0    0  0.79118983058E+02  0.70904386995E+00  0.69721381728E+02  0.13229532024E+03  0.79879061487E+02 0.  0.
        -11    1    4    4    0    0  0.17140685746E+02  0.16580224595E+02 -0.13437944548E+02  0.27373076355E+02  0.00000000000E+00 0.  1.
         12    1    4    4    0    0  0.61978297312E+02 -0.15871180725E+02  0.83159326276E+02  0.10492224389E+03  0.00000000000E+00 0. -1.
        -13    1    3    3    0    0  0.10890426841E+02 -0.19416382210E+02  0.81699581117E+02  0.84678325737E+02  0.00000000000E+00 0.  1.
         13    1    3    3    0    0 -0.20231551250E+02  0.41874986296E+02  0.13001241173E+02  0.48289361305E+02  0.00000000000E+00 0. -1.
          1    1    1    2  501    0 -0.69777858649E+02 -0.23167647955E+02  0.24278105323E+03  0.25366972479E+03  0.00000000000E+00 0. -1.
<scales pt_clust_5="13000.00000" pt_clust_6="13000.00000" pt_clust_7="13000.00000" pt_clust_8="13000.00000" pt_clust_9="73.52343"></scales>
<clustering>
<clus scale="   73.523">  2  9  1 -1</clus>
<clus scale="   79.879">  5  6 -1 -1</clus>
<clus scale="   88.603">  2  5  1 -1</clus>
<clus scale="   90.114">  7  8 -1 -1</clus>
<clus scale="   73.523">  2  5  1 -1</clus>
</clustering>
</event>
<event>
 9    2  0.6469128E-005  0.1115931E+03  0.7546771E-02  0.1261904E+00
          2   -1    0    0  502    0 -0.00000000000E+00  0.00000000000E+00  0.67658876869E+03  0.67658876869E+03  0.00000000000E+00 0. -1.
         21   -1    0    0  501  502  0.00000000000E+00 -0.00000000000E+00 -0.32409584839E+02  0.32409584839E+02  0.00000000000E+00 0. -1.
         23    2    1    2    0    0 -0.45108582697E+02  0.62706361890E+02  0.43349742433E+03  0.44977822338E+03  0.91725466891E+02 0.  0.
         24    2    1    2    0    0  0.49666743604E+02 -0.11903897301E+02  0.16573612621E+03  0.19123647628E+03  0.80588076895E+02 0.  0.
        -11    1    4    4    0    0  0.13875680072E+01 -0.37765081480E+02  0.91384849252E+02  0.98890431271E+02  0.00000000000E+00 0.  1.
         12    1    4    4    0    0  0.48279175596E+02  0.25861184179E+02  0.74351276955E+02  0.92346045006E+02  0.00000000000E+00 0. -1.
        -11    1    3    3    0    0 -0.21825282442E+02 -0.10027022039E+02  0.26863864839E+02  0.36035418115E+02  0.00000000000E+00 0.  1.
         11    1    3    3    0    0 -0.23283300255E+02  0.72733383928E+02  0.40663355949E+03  0.41374280527E+03  0.00000000000E+00 0. -1.
          1    1    1    2  501    0 -0.45581609070E+01 -0.50802464589E+02  0.44945633313E+02  0.67983653867E+02  0.00000000000E+00 0. -1.
<scales pt_clust_5="13000.00000" pt_clust_6="13000.00000" pt_clust_7="13000.00000" pt_clust_8="13000.00000" pt_clust_9="51.00654"></scales>
<clustering>
<clus scale="   51.007">  2  9  1 -1</clus>
<clus scale="   80.588">  5  6 -1 -1</clus>
<clus scale="   91.725">  7  8 -1 -1</clus>
<clus scale="  102.635">  2  5  1 -1</clus>
<clus scale="   51.007">  2  5  1 -1</clus>
</clustering>
</event>
<event>
 9    2  0.6469128E-005  0.1048292E+03  0.7546771E-02  0.1275176E+00
          2   -1    0    0  502    0 -0.00000000000E+00  0.00000000000E+00  0.48362193334E+03  0.48362193334E+03  0.00000000000E+00 0. -1.
         21   -1    0    0  501  502  0.00000000000E+00 -0.00000000000E+00 -0.27915227252E+02  0.27915227252E+02  0.00000000000E+00 0.  1.
         23    2    1    2    0    0 -0.19263896942E+00  0.53905816609E+02  0.27081766771E+03  0.29092314929E+03  0.91587092289E+02 0.  0.
         24    2    1    2    0    0 -0.19200688760E+02 -0.45834318286E+02  0.17035506442E+03  0.19507019317E+03  0.81006673237E+02 0.  0.
        -13    1    4    4    0    0 -0.49749972357E+02 -0.20955891909E+02  0.80124789907E+02  0.96613617637E+02  0.00000000000E+00 0.  1.
         14    1    4    4    0    0  0.30549283598E+02 -0.24878426377E+02  0.90230274515E+02  0.98456575536E+02  0.00000000000E+00 0. -1.
        -13    1    3    3    0    0  0.30925120973E+02  0.28345287877E+02  0.44912868523E+02  0.61457173796E+02  0.00000000000E+00 0.  1.
         13    1    3    3    0    0 -0.31117759942E+02  0.25560528732E+02  0.22590479919E+03  0.22946597549E+03  0.00000000000E+00 0. -1.
          1    1    1    2  501    0  0.19393327729E+02 -0.80714983228E+01  0.14533973950E+02  0.25543818124E+02  0.00000000000E+00 0. -1.
<scales pt_clust_5="13000.00000" pt_clust_6="13000.00000" pt_clust_7="13000.00000" pt_clust_8="13000.00000" pt_clust_9="21.00596"></scales>
<clustering>
<clus scale="   21.006">  2  9  1 -1</clus>
<clus scale="   81.007">  5  6 -1 -1</clus>
<clus scale="   91.587">  7  8 -1 -1</clus>
<clus scale="   95.724">  2  5  1 -1</clus>
<clus scale="   21.006">  2  5  1 -1</clus>
</clustering>
</event>
<event>
 9    2  0.6469128E-005  0.1136077E+03  0.7546771E-02  0.1256358E+00
          2   -1    0    0  502    0 -0.00000000000E+00  0.00000000000E+00  0.32991409960E+03  0.32991409960E+03  0.00000000000E+00 0. -1.
         21   -1    0    0  501  502  0.00000000000E+00 -0.00000000000E+00 -0.69526533862E+02  0.69526533862E+02  0.00000000000E+00 0. -1.
         23    2    1    2    0    0  0.75033057743E+02 -0.50463556606E+02  0.94445959049E+02  0.15934783925E+03  0.91077793086E+02 0.  0.
         24    2    1    2    0    0 -0.41042674578E+02  0.19213001894E+02  0.36538356595E+02  0.10269867333E+03  0.84606887563E+02 0.  0.
        -13    1    4    4    0    0  0.62507161866E+01  0.42440044412E+02  0.21023968825E+02  0.47772754659E+02  0.00000000000E+00 0.  1.
         14    1    4    4    0    0 -0.47293390765E+02 -0.23227042518E+02  0.15514387770E+02  0.54925918673E+02  0.00000000000E+00 0. -1.
        -11    1    3    3    0    0  0.95135705014E+02 -0.47081935562E+02  0.88250014358E+02  0.13804193587E+03  0.00000000000E+00 0. -1.
         11    1    3    3    0    0 -0.20102647271E+02 -0.33816210440E+01  0.61959446903E+01  0.21305903379E+02  0.00000000000E+00 0.  1.
          1    1    1    2  501    0 -0.33990383165E+02  0.31250554712E+02  0.12940325010E+03  0.13739412088E+03  0.00000000000E+00 0. -1.
<scales pt_clust_5="13000.00000" pt_clust_6="13000.00000" pt_clust_7="13000.00000" pt_clust_8="13000.00000" pt_clust_9="46.17299"></scales>
<clustering>
<clus scale="   46.173">  2  9  1 -1</clus>
<clus scale="   84.607">  5  6 -1 -1</clus>
<clus scale="   91.078">  7  8 -1 -1</clus>
<clus scale="  108.489">  2  5  1 -1</clus>
<clus scale="   46.173">  2  5  1 -1</clus>
</clustering>
</event>
<event>
 9    2  0.6469128E-005  0.1166097E+03  0.7546771E-02  0.1257505E+00
         21   -1    0    0  501  502  0.00000000000E+00  0.00000000000E+00  0.90131888531E+02  0.90131888531E+02  0.00000000000E+00 0.  1.
          2   -1    0    0  502    0 -0.00000000000E+00 -0.00000000000E+00 -0.36108995904E+03  0.36108995904E+03  0.00000000000E+00 0. -1.
         24    2    1    2    0    0 -0.12321365088E+02  0.72643550861E+02 -0.24351640855E+03  0.26674981331E+03  0.80164332130E+02 0.  0.
         23    2    1    2    0    0  0.90709151062E+01 -0.85761763320E+01 -0.52746578787E+02  0.11551166361E+03  0.10200446341E+03 0.  0.
        -11    1    3    3    0    0 -0.12327146998E+02  0.65273621003E+02 -0.24890721986E+03  0.25761872651E+03  0.00000000000E+00 0.  1.
         12    1    3    3    0    0  0.57819105144E-02  0.73699298586E+01  0.53908113053E+01  0.91310867963E+01  0.00000000000E+00 0. -1.
        -13    1    4    4    0    0  0.30575022750E+02  0.38679965639E+02 -0.15748971789E+02  0.51759075247E+02  0.00000000000E+00 0.  1.
         13    1    4    4    0    0 -0.21504107644E+02 -0.47256141971E+02 -0.36997606998E+02  0.63752588364E+02  0.00000000000E+00 0. -1.
          1    1    1    2  501    0  0.32504499814E+01 -0.64067374529E+02  0.25304916834E+02  0.68960370650E+02  0.00000000000E+00 0. -1.
<scales pt_clust_5="13000.00000" pt_clust_6="13000.00000" pt_clust_7="13000.00000" pt_clust_8="13000.00000" pt_clust_9="64.14978"></scales>
<clustering>
<clus scale="   64.150">  1  9  2 -1</clus>
<clus scale="   80.164">  5  6 -1 -1</clus>
<clus scale="   98.078">  2  5  1 -1</clus>
<clus scale="  102.004">  7  8 -1 -1</clus>
<clus scale="   64.150">  1  5  2 -1</clus>
</clustering>
</event>
<event>
 9    2  0.6469128E-005  0.1659822E+03  0.7546771E-02  0.1194225E+00
         21   -1    0    0  501  502  0.00000000000E+00  0.00000000000E+00  0.17445469766E+03  0.17445469766E+03  0.00000000000E+00 0. -1.
          2   -1    0    0  502    0 -0.00000000000E+00 -0.00000000000E+00 -0.60592144997E+03  0.60592144997E+03  0.00000000000E+00 0. -1.
         24    2    1    2    0    0  0.21759766701E+01  0.97704494557E+02 -0.63944299535E+02  0.14207966165E+03  0.80912629911E+02 0.  0.
         23    2    1    2    0    0  0.12689722743E+03 -0.35292169333E+02 -0.44690415533E+03  0.47441651449E+03  0.89438591371E+02 0.  0.
        -11    1    3    3    0    0  0.40487408454E+02  0.50546063629E+02 -0.22618485591E+02  0.68598328567E+02  0.00000000000E+00 0.  1.
         12    1    3    3    0    0 -0.38311431784E+02  0.47158430928E+02 -0.41325813944E+02  0.73481333079E+02  0.00000000000E+00 0. -1.
        -13    1    4    4    0    0  0.11096483635E+03 -0.47647741349E+01 -0.40614883938E+03  0.42106148923E+03  0.00000000000E+00 0. -1.
         13    1    4    4    0    0  0.15932391075E+02 -0.30527395198E+02 -0.40755315948E+02  0.53355025264E+02  0.00000000000E+00 0.  1.
          1    1    1    2  501    0 -0.12907320410E+03 -0.62412325225E+02  0.79381702554E+02  0.16387997149E+03  0.00000000000E+00 0. -1.
<scales pt_clust_5="13000.00000" pt_clust_6="13000.00000" pt_clust_7="13000.00000" pt_clust_8="13000.00000" pt_clust_9="139.82430"></scales>
<clustering>
<clus scale="   80.913">  5  6 -1 -1</clus>
<clus scale="   89.439">  7  8 -1 -1</clus>
<clus scale="  126.877">  2  5  1 -1</clus>
<clus scale="  139.824">  1  9  2 -1</clus>
<clus scale="  139.824">  1  5  2 -1</clus>
</clustering>
</event>
<event>
 9    2  0.6469128E-005  0.1308130E+03  0.7546771E-02  0.1228570E+00
         -3   -1    0    0    0  501 -0.00000000000E+00  0.00000000000E+00  0.38541667423E+03  0.38541667423E+03  0.00000000000E+00 0.  1.
         21   -1    0    0  501  502  0.00000000000E+00 -0.00000000000E+00 -0.12984627009E+03  0.12984627009E+03  0.00000000000E+00 0.  1.
         23    2    1    2    0    0  0.36633285453E+02 -0.94506221192E+02  0.22078896665E+03  0.25943850993E+03  0.91033780499E+02 0.  0.
         24    2    1    2    0    0 -0.50928532716E+02  0.69564869133E+02  0.11813235126E+03  0.16765527899E+03  0.81975933632E+02 0.  0.
        -11    1    4    4    0    0 -0.22127440857E+02  0.23772130941E+02  0.10779297918E+03  0.11257914642E+03  0.00000000000E+00 0.  1.
         12    1    4    4    0    0 -0.28801091859E+02  0.45792738191E+02  0.10339372084E+02  0.55076132566E+02  0.00000000000E+00 0. -1.
        -13    1    3    3    0    0  0.32887334616E+02 -0.46891618146E+02  0.33926767630E+02  0.66568958174E+02  0.00000000000E+00 0. -1.
         13    1    3    3    0    0  0.37459508369E+01 -0.47614603046E+02  0.18686219902E+03  0.19286955176E+03  0.00000000000E+00 0.  1.
         -4    1    1    2    0  502  0.14295247263E+02  0.24941352060E+02 -0.83350913779E+02  0.88169155404E+02  0.00000000000E+00 0.  1.
<scales pt_clust_5="13000.00000" pt_clust_6="13000.00000" pt_clust_7="13000.00000" pt_clust_8="13000.00000" pt_clust_9="28.74761"></scales>
<clustering>
<clus scale="   28.748">  2  9  1 -1</clus>
<clus scale="   81.976">  5  6 -1 -1</clus>
<clus scale="   91.034">  7  8 -1 -1</clus>
<clus scale="  124.679">  2  5  1 -1</clus>
<clus scale="   28.748">  2  5  1 -1</clus>
</clustering>
</event>
<event>
 9    2  0.6469128E-005  0.9479619E+02  0.7546771E-02  0.1299465E+00
         21   -1    0    0  501  502  0.00000000000E+00  0.00000000000E+00  0.42538655313E+02  0.42538655313E+02  0.00000000000E+00 0. -1.
          2   -1    0    0  502    0 -0.00000000000E+00 -0.00000000000E+00 -0.48013453581E+03  0.48013453581E+03  0.00000000000E+00 0. -1.
         24    2    1    2    0    0 -0.17133177778E+02  0.28575243647E+02 -0.28374335865E+03  0.29627573583E+03  0.78478836178E+02 0.  0.
         23    2    1    2    0    0 -0.17003527669E+02 -0.11561321799E+02 -0.16206024988E+03  0.18738265048E+03  0.91792968121E+02 0.  0.
        -11    1    3    3    0    0 -0.50514556785E+01  0.27504360923E+02 -0.25801844598E+02  0.38049208387E+02  0.00000000000E+00 0.  1.
         12    1    3    3    0    0 -0.12081722099E+02  0.10708827239E+01 -0.25794151406E+03  0.25822652744E+03  0.00000000000E+00 0. -1.
        -13    1    4    4    0    0  0.15926383499E+02  0.33473778439E+02 -0.79779363036E+02  0.87970962827E+02  0.00000000000E+00 0.  1.
         13    1    4    4    0    0 -0.32929911169E+02 -0.45035100237E+02 -0.82280886839E+02  0.99411687653E+02  0.00000000000E+00 0. -1.
          1    1    1    2  501    0  0.34136705447E+02 -0.17013921848E+02  0.82077280330E+01  0.39014804817E+02  0.00000000000E+00 0. -1.
<scales pt_clust_5="13000.00000" pt_clust_6="13000.00000" pt_clust_7="13000.00000" pt_clust_8="13000.00000" pt_clust_9="38.14169"></scales>
<clustering>
<clus scale="   38.142">  1  9  2 -1</clus>
<clus scale="   78.479">  5  6 -1 -1</clus>
<clus scale="   81.971">  2  5  1 -1</clus>
<clus scale="   91.793">  7  8 -1 -1</clus>
<clus scale="   38.142">  1  5  2 -1</clus>
</clustering>
</event>
<event>
 9    2  0.6469128E-005  0.3007469E+03  0.7546771E-02  0.1098945E+00
          2   -1    0    0  502    0 -0.00000000000E+00  0.00000000000E+00  0.17162047505E+04  0.17162047505E+04  0.00000000000E+00 0. -1.
         21   -1    0    0  501  502  0.00000000000E+00 -0.00000000000E+00 -0.15084065512E+03  0.15084065512E+03  0.00000000000E+00 0. -1.
         24    2    1    2    0    0 -0.17263140889E+03 -0.83646232955E+02  0.11682084698E+03  0.23818225332E+03  0.79280387754E+02 0.  0.
         23    2    1    2    0    0  0.21053767209E+03 -0.21084808877E+03  0.26545135747E+03  0.40908029757E+03  0.89995770842E+02 0.  0.
        -11    1    3    3    0    0 -0.10325595533E+03 -0.60640249913E+02  0.27672689763E+02  0.12290162725E+03  0.00000000000E+00 0.  1.
         12    1    3    3    0    0 -0.69375453560E+02 -0.23005983042E+02  0.89148157212E+02  0.11528062607E+03  0.00000000000E+00 0. -1.
        -13    1    4    4    0    0  0.94263615719E+02 -0.13600375196E+03  0.18850967346E+03  0.25083569679E+03  0.00000000000E+00 0. -1.
         13    1    4    4    0    0  0.11627405637E+03 -0.74844336812E+02  0.76941684004E+02  0.15824460078E+03  0.00000000000E+00 0.  1.
          1    1    1    2  501    0 -0.37906263195E+02  0.29449432172E+03  0.11830918909E+04  0.12197828547E+04  0.00000000000E+00 0. -1.
<scales pt_clust_5="13000.00000" pt_clust_6="13000.00000" pt_clust_7="13000.00000" pt_clust_8="13000.00000" pt_clust_9="286.96610"></scales>
<clustering>
<clus scale="   79.280">  5  6 -1 -1</clus>
<clus scale="   89.996">  7  8 -1 -1</clus>
<clus scale="  207.566">  1  5  2 -1</clus>
<clus scale="  286.966">  2  9  1 -1</clus>
<clus scale="  286.966">  2  5  1 -1</clus>
</clustering>
</event>
<event>
 9    2  0.6469128E-005  0.9316810E+02  0.7546771E-02  0.1297432E+00
         21   -1    0    0  501  502  0.00000000000E+00  0.00000000000E+00  0.35592449181E+03  0.35592449181E+03  0.00000000000E+00 0.  1.
          2   -1    0    0  502    0 -0.00000000000E+00 -0.00000000000E+00 -0.42042469285E+02  0.42042469285E+02  0.00000000000E+00 0. -1.
         24    2    1    2    0    0  0.18576778275E+02 -0.14587331037E+02  0.43401572433E+02  0.10301336285E+03  0.90388990028E+02 0.  0.
         23    2    1    2    0    0 -0.27900407364E+02 -0.96102503679E+01  0.21477785353E+03  0.23351067946E+03  0.86757831985E+02 0.  0.
        -13    1    3    3    0    0  0.20006543708E+02 -0.46270348060E+02  0.14612791456E+01  0.50431559935E+02  0.00000000000E+00 0.  1.
         14    1    3    3    0    0 -0.14297654324E+01  0.31683017023E+02  0.41940293288E+02  0.52581802916E+02  0.00000000000E+00 0. -1.
        -11    1    4    4    0    0 -0.47022525449E+02 -0.35732357624E+02  0.13108171773E+03  0.14377181923E+03  0.00000000000E+00 0.  1.
         11    1    4    4    0    0  0.19122118085E+02  0.26122107256E+02  0.83696135804E+02  0.89738860234E+02  0.00000000000E+00 0. -1.
          1    1    1    2  501    0  0.93236290882E+01  0.24197581404E+02  0.55702596558E+02  0.61442918783E+02  0.00000000000E+00 0. -1.
<scales pt_clust_5="13000.00000" pt_clust_6="13000.00000" pt_clust_7="13000.00000" pt_clust_8="13000.00000" pt_clust_9="25.93170"></scales>
<clustering>
<clus scale="   25.932">  1  9  2 -1</clus>
<clus scale="   86.758">  7  8 -1 -1</clus>
<clus scale="   89.650">  1  7  2 -1</clus>
<clus scale="   90.389">  5  6 -1 -1</clus>
<clus scale="   25.932">  1  5  2 -1</clus>
</clustering>
</event>
<event>
 9    2  0.6469128E-005  0.9623541E+02  0.7546771E-02  0.1291160E+00
          2   -1    0    0  502    0 -0.00000000000E+00  0.00000000000E+00  0.15625620075E+03  0.15625620075E+03  0.00000000000E+00 0. -1.
         21   -1    0    0  501  502  0.00000000000E+00 -0.00000000000E+00 -0.89009226000E+02  0.89009226000E+02  0.00000000000E+00 0.  1.
         24    2    1    2    0    0  0.26879212734E+02 -0.31488781007E+02  0.83728091796E+02  0.12529073579E+03  0.83506524963E+02 0.  0.
         23    2    1    2    0    0 -0.24191841604E+02  0.11175783547E+02 -0.27558979815E+02  0.96681797779E+02  0.88756573364E+02 0.  0.
        -11    1    3    3    0    0 -0.15414011167E+02  0.18612985513E+02  0.39141374377E+02  0.46000893015E+02  0.00000000000E+00 0.  1.
         12    1    3    3    0    0  0.42293223902E+02 -0.50101766520E+02  0.44586717419E+02  0.79289842771E+02  0.00000000000E+00 0. -1.
        -13    1    4    4    0    0 -0.24565810933E+02  0.43123110199E+02 -0.38605413887E+02  0.62876543173E+02  0.00000000000E+00 0.  1.
         13    1    4    4    0    0  0.37396932826E+00 -0.31947326652E+02  0.11046434072E+02  0.33805254606E+02  0.00000000000E+00 0. -1.
          1    1    1    2  501    0 -0.26873711301E+01  0.20312997460E+02  0.11077862769E+02  0.23292893185E+02  0.00000000000E+00 0. -1.
<scales pt_clust_5="13000.00000" pt_clust_6="13000.00000" pt_clust_7="13000.00000" pt_clust_8="13000.00000" pt_clust_9="20.49000"></scales>
<clustering>
<clus scale="   20.490">  2  9  1 -1</clus>
<clus scale="   83.507">  5  6 -1 -1</clus>
<clus scale="   88.757">  7  8 -1 -1</clus>
<clus scale="   91.416">  1  5  2 -1</clus>
<clus scale="   20.490">  2  5  1 -1</clus>
</clustering>
</event>
<event>
 9    2  0.6469128E-005  0.1607707E+03  0.7546771E-02  0.1188894E+00
          2   -1    0    0  502    0 -0.00000000000E+00  0.00000000000E+00  0.18348281664E+04  0.18348281664E+04  0.00000000000E+00 0. -1.
         21   -1    0    0  501  502  0.00000000000E+00 -0.00000000000E+00 -0.24070503965E+02  0.24070503965E+02  0.00000000000E+00 0.  1.
         24    2    1    2    0    0  0.13030959278E+03  0.91972660260E+01  0.13071872801E+04  0.13162815882E+04  0.82422415965E+02 0.  0.
         23    2    1    2    0    0 -0.14464245268E+03  0.14793089007E+02  0.46212887474E+03  0.49263341919E+03  0.89354990012E+02 0.  0.
        -13    1    3    3    0    0  0.42648412870E+02  0.22587521305E+01  0.15599538843E+03  0.16173605131E+03  0.00000000000E+00 0.  1.
         14    1    3    3    0    0  0.87661179911E+02  0.69385138956E+01  0.11511918917E+04  0.11545455369E+04  0.00000000000E+00 0. -1.
        -13    1    4    4    0    0 -0.25503772052E+02 -0.29734875087E+02  0.16195806254E+03  0.16662838655E+03  0.00000000000E+00 0. -1.
         13    1    4    4    0    0 -0.11913868063E+03  0.44527964093E+02  0.30017081220E+03  0.32600503264E+03  0.00000000000E+00 0.  1.
          1    1    1    2  501    0  0.14332859900E+02 -0.23990355033E+02  0.41441507659E+02  0.49983662977E+02  0.00000000000E+00 0. -1.
<scales pt_clust_5="13000.00000" pt_clust_6="13000.00000" pt_clust_7="13000.00000" pt_clust_8="13000.00000" pt_clust_9="27.94580"></scales>
<clustering>
<clus scale="   27.946">  2  9  1 -1</clus>
<clus scale="   82.422">  5  6 -1 -1</clus>
<clus scale="   89.355">  7  8 -1 -1</clus>
<clus scale="  157.023">  1  5  2 -1</clus>
<clus scale="   27.946">  2  5  1 -1</clus>
</clustering>
</event>
<event>
 9    2  0.6469128E-005  0.9213749E+02  0.7546771E-02  0.1308730E+00
         21   -1    0    0  501  502  0.00000000000E+00  0.00000000000E+00  0.49597885576E+03  0.49597885576E+03  0.00000000000E+00 0.  1.
         -1   -1    0    0    0  501 -0.00000000000E+00 -0.00000000000E+00 -0.15925944144E+03  0.15925944144E+03  0.00000000000E+00 0.  1.
         24    2    1    2    0    0 -0.12051966850E+02  0.71396375745E+01 -0.13375106216E+03  0.15372091336E+03  0.74461723356E+02 0.  0.
         23    2    1    2    0    0 -0.31052271161E+02  0.10622540392E+02  0.15713818073E+03  0.18473575896E+03  0.91421063705E+02 0.  0.
        -13    1    3    3    0    0 -0.28929542144E+02 -0.22304541986E+02 -0.97227139188E+02  0.10386302324E+03  0.00000000000E+00 0.  1.
         14    1    3    3    0    0  0.16877575295E+02  0.29444179560E+02 -0.36523922976E+02  0.49857890121E+02  0.00000000000E+00 0. -1.
        -13    1    4    4    0    0 -0.33283026090E+02  0.47851203663E+02  0.79232332595E+02  0.98362899745E+02  0.00000000000E+00 0. -1.
         13    1    4    4    0    0  0.22307549290E+01 -0.37228663271E+02  0.77905848133E+02  0.86372859220E+02  0.00000000000E+00 0.  1.
         -2    1    1    2    0  502  0.43104238010E+02 -0.17762177967E+02  0.31333229575E+03  0.31678162488E+03  0.00000000000E+00 0.  1.
<scales pt_clust_5="13000.00000" pt_clust_6="13000.00000" pt_clust_7="13000.00000" pt_clust_8="13000.00000" pt_clust_9="46.62049"></scales>
<clustering>
<clus scale="   46.620">  1  9  2 -1</clus>
<clus scale="   74.462">  5  6 -1 -1</clus>
<clus scale="   75.340">  2  5  1 -1</clus>
<clus scale="   91.421">  7  8 -1 -1</clus>
<clus scale="   46.620">  1  5  2 -1</clus>
</clustering>
</event>
<event>
 9    2  0.6469128E-005  0.1372314E+03  0.7546771E-02  0.1217511E+00
         21   -1    0    0  501  502  0.00000000000E+00  0.00000000000E+00  0.23301042554E+03  0.23301042554E+03  0.00000000000E+00 0. -1.
          2   -1    0    0  502    0 -0.00000000000E+00 -0.00000000000E+00 -0.60825477978E+03  0.60825477978E+03  0.00000000000E+00 0. -1.
         23    2    1    2    0    0 -0.76900268283E+02  0.73070427395E+02 -0.43462767201E+03  0.45426068004E+03  0.78731274153E+02 0.  0.
         24    2    1    2    0    0  0.19938430555E+03 -0.80605585521E+02  0.10946004040E+03  0.25446473449E+03  0.80743042659E+02 0.  0.
        -13    1    4    4    0    0  0.65380052708E+02  0.12461126509E+02  0.30637510796E+02  0.73269966792E+02  0.00000000000E+00 0.  1.
         14    1    4    4    0    0  0.13400425284E+03 -0.93066712030E+02  0.78822529601E+02  0.18119476770E+03  0.00000000000E+00 0. -1.
        -13    1    3    3    0    0 -0.47401873470E+00  0.34715692997E+02 -0.54390534191E+02  0.64527003987E+02  0.00000000000E+00 0.  1.
         13    1    3    3    0    0 -0.76426249548E+02  0.38354734398E+02 -0.38023713782E+03  0.38973367605E+03  0.00000000000E+00 0. -1.
          1    1    1    2  501    0 -0.12248403727E+03  0.75351581256E+01 -0.50076722620E+02  0.13253979079E+03  0.00000000000E+00 0. -1.
<scales pt_clust_5="13000.00000" pt_clust_6="13000.00000" pt_clust_7="13000.00000" pt_clust_8="13000.00000" pt_clust_9="122.71560"></scales>
<clustering>
<clus scale="   78.731">  7  8 -1 -1</clus>
<clus scale="   80.743">  5  6 -1 -1</clus>
<clus scale="  122.716">  1  9  2 -1</clus>
<clus scale="  136.057">  2  7  1 -1</clus>
<clus scale="  122.716">  1  5  2 -1</clus>
</clustering>
</event>
<event>
 9    2  0.6469128E-005  0.1222723E+03  0.7546771E-02  0.1241492E+00
         21   -1    0    0  501  502  0.00000000000E+00  0.00000000000E+00  0.69106918356E+02  0.69106918356E+02  0.00000000000E+00 0. -1.
          2   -1    0    0  502    0 -0.00000000000E+00 -0.00000000000E+00 -0.34515303522E+03  0.34515303522E+03  0.00000000000E+00 0. -1.
         23    2    1    2    0    0  0.92879372001E+02 -0.24624419710E+01 -0.22283311243E+03  0.25782620451E+03  0.90482674443E+02 0.  0.
         24    2    1    2    0    0 -0.56587418995E+02 -0.15977624646E+02 -0.20334386742E+02  0.10410645780E+03  0.83470035301E+02 0.  0.
        -11    1    4    4    0    0 -0.57268832696E+02 -0.39323024965E+01 -0.47419002353E+02  0.74456322670E+02  0.00000000000E+00 0.  1.
         12    1    4    4    0    0  0.68141370086E+00 -0.12045322149E+02  0.27084615611E+02  0.29650135128E+02  0.00000000000E+00 0. -1.
        -11    1    3    3    0    0  0.25160044799E+02 -0.90845498905E+01 -0.20867695628E+01  0.26831166732E+02  0.00000000000E+00 0.  1.
         11    1    3    3    0    0  0.67719327202E+02  0.66221079195E+01 -0.22074634287E+03  0.23099503778E+03  0.00000000000E+00 0. -1.
          1    1    1    2  501    0 -0.36291953005E+02  0.18440066617E+02 -0.32878617688E+02  0.52327291262E+02  0.00000000000E+00 0. -1.
<scales pt_clust_5="13000.00000" pt_clust_6="13000.00000" pt_clust_7="13000.00000" pt_clust_8="13000.00000" pt_clust_9="40.70801"></scales>
<clustering>
<clus scale="   40.708">  1  9  2 -1</clus>
<clus scale="   83.470">  5  6 -1 -1</clus>
<clus scale="   90.483">  7  8 -1 -1</clus>
<clus scale="  117.178">  1  5  2 -1</clus>
<clus scale="   40.708">  1  5  2 -1</clus>
</clustering>
</event>
<event>
 9    2  0.6469128E-005  0.1122200E+03  0.7546771E-02  0.1262778E+00
          4   -1    0    0  502    0 -0.00000000000E+00  0.00000000000E+00  0.10190771052E+03  0.10190771052E+03  0.00000000000E+00 0. -1.
         21   -1    0    0  501  502  0.00000000000E+00 -0.00000000000E+00 -0.39787785559E+03  0.39787785559E+03  0.00000000000E+00 0.  1.
         24    2    1    2    0    0  0.29779026645E+02  0.46743071286E+02  0.49613354109E+02  0.10963542028E+03  0.80540271501E+02 0.  0.
         23    2    1    2    0    0 -0.14122200439E+02 -0.76808690983E+02 -0.16440735057E+03  0.20583011295E+03  0.96110597324E+02 0.  0.
        -11    1    3    3    0    0  0.85919856397E+01 -0.21469133823E+02  0.83066693375E+00  0.23139488584E+02  0.00000000000E+00 0.  1.
         12    1    3    3    0    0  0.21187041005E+02  0.68212205110E+02  0.48782687176E+02  0.86495931699E+02  0.00000000000E+00 0. -1.
        -11    1    4    4    0    0  0.40408002230E+02 -0.29838565388E+02 -0.84389956708E+02  0.98208000803E+02  0.00000000000E+00 0.  1.
         11    1    4    4    0    0 -0.54530202669E+02 -0.46970125595E+02 -0.80017393865E+02  0.10762211214E+03  0.00000000000E+00 0. -1.
          3    1    1    2  501    0 -0.15656826206E+02  0.30065619696E+02 -0.18117614861E+03  0.18432003287E+03  0.00000000000E+00 0. -1.
<scales pt_clust_5="13000.00000" pt_clust_6="13000.00000" pt_clust_7="13000.00000" pt_clust_8="13000.00000" pt_clust_9="33.89805"></scales>
<clustering>
<clus scale="   33.898">  2  9  1 -1</clus>
<clus scale="   80.540">  5  6 -1 -1</clus>
<clus scale="   96.111">  7  8 -1 -1</clus>
<clus scale="   99.211">  1  5  2 -1</clus>
<clus scale="   33.898">  2  5  1 -1</clus>
</clustering>
</event>
<event>
 9    2  0.6469128E-005  0.1886187E+03  0.7546771E-02  0.1193851E+00
         21   -1    0    0  501  502  0.00000000000E+00  0.00000000000E+00  0.54981414599E+02  0.54981414599E+02  0.00000000000E+00 0. -1.
          2   -1    0    0  502    0 -0.00000000000E+00 -0.00000000000E+00 -0.10257653466E+04  0.10257653466E+04  0.00000000000E+00 0. -1.
         24    2    1    2    0    0  0.61308301395E+00  0.39673712846E+02 -0.23351702221E+03  0.24925691848E+03  0.77617217077E+02 0.  0.
         23    2    1    2    0    0  0.15594028727E+03 -0.64359057975E+02 -0.22938539679E+03  0.29945417168E+03  0.92712885510E+02 0.  0.
        -11    1    3    3    0    0  0.12325828310E+02  0.48099860047E+02 -0.22872587443E+03  0.23405351570E+03  0.00000000000E+00 0.  1.
         12    1    3    3    0    0 -0.11712745296E+02 -0.84261472010E+01 -0.47911477868E+01  0.15203402782E+02  0.00000000000E+00 0. -1.
        -13    1    4    4    0    0  0.83663061304E+02 -0.57346469858E+02 -0.66971113707E+02  0.12154528170E+03  0.00000000000E+00 0.  1.
         13    1    4    4    0    0  0.72277225962E+02 -0.70125881166E+01 -0.16241428308E+03  0.17790888998E+03  0.00000000000E+00 0. -1.
          1    1    1    2  501    0 -0.15655337028E+03  0.24685345129E+02 -0.50788151297E+03  0.53203567101E+03  0.00000000000E+00 0. -1.
<scales pt_clust_5="13000.00000" pt_clust_6="13000.00000" pt_clust_7="13000.00000" pt_clust_8="13000.00000" pt_clust_9="164.25999"></scales>
<clustering>
<clus scale="   77.617">  5  6 -1 -1</clus>
<clus scale="   87.171">  2  5  1 -1</clus>
<clus scale="   92.713">  7  8 -1 -1</clus>
<clus scale="  164.260">  1  9  2 -1</clus>
<clus scale="  164.260">  1  5  2 -1</clus>
</clustering>
</event>
<event>
 9    2  0.6469128E-005  0.1038512E+03  0.7546771E-02  0.1280416E+00
         21   -1    0    0  501  502  0.00000000000E+00  0.00000000000E+00  0.24045889563E+02  0.24045889563E+02  0.00000000000E+00 0. -1.
          2   -1    0    0  502    0 -0.00000000000E+00 -0.00000000000E+00 -0.73919424047E+03  0.73919424047E+03  0.00000000000E+00 0. -1.
         23    2    1    2    0    0 -0.25249822816E+02 -0.19837630190E+02 -0.42661099522E+03  0.43854539406E+03  0.96405582237E+02 0.  0.
         24    2    1    2    0    0  0.51440556058E+02  0.34927356146E+01 -0.27482405566E+03  0.29091360686E+03  0.80275370287E+02 0.  0.
        -11    1    4    4    0    0  0.63193133151E+02  0.19686840348E+02 -0.25206088406E+03  0.26060627972E+03  0.00000000000E+00 0.  1.
         12    1    4    4    0    0 -0.11752577093E+02 -0.16194104734E+02 -0.22763171608E+02  0.30307327136E+02  0.00000000000E+00 0. -1.
        -11    1    3    3    0    0  0.36051789085E+02 -0.17926263488E+02 -0.17318286574E+03  0.17780153938E+03  0.00000000000E+00 0.  1.
         11    1    3    3    0    0 -0.61301611900E+02 -0.19113667024E+01 -0.25342812948E+03  0.26074385469E+03  0.00000000000E+00 0. -1.
          1    1    1    2  501    0 -0.26190733242E+02  0.16344894576E+02 -0.13713300019E+02  0.33781129109E+02  0.00000000000E+00 0. -1.
<scales pt_clust_5="13000.00000" pt_clust_6="13000.00000" pt_clust_7="13000.00000" pt_clust_8="13000.00000" pt_clust_9="30.87248"></scales>
<clustering>
<clus scale="   30.872">  1  9  2 -1</clus>
<clus scale="   80.275">  5  6 -1 -1</clus>
<clus scale="   89.080">  1  5  2 -1</clus>
<clus scale="   96.406">  7  8 -1 -1</clus>
<clus scale="   30.872">  1  5  2 -1</clus>
</clustering>
</event>
<event>
 9    2  0.6986911E-005  0.1141720E+03  0.7546771E-02  0.1260136E+00
          2   -1    0    0  502    0 -0.00000000000E+00  0.00000000000E+00  0.16581010607E+04  0.16581010607E+04  0.00000000000E+00 0. -1.
         21   -1    0    0  501  502  0.00000000000E+00 -0.00000000000E+00 -0.11870899167E+03  0.11870899167E+03  0.00000000000E+00 0. -1.
         24    2    1    2    0    0  0.31982488576E+02 -0.59622523121E+02  0.14812526932E+04  0.14848219259E+04  0.77517001788E+02 0.  0.
         23    2    1    2    0    0 -0.12464139925E+02  0.12269570783E+02  0.15459893189E+03  0.18277405231E+03  0.95914687639E+02 0.  0.
        -11    1    3    3    0    0  0.16040519925E+02 -0.30972313485E+02  0.19137265104E+03  0.19452525299E+03  0.00000000000E+00 0.  1.
         12    1    3    3    0    0  0.15941968651E+02 -0.28650209637E+02  0.12898800422E+04  0.12902966729E+04  0.00000000000E+00 0. -1.
        -13    1    4    4    0    0  0.11394090083E+02  0.27752896660E+02  0.15117916105E+03  0.15412717897E+03  0.00000000000E+00 0. -1.
         13    1    4    4    0    0 -0.23858230008E+02 -0.15483325877E+02  0.34197708374E+01  0.28646873336E+02  0.00000000000E+00 0.  1.
          1    1    1    2  501    0 -0.19518348651E+02  0.47352952339E+02 -0.96459556104E+02  0.10921407415E+03  0.00000000000E+00 0. -1.
<scales pt_clust_5="13000.00000" pt_clust_6="13000.00000" pt_clust_7="13000.00000" pt_clust_8="13000.00000" pt_clust_9="51.21785"></scales>
<clustering>
<clus scale="   51.218">  2  9  1 -1</clus>
<clus scale="   77.517">  5  6 -1 -1</clus>
<clus scale="   95.915">  7  8 -1 -1</clus>
<clus scale="   99.220">  1  5  2 -1</clus>
<clus scale="   51.218">  2  5  1 -1</clus>
</clustering>
</event>
<event>
 9    2  0.6469128E-005  0.1184452E+03  0.7546771E-02  0.1251245E+00
         21   -1    0    0  501  502  0.00000000000E+00  0.00000000000E+00  0.43506260012E+02  0.43506260012E+02  0.00000000000E+00 0. -1.
          2   -1    0    0  502    0 -0.00000000000E+00 -0.00000000000E+00 -0.55063903370E+03  0.55063903370E+03  0.00000000000E+00 0. -1.
         24    2    1    2    0    0 -0.64201210581E+02  0.12655920400E+00 -0.33446572224E+03  0.34976611374E+03  0.79669338584E+02 0.  0.
         23    2    1    2    0    0  0.84932991882E+02  0.11538962864E+02 -0.17848277988E+03  0.21989012408E+03  0.95649376279E+02 0.  0.
        -11    1    3    3    0    0  0.12739138878E+02 -0.17535870274E+02 -0.10151346674E+03  0.10380162010E+03  0.00000000000E+00 0.  1.
         12    1    3    3    0    0 -0.76940349459E+02  0.17662429478E+02 -0.23295225551E+03  0.24596449365E+03  0.00000000000E+00 0. -1.
        -13    1    4    4    0    0  0.36260800686E+02  0.33782544646E+02 -0.21472833242E+02  0.54011004033E+02  0.00000000000E+00 0.  1.
         13    1    4    4    0    0  0.48672191196E+02 -0.22243581782E+02 -0.15700994664E+03  0.16587912005E+03  0.00000000000E+00 0. -1.
          1    1    1    2  501    0 -0.20731781301E+02 -0.11665522068E+02  0.58157284311E+01  0.24489055887E+02  0.00000000000E+00 0. -1.
<scales pt_clust_5="13000.00000" pt_clust_6="13000.00000" pt_clust_7="13000.00000" pt_clust_8="13000.00000" pt_clust_9="23.78847"></scales>
<clustering>
<clus scale="   23.788">  1  9  2 -1</clus>
<clus scale="   79.669">  5  6 -1 -1</clus>
<clus scale="   95.649">  7  8 -1 -1</clus>
<clus scale="  105.961">  2  5  1 -1</clus>
<clus scale="   23.788">  1  5  2 -1</clus>
</clustering>
</event>
<event>
 9    2  0.6469128E-005  0.1402415E+03  0.7546771E-02  0.1216181E+00
          2   -1    0    0  502    0 -0.00000000000E+00  0.00000000000E+00  0.88573092287E+02  0.88573092287E+02  0.00000000000E+00 0. -1.
         21   -1    0    0  501  502  0.00000000000E+00 -0.00000000000E+00 -0.30042570723E+03  0.30042570723E+03  0.00000000000E+00 0.  1.
         23    2    1    2    0    0 -0.53972279276E+02  0.98207842926E+02 -0.28915707471E+02  0.14956290761E+03  0.94737309712E+02 0.  0.
         24    2    1    2    0    0  0.58450342319E+02 -0.65402710238E+02 -0.15853389767E+03  0.19830516535E+03  0.80610079220E+02 0.  0.
        -13    1    4    4    0    0  0.71497644072E+02 -0.29158777540E+02 -0.12650517012E+03  0.14820831786E+03  0.00000000000E+00 0.  1.
         14    1    4    4    0    0 -0.13047301753E+02 -0.36243932698E+02 -0.32028727549E+02  0.50096847494E+02  0.00000000000E+00 0. -1.
        -13    1    3    3    0    0 -0.78533951804E+02  0.92493676491E+02 -0.26764063469E+02  0.12425367950E+03  0.00000000000E+00 0. -1.
         13    1    3    3    0    0  0.24561672528E+02  0.57141664355E+01 -0.21516440021E+01  0.25309228106E+02  0.00000000000E+00 0.  1.
          1    1    1    2  501    0 -0.44780630426E+01 -0.32805132688E+02 -0.24403009799E+02  0.41130726550E+02  0.00000000000E+00 0. -1.
<scales pt_clust_5="13000.00000" pt_clust_6="13000.00000" pt_clust_7="13000.00000" pt_clust_8="13000.00000" pt_clust_9="33.10936"></scales>
<clustering>
<clus scale="   33.109">  2  9  1 -1</clus>
<clus scale="   80.610">  5  6 -1 -1</clus>
<clus scale="   94.737">  7  8 -1 -1</clus>
<clus scale="  131.113">  2  5  1 -1</clus>
<clus scale="   33.109">  2  5  1 -1</clus>
</clustering>
</event>
<event>
 9    2  0.6469128E-005  0.9907141E+02  0.7546771E-02  0.1287239E+00
         21   -1    0    0  501  502  0.00000000000E+00  0.00000000000E+00  0.40047321877E+02  0.40047321877E+02  0.00000000000E+00 0. -1.
          2   -1    0    0  502    0 -0.00000000000E+00 -0.00000000000E+00 -0.47063193266E+03  0.47063193266E+03  0.00000000000E+00 0. -1.
         23    2    1    2    0    0  0.16062784351E+02  0.41048792316E+02 -0.33895191844E+03  0.35337256555E+03  0.89670232959E+02 0.  0.
         24    2    1    2    0    0 -0.38434185122E+02 -0.19843713492E+02 -0.44631849331E+02  0.10109980165E+03  0.79738374497E+02 0.  0.
        -11    1    4    4    0    0 -0.42681500147E+02  0.17761417661E+02 -0.43131533497E+02  0.63225845933E+02  0.00000000000E+00 0.  1.
         12    1    4    4    0    0  0.42473150248E+01 -0.37605131153E+02 -0.15003158343E+01  0.37873955715E+02  0.00000000000E+00 0. -1.
        -13    1    3    3    0    0  0.52650641186E+02  0.14895914158E+02 -0.17409919233E+03  0.18249522472E+03  0.00000000000E+00 0.  1.
         13    1    3    3    0    0 -0.36587856835E+02  0.26152878158E+02 -0.16485272611E+03  0.17087734083E+03  0.00000000000E+00 0. -1.
          1    1    1    2  501    0  0.22371400771E+02 -0.21205078824E+02 -0.47000843019E+02  0.56206887344E+02  0.00000000000E+00 0. -1.
<scales pt_clust_5="13000.00000" pt_clust_6="13000.00000" pt_clust_7="13000.00000" pt_clust_8="13000.00000" pt_clust_9="30.82426"></scales>
<clustering>
<clus scale="   30.824">  1  9  2 -1</clus>
<clus scale="   79.738">  5  6 -1 -1</clus>
<clus scale="   89.670">  7  8 -1 -1</clus>
<clus scale="   90.181">  1  5  2 -1</clus>
<clus scale="   30.824">  1  5  2 -1</clus>
</clustering>
</event>
<event>
 9    2  0.6469128E-005  0.1191173E+03  0.7546771E-02  0.1254628E+00
         21   -1    0    0  501  502  0.00000000000E+00  0.00000000000E+00  0.18273498533E+03  0.18273498533E+03  0.00000000000E+00 0. -1.
         -1   -1    0    0    0  501 -0.00000000000E+00 -0.00000000000E+00 -0.24014309379E+03  0.24014309379E+03  0.00000000000E+00 0.  1.
         23    2    1    2    0    0  0.22989519090E+02 -0.25476717773E+02  0.43642807186E+02  0.12280471655E+03  0.10953868108E+03 0.  0.
         24    2    1    2    0    0 -0.45390099161E+02  0.41742515072E+02  0.70200015635E+02  0.12659931950E+03  0.85420412299E+02 0.  0.
        -11    1    4    4    0    0  0.21431907064E+02 -0.25126596241E+01  0.29945289724E+02  0.36910167643E+02  0.00000000000E+00 0.  1.
         12    1    4    4    0    0 -0.66822006225E+02  0.44255174696E+02  0.40254725912E+02  0.89689151861E+02  0.00000000000E+00 0. -1.
        -13    1    3    3    0    0  0.13098127933E+02 -0.54685840725E+02  0.64503411220E+02  0.85573314708E+02  0.00000000000E+00 0.  1.
         13    1    3    3    0    0  0.98913911575E+01  0.29209122952E+02 -0.20860604033E+02  0.37231401844E+02  0.00000000000E+00 0. -1.
         -2    1    1    2    0  502  0.22400580071E+02 -0.16265797299E+02 -0.17125093129E+03  0.17347404306E+03  0.00000000000E+00 0.  1.
<scales pt_clust_5="13000.00000" pt_clust_6="13000.00000" pt_clust_7="13000.00000" pt_clust_8="13000.00000" pt_clust_9="27.68326"></scales>
<clustering>
<clus scale="   27.683">  1  9  2 -1</clus>
<clus scale="   85.420">  5  6 -1 -1</clus>
<clus scale="   97.401">  1  5  2 -1</clus>
<clus scale="  109.539">  7  8 -1 -1</clus>
<clus scale="   27.683">  1  5  2 -1</clus>
</clustering>
</event>
<event>
 9    2  0.6469128E-005  0.1048435E+03  0.7546771E-02  0.1271022E+00
         21   -1    0    0  501  502  0.00000000000E+00  0.00000000000E+00  0.98582215494E+02  0.98582215494E+02  0.00000000000E+00 0. -1.
         -3   -1    0    0    0  501 -0.00000000000E+00 -0.00000000000E+00 -0.71999464143E+03  0.71999464143E+03  0.00000000000E+00 0.  1.
         24    2    1    2    0    0  0.54436992596E+02  0.39427733217E+02 -0.67625734653E+03  0.68439677138E+03  0.80975364303E+02 0.  0.
         23    2    1    2    0    0 -0.54710260137E+02 -0.16532997610E+02  0.52818206254E+02  0.11119419499E+03  0.79421870491E+02 0.  0.
        -11    1    3    3    0    0  0.68838016940E+02  0.86266423423E+01 -0.38946002177E+03  0.39559095047E+03  0.00000000000E+00 0.  1.
         12    1    3    3    0    0 -0.14401024343E+02  0.30801090875E+02 -0.28679732476E+03  0.28880582091E+03  0.00000000000E+00 0. -1.
        -11    1    4    4    0    0 -0.37894001100E+02 -0.50920696032E+01  0.73084544534E+02  0.82481726109E+02  0.00000000000E+00 0. -1.
         11    1    4    4    0    0 -0.16816259038E+02 -0.11440928006E+02 -0.20266338280E+02  0.28712468876E+02  0.00000000000E+00 0.  1.
         -4    1    1    2    0  502  0.27326754070E+00 -0.22894735608E+02  0.20267143447E+01  0.22985890558E+02  0.00000000000E+00 0.  1.
<scales pt_clust_5="13000.00000" pt_clust_6="13000.00000" pt_clust_7="13000.00000" pt_clust_8="13000.00000" pt_clust_9="22.89637"></scales>
<clustering>
<clus scale="   22.896">  1  9  2 -1</clus>
<clus scale="   79.422">  7  8 -1 -1</clus>
<clus scale="   80.975">  5  6 -1 -1</clus>
<clus scale="  103.648">  1  7  2 -1</clus>
<clus scale="   22.896">  1  5  2 -1</clus>
</clustering>
</event>
<event>
 9    2  0.6469128E-005  0.9912082E+02  0.7546771E-02  0.1288402E+00
         21   -1    0    0  501  502  0.00000000000E+00  0.00000000000E+00  0.76641416455E+02  0.76641416455E+02  0.00000000000E+00 0.  1.
          2   -1    0    0  502    0 -0.00000000000E+00 -0.00000000000E+00 -0.21502430889E+03  0.21502430889E+03  0.00000000000E+00 0. -1.
         24    2    1    2    0    0  0.20661969257E+02 -0.53436713380E+02 -0.10382589580E+03  0.14169787512E+03  0.77563340986E+02 0.  0.
         23    2    1    2    0    0  0.12730018513E+02  0.21655808150E+02 -0.43564523224E+02  0.10299779252E+03  0.89886874362E+02 0.  0.
        -13    1    3    3    0    0  0.28839997840E+02 -0.44605412421E+02 -0.11410968458E+03  0.12586662945E+03  0.00000000000E+00 0.  1.
         14    1    3    3    0    0 -0.81780285823E+01 -0.88313009597E+01  0.10283788778E+02  0.15831245679E+02  0.00000000000E+00 0. -1.
        -11    1    4    4    0    0  0.49671611665E+02  0.16624060395E+02 -0.11058544108E+02  0.53534286090E+02  0.00000000000E+00 0.  1.
         11    1    4    4    0    0 -0.36941593152E+02  0.50317477557E+01 -0.32505979116E+02  0.49463506431E+02  0.00000000000E+00 0. -1.
          1    1    1    2  501    0 -0.33391987770E+02  0.31780905230E+02  0.90075265966E+01  0.46970057695E+02  0.00000000000E+00 0. -1.
<scales pt_clust_5="13000.00000" pt_clust_6="13000.00000" pt_clust_7="13000.00000" pt_clust_8="13000.00000" pt_clust_9="46.09827"></scales>
<clustering>
<clus scale="   46.098">  1  9  2 -1</clus>
<clus scale="   77.563">  5  6 -1 -1</clus>
<clus scale="   88.099">  2  5  1 -1</clus>
<clus scale="   89.887">  7  8 -1 -1</clus>
<clus scale="   46.098">  1  5  2 -1</clus>
</clustering>
</event>
<event>
 9    2  0.6469128E-005  0.3158115E+03  0.7546771E-02  0.1107192E+00
          2   -1    0    0  502    0 -0.00000000000E+00  0.00000000000E+00  0.30988467312E+04  0.30988467312E+04  0.00000000000E+00 0. -1.
         21   -1    0    0  501  502  0.00000000000E+00 -0.00000000000E+00 -0.59201142852E+02  0.59201142852E+02  0.00000000000E+00 0. -1.
         23    2    1    2    0    0  0.69882542536E+02 -0.88191125960E+02  0.39661172070E+03  0.42225212045E+03  0.91294861724E+02 0.  0.
         24    2    1    2    0    0 -0.34606871055E+03  0.24962865947E+02  0.20045718485E+04  0.20372899468E+04  0.10888220413E+03 0.  0.
        -13    1    4    4    0    0 -0.51436510398E+02 -0.17065783061E+02  0.16166792221E+03  0.17050945026E+03  0.00000000000E+00 0.  1.
         14    1    4    4    0    0 -0.29463220015E+03  0.42028649008E+02  0.18429039263E+04  0.18667804965E+04  0.00000000000E+00 0. -1.
        -11    1    3    3    0    0  0.47353409759E+02 -0.10449677722E+03  0.34570301068E+03  0.36424235539E+03  0.00000000000E+00 0.  1.
         11    1    3    3    0    0  0.22529132777E+02  0.16305651256E+02  0.50908710015E+02  0.58009765057E+02  0.00000000000E+00 0. -1.
          1    1    1    2  501    0  0.27618616802E+03  0.63228260013E+02  0.63846201918E+03  0.69850580685E+03  0.00000000000E+00 0. -1.
<scales pt_clust_5="13000.00000" pt_clust_6="13000.00000" pt_clust_7="13000.00000" pt_clust_8="13000.00000" pt_clust_9="296.44826"></scales>
<clustering>
<clus scale="   91.295">  7  8 -1 -1</clus>
<clus scale="  108.882">  5  6 -1 -1</clus>
<clus scale="  144.900">  1  7  2 -1</clus>
<clus scale="  296.448">  2  9  1 -1</clus>
<clus scale="  296.448">  2  5  1 -1</clus>
</clustering>
</event>
<event>
 9    2  0.6469128E-005  0.9674700E+02  0.7546771E-02  0.1293819E+00
          2   -1    0    0  502    0 -0.00000000000E+00  0.00000000000E+00  0.27296578248E+03  0.27296578248E+03  0.00000000000E+00 0. -1.
         21   -1    0    0  501  502  0.00000000000E+00 -0.00000000000E+00 -0.81906120808E+02  0.81906120808E+02  0.00000000000E+00 0.  1.
         24    2    1    2    0    0 -0.10310131280E+02  0.16873351888E+02  0.64832545105E+02  0.10475962855E+03  0.79876855581E+02 0.  0.
         23    2    1    2    0    0  0.44689903885E+01 -0.65928017736E+02 -0.16293914085E+01  0.11304380353E+03  0.91704804688E+02 0.  0.
        -11    1    3    3    0    0  0.32125844594E+02  0.10658285385E+02  0.47893872334E+02  0.58647181905E+02  0.00000000000E+00 0.  1.
         12    1    3    3    0    0 -0.42435975875E+02  0.62150665024E+01  0.16938672771E+02  0.46112446642E+02  0.00000000000E+00 0. -1.
        -13    1    4    4    0    0  0.17183242033E+02  0.11891833926E+02 -0.23270711922E+02  0.31276277819E+02  0.00000000000E+00 0.  1.
         13    1    4    4    0    0 -0.12714251645E+02 -0.77819851662E+02  0.21641320513E+02  0.81767525712E+02  0.00000000000E+00 0. -1.
          1    1    1    2  501    0  0.58411408920E+01  0.49054665848E+02  0.12785650798E+03  0.13706847121E+03  0.00000000000E+00 0. -1.
<scales pt_clust_5="13000.00000" pt_clust_6="13000.00000" pt_clust_7="13000.00000" pt_clust_8="13000.00000" pt_clust_9="49.40123"></scales>
<clustering>
<clus scale="   49.401">  2  9  1 -1</clus>
<clus scale="   79.877">  5  6 -1 -1</clus>
<clus scale="   85.618">  1  5  2 -1</clus>
<clus scale="   91.705">  7  8 -1 -1</clus>
<clus scale="   49.401">  2  5  1 -1</clus>
</clustering>
</event>
<event>
 9    2  0.6469128E-005  0.1709234E+03  0.7546771E-02  0.1189932E+00
         -3   -1    0    0    0  501 -0.00000000000E+00  0.00000000000E+00  0.12674376200E+03  0.12674376200E+03  0.00000000000E+00 0.  1.
         21   -1    0    0  501  502  0.00000000000E+00 -0.00000000000E+00 -0.48213225718E+03  0.48213225718E+03  0.00000000000E+00 0.  1.
         23    2    1    2    0    0 -0.55604067738E+02 -0.64858347290E+02 -0.14556156227E+03  0.19364090587E+03  0.94922149448E+02 0.  0.
         24    2    1    2    0    0 -0.87275908045E+02  0.12737567155E+03 -0.29275073242E+02  0.17665163244E+03  0.80666743465E+02 0.  0.
        -11    1    4    4    0    0 -0.23961472207E+02  0.10314866933E+03 -0.11159882301E+02  0.10648165620E+03  0.00000000000E+00 0.  1.
         12    1    4    4    0    0 -0.63314435838E+02  0.24227002226E+02 -0.18115190940E+02  0.70169976237E+02  0.00000000000E+00 0. -1.
        -13    1    3    3    0    0 -0.80668258563E+02 -0.52605380336E+02 -0.91684516780E+02  0.13296896103E+03  0.00000000000E+00 0.  1.
         13    1    3    3    0    0  0.25064190825E+02 -0.12252966953E+02 -0.53877045487E+02  0.60671944845E+02  0.00000000000E+00 0. -1.
         -4    1    1    2    0  502  0.14287997578E+03 -0.62517324265E+02 -0.18055185967E+03  0.23858348087E+03  0.00000000000E+00 0.  1.
<scales pt_clust_5="13000.00000" pt_clust_6="13000.00000" pt_clust_7="13000.00000" pt_clust_8="13000.00000" pt_clust_9="150.69068"></scales>
<clustering>
<clus scale="   80.667">  5  6 -1 -1</clus>
<clus scale="   94.922">  7  8 -1 -1</clus>
<clus scale="  127.705">  1  7  2 -1</clus>
<clus scale="  150.691">  2  9  1 -1</clus>
<clus scale="  150.691">  2  5  1 -1</clus>
</clustering>
</event>
<event>
 9    2  0.6469128E-005  0.1419744E+03  0.7546771E-02  0.1222880E+00
          2   -1    0    0  502    0 -0.00000000000E+00  0.00000000000E+00  0.41320913863E+03  0.41320913863E+03  0.00000000000E+00 0. -1.
         21   -1    0    0  501  502  0.00000000000E+00 -0.00000000000E+00 -0.21079689459E+03  0.21079689459E+03  0.00000000000E+00 0. -1.
         23    2    1    2    0    0 -0.61193644352E+02 -0.11220296185E+02  0.27421971645E+03  0.29537667111E+03  0.90445385694E+02 0.  0.
         24    2    1    2    0    0 -0.53961404031E+02  0.59855470374E+02  0.73810875270E+02  0.13671592193E+03  0.82150395880E+02 0.  0.
        -11    1    4    4    0    0 -0.52949890542E+02  0.16434133877E+02  0.74999187598E+02  0.93266552445E+02  0.00000000000E+00 0.  1.
         12    1    4    4    0    0 -0.10115134897E+01  0.43421336497E+02 -0.11883123276E+01  0.43449369488E+02  0.00000000000E+00 0. -1.
        -13    1    3    3    0    0 -0.31446673384E+02  0.34914404850E+02  0.73094027339E+02  0.86894451869E+02  0.00000000000E+00 0.  1.
         13    1    3    3    0    0 -0.29746970968E+02 -0.46134701035E+02  0.20112568911E+03  0.20848221925E+03  0.00000000000E+00 0. -1.
          1    1    1    2  501    0  0.11515504838E+03 -0.48635174189E+02 -0.14561834768E+03  0.19191344017E+03  0.00000000000E+00 0. -1.
<scales pt_clust_5="13000.00000" pt_clust_6="13000.00000" pt_clust_7="13000.00000" pt_clust_8="13000.00000" pt_clust_9="115.79316"></scales>
<clustering>
<clus scale="   82.150">  5  6 -1 -1</clus>
<clus scale="   90.445">  7  8 -1 -1</clus>
<clus scale="  109.777">  1  7  2 -1</clus>
<clus scale="  115.793">  2  9  1 -1</clus>
<clus scale="  115.793">  2  5  1 -1</clus>
</clustering>
</event>
<event>
 9    2  0.6469128E-005  0.9529585E+02  0.7546771E-02  0.1296491E+00
         21   -1    0    0  501  502  0.00000000000E+00  0.00000000000E+00  0.22229395601E+03  0.22229395601E+03  0.00000000000E+00 0.  1.
          2   -1    0    0  502    0 -0.00000000000E+00 -0.00000000000E+00 -0.10180468195E+03  0.10180468195E+03  0.00000000000E+00 0. -1.
         23    2    1    2    0    0 -0.82433297490E+01 -0.15952843158E+02 -0.45120592268E+02  0.10372511257E+03  0.91654707690E+02 0.  0.
         24    2    1    2    0    0  0.21532543796E+02  0.56729767090E+02  0.10308079853E+03  0.14454974907E+03  0.81160717177E+02 0.  0.
        -13    1    4    4    0    0  0.31904669508E+02 -0.47990791596E+01  0.61855000415E+02  0.69763745410E+02  0.00000000000E+00 0.  1.
         14    1    4    4    0    0 -0.10372125712E+02  0.61528846250E+02  0.41225798117E+02  0.74786003657E+02  0.00000000000E+00 0. -1.
        -13    1    3    3    0    0 -0.49267346917E+02 -0.16100625821E+02 -0.30694374729E+02  0.60238245858E+02  0.00000000000E+00 0. -1.
         13    1    3    3    0    0  0.41024017168E+02  0.14778266332E+00 -0.14426217539E+02  0.43486866716E+02  0.00000000000E+00 0.  1.
          1    1    1    2  501    0 -0.13289214047E+02 -0.40776923933E+02  0.62529067799E+02  0.75823776318E+02  0.00000000000E+00 0. -1.
<scales pt_clust_5="13000.00000" pt_clust_6="13000.00000" pt_clust_7="13000.00000" pt_clust_8="13000.00000" pt_clust_9="42.88777"></scales>
<clustering>
<clus scale="   42.888">  1  9  2 -1</clus>
<clus scale="   81.161">  5  6 -1 -1</clus>
<clus scale="   85.251">  1  5  2 -1</clus>
<clus scale="   91.655">  7  8 -1 -1</clus>
<clus scale="   42.888">  1  5  2 -1</clus>
</clustering>
</event>
<event>
 9    2  0.6469128E-005  0.1102779E+03  0.7546771E-02  0.1266230E+00
          4   -1    0    0  502    0 -0.00000000000E+00  0.00000000000E+00  0.18214486989E+03  0.18214486989E+03  0.00000000000E+00 0. -1.
         21   -1    0    0  501  502  0.00000000000E+00 -0.00000000000E+00 -0.19404764497E+03  0.19404764497E+03  0.00000000000E+00 0. -1.
         23    2    1    2    0    0 -0.55522683435E+02  0.15283436444E+02  0.70855206062E+02  0.12997961321E+03  0.92508852648E+02 0.  0.
         24    2    1    2    0    0  0.35467622306E+02 -0.96324598435E+02 -0.97776433422E+02  0.16138702517E+03  0.77130801008E+02 0.  0.
        -13    1    4    4    0    0 -0.17887622626E+02 -0.60750403608E+02 -0.58330934855E+02  0.86099224984E+02  0.00000000000E+00 0.  1.
         14    1    4    4    0    0  0.53355244932E+02 -0.35574194827E+02 -0.39445498567E+02  0.75287800184E+02  0.00000000000E+00 0. -1.
        -11    1    3    3    0    0  0.37946632114E+01  0.42222357917E+02  0.17868932932E+02  0.46004627388E+02  0.00000000000E+00 0.  1.
         11    1    3    3    0    0 -0.59317346647E+02 -0.26938921472E+02  0.52986273130E+02  0.83974985820E+02  0.00000000000E+00 0. -1.
          3    1    1    2  501    0  0.20055061129E+02  0.81041161991E+02  0.15018452281E+02  0.84825876492E+02  0.00000000000E+00 0. -1.
<scales pt_clust_5="13000.00000" pt_clust_6="13000.00000" pt_clust_7="13000.00000" pt_clust_8="13000.00000" pt_clust_9="83.48582"></scales>
<clustering>
<clus scale="   77.131">  5  6 -1 -1</clus>
<clus scale="   83.486">  2  9  1 -1</clus>
<clus scale="   92.509">  7  8 -1 -1</clus>
<clus scale="   97.737">  2  5  1 -1</clus>
<clus scale="   83.486">  2  5  1 -1</clus>
</clustering>
</event>
<event>
 9    2  0.6469128E-005  0.1284002E+03  0.7546771E-02  0.1232808E+00
         21   -1    0    0  501  502  0.00000000000E+00  0.00000000000E+00  0.22788047998E+03  0.22788047998E+03  0.00000000000E+00 0.  1.
          2   -1    0    0  502    0 -0.00000000000E+00 -0.00000000000E+00 -0.30144134384E+03  0.30144134384E+03  0.00000000000E+00 0. -1.
         24    2    1    2    0    0  0.22631634231E+02  0.86345420216E+02 -0.24771931581E+03  0.27530843374E+03  0.80387510228E+02 0.  0.
         23    2    1    2    0    0  0.12937961901E+02 -0.10578533301E+03  0.11106099903E+03  0.17901742390E+03  0.91404403699E+02 0.  0.
        -13    1    3    3    0    0  0.40629710064E+02  0.10233485507E+02 -0.84364979204E+02  0.94196323079E+02  0.00000000000E+00 0.  1.
         14    1    3    3    0    0 -0.17998075833E+02  0.76111934708E+02 -0.16335433661E+03  0.18111211066E+03  0.00000000000E+00 0. -1.
        -11    1    4    4    0    0 -0.20842314955E+02 -0.84893254442E+02  0.36886985583E+02  0.94878429834E+02  0.00000000000E+00 0. -1.
         11    1    4    4    0    0  0.33780276856E+02 -0.20892078570E+02  0.74174013448E+02  0.84138994066E+02  0.00000000000E+00 0.  1.
          1    1    1    2  501    0 -0.35569596132E+02  0.19439912796E+02  0.63097452915E+02  0.74995966177E+02  0.00000000000E+00 0. -1.
<scales pt_clust_5="13000.00000" pt_clust_6="13000.00000" pt_clust_7="13000.00000" pt_clust_8="13000.00000" pt_clust_9="40.53525"></scales>
<clustering>
<clus scale="   40.535">  1  9  2 -1</clus>
<clus scale="   80.388">  5  6 -1 -1</clus>
<clus scale="   91.404">  7  8 -1 -1</clus>
<clus scale="  120.806">  2  5  1 -1</clus>
<clus scale="   40.535">  1  5  2 -1</clus>
</clustering>
</event>
<event>
 9    2  0.6469128E-005  0.1131319E+03  0.7546771E-02  0.1263537E+00
         21   -1    0    0  501  502  0.00000000000E+00  0.00000000000E+00  0.53530147635E+03  0.53530147635E+03  0.00000000000E+00 0.  1.
         -3   -1    0    0    0  501 -0.00000000000E+00 -0.00000000000E+00 -0.37358563734E+02  0.37358563734E+02  0.00000000000E+00 0.  1.
         23    2    1    2    0    0  0.48985195682E+02 -0.52878460102E+02  0.20757012102E+03  0.24179945159E+03  0.10092541163E+03 0.  0.
         24    2    1    2    0    0 -0.26907332378E+02  0.97639342328E+01  0.25998317741E+03  0.27367822198E+03  0.80555432482E+02 0.  0.
        -11    1    4    4    0    0 -0.38554364825E+02  0.30207128560E+02  0.23202104618E+03  0.23713429852E+03  0.00000000000E+00 0.  1.
         12    1    4    4    0    0  0.11647032448E+02 -0.20443194327E+02  0.27962131234E+02  0.36543923466E+02  0.00000000000E+00 0. -1.
        -13    1    3    3    0    0  0.32716886116E+02  0.47877019965E+01  0.16504711255E+03  0.16832666482E+03  0.00000000000E+00 0.  1.
         13    1    3    3    0    0  0.16268309565E+02 -0.57666162099E+02  0.42523008463E+02  0.73472786772E+02  0.00000000000E+00 0. -1.
         -4    1    1    2    0  502 -0.22077863304E+02  0.43114525869E+02  0.30389614183E+02  0.57182366506E+02  0.00000000000E+00 0.  1.
<scales pt_clust_5="13000.00000" pt_clust_6="13000.00000" pt_clust_7="13000.00000" pt_clust_8="13000.00000" pt_clust_9="48.43859"></scales>
<clustering>
<clus scale="   48.439">  1  9  2 -1</clus>
<clus scale="   80.555">  5  6 -1 -1</clus>
<clus scale="   95.405">  1  5  2 -1</clus>
<clus scale="  100.925">  7  8 -1 -1</clus>
<clus scale="   48.439">  1  5  2 -1</clus>
</clustering>
</event>
<event>
 9    2  0.6469128E-005  0.1016553E+03  0.7546771E-02  0.1280752E+00
          2   -1    0    0  502    0 -0.00000000000E+00  0.00000000000E+00  0.27997448731E+03  0.27997448731E+03  0.00000000000E+00 0. -1.
         21   -1    0    0  501  502  0.00000000000E+00 -0.00000000000E+00 -0.16109858578E+03  0.16109858578E+03  0.00000000000E+00 0. -1.
         24    2    1    2    0    0 -0.30810287305E+02  0.34192760072E+02  0.22369457920E+03  0.24260217231E+03  0.81842107770E+02 0.  0.
         23    2    1    2    0    0  0.50485169638E+01 -0.66574459011E+02 -0.35352547824E+02  0.11761432137E+03  0.90142552864E+02 0.  0.
        -13    1    3    3    0    0  0.25465582695E+02 -0.35159119515E+01  0.72596150001E+02  0.77013365942E+02  0.00000000000E+00 0.  1.
         14    1    3    3    0    0 -0.56275870000E+02  0.37708672023E+02  0.15109842920E+03  0.16558880637E+03  0.00000000000E+00 0. -1.
        -13    1    4    4    0    0 -0.18401273558E+02 -0.26010107414E+02  0.25502987290E+02  0.40810965646E+02  0.00000000000E+00 0. -1.
         13    1    4    4    0    0  0.23449790521E+02 -0.40564351597E+02 -0.60855535114E+02  0.76803355721E+02  0.00000000000E+00 0.  1.
          1    1    1    2  501    0  0.25761770341E+02  0.32381698939E+02 -0.69466129846E+02  0.80856579406E+02  0.00000000000E+00 0. -1.
<scales pt_clust_5="13000.00000" pt_clust_6="13000.00000" pt_clust_7="13000.00000" pt_clust_8="13000.00000" pt_clust_9="41.37926"></scales>
<clustering>
<clus scale="   41.379">  2  9  1 -1</clus>
<clus scale="   81.842">  5  6 -1 -1</clus>
<clus scale="   90.143">  7  8 -1 -1</clus>
<clus scale="   94.373">  1  5  2 -1</clus>
<clus scale="   41.379">  2  5  1 -1</clus>
</clustering>
</event>
<event>
 9    2  0.6469128E-005  0.1529016E+03  0.7546771E-02  0.1198892E+00
         21   -1    0    0  501  502  0.00000000000E+00  0.00000000000E+00  0.12376137448E+03  0.12376137448E+03  0.00000000000E+00 0. -1.
         -3   -1    0    0    0  501 -0.00000000000E+00 -0.00000000000E+00 -0.10685692797E+04  0.10685692797E+04  0.00000000000E+00 0.  1.
         24    2    1    2    0    0 -0.86368342686E+02  0.75379183983E+02 -0.62396790544E+02  0.15295272121E+03  0.79747498128E+02 0.  0.
         23    2    1    2    0    0  0.20450653060E+02 -0.15802776532E+03 -0.36674201884E+02  0.18705941537E+03  0.90858263098E+02 0.  0.
        -13    1    3    3    0    0 -0.22317616635E+02 -0.16351681931E+02 -0.10087699211E+02  0.29448517613E+02  0.00000000000E+00 0.  1.
         14    1    3    3    0    0 -0.64050726051E+02  0.91730865913E+02 -0.52309091333E+02  0.12350420359E+03  0.00000000000E+00 0. -1.
        -11    1    4    4    0    0  0.28252690706E+02 -0.80176326379E+02 -0.61557889991E+02  0.10495633218E+03  0.00000000000E+00 0.  1.
         11    1    4    4    0    0 -0.78020376458E+01 -0.77851438937E+02  0.24883688107E+02  0.82103083193E+02  0.00000000000E+00 0. -1.
         -4    1    1    2    0  502  0.65917689626E+02  0.82648581333E+02 -0.84573691278E+03  0.85231851760E+03  0.00000000000E+00 0.  1.
<scales pt_clust_5="13000.00000" pt_clust_6="13000.00000" pt_clust_7="13000.00000" pt_clust_8="13000.00000" pt_clust_9="105.71632"></scales>
<clustering>
<clus scale="   79.747">  5  6 -1 -1</clus>
<clus scale="   90.858">  7  8 -1 -1</clus>
<clus scale="  105.716">  1  9  2 -1</clus>
<clus scale="  146.572">  2  5  1 -1</clus>
<clus scale="  105.716">  1  5  2 -1</clus>
</clustering>
</event>
<event>
 9    2  0.6469128E-005  0.9595420E+02  0.7546771E-02  0.1293740E+00
          2   -1    0    0  502    0 -0.00000000000E+00  0.00000000000E+00  0.51020528403E+03  0.51020528403E+03  0.00000000000E+00 0. -1.
         21   -1    0    0  501  502  0.00000000000E+00 -0.00000000000E+00 -0.52591095821E+02  0.52591095821E+02  0.00000000000E+00 0.  1.
         24    2    1    2    0    0  0.30970633937E+02 -0.13992869049E+02  0.36791854118E+03  0.37835254217E+03  0.81434714153E+02 0.  0.
         23    2    1    2    0    0 -0.40385396618E+02 -0.36440379331E+02  0.38740545568E+02  0.11213496780E+03  0.90080739491E+02 0.  0.
        -13    1    3    3    0    0 -0.11885476038E+02 -0.22992196480E+02  0.40808310275E+02  0.48324153662E+02  0.00000000000E+00 0.  1.
         14    1    3    3    0    0  0.42856109976E+02  0.89993274306E+01  0.32711023091E+03  0.33002838851E+03  0.00000000000E+00 0. -1.
        -11    1    4    4    0    0 -0.36081000893E+01 -0.22336181912E+02  0.62270078997E+02  0.66253197259E+02  0.00000000000E+00 0. -1.
         11    1    4    4    0    0 -0.36777296529E+02 -0.14104197419E+02 -0.23529533429E+02  0.45881770543E+02  0.00000000000E+00 0.  1.
          1    1    1    2  501    0  0.94147626807E+01  0.50433248380E+02  0.50955101457E+02  0.72308869877E+02  0.00000000000E+00 0. -1.
<scales pt_clust_5="13000.00000" pt_clust_6="13000.00000" pt_clust_7="13000.00000" pt_clust_8="13000.00000" pt_clust_9="51.30449"></scales>
<clustering>
<clus scale="   51.304">  2  9  1 -1</clus>
<clus scale="   81.435">  5  6 -1 -1</clus>
<clus scale="   87.888">  1  5  2 -1</clus>
<clus scale="   90.081">  7  8 -1 -1</clus>
<clus scale="   51.304">  2  5  1 -1</clus>
</clustering>
</event>
<event>
 9    2  0.6469128E-005  0.9686537E+02  0.7546771E-02  0.1290687E+00
         21   -1    0    0  501  502  0.00000000000E+00  0.00000000000E+00  0.43346903257E+02  0.43346903257E+02  0.00000000000E+00 0. -1.
          2   -1    0    0  502    0 -0.00000000000E+00 -0.00000000000E+00 -0.28278920649E+03  0.28278920649E+03  0.00000000000E+00 0. -1.
         23    2    1    2    0    0 -0.27326373251E+02 -0.12792967839E+02 -0.14557506092E+03  0.17400355771E+03  0.90414318731E+02 0.  0.
         24    2    1    2    0    0  0.44601556192E+02 -0.37239926760E+01 -0.82695209198E+02  0.12574967399E+03  0.83494406685E+02 0.  0.
        -11    1    4    4    0    0 -0.16232281656E+02 -0.25406360288E+02 -0.25914713916E+02  0.39756037381E+02  0.00000000000E+00 0.  1.
         12    1    4    4    0    0  0.60833837848E+02  0.21682367612E+02 -0.56780495282E+02  0.85993636608E+02  0.00000000000E+00 0. -1.
        -13    1    3    3    0    0  0.19839211771E+02 -0.81716245162E+01 -0.11637962823E+03  0.11834098038E+03  0.00000000000E+00 0.  1.
         13    1    3    3    0    0 -0.47165585022E+02 -0.46213433226E+01 -0.29195432693E+02  0.55662577327E+02  0.00000000000E+00 0. -1.
          1    1    1    2  501    0 -0.17275182941E+02  0.16516960515E+02 -0.11172033113E+02  0.26382878049E+02  0.00000000000E+00 0. -1.
<scales pt_clust_5="13000.00000" pt_clust_6="13000.00000" pt_clust_7="13000.00000" pt_clust_8="13000.00000" pt_clust_9="23.90067"></scales>
<clustering>
<clus scale="   23.901">  1  9  2 -1</clus>
<clus scale="   83.494">  5  6 -1 -1</clus>
<clus scale="   90.414">  7  8 -1 -1</clus>
<clus scale="   90.440">  1  5  2 -1</clus>
<clus scale="   23.901">  1  5  2 -1</clus>
</clustering>
</event>
<event>
 9    2  0.6469128E-005  0.1126676E+03  0.7546771E-02  0.1260033E+00
          2   -1    0    0  502    0 -0.00000000000E+00  0.00000000000E+00  0.15622879310E+03  0.15622879310E+03  0.00000000000E+00 0. -1.
         21   -1    0    0  501  502  0.00000000000E+00 -0.00000000000E+00 -0.26009133246E+03  0.26009133246E+03  0.00000000000E+00 0.  1.
         24    2    1    2    0    0 -0.60955737250E+02 -0.33154806526E+02  0.10675194526E+03  0.15074995307E+03  0.80713861478E+02 0.  0.
         23    2    1    2    0    0  0.40975207323E+02 -0.19443437791E+02 -0.15833475767E+03  0.18876544132E+03  0.92225167181E+02 0.  0.
        -11    1    3    3    0    0 -0.73008317254E+02 -0.20117630583E+01  0.72270216976E+02  0.10274845907E+03  0.00000000000E+00 0.  1.
         12    1    3    3    0    0  0.12052580004E+02 -0.31143043468E+02  0.34481728281E+02  0.48001494002E+02  0.00000000000E+00 0. -1.
        -13    1    4    4    0    0  0.60259332294E+02 -0.38999708921E+02 -0.90001181955E+02  0.11511896967E+03  0.00000000000E+00 0. -1.
         13    1    4    4    0    0 -0.19284124971E+02  0.19556271130E+02 -0.68333575718E+02  0.73646471652E+02  0.00000000000E+00 0.  1.
          1    1    1    2  501    0  0.19980529927E+02  0.52598244318E+02 -0.52279726936E+02  0.76804731169E+02  0.00000000000E+00 0. -1.
<scales pt_clust_5="13000.00000" pt_clust_6="13000.00000" pt_clust_7="13000.00000" pt_clust_8="13000.00000" pt_clust_9="56.26541"></scales>
<clustering>
<clus scale="   56.265">  2  9  1 -1</clus>
<clus scale="   80.714">  5  6 -1 -1</clus>
<clus scale="   92.225">  7  8 -1 -1</clus>
<clus scale="  103.456">  1  5  2 -1</clus>
<clus scale="   56.265">  2  5  1 -1</clus>
</clustering>
</event>
<event>
 9    2  0.6469128E-005  0.9370449E+02  0.7546771E-02  0.1299574E+00
         21   -1    0    0  501  502  0.00000000000E+00  0.00000000000E+00  0.58099545202E+02  0.58099545202E+02  0.00000000000E+00 0.  1.
          2   -1    0    0  502    0 -0.00000000000E+00 -0.00000000000E+00 -0.45578945064E+03  0.45578945064E+03  0.00000000000E+00 0. -1.
         24    2    1    2    0    0 -0.79236806534E+01  0.22953382314E+02 -0.37833150774E+03  0.38757650379E+03  0.80567822748E+02 0.  0.
         23    2    1    2    0    0  0.26219968850E+02 -0.34362910023E+02 -0.27033444225E+02  0.10342498840E+03  0.89986803289E+02 0.  0.
        -13    1    3    3    0    0 -0.21654476948E+01 -0.27347531915E+02 -0.71241215313E+02  0.76340601418E+02  0.00000000000E+00 0.  1.
         14    1    3    3    0    0 -0.57582329586E+01  0.50300914229E+02 -0.30709029243E+03  0.31123590237E+03  0.00000000000E+00 0. -1.
        -11    1    4    4    0    0 -0.19515544163E+02 -0.12214273728E+02  0.22692721287E+02  0.32326530066E+02  0.00000000000E+00 0.  1.
         11    1    4    4    0    0  0.45735513014E+02 -0.22148636295E+02 -0.49726165511E+02  0.71098458329E+02  0.00000000000E+00 0. -1.
          1    1    1    2  501    0 -0.18296288197E+02  0.11409527709E+02  0.76750465326E+01  0.22887503656E+02  0.00000000000E+00 0. -1.
<scales pt_clust_5="13000.00000" pt_clust_6="13000.00000" pt_clust_7="13000.00000" pt_clust_8="13000.00000" pt_clust_9="21.56227"></scales>
<clustering>
<clus scale="   21.562">  1  9  2 -1</clus>
<clus scale="   80.568">  5  6 -1 -1</clus>
<clus scale="   84.700">  2  5  1 -1</clus>
<clus scale="   89.987">  7  8 -1 -1</clus>
<clus scale="   21.562">  1  5  2 -1</clus>
</clustering>
</event>
<event>
 9    2  0.6469128E-005  0.1146919E+03  0.7546771E-02  0.1256035E+00
         21   -1    0    0  501  502  0.00000000000E+00  0.00000000000E+00  0.85107619577E+02  0.85107619577E+02  0.00000000000E+00 0. -1.
          2   -1    0    0  502    0 -0.00000000000E+00 -0.00000000000E+00 -0.64937046339E+03  0.64937046339E+03  0.00000000000E+00 0. -1.
         24    2    1    2    0    0  0.16463448317E+02 -0.64897986496E+02 -0.48777485267E+03  0.49885403941E+03  0.80301008450E+02 0.  0.
         23    2    1    2    0    0 -0.54791478563E+02  0.68069857668E+02 -0.12225051645E+03  0.17584689581E+03  0.91330883874E+02 0.  0.
        -11    1    3    3    0    0  0.33384079014E+02 -0.35893021610E+02 -0.12109731817E+03  0.13064213027E+03  0.00000000000E+00 0.  1.
         12    1    3    3    0    0 -0.16920630697E+02 -0.29004964886E+02 -0.36667753450E+03  0.36821190915E+03  0.00000000000E+00 0. -1.
        -13    1    4    4    0    0  0.20839750526E+02 -0.33233836838E+01 -0.11980455100E+02  0.24266672321E+02  0.00000000000E+00 0.  1.
         13    1    4    4    0    0 -0.75631229090E+02  0.71393241351E+02 -0.11027006135E+03  0.15158022349E+03  0.00000000000E+00 0. -1.
          1    1    1    2  501    0  0.38328030246E+02 -0.31718711717E+01  0.45762525309E+02  0.59777147740E+02  0.00000000000E+00 0. -1.
<scales pt_clust_5="13000.00000" pt_clust_6="13000.00000" pt_clust_7="13000.00000" pt_clust_8="13000.00000" pt_clust_9="38.45905"></scales>
<clustering>
<clus scale="   38.459">  1  9  2 -1</clus>
<clus scale="   80.301">  5  6 -1 -1</clus>
<clus scale="   91.331">  7  8 -1 -1</clus>
<clus scale="  106.119">  2  5  1 -1</clus>
<clus scale="   38.459">  1  5  2 -1</clus>
</clustering>
</event>
<event>
 9    2  0.6469128E-005  0.1393619E+03  0.7546771E-02  0.1216795E+00
          2   -1    0    0  502    0 -0.00000000000E+00  0.00000000000E+00  0.13616202375E+03  0.13616202375E+03  0.00000000000E+00 0. -1.
         21   -1    0    0  501  502  0.00000000000E+00 -0.00000000000E+00 -0.24570515481E+03  0.24570515481E+03  0.00000000000E+00 0.  1.
         23    2    1    2    0    0  0.30910199408E+02  0.12905789817E+03 -0.15375150542E+02  0.16135001360E+03  0.90476793309E+02 0.  0.
         24    2    1    2    0    0  0.31007246486E+02 -0.77761412175E+02 -0.77309632811E+02  0.13836302040E+03  0.78480950106E+02 0.  0.
        -13    1    4    4    0    0  0.46941637945E+02 -0.21383243292E+02 -0.55704997544E+02  0.75919741952E+02  0.00000000000E+00 0.  1.
         14    1    4    4    0    0 -0.15934391459E+02 -0.56378168883E+02 -0.21604635267E+02  0.62443278444E+02  0.00000000000E+00 0. -1.
        -13    1    3    3    0    0 -0.25689383902E+02  0.72890297983E+02 -0.24536939503E+02  0.81086382244E+02  0.00000000000E+00 0.  1.
         13    1    3    3    0    0  0.56599583310E+02  0.56167600188E+02  0.91617889611E+01  0.80263631358E+02  0.00000000000E+00 0. -1.
          1    1    1    2  501    0 -0.61917445894E+02 -0.51296485996E+02 -0.16858347705E+02  0.82154144563E+02  0.00000000000E+00 0. -1.
<scales pt_clust_5="13000.00000" pt_clust_6="13000.00000" pt_clust_7="13000.00000" pt_clust_8="13000.00000" pt_clust_9="80.40588"></scales>
<clustering>
<clus scale="   78.481">  5  6 -1 -1</clus>
<clus scale="   80.406">  2  9  1 -1</clus>
<clus scale="   90.477">  7  8 -1 -1</clus>
<clus scale="  131.890">  2  5  1 -1</clus>
<clus scale="   80.406">  2  5  1 -1</clus>
</clustering>
</event>
<event>
 9    2  0.6469128E-005  0.2042018E+03  0.7546771E-02  0.1173526E+00
         21   -1    0    0  501  502  0.00000000000E+00  0.00000000000E+00  0.40543321680E+03  0.40543321680E+03  0.00000000000E+00 0. -1.
          2   -1    0    0  502    0 -0.00000000000E+00 -0.00000000000E+00 -0.24915144369E+03  0.24915144369E+03  0.00000000000E+00 0. -1.
         24    2    1    2    0    0  0.60599157181E+02 -0.41739539789E+02 -0.11694597988E+03  0.15930572581E+03  0.79293789368E+02 0.  0.
         23    2    1    2    0    0  0.73878841379E+02  0.16969599326E+03  0.65868225992E+02  0.21697126408E+03  0.92103707348E+02 0.  0.
        -11    1    3    3    0    0 -0.18006206651E+02 -0.18820421239E+02 -0.33002348915E+02  0.42042677929E+02  0.00000000000E+00 0.  1.
         12    1    3    3    0    0  0.78605363832E+02 -0.22919118550E+02 -0.83943630965E+02  0.11726304788E+03  0.00000000000E+00 0. -1.
        -13    1    4    4    0    0  0.80333329561E+02  0.11399491154E+03  0.13266239820E+02  0.14008667608E+03  0.00000000000E+00 0.  1.
         13    1    4    4    0    0 -0.64544881827E+01  0.55701081723E+02  0.52601986171E+02  0.76884588001E+02  0.00000000000E+00 0. -1.
          1    1    1    2  501    0 -0.13447799856E+03 -0.12795645347E+03  0.20735952699E+03  0.27830767060E+03  0.00000000000E+00 0. -1.
<scales pt_clust_5="13000.00000" pt_clust_6="13000.00000" pt_clust_7="13000.00000" pt_clust_8="13000.00000" pt_clust_9="182.25063"></scales>
<clustering>
<clus scale="   79.294">  5  6 -1 -1</clus>
<clus scale="   92.104">  7  8 -1 -1</clus>
<clus scale="  108.176">  2  5  1 -1</clus>
<clus scale="  182.251">  1  9  2 -1</clus>
<clus scale="  182.251">  1  5  2 -1</clus>
</clustering>
</event>
<event>
 9    2  0.6469128E-005  0.1317591E+03  0.7546771E-02  0.1241672E+00
          2   -1    0    0  502    0 -0.00000000000E+00  0.00000000000E+00  0.78455062240E+03  0.78455062240E+03  0.00000000000E+00 0. -1.
         21   -1    0    0  501  502  0.00000000000E+00 -0.00000000000E+00 -0.37702215986E+02  0.37702215986E+02  0.00000000000E+00 0. -1.
         24    2    1    2    0    0 -0.16048892557E+00 -0.43642669221E+02  0.10879516311E+03  0.14332498985E+03  0.82467914155E+02 0.  0.
         23    2    1    2    0    0  0.86114436024E+02  0.11074808662E+01  0.29139742434E+03  0.31925079882E+03  0.97937179004E+02 0.  0.
        -11    1    3    3    0    0 -0.11575867135E+02  0.22352575239E+02  0.40385016507E+02  0.47587686202E+02  0.00000000000E+00 0.  1.
         12    1    3    3    0    0  0.11415378210E+02 -0.65995244460E+02  0.68410146602E+02  0.95737303644E+02  0.00000000000E+00 0. -1.
        -13    1    4    4    0    0  0.98478464260E+02 -0.15278900487E+02  0.27643214454E+03  0.29384721073E+03  0.00000000000E+00 0. -1.
         13    1    4    4    0    0 -0.12364028237E+02  0.16386381354E+02  0.14965279799E+02  0.25403588084E+02  0.00000000000E+00 0.  1.
          1    1    1    2  501    0 -0.85953947098E+02  0.42535188355E+02  0.34665581897E+03  0.35967704973E+03  0.00000000000E+00 0. -1.
<scales pt_clust_5="13000.00000" pt_clust_6="13000.00000" pt_clust_7="13000.00000" pt_clust_8="13000.00000" pt_clust_9="88.14074"></scales>
<clustering>
<clus scale="   82.468">  5  6 -1 -1</clus>
<clus scale="   93.304">  1  5  2 -1</clus>
<clus scale="   88.141">  2  9  1 -1</clus>
<clus scale="   97.937">  7  8 -1 -1</clus>
<clus scale="   88.141">  2  5  1 -1</clus>
</clustering>
</event>
<event>
 9    2  0.6469128E-005  0.1036803E+03  0.7546771E-02  0.1278032E+00
         -1   -1    0    0    0  501 -0.00000000000E+00  0.00000000000E+00  0.30413642009E+03  0.30413642009E+03  0.00000000000E+00 0.  1.
         21   -1    0    0  501  502  0.00000000000E+00 -0.00000000000E+00 -0.10124282600E+03  0.10124282600E+03  0.00000000000E+00 0. -1.
         24    2    1    2    0    0  0.11203312776E+02  0.22531357112E+02  0.13003220250E+03  0.16598891592E+03  0.10005383675E+03 0.  0.
         23    2    1    2    0    0  0.66157555890E+02 -0.42528167826E+02 -0.15497642303E+02  0.12026058868E+03  0.89649121653E+02 0.  0.
        -13    1    3    3    0    0 -0.11581581716E+02  0.43753508737E+02  0.12685803452E+03  0.13469025015E+03  0.00000000000E+00 0.  1.
         14    1    3    3    0    0  0.22784894492E+02 -0.21222151625E+02  0.31741679824E+01  0.31298665770E+02  0.00000000000E+00 0. -1.
        -11    1    4    4    0    0  0.32222621886E+02  0.19112430364E+02  0.18873863378E+02  0.41950030684E+02  0.00000000000E+00 0.  1.
         11    1    4    4    0    0  0.33934934004E+02 -0.61640598190E+02 -0.34371505680E+02  0.78310557997E+02  0.00000000000E+00 0. -1.
         -2    1    1    2    0  502 -0.77360868665E+02  0.19996810714E+02  0.88359033884E+02  0.11912974149E+03  0.00000000000E+00 0.  1.
<scales pt_clust_5="13000.00000" pt_clust_6="13000.00000" pt_clust_7="13000.00000" pt_clust_8="13000.00000" pt_clust_9="79.90358"></scales>
<clustering>
<clus scale="   79.904">  2  9  1 -1</clus>
<clus scale="   89.649">  7  8 -1 -1</clus>
<clus scale="   93.679">  2  7  1 -1</clus>
<clus scale="  100.054">  5  6 -1 -1</clus>
<clus scale="   79.904">  2  5  1 -1</clus>
</clustering>
</event>
<event>
 9    2  0.6469128E-005  0.1076150E+03  0.7546771E-02  0.1271142E+00
          2   -1    0    0  502    0 -0.00000000000E+00  0.00000000000E+00  0.68208742048E+03  0.68208742048E+03  0.00000000000E+00 0. -1.
         21   -1    0    0  501  502  0.00000000000E+00 -0.00000000000E+00 -0.29867237192E+02  0.29867237192E+02  0.00000000000E+00 0. -1.
         23    2    1    2    0    0 -0.80805529701E+01 -0.36278007943E+02  0.24614173144E+03  0.26592442795E+03  0.93534272995E+02 0.  0.
         24    2    1    2    0    0  0.25248336159E+02  0.78374279900E+02  0.16553972214E+03  0.20123294751E+03  0.79443648759E+02 0.  0.
        -11    1    4    4    0    0  0.34201226709E+02  0.89083257541E+02  0.15983759483E+03  0.18615479420E+03  0.00000000000E+00 0.  1.
         12    1    4    4    0    0 -0.89528905496E+01 -0.10708977641E+02  0.57021273082E+01  0.15078153307E+02  0.00000000000E+00 0. -1.
        -11    1    3    3    0    0 -0.28513771335E+02 -0.55983603686E+02  0.21404751408E+03  0.22307742450E+03  0.00000000000E+00 0.  1.
         11    1    3    3    0    0  0.20433218365E+02  0.19705595743E+02  0.32094217364E+02  0.42847003449E+02  0.00000000000E+00 0. -1.
          1    1    1    2  501    0 -0.17167783189E+02 -0.42096271957E+02  0.24053872971E+03  0.24479728222E+03  0.00000000000E+00 0. -1.
<scales pt_clust_5="13000.00000" pt_clust_6="13000.00000" pt_clust_7="13000.00000" pt_clust_8="13000.00000" pt_clust_9="45.46241"></scales>
<clustering>
<clus scale="   45.462">  2  9  1 -1</clus>
<clus scale="   79.444">  5  6 -1 -1</clus>
<clus scale="   93.534">  7  8 -1 -1</clus>
<clus scale="   95.622">  2  5  1 -1</clus>
<clus scale="   45.462">  2  5  1 -1</clus>
</clustering>
</event>
<event>
 9    2  0.6469128E-005  0.2693604E+03  0.7546771E-02  0.1133253E+00
         21   -1    0    0  501  502  0.00000000000E+00  0.00000000000E+00  0.31837858564E+03  0.31837858564E+03  0.00000000000E+00 0. -1.
          2   -1    0    0  502    0 -0.00000000000E+00 -0.00000000000E+00 -0.36975556755E+03  0.36975556755E+03  0.00000000000E+00 0. -1.
         24    2    1    2    0    0 -0.90710261764E+02 -0.17831188023E+02 -0.59260034065E+01  0.12186639364E+03  0.79183315958E+02 0.  0.
         23    2    1    2    0    0  0.11731929628E+03 -0.23586590124E+03 -0.11637612002E+03  0.30150252484E+03  0.89240296539E+02 0.  0.
        -13    1    3    3    0    0 -0.19034978445E+02 -0.28338096856E+02 -0.30085218207E+02  0.45502730604E+02  0.00000000000E+00 0.  1.
         14    1    3    3    0    0 -0.71675283318E+02  0.10506908833E+02  0.24159214800E+02  0.76363663033E+02  0.00000000000E+00 0. -1.
        -13    1    4    4    0    0  0.89750934153E+02 -0.10230478930E+03 -0.27854093676E+02  0.13891490427E+03  0.00000000000E+00 0.  1.
         13    1    4    4    0    0  0.27568362124E+02 -0.13356111194E+03 -0.88522026340E+02  0.16258762056E+03  0.00000000000E+00 0. -1.
          1    1    1    2  501    0 -0.26609034514E+02  0.25369708926E+03  0.70925141515E+02  0.26476523472E+03  0.00000000000E+00 0. -1.
<scales pt_clust_5="13000.00000" pt_clust_6="13000.00000" pt_clust_7="13000.00000" pt_clust_8="13000.00000" pt_clust_9="254.14793"></scales>
<clustering>
<clus scale="   79.183">  5  6 -1 -1</clus>
<clus scale="   89.240">  7  8 -1 -1</clus>
<clus scale="  121.722">  2  5  1 -1</clus>
<clus scale="  254.148">  1  9  2 -1</clus>
<clus scale="  254.148">  1  5  2 -1</clus>
</clustering>
</event>
<event>
 9    2  0.6469128E-005  0.1113004E+03  0.7546771E-02  0.1261802E+00
          2   -1    0    0  502    0 -0.00000000000E+00  0.00000000000E+00  0.47859470344E+03  0.47859470344E+03  0.00000000000E+00 0. -1.
         21   -1    0    0  501  502  0.00000000000E+00 -0.00000000000E+00 -0.13475989689E+03  0.13475989689E+03  0.00000000000E+00 0. -1.
         23    2    1    2    0    0 -0.36088124022E+02  0.51259706905E+02  0.37626126368E+03  0.39217077644E+03  0.91079465858E+02 0.  0.
         24    2    1    2    0    0 -0.62952798794E+00 -0.82422363849E+02  0.49557946482E+02  0.12610102001E+03  0.81557555265E+02 0.  0.
        -13    1    4    4    0    0  0.15642545864E+01 -0.64565734178E+02 -0.86636077789E+01  0.65163172284E+02  0.00000000000E+00 0.  1.
         14    1    4    4    0    0 -0.21937825743E+01 -0.17856629670E+02  0.58221554261E+02  0.60937847728E+02  0.00000000000E+00 0. -1.
        -13    1    3    3    0    0 -0.47284224562E+02 -0.99571792530E+01  0.16127295470E+03  0.16835649447E+03  0.00000000000E+00 0.  1.
         13    1    3    3    0    0  0.11196100539E+02  0.61216886158E+02  0.21498830898E+03  0.22381428198E+03  0.00000000000E+00 0. -1.
          1    1    1    2  501    0  0.36717652010E+02  0.31162656944E+02 -0.81984403618E+02  0.95082803879E+02  0.00000000000E+00 0. -1.
<scales pt_clust_5="13000.00000" pt_clust_6="13000.00000" pt_clust_7="13000.00000" pt_clust_8="13000.00000" pt_clust_9="48.15908"></scales>
<clustering>
<clus scale="   48.159">  2  9  1 -1</clus>
<clus scale="   81.558">  5  6 -1 -1</clus>
<clus scale="   91.079">  7  8 -1 -1</clus>
<clus scale="  103.653">  2  5  1 -1</clus>
<clus scale="   48.159">  2  5  1 -1</clus>
</clustering>
</event>
<event>
 9    2  0.6469128E-005  0.1062203E+03  0.7546771E-02  0.1273606E+00
         21   -1    0    0  501  502  0.00000000000E+00  0.00000000000E+00  0.25263863075E+02  0.25263863075E+02  0.00000000000E+00 0.  1.
          2   -1    0    0  502    0 -0.00000000000E+00 -0.00000000000E+00 -0.69006637408E+03  0.69006637408E+03  0.00000000000E+00 0. -1.
         24    2    1    2    0    0  0.32126304712E+02  0.38573577876E+02 -0.46227356761E+03  0.47161851416E+03  0.78785475967E+02 0.  0.
         23    2    1    2    0    0 -0.53308316210E+02 -0.34567363798E+02 -0.18350255254E+03  0.21495879425E+03  0.92181436425E+02 0.  0.
        -13    1    3    3    0    0 -0.16936240461E+02  0.20329990273E+02 -0.55433457074E+02  0.61424855788E+02  0.00000000000E+00 0.  1.
         14    1    3    3    0    0  0.49062545173E+02  0.18243587603E+02 -0.40684011053E+03  0.41019365837E+03  0.00000000000E+00 0. -1.
        -13    1    4    4    0    0 -0.30996312532E+02  0.21968837478E+02 -0.25733186642E+02  0.45886796636E+02  0.00000000000E+00 0.  1.
         13    1    4    4    0    0 -0.22312003678E+02 -0.56536201276E+02 -0.15776936589E+03  0.16907199761E+03  0.00000000000E+00 0. -1.
          1    1    1    2  501    0  0.21182011498E+02 -0.40062140786E+01 -0.19026390864E+02  0.28752928749E+02  0.00000000000E+00 0. -1.
<scales pt_clust_5="13000.00000" pt_clust_6="13000.00000" pt_clust_7="13000.00000" pt_clust_8="13000.00000" pt_clust_9="21.55754"></scales>
<clustering>
<clus scale="   21.558">  1  9  2 -1</clus>
<clus scale="   78.785">  5  6 -1 -1</clus>
<clus scale="   92.181">  7  8 -1 -1</clus>
<clus scale="   94.829">  2  5  1 -1</clus>
<clus scale="   21.558">  1  5  2 -1</clus>
</clustering>
</event>
<event>
 9    2  0.6469128E-005  0.1469486E+03  0.7546771E-02  0.1208915E+00
          2   -1    0    0  502    0 -0.00000000000E+00  0.00000000000E+00  0.52621563213E+03  0.52621563213E+03  0.00000000000E+00 0. -1.
         21   -1    0    0  501  502  0.00000000000E+00 -0.00000000000E+00 -0.88958416294E+02  0.88958416294E+02  0.00000000000E+00 0. -1.
         24    2    1    2    0    0  0.76717442883E+02 -0.70779003629E+02  0.16794232211E+03  0.21317986779E+03  0.79660523973E+02 0.  0.
         23    2    1    2    0    0 -0.14289954210E+03 -0.30147687802E+02  0.16399402438E+03  0.24181068329E+03  0.10123835396E+03 0.  0.
        -11    1    3    3    0    0  0.21817816393E+02 -0.36419939359E+02  0.13295437964E+03  0.13956824912E+03  0.00000000000E+00 0.  1.
         12    1    3    3    0    0  0.54899626490E+02 -0.34359064270E+02  0.34987942468E+02  0.73611618679E+02  0.00000000000E+00 0. -1.
        -13    1    4    4    0    0 -0.10070298145E+03  0.21699482566E+02  0.63174761588E+02  0.12084290843E+03  0.00000000000E+00 0. -1.
         13    1    4    4    0    0 -0.42196560648E+02 -0.51847170368E+02  0.10081926279E+03  0.12096777486E+03  0.00000000000E+00 0.  1.
          1    1    1    2  501    0  0.66182099212E+02  0.10092669143E+03  0.10532086935E+03  0.16018349734E+03  0.00000000000E+00 0. -1.
<scales pt_clust_5="13000.00000" pt_clust_6="13000.00000" pt_clust_7="13000.00000" pt_clust_8="13000.00000" pt_clust_9="120.69079"></scales>
<clustering>
<clus scale="   79.661">  5  6 -1 -1</clus>
<clus scale="  101.238">  7  8 -1 -1</clus>
<clus scale="  120.691">  2  9  1 -1</clus>
<clus scale="  133.006">  1  5  2 -1</clus>
<clus scale="  120.691">  2  5  1 -1</clus>
</clustering>
</event>
<event>
 9    2  0.6469128E-005  0.1434947E+03  0.7546771E-02  0.1218773E+00
          2   -1    0    0  502    0 -0.00000000000E+00  0.00000000000E+00  0.73480740075E+03  0.73480740075E+03  0.00000000000E+00 0. -1.
         21   -1    0    0  501  502  0.00000000000E+00 -0.00000000000E+00 -0.55639435226E+02  0.55639435226E+02  0.00000000000E+00 0. -1.
         23    2    1    2    0    0  0.33218855476E+02 -0.63165763371E+02  0.11144978994E+03  0.16078114662E+03  0.91302329709E+02 0.  0.
         24    2    1    2    0    0  0.98651530131E+02  0.58443717822E+01  0.29538910657E+03  0.32170682463E+03  0.80462883694E+02 0.  0.
        -13    1    4    4    0    0  0.23524165331E+02 -0.24404874230E+02  0.33805478376E+02  0.47872691682E+02  0.00000000000E+00 0.  1.
         14    1    4    4    0    0  0.75127364800E+02  0.30249246012E+02  0.26158362820E+03  0.27383413295E+03  0.00000000000E+00 0. -1.
        -13    1    3    3    0    0  0.32613308003E+02  0.15894460584E+02  0.42472683688E+02  0.55858666255E+02  0.00000000000E+00 0.  1.
         13    1    3    3    0    0  0.60554747290E+00 -0.79060223955E+02  0.68977106253E+02  0.10492248037E+03  0.00000000000E+00 0. -1.
          1    1    1    2  501    0 -0.13187038561E+03  0.57321391589E+02  0.27232906901E+03  0.30795886472E+03  0.00000000000E+00 0. -1.
<scales pt_clust_5="13000.00000" pt_clust_6="13000.00000" pt_clust_7="13000.00000" pt_clust_8="13000.00000" pt_clust_9="118.81268"></scales>
<clustering>
<clus scale="   80.463">  5  6 -1 -1</clus>
<clus scale="   91.302">  7  8 -1 -1</clus>
<clus scale="  115.886">  1  7  2 -1</clus>
<clus scale="  118.813">  2  9  1 -1</clus>
<clus scale="  118.813">  2  5  1 -1</clus>
</clustering>
</event>
<event>
 9    2  0.6469128E-005  0.2049495E+03  0.7546771E-02  0.1147299E+00
         21   -1    0    0  501  502  0.00000000000E+00  0.00000000000E+00  0.65172907993E+02  0.65172907993E+02  0.00000000000E+00 0. -1.
          2   -1    0    0  502    0 -0.00000000000E+00 -0.00000000000E+00 -0.16371323864E+04  0.16371323864E+04  0.00000000000E+00 0. -1.
         24    2    1    2    0    0  0.15133898668E+03  0.13512719064E+03 -0.96562989049E+03  0.99242300111E+03  0.10629901780E+03 0.  0.
         23    2    1    2    0    0  0.19653486028E+02 -0.17122031709E+03 -0.31423640891E+03  0.36950079448E+03  0.89909176075E+02 0.  0.
        -11    1    3    3    0    0 -0.15049255377E+02  0.24249738645E+02 -0.99391952932E+02  0.10340836629E+03  0.00000000000E+00 0.  1.
         12    1    3    3    0    0  0.16638824205E+03  0.11087745200E+03 -0.86623793755E+03  0.88901463481E+03  0.00000000000E+00 0. -1.
        -11    1    4    4    0    0  0.43019622747E+02 -0.13847704358E+03 -0.19062407550E+03  0.23950807440E+03  0.00000000000E+00 0. -1.
         11    1    4    4    0    0 -0.23366136719E+02 -0.32743273510E+02 -0.12361233341E+03  0.12999272009E+03  0.00000000000E+00 0.  1.
          1    1    1    2  501    0 -0.17099247270E+03  0.36093126449E+02 -0.29209317898E+03  0.34038149877E+03  0.00000000000E+00 0. -1.
<scales pt_clust_5="13000.00000" pt_clust_6="13000.00000" pt_clust_7="13000.00000" pt_clust_8="13000.00000" pt_clust_9="174.76023"></scales>
<clustering>
<clus scale="   89.909">  7  8 -1 -1</clus>
<clus scale="  106.299">  5  6 -1 -1</clus>
<clus scale="  174.760">  1  9  2 -1</clus>
<clus scale="  196.948">  1  7  2 -1</clus>
<clus scale="  174.760">  1  5  2 -1</clus>
</clustering>
</event>
<event>
 9    2  0.6469128E-005  0.1072562E+03  0.7546771E-02  0.1270373E+00
         21   -1    0    0  501  502  0.00000000000E+00  0.00000000000E+00  0.13035626621E+03  0.13035626621E+03  0.00000000000E+00 0. -1.
          2   -1    0    0  502    0 -0.00000000000E+00 -0.00000000000E+00 -0.39886558808E+03  0.39886558808E+03  0.00000000000E+00 0. -1.
         24    2    1    2    0    0 -0.61277978650E+02 -0.12421737682E+02 -0.31740381943E+03  0.33342469958E+03  0.80731378447E+02 0.  0.
         23    2    1    2    0    0  0.18692218827E+02  0.28588106657E+02 -0.31994005219E+02  0.10296478801E+03  0.91713970108E+02 0.  0.
        -11    1    3    3    0    0  0.49849163409E+01  0.20068905301E+02 -0.28299500943E+02  0.35049566396E+02  0.00000000000E+00 0.  1.
         12    1    3    3    0    0 -0.66262894991E+02 -0.32490642983E+02 -0.28910431848E+03  0.29837513318E+03  0.00000000000E+00 0. -1.
        -13    1    4    4    0    0  0.22750234107E+02 -0.22741518715E+02 -0.39488733299E+02  0.50932405037E+02  0.00000000000E+00 0.  1.
         13    1    4    4    0    0 -0.40580152799E+01  0.51329625371E+02  0.74947280802E+01  0.52032382972E+02  0.00000000000E+00 0. -1.
          1    1    1    2  501    0  0.42585759824E+02 -0.16166368975E+02  0.80888502779E+02  0.92832366701E+02  0.00000000000E+00 0. -1.
<scales pt_clust_5="13000.00000" pt_clust_6="13000.00000" pt_clust_7="13000.00000" pt_clust_8="13000.00000" pt_clust_9="45.55105"></scales>
<clustering>
<clus scale="   45.551">  1  9  2 -1</clus>
<clus scale="   80.731">  5  6 -1 -1</clus>
<clus scale="   91.714">  7  8 -1 -1</clus>
<clus scale="   98.031">  2  5  1 -1</clus>
<clus scale="   45.551">  1  5  2 -1</clus>
</clustering>
</event>
<event>
 9    2  0.6469128E-005  0.9208006E+02  0.7546771E-02  0.1300578E+00
          2   -1    0    0  502    0 -0.00000000000E+00  0.00000000000E+00  0.25483146311E+03  0.25483146311E+03  0.00000000000E+00 0. -1.
         21   -1    0    0  501  502  0.00000000000E+00 -0.00000000000E+00 -0.13016891989E+03  0.13016891989E+03  0.00000000000E+00 0. -1.
         24    2    1    2    0    0  0.23543709387E+02  0.18669201230E+02  0.14387191050E+03  0.17078096711E+03  0.86972218381E+02 0.  0.
         23    2    1    2    0    0  0.47269713620E+02  0.11140194309E+02  0.46127634015E+02  0.11336276177E+03  0.91459430249E+02 0.  0.
        -11    1    3    3    0    0 -0.11125791191E+02  0.46012478910E+02  0.65322554230E+02  0.80671974912E+02  0.00000000000E+00 0.  1.
         12    1    3    3    0    0  0.34669500579E+02 -0.27343277680E+02  0.78549356270E+02  0.90108992199E+02  0.00000000000E+00 0. -1.
        -13    1    4    4    0    0 -0.16814655310E+02 -0.18831234704E+02 -0.54293451447E+01  0.25822970828E+02  0.00000000000E+00 0.  1.
         13    1    4    4    0    0  0.64084368930E+02  0.29971429012E+02  0.51556979160E+02  0.87539790943E+02  0.00000000000E+00 0. -1.
          1    1    1    2  501    0 -0.70813423007E+02 -0.29809395539E+02 -0.65337001298E+02  0.10085665411E+03  0.00000000000E+00 0. -1.
<scales pt_clust_5="13000.00000" pt_clust_6="13000.00000" pt_clust_7="13000.00000" pt_clust_8="13000.00000" pt_clust_9="76.83190"></scales>
<clustering>
<clus scale="   76.832">  2  9  1 -1</clus>
<clus scale="   86.972">  5  6 -1 -1</clus>
<clus scale="   87.625">  1  5  2 -1</clus>
<clus scale="   91.459">  7  8 -1 -1</clus>
<clus scale="   76.832">  2  5  1 -1</clus>
</clustering>
</event>
<event>
 9    2  0.6469128E-005  0.1374971E+03  0.7546771E-02  0.1220465E+00
          2   -1    0    0  502    0 -0.00000000000E+00  0.00000000000E+00  0.69431798182E+03  0.69431798182E+03  0.00000000000E+00 0. -1.
         21   -1    0    0  501  502  0.00000000000E+00 -0.00000000000E+00 -0.42614453396E+03  0.42614453396E+03  0.00000000000E+00 0.  1.
         24    2    1    2    0    0  0.40110415114E+02  0.89521317100E+02  0.38322574172E+03  0.40375925951E+03  0.80849606712E+02 0.  0.
         23    2    1    2    0    0 -0.41236547342E+02  0.91151118295E+02 -0.37578405254E+03  0.39948905881E+03  0.91481554196E+02 0.  0.
        -13    1    3    3    0    0  0.54035954229E+02  0.24866335560E+02  0.15082398440E+03  0.16212986543E+03  0.00000000000E+00 0.  1.
         14    1    3    3    0    0 -0.13925539115E+02  0.64654981540E+02  0.23240175732E+03  0.24162939408E+03  0.00000000000E+00 0. -1.
        -13    1    4    4    0    0  0.66665893668E+01  0.77017204168E+02 -0.29094853155E+03  0.30104342072E+03  0.00000000000E+00 0.  1.
         13    1    4    4    0    0 -0.47903136709E+02  0.14133914127E+02 -0.84835520998E+02  0.98445638086E+02  0.00000000000E+00 0. -1.
          1    1    1    2  501    0  0.11261322281E+01 -0.18067243540E+03  0.26073175869E+03  0.31721419747E+03  0.00000000000E+00 0. -1.
<scales pt_clust_5="13000.00000" pt_clust_6="13000.00000" pt_clust_7="13000.00000" pt_clust_8="13000.00000" pt_clust_9="102.64792"></scales>
<clustering>
<clus scale="   80.850">  5  6 -1 -1</clus>
<clus scale="   91.482">  7  8 -1 -1</clus>
<clus scale="  127.120">  1  5  2 -1</clus>
<clus scale="  102.648">  2  9  1 -1</clus>
<clus scale="  102.648">  2  5  1 -1</clus>
</clustering>
</event>
<event>
 9    2  0.6469128E-005  0.3545394E+03  0.7546771E-02  0.1061705E+00
         21   -1    0    0  501  502  0.00000000000E+00  0.00000000000E+00  0.19062484441E+04  0.19062484441E+04  0.00000000000E+00 0. -1.
         -1   -1    0    0    0  501 -0.00000000000E+00 -0.00000000000E+00 -0.11427002803E+03  0.11427002803E+03  0.00000000000E+00 0.  1.
         24    2    1    2    0    0 -0.74548945276E+02 -0.31250999408E+03  0.30468567388E+03  0.45025978666E+03  0.81734166461E+02 0.  0.
         23    2    1    2    0    0  0.31120834564E+02  0.38894706493E+03  0.13208895217E+04  0.13820602307E+04  0.11442476580E+03 0.  0.
        -13    1    3    3    0    0 -0.43634288205E+02 -0.76573469286E+02  0.48434957986E+02  0.10056536412E+03  0.00000000000E+00 0.  1.
         14    1    3    3    0    0 -0.30914657071E+02 -0.23593652480E+03  0.25625071590E+03  0.34969442253E+03  0.00000000000E+00 0. -1.
        -13    1    4    4    0    0  0.14939097336E+02  0.23278064615E+03  0.96991781797E+03  0.99757234298E+03  0.00000000000E+00 0. -1.
         13    1    4    4    0    0  0.16181737228E+02  0.15616641878E+03  0.35097170375E+03  0.38448788773E+03  0.00000000000E+00 0.  1.
         -2    1    1    2    0  502  0.43428110712E+02 -0.76437070851E+02  0.16640322049E+03  0.18819845480E+03  0.00000000000E+00 0.  1.
<scales pt_clust_5="13000.00000" pt_clust_6="13000.00000" pt_clust_7="13000.00000" pt_clust_8="13000.00000" pt_clust_9="87.91265"></scales>
<clustering>
<clus scale="   81.734">  5  6 -1 -1</clus>
<clus scale="   87.913">  1  9  2 -1</clus>
<clus scale="  114.425">  7  8 -1 -1</clus>
<clus scale="  345.378">  2  5  1 -1</clus>
<clus scale="   87.913">  1  5  2 -1</clus>
</clustering>
</event>
<event>
 9    2  0.6469128E-005  0.1768679E+03  0.7546771E-02  0.1172463E+00
         21   -1    0    0  501  502  0.00000000000E+00  0.00000000000E+00  0.10146352834E+03  0.10146352834E+03  0.00000000000E+00 0. -1.
          2   -1    0    0  502    0 -0.00000000000E+00 -0.00000000000E+00 -0.71093441281E+03  0.71093441281E+03  0.00000000000E+00 0. -1.
         24    2    1    2    0    0  0.10764049365E+03 -0.95951636288E+02 -0.35543690958E+03  0.39149873466E+03  0.78375188445E+02 0.  0.
         23    2    1    2    0    0 -0.16494244345E+03  0.88999884434E+02 -0.57785613322E+02  0.21633806716E+03  0.91301659983E+02 0.  0.
        -13    1    3    3    0    0  0.33029761778E+02 -0.55885871627E+01 -0.27787471454E+02  0.43524028300E+02  0.00000000000E+00 0.  1.
         14    1    3    3    0    0  0.74610731867E+02 -0.90363049126E+02 -0.32764943813E+03  0.34797470636E+03  0.00000000000E+00 0. -1.
        -11    1    4    4    0    0 -0.65798357588E+02  0.10184881307E+02 -0.60052916293E+02  0.89663305894E+02  0.00000000000E+00 0.  1.
         11    1    4    4    0    0 -0.99144085862E+02  0.78815003128E+02  0.22673029715E+01  0.12667476127E+03  0.00000000000E+00 0. -1.
          1    1    1    2  501    0  0.57301949805E+02  0.69517518541E+01 -0.19624836157E+03  0.20456113933E+03  0.00000000000E+00 0. -1.
<scales pt_clust_5="13000.00000" pt_clust_6="13000.00000" pt_clust_7="13000.00000" pt_clust_8="13000.00000" pt_clust_9="57.72212"></scales>
<clustering>
<clus scale="   57.722">  1  9  2 -1</clus>
<clus scale="   78.375">  5  6 -1 -1</clus>
<clus scale="   91.302">  7  8 -1 -1</clus>
<clus scale="  170.555">  2  5  1 -1</clus>
<clus scale="   57.722">  1  5  2 -1</clus>
</clustering>
</event>
<event>
 9    2  0.6469128E-005  0.9644235E+02  0.7546771E-02  0.1296384E+00
          2   -1    0    0  502    0 -0.00000000000E+00  0.00000000000E+00  0.12841695472E+03  0.12841695472E+03  0.00000000000E+00 0. -1.
         21   -1    0    0  501  502  0.00000000000E+00 -0.00000000000E+00 -0.26815454729E+03  0.26815454729E+03  0.00000000000E+00 0.  1.
         23    2    1    2    0    0  0.23146902685E+02  0.19708944684E+02  0.63931627761E+02  0.11734758943E+03  0.93589433765E+02 0.  0.
         24    2    1    2    0    0  0.54400612214E+02 -0.15915669002E+02 -0.16721811264E+03  0.19345276790E+03  0.79052774056E+02 0.  0.
        -11    1    4    4    0    0  0.16047138069E+02 -0.35256878468E+02 -0.13302585065E+03  0.13855120015E+03  0.00000000000E+00 0.  1.
         12    1    4    4    0    0  0.38353474144E+02  0.19341209466E+02 -0.34192261982E+02  0.54901567756E+02  0.00000000000E+00 0. -1.
        -11    1    3    3    0    0 -0.23346327079E+02 -0.24509586576E+02  0.17186658479E+02  0.37962508503E+02  0.00000000000E+00 0. -1.
         11    1    3    3    0    0  0.46493229764E+02  0.44218531260E+02  0.46744969281E+02  0.79385080927E+02  0.00000000000E+00 0.  1.
          1    1    1    2  501    0 -0.77547514899E+02 -0.37932756820E+01 -0.36451107694E+02  0.85771144678E+02  0.00000000000E+00 0. -1.
<scales pt_clust_5="13000.00000" pt_clust_6="13000.00000" pt_clust_7="13000.00000" pt_clust_8="13000.00000" pt_clust_9="77.64023"></scales>
<clustering>
<clus scale="   77.640">  2  9  1 -1</clus>
<clus scale="   79.053">  5  6 -1 -1</clus>
<clus scale="   82.410">  2  5  1 -1</clus>
<clus scale="   93.589">  7  8 -1 -1</clus>
<clus scale="   77.640">  2  5  1 -1</clus>
</clustering>
</event>
<event>
 9    2  0.6469128E-005  0.1104474E+03  0.7546771E-02  0.1263536E+00
          2   -1    0    0  502    0 -0.00000000000E+00  0.00000000000E+00  0.10494210311E+03  0.10494210311E+03  0.00000000000E+00 0. -1.
         21   -1    0    0  501  502  0.00000000000E+00 -0.00000000000E+00 -0.20838638483E+03  0.20838638483E+03  0.00000000000E+00 0. -1.
         24    2    1    2    0    0 -0.60685964670E+02  0.18624045923E+02  0.30653782942E+02  0.10707778900E+03  0.80599981975E+02 0.  0.
         23    2    1    2    0    0  0.66647338087E+02  0.58126998863E+01 -0.14079299984E+03  0.18022158685E+03  0.90451624678E+02 0.  0.
        -13    1    3    3    0    0 -0.19440224432E+02 -0.26185647684E+02 -0.96931566721E+01  0.34023047437E+02  0.00000000000E+00 0.  1.
         14    1    3    3    0    0 -0.41245740238E+02  0.44809693607E+02  0.40346939614E+02  0.73054741566E+02  0.00000000000E+00 0. -1.
        -13    1    4    4    0    0 -0.15846764828E+02  0.23076404438E+02 -0.40226358525E+02  0.49008165825E+02  0.00000000000E+00 0.  1.
         13    1    4    4    0    0  0.82494102915E+02 -0.17263704552E+02 -0.10056664132E+03  0.13121342102E+03  0.00000000000E+00 0. -1.
          1    1    1    2  501    0 -0.59613734167E+01 -0.24436745810E+02  0.66949351849E+01  0.26029112085E+02  0.00000000000E+00 0. -1.
<scales pt_clust_5="13000.00000" pt_clust_6="13000.00000" pt_clust_7="13000.00000" pt_clust_8="13000.00000" pt_clust_9="25.15339"></scales>
<clustering>
<clus scale="   25.153">  2  9  1 -1</clus>
<clus scale="   80.600">  5  6 -1 -1</clus>
<clus scale="   90.452">  7  8 -1 -1</clus>
<clus scale="  102.535">  1  5  2 -1</clus>
<clus scale="   25.153">  2  5  1 -1</clus>
</clustering>
</event>
<event>
 9    2  0.6469128E-005  0.1531712E+03  0.7546771E-02  0.1198633E+00
          2   -1    0    0  502    0 -0.00000000000E+00  0.00000000000E+00  0.10542548137E+04  0.10542548137E+04  0.00000000000E+00 0. -1.
         21   -1    0    0  501  502  0.00000000000E+00 -0.00000000000E+00 -0.32079269961E+02  0.32079269961E+02  0.00000000000E+00 0.  1.
         24    2    1    2    0    0  0.42120411046E+01  0.11954350414E+03  0.63117717007E+03  0.64720650248E+03  0.78633619824E+02 0.  0.
         23    2    1    2    0    0  0.98449424422E+01 -0.13590831295E+03  0.26541033396E+03  0.31170010584E+03  0.90256956444E+02 0.  0.
        -13    1    3    3    0    0  0.37739606636E+02  0.36697130501E+02  0.27456624887E+03  0.27956677612E+03  0.00000000000E+00 0.  1.
         14    1    3    3    0    0 -0.33527565532E+02  0.82846373635E+02  0.35661092120E+03  0.36763972636E+03  0.00000000000E+00 0. -1.
        -11    1    4    4    0    0  0.38158104777E+02 -0.35343531614E+02  0.13453456402E+03  0.14423853543E+03  0.00000000000E+00 0. -1.
         11    1    4    4    0    0 -0.28313162335E+02 -0.10056478133E+03  0.13087576994E+03  0.16746157041E+03  0.00000000000E+00 0.  1.
          1    1    1    2  501    0 -0.14056983547E+02  0.16364808809E+02  0.12558803967E+03  0.12742747530E+03  0.00000000000E+00 0. -1.
<scales pt_clust_5="13000.00000" pt_clust_6="13000.00000" pt_clust_7="13000.00000" pt_clust_8="13000.00000" pt_clust_9="21.57328"></scales>
<clustering>
<clus scale="   21.573">  2  9  1 -1</clus>
<clus scale="   78.634">  5  6 -1 -1</clus>
<clus scale="   90.257">  7  8 -1 -1</clus>
<clus scale="  146.623">  1  5  2 -1</clus>
<clus scale="   21.573">  2  5  1 -1</clus>
</clustering>
</event>
<event>
 9    2  0.6469128E-005  0.1412304E+03  0.7546771E-02  0.1214516E+00
          2   -1    0    0  502    0 -0.00000000000E+00  0.00000000000E+00  0.63963034991E+03  0.63963034991E+03  0.00000000000E+00 0. -1.
         21   -1    0    0  501  502  0.00000000000E+00 -0.00000000000E+00 -0.40243462073E+02  0.40243462073E+02  0.00000000000E+00 0.  1.
         24    2    1    2    0    0  0.79501350697E+02  0.70003033967E+02  0.22827469209E+03  0.26404150643E+03  0.79923041374E+02 0.  0.
         23    2    1    2    0    0 -0.59266299242E+02 -0.91309978078E+02  0.22425195053E+03  0.26606123091E+03  0.93003413664E+02 0.  0.
        -11    1    3    3    0    0  0.47998582618E+02  0.83055318638E+02  0.18956407640E+03  0.21245373366E+03  0.00000000000E+00 0.  1.
         12    1    3    3    0    0  0.31502768079E+02 -0.13052284671E+02  0.38710615689E+02  0.51587772765E+02  0.00000000000E+00 0. -1.
        -13    1    4    4    0    0 -0.33917345808E+02  0.97472110308E+01  0.85899880459E+02  0.92866484441E+02  0.00000000000E+00 0.  1.
         13    1    4    4    0    0 -0.25348953434E+02 -0.10105718911E+03  0.13835207007E+03  0.17319474647E+03  0.00000000000E+00 0. -1.
          1    1    1    2  501    0 -0.20235051456E+02  0.21306944111E+02  0.14686024522E+03  0.14977107465E+03  0.00000000000E+00 0. -1.
<scales pt_clust_5="13000.00000" pt_clust_6="13000.00000" pt_clust_7="13000.00000" pt_clust_8="13000.00000" pt_clust_9="29.38442"></scales>
<clustering>
<clus scale="   29.384">  2  9  1 -1</clus>
<clus scale="   79.923">  5  6 -1 -1</clus>
<clus scale="   93.003">  7  8 -1 -1</clus>
<clus scale="  132.982">  1  5  2 -1</clus>
<clus scale="   29.384">  2  5  1 -1</clus>
</clustering>
</event>
<event>
 9    2  0.6469128E-005  0.1023506E+03  0.7546771E-02  0.1279426E+00
         21   -1    0    0  501  502  0.00000000000E+00  0.00000000000E+00  0.23193443450E+03  0.23193443450E+03  0.00000000000E+00 0. -1.
          4   -1    0    0  502    0 -0.00000000000E+00 -0.00000000000E+00 -0.17215023922E+03  0.17215023922E+03  0.00000000000E+00 0. -1.
         24    2    1    2    0    0 -0.33115582860E+02 -0.17922595686E+00 -0.54215182727E+02  0.10285994932E+03  0.80896286607E+02 0.  0.
         23    2    1    2    0    0  0.72465720559E+02 -0.30608775612E+02 -0.50365166075E+02  0.12943404441E+03  0.89601027325E+02 0.  0.
        -11    1    3    3    0    0 -0.23301494496E+02 -0.26967501200E+02  0.60809443024E+01  0.36154994818E+02  0.00000000000E+00 0.  1.
         12    1    3    3    0    0 -0.98140883633E+01  0.26788275243E+02 -0.60296127030E+02  0.66704954506E+02  0.00000000000E+00 0. -1.
        -13    1    4    4    0    0  0.83631209925E+02  0.22401720819E+01 -0.28304083534E+02  0.88319413434E+02  0.00000000000E+00 0. -1.
         13    1    4    4    0    0 -0.11165489366E+02 -0.32848947693E+02 -0.22061082540E+02  0.41114630975E+02  0.00000000000E+00 0.  1.
          3    1    1    2  501    0 -0.39350137699E+02  0.30788001568E+02  0.16436454408E+03  0.17179067998E+03  0.00000000000E+00 0. -1.
<scales pt_clust_5="13000.00000" pt_clust_6="13000.00000" pt_clust_7="13000.00000" pt_clust_8="13000.00000" pt_clust_9="49.96333"></scales>
<clustering>
<clus scale="   49.963">  1  9  2 -1</clus>
<clus scale="   80.896">  5  6 -1 -1</clus>
<clus scale="   89.601">  7  8 -1 -1</clus>
<clus scale="   94.824">  2  5  1 -1</clus>
<clus scale="   49.963">  1  5  2 -1</clus>
</clustering>
</event>
<event>
 9    2  0.6469128E-005  0.9533070E+02  0.7546771E-02  0.1296558E+00
          2   -1    0    0  502    0 -0.00000000000E+00  0.00000000000E+00  0.18687361848E+02  0.18687361848E+02  0.00000000000E+00 0. -1.
         21   -1    0    0  501  502  0.00000000000E+00 -0.00000000000E+00 -0.58980217660E+03  0.58980217660E+03  0.00000000000E+00 0.  1.
         24    2    1    2    0    0 -0.52903381244E+01 -0.10730629832E+02 -0.17550695341E+03  0.19447421905E+03  0.82911983970E+02 0.  0.
         23    2    1    2    0    0  0.22800214283E+02  0.23700391674E+02 -0.34451682286E+03  0.35847160060E+03  0.93426382047E+02 0.  0.
        -13    1    3    3    0    0  0.29747230720E+02  0.19981049249E+02 -0.59463818920E+02  0.69426837931E+02  0.00000000000E+00 0.  1.
         14    1    3    3    0    0 -0.35037568844E+02 -0.30711679081E+02 -0.11604313449E+03  0.12504738111E+03  0.00000000000E+00 0. -1.
        -11    1    4    4    0    0  0.20787187474E+02  0.55680144237E+02 -0.28229438727E+03  0.28848311339E+03  0.00000000000E+00 0.  1.
         11    1    4    4    0    0  0.20130268088E+01 -0.31979752562E+02 -0.62222435595E+02  0.69988487212E+02  0.00000000000E+00 0. -1.
          1    1    1    2  501    0 -0.17509876159E+02 -0.12969761842E+02 -0.51091038487E+02  0.55543718808E+02  0.00000000000E+00 0. -1.
<scales pt_clust_5="13000.00000" pt_clust_6="13000.00000" pt_clust_7="13000.00000" pt_clust_8="13000.00000" pt_clust_9="21.79016"></scales>
<clustering>
<clus scale="   21.790">  2  9  1 -1</clus>
<clus scale="   82.912">  5  6 -1 -1</clus>
<clus scale="   85.052">  1  5  2 -1</clus>
<clus scale="   93.426">  7  8 -1 -1</clus>
<clus scale="   21.790">  2  5  1 -1</clus>
</clustering>
</event>
<event>
 9    2  0.6469128E-005  0.1256667E+03  0.7546771E-02  0.1248209E+00
          2   -1    0    0  502    0 -0.00000000000E+00  0.00000000000E+00  0.93070340308E+03  0.93070340308E+03  0.00000000000E+00 0. -1.
         21   -1    0    0  501  502  0.00000000000E+00 -0.00000000000E+00 -0.72804213111E+02  0.72804213111E+02  0.00000000000E+00 0. -1.
         24    2    1    2    0    0 -0.24007780508E+02  0.67584784436E+02  0.50640306024E+03  0.51760098274E+03  0.79515038244E+02 0.  0.
         23    2    1    2    0    0 -0.15272944735E+02 -0.22592948463E+02  0.39481275324E+03  0.41212607672E+03  0.11500908152E+03 0.  0.
        -11    1    3    3    0    0  0.44826897216E-01  0.65377095772E+02  0.20366500583E+03  0.21390091458E+03  0.00000000000E+00 0.  1.
         12    1    3    3    0    0 -0.24052607405E+02  0.22076886639E+01  0.30273805441E+03  0.30370006816E+03  0.00000000000E+00 0. -1.
        -11    1    4    4    0    0 -0.19911880038E+02  0.45109090198E+02  0.19348584634E+03  0.19966994195E+03  0.00000000000E+00 0. -1.
         11    1    4    4    0    0  0.46389353030E+01 -0.67702038661E+02  0.20132690690E+03  0.21245613477E+03  0.00000000000E+00 0.  1.
          1    1    1    2  501    0  0.39280725242E+02 -0.44991835973E+02 -0.43316623503E+02  0.73780556731E+02  0.00000000000E+00 0. -1.
<scales pt_clust_5="13000.00000" pt_clust_6="13000.00000" pt_clust_7="13000.00000" pt_clust_8="13000.00000" pt_clust_9="59.72638"></scales>
<clustering>
<clus scale="   59.726">  2  9  1 -1</clus>
<clus scale="   79.515">  5  6 -1 -1</clus>
<clus scale="   94.274">  1  5  2 -1</clus>
<clus scale="  115.009">  7  8 -1 -1</clus>
<clus scale="   59.726">  2  5  1 -1</clus>
</clustering>
</event>
<event>
 9    2  0.6469128E-005  0.9644591E+02  0.7546771E-02  0.1288753E+00
          2   -1    0    0  502    0 -0.00000000000E+00  0.00000000000E+00  0.11247410138E+03  0.11247410138E+03  0.00000000000E+00 0. -1.
         21   -1    0    0  501  502  0.00000000000E+00 -0.00000000000E+00 -0.14966459273E+03  0.14966459273E+03  0.00000000000E+00 0. -1.
         24    2    1    2    0    0  0.18800246023E+02 -0.37812735849E+01  0.29308414191E+02  0.98510455201E+02  0.92073771298E+02 0.  0.
         23    2    1    2    0    0 -0.34408516445E+02  0.36183778750E+02 -0.20826092354E+02  0.10549437347E+03  0.90565583209E+02 0.  0.
        -11    1    3    3    0    0 -0.93709493470E+01 -0.36349989096E+02 -0.11421597331E+02  0.39237600392E+02  0.00000000000E+00 0.  1.
         12    1    3    3    0    0  0.28171195370E+02  0.32568715511E+02  0.40730011522E+02  0.59272854809E+02  0.00000000000E+00 0. -1.
        -13    1    4    4    0    0 -0.21288233504E+02  0.16098116465E+02  0.35417367120E+02  0.44347808663E+02  0.00000000000E+00 0.  1.
         13    1    4    4    0    0 -0.13120282941E+02  0.20085662285E+02 -0.56243459474E+02  0.61146564805E+02  0.00000000000E+00 0. -1.
          1    1    1    2  501    0  0.15608270422E+02 -0.32402505165E+02 -0.45672813193E+02  0.58133865445E+02  0.00000000000E+00 0. -1.
<scales pt_clust_5="13000.00000" pt_clust_6="13000.00000" pt_clust_7="13000.00000" pt_clust_8="13000.00000" pt_clust_9="35.96582"></scales>
<clustering>
<clus scale="   35.966">  2  9  1 -1</clus>
<clus scale="   90.566">  7  8 -1 -1</clus>
<clus scale="   92.074">  5  6 -1 -1</clus>
<clus scale="   95.007">  2  7  1 -1</clus>
<clus scale="   35.966">  2  5  1 -1</clus>
</clustering>
</event>
<event>
 9    2  0.6469128E-005  0.1280132E+03  0.7546771E-02  0.1249468E+00
          4   -1    0    0  502    0 -0.00000000000E+00  0.00000000000E+00  0.12429495065E+04  0.12429495065E+04  0.00000000000E+00 0. -1.
         21   -1    0    0  501  502  0.00000000000E+00 -0.00000000000E+00 -0.26451707611E+02  0.26451707611E+02  0.00000000000E+00 0. -1.
         24    2    1    2    0    0 -0.21652318620E+02 -0.29753079323E+02  0.71020993514E+03  0.71551456646E+03  0.78796409906E+02 0.  0.
         23    2    1    2    0    0  0.90823802252E+02 -0.29277977826E+02  0.25534661431E+03  0.28697679297E+03  0.89708545979E+02 0.  0.
        -11    1    3    3    0    0 -0.26251232309E+02 -0.10529671901E+02  0.77567312307E+02  0.82563243193E+02  0.00000000000E+00 0.  1.
         12    1    3    3    0    0  0.45989136883E+01 -0.19223407422E+02  0.63264262284E+03  0.63295132327E+03  0.00000000000E+00 0. -1.
        -11    1    4    4    0    0 -0.83868182300E-01 -0.28713488944E+02  0.12371644475E+03  0.12700484314E+03  0.00000000000E+00 0.  1.
         11    1    4    4    0    0  0.90907670434E+02 -0.56448888124E+00  0.13163016957E+03  0.15997194983E+03  0.00000000000E+00 0. -1.
          3    1    1    2  501    0 -0.69171483632E+02  0.59031057148E+02  0.25094124940E+03  0.26690985464E+03  0.00000000000E+00 0. -1.
<scales pt_clust_5="13000.00000" pt_clust_6="13000.00000" pt_clust_7="13000.00000" pt_clust_8="13000.00000" pt_clust_9="91.32237"></scales>
<clustering>
<clus scale="   78.796">  5  6 -1 -1</clus>
<clus scale="   86.965">  1  5  2 -1</clus>
<clus scale="   89.709">  7  8 -1 -1</clus>
<clus scale="   91.322">  2  9  1 -1</clus>
<clus scale="   91.322">  2  5  1 -1</clus>
</clustering>
</event>
<event>
 9    2  0.6469128E-005  0.9894000E+02  0.7546771E-02  0.1289258E+00
         21   -1    0    0  501  502  0.00000000000E+00  0.00000000000E+00  0.13739757116E+03  0.13739757116E+03  0.00000000000E+00 0.  1.
          2   -1    0    0  502    0 -0.00000000000E+00 -0.00000000000E+00 -0.25418158306E+03  0.25418158306E+03  0.00000000000E+00 0. -1.
         24    2    1    2    0    0 -0.65343067606E+01  0.36274962106E+02 -0.20363233362E+03  0.22176890130E+03  0.79729218286E+02 0.  0.
         23    2    1    2    0    0  0.40275339246E+02 -0.91609232508E+01  0.71198756210E+02  0.12378268209E+03  0.92449251122E+02 0.  0.
        -13    1    3    3    0    0  0.27989652063E+02 -0.99756939627E+01 -0.79622976601E+02  0.84986784240E+02  0.00000000000E+00 0.  1.
         14    1    3    3    0    0 -0.34523958824E+02  0.46250656069E+02 -0.12400935702E+03  0.13678211706E+03  0.00000000000E+00 0. -1.
        -11    1    4    4    0    0 -0.17395690614E+02  0.27773264506E+02  0.23299327192E+02  0.40209736642E+02  0.00000000000E+00 0. -1.
         11    1    4    4    0    0  0.57671029860E+02 -0.36934187756E+02  0.47899429018E+02  0.83572945447E+02  0.00000000000E+00 0.  1.
          1    1    1    2  501    0 -0.33741032486E+02 -0.27114038855E+02  0.15649565513E+02  0.46027570835E+02  0.00000000000E+00 0. -1.
<scales pt_clust_5="13000.00000" pt_clust_6="13000.00000" pt_clust_7="13000.00000" pt_clust_8="13000.00000" pt_clust_9="43.28543"></scales>
<clustering>
<clus scale="   43.285">  1  9  2 -1</clus>
<clus scale="   79.729">  5  6 -1 -1</clus>
<clus scale="   87.172">  2  5  1 -1</clus>
<clus scale="   92.449">  7  8 -1 -1</clus>
<clus scale="   43.285">  1  5  2 -1</clus>
</clustering>
</event>
<event>
 9    2  0.6469128E-005  0.9868343E+02  0.7546771E-02  0.1288687E+00
          2   -1    0    0  502    0 -0.00000000000E+00  0.00000000000E+00  0.11666243508E+04  0.11666243508E+04  0.00000000000E+00 0. -1.
         21   -1    0    0  501  502  0.00000000000E+00 -0.00000000000E+00 -0.16949448864E+02  0.16949448864E+02  0.00000000000E+00 0. -1.
         24    2    1    2    0    0 -0.27124173340E+00  0.29278808131E+02  0.56883599000E+03  0.57510850884E+03  0.79486421777E+02 0.  0.
         23    2    1    2    0    0  0.51234284964E+02 -0.51585227194E+02  0.47425485179E+03  0.48823646739E+03  0.90394668097E+02 0.  0.
        -11    1    3    3    0    0  0.31873540966E+00  0.50619016925E+02  0.22560264239E+03  0.23121189139E+03  0.00000000000E+00 0.  1.
         12    1    3    3    0    0 -0.58997714306E+00 -0.21340208793E+02  0.34323334761E+03  0.34389661745E+03  0.00000000000E+00 0. -1.
        -11    1    4    4    0    0 -0.15402298682E+02  0.15207244160E+02  0.85815053486E+02  0.88502624167E+02  0.00000000000E+00 0.  1.
         11    1    4    4    0    0  0.66636583646E+02 -0.66792471354E+02  0.38843979830E+03  0.39973384322E+03  0.00000000000E+00 0. -1.
          1    1    1    2  501    0 -0.50963043230E+02  0.22306419062E+02  0.10658406014E+03  0.12022882343E+03  0.00000000000E+00 0. -1.
<scales pt_clust_5="13000.00000" pt_clust_6="13000.00000" pt_clust_7="13000.00000" pt_clust_8="13000.00000" pt_clust_9="55.63100"></scales>
<clustering>
<clus scale="   55.631">  2  9  1 -1</clus>
<clus scale="   79.486">  5  6 -1 -1</clus>
<clus scale="   88.799">  1  5  2 -1</clus>
<clus scale="   90.395">  7  8 -1 -1</clus>
<clus scale="   55.631">  2  5  1 -1</clus>
</clustering>
</event>
<event>
 9    2  0.6469128E-005  0.2990628E+03  0.7546771E-02  0.1113794E+00
          2   -1    0    0  502    0 -0.00000000000E+00  0.00000000000E+00  0.20599829445E+03  0.20599829445E+03  0.00000000000E+00 0. -1.
         21   -1    0    0  501  502  0.00000000000E+00 -0.00000000000E+00 -0.82890995904E+03  0.82890995904E+03  0.00000000000E+00 0.  1.
         23    2    1    2    0    0 -0.10189565881E+03  0.50822740503E+02 -0.15959112258E+03  0.21511676719E+03  0.88545021795E+02 0.  0.
         24    2    1    2    0    0  0.33009510758E+01 -0.30119095391E+03 -0.45403196679E+03  0.55054914878E+03  0.78945876166E+02 0.  0.
        -13    1    4    4    0    0  0.40022696484E+02 -0.18389586564E+03 -0.28584860342E+03  0.34224104036E+03  0.00000000000E+00 0.  1.
         14    1    4    4    0    0 -0.36721745408E+02 -0.11729508827E+03 -0.16818336337E+03  0.20830810842E+03  0.00000000000E+00 0. -1.
        -11    1    3    3    0    0 -0.55822577208E+02  0.35962717381E+02 -0.23119877320E+02  0.70313625244E+02  0.00000000000E+00 0.  1.
         11    1    3    3    0    0 -0.46073081600E+02  0.14860023121E+02 -0.13647124526E+03  0.14480314195E+03  0.00000000000E+00 0. -1.
          1    1    1    2  501    0  0.98594707732E+02  0.25036821341E+03 -0.92885752198E+01  0.26924233751E+03  0.00000000000E+00 0. -1.
<scales pt_clust_5="13000.00000" pt_clust_6="13000.00000" pt_clust_7="13000.00000" pt_clust_8="13000.00000" pt_clust_9="288.45481"></scales>
<clustering>
<clus scale="   78.946">  5  6 -1 -1</clus>
<clus scale="   88.545">  7  8 -1 -1</clus>
<clus scale="  144.243">  1  7  2 -1</clus>
<clus scale="  288.455">  2  9  1 -1</clus>
<clus scale="  288.455">  2  5  1 -1</clus>
</clustering>
</event>
<event>
 9    2  0.6469128E-005  0.9248514E+02  0.7546771E-02  0.1304075E+00
          4   -1    0    0  502    0 -0.00000000000E+00  0.00000000000E+00  0.15136618344E+03  0.15136618344E+03  0.00000000000E+00 0. -1.
         21   -1    0    0  501  502  0.00000000000E+00 -0.00000000000E+00 -0.12752005132E+03  0.12752005132E+03  0.00000000000E+00 0. -1.
         23    2    1    2    0    0 -0.88708086477E+00  0.11159316584E+02  0.77504304121E+02  0.11948385951E+03  0.90244990261E+02 0.  0.
         24    2    1    2    0    0 -0.92994689459E+01 -0.56685541088E+02 -0.56762458516E+02  0.11264727383E+03  0.78534711515E+02 0.  0.
        -11    1    4    4    0    0  0.29116409826E+02 -0.12466948756E+01 -0.11048344818E+02  0.31167057809E+02  0.00000000000E+00 0.  1.
         12    1    4    4    0    0 -0.38415878772E+02 -0.55438846212E+02 -0.45714113698E+02  0.81480216018E+02  0.00000000000E+00 0. -1.
        -11    1    3    3    0    0 -0.11550209082E+02 -0.26267543015E+02  0.75212311413E+02  0.80500204559E+02  0.00000000000E+00 0.  1.
         11    1    3    3    0    0  0.10663128217E+02  0.37426859599E+02  0.22919927083E+01  0.38983654952E+02  0.00000000000E+00 0. -1.
          3    1    1    2  501    0  0.10186549811E+02  0.45526224504E+02  0.31042865120E+01  0.46755101426E+02  0.00000000000E+00 0. -1.
<scales pt_clust_5="13000.00000" pt_clust_6="13000.00000" pt_clust_7="13000.00000" pt_clust_8="13000.00000" pt_clust_9="46.65193"></scales>
<clustering>
<clus scale="   46.652">  2  9  1 -1</clus>
<clus scale="   78.535">  5  6 -1 -1</clus>
<clus scale="   81.099">  2  5  1 -1</clus>
<clus scale="   90.245">  7  8 -1 -1</clus>
<clus scale="   46.652">  2  5  1 -1</clus>
</clustering>
</event>
<event>
 9    2  0.6469128E-005  0.9346970E+02  0.7546771E-02  0.1300557E+00
          2   -1    0    0  502    0 -0.00000000000E+00  0.00000000000E+00  0.26441277887E+03  0.26441277887E+03  0.00000000000E+00 0. -1.
         21   -1    0    0  501  502  0.00000000000E+00 -0.00000000000E+00 -0.89949801210E+02  0.89949801210E+02  0.00000000000E+00 0. -1.
         24    2    1    2    0    0 -0.47676903843E+00 -0.84860073416E+01  0.12475449869E+02  0.82353982239E+02  0.80958643219E+02 0.  0.
         23    2    1    2    0    0 -0.13791728584E+02  0.40158154355E+02 -0.59400244699E+01  0.10052571902E+03  0.90924403516E+02 0.  0.
        -11    1    3    3    0    0  0.26986576706E+02  0.25806351252E+02  0.34150921535E+01  0.37495412274E+02  0.00000000000E+00 0.  1.
         12    1    3    3    0    0 -0.27463345744E+02 -0.34292358593E+02  0.90603577153E+01  0.44858569965E+02  0.00000000000E+00 0. -1.
        -11    1    4    4    0    0 -0.30225394450E+02  0.18125470276E+02 -0.42228083279E+02  0.55002892286E+02  0.00000000000E+00 0. -1.
         11    1    4    4    0    0  0.16433665866E+02  0.22032684079E+02  0.36288058809E+02  0.45522826732E+02  0.00000000000E+00 0.  1.
          1    1    1    2  501    0  0.14268497622E+02 -0.31672147014E+02  0.16792755226E+03  0.17148287882E+03  0.00000000000E+00 0. -1.
<scales pt_clust_5="13000.00000" pt_clust_6="13000.00000" pt_clust_7="13000.00000" pt_clust_8="13000.00000" pt_clust_9="34.73782"></scales>
<clustering>
<clus scale="   34.738">  2  9  1 -1</clus>
<clus scale="   80.959">  5  6 -1 -1</clus>
<clus scale="   83.807">  1  5  2 -1</clus>
<clus scale="   90.924">  7  8 -1 -1</clus>
<clus scale="   34.738">  2  5  1 -1</clus>
</clustering>
</event>
<event>
 9    2  0.6469128E-005  0.1419620E+03  0.7546771E-02  0.1213170E+00
         21   -1    0    0  501  502  0.00000000000E+00  0.00000000000E+00  0.40303458812E+02  0.40303458812E+02  0.00000000000E+00 0. -1.
          2   -1    0    0  502    0 -0.00000000000E+00 -0.00000000000E+00 -0.11071873871E+04  0.11071873871E+04  0.00000000000E+00 0. -1.
         24    2    1    2    0    0  0.76243767367E+02 -0.77246133691E+02 -0.51586267391E+03  0.53324949590E+03  0.80378164445E+02 0.  0.
         23    2    1    2    0    0  0.98545192206E+01  0.13730215771E+03 -0.36093201333E+03  0.39709264396E+03  0.91987257713E+02 0.  0.
        -13    1    3    3    0    0  0.61624238125E+02 -0.85512533062E+02 -0.49673565549E+03  0.50779548193E+03  0.00000000000E+00 0.  1.
         14    1    3    3    0    0  0.14619529242E+02  0.82663993701E+01 -0.19127018417E+02  0.25454013973E+02  0.00000000000E+00 0. -1.
        -11    1    4    4    0    0 -0.32654821424E+02  0.16515387035E+02 -0.63915353622E+02  0.73649628647E+02  0.00000000000E+00 0.  1.
         11    1    4    4    0    0  0.42509340645E+02  0.12078677068E+03 -0.29701665971E+03  0.32344301532E+03  0.00000000000E+00 0. -1.
          1    1    1    2  501    0 -0.86098286588E+02 -0.60056024021E+02 -0.19008924108E+03  0.21714870607E+03  0.00000000000E+00 0. -1.
<scales pt_clust_5="13000.00000" pt_clust_6="13000.00000" pt_clust_7="13000.00000" pt_clust_8="13000.00000" pt_clust_9="104.97448"></scales>
<clustering>
<clus scale="   80.378">  5  6 -1 -1</clus>
<clus scale="   91.987">  7  8 -1 -1</clus>
<clus scale="  104.974">  1  9  2 -1</clus>
<clus scale="  134.730">  2  5  1 -1</clus>
<clus scale="  104.974">  1  5  2 -1</clus>
</clustering>
</event>
<event>
 9    2  0.6469128E-005  0.9442768E+02  0.7546771E-02  0.1292583E+00
         21   -1    0    0  501  502  0.00000000000E+00  0.00000000000E+00  0.93854473943E+02  0.93854473943E+02  0.00000000000E+00 0.  1.
          2   -1    0    0  502    0 -0.00000000000E+00 -0.00000000000E+00 -0.96738763078E+03  0.96738763078E+03  0.00000000000E+00 0. -1.
         24    2    1    2    0    0  0.26887038615E+02  0.36590372231E+02 -0.91301391385E+03  0.91784086804E+03  0.82314542903E+02 0.  0.
         23    2    1    2    0    0 -0.12237434942E+02 -0.64813388745E+02  0.34913271134E+02  0.11127630126E+03  0.82540587261E+02 0.  0.
        -11    1    3    3    0    0 -0.14605866199E+02  0.35216184782E+02 -0.19888257310E+03  0.20250379967E+03  0.00000000000E+00 0.  1.
         12    1    3    3    0    0  0.41492904814E+02  0.13741874492E+01 -0.71413134075E+03  0.71533706837E+03  0.00000000000E+00 0. -1.
        -11    1    4    4    0    0 -0.27186529867E+02 -0.39172968996E+02 -0.17705795537E+02  0.50863779861E+02  0.00000000000E+00 0. -1.
         11    1    4    4    0    0  0.14949094925E+02 -0.25640419749E+02  0.52619066671E+02  0.60412521395E+02  0.00000000000E+00 0.  1.
          1    1    1    2  501    0 -0.14649603673E+02  0.28223016514E+02  0.45674858794E+01  0.32124935427E+02  0.00000000000E+00 0. -1.
<scales pt_clust_5="13000.00000" pt_clust_6="13000.00000" pt_clust_7="13000.00000" pt_clust_8="13000.00000" pt_clust_9="31.79858"></scales>
<clustering>
<clus scale="   31.799">  1  9  2 -1</clus>
<clus scale="   82.315">  5  6 -1 -1</clus>
<clus scale="   82.541">  7  8 -1 -1</clus>
<clus scale="   94.230">  2  5  1 -1</clus>
<clus scale="   31.799">  1  5  2 -1</clus>
</clustering>
</event>
<event>
 9    2  0.6469128E-005  0.1806440E+03  0.7546771E-02  0.1168098E+00
         21   -1    0    0  501  502  0.00000000000E+00  0.00000000000E+00  0.39264507217E+02  0.39264507217E+02  0.00000000000E+00 0. -1.
          2   -1    0    0  502    0 -0.00000000000E+00 -0.00000000000E+00 -0.14373785074E+04  0.14373785074E+04  0.00000000000E+00 0. -1.
         23    2    1    2    0    0 -0.13442078911E+03 -0.28344518230E+02 -0.64266177653E+03  0.66378961973E+03  0.93435218105E+02 0.  0.
         24    2    1    2    0    0  0.18405433558E+03 -0.28213908032E+02 -0.66105010810E+03  0.69213014138E+03  0.85935232240E+02 0.  0.
        -11    1    4    4    0    0  0.13557931468E+03 -0.55916752863E+02 -0.52419511022E+03  0.54432430351E+03  0.00000000000E+00 0.  1.
         12    1    4    4    0    0  0.48475020897E+02  0.27702844831E+02 -0.13685499788E+03  0.14780583787E+03  0.00000000000E+00 0. -1.
        -13    1    3    3    0    0 -0.40040859319E+02  0.28673933579E+02 -0.29432540278E+03  0.29841733797E+03  0.00000000000E+00 0. -1.
         13    1    3    3    0    0 -0.94379929794E+02 -0.57018451809E+02 -0.34833637375E+03  0.36537228175E+03  0.00000000000E+00 0.  1.
          1    1    1    2  501    0 -0.49633546464E+02  0.56558426262E+02 -0.94402115532E+02  0.12072325349E+03  0.00000000000E+00 0. -1.
<scales pt_clust_5="13000.00000" pt_clust_6="13000.00000" pt_clust_7="13000.00000" pt_clust_8="13000.00000" pt_clust_9="75.24855"></scales>
<clustering>
<clus scale="   75.249">  1  9  2 -1</clus>
<clus scale="   85.935">  5  6 -1 -1</clus>
<clus scale="   93.435">  7  8 -1 -1</clus>
<clus scale="  176.881">  1  5  2 -1</clus>
<clus scale="   75.249">  1  5  2 -1</clus>
</clustering>
</event>
<event>
 9    2  0.6469128E-005  0.1682718E+03  0.7546771E-02  0.1191632E+00
          2   -1    0    0  502    0 -0.00000000000E+00  0.00000000000E+00  0.13135529050E+04  0.13135529050E+04  0.00000000000E+00 0. -1.
         21   -1    0    0  501  502  0.00000000000E+00 -0.00000000000E+00 -0.53978259002E+02  0.53978259002E+02  0.00000000000E+00 0. -1.
         24    2    1    2    0    0 -0.47686440703E+02 -0.88258141629E+02  0.26776861851E+03  0.29718289193E+03  0.80957655646E+02 0.  0.
         23    2    1    2    0    0  0.17631071133E+03  0.11344522028E+03  0.83730790043E+03  0.86774456236E+03  0.89111281287E+02 0.  0.
        -11    1    3    3    0    0  0.63706890093E+01 -0.60958994135E+02  0.86106283908E+02  0.10569236856E+03  0.00000000000E+00 0.  1.
         12    1    3    3    0    0 -0.54057129712E+02 -0.27299147494E+02  0.18166233460E+03  0.19149052336E+03  0.00000000000E+00 0. -1.
        -11    1    4    4    0    0  0.29537507919E+02  0.57141624176E+02  0.34506043346E+03  0.35100474687E+03  0.00000000000E+00 0.  1.
         11    1    4    4    0    0  0.14677320341E+03  0.56303596107E+02  0.49224746697E+03  0.51673981549E+03  0.00000000000E+00 0. -1.
          1    1    1    2  501    0 -0.12862427063E+03 -0.25187078654E+02  0.15449812710E+03  0.20260370975E+03  0.00000000000E+00 0. -1.
<scales pt_clust_5="13000.00000" pt_clust_6="13000.00000" pt_clust_7="13000.00000" pt_clust_8="13000.00000" pt_clust_9="142.73957"></scales>
<clustering>
<clus scale="   80.958">  5  6 -1 -1</clus>
<clus scale="   89.111">  7  8 -1 -1</clus>
<clus scale="  128.909">  1  5  2 -1</clus>
<clus scale="  142.740">  2  9  1 -1</clus>
<clus scale="  142.740">  2  5  1 -1</clus>
</clustering>
</event>
<event>
 9    2  0.6469128E-005  0.1121687E+03  0.7546771E-02  0.1261476E+00
         -3   -1    0    0    0  501 -0.00000000000E+00  0.00000000000E+00  0.85482990798E+02  0.85482990798E+02  0.00000000000E+00 0.  1.
         21   -1    0    0  501  502  0.00000000000E+00 -0.00000000000E+00 -0.27792445973E+03  0.27792445973E+03  0.00000000000E+00 0. -1.
         23    2    1    2    0    0  0.55867423939E+02 -0.59745754612E+02 -0.93661373154E+02  0.15479289005E+03  0.92182762682E+02 0.  0.
         24    2    1    2    0    0  0.92678381513E+01  0.59376183020E+02 -0.10310719462E+03  0.14333468047E+03  0.79387109204E+02 0.  0.
        -11    1    4    4    0    0  0.26216682876E+02  0.56835159030E+02 -0.32203310115E+02  0.70388940505E+02  0.00000000000E+00 0.  1.
         12    1    4    4    0    0 -0.16948844725E+02  0.25410239897E+01 -0.70903884509E+02  0.72945739964E+02  0.00000000000E+00 0. -1.
        -13    1    3    3    0    0 -0.14970648610E+02 -0.28732094302E+02  0.11820035431E+01  0.32419912016E+02  0.00000000000E+00 0.  1.
         13    1    3    3    0    0  0.70838072550E+02 -0.31013660310E+02 -0.94843376697E+02  0.12237297803E+03  0.00000000000E+00 0. -1.
         -4    1    1    2    0  502 -0.65135262091E+02  0.36957159228E+00  0.43270988420E+01  0.65279880018E+02  0.00000000000E+00 0.  1.
<scales pt_clust_5="13000.00000" pt_clust_6="13000.00000" pt_clust_7="13000.00000" pt_clust_8="13000.00000" pt_clust_9="65.13634"></scales>
<clustering>
<clus scale="   65.136">  2  9  1 -1</clus>
<clus scale="   79.387">  5  6 -1 -1</clus>
<clus scale="   92.183">  7  8 -1 -1</clus>
<clus scale="  101.914">  2  5  1 -1</clus>
<clus scale="   65.136">  2  5  1 -1</clus>
</clustering>
</event>
<event>
 9    2  0.6469128E-005  0.1982798E+03  0.7546771E-02  0.1152062E+00
          2   -1    0    0  502    0 -0.00000000000E+00  0.00000000000E+00  0.37205478925E+03  0.37205478925E+03  0.00000000000E+00 0. -1.
         21   -1    0    0  501  502  0.00000000000E+00 -0.00000000000E+00 -0.20593252437E+03  0.20593252437E+03  0.00000000000E+00 0. -1.
         23    2    1    2    0    0  0.44017241378E+02 -0.14301268206E+03  0.85204202071E+02  0.19385254868E+03  0.89044426042E+02 0.  0.
         24    2    1    2    0    0  0.26834457185E+02  0.24041966629E+03  0.47133621139E+02  0.25903691418E+03  0.79729797665E+02 0.  0.
        -13    1    4    4    0    0  0.22941923161E+02  0.55707979794E+02  0.43391302135E+02  0.74246319451E+02  0.00000000000E+00 0.  1.
         14    1    4    4    0    0  0.38925340238E+01  0.18471168650E+03  0.37423190039E+01  0.18479059473E+03  0.00000000000E+00 0. -1.
        -13    1    3    3    0    0  0.31604637203E+02 -0.65350369208E+02  0.89318516750E+02  0.11509700814E+03  0.00000000000E+00 0. -1.
         13    1    3    3    0    0  0.12412604175E+02 -0.77662312851E+02 -0.41143146790E+01  0.78755540535E+02  0.00000000000E+00 0.  1.
          1    1    1    2  501    0 -0.70851698563E+02 -0.97406984232E+02  0.33784441671E+02  0.12509785076E+03  0.00000000000E+00 0. -1.
<scales pt_clust_5="13000.00000" pt_clust_6="13000.00000" pt_clust_7="13000.00000" pt_clust_8="13000.00000" pt_clust_9="120.44951"></scales>
<clustering>
<clus scale="   79.730">  5  6 -1 -1</clus>
<clus scale="   89.044">  7  8 -1 -1</clus>
<clus scale="  120.450">  2  9  1 -1</clus>
<clus scale="  194.275">  2  5  1 -1</clus>
<clus scale="  120.450">  2  5  1 -1</clus>
</clustering>
</event>
<event>
 9    2  0.6469128E-005  0.1481571E+03  0.7546771E-02  0.1204665E+00
         21   -1    0    0  501  502  0.00000000000E+00  0.00000000000E+00  0.37746770500E+02  0.37746770500E+02  0.00000000000E+00 0.  1.
          2   -1    0    0  502    0 -0.00000000000E+00 -0.00000000000E+00 -0.11075727970E+04  0.11075727970E+04  0.00000000000E+00 0. -1.
         24    2    1    2    0    0  0.61001224718E+01  0.97304330430E+02 -0.42371474780E+03  0.44242910076E+03  0.81877820445E+02 0.  0.
         23    2    1    2    0    0 -0.87906559067E+01 -0.16538086917E+03 -0.33902924072E+03  0.38834153231E+03  0.91870627184E+02 0.  0.
        -11    1    3    3    0    0  0.20704156988E+02 -0.62313504640E+01 -0.52725482899E+02  0.56986563260E+02  0.00000000000E+00 0.  1.
         12    1    3    3    0    0 -0.14604034517E+02  0.10353568089E+03 -0.37098926490E+03  0.38544253750E+03  0.00000000000E+00 0. -1.
        -11    1    4    4    0    0  0.38498420457E+02 -0.85113585583E+02 -0.20307539955E+03  0.22353091225E+03  0.00000000000E+00 0. -1.
         11    1    4    4    0    0 -0.47289076364E+02 -0.80267283588E+02 -0.13595384117E+03  0.16481062007E+03  0.00000000000E+00 0.  1.
          1    1    1    2  501    0  0.26905334349E+01  0.68076538741E+02 -0.30708203796E+03  0.31454893440E+03  0.00000000000E+00 0. -1.
<scales pt_clust_5="13000.00000" pt_clust_6="13000.00000" pt_clust_7="13000.00000" pt_clust_8="13000.00000" pt_clust_9="68.12972"></scales>
<clustering>
<clus scale="   68.130">  1  9  2 -1</clus>
<clus scale="   81.878">  5  6 -1 -1</clus>
<clus scale="   91.871">  7  8 -1 -1</clus>
<clus scale="  142.177">  2  5  1 -1</clus>
<clus scale="   68.130">  1  5  2 -1</clus>
</clustering>
</event>
<event>
 9    2  0.6469128E-005  0.1036799E+03  0.7546771E-02  0.1274674E+00
          2   -1    0    0  502    0 -0.00000000000E+00  0.00000000000E+00  0.10811101964E+04  0.10811101964E+04  0.00000000000E+00 0. -1.
         21   -1    0    0  501  502  0.00000000000E+00 -0.00000000000E+00 -0.61821176150E+02  0.61821176150E+02  0.00000000000E+00 0. -1.
         24    2    1    2    0    0  0.41258028282E+02  0.33482486251E+02  0.92098370511E+03  0.92655079130E+03  0.86383343284E+02 0.  0.
         23    2    1    2    0    0 -0.19732624870E+02 -0.29258252759E+02  0.13926537431E+03  0.16991647044E+03  0.90726735889E+02 0.  0.
        -13    1    3    3    0    0  0.14038266673E+02  0.41951016409E+02  0.19282838198E+03  0.19783767489E+03  0.00000000000E+00 0.  1.
         14    1    3    3    0    0  0.27219761609E+02 -0.84685301579E+01  0.72815532312E+03  0.72871311640E+03  0.00000000000E+00 0. -1.
        -11    1    4    4    0    0 -0.42014819631E+02 -0.84679967544E+01  0.20886971737E+02  0.47678272053E+02  0.00000000000E+00 0.  1.
         11    1    4    4    0    0  0.22282194761E+02 -0.20790256004E+02  0.11837840258E+03  0.12223819839E+03  0.00000000000E+00 0. -1.
          1    1    1    2  501    0 -0.21525403412E+02 -0.42242334927E+01 -0.40960059204E+02  0.46464110780E+02  0.00000000000E+00 0. -1.
<scales pt_clust_5="13000.00000" pt_clust_6="13000.00000" pt_clust_7="13000.00000" pt_clust_8="13000.00000" pt_clust_9="21.93598"></scales>
<clustering>
<clus scale="   21.936">  2  9  1 -1</clus>
<clus scale="   86.383">  5  6 -1 -1</clus>
<clus scale="   90.727">  7  8 -1 -1</clus>
<clus scale="   99.901">  1  5  2 -1</clus>
<clus scale="   21.936">  2  5  1 -1</clus>
</clustering>
</event>
<event>
 9    2  0.6469128E-005  0.1545667E+03  0.7546771E-02  0.1197338E+00
         21   -1    0    0  501  502  0.00000000000E+00  0.00000000000E+00  0.70848533650E+03  0.70848533650E+03  0.00000000000E+00 0.  1.
         -1   -1    0    0    0  501 -0.00000000000E+00 -0.00000000000E+00 -0.79748739269E+02  0.79748739269E+02  0.00000000000E+00 0.  1.
         24    2    1    2    0    0  0.12284302013E+03  0.44593680718E+01  0.17831636383E+03  0.23121267800E+03  0.80946175318E+02 0.  0.
         23    2    1    2    0    0 -0.10978613147E+03 -0.85764403503E+02  0.44354778820E+03  0.47438834366E+03  0.94345813946E+02 0.  0.
        -13    1    3    3    0    0  0.11986872599E+03 -0.13259236724E+02  0.11975635174E+03  0.16995853204E+03  0.00000000000E+00 0.  1.
         14    1    3    3    0    0  0.29742941400E+01  0.17718604796E+02  0.58560012092E+02  0.61254145964E+02  0.00000000000E+00 0. -1.
        -11    1    4    4    0    0 -0.10879289094E+03 -0.50973172565E+02  0.40503727910E+03  0.42248000533E+03  0.00000000000E+00 0.  1.
         11    1    4    4    0    0 -0.99324052633E+00 -0.34791230938E+02  0.38510509099E+02  0.51908338329E+02  0.00000000000E+00 0. -1.
         -2    1    1    2    0  502 -0.13056888667E+02  0.81305035431E+02  0.68724451927E+01  0.82633054107E+02  0.00000000000E+00 0.  1.
<scales pt_clust_5="13000.00000" pt_clust_6="13000.00000" pt_clust_7="13000.00000" pt_clust_8="13000.00000" pt_clust_9="82.34681"></scales>
<clustering>
<clus scale="   80.946">  5  6 -1 -1</clus>
<clus scale="   82.347">  1  9  2 -1</clus>
<clus scale="   94.346">  7  8 -1 -1</clus>
<clus scale="  146.772">  2  5  1 -1</clus>
<clus scale="   82.347">  1  5  2 -1</clus>
</clustering>
</event>
<event>
 9    2  0.6469128E-005  0.1482647E+03  0.7546771E-02  0.1205223E+00
          2   -1    0    0  502    0 -0.00000000000E+00  0.00000000000E+00  0.68402405375E+03  0.68402405375E+03  0.00000000000E+00 0. -1.
         21   -1    0    0  501  502  0.00000000000E+00 -0.00000000000E+00 -0.58385739538E+02  0.58385739538E+02  0.00000000000E+00 0.  1.
         24    2    1    2    0    0  0.10745940108E+03  0.36326166369E+02  0.50395493778E+03  0.52284190972E+03  0.80783476025E+02 0.  0.
         23    2    1    2    0    0 -0.12093616058E+03 -0.12457203880E+02  0.11300760936E+03  0.19081689487E+03  0.94125611443E+02 0.  0.
        -11    1    3    3    0    0  0.65968147293E+02  0.61133564739E+02  0.35622864091E+03  0.36740706825E+03  0.00000000000E+00 0.  1.
         12    1    3    3    0    0  0.41491253788E+02 -0.24807398370E+02  0.14772629687E+03  0.15543484147E+03  0.00000000000E+00 0. -1.
        -11    1    4    4    0    0 -0.52338352309E+02  0.10893391295E+02  0.10511074670E+03  0.11792471398E+03  0.00000000000E+00 0. -1.
         11    1    4    4    0    0 -0.68597808273E+02 -0.23350595175E+02  0.78968626649E+01  0.72892180890E+02  0.00000000000E+00 0.  1.
          1    1    1    2  501    0  0.13476759501E+02 -0.23868962489E+02  0.86757670675E+01  0.28750988699E+02  0.00000000000E+00 0. -1.
<scales pt_clust_5="13000.00000" pt_clust_6="13000.00000" pt_clust_7="13000.00000" pt_clust_8="13000.00000" pt_clust_9="27.41077"></scales>
<clustering>
<clus scale="   27.411">  2  9  1 -1</clus>
<clus scale="   80.783">  5  6 -1 -1</clus>
<clus scale="   94.126">  7  8 -1 -1</clus>
<clus scale="  140.174">  1  5  2 -1</clus>
<clus scale="   27.411">  2  5  1 -1</clus>
</clustering>
</event>
<event>
 9    2  0.6469128E-005  0.1231458E+03  0.7546771E-02  0.1241192E+00
          2   -1    0    0  502    0 -0.00000000000E+00  0.00000000000E+00  0.52766008000E+03  0.52766008000E+03  0.00000000000E+00 0. -1.
         21   -1    0    0  501  502  0.00000000000E+00 -0.00000000000E+00 -0.10628169188E+03  0.10628169188E+03  0.00000000000E+00 0. -1.
         24    2    1    2    0    0  0.47097571277E+02  0.79281796140E+02  0.43064995656E+03  0.44756153182E+03  0.79675311491E+02 0.  0.
         23    2    1    2    0    0 -0.41028812708E+02 -0.31122675143E+02  0.45097249374E+02  0.11349609146E+03  0.90529644288E+02 0.  0.
        -13    1    3    3    0    0  0.16853644166E+02  0.43700548994E+02  0.72064265754E+02  0.85947901096E+02  0.00000000000E+00 0.  1.
         14    1    3    3    0    0  0.30243927111E+02  0.35581247147E+02  0.35858569081E+03  0.36161363073E+03  0.00000000000E+00 0. -1.
        -13    1    4    4    0    0 -0.22117454692E+02  0.32200288360E+01  0.65564727691E+02  0.69269646346E+02  0.00000000000E+00 0. -1.
         13    1    4    4    0    0 -0.18911358016E+02 -0.34342703979E+02 -0.20467478317E+02  0.44226445112E+02  0.00000000000E+00 0.  1.
          1    1    1    2  501    0 -0.60687585692E+01 -0.48159120998E+02 -0.54368817813E+02  0.72884148593E+02  0.00000000000E+00 0. -1.
<scales pt_clust_5="13000.00000" pt_clust_6="13000.00000" pt_clust_7="13000.00000" pt_clust_8="13000.00000" pt_clust_9="48.53999"></scales>
<clustering>
<clus scale="   48.540">  2  9  1 -1</clus>
<clus scale="   79.675">  5  6 -1 -1</clus>
<clus scale="   90.530">  7  8 -1 -1</clus>
<clus scale="  115.401">  1  5  2 -1</clus>
<clus scale="   48.540">  2  5  1 -1</clus>
</clustering>
</event>
<event>
 9    2  0.6469128E-005  0.1227682E+03  0.7546771E-02  0.1256714E+00
          2   -1    0    0  502    0 -0.00000000000E+00  0.00000000000E+00  0.10309350099E+04  0.10309350099E+04  0.00000000000E+00 0. -1.
         21   -1    0    0  501  502  0.00000000000E+00 -0.00000000000E+00 -0.17846813857E+02  0.17846813857E+02  0.00000000000E+00 0. -1.
         23    2    1    2    0    0  0.33311898012E+02 -0.30452596258E+02  0.65894975791E+03  0.67142411788E+03  0.12065868992E+03 0.  0.
         24    2    1    2    0    0  0.34722958339E+01  0.22655489719E+01  0.25356287547E+03  0.26661913827E+03  0.82307007726E+02 0.  0.
        -11    1    4    4    0    0  0.34440418833E+02  0.25399612487E+02  0.15336665938E+03  0.15922504505E+03  0.00000000000E+00 0.  1.
         12    1    4    4    0    0 -0.30968122999E+02 -0.23134063515E+02  0.10019621610E+03  0.10739409321E+03  0.00000000000E+00 0. -1.
        -13    1    3    3    0    0 -0.29150430043E+02 -0.54518749052E+02  0.32687981999E+03  0.33267470340E+03  0.00000000000E+00 0.  1.
         13    1    3    3    0    0  0.62462328054E+02  0.24066152794E+02  0.33206993792E+03  0.33874941448E+03  0.00000000000E+00 0. -1.
          1    1    1    2  501    0 -0.36784193845E+02  0.28187047286E+02  0.10057556262E+03  0.11073856757E+03  0.00000000000E+00 0. -1.
<scales pt_clust_5="13000.00000" pt_clust_6="13000.00000" pt_clust_7="13000.00000" pt_clust_8="13000.00000" pt_clust_9="46.34206"></scales>
<clustering>
<clus scale="   46.342">  2  9  1 -1</clus>
<clus scale="   82.307">  5  6 -1 -1</clus>
<clus scale="   85.370">  2  5  1 -1</clus>
<clus scale="  120.659">  7  8 -1 -1</clus>
<clus scale="   46.342">  2  5  1 -1</clus>
</clustering>
</event>
<event>
 9    2  0.6469128E-005  0.8668637E+02  0.7546771E-02  0.1313009E+00
         21   -1    0    0  501  502  0.00000000000E+00  0.00000000000E+00  0.86280849930E+02  0.86280849930E+02  0.00000000000E+00 0. -1.
          2   -1    0    0  502    0 -0.00000000000E+00 -0.00000000000E+00 -0.18312438894E+03  0.18312438894E+03  0.00000000000E+00 0. -1.
         24    2    1    2    0    0  0.13749781225E+02 -0.30303432427E+02 -0.10888931651E+03  0.13941674676E+03  0.80453660741E+02 0.  0.
         23    2    1    2    0    0 -0.10156687137E+02 -0.13602994353E+02  0.52197361646E+01  0.85409579187E+02  0.83542509074E+02 0.  0.
        -11    1    3    3    0    0 -0.31874471974E+02 -0.29749828169E+00 -0.32563007264E+02  0.45567750777E+02  0.00000000000E+00 0.  1.
         12    1    3    3    0    0  0.45624253199E+02 -0.30005934145E+02 -0.76326309242E+02  0.93848995979E+02  0.00000000000E+00 0. -1.
        -11    1    4    4    0    0 -0.46458563375E+02 -0.15345219177E+01  0.75056573253E+01  0.47085961392E+02  0.00000000000E+00 0.  1.
         11    1    4    4    0    0  0.36301876238E+02 -0.12068472435E+02 -0.22859211607E+01  0.38323617795E+02  0.00000000000E+00 0. -1.
          1    1    1    2  501    0 -0.35930940880E+01  0.43906426780E+02  0.68260413287E+01  0.44578912929E+02  0.00000000000E+00 0. -1.
<scales pt_clust_5="13000.00000" pt_clust_6="13000.00000" pt_clust_7="13000.00000" pt_clust_8="13000.00000" pt_clust_9="44.05320"></scales>
<clustering>
<clus scale="   44.053">  1  9  2 -1</clus>
<clus scale="   80.454">  5  6 -1 -1</clus>
<clus scale="   83.543">  7  8 -1 -1</clus>
<clus scale="   83.714">  2  5  1 -1</clus>
<clus scale="   44.053">  1  5  2 -1</clus>
</clustering>
</event>
<event>
 9    2  0.6469128E-005  0.1020276E+03  0.7546771E-02  0.1280175E+00
         21   -1    0    0  501  502  0.00000000000E+00  0.00000000000E+00  0.39272343138E+02  0.39272343138E+02  0.00000000000E+00 0. -1.
          2   -1    0    0  502    0 -0.00000000000E+00 -0.00000000000E+00 -0.55842289347E+03  0.55842289347E+03  0.00000000000E+00 0. -1.
         24    2    1    2    0    0  0.47958545574E+02 -0.32204652986E+01 -0.26182116764E+03  0.27826554014E+03  0.81061664885E+02 0.  0.
         23    2    1    2    0    0 -0.40359369249E+02 -0.48793166337E+02 -0.24017300152E+03  0.26413497003E+03  0.89858555321E+02 0.  0.
        -11    1    3    3    0    0 -0.74430309226E+01  0.23719879986E+02 -0.33117588028E+02  0.41410216767E+02  0.00000000000E+00 0.  1.
         12    1    3    3    0    0  0.55401576496E+02 -0.26940345284E+02 -0.22870357962E+03  0.23685532338E+03  0.00000000000E+00 0. -1.
        -13    1    4    4    0    0  0.26137496376E+02  0.20385918834E+01 -0.55685792747E+02  0.61548615643E+02  0.00000000000E+00 0.  1.
         13    1    4    4    0    0 -0.66496865624E+02 -0.50831758221E+02 -0.18448720877E+03  0.20258635439E+03  0.00000000000E+00 0. -1.
          1    1    1    2  501    0 -0.75991763253E+01  0.52013631636E+02 -0.17156381162E+02  0.55294726434E+02  0.00000000000E+00 0. -1.
<scales pt_clust_5="13000.00000" pt_clust_6="13000.00000" pt_clust_7="13000.00000" pt_clust_8="13000.00000" pt_clust_9="52.56582"></scales>
<clustering>
<clus scale="   52.566">  1  9  2 -1</clus>
<clus scale="   81.062">  5  6 -1 -1</clus>
<clus scale="   89.859">  7  8 -1 -1</clus>
<clus scale="   94.372">  2  5  1 -1</clus>
<clus scale="   52.566">  1  5  2 -1</clus>
</clustering>
</event>
<event>
 9    2  0.6469128E-005  0.1799605E+03  0.7546771E-02  0.1168773E+00
          2   -1    0    0  502    0 -0.00000000000E+00  0.00000000000E+00  0.27342107016E+03  0.27342107016E+03  0.00000000000E+00 0. -1.
         21   -1    0    0  501  502  0.00000000000E+00 -0.00000000000E+00 -0.47676751961E+03  0.47676751961E+03  0.00000000000E+00 0.  1.
         23    2    1    2    0    0 -0.12810170518E+03 -0.55416467466E+02  0.34933313903E+02  0.17119949605E+03  0.92778765301E+02 0.  0.
         24    2    1    2    0    0  0.25657821895E+03 -0.36586930873E+02 -0.30345425538E+03  0.40805473699E+03  0.85165705067E+02 0.  0.
        -11    1    4    4    0    0  0.16860037696E+03 -0.64400125448E+02 -0.19682443243E+03  0.26704554007E+03  0.00000000000E+00 0.  1.
         12    1    4    4    0    0  0.87977841992E+02  0.27813194574E+02 -0.10662982295E+03  0.14100919692E+03  0.00000000000E+00 0. -1.
        -11    1    3    3    0    0 -0.12428355314E+03 -0.76652008865E+02  0.30223487382E+02  0.14911536217E+03  0.00000000000E+00 0. -1.
         11    1    3    3    0    0 -0.38181520392E+01  0.21235541399E+02  0.47098265204E+01  0.22084133883E+02  0.00000000000E+00 0.  1.
          1    1    1    2  501    0 -0.12847651377E+03  0.92003398340E+02  0.65174492031E+02  0.17093435672E+03  0.00000000000E+00 0. -1.
<scales pt_clust_5="13000.00000" pt_clust_6="13000.00000" pt_clust_7="13000.00000" pt_clust_8="13000.00000" pt_clust_9="158.02172"></scales>
<clustering>
<clus scale="   85.166">  5  6 -1 -1</clus>
<clus scale="   92.779">  7  8 -1 -1</clus>
<clus scale="  158.022">  2  9  1 -1</clus>
<clus scale="  176.156">  2  5  1 -1</clus>
<clus scale="  158.022">  2  5  1 -1</clus>
</clustering>
</event>
<event>
 9    2  0.6469128E-005  0.1778121E+03  0.7546771E-02  0.1171219E+00
         21   -1    0    0  501  502  0.00000000000E+00  0.00000000000E+00  0.18368857300E+03  0.18368857300E+03  0.00000000000E+00 0.  1.
          2   -1    0    0  502    0 -0.00000000000E+00 -0.00000000000E+00 -0.45026158495E+03  0.45026158495E+03  0.00000000000E+00 0. -1.
         24    2    1    2    0    0  0.12124682772E+03  0.96875846996E+02 -0.24820560078E+03  0.30356199545E+03  0.80362565041E+02 0.  0.
         23    2    1    2    0    0 -0.98700764879E+02 -0.11372395690E+03 -0.12779295564E+03  0.21740084666E+03  0.90868637379E+02 0.  0.
        -13    1    3    3    0    0  0.11348961388E+03  0.47932772729E+02 -0.19664644693E+03  0.23205014167E+03  0.00000000000E+00 0.  1.
         14    1    3    3    0    0  0.77572138424E+01  0.48943074267E+02 -0.51559153855E+02  0.71511853784E+02  0.00000000000E+00 0. -1.
        -13    1    4    4    0    0  0.12684490688E+02 -0.40402045736E+02 -0.35035092355E+02  0.54960706874E+02  0.00000000000E+00 0.  1.
         13    1    4    4    0    0 -0.11138525557E+03 -0.73321911160E+02 -0.92757863285E+02  0.16244013979E+03  0.00000000000E+00 0. -1.
          1    1    1    2  501    0 -0.22546062839E+02  0.16848109900E+02  0.10942554448E+03  0.11298731584E+03  0.00000000000E+00 0. -1.
<scales pt_clust_5="13000.00000" pt_clust_6="13000.00000" pt_clust_7="13000.00000" pt_clust_8="13000.00000" pt_clust_9="28.14576"></scales>
<clustering>
<clus scale="   28.146">  1  9  2 -1</clus>
<clus scale="   80.363">  5  6 -1 -1</clus>
<clus scale="   90.869">  7  8 -1 -1</clus>
<clus scale="  172.679">  2  5  1 -1</clus>
<clus scale="   28.146">  1  5  2 -1</clus>
</clustering>
</event>
<event>
 9    2  0.6469128E-005  0.1267053E+03  0.7546771E-02  0.1235592E+00
          2   -1    0    0  502    0 -0.00000000000E+00  0.00000000000E+00  0.10453212814E+04  0.10453212814E+04  0.00000000000E+00 0. -1.
         21   -1    0    0  501  502  0.00000000000E+00 -0.00000000000E+00 -0.21513381097E+02  0.21513381097E+02  0.00000000000E+00 0.  1.
         23    2    1    2    0    0 -0.73601241500E+02 -0.31771624711E+02  0.64638803621E+03  0.65785711874E+03  0.92368373631E+02 0.  0.
         24    2    1    2    0    0  0.98656591298E+02  0.29839556241E+02  0.29569423698E+03  0.32347560476E+03  0.81104025629E+02 0.  0.
        -13    1    4    4    0    0  0.87819993132E+02  0.54172712897E+02  0.25193405724E+03  0.27224585069E+03  0.00000000000E+00 0.  1.
         14    1    4    4    0    0  0.10836598166E+02 -0.24333156657E+02  0.43760179732E+02  0.51229754078E+02  0.00000000000E+00 0. -1.
        -11    1    3    3    0    0 -0.93904229821E+02 -0.13273292510E+02  0.50016074674E+03  0.50907264438E+03  0.00000000000E+00 0. -1.
         11    1    3    3    0    0  0.20302988321E+02 -0.18498332201E+02  0.14622728946E+03  0.14878447437E+03  0.00000000000E+00 0.  1.
          1    1    1    2  501    0 -0.25055349798E+02  0.19320684704E+01  0.81725627090E+02  0.85501938957E+02  0.00000000000E+00 0. -1.
<scales pt_clust_5="13000.00000" pt_clust_6="13000.00000" pt_clust_7="13000.00000" pt_clust_8="13000.00000" pt_clust_9="25.12973"></scales>
<clustering>
<clus scale="   25.130">  2  9  1 -1</clus>
<clus scale="   81.104">  5  6 -1 -1</clus>
<clus scale="   92.368">  7  8 -1 -1</clus>
<clus scale="  118.744">  2  5  1 -1</clus>
<clus scale="   25.130">  2  5  1 -1</clus>
</clustering>
</event>
<event>
 9    2  0.6469128E-005  0.9302492E+02  0.7546771E-02  0.1302584E+00
         21   -1    0    0  501  502  0.00000000000E+00  0.00000000000E+00  0.40460117731E+02  0.40460117731E+02  0.00000000000E+00 0. -1.
          2   -1    0    0  502    0 -0.00000000000E+00 -0.00000000000E+00 -0.43499389384E+03  0.43499389384E+03  0.00000000000E+00 0. -1.
         24    2    1    2    0    0 -0.23869869872E+02 -0.22640309170E+02 -0.13984637380E+03  0.16462853321E+03  0.80393976099E+02 0.  0.
         23    2    1    2    0    0  0.29240922232E+00 -0.48005416610E+02 -0.14086974408E+03  0.17480645563E+03  0.91697364225E+02 0.  0.
        -13    1    3    3    0    0  0.10949062523E+02 -0.38422848467E+02 -0.35304321089E+02  0.53315967046E+02  0.00000000000E+00 0.  1.
         14    1    3    3    0    0 -0.34818932395E+02  0.15782539297E+02 -0.10454205272E+03  0.11131256616E+03  0.00000000000E+00 0. -1.
        -13    1    4    4    0    0  0.29294894529E+02  0.15831604747E+02 -0.42030750149E+02  0.53622891683E+02  0.00000000000E+00 0.  1.
         13    1    4    4    0    0 -0.29002485306E+02 -0.63837021357E+02 -0.98838993928E+02  0.12118356395E+03  0.00000000000E+00 0. -1.
          1    1    1    2  501    0  0.23577460650E+02  0.70645725780E+02 -0.11381765823E+03  0.13601902274E+03  0.00000000000E+00 0. -1.
<scales pt_clust_5="13000.00000" pt_clust_6="13000.00000" pt_clust_7="13000.00000" pt_clust_8="13000.00000" pt_clust_9="74.47631"></scales>
<clustering>
<clus scale="   74.476">  1  9  2 -1</clus>
<clus scale="   80.394">  5  6 -1 -1</clus>
<clus scale="   81.905">  2  5  1 -1</clus>
<clus scale="   91.697">  7  8 -1 -1</clus>
<clus scale="   74.476">  1  5  2 -1</clus>
</clustering>
</event>
<event>
 9    2  0.6469128E-005  0.9119536E+02  0.7546771E-02  0.1305874E+00
         21   -1    0    0  501  502  0.00000000000E+00  0.00000000000E+00  0.23206164467E+03  0.23206164467E+03  0.00000000000E+00 0.  1.
          2   -1    0    0  502    0 -0.00000000000E+00 -0.00000000000E+00 -0.81193449970E+02  0.81193449970E+02  0.00000000000E+00 0. -1.
         24    2    1    2    0    0 -0.11869451617E+02 -0.16509114755E+01 -0.29173787977E+02  0.86969312561E+02  0.81049010062E+02 0.  0.
         23    2    1    2    0    0  0.72544230196E+01 -0.21936454626E+02  0.78664391419E+02  0.12209807485E+03  0.90476619686E+02 0.  0.
        -13    1    3    3    0    0  0.11604190249E+02 -0.29739078491E+02 -0.37683866655E+02  0.49387689022E+02  0.00000000000E+00 0.  1.
         14    1    3    3    0    0 -0.23473641866E+02  0.28088167015E+02  0.85100786781E+01  0.37581623539E+02  0.00000000000E+00 0. -1.
        -11    1    4    4    0    0  0.26727457967E+02 -0.41601548862E+02  0.80378057776E+02  0.94369900121E+02  0.00000000000E+00 0.  1.
         11    1    4    4    0    0 -0.19473034947E+02  0.19665094236E+02 -0.17136663570E+01  0.27728174728E+02  0.00000000000E+00 0. -1.
          1    1    1    2  501    0  0.46150285975E+01  0.23587366101E+02  0.10137759125E+03  0.10418770723E+03  0.00000000000E+00 0. -1.
<scales pt_clust_5="13000.00000" pt_clust_6="13000.00000" pt_clust_7="13000.00000" pt_clust_8="13000.00000" pt_clust_9="24.03461"></scales>
<clustering>
<clus scale="   24.035">  1  9  2 -1</clus>
<clus scale="   81.049">  5  6 -1 -1</clus>
<clus scale="   81.851">  2  5  1 -1</clus>
<clus scale="   90.477">  7  8 -1 -1</clus>
<clus scale="   24.035">  1  5  2 -1</clus>
</clustering>
</event>
<event>
 9    2  0.6469128E-005  0.1307311E+03  0.7546771E-02  0.1235944E+00
         21   -1    0    0  501  502  0.00000000000E+00  0.00000000000E+00  0.14360381045E+03  0.14360381045E+03  0.00000000000E+00 0.  1.
         -1   -1    0    0    0  501 -0.00000000000E+00 -0.00000000000E+00 -0.60579061257E+03  0.60579061257E+03  0.00000000000E+00 0.  1.
         24    2    1    2    0    0 -0.63275095769E+02  0.31076402638E+02 -0.17426379362E+03  0.20466614648E+03  0.80937514190E+02 0.  0.
         23    2    1    2    0    0 -0.15466276339E+02  0.87551298556E+02  0.79419529454E+02  0.15075711597E+03  0.92281150705E+02 0.  0.
        -11    1    3    3    0    0 -0.78500264276E+02  0.35369073144E+02 -0.16556187730E+03  0.18661189148E+03  0.00000000000E+00 0.  1.
         12    1    3    3    0    0  0.15225168507E+02 -0.42926705056E+01 -0.87019163259E+01  0.18054255007E+02  0.00000000000E+00 0. -1.
        -13    1    4    4    0    0  0.19961682115E+02  0.32172189406E+02  0.76020806971E+02  0.84927508008E+02  0.00000000000E+00 0. -1.
         13    1    4    4    0    0 -0.35427958453E+02  0.55379109150E+02  0.33987224835E+01  0.65829607966E+02  0.00000000000E+00 0.  1.
         -2    1    1    2    0  502  0.78741372108E+02 -0.11862770119E+03 -0.36734253795E+03  0.39397116057E+03  0.00000000000E+00 0.  1.
<scales pt_clust_5="13000.00000" pt_clust_6="13000.00000" pt_clust_7="13000.00000" pt_clust_8="13000.00000" pt_clust_9="92.60031"></scales>
<clustering>
<clus scale="   80.938">  5  6 -1 -1</clus>
<clus scale="   92.281">  7  8 -1 -1</clus>
<clus scale="  107.333">  2  5  1 -1</clus>
<clus scale="   92.600">  1  9  2 -1</clus>
<clus scale="   92.600">  1  5  2 -1</clus>
</clustering>
</event>
<event>
 9    2  0.6469128E-005  0.9719072E+02  0.7546771E-02  0.1292518E+00
         21   -1    0    0  501  502  0.00000000000E+00  0.00000000000E+00  0.34603132396E+02  0.34603132396E+02  0.00000000000E+00 0.  1.
          2   -1    0    0  502    0 -0.00000000000E+00 -0.00000000000E+00 -0.12489753175E+04  0.12489753175E+04  0.00000000000E+00 0. -1.
         24    2    1    2    0    0  0.74705496462E+00 -0.37209866019E+02 -0.10771563999E+04  0.10807038483E+04  0.79181852098E+02 0.  0.
         23    2    1    2    0    0 -0.94194718502E+01  0.17266592337E+02 -0.15091194826E+03  0.17717382617E+03  0.90715417045E+02 0.  0.
        -13    1    3    3    0    0  0.24191335628E+02 -0.20355600047E+02 -0.16003744608E+03  0.16313048557E+03  0.00000000000E+00 0.  1.
         14    1    3    3    0    0 -0.23444280664E+02 -0.16854265972E+02 -0.91711895378E+03  0.91757336272E+03  0.00000000000E+00 0. -1.
        -11    1    4    4    0    0  0.17235913174E+02 -0.31701228390E+02 -0.72226999687E+02  0.80738987287E+02  0.00000000000E+00 0.  1.
         11    1    4    4    0    0 -0.26655385025E+02  0.48967820727E+02 -0.78684948575E+02  0.96434838880E+02  0.00000000000E+00 0. -1.
          1    1    1    2  501    0  0.86724168856E+01  0.19943273682E+02  0.13696162987E+02  0.25700775482E+02  0.00000000000E+00 0. -1.
<scales pt_clust_5="13000.00000" pt_clust_6="13000.00000" pt_clust_7="13000.00000" pt_clust_8="13000.00000" pt_clust_9="21.74730"></scales>
<clustering>
<clus scale="   21.747">  1  9  2 -1</clus>
<clus scale="   79.182">  5  6 -1 -1</clus>
<clus scale="   86.525">  2  5  1 -1</clus>
<clus scale="   90.715">  7  8 -1 -1</clus>
<clus scale="   21.747">  1  5  2 -1</clus>
</clustering>
</event>
<event>
 9    2  0.6469128E-005  0.1129720E+03  0.7546771E-02  0.1259534E+00
          2   -1    0    0  502    0 -0.00000000000E+00  0.00000000000E+00  0.73019480256E+02  0.73019480256E+02  0.00000000000E+00 0. -1.
         21   -1    0    0  501  502  0.00000000000E+00 -0.00000000000E+00 -0.37542330279E+03  0.37542330279E+03  0.00000000000E+00 0.  1.
         24    2    1    2    0    0 -0.36137989489E+02  0.87451110458E+02 -0.87349902145E+02  0.15192653343E+03  0.80610267030E+02 0.  0.
         23    2    1    2    0    0 -0.43612208120E+02 -0.37035823988E+02 -0.13093798161E+03  0.17011495894E+03  0.92307460535E+02 0.  0.
        -13    1    3    3    0    0 -0.54524747317E+02  0.69381961720E+02 -0.37651155295E+02  0.95939638196E+02  0.00000000000E+00 0.  1.
         14    1    3    3    0    0  0.18386757828E+02  0.18069148738E+02 -0.49698746850E+02  0.55986895234E+02  0.00000000000E+00 0. -1.
        -11    1    4    4    0    0 -0.27233963753E+02  0.14697433050E+02 -0.29358310098E+01  0.31085727009E+02  0.00000000000E+00 0. -1.
         11    1    4    4    0    0 -0.16378244367E+02 -0.51733257037E+02 -0.12800215060E+03  0.13902923193E+03  0.00000000000E+00 0.  1.
          1    1    1    2  501    0  0.79750197609E+02 -0.50415286470E+02 -0.84115938777E+02  0.12640129068E+03  0.00000000000E+00 0. -1.
<scales pt_clust_5="13000.00000" pt_clust_6="13000.00000" pt_clust_7="13000.00000" pt_clust_8="13000.00000" pt_clust_9="94.34937"></scales>
<clustering>
<clus scale="   80.610">  5  6 -1 -1</clus>
<clus scale="   92.307">  7  8 -1 -1</clus>
<clus scale="   94.349">  2  9  1 -1</clus>
<clus scale="  103.634">  1  5  2 -1</clus>
<clus scale="   94.349">  2  5  1 -1</clus>
</clustering>
</event>
<event>
 9    2  0.6469128E-005  0.9864240E+02  0.7546771E-02  0.1287739E+00
          2   -1    0    0  502    0 -0.00000000000E+00  0.00000000000E+00  0.59643490575E+03  0.59643490575E+03  0.00000000000E+00 0. -1.
         21   -1    0    0  501  502  0.00000000000E+00 -0.00000000000E+00 -0.21820708572E+02  0.21820708572E+02  0.00000000000E+00 0.  1.
         23    2    1    2    0    0 -0.26963270944E+02 -0.60301694844E+00  0.21042787204E+03  0.23058652845E+03  0.90348636762E+02 0.  0.
         24    2    1    2    0    0  0.51480077690E+02 -0.13876074102E+02  0.21788889116E+03  0.23862661850E+03  0.81390112015E+02 0.  0.
        -11    1    4    4    0    0 -0.21430706264E+02  0.46438033547E+01  0.43912055625E+02  0.49082672195E+02  0.00000000000E+00 0.  1.
         12    1    4    4    0    0  0.72910783954E+02 -0.18519877457E+02  0.17397683554E+03  0.18954394631E+03  0.00000000000E+00 0. -1.
        -11    1    3    3    0    0 -0.43645611855E+02  0.21542484525E+02  0.19003367947E+03  0.19616782970E+03  0.00000000000E+00 0. -1.
         11    1    3    3    0    0  0.16682340911E+02 -0.22145501473E+02  0.20394192562E+02  0.34418698756E+02  0.00000000000E+00 0.  1.
          1    1    1    2  501    0 -0.24516806746E+02  0.14479091050E+02  0.14629743398E+03  0.14904246737E+03  0.00000000000E+00 0. -1.
<scales pt_clust_5="13000.00000" pt_clust_6="13000.00000" pt_clust_7="13000.00000" pt_clust_8="13000.00000" pt_clust_9="28.47312"></scales>
<clustering>
<clus scale="   28.473">  2  9  1 -1</clus>
<clus scale="   81.390">  5  6 -1 -1</clus>
<clus scale="   90.349">  7  8 -1 -1</clus>
<clus scale="   90.509">  2  5  1 -1</clus>
<clus scale="   28.473">  2  5  1 -1</clus>
</clustering>
</event>
<event>
 9    2  0.6469128E-005  0.1033315E+03  0.7546771E-02  0.1280270E+00
          2   -1    0    0  502    0 -0.00000000000E+00  0.00000000000E+00  0.14504811203E+03  0.14504811203E+03  0.00000000000E+00 0. -1.
         21   -1    0    0  501  502  0.00000000000E+00 -0.00000000000E+00 -0.13408875660E+03  0.13408875660E+03  0.00000000000E+00 0. -1.
         23    2    1    2    0    0  0.27211548719E+02 -0.50437316214E+02 -0.14390789728E+02  0.11028168891E+03  0.93115867766E+02 0.  0.
         24    2    1    2    0    0 -0.15009884788E+02  0.26997246980E+02 -0.43435229679E+02  0.95168374662E+02  0.78843213866E+02 0.  0.
        -13    1    4    4    0    0  0.22394682607E+02  0.10701807654E+02 -0.48076243605E+02  0.54105227985E+02  0.00000000000E+00 0.  1.
         14    1    4    4    0    0 -0.37404567395E+02  0.16295439326E+02  0.46410139257E+01  0.41063146678E+02  0.00000000000E+00 0. -1.
        -11    1    3    3    0    0  0.41280679690E+02  0.10123181922E+02 -0.21625444439E+02  0.47688920884E+02  0.00000000000E+00 0. -1.
         11    1    3    3    0    0 -0.14069130970E+02 -0.60560498136E+02  0.72346547112E+01  0.62592768029E+02  0.00000000000E+00 0.  1.
          1    1    1    2  501    0 -0.12201663932E+02  0.23440069234E+02  0.68785374836E+02  0.73686805058E+02  0.00000000000E+00 0. -1.
<scales pt_clust_5="13000.00000" pt_clust_6="13000.00000" pt_clust_7="13000.00000" pt_clust_8="13000.00000" pt_clust_9="26.42571"></scales>
<clustering>
<clus scale="   26.426">  2  9  1 -1</clus>
<clus scale="   78.843">  5  6 -1 -1</clus>
<clus scale="   90.681">  2  5  1 -1</clus>
<clus scale="   93.116">  7  8 -1 -1</clus>
<clus scale="   26.426">  2  5  1 -1</clus>
</clustering>
</event>
<event>
 9    2  0.6469128E-005  0.1003560E+03  0.7546771E-02  0.1286652E+00
          2   -1    0    0  502    0 -0.00000000000E+00  0.00000000000E+00  0.78964211930E+02  0.78964211930E+02  0.00000000000E+00 0. -1.
         21   -1    0    0  501  502  0.00000000000E+00 -0.00000000000E+00 -0.55797845331E+03  0.55797845331E+03  0.00000000000E+00 0.  1.
         24    2    1    2    0    0 -0.14725464505E+02 -0.31429492076E+02  0.39171796519E+02  0.95437120837E+02  0.79807030481E+02 0.  0.
         23    2    1    2    0    0 -0.63577995937E+01  0.64202075300E+02 -0.32114102401E+03  0.34064418989E+03  0.93512452213E+02 0.  0.
        -13    1    3    3    0    0 -0.30326628657E+02 -0.23572407193E+02 -0.12895833050E+02  0.40517469030E+02  0.00000000000E+00 0.  1.
         14    1    3    3    0    0  0.15601164151E+02 -0.78570848829E+01  0.52067629569E+02  0.54919651807E+02  0.00000000000E+00 0. -1.
        -11    1    4    4    0    0 -0.29446789967E+02  0.78513704762E+02 -0.27020250899E+03  0.28291502459E+03  0.00000000000E+00 0.  1.
         11    1    4    4    0    0  0.23088990373E+02 -0.14311629462E+02 -0.50938515020E+02  0.57729165305E+02  0.00000000000E+00 0. -1.
          1    1    1    2  501    0  0.21083264099E+02 -0.32772583224E+02 -0.19704501389E+03  0.20086135451E+03  0.00000000000E+00 0. -1.
<scales pt_clust_5="13000.00000" pt_clust_6="13000.00000" pt_clust_7="13000.00000" pt_clust_8="13000.00000" pt_clust_9="38.96853"></scales>
<clustering>
<clus scale="   38.969">  2  9  1 -1</clus>
<clus scale="   79.807">  5  6 -1 -1</clus>
<clus scale="   87.726">  1  5  2 -1</clus>
<clus scale="   93.512">  7  8 -1 -1</clus>
<clus scale="   38.969">  2  5  1 -1</clus>
</clustering>
</event>
<event>
 9    2  0.6469128E-005  0.1578196E+03  0.7546771E-02  0.1191894E+00
          2   -1    0    0  502    0 -0.00000000000E+00  0.00000000000E+00  0.72229810385E+03  0.72229810385E+03  0.00000000000E+00 0. -1.
         21   -1    0    0  501  502  0.00000000000E+00 -0.00000000000E+00 -0.63825719109E+02  0.63825719109E+02  0.00000000000E+00 0. -1.
         24    2    1    2    0    0 -0.44000094893E+02 -0.14341915891E+03  0.48399653611E+03  0.51391029649E+03  0.85709289940E+02 0.  0.
         23    2    1    2    0    0  0.64561699286E+02  0.74455539789E+02  0.13608478075E+03  0.19064984318E+03  0.90091368815E+02 0.  0.
        -13    1    3    3    0    0 -0.40090667256E+02 -0.12786318866E+02  0.11923311575E+03  0.12644084562E+03  0.00000000000E+00 0.  1.
         14    1    3    3    0    0 -0.39094276374E+01 -0.13063284004E+03  0.36476342036E+03  0.38746945087E+03  0.00000000000E+00 0. -1.
        -11    1    4    4    0    0  0.14054413855E+02  0.80953956507E+02  0.76443560623E+02  0.11222605573E+03  0.00000000000E+00 0.  1.
         11    1    4    4    0    0  0.50507285430E+02 -0.64984167181E+01  0.59641220122E+02  0.78423787457E+02  0.00000000000E+00 0. -1.
          1    1    1    2  501    0 -0.20561604392E+02  0.68963619121E+02  0.38391067887E+02  0.81563683284E+02  0.00000000000E+00 0. -1.
<scales pt_clust_5="13000.00000" pt_clust_6="13000.00000" pt_clust_7="13000.00000" pt_clust_8="13000.00000" pt_clust_9="71.96360"></scales>
<clustering>
<clus scale="   71.964">  2  9  1 -1</clus>
<clus scale="   85.709">  5  6 -1 -1</clus>
<clus scale="   90.091">  7  8 -1 -1</clus>
<clus scale="  155.360">  1  5  2 -1</clus>
<clus scale="   71.964">  2  5  1 -1</clus>
</clustering>
</event>
<event>
 9    2  0.6469128E-005  0.1334154E+03  0.7546771E-02  0.1224712E+00
         21   -1    0    0  501  502  0.00000000000E+00  0.00000000000E+00  0.12377960966E+03  0.12377960966E+03  0.00000000000E+00 0. -1.
          2   -1    0    0  502    0 -0.00000000000E+00 -0.00000000000E+00 -0.27533468404E+03  0.27533468404E+03  0.00000000000E+00 0. -1.
         24    2    1    2    0    0 -0.57789415392E+02 -0.43244071326E+02 -0.26274465238E+02  0.11108331808E+03  0.80246431671E+02 0.  0.
         23    2    1    2    0    0  0.87893056025E+02  0.11309178559E+03 -0.39715930581E+02  0.17354845913E+03  0.89592249998E+02 0.  0.
        -13    1    3    3    0    0 -0.77907381476E+02 -0.34437539009E+02 -0.26215664177E+02  0.89122192689E+02  0.00000000000E+00 0.  1.
         14    1    3    3    0    0  0.20117966085E+02 -0.88065323173E+01 -0.58801060830E-01  0.21961125390E+02  0.00000000000E+00 0. -1.
        -13    1    4    4    0    0 -0.83643262064E+01  0.24635857466E+02  0.16966534040E+02  0.31060436302E+02  0.00000000000E+00 0.  1.
         13    1    4    4    0    0  0.96257382232E+02  0.88455928119E+02 -0.56682464621E+02  0.14248802283E+03  0.00000000000E+00 0. -1.
          1    1    1    2  501    0 -0.30103640634E+02 -0.69847714259E+02 -0.85564678552E+02  0.11448251649E+03  0.00000000000E+00 0. -1.
<scales pt_clust_5="13000.00000" pt_clust_6="13000.00000" pt_clust_7="13000.00000" pt_clust_8="13000.00000" pt_clust_9="76.05878"></scales>
<clustering>
<clus scale="   76.059">  1  9  2 -1</clus>
<clus scale="   80.246">  5  6 -1 -1</clus>
<clus scale="   89.592">  7  8 -1 -1</clus>
<clus scale="  127.328">  2  5  1 -1</clus>
<clus scale="   76.059">  1  5  2 -1</clus>
</clustering>
</event>
<event>
 9    2  0.6469128E-005  0.1865138E+03  0.7546771E-02  0.1184587E+00
         -1   -1    0    0    0  501 -0.00000000000E+00  0.00000000000E+00  0.13758291446E+03  0.13758291446E+03  0.00000000000E+00 0.  1.
         21   -1    0    0  501  502  0.00000000000E+00 -0.00000000000E+00 -0.47288495521E+03  0.47288495521E+03  0.00000000000E+00 0.  1.
         23    2    1    2    0    0 -0.48092171662E+02 -0.54830395177E+02 -0.76074277208E+01  0.11092656367E+03  0.83232207473E+02 0.  0.
         24    2    1    2    0    0  0.94150793429E+02  0.17037868275E+03 -0.30829374836E+03  0.37364771223E+03  0.81696451203E+02 0.  0.
        -13    1    4    4    0    0  0.51826837259E+02  0.15894598627E+03 -0.24853168164E+03  0.29952937150E+03  0.00000000000E+00 0.  1.
         14    1    4    4    0    0  0.42323956169E+02  0.11432696487E+02 -0.59762066711E+02  0.74118340728E+02  0.00000000000E+00 0. -1.
        -11    1    3    3    0    0  0.78445169298E+01 -0.52136377851E+02 -0.14029776979E+02  0.54557978183E+02  0.00000000000E+00 0.  1.
         11    1    3    3    0    0 -0.55936688592E+02 -0.26940173262E+01  0.64223492585E+01  0.56368585488E+02  0.00000000000E+00 0. -1.
         -2    1    1    2    0  502 -0.46058621767E+02 -0.11554828758E+03 -0.19400864678E+02  0.12589359377E+03  0.00000000000E+00 0.  1.
<scales pt_clust_5="13000.00000" pt_clust_6="13000.00000" pt_clust_7="13000.00000" pt_clust_8="13000.00000" pt_clust_9="167.66964"></scales>
<clustering>
<clus scale="   81.696">  5  6 -1 -1</clus>
<clus scale="   83.232">  7  8 -1 -1</clus>
<clus scale="  110.665">  1  7  2 -1</clus>
<clus scale="  167.670">  2  9  1 -1</clus>
<clus scale="  167.670">  2  5  1 -1</clus>
</clustering>
</event>
<event>
 9    2  0.6469128E-005  0.1722876E+03  0.7546771E-02  0.1176438E+00
         -3   -1    0    0    0  501 -0.00000000000E+00  0.00000000000E+00  0.79890480191E+02  0.79890480191E+02  0.00000000000E+00 0.  1.
         21   -1    0    0  501  502  0.00000000000E+00 -0.00000000000E+00 -0.74113887846E+03  0.74113887846E+03  0.00000000000E+00 0.  1.
         23    2    1    2    0    0  0.41961290214E+02  0.91349172771E+02 -0.18440459234E+03  0.22799872902E+03  0.88729620307E+02 0.  0.
         24    2    1    2    0    0 -0.84724961855E+02 -0.18693760234E+03 -0.20326854898E+03  0.30009838371E+03  0.81344640721E+02 0.  0.
        -11    1    4    4    0    0 -0.76652720415E+02 -0.19304308889E+03 -0.18047602892E+03  0.27515971858E+03  0.00000000000E+00 0.  1.
         12    1    4    4    0    0 -0.80722414400E+01  0.61054865524E+01 -0.22792520058E+02  0.24938665131E+02  0.00000000000E+00 0. -1.
        -13    1    3    3    0    0  0.17786780425E+02  0.51351391802E+02 -0.21365974199E+02  0.58393834019E+02  0.00000000000E+00 0. -1.
         13    1    3    3    0    0  0.24174509789E+02  0.39997780968E+02 -0.16303861814E+03  0.16960489501E+03  0.00000000000E+00 0.  1.
         -4    1    1    2    0  502  0.42763671640E+02  0.95588429566E+02 -0.27357525695E+03  0.29293224591E+03  0.00000000000E+00 0.  1.
<scales pt_clust_5="13000.00000" pt_clust_6="13000.00000" pt_clust_7="13000.00000" pt_clust_8="13000.00000" pt_clust_9="104.71810"></scales>
<clustering>
<clus scale="   81.345">  5  6 -1 -1</clus>
<clus scale="   88.730">  7  8 -1 -1</clus>
<clus scale="  104.718">  2  9  1 -1</clus>
<clus scale="  168.603">  2  5  1 -1</clus>
<clus scale="  104.718">  2  5  1 -1</clus>
</clustering>
</event>
<event>
 9    2  0.6469128E-005  0.1295277E+03  0.7546771E-02  0.1231443E+00
         21   -1    0    0  501  502  0.00000000000E+00  0.00000000000E+00  0.94676381422E+02  0.94676381422E+02  0.00000000000E+00 0. -1.
          2   -1    0    0  502    0 -0.00000000000E+00 -0.00000000000E+00 -0.44600905383E+03  0.44600905383E+03  0.00000000000E+00 0. -1.
         24    2    1    2    0    0  0.14918835584E+02 -0.11026364270E+03 -0.26203614340E+03  0.30301299439E+03  0.10379446884E+03 0.  0.
         23    2    1    2    0    0 -0.56016891045E+02  0.14437853095E+02 -0.74306381766E+02  0.13233329035E+03  0.92974822824E+02 0.  0.
        -11    1    3    3    0    0  0.53741935504E+02 -0.95370845795E+02 -0.20540828683E+03  0.23275815379E+03  0.00000000000E+00 0.  1.
         12    1    3    3    0    0 -0.38823099919E+02 -0.14892796909E+02 -0.56627856572E+02  0.70254840595E+02  0.00000000000E+00 0. -1.
        -13    1    4    4    0    0 -0.62512154342E+02 -0.21109153931E+02 -0.23611114433E+02  0.70077461034E+02  0.00000000000E+00 0. -1.
         13    1    4    4    0    0  0.64952632975E+01  0.35547007025E+02 -0.50695267334E+02  0.62255829316E+02  0.00000000000E+00 0.  1.
          1    1    1    2  501    0  0.41098055461E+02  0.95825789609E+02 -0.14990147243E+02  0.10533915051E+03  0.00000000000E+00 0. -1.
<scales pt_clust_5="13000.00000" pt_clust_6="13000.00000" pt_clust_7="13000.00000" pt_clust_8="13000.00000" pt_clust_9="104.26712"></scales>
<clustering>
<clus scale="   92.975">  7  8 -1 -1</clus>
<clus scale="  103.794">  5  6 -1 -1</clus>
<clus scale="  104.267">  1  9  2 -1</clus>
<clus scale="  121.031">  1  7  2 -1</clus>
<clus scale="  104.267">  1  5  2 -1</clus>
</clustering>
</event>
<event>
 9    2  0.6469128E-005  0.1281790E+03  0.7546771E-02  0.1233466E+00
          2   -1    0    0  502    0 -0.00000000000E+00  0.00000000000E+00  0.14648234415E+04  0.14648234415E+04  0.00000000000E+00 0. -1.
         21   -1    0    0  501  502  0.00000000000E+00 -0.00000000000E+00 -0.27425144264E+02  0.27425144264E+02  0.00000000000E+00 0.  1.
         24    2    1    2    0    0  0.35330761975E+02 -0.76932382396E+02  0.73336877647E+03  0.74277652765E+03  0.81977762430E+02 0.  0.
         23    2    1    2    0    0 -0.10395692427E+03  0.54652235209E+02  0.26589960926E+03  0.30544078166E+03  0.93795308926E+02 0.  0.
        -11    1    3    3    0    0  0.41621289181E+02 -0.30834863149E+01  0.20224592435E+03  0.20650727231E+03  0.00000000000E+00 0.  1.
         12    1    3    3    0    0 -0.62905272059E+01 -0.73848896081E+02  0.53112285212E+03  0.53626925534E+03  0.00000000000E+00 0. -1.
        -13    1    4    4    0    0 -0.14491642784E+01  0.47385451624E+02  0.89975832375E+02  0.10170118738E+03  0.00000000000E+00 0. -1.
         13    1    4    4    0    0 -0.10250776000E+03  0.72667835853E+01  0.17592377689E+03  0.20373959428E+03  0.00000000000E+00 0.  1.
          1    1    1    2  501    0  0.68626162299E+02  0.22280147186E+02  0.43812991150E+03  0.44403127644E+03  0.00000000000E+00 0. -1.
<scales pt_clust_5="13000.00000" pt_clust_6="13000.00000" pt_clust_7="13000.00000" pt_clust_8="13000.00000" pt_clust_9="72.15234"></scales>
<clustering>
<clus scale="   72.152">  2  9  1 -1</clus>
<clus scale="   81.978">  5  6 -1 -1</clus>
<clus scale="   93.795">  7  8 -1 -1</clus>
<clus scale="  119.803">  1  5  2 -1</clus>
<clus scale="   72.152">  2  5  1 -1</clus>
</clustering>
</event>
<event>
 9    2  0.6469128E-005  0.9238409E+02  0.7546771E-02  0.1307963E+00
         21   -1    0    0  501  502  0.00000000000E+00  0.00000000000E+00  0.42178407933E+02  0.42178407933E+02  0.00000000000E+00 0. -1.
          2   -1    0    0  502    0 -0.00000000000E+00 -0.00000000000E+00 -0.92856574692E+03  0.92856574692E+03  0.00000000000E+00 0. -1.
         24    2    1    2    0    0 -0.49883827330E+01 -0.15917703632E+02 -0.57538322911E+03  0.58046739999E+03  0.74821687094E+02 0.  0.
         23    2    1    2    0    0  0.26713417191E+02 -0.23388563597E+02 -0.32789591265E+03  0.34229454185E+03  0.91592533986E+02 0.  0.
        -11    1    3    3    0    0  0.12203783837E+02  0.19598971644E+02 -0.73628786312E+02  0.77163788160E+02  0.00000000000E+00 0.  1.
         12    1    3    3    0    0 -0.17192166570E+02 -0.35516675276E+02 -0.50175444279E+03  0.50330361183E+03  0.00000000000E+00 0. -1.
        -11    1    4    4    0    0  0.48763031355E+02 -0.31690087580E+02 -0.30087734808E+03  0.30644619996E+03  0.00000000000E+00 0. -1.
         11    1    4    4    0    0 -0.22049614164E+02  0.83015239832E+01 -0.27018564564E+02  0.35848341891E+02  0.00000000000E+00 0.  1.
          1    1    1    2  501    0 -0.21725034458E+02  0.39306267229E+02  0.16891802765E+02  0.47982213020E+02  0.00000000000E+00 0. -1.
<scales pt_clust_5="13000.00000" pt_clust_6="13000.00000" pt_clust_7="13000.00000" pt_clust_8="13000.00000" pt_clust_9="44.91058"></scales>
<clustering>
<clus scale="   44.911">  1  9  2 -1</clus>
<clus scale="   74.822">  5  6 -1 -1</clus>
<clus scale="   75.789">  2  5  1 -1</clus>
<clus scale="   91.593">  7  8 -1 -1</clus>
<clus scale="   44.911">  1  5  2 -1</clus>
</clustering>
</event>
<event>
 9    2  0.6469128E-005  0.1641560E+03  0.7546771E-02  0.1200895E+00
         -3   -1    0    0    0  501 -0.00000000000E+00  0.00000000000E+00  0.25384002587E+03  0.25384002587E+03  0.00000000000E+00 0.  1.
         21   -1    0    0  501  502  0.00000000000E+00 -0.00000000000E+00 -0.20886547200E+03  0.20886547200E+03  0.00000000000E+00 0.  1.
         24    2    1    2    0    0  0.75989506862E+02  0.30850028201E+02  0.92110473806E+02  0.14609662416E+03  0.78318291693E+02 0.  0.
         23    2    1    2    0    0  0.48197633659E+02  0.83827183815E+02  0.22070980205E+02  0.13395372362E+03  0.90035899891E+02 0.  0.
        -11    1    3    3    0    0  0.84151415252E+02  0.39653206137E+02  0.95803160038E+02  0.13353682233E+03  0.00000000000E+00 0.  1.
         12    1    3    3    0    0 -0.81619083906E+01 -0.88031779359E+01 -0.36926862316E+01  0.12559801828E+02  0.00000000000E+00 0. -1.
        -13    1    4    4    0    0  0.64525034133E+01  0.89728256096E+02  0.14619403616E+02  0.91140121266E+02  0.00000000000E+00 0.  1.
         13    1    4    4    0    0  0.41745130246E+02 -0.59010722810E+01  0.74515765888E+01  0.42813602359E+02  0.00000000000E+00 0. -1.
         -4    1    1    2    0  502 -0.12418714052E+03 -0.11467721202E+03 -0.69206900134E+02  0.18265515008E+03  0.00000000000E+00 0.  1.
<scales pt_clust_5="13000.00000" pt_clust_6="13000.00000" pt_clust_7="13000.00000" pt_clust_8="13000.00000" pt_clust_9="137.26156"></scales>
<clustering>
<clus scale="   78.318">  5  6 -1 -1</clus>
<clus scale="   90.036">  7  8 -1 -1</clus>
<clus scale="  113.401">  1  5  2 -1</clus>
<clus scale="  137.262">  2  9  1 -1</clus>
<clus scale="  137.262">  2  5  1 -1</clus>
</clustering>
</event>
<event>
 9    2  0.6469128E-005  0.9564933E+02  0.7546771E-02  0.1295253E+00
         21   -1    0    0  501  502  0.00000000000E+00  0.00000000000E+00  0.33070677771E+02  0.33070677771E+02  0.00000000000E+00 0.  1.
          2   -1    0    0  502    0 -0.00000000000E+00 -0.00000000000E+00 -0.10767088144E+04  0.10767088144E+04  0.00000000000E+00 0. -1.
         24    2    1    2    0    0  0.29514440788E+02 -0.13505291125E+01 -0.79481427807E+03  0.79946960668E+03  0.80925825508E+02 0.  0.
         23    2    1    2    0    0 -0.23775670705E+02  0.43898452284E+02 -0.24638459696E+03  0.26730745252E+03  0.90860045793E+02 0.  0.
        -13    1    3    3    0    0 -0.40220914143E+01  0.23854528928E+02 -0.83883745947E+02  0.87302340196E+02  0.00000000000E+00 0.  1.
         14    1    3    3    0    0  0.33536532202E+02 -0.25205058040E+02 -0.71093053212E+03  0.71216726648E+03  0.00000000000E+00 0. -1.
        -11    1    4    4    0    0 -0.53098448895E+02  0.27578608809E+02 -0.20745065662E+03  0.21590692410E+03  0.00000000000E+00 0.  1.
         11    1    4    4    0    0  0.29322778191E+02  0.16319843475E+02 -0.38933940337E+02  0.51400528422E+02  0.00000000000E+00 0. -1.
          1    1    1    2  501    0 -0.57387700829E+01 -0.42547923172E+02 -0.24392616422E+01  0.43002433020E+02  0.00000000000E+00 0. -1.
<scales pt_clust_5="13000.00000" pt_clust_6="13000.00000" pt_clust_7="13000.00000" pt_clust_8="13000.00000" pt_clust_9="42.93320"></scales>
<clustering>
<clus scale="   42.933">  1  9  2 -1</clus>
<clus scale="   80.926">  5  6 -1 -1</clus>
<clus scale="   86.268">  2  5  1 -1</clus>
<clus scale="   90.860">  7  8 -1 -1</clus>
<clus scale="   42.933">  1  5  2 -1</clus>
</clustering>
</event>
<event>
 9    2  0.6469128E-005  0.9678624E+02  0.7546771E-02  0.1293341E+00
          2   -1    0    0  502    0 -0.00000000000E+00  0.00000000000E+00  0.64569725150E+03  0.64569725150E+03  0.00000000000E+00 0. -1.
         21   -1    0    0  501  502  0.00000000000E+00 -0.00000000000E+00 -0.21839397865E+02  0.21839397865E+02  0.00000000000E+00 0.  1.
         23    2    1    2    0    0  0.38390305252E+01  0.34539051256E+02  0.38937367539E+03  0.40146951541E+03  0.91423347692E+02 0.  0.
         24    2    1    2    0    0 -0.25481061398E+02 -0.19465903126E+02  0.11571567312E+03  0.14440557427E+03  0.80216251468E+02 0.  0.
        -11    1    4    4    0    0 -0.46631319925E+02  0.11574388482E+01  0.10132452385E+03  0.11154585961E+03  0.00000000000E+00 0.  1.
         12    1    4    4    0    0  0.21150258527E+02 -0.20623341975E+02  0.14391149263E+02  0.32859714653E+02  0.00000000000E+00 0. -1.
        -13    1    3    3    0    0 -0.15040849712E+02 -0.21852175321E+02  0.47001717761E+02  0.53971346091E+02  0.00000000000E+00 0.  1.
         13    1    3    3    0    0  0.18879880237E+02  0.56391226577E+02  0.34237195763E+03  0.34749816932E+03  0.00000000000E+00 0. -1.
          1    1    1    2  501    0  0.21642030873E+02 -0.15073148129E+02  0.11876850513E+03  0.12166155969E+03  0.00000000000E+00 0. -1.
<scales pt_clust_5="13000.00000" pt_clust_6="13000.00000" pt_clust_7="13000.00000" pt_clust_8="13000.00000" pt_clust_9="26.37381"></scales>
<clustering>
<clus scale="   26.374">  2  9  1 -1</clus>
<clus scale="   80.216">  5  6 -1 -1</clus>
<clus scale="   86.279">  2  5  1 -1</clus>
<clus scale="   91.423">  7  8 -1 -1</clus>
<clus scale="   26.374">  2  5  1 -1</clus>
</clustering>
</event>
<event>
 9    2  0.6469128E-005  0.2283493E+03  0.7546771E-02  0.1160740E+00
         21   -1    0    0  501  502  0.00000000000E+00  0.00000000000E+00  0.40420107569E+02  0.40420107569E+02  0.00000000000E+00 0.  1.
          2   -1    0    0  502    0 -0.00000000000E+00 -0.00000000000E+00 -0.20849626026E+04  0.20849626026E+04  0.00000000000E+00 0. -1.
         23    2    1    2    0    0 -0.13829170579E+02  0.45652298392E+02 -0.21644069560E+03  0.24003964691E+03  0.92179602232E+02 0.  0.
         24    2    1    2    0    0  0.14257940174E+03 -0.18130201507E+03 -0.68941904475E+03  0.73140377393E+03  0.80334020110E+02 0.  0.
        -11    1    4    4    0    0  0.15270411669E+03 -0.17059022650E+03 -0.65811245221E+03  0.69680095607E+03  0.00000000000E+00 0.  1.
         12    1    4    4    0    0 -0.10124714949E+02 -0.10711788574E+02 -0.31306592541E+02  0.34602817860E+02  0.00000000000E+00 0. -1.
        -13    1    3    3    0    0  0.28347887273E+02  0.44691533102E+02 -0.16626479567E+03  0.17448472174E+03  0.00000000000E+00 0. -1.
         13    1    3    3    0    0 -0.42177057852E+02  0.96076528996E+00 -0.50175899937E+02  0.65554925165E+02  0.00000000000E+00 0.  1.
          1    1    1    2  501    0 -0.12875023116E+03  0.13564971668E+03 -0.11386827547E+04  0.11539392893E+04  0.00000000000E+00 0. -1.
<scales pt_clust_5="13000.00000" pt_clust_6="13000.00000" pt_clust_7="13000.00000" pt_clust_8="13000.00000" pt_clust_9="213.75195"></scales>
<clustering>
<clus scale="   80.334">  5  6 -1 -1</clus>
<clus scale="   92.180">  7  8 -1 -1</clus>
<clus scale="  103.791">  2  7  1 -1</clus>
<clus scale="  213.752">  1  9  2 -1</clus>
<clus scale="  213.752">  1  5  2 -1</clus>
</clustering>
</event>
<event>
 9    2  0.6469128E-005  0.1296363E+03  0.7546771E-02  0.1231466E+00
          2   -1    0    0  502    0 -0.00000000000E+00  0.00000000000E+00  0.25948818386E+03  0.25948818386E+03  0.00000000000E+00 0. -1.
         21   -1    0    0  501  502  0.00000000000E+00 -0.00000000000E+00 -0.95018714714E+02  0.95018714714E+02  0.00000000000E+00 0. -1.
         24    2    1    2    0    0  0.14898269165E+02  0.81979544587E+02  0.10290657022E+03  0.15449502761E+03  0.79601175920E+02 0.  0.
         23    2    1    2    0    0  0.16177020865E+02 -0.10487416983E+03  0.74443521535E+02  0.15932098803E+03  0.92633966915E+02 0.  0.
        -11    1    3    3    0    0  0.24972579285E+02  0.63877294532E+02  0.23607465040E+02  0.72534480618E+02  0.00000000000E+00 0.  1.
         12    1    3    3    0    0 -0.10074310120E+02  0.18102250055E+02  0.79299105180E+02  0.81960546996E+02  0.00000000000E+00 0. -1.
        -11    1    4    4    0    0  0.48954293918E+02 -0.77191983475E+02  0.71983762685E+02  0.11634770000E+03  0.00000000000E+00 0. -1.
         11    1    4    4    0    0 -0.32777273052E+02 -0.27682186354E+02  0.24597588498E+01  0.42973288025E+02  0.00000000000E+00 0.  1.
          1    1    1    2  501    0 -0.31075290030E+02  0.22894625241E+02 -0.12880622607E+02  0.40690882936E+02  0.00000000000E+00 0. -1.
<scales pt_clust_5="13000.00000" pt_clust_6="13000.00000" pt_clust_7="13000.00000" pt_clust_8="13000.00000" pt_clust_9="38.59841"></scales>
<clustering>
<clus scale="   38.598">  2  9  1 -1</clus>
<clus scale="   79.601">  5  6 -1 -1</clus>
<clus scale="   92.634">  7  8 -1 -1</clus>
<clus scale="  120.668">  1  5  2 -1</clus>
<clus scale="   38.598">  2  5  1 -1</clus>
</clustering>
</event>
<event>
 9    2  0.6469128E-005  0.1918464E+03  0.7546771E-02  0.1157563E+00
          2   -1    0    0  502    0 -0.00000000000E+00  0.00000000000E+00  0.11493716271E+04  0.11493716271E+04  0.00000000000E+00 0. -1.
         21   -1    0    0  501  502  0.00000000000E+00 -0.00000000000E+00 -0.12401115543E+03  0.12401115543E+03  0.00000000000E+00 0. -1.
         23    2    1    2    0    0  0.16954337012E+03  0.10979785936E+03  0.90195192724E+03  0.92838387044E+03  0.87056347052E+02 0.  0.
         24    2    1    2    0    0 -0.91359913529E+02 -0.72297647828E+02  0.18935055672E+03  0.23606192229E+03  0.79360028625E+02 0.  0.
        -13    1    4    4    0    0 -0.68190806168E+02 -0.40689624157E+01  0.81303795626E+02  0.10619251237E+03  0.00000000000E+00 0.  1.
         14    1    4    4    0    0 -0.23169107361E+02 -0.68228685413E+02  0.10804676110E+03  0.12986940992E+03  0.00000000000E+00 0. -1.
        -11    1    3    3    0    0  0.51969769650E+02 -0.89501209352E+01  0.20396919721E+03  0.21067604286E+03  0.00000000000E+00 0.  1.
         11    1    3    3    0    0  0.11757360047E+03  0.11874798030E+03  0.69798273003E+03  0.71770782758E+03  0.00000000000E+00 0. -1.
          1    1    1    2  501    0 -0.78183456587E+02 -0.37500211535E+02 -0.65942012326E+02  0.10893698976E+03  0.00000000000E+00 0. -1.
<scales pt_clust_5="13000.00000" pt_clust_6="13000.00000" pt_clust_7="13000.00000" pt_clust_8="13000.00000" pt_clust_9="86.71170"></scales>
<clustering>
<clus scale="   79.360">  5  6 -1 -1</clus>
<clus scale="   86.712">  2  9  1 -1</clus>
<clus scale="   87.056">  7  8 -1 -1</clus>
<clus scale="  188.479">  2  5  1 -1</clus>
<clus scale="   86.712">  2  5  1 -1</clus>
</clustering>
</event>
<event>
 9    2  0.6469128E-005  0.9117085E+02  0.7546771E-02  0.1306142E+00
         21   -1    0    0  501  502  0.00000000000E+00  0.00000000000E+00  0.11815292559E+03  0.11815292559E+03  0.00000000000E+00 0.  1.
         -1   -1    0    0    0  501 -0.00000000000E+00 -0.00000000000E+00 -0.13790303500E+03  0.13790303500E+03  0.00000000000E+00 0.  1.
         23    2    1    2    0    0  0.16490889071E+02  0.17981673708E+02 -0.72078157277E+02  0.11702345605E+03  0.88904097189E+02 0.  0.
         24    2    1    2    0    0 -0.18931677416E+02  0.33166962009E+01 -0.12889059867E+01  0.81288623930E+02  0.78973224693E+02 0.  0.
        -11    1    4    4    0    0 -0.65657077724E+01  0.39477514180E+02 -0.11670751011E+02  0.41686797353E+02  0.00000000000E+00 0.  1.
         12    1    4    4    0    0 -0.12365969644E+02 -0.36160817979E+02  0.10381845024E+02  0.39601826577E+02  0.00000000000E+00 0. -1.
        -13    1    3    3    0    0  0.36463421977E+02  0.24270813831E+02 -0.82670230883E+02  0.93557579172E+02  0.00000000000E+00 0.  1.
         13    1    3    3    0    0 -0.19972532906E+02 -0.62891401231E+01  0.10592073606E+02  0.23465876874E+02  0.00000000000E+00 0. -1.
         -2    1    1    2    0  502  0.24407883457E+01 -0.21298369909E+02  0.53616953847E+02  0.57743880614E+02  0.00000000000E+00 0.  1.
<scales pt_clust_5="13000.00000" pt_clust_6="13000.00000" pt_clust_7="13000.00000" pt_clust_8="13000.00000" pt_clust_9="21.43777"></scales>
<clustering>
<clus scale="   21.438">  1  9  2 -1</clus>
<clus scale="   78.973">  5  6 -1 -1</clus>
<clus scale="   81.517">  1  5  2 -1</clus>
<clus scale="   88.904">  7  8 -1 -1</clus>
<clus scale="   21.438">  1  5  2 -1</clus>
</clustering>
</event>
<event>
 9    2  0.6469128E-005  0.2259285E+03  0.7546771E-02  0.1131072E+00
          2   -1    0    0  502    0 -0.00000000000E+00  0.00000000000E+00  0.10280127584E+04  0.10280127584E+04  0.00000000000E+00 0. -1.
         21   -1    0    0  501  502  0.00000000000E+00 -0.00000000000E+00 -0.16741194958E+03  0.16741194958E+03  0.00000000000E+00 0.  1.
         23    2    1    2    0    0  0.36972839620E+02  0.19592000853E+03  0.87334144521E+03  0.90140783667E+03  0.10029540106E+03 0.  0.
         24    2    1    2    0    0 -0.17785161824E+02 -0.22674660997E+03  0.24190306066E+02  0.24222555111E+03  0.79735246837E+02 0.  0.
        -13    1    4    4    0    0 -0.14478142632E+02 -0.10586617112E+03 -0.28090407933E+02  0.11048227831E+03  0.00000000000E+00 0.  1.
         14    1    4    4    0    0 -0.33070191917E+01 -0.12088043885E+03  0.52280713999E+02  0.13174327280E+03  0.00000000000E+00 0. -1.
        -11    1    3    3    0    0  0.58843193224E+02  0.11502802777E+03  0.65322690788E+03  0.66588239332E+03  0.00000000000E+00 0. -1.
         11    1    3    3    0    0 -0.21870353605E+02  0.80891980760E+02  0.22011453733E+03  0.23552544334E+03  0.00000000000E+00 0.  1.
          1    1    1    2  501    0 -0.19187677795E+02  0.30826601440E+02 -0.36930942469E+02  0.51791320191E+02  0.00000000000E+00 0. -1.
<scales pt_clust_5="13000.00000" pt_clust_6="13000.00000" pt_clust_7="13000.00000" pt_clust_8="13000.00000" pt_clust_9="36.31042"></scales>
<clustering>
<clus scale="   36.310">  2  9  1 -1</clus>
<clus scale="   79.735">  5  6 -1 -1</clus>
<clus scale="  100.295">  7  8 -1 -1</clus>
<clus scale="  217.583">  2  5  1 -1</clus>
<clus scale="   36.310">  2  5  1 -1</clus>
</clustering>
</event>
<event>
 9    2  0.6469128E-005  0.1109113E+03  0.7546771E-02  0.1261936E+00
         -3   -1    0    0    0  501 -0.00000000000E+00  0.00000000000E+00  0.59667204625E+03  0.59667204625E+03  0.00000000000E+00 0.  1.
         21   -1    0    0  501  502  0.00000000000E+00 -0.00000000000E+00 -0.36310523030E+02  0.36310523030E+02  0.00000000000E+00 0. -1.
         23    2    1    2    0    0  0.64150743022E+02 -0.34848066272E+02  0.35008505380E+03  0.36849008313E+03  0.88857700374E+02 0.  0.
         24    2    1    2    0    0 -0.50833523493E+02  0.56275663157E+01  0.64594839489E+02  0.11531365638E+03  0.80678556292E+02 0.  0.
        -13    1    4    4    0    0 -0.48170092755E+02  0.30413320188E+02  0.69544428726E+02  0.89898584237E+02  0.00000000000E+00 0.  1.
         14    1    4    4    0    0 -0.26634307383E+01 -0.24785753873E+02 -0.49495892377E+01  0.25415072142E+02  0.00000000000E+00 0. -1.
        -11    1    3    3    0    0 -0.10156583873E+02 -0.39081109250E+02  0.13353917549E+03  0.13951057554E+03  0.00000000000E+00 0. -1.
         11    1    3    3    0    0  0.74307326895E+02  0.42330429776E+01  0.21654587831E+03  0.22897950759E+03  0.00000000000E+00 0.  1.
         -4    1    1    2    0  502 -0.13317219529E+02  0.29220499957E+02  0.14568162993E+03  0.14917882977E+03  0.00000000000E+00 0.  1.
<scales pt_clust_5="13000.00000" pt_clust_6="13000.00000" pt_clust_7="13000.00000" pt_clust_8="13000.00000" pt_clust_9="32.11210"></scales>
<clustering>
<clus scale="   32.112">  2  9  1 -1</clus>
<clus scale="   80.679">  5  6 -1 -1</clus>
<clus scale="   88.858">  7  8 -1 -1</clus>
<clus scale="  104.473">  2  5  1 -1</clus>
<clus scale="   32.112">  2  5  1 -1</clus>
</clustering>
</event>
<event>
 9    2  0.6469128E-005  0.1997147E+03  0.7546771E-02  0.1149980E+00
         21   -1    0    0  501  502  0.00000000000E+00  0.00000000000E+00  0.58125537519E+02  0.58125537519E+02  0.00000000000E+00 0. -1.
          2   -1    0    0  502    0 -0.00000000000E+00 -0.00000000000E+00 -0.58695271852E+03  0.58695271852E+03  0.00000000000E+00 0. -1.
         24    2    1    2    0    0 -0.49410938237E+01  0.37318611149E+02 -0.21183500637E+03  0.23088437211E+03  0.83764134424E+02 0.  0.
         23    2    1    2    0    0 -0.27364208951E+02  0.54846433353E+02 -0.29528929270E+03  0.31414867864E+03  0.87958482987E+02 0.  0.
        -11    1    3    3    0    0  0.22873378237E+02  0.35567700436E+02 -0.19218898297E+03  0.19678632555E+03  0.00000000000E+00 0.  1.
         12    1    3    3    0    0 -0.27814472061E+02  0.17509107137E+01 -0.19646023401E+02  0.34098046569E+02  0.00000000000E+00 0. -1.
        -13    1    4    4    0    0 -0.32901244562E+02 -0.19585525745E+01 -0.36665220301E+02  0.49301787003E+02  0.00000000000E+00 0.  1.
         13    1    4    4    0    0  0.55370356110E+01  0.56804985928E+02 -0.25862407240E+03  0.26484689164E+03  0.00000000000E+00 0. -1.
          1    1    1    2  501    0  0.32305302775E+02 -0.92165044503E+02 -0.21702881933E+02  0.10004520528E+03  0.00000000000E+00 0. -1.
<scales pt_clust_5="13000.00000" pt_clust_6="13000.00000" pt_clust_7="13000.00000" pt_clust_8="13000.00000" pt_clust_9="97.66283"></scales>
<clustering>
<clus scale="   83.764">  5  6 -1 -1</clus>
<clus scale="   87.958">  7  8 -1 -1</clus>
<clus scale="   88.833">  5  7 -1 -1</clus>
<clus scale="   97.663">  1  9  2 -1</clus>
<clus scale="   97.663">  1  5  2 -1</clus>
</clustering>
</event>
<event>
 9    2  0.6469128E-005  0.1018683E+03  0.7546771E-02  0.1283959E+00
         21   -1    0    0  501  502  0.00000000000E+00  0.00000000000E+00  0.22259078520E+02  0.22259078520E+02  0.00000000000E+00 0. -1.
         -1   -1    0    0    0  501 -0.00000000000E+00 -0.00000000000E+00 -0.66871196414E+03  0.66871196414E+03  0.00000000000E+00 0.  1.
         23    2    1    2    0    0  0.55450886728E+02 -0.31855375911E+01 -0.46571761013E+03  0.47768633515E+03  0.90589149025E+02 0.  0.
         24    2    1    2    0    0 -0.27408151915E+02  0.17541592336E+02 -0.13283813666E+03  0.15595559455E+03  0.74948400038E+02 0.  0.
        -11    1    4    4    0    0 -0.46060355830E+02  0.72080148541E+01 -0.12470340250E+03  0.13313320567E+03  0.00000000000E+00 0.  1.
         12    1    4    4    0    0  0.18652203915E+02  0.10333577482E+02 -0.81347341611E+01  0.22822388883E+02  0.00000000000E+00 0. -1.
        -13    1    3    3    0    0  0.75362581579E+02  0.58665946902E+01 -0.42293172383E+03  0.42963377272E+03  0.00000000000E+00 0.  1.
         13    1    3    3    0    0 -0.19911694850E+02 -0.90521322813E+01 -0.42785886296E+02  0.48052562438E+02  0.00000000000E+00 0. -1.
         -2    1    1    2    0  502 -0.28042734813E+02 -0.14356054745E+02 -0.47897138834E+02  0.57329112954E+02  0.00000000000E+00 0.  1.
<scales pt_clust_5="13000.00000" pt_clust_6="13000.00000" pt_clust_7="13000.00000" pt_clust_8="13000.00000" pt_clust_9="31.50383"></scales>
<clustering>
<clus scale="   31.504">  1  9  2 -1</clus>
<clus scale="   74.948">  5  6 -1 -1</clus>
<clus scale="   88.250">  1  5  2 -1</clus>
<clus scale="   90.589">  7  8 -1 -1</clus>
<clus scale="   31.504">  1  5  2 -1</clus>
</clustering>
</event>
<event>
 9    2  0.6469128E-005  0.1040080E+03  0.7546771E-02  0.1276502E+00
         21   -1    0    0  501  502  0.00000000000E+00  0.00000000000E+00  0.13969015187E+02  0.13969015187E+02  0.00000000000E+00 0. -1.
          2   -1    0    0  502    0 -0.00000000000E+00 -0.00000000000E+00 -0.98603481303E+03  0.98603481303E+03  0.00000000000E+00 0. -1.
         23    2    1    2    0    0 -0.61992471334E+02  0.42277949749E+01 -0.49740737807E+03  0.50935538338E+03  0.90376247263E+02 0.  0.
         24    2    1    2    0    0  0.37073488026E+02 -0.24631307684E+02 -0.35739821643E+03  0.36904575429E+03  0.80499309433E+02 0.  0.
        -13    1    4    4    0    0 -0.23450143210E+02  0.59201375391E+01 -0.92946825740E+02  0.96042020284E+02  0.00000000000E+00 0.  1.
         14    1    4    4    0    0  0.60523631236E+02 -0.30551445223E+02 -0.26445139069E+03  0.27300373401E+03  0.00000000000E+00 0. -1.
        -13    1    3    3    0    0 -0.39518410457E+02  0.45058237546E+02 -0.21803895620E+03  0.22612592942E+03  0.00000000000E+00 0. -1.
         13    1    3    3    0    0 -0.22474060877E+02 -0.40830442571E+02 -0.27936842187E+03  0.28322945396E+03  0.00000000000E+00 0.  1.
          1    1    1    2  501    0  0.24918983307E+02  0.20403512709E+02 -0.11726020334E+03  0.12160269055E+03  0.00000000000E+00 0. -1.
<scales pt_clust_5="13000.00000" pt_clust_6="13000.00000" pt_clust_7="13000.00000" pt_clust_8="13000.00000" pt_clust_9="32.20651"></scales>
<clustering>
<clus scale="   32.207">  1  9  2 -1</clus>
<clus scale="   80.499">  5  6 -1 -1</clus>
<clus scale="   90.376">  7  8 -1 -1</clus>
<clus scale="   95.551">  1  5  2 -1</clus>
<clus scale="   32.207">  1  5  2 -1</clus>
</clustering>
</event>
<event>
 9    2  0.6469128E-005  0.1320886E+03  0.7546771E-02  0.1234037E+00
          2   -1    0    0  502    0 -0.00000000000E+00  0.00000000000E+00  0.11918173729E+03  0.11918173729E+03  0.00000000000E+00 0. -1.
         21   -1    0    0  501  502  0.00000000000E+00 -0.00000000000E+00 -0.55806603725E+03  0.55806603725E+03  0.00000000000E+00 0. -1.
         23    2    1    2    0    0  0.29631001748E+02 -0.43109337139E+02 -0.30960499307E+02  0.11254369804E+03  0.94715997799E+02 0.  0.
         24    2    1    2    0    0  0.98395248665E+02  0.27018803378E+02 -0.41551923258E+03  0.43544729077E+03  0.80910257067E+02 0.  0.
        -11    1    4    4    0    0  0.61442523258E+02  0.12329934769E+02 -0.10415750603E+03  0.12155655892E+03  0.00000000000E+00 0.  1.
         12    1    4    4    0    0  0.36952725407E+02  0.14688868610E+02 -0.31136172655E+03  0.31389073184E+03  0.00000000000E+00 0. -1.
        -13    1    3    3    0    0 -0.25717686023E+02  0.11119943982E+02 -0.19679690769E+02  0.34239491196E+02  0.00000000000E+00 0.  1.
         13    1    3    3    0    0  0.55348687772E+02 -0.54229281121E+02 -0.11280808537E+02  0.78304206849E+02  0.00000000000E+00 0. -1.
          1    1    1    2  501    0 -0.12802625041E+03  0.16090533761E+02  0.75954319228E+01  0.12925678573E+03  0.00000000000E+00 0. -1.
<scales pt_clust_5="13000.00000" pt_clust_6="13000.00000" pt_clust_7="13000.00000" pt_clust_8="13000.00000" pt_clust_9="104.40757"></scales>
<clustering>
<clus scale="   80.910">  5  6 -1 -1</clus>
<clus scale="   94.716">  7  8 -1 -1</clus>
<clus scale="  108.201">  1  7  2 -1</clus>
<clus scale="  104.408">  2  9  1 -1</clus>
<clus scale="  104.408">  2  5  1 -1</clus>
</clustering>
</event>
<event>
 9    2  0.6469128E-005  0.9263680E+02  0.7546771E-02  0.1301572E+00
         21   -1    0    0  501  502  0.00000000000E+00  0.00000000000E+00  0.13132744789E+03  0.13132744789E+03  0.00000000000E+00 0. -1.
          2   -1    0    0  502    0 -0.00000000000E+00 -0.00000000000E+00 -0.79826958447E+03  0.79826958447E+03  0.00000000000E+00 0. -1.
         24    2    1    2    0    0  0.20782840949E+02 -0.10081015807E+01 -0.59933808580E+03  0.60538425716E+03  0.82770858316E+02 0.  0.
         23    2    1    2    0    0 -0.14268247465E+01  0.13353659238E+02 -0.18391075731E+03  0.20566186571E+03  0.91067449250E+02 0.  0.
        -13    1    3    3    0    0 -0.82849941896E+01  0.27090920236E+02 -0.87937649464E+02  0.92388252939E+02  0.00000000000E+00 0.  1.
         14    1    3    3    0    0  0.29067835139E+02 -0.28099021817E+02 -0.51140043634E+03  0.51299600422E+03  0.00000000000E+00 0. -1.
        -13    1    4    4    0    0 -0.25164882954E+02 -0.22590531118E+02 -0.27982878737E+02  0.43893563683E+02  0.00000000000E+00 0. -1.
         13    1    4    4    0    0  0.23738058208E+02  0.35944190356E+02 -0.15592787857E+03  0.16176830203E+03  0.00000000000E+00 0.  1.
          1    1    1    2  501    0 -0.19356016203E+02 -0.12345557657E+02  0.11630670652E+03  0.11855090948E+03  0.00000000000E+00 0. -1.
<scales pt_clust_5="13000.00000" pt_clust_6="13000.00000" pt_clust_7="13000.00000" pt_clust_8="13000.00000" pt_clust_9="22.95797"></scales>
<clustering>
<clus scale="   22.958">  1  9  2 -1</clus>
<clus scale="   82.771">  5  6 -1 -1</clus>
<clus scale="   84.494">  2  5  1 -1</clus>
<clus scale="   91.067">  7  8 -1 -1</clus>
<clus scale="   22.958">  1  5  2 -1</clus>
</clustering>
</event>
<event>
 9    2  0.6469128E-005  0.1358758E+03  0.7546771E-02  0.1221124E+00
          2   -1    0    0  502    0 -0.00000000000E+00  0.00000000000E+00  0.74551340492E+02  0.74551340492E+02  0.00000000000E+00 0. -1.
         21   -1    0    0  501  502  0.00000000000E+00 -0.00000000000E+00 -0.65780311410E+03  0.65780311410E+03  0.00000000000E+00 0.  1.
         23    2    1    2    0    0 -0.75399813585E+02 -0.73457502942E+02 -0.14302455919E+02  0.14027206449E+03  0.91599973826E+02 0.  0.
         24    2    1    2    0    0  0.31920680705E+02  0.76484432582E+02 -0.35589495856E+03  0.37461570933E+03  0.82503999095E+02 0.  0.
        -13    1    4    4    0    0  0.26269348801E+02  0.79514097307E+02 -0.17916248024E+03  0.19776694537E+03  0.00000000000E+00 0.  1.
         14    1    4    4    0    0  0.56513319049E+01 -0.30296647247E+01 -0.17673247832E+03  0.17684876396E+03  0.00000000000E+00 0. -1.
        -11    1    3    3    0    0 -0.71019778536E+02 -0.44638690296E+02  0.28407304113E+02  0.88562952421E+02  0.00000000000E+00 0. -1.
         11    1    3    3    0    0 -0.43800350492E+01 -0.28818812645E+02 -0.42709760032E+02  0.51709112072E+02  0.00000000000E+00 0.  1.
          1    1    1    2  501    0  0.43479132880E+02 -0.30269296404E+01 -0.21305435913E+03  0.21746668077E+03  0.00000000000E+00 0. -1.
<scales pt_clust_5="13000.00000" pt_clust_6="13000.00000" pt_clust_7="13000.00000" pt_clust_8="13000.00000" pt_clust_9="43.58437"></scales>
<clustering>
<clus scale="   43.584">  2  9  1 -1</clus>
<clus scale="   82.504">  5  6 -1 -1</clus>
<clus scale="   91.600">  7  8 -1 -1</clus>
<clus scale="  129.918">  2  5  1 -1</clus>
<clus scale="   43.584">  2  5  1 -1</clus>
</clustering>
</event>
<event>
 9    2  0.6469128E-005  0.1409162E+03  0.7546771E-02  0.1221030E+00
         -3   -1    0    0    0  501 -0.00000000000E+00  0.00000000000E+00  0.29277498456E+03  0.29277498456E+03  0.00000000000E+00 0.  1.
         21   -1    0    0  501  502  0.00000000000E+00 -0.00000000000E+00 -0.12640496415E+03  0.12640496415E+03  0.00000000000E+00 0.  1.
         23    2    1    2    0    0 -0.23055577001E+02  0.69279881009E+02  0.44955714523E+02  0.12505847880E+03  0.91034857650E+02 0.  0.
         24    2    1    2    0    0  0.11782754559E+03  0.12080543534E+02  0.74356416425E+02  0.16064604269E+03  0.79050644113E+02 0.  0.
        -13    1    4    4    0    0  0.69234458625E+02 -0.21050512616E+02  0.71553231609E+02  0.10176639571E+03  0.00000000000E+00 0.  1.
         14    1    4    4    0    0  0.48593086967E+02  0.33131056150E+02  0.28031848160E+01  0.58879646973E+02  0.00000000000E+00 0. -1.
        -13    1    3    3    0    0  0.27492919931E+02  0.40181570257E+02  0.45632759711E+02  0.66729064084E+02  0.00000000000E+00 0. -1.
         13    1    3    3    0    0 -0.50548496931E+02  0.29098310751E+02 -0.67704518803E+00  0.58329414713E+02  0.00000000000E+00 0.  1.
         -4    1    1    2    0  502 -0.94771968591E+02 -0.81360424543E+02  0.47057889466E+02  0.13347542723E+03  0.00000000000E+00 0.  1.
<scales pt_clust_5="13000.00000" pt_clust_6="13000.00000" pt_clust_7="13000.00000" pt_clust_8="13000.00000" pt_clust_9="116.65493"></scales>
<clustering>
<clus scale="   79.051">  5  6 -1 -1</clus>
<clus scale="   91.035">  7  8 -1 -1</clus>
<clus scale="  116.699">  1  7  2 -1</clus>
<clus scale="  116.655">  2  9  1 -1</clus>
<clus scale="  116.655">  2  5  1 -1</clus>
</clustering>
</event>
<event>
 9    2  0.6469128E-005  0.1465797E+03  0.7546771E-02  0.1212128E+00
         21   -1    0    0  501  502  0.00000000000E+00  0.00000000000E+00  0.25956556582E+03  0.25956556582E+03  0.00000000000E+00 0.  1.
          4   -1    0    0  502    0 -0.00000000000E+00 -0.00000000000E+00 -0.11223543090E+03  0.11223543090E+03  0.00000000000E+00 0. -1.
         23    2    1    2    0    0  0.65498346704E+02 -0.90938381637E+02  0.51847233531E+00  0.15759124845E+03  0.11079219331E+03 0.  0.
         24    2    1    2    0    0 -0.23402218807E+02  0.69242009068E+02  0.99760642352E+02  0.14745186430E+03  0.80297863345E+02 0.  0.
        -11    1    4    4    0    0  0.23687502282E+02  0.37007423533E+02  0.71128979161E+02  0.83606093303E+02  0.00000000000E+00 0.  1.
         12    1    4    4    0    0 -0.47089721089E+02  0.32234585535E+02  0.28631663191E+02  0.63845770995E+02  0.00000000000E+00 0. -1.
        -11    1    3    3    0    0  0.51503964775E+02 -0.51385176429E+02 -0.52691185853E+02  0.89830149787E+02  0.00000000000E+00 0. -1.
         11    1    3    3    0    0  0.13994381928E+02 -0.39553205208E+02  0.53209658188E+02  0.67761098665E+02  0.00000000000E+00 0.  1.
          3    1    1    2  501    0 -0.42096127897E+02  0.21696372569E+02  0.47051020237E+02  0.66757883968E+02  0.00000000000E+00 0. -1.
<scales pt_clust_5="13000.00000" pt_clust_6="13000.00000" pt_clust_7="13000.00000" pt_clust_8="13000.00000" pt_clust_9="47.35838"></scales>
<clustering>
<clus scale="   47.358">  1  9  2 -1</clus>
<clus scale="   80.298">  5  6 -1 -1</clus>
<clus scale="  110.792">  7  8 -1 -1</clus>
<clus scale="  125.134">  1  5  2 -1</clus>
<clus scale="   47.358">  1  5  2 -1</clus>
</clustering>
</event>
<event>
 9    2  0.6469128E-005  0.9943524E+02  0.7546771E-02  0.1284431E+00
         21   -1    0    0  501  502  0.00000000000E+00  0.00000000000E+00  0.39612371330E+02  0.39612371330E+02  0.00000000000E+00 0. -1.
          2   -1    0    0  502    0 -0.00000000000E+00 -0.00000000000E+00 -0.74689586255E+03  0.74689586255E+03  0.00000000000E+00 0. -1.
         24    2    1    2    0    0 -0.42396192561E+02  0.29686424667E+02 -0.64369481522E+03  0.65076683302E+03  0.80471950733E+02 0.  0.
         23    2    1    2    0    0  0.24542255415E+02 -0.13942042135E+02 -0.64858697240E+02  0.11190316253E+03  0.86711961896E+02 0.  0.
        -13    1    3    3    0    0 -0.21018851108E+02  0.16486297696E+02 -0.51290379786E+02  0.57829864017E+02  0.00000000000E+00 0.  1.
         14    1    3    3    0    0 -0.21377341453E+02  0.13200126971E+02 -0.59240443544E+03  0.59293696900E+03  0.00000000000E+00 0. -1.
        -13    1    4    4    0    0 -0.19947409645E+02 -0.12124399131E+02  0.95243225483E+01  0.25211365013E+02  0.00000000000E+00 0. -1.
         13    1    4    4    0    0  0.44489665060E+02 -0.18176430045E+01 -0.74383019788E+02  0.86691797513E+02  0.00000000000E+00 0.  1.
          1    1    1    2  501    0  0.17853937145E+02 -0.15744382532E+02  0.12700212478E+01  0.23838238334E+02  0.00000000000E+00 0. -1.
<scales pt_clust_5="13000.00000" pt_clust_6="13000.00000" pt_clust_7="13000.00000" pt_clust_8="13000.00000" pt_clust_9="23.80438"></scales>
<clustering>
<clus scale="   23.804">  1  9  2 -1</clus>
<clus scale="   80.472">  5  6 -1 -1</clus>
<clus scale="   86.712">  7  8 -1 -1</clus>
<clus scale="   94.043">  2  5  1 -1</clus>
<clus scale="   23.804">  1  5  2 -1</clus>
</clustering>
</event>
<event>
 9    2  0.6469128E-005  0.1984688E+03  0.7546771E-02  0.1164445E+00
         21   -1    0    0  501  502  0.00000000000E+00  0.00000000000E+00  0.28441967814E+03  0.28441967814E+03  0.00000000000E+00 0. -1.
          2   -1    0    0  502    0 -0.00000000000E+00 -0.00000000000E+00 -0.96868223062E+03  0.96868223062E+03  0.00000000000E+00 0. -1.
         23    2    1    2    0    0  0.43095805901E+02 -0.10525013147E+03  0.41334388115E+02  0.15085058856E+03  0.90069582927E+02 0.  0.
         24    2    1    2    0    0 -0.38702768829E+02  0.28135738194E+03 -0.84126088776E+03  0.89151164402E+03  0.80082766237E+02 0.  0.
        -11    1    4    4    0    0 -0.16718379683E+01  0.70625514332E+02 -0.32649145493E+03  0.33404704527E+03  0.00000000000E+00 0.  1.
         12    1    4    4    0    0 -0.37030930860E+02  0.21073186761E+03 -0.51476943284E+03  0.55746459874E+03  0.00000000000E+00 0. -1.
        -11    1    3    3    0    0 -0.29279852223E+01 -0.98099871370E+02  0.23048036127E+02  0.10081353991E+03  0.00000000000E+00 0. -1.
         11    1    3    3    0    0  0.46023791123E+02 -0.71502601012E+01  0.18286351987E+02  0.50037048653E+02  0.00000000000E+00 0.  1.
          1    1    1    2  501    0 -0.43930370722E+01 -0.17610725047E+03  0.11566394717E+03  0.21073967618E+03  0.00000000000E+00 0. -1.
<scales pt_clust_5="13000.00000" pt_clust_6="13000.00000" pt_clust_7="13000.00000" pt_clust_8="13000.00000" pt_clust_9="181.59459"></scales>
<clustering>
<clus scale="   80.083">  5  6 -1 -1</clus>
<clus scale="   90.070">  7  8 -1 -1</clus>
<clus scale="  145.077">  2  7  1 -1</clus>
<clus scale="  181.595">  1  9  2 -1</clus>
<clus scale="  181.595">  1  5  2 -1</clus>
</clustering>
</event>
<event>
 9    2  0.6469128E-005  0.1005173E+03  0.7546771E-02  0.1284175E+00
         21   -1    0    0  501  502  0.00000000000E+00  0.00000000000E+00  0.72112696543E+02  0.72112696543E+02  0.00000000000E+00 0. -1.
          4   -1    0    0  502    0 -0.00000000000E+00 -0.00000000000E+00 -0.25029830652E+03  0.25029830652E+03  0.00000000000E+00 0. -1.
         23    2    1    2    0    0 -0.99534497604E+01  0.39780168087E+02 -0.16205813266E+03  0.18968587609E+03  0.89645748870E+02 0.  0.
         24    2    1    2    0    0 -0.91600087925E+01 -0.62882449413E+02 -0.10584749907E+02  0.10223313578E+03  0.79381792085E+02 0.  0.
        -13    1    4    4    0    0  0.31758551445E+02 -0.91170710206E+01  0.34657397870E+01  0.33222551470E+02  0.00000000000E+00 0.  1.
         14    1    4    4    0    0 -0.40918560238E+02 -0.53765378392E+02 -0.14050489694E+02  0.69010584306E+02  0.00000000000E+00 0. -1.
        -11    1    3    3    0    0  0.15594852555E+01  0.67495041243E+02 -0.98724795647E+02  0.11960183051E+03  0.00000000000E+00 0.  1.
         11    1    3    3    0    0 -0.11512935016E+02 -0.27714873156E+02 -0.63333337016E+02  0.70084045576E+02  0.00000000000E+00 0. -1.
          3    1    1    2  501    0  0.19113458553E+02  0.23102281326E+02 -0.55427274097E+01  0.30491991202E+02  0.00000000000E+00 0. -1.
<scales pt_clust_5="13000.00000" pt_clust_6="13000.00000" pt_clust_7="13000.00000" pt_clust_8="13000.00000" pt_clust_9="29.98399"></scales>
<clustering>
<clus scale="   29.984">  1  9  2 -1</clus>
<clus scale="   79.382">  5  6 -1 -1</clus>
<clus scale="   89.646">  7  8 -1 -1</clus>
<clus scale="   91.481">  1  5  2 -1</clus>
<clus scale="   29.984">  1  5  2 -1</clus>
</clustering>
</event>
<event>
 9    2  0.6469128E-005  0.9808662E+02  0.7546771E-02  0.1291550E+00
          2   -1    0    0  502    0 -0.00000000000E+00  0.00000000000E+00  0.40561913246E+03  0.40561913246E+03  0.00000000000E+00 0. -1.
         21   -1    0    0  501  502  0.00000000000E+00 -0.00000000000E+00 -0.71584276858E+02  0.71584276858E+02  0.00000000000E+00 0.  1.
         24    2    1    2    0    0  0.93673405853E+01  0.26488894797E+02  0.30069083778E+03  0.31244983058E+03  0.80128072993E+02 0.  0.
         23    2    1    2    0    0  0.25019407320E+02 -0.52099780980E+02  0.47573265585E+02  0.11957795019E+03  0.93248660330E+02 0.  0.
        -13    1    3    3    0    0  0.39216845664E+02 -0.65080928270E+01  0.12255881811E+03  0.12884479094E+03  0.00000000000E+00 0.  1.
         14    1    3    3    0    0 -0.29849505079E+02  0.32996987624E+02  0.17813201968E+03  0.18360503964E+03  0.00000000000E+00 0. -1.
        -13    1    4    4    0    0  0.20907305491E+02  0.10937873588E+02 -0.17124050824E+02  0.29154512826E+02  0.00000000000E+00 0.  1.
         13    1    4    4    0    0  0.41121018289E+01 -0.63037654568E+02  0.64697316409E+02  0.90423437367E+02  0.00000000000E+00 0. -1.
          1    1    1    2  501    0 -0.34386747905E+02  0.25610886183E+02 -0.14229247769E+02  0.45175628547E+02  0.00000000000E+00 0. -1.
<scales pt_clust_5="13000.00000" pt_clust_6="13000.00000" pt_clust_7="13000.00000" pt_clust_8="13000.00000" pt_clust_9="42.87617"></scales>
<clustering>
<clus scale="   42.876">  2  9  1 -1</clus>
<clus scale="   80.128">  5  6 -1 -1</clus>
<clus scale="   85.710">  1  5  2 -1</clus>
<clus scale="   93.249">  7  8 -1 -1</clus>
<clus scale="   42.876">  2  5  1 -1</clus>
</clustering>
</event>
<event>
 9    2  0.6469128E-005  0.1739119E+03  0.7546771E-02  0.1207505E+00
          2   -1    0    0  502    0 -0.00000000000E+00  0.00000000000E+00  0.82761167593E+03  0.82761167593E+03  0.00000000000E+00 0. -1.
         21   -1    0    0  501  502  0.00000000000E+00 -0.00000000000E+00 -0.73823613453E+02  0.73823613453E+02  0.00000000000E+00 0. -1.
         24    2    1    2    0    0 -0.62148594578E+01 -0.11826143481E+02  0.53645255688E+00  0.82700798259E+02  0.81612818255E+02 0.  0.
         23    2    1    2    0    0  0.29858987503E+01 -0.14013545066E+03  0.39037854230E+03  0.42531408560E+03  0.94073402176E+02 0.  0.
        -13    1    3    3    0    0 -0.43579104820E+02 -0.10300958851E+02 -0.43356063448E+01  0.44989394445E+02  0.00000000000E+00 0.  1.
         14    1    3    3    0    0  0.37364245362E+02 -0.15251846298E+01  0.48720589016E+01  0.37711403814E+02  0.00000000000E+00 0. -1.
        -13    1    4    4    0    0 -0.35922952967E+02 -0.75696221445E+02  0.13333994521E+03  0.15747989548E+03  0.00000000000E+00 0. -1.
         13    1    4    4    0    0  0.38908851718E+02 -0.64439229213E+02  0.25703859709E+03  0.26783419012E+03  0.00000000000E+00 0.  1.
          1    1    1    2  501    0  0.32289607075E+01  0.15196159414E+03  0.36287306762E+03  0.39342040553E+03  0.00000000000E+00 0. -1.
<scales pt_clust_5="13000.00000" pt_clust_6="13000.00000" pt_clust_7="13000.00000" pt_clust_8="13000.00000" pt_clust_9="146.27222"></scales>
<clustering>
<clus scale="   81.613">  5  6 -1 -1</clus>
<clus scale="   82.699">  1  5  2 -1</clus>
<clus scale="   94.073">  7  8 -1 -1</clus>
<clus scale="  146.272">  2  9  1 -1</clus>
<clus scale="  146.272">  2  5  1 -1</clus>
</clustering>
</event>
<event>
 9    2  0.6469128E-005  0.1284583E+03  0.7546771E-02  0.1232713E+00
          2   -1    0    0  502    0 -0.00000000000E+00  0.00000000000E+00  0.66989898894E+03  0.66989898894E+03  0.00000000000E+00 0. -1.
         21   -1    0    0  501  502  0.00000000000E+00 -0.00000000000E+00 -0.38559108213E+02  0.38559108213E+02  0.00000000000E+00 0. -1.
         23    2    1    2    0    0 -0.17057135350E+02 -0.97164020667E+02  0.49707620445E+03  0.51501698559E+03  0.91792971592E+02 0.  0.
         24    2    1    2    0    0  0.23267811892E+02  0.64498009766E+02  0.10196722960E+03  0.14708702610E+03  0.80844869971E+02 0.  0.
        -13    1    4    4    0    0  0.95948517404E+01  0.69928059344E+02  0.10971615742E+03  0.13045930347E+03  0.00000000000E+00 0.  1.
         14    1    4    4    0    0  0.13672960151E+02 -0.54300495781E+01 -0.77489278126E+01  0.16627722633E+02  0.00000000000E+00 0. -1.
        -13    1    3    3    0    0 -0.20669966217E+02 -0.26387902480E+01  0.20816322939E+02  0.29453862533E+02  0.00000000000E+00 0.  1.
         13    1    3    3    0    0  0.36128308671E+01 -0.94525230419E+02  0.47625988151E+03  0.48556312305E+03  0.00000000000E+00 0. -1.
          1    1    1    2  501    0 -0.62106765413E+01  0.32666010901E+02  0.32296446670E+02  0.46354085460E+02  0.00000000000E+00 0. -1.
<scales pt_clust_5="13000.00000" pt_clust_6="13000.00000" pt_clust_7="13000.00000" pt_clust_8="13000.00000" pt_clust_9="33.25118"></scales>
<clustering>
<clus scale="   33.251">  2  9  1 -1</clus>
<clus scale="   80.845">  5  6 -1 -1</clus>
<clus scale="   91.793">  7  8 -1 -1</clus>
<clus scale="  120.878">  2  5  1 -1</clus>
<clus scale="   33.251">  2  5  1 -1</clus>
</clustering>
</event>
<event>
 9    2  0.6469128E-005  0.1129657E+03  0.7546771E-02  0.1258307E+00
         21   -1    0    0  501  502  0.00000000000E+00  0.00000000000E+00  0.87417992076E+02  0.87417992076E+02  0.00000000000E+00 0.  1.
          2   -1    0    0  502    0 -0.00000000000E+00 -0.00000000000E+00 -0.86476776876E+03  0.86476776876E+03  0.00000000000E+00 0. -1.
         24    2    1    2    0    0  0.39870542430E+02  0.53859671686E+02 -0.76944721108E+03  0.77658449277E+03  0.80894619013E+02 0.  0.
         23    2    1    2    0    0 -0.43827845328E+02 -0.92801932386E+02 -0.75961835584E+01  0.13645725467E+03  0.89609160619E+02 0.  0.
        -13    1    3    3    0    0  0.39043665742E+02  0.38310859672E+02 -0.21274805839E+03  0.21966762654E+03  0.00000000000E+00 0.  1.
         14    1    3    3    0    0  0.82687668794E+00  0.15548812014E+02 -0.55669915269E+03  0.55691686623E+03  0.00000000000E+00 0. -1.
        -13    1    4    4    0    0 -0.13640032535E+02 -0.83168823798E+02  0.27991425627E+02  0.88806664435E+02  0.00000000000E+00 0.  1.
         13    1    4    4    0    0 -0.30187812793E+02 -0.96331085885E+01 -0.35587609185E+02  0.47650590236E+02  0.00000000000E+00 0. -1.
          1    1    1    2  501    0  0.39573028979E+01  0.38942260701E+02 -0.30638204630E+00  0.39144013395E+02  0.00000000000E+00 0. -1.
<scales pt_clust_5="13000.00000" pt_clust_6="13000.00000" pt_clust_7="13000.00000" pt_clust_8="13000.00000" pt_clust_9="39.14281"></scales>
<clustering>
<clus scale="   39.143">  1  9  2 -1</clus>
<clus scale="   80.895">  5  6 -1 -1</clus>
<clus scale="   89.609">  7  8 -1 -1</clus>
<clus scale="  106.186">  2  5  1 -1</clus>
<clus scale="   39.143">  1  5  2 -1</clus>
</clustering>
</event>
<event>
 9    2  0.6469128E-005  0.9235280E+02  0.7546771E-02  0.1306727E+00
          2   -1    0    0  502    0 -0.00000000000E+00  0.00000000000E+00  0.32982412775E+03  0.32982412775E+03  0.00000000000E+00 0. -1.
         21   -1    0    0  501  502  0.00000000000E+00 -0.00000000000E+00 -0.11939531719E+03  0.11939531719E+03  0.00000000000E+00 0. -1.
         24    2    1    2    0    0 -0.52006292190E+01  0.75021461320E+01  0.22185277428E+03  0.23496963132E+03  0.76868364399E+02 0.  0.
         23    2    1    2    0    0 -0.11217846069E+02 -0.20615283225E+02  0.77815916113E+02  0.12256951668E+03  0.91744970683E+02 0.  0.
        -13    1    3    3    0    0  0.24419686234E+02 -0.20694123834E+02  0.13816602705E+03  0.14182531110E+03  0.00000000000E+00 0.  1.
         14    1    3    3    0    0 -0.29620315453E+02  0.28196269966E+02  0.83686747228E+02  0.93144320219E+02  0.00000000000E+00 0. -1.
        -13    1    4    4    0    0  0.19388262776E+02 -0.48242178777E+02  0.53969189529E+02  0.74939215135E+02  0.00000000000E+00 0.  1.
         13    1    4    4    0    0 -0.30606108845E+02  0.27626895552E+02  0.23846726584E+02  0.47630301544E+02  0.00000000000E+00 0. -1.
          1    1    1    2  501    0  0.16418475288E+02  0.13113137093E+02 -0.89239879829E+02  0.91680296940E+02  0.00000000000E+00 0. -1.
<scales pt_clust_5="13000.00000" pt_clust_6="13000.00000" pt_clust_7="13000.00000" pt_clust_8="13000.00000" pt_clust_9="21.01239"></scales>
<clustering>
<clus scale="   21.012">  2  9  1 -1</clus>
<clus scale="   76.868">  5  6 -1 -1</clus>
<clus scale="   77.593">  1  5  2 -1</clus>
<clus scale="   91.745">  7  8 -1 -1</clus>
<clus scale="   21.012">  2  5  1 -1</clus>
</clustering>
</event>
<event>
 9    2  0.6469128E-005  0.1581853E+03  0.7546771E-02  0.1192523E+00
         21   -1    0    0  501  502  0.00000000000E+00  0.00000000000E+00  0.10317647820E+03  0.10317647820E+03  0.00000000000E+00 0.  1.
          2   -1    0    0  502    0 -0.00000000000E+00 -0.00000000000E+00 -0.71935045157E+03  0.71935045157E+03  0.00000000000E+00 0. -1.
         24    2    1    2    0    0  0.12859164397E+03  0.51299902155E+02 -0.58511685918E+03  0.60657302597E+03  0.80010037341E+02 0.  0.
         23    2    1    2    0    0 -0.91541975666E+02  0.21956572562E+02 -0.10427756555E+02  0.13130900197E+03  0.90946640977E+02 0.  0.
        -11    1    3    3    0    0  0.10377219820E+03  0.43401737331E+01 -0.32894594002E+03  0.34495352974E+03  0.00000000000E+00 0.  1.
         12    1    3    3    0    0  0.24819445777E+02  0.46959728422E+02 -0.25617091916E+03  0.26161949623E+03  0.00000000000E+00 0. -1.
        -13    1    4    4    0    0 -0.22131153858E+02  0.46201747515E+02  0.15217759974E+02  0.53441273031E+02  0.00000000000E+00 0. -1.
         13    1    4    4    0    0 -0.69410821808E+02 -0.24245174953E+02 -0.25645516530E+02  0.77867728943E+02  0.00000000000E+00 0.  1.
          1    1    1    2  501    0 -0.37049668305E+02 -0.73256474717E+02 -0.20629357633E+02  0.84644901830E+02  0.00000000000E+00 0. -1.
<scales pt_clust_5="13000.00000" pt_clust_6="13000.00000" pt_clust_7="13000.00000" pt_clust_8="13000.00000" pt_clust_9="82.09256"></scales>
<clustering>
<clus scale="   80.010">  5  6 -1 -1</clus>
<clus scale="   82.093">  1  9  2 -1</clus>
<clus scale="   90.947">  7  8 -1 -1</clus>
<clus scale="  152.161">  2  5  1 -1</clus>
<clus scale="   82.093">  1  5  2 -1</clus>
</clustering>
</event>
<event>
 9    2  0.6469128E-005  0.1322062E+03  0.7546771E-02  0.1248307E+00
         21   -1    0    0  501  502  0.00000000000E+00  0.00000000000E+00  0.22447428804E+03  0.22447428804E+03  0.00000000000E+00 0.  1.
          2   -1    0    0  502    0 -0.00000000000E+00 -0.00000000000E+00 -0.32991945069E+03  0.32991945069E+03  0.00000000000E+00 0. -1.
         24    2    1    2    0    0 -0.32948699060E+02  0.19065301512E+02 -0.20096790533E+03  0.21660504103E+03  0.71277923199E+02 0.  0.
         23    2    1    2    0    0 -0.40477406363E+02  0.79390511729E+02  0.15532476575E+03  0.20118261409E+03  0.91691807585E+02 0.  0.
        -13    1    3    3    0    0 -0.18079511008E+02  0.43104952879E+02 -0.82598585081E+02  0.94907491477E+02  0.00000000000E+00 0.  1.
         14    1    3    3    0    0 -0.14869188052E+02 -0.24039651367E+02 -0.11836932025E+03  0.12169754955E+03  0.00000000000E+00 0. -1.
        -11    1    4    4    0    0 -0.82265881244E+01  0.92056513889E+02  0.10257962688E+03  0.13807482882E+03  0.00000000000E+00 0.  1.
         11    1    4    4    0    0 -0.32250818239E+02 -0.12666002161E+02  0.52745138866E+02  0.63107785271E+02  0.00000000000E+00 0. -1.
          1    1    1    2  501    0  0.73426105424E+02 -0.98455813241E+02 -0.59802023072E+02  0.13660608362E+03  0.00000000000E+00 0. -1.
<scales pt_clust_5="13000.00000" pt_clust_6="13000.00000" pt_clust_7="13000.00000" pt_clust_8="13000.00000" pt_clust_9="95.24238"></scales>
<clustering>
<clus scale="   71.278">  5  6 -1 -1</clus>
<clus scale="   80.806">  2  5  1 -1</clus>
<clus scale="   91.692">  7  8 -1 -1</clus>
<clus scale="   95.242">  1  9  2 -1</clus>
<clus scale="   95.242">  1  5  2 -1</clus>
</clustering>
</event>
<event>
 9    2  0.6469128E-005  0.1505651E+03  0.7546771E-02  0.1201568E+00
         21   -1    0    0  501  502  0.00000000000E+00  0.00000000000E+00  0.41626689228E+02  0.41626689228E+02  0.00000000000E+00 0.  1.
          2   -1    0    0  502    0 -0.00000000000E+00 -0.00000000000E+00 -0.84029462636E+03  0.84029462636E+03  0.00000000000E+00 0. -1.
         24    2    1    2    0    0  0.12956050386E+03  0.14898303753E+02 -0.55010558211E+03  0.57123118391E+03  0.81737570195E+02 0.  0.
         23    2    1    2    0    0 -0.10093896068E+03 -0.99175012018E+01 -0.24618108407E+03  0.28154100513E+03  0.91505086196E+02 0.  0.
        -13    1    3    3    0    0  0.11882166339E+03 -0.83100563968E+00 -0.33811362612E+03  0.35838541046E+03  0.00000000000E+00 0.  1.
         14    1    3    3    0    0  0.10738840461E+02  0.15729309393E+02 -0.21199195600E+03  0.21284577345E+03  0.00000000000E+00 0. -1.
        -11    1    4    4    0    0 -0.11082433118E+03 -0.29266460547E+02 -0.21289637735E+03  0.24179211233E+03  0.00000000000E+00 0. -1.
         11    1    4    4    0    0  0.98853704928E+01  0.19348959345E+02 -0.33284706721E+02  0.39748892803E+02  0.00000000000E+00 0.  1.
          1    1    1    2  501    0 -0.28621543172E+02 -0.49808025513E+01 -0.23812709487E+01  0.29149126555E+02  0.00000000000E+00 0. -1.
<scales pt_clust_5="13000.00000" pt_clust_6="13000.00000" pt_clust_7="13000.00000" pt_clust_8="13000.00000" pt_clust_9="29.05170"></scales>
<clustering>
<clus scale="   29.052">  1  9  2 -1</clus>
<clus scale="   81.738">  5  6 -1 -1</clus>
<clus scale="   91.505">  7  8 -1 -1</clus>
<clus scale="  144.837">  2  5  1 -1</clus>
<clus scale="   29.052">  1  5  2 -1</clus>
</clustering>
</event>
<event>
 9    2  0.6469128E-005  0.1789791E+03  0.7546771E-02  0.1198842E+00
         21   -1    0    0  501  502  0.00000000000E+00  0.00000000000E+00  0.25588010068E+03  0.25588010068E+03  0.00000000000E+00 0.  1.
         -3   -1    0    0    0  501 -0.00000000000E+00 -0.00000000000E+00 -0.51943790484E+03  0.51943790484E+03  0.00000000000E+00 0.  1.
         24    2    1    2    0    0 -0.30964722299E+02  0.30426921328E+02 -0.78316904282E+02  0.12042906180E+03  0.80529558921E+02 0.  0.
         23    2    1    2    0    0  0.13355739762E+03  0.84449628874E+02 -0.37106922249E+03  0.41353019767E+03  0.91353917420E+02 0.  0.
        -11    1    3    3    0    0 -0.24306255173E+02 -0.25399185792E+02 -0.33002475104E+02  0.48219042322E+02  0.00000000000E+00 0.  1.
         12    1    3    3    0    0 -0.66584671261E+01  0.55826107120E+02 -0.45314429178E+02  0.72210019474E+02  0.00000000000E+00 0. -1.
        -11    1    4    4    0    0  0.67890626231E+02  0.13674517355E+02 -0.74847545091E+02  0.10197197929E+03  0.00000000000E+00 0. -1.
         11    1    4    4    0    0  0.65666771386E+02  0.70775111518E+02 -0.29622167740E+03  0.31155821837E+03  0.00000000000E+00 0.  1.
         -4    1    1    2    0  502 -0.10259267532E+03 -0.11487655020E+03  0.18582832261E+03  0.24135874606E+03  0.00000000000E+00 0.  1.
<scales pt_clust_5="13000.00000" pt_clust_6="13000.00000" pt_clust_7="13000.00000" pt_clust_8="13000.00000" pt_clust_9="153.90905"></scales>
<clustering>
<clus scale="   80.530">  5  6 -1 -1</clus>
<clus scale="   91.354">  7  8 -1 -1</clus>
<clus scale="   91.486">  2  5  1 -1</clus>
<clus scale="  153.909">  1  9  2 -1</clus>
<clus scale="  153.909">  1  5  2 -1</clus>
</clustering>
</event>
<event>
 9    2  0.6469128E-005  0.9721132E+02  0.7546771E-02  0.1291140E+00
         21   -1    0    0  501  502  0.00000000000E+00  0.00000000000E+00  0.12389739914E+02  0.12389739914E+02  0.00000000000E+00 0.  1.
          2   -1    0    0  502    0 -0.00000000000E+00 -0.00000000000E+00 -0.10378447832E+04  0.10378447832E+04  0.00000000000E+00 0. -1.
         24    2    1    2    0    0  0.37371970317E+02 -0.20459325195E+02 -0.58383992401E+03  0.59101793655E+03  0.81350453549E+02 0.  0.
         23    2    1    2    0    0 -0.26989888057E+02 -0.33726166134E+00 -0.40480092374E+03  0.41567843491E+03  0.90532897817E+02 0.  0.
        -13    1    3    3    0    0  0.17585592980E+02 -0.11388915538E+02 -0.29134596909E+02  0.35885724385E+02  0.00000000000E+00 0.  1.
         14    1    3    3    0    0  0.19786377337E+02 -0.90704096575E+01 -0.55470532710E+03  0.55513221216E+03  0.00000000000E+00 0. -1.
        -11    1    4    4    0    0  0.42093779510E+01 -0.40502635395E+02 -0.23207372854E+03  0.23561917964E+03  0.00000000000E+00 0. -1.
         11    1    4    4    0    0 -0.31199266008E+02  0.40165373734E+02 -0.17272719520E+03  0.18005925527E+03  0.00000000000E+00 0.  1.
          1    1    1    2  501    0 -0.10382082259E+02  0.20796586856E+02 -0.36814195517E+02  0.43538151643E+02  0.00000000000E+00 0. -1.
<scales pt_clust_5="13000.00000" pt_clust_6="13000.00000" pt_clust_7="13000.00000" pt_clust_8="13000.00000" pt_clust_9="23.24405"></scales>
<clustering>
<clus scale="   23.244">  1  9  2 -1</clus>
<clus scale="   81.350">  5  6 -1 -1</clus>
<clus scale="   88.723">  2  5  1 -1</clus>
<clus scale="   90.533">  7  8 -1 -1</clus>
<clus scale="   23.244">  1  5  2 -1</clus>
</clustering>
</event>
<event>
 9    2  0.6469128E-005  0.1534481E+03  0.7546771E-02  0.1221994E+00
          4   -1    0    0  502    0 -0.00000000000E+00  0.00000000000E+00  0.25118065540E+03  0.25118065540E+03  0.00000000000E+00 0. -1.
         21   -1    0    0  501  502  0.00000000000E+00 -0.00000000000E+00 -0.13856639729E+03  0.13856639729E+03  0.00000000000E+00 0.  1.
         24    2    1    2    0    0 -0.13837528749E+02  0.41227629870E+02  0.56480266331E+02  0.10504879019E+03  0.77162381828E+02 0.  0.
         23    2    1    2    0    0 -0.33780895907E+02  0.92828421399E+02  0.33895041009E+02  0.14070829694E+03  0.94295738372E+02 0.  0.
        -11    1    3    3    0    0  0.23938225740E+02  0.13504587341E+02  0.50918606121E+02  0.57862915413E+02  0.00000000000E+00 0.  1.
         12    1    3    3    0    0 -0.37775754489E+02  0.27723042528E+02  0.55616602096E+01  0.47185874778E+02  0.00000000000E+00 0. -1.
        -13    1    4    4    0    0 -0.53151974929E+02  0.51843364082E+02  0.53298460228E+02  0.91397990684E+02  0.00000000000E+00 0.  1.
         13    1    4    4    0    0  0.19371079022E+02  0.40985057316E+02 -0.19403419220E+02  0.49310306256E+02  0.00000000000E+00 0. -1.
          3    1    1    2  501    0  0.47618424656E+02 -0.13405605127E+03  0.22238950774E+02  0.14398996555E+03  0.00000000000E+00 0. -1.
<scales pt_clust_5="13000.00000" pt_clust_6="13000.00000" pt_clust_7="13000.00000" pt_clust_8="13000.00000" pt_clust_9="121.05642"></scales>
<clustering>
<clus scale="   77.162">  5  6 -1 -1</clus>
<clus scale="   88.573">  1  5  2 -1</clus>
<clus scale="   94.296">  7  8 -1 -1</clus>
<clus scale="  121.056">  2  9  1 -1</clus>
<clus scale="  121.056">  2  5  1 -1</clus>
</clustering>
</event>
<event>
 9    2  0.6469128E-005  0.1343215E+03  0.7546771E-02  0.1240834E+00
         21   -1    0    0  501  502  0.00000000000E+00  0.00000000000E+00  0.36040945881E+03  0.36040945881E+03  0.00000000000E+00 0. -1.
          2   -1    0    0  502    0 -0.00000000000E+00 -0.00000000000E+00 -0.34812846694E+03  0.34812846694E+03  0.00000000000E+00 0. -1.
         24    2    1    2    0    0  0.38547082237E+02 -0.14143087354E+02 -0.30239299643E+03  0.31538067987E+03  0.79608695986E+02 0.  0.
         23    2    1    2    0    0  0.73126851031E+02 -0.13476116595E+02  0.13225283601E+03  0.17749230992E+03  0.92106272253E+02 0.  0.
        -13    1    3    3    0    0  0.29580052312E+02  0.29119913909E+02 -0.10097457029E+03  0.10917331508E+03  0.00000000000E+00 0.  1.
         14    1    3    3    0    0  0.89670299242E+01 -0.43263001263E+02 -0.20141842614E+03  0.20620736479E+03  0.00000000000E+00 0. -1.
        -13    1    4    4    0    0  0.34345102444E+02  0.38500678419E+02  0.42977347197E+02  0.67148646097E+02  0.00000000000E+00 0.  1.
         13    1    4    4    0    0  0.38781748587E+02 -0.51976795014E+02  0.89275488809E+02  0.11034366382E+03  0.00000000000E+00 0. -1.
          1    1    1    2  501    0 -0.11167393327E+03  0.27619203949E+02  0.18242115230E+03  0.21566493596E+03  0.00000000000E+00 0. -1.
<scales pt_clust_5="13000.00000" pt_clust_6="13000.00000" pt_clust_7="13000.00000" pt_clust_8="13000.00000" pt_clust_9="97.76864"></scales>
<clustering>
<clus scale="   79.609">  5  6 -1 -1</clus>
<clus scale="   89.574">  2  5  1 -1</clus>
<clus scale="   92.106">  7  8 -1 -1</clus>
<clus scale="   97.769">  1  9  2 -1</clus>
<clus scale="   97.769">  1  5  2 -1</clus>
</clustering>
</event>
<event>
 9    2  0.6469128E-005  0.1123828E+03  0.7546771E-02  0.1259321E+00
         21   -1    0    0  501  502  0.00000000000E+00  0.00000000000E+00  0.74826450841E+02  0.74826450841E+02  0.00000000000E+00 0.  1.
          2   -1    0    0  502    0 -0.00000000000E+00 -0.00000000000E+00 -0.76812983457E+03  0.76812983457E+03  0.00000000000E+00 0. -1.
         24    2    1    2    0    0 -0.45812329563E+02 -0.39526085434E+02 -0.60057393229E+03  0.60942572348E+03  0.83961796753E+02 0.  0.
         23    2    1    2    0    0  0.60062549637E+02  0.60484563484E+02 -0.13491691145E+03  0.18431564188E+03  0.92215999469E+02 0.  0.
        -11    1    3    3    0    0 -0.45863023570E+02 -0.14532445932E+00 -0.14332769742E+03  0.15048676652E+03  0.00000000000E+00 0.  1.
         12    1    3    3    0    0  0.50694007557E-01 -0.39380760975E+02 -0.45724623488E+03  0.45893895696E+03  0.00000000000E+00 0. -1.
        -13    1    4    4    0    0 -0.23381223933E+02  0.14772429637E+02 -0.15755510347E+02  0.31829898150E+02  0.00000000000E+00 0.  1.
         13    1    4    4    0    0  0.83443773569E+02  0.45712133847E+02 -0.11916140110E+03  0.15248574373E+03  0.00000000000E+00 0. -1.
          1    1    1    2  501    0 -0.14250220074E+02 -0.20958478050E+02  0.42187460010E+02  0.49214920059E+02  0.00000000000E+00 0. -1.
<scales pt_clust_5="13000.00000" pt_clust_6="13000.00000" pt_clust_7="13000.00000" pt_clust_8="13000.00000" pt_clust_9="25.34416"></scales>
<clustering>
<clus scale="   25.344">  1  9  2 -1</clus>
<clus scale="   83.962">  5  6 -1 -1</clus>
<clus scale="   92.216">  7  8 -1 -1</clus>
<clus scale="  105.715">  2  5  1 -1</clus>
<clus scale="   25.344">  1  5  2 -1</clus>
</clustering>
</event>
<event>
 9    2  0.7838803E-005  0.1013032E+03  0.7546771E-02  0.1285888E+00
         21   -1    0    0  501  502  0.00000000000E+00  0.00000000000E+00  0.60282421643E+02  0.60282421643E+02  0.00000000000E+00 0.  1.
         -3   -1    0    0    0  501 -0.00000000000E+00 -0.00000000000E+00 -0.28038323512E+03  0.28038323512E+03  0.00000000000E+00 0.  1.
         23    2    1    2    0    0  0.29544822609E+01 -0.31354462193E+02 -0.19517137217E+03  0.22043446977E+03  0.97507228880E+02 0.  0.
         24    2    1    2    0    0 -0.24406853474E+02  0.10526989852E+02 -0.10034236904E+02  0.86826771883E+02  0.82046879242E+02 0.  0.
        -11    1    4    4    0    0 -0.18465931179E+02 -0.32383068436E+02  0.10724984982E+02  0.38790192556E+02  0.00000000000E+00 0.  1.
         12    1    4    4    0    0 -0.59409222949E+01  0.42910058289E+02 -0.20759221887E+02  0.48036579326E+02  0.00000000000E+00 0. -1.
        -11    1    3    3    0    0 -0.36372178746E+02 -0.30128452314E+02 -0.16271072037E+03  0.16942679112E+03  0.00000000000E+00 0.  1.
         11    1    3    3    0    0  0.39326661007E+02 -0.12260098784E+01 -0.32460651796E+02  0.51007678649E+02  0.00000000000E+00 0. -1.
         -4    1    1    2    0  502  0.21452371213E+02  0.20827472340E+02 -0.14895204409E+02  0.33404415115E+02  0.00000000000E+00 0.  1.
<scales pt_clust_5="13000.00000" pt_clust_6="13000.00000" pt_clust_7="13000.00000" pt_clust_8="13000.00000" pt_clust_9="29.89963"></scales>
<clustering>
<clus scale="   29.900">  1  9  2 -1</clus>
<clus scale="   82.047">  5  6 -1 -1</clus>
<clus scale="   86.524">  1  5  2 -1</clus>
<clus scale="   97.507">  7  8 -1 -1</clus>
<clus scale="   29.900">  1  5  2 -1</clus>
</clustering>
</event>
<event>
 9    2  0.6469128E-005  0.9858536E+02  0.7546771E-02  0.1284914E+00
         21   -1    0    0  501  502  0.00000000000E+00  0.00000000000E+00  0.25093074407E+03  0.25093074407E+03  0.00000000000E+00 0. -1.
          2   -1    0    0  502    0 -0.00000000000E+00 -0.00000000000E+00 -0.30846437988E+03  0.30846437988E+03  0.00000000000E+00 0. -1.
         23    2    1    2    0    0 -0.41096069741E+01 -0.31291837794E+02 -0.26699466187E+03  0.28454952854E+03  0.93199875237E+02 0.  0.
         24    2    1    2    0    0 -0.16190557107E+02  0.38956917951E+02  0.45342196577E+02  0.10929850149E+03  0.90058159213E+02 0.  0.
        -11    1    4    4    0    0  0.15855085506E+02 -0.23937518315E+02  0.10419774293E+02  0.30544397453E+02  0.00000000000E+00 0.  1.
         12    1    4    4    0    0 -0.32045642613E+02  0.62894436266E+02  0.34922422285E+02  0.78754104032E+02  0.00000000000E+00 0. -1.
        -13    1    3    3    0    0 -0.24910501228E+02  0.15565459421E+02 -0.29670261984E+02  0.41750940643E+02  0.00000000000E+00 0. -1.
         13    1    3    3    0    0  0.20800894254E+02 -0.46857297214E+02 -0.23732439989E+03  0.24279858790E+03  0.00000000000E+00 0.  1.
          1    1    1    2  501    0  0.20300164081E+02 -0.76650801572E+01  0.16411882948E+03  0.16554709392E+03  0.00000000000E+00 0. -1.
<scales pt_clust_5="13000.00000" pt_clust_6="13000.00000" pt_clust_7="13000.00000" pt_clust_8="13000.00000" pt_clust_9="21.69908"></scales>
<clustering>
<clus scale="   21.699">  1  9  2 -1</clus>
<clus scale="   90.058">  5  6 -1 -1</clus>
<clus scale="   93.200">  7  8 -1 -1</clus>
<clus scale="   95.621">  1  5  2 -1</clus>
<clus scale="   21.699">  1  5  2 -1</clus>
</clustering>
</event>
<event>
 9    2  0.6469128E-005  0.1503724E+03  0.7546771E-02  0.1201649E+00
          4   -1    0    0  502    0 -0.00000000000E+00  0.00000000000E+00  0.12541264287E+04  0.12541264287E+04  0.00000000000E+00 0. -1.
         21   -1    0    0  501  502  0.00000000000E+00 -0.00000000000E+00 -0.21747530062E+03  0.21747530062E+03  0.00000000000E+00 0. -1.
         24    2    1    2    0    0 -0.48431345429E+02  0.10278065368E+03  0.90200681461E+03  0.91273692277E+03  0.81011965718E+02 0.  0.
         23    2    1    2    0    0  0.71581279409E+02 -0.12991677639E+03  0.32326852215E+03  0.36689767213E+03  0.90050630486E+02 0.  0.
        -13    1    3    3    0    0 -0.21465435843E+01  0.85353335632E+02  0.44963073844E+03  0.45766538050E+03  0.00000000000E+00 0.  1.
         14    1    3    3    0    0 -0.46284801845E+02  0.17427318048E+02  0.45237607617E+03  0.45507154227E+03  0.00000000000E+00 0. -1.
        -13    1    4    4    0    0  0.32036274491E+02 -0.12379906862E+03  0.28080031640E+03  0.30854716003E+03  0.00000000000E+00 0. -1.
         13    1    4    4    0    0  0.39545004917E+02 -0.61177077728E+01  0.42468205754E+02  0.58350512099E+02  0.00000000000E+00 0.  1.
          3    1    1    2  501    0 -0.23149933980E+02  0.27136122709E+02 -0.18862420868E+03  0.19196713443E+03  0.00000000000E+00 0. -1.
<scales pt_clust_5="13000.00000" pt_clust_6="13000.00000" pt_clust_7="13000.00000" pt_clust_8="13000.00000" pt_clust_9="35.66915"></scales>
<clustering>
<clus scale="   35.669">  2  9  1 -1</clus>
<clus scale="   81.012">  5  6 -1 -1</clus>
<clus scale="   90.051">  7  8 -1 -1</clus>
<clus scale="  145.140">  1  5  2 -1</clus>
<clus scale="   35.669">  2  5  1 -1</clus>
</clustering>
</event>
<event>
 9    2  0.6469128E-005  0.2620372E+03  0.7546771E-02  0.1130933E+00
          2   -1    0    0  502    0 -0.00000000000E+00  0.00000000000E+00  0.29057233113E+03  0.29057233113E+03  0.00000000000E+00 0. -1.
         21   -1    0    0  501  502  0.00000000000E+00 -0.00000000000E+00 -0.40406537958E+03  0.40406537958E+03  0.00000000000E+00 0. -1.
         24    2    1    2    0    0  0.11354639739E+03  0.17232469045E+02 -0.57364152929E+02  0.15123728607E+03  0.79952037534E+02 0.  0.
         23    2    1    2    0    0 -0.32996453665E+02 -0.25174843677E+03 -0.10677636601E+03  0.29031704152E+03  0.91742851965E+02 0.  0.
        -13    1    3    3    0    0  0.33280793379E+02 -0.86234689368E+01  0.17406551191E+02  0.38535223482E+02  0.00000000000E+00 0.  1.
         14    1    3    3    0    0  0.80265604009E+02  0.25855937982E+02 -0.74770704120E+02  0.11270206258E+03  0.00000000000E+00 0. -1.
        -11    1    4    4    0    0 -0.59155300398E+02 -0.19994849541E+03 -0.63642335679E+02  0.21801169068E+03  0.00000000000E+00 0. -1.
         11    1    4    4    0    0  0.26158846733E+02 -0.51799941356E+02 -0.43134030330E+02  0.72305350835E+02  0.00000000000E+00 0.  1.
          1    1    1    2  501    0 -0.80549943723E+02  0.23451596772E+03  0.50647470479E+02  0.25308338313E+03  0.00000000000E+00 0. -1.
<scales pt_clust_5="13000.00000" pt_clust_6="13000.00000" pt_clust_7="13000.00000" pt_clust_8="13000.00000" pt_clust_9="245.45224"></scales>
<clustering>
<clus scale="   79.952">  5  6 -1 -1</clus>
<clus scale="   91.743">  7  8 -1 -1</clus>
<clus scale="  139.936">  1  5  2 -1</clus>
<clus scale="  245.452">  2  9  1 -1</clus>
<clus scale="  245.452">  2  5  1 -1</clus>
</clustering>
</event>
<event>
 9    2  0.6469128E-005  0.2402082E+03  0.7546771E-02  0.1120255E+00
         21   -1    0    0  501  502  0.00000000000E+00  0.00000000000E+00  0.28937283435E+03  0.28937283435E+03  0.00000000000E+00 0.  1.
          2   -1    0    0  502    0 -0.00000000000E+00 -0.00000000000E+00 -0.58645231615E+03  0.58645231615E+03  0.00000000000E+00 0. -1.
         24    2    1    2    0    0 -0.99323095661E+02 -0.18961996609E+03 -0.32944212462E+03  0.40154081241E+03  0.82958433468E+02 0.  0.
         23    2    1    2    0    0  0.11700858810E+03  0.24716063840E+03  0.16219564937E+03  0.33117488626E+03  0.92682176024E+02 0.  0.
        -11    1    3    3    0    0  0.84027849677E+01 -0.55379728103E+02 -0.62582154933E+02  0.83988375362E+02  0.00000000000E+00 0.  1.
         12    1    3    3    0    0 -0.10772588063E+03 -0.13424023798E+03 -0.26685996969E+03  0.31755243705E+03  0.00000000000E+00 0. -1.
        -13    1    4    4    0    0  0.68226234788E+02  0.12207365119E+03  0.13461582737E+03  0.19410877468E+03  0.00000000000E+00 0.  1.
         13    1    4    4    0    0  0.48782353311E+02  0.12508698720E+03  0.27579822000E+02  0.13706611158E+03  0.00000000000E+00 0. -1.
          1    1    1    2  501    0 -0.17685492438E+02 -0.57540672312E+02 -0.12983300655E+03  0.14310945183E+03  0.00000000000E+00 0. -1.
<scales pt_clust_5="13000.00000" pt_clust_6="13000.00000" pt_clust_7="13000.00000" pt_clust_8="13000.00000" pt_clust_9="60.19725"></scales>
<clustering>
<clus scale="   60.197">  1  9  2 -1</clus>
<clus scale="   82.958">  5  6 -1 -1</clus>
<clus scale="   92.682">  7  8 -1 -1</clus>
<clus scale="  236.626">  2  5  1 -1</clus>
<clus scale="   60.197">  1  5  2 -1</clus>
</clustering>
</event>
<event>
 9    2  0.9289175E-005  0.9454341E+02  0.7546771E-02  0.1299290E+00
         -1   -1    0    0    0  501 -0.00000000000E+00  0.00000000000E+00  0.65249061005E+02  0.65249061005E+02  0.00000000000E+00 0.  1.
         21   -1    0    0  501  502  0.00000000000E+00 -0.00000000000E+00 -0.30154416555E+03  0.30154416555E+03  0.00000000000E+00 0. -1.
         23    2    1    2    0    0  0.96877377500E+01 -0.15121018266E+02  0.64835997644E+01  0.94271119835E+02  0.92317438834E+02 0.  0.
         24    2    1    2    0    0 -0.66038049399E+01  0.35186822320E+02 -0.23475172404E+03  0.25069140480E+03  0.80349771611E+02 0.  0.
        -11    1    4    4    0    0 -0.19078996012E+02 -0.20697202776E+02 -0.10796767741E+03  0.11157688675E+03  0.00000000000E+00 0.  1.
         12    1    4    4    0    0  0.12475191072E+02  0.55884025097E+02 -0.12678404663E+03  0.13911451805E+03  0.00000000000E+00 0. -1.
        -13    1    3    3    0    0  0.30316166844E+02 -0.44926701734E+02  0.16518429764E+02  0.56659836063E+02  0.00000000000E+00 0.  1.
         13    1    3    3    0    0 -0.20628429094E+02  0.29805683467E+02 -0.10034830000E+02  0.37611283772E+02  0.00000000000E+00 0. -1.
         -2    1    1    2    0  502 -0.30839328101E+01 -0.20065804054E+02 -0.80269802678E+01  0.21830701916E+02  0.00000000000E+00 0.  1.
<scales pt_clust_5="13000.00000" pt_clust_6="13000.00000" pt_clust_7="13000.00000" pt_clust_8="13000.00000" pt_clust_9="20.30142"></scales>
<clustering>
<clus scale="   20.301">  2  9  1 -1</clus>
<clus scale="   80.350">  5  6 -1 -1</clus>
<clus scale="   82.898">  2  5  1 -1</clus>
<clus scale="   92.317">  7  8 -1 -1</clus>
<clus scale="   20.301">  2  5  1 -1</clus>
</clustering>
</event>
<event>
 9    2  0.6469128E-005  0.2528261E+03  0.7546771E-02  0.1112049E+00
         21   -1    0    0  501  502  0.00000000000E+00  0.00000000000E+00  0.34295533091E+03  0.34295533091E+03  0.00000000000E+00 0.  1.
          2   -1    0    0  502    0 -0.00000000000E+00 -0.00000000000E+00 -0.23296652194E+03  0.23296652194E+03  0.00000000000E+00 0. -1.
         23    2    1    2    0    0 -0.20559411820E+03  0.59201989959E+02  0.32804497719E+02  0.23428854494E+03  0.89672571982E+02 0.  0.
         24    2    1    2    0    0  0.24840645276E+03 -0.86981804709E+02  0.38810825275E+02  0.27778083323E+03  0.79901883738E+02 0.  0.
        -11    1    4    4    0    0  0.24950675693E+03 -0.94491398718E+02  0.34416353084E+02  0.26901065322E+03  0.00000000000E+00 0.  1.
         12    1    4    4    0    0 -0.11003041714E+01  0.75095940097E+01  0.43944721915E+01  0.87701800040E+01  0.00000000000E+00 0. -1.
        -13    1    3    3    0    0 -0.38193362933E+02 -0.58785811699E+01 -0.24507940075E+02  0.45759477876E+02  0.00000000000E+00 0.  1.
         13    1    3    3    0    0 -0.16740075527E+03  0.65080571129E+02  0.57312437794E+02  0.18852906706E+03  0.00000000000E+00 0. -1.
          1    1    1    2  501    0 -0.42812334562E+02  0.27779814750E+02  0.38373485978E+02  0.63852474692E+02  0.00000000000E+00 0. -1.
<scales pt_clust_5="13000.00000" pt_clust_6="13000.00000" pt_clust_7="13000.00000" pt_clust_8="13000.00000" pt_clust_9="51.03542"></scales>
<clustering>
<clus scale="   51.035">  1  9  2 -1</clus>
<clus scale="   79.902">  5  6 -1 -1</clus>
<clus scale="   89.673">  7  8 -1 -1</clus>
<clus scale="  249.528">  1  5  2 -1</clus>
<clus scale="   51.035">  1  5  2 -1</clus>
</clustering>
</event>
<event>
 9    2  0.6469128E-005  0.1087487E+03  0.7546771E-02  0.1266495E+00
         21   -1    0    0  501  502  0.00000000000E+00  0.00000000000E+00  0.13067184947E+03  0.13067184947E+03  0.00000000000E+00 0.  1.
          2   -1    0    0  502    0 -0.00000000000E+00 -0.00000000000E+00 -0.18956619785E+03  0.18956619785E+03  0.00000000000E+00 0. -1.
         23    2    1    2    0    0  0.58081428876E+02 -0.30967241294E+02 -0.13483107964E+03  0.17497330335E+03  0.90021188815E+02 0.  0.
         24    2    1    2    0    0 -0.30133527597E+02  0.34494138754E+02  0.44755717909E+02  0.10324356139E+03  0.80983230301E+02 0.  0.
        -13    1    4    4    0    0  0.19277778029E+02  0.26145895502E+02  0.41945262891E+02  0.53053234174E+02  0.00000000000E+00 0.  1.
         14    1    4    4    0    0 -0.49411305626E+02  0.83482432522E+01  0.28104550187E+01  0.50190327220E+02  0.00000000000E+00 0. -1.
        -11    1    3    3    0    0  0.79209809961E+02 -0.39503840558E+02 -0.11146877925E+03  0.14233775381E+03  0.00000000000E+00 0. -1.
         11    1    3    3    0    0 -0.21128381085E+02  0.85365992632E+01 -0.23362300386E+02  0.32635549537E+02  0.00000000000E+00 0.  1.
          1    1    1    2  501    0 -0.27947901279E+02 -0.35268974598E+01  0.31181013346E+02  0.42021182574E+02  0.00000000000E+00 0. -1.
<scales pt_clust_5="13000.00000" pt_clust_6="13000.00000" pt_clust_7="13000.00000" pt_clust_8="13000.00000" pt_clust_9="28.16956"></scales>
<clustering>
<clus scale="   28.170">  1  9  2 -1</clus>
<clus scale="   80.983">  5  6 -1 -1</clus>
<clus scale="   90.021">  7  8 -1 -1</clus>
<clus scale="  101.394">  1  5  2 -1</clus>
<clus scale="   28.170">  1  5  2 -1</clus>
</clustering>
</event>
<event>
 9    2  0.6469128E-005  0.9408100E+02  0.7546771E-02  0.1298961E+00
         -1   -1    0    0    0  501 -0.00000000000E+00  0.00000000000E+00  0.67384811151E+03  0.67384811151E+03  0.00000000000E+00 0.  1.
         21   -1    0    0  501  502  0.00000000000E+00 -0.00000000000E+00 -0.91150728482E+02  0.91150728482E+02  0.00000000000E+00 0.  1.
         23    2    1    2    0    0  0.10246694359E+02  0.18579686347E+02  0.46470424704E+03  0.47376641181E+03  0.89746176800E+02 0.  0.
         24    2    1    2    0    0  0.57870736172E+01 -0.49905209440E+02  0.18942875588E+03  0.21159940800E+03  0.79793707528E+02 0.  0.
        -13    1    4    4    0    0  0.16635724289E+01 -0.64800787825E+02  0.89647004068E+02  0.11062773122E+03  0.00000000000E+00 0.  1.
         14    1    4    4    0    0  0.41235011883E+01  0.14895578384E+02  0.99781751814E+02  0.10097167678E+03  0.00000000000E+00 0. -1.
        -11    1    3    3    0    0 -0.24455149577E+01  0.54266808243E+02  0.26875147997E+03  0.27418647852E+03  0.00000000000E+00 0. -1.
         11    1    3    3    0    0  0.12692209317E+02 -0.35687121895E+02  0.19595276708E+03  0.19957993329E+03  0.00000000000E+00 0.  1.
         -2    1    1    2    0  502 -0.16033767977E+02  0.31325523093E+02 -0.71435619899E+02  0.79633020179E+02  0.00000000000E+00 0.  1.
<scales pt_clust_5="13000.00000" pt_clust_6="13000.00000" pt_clust_7="13000.00000" pt_clust_8="13000.00000" pt_clust_9="35.19048"></scales>
<clustering>
<clus scale="   35.190">  2  9  1 -1</clus>
<clus scale="   79.794">  5  6 -1 -1</clus>
<clus scale="   84.640">  2  5  1 -1</clus>
<clus scale="   89.746">  7  8 -1 -1</clus>
<clus scale="   35.190">  2  5  1 -1</clus>
</clustering>
</event>
<event>
 9    2  0.6469128E-005  0.1516626E+03  0.7546771E-02  0.1201857E+00
         21   -1    0    0  501  502  0.00000000000E+00  0.00000000000E+00  0.95080690386E+02  0.95080690386E+02  0.00000000000E+00 0.  1.
         -1   -1    0    0    0  501 -0.00000000000E+00 -0.00000000000E+00 -0.53096547808E+03  0.53096547808E+03  0.00000000000E+00 0.  1.
         24    2    1    2    0    0 -0.14487591453E+03  0.17365901393E+02 -0.34433444423E+03  0.38239211459E+03  0.79792948766E+02 0.  0.
         23    2    1    2    0    0  0.74446560704E+02 -0.29228956367E+00 -0.11424238732E+03  0.16771505892E+03  0.97645491933E+02 0.  0.
        -11    1    3    3    0    0 -0.95222264628E+02 -0.15778594420E+02 -0.27191595234E+03  0.28853860895E+03  0.00000000000E+00 0.  1.
         12    1    3    3    0    0 -0.49653649901E+02  0.33144495813E+02 -0.72418491895E+02  0.93853505633E+02  0.00000000000E+00 0. -1.
        -11    1    4    4    0    0  0.25271204636E+02 -0.32612271429E+02 -0.23888843538E+01  0.41326756466E+02  0.00000000000E+00 0.  1.
         11    1    4    4    0    0  0.49175356069E+02  0.32319981866E+02 -0.11185350296E+03  0.12638830245E+03  0.00000000000E+00 0. -1.
         -2    1    1    2    0  502  0.70429353825E+02 -0.17073611829E+02  0.22692043853E+02  0.75938994959E+02  0.00000000000E+00 0.  1.
<scales pt_clust_5="13000.00000" pt_clust_6="13000.00000" pt_clust_7="13000.00000" pt_clust_8="13000.00000" pt_clust_9="72.46932"></scales>
<clustering>
<clus scale="   72.469">  1  9  2 -1</clus>
<clus scale="   79.793">  5  6 -1 -1</clus>
<clus scale="   97.645">  7  8 -1 -1</clus>
<clus scale="  140.833">  2  5  1 -1</clus>
<clus scale="   72.469">  1  5  2 -1</clus>
</clustering>
</event>
<event>
 9    2  0.6469128E-005  0.1257903E+03  0.7546771E-02  0.1236853E+00
         -1   -1    0    0    0  501 -0.00000000000E+00  0.00000000000E+00  0.11166977841E+03  0.11166977841E+03  0.00000000000E+00 0.  1.
         21   -1    0    0  501  502  0.00000000000E+00 -0.00000000000E+00 -0.27712659204E+03  0.27712659204E+03  0.00000000000E+00 0. -1.
         24    2    1    2    0    0 -0.11662881852E+02  0.83587732639E+02  0.23724936245E+02  0.11924104680E+03  0.80824642166E+02 0.  0.
         23    2    1    2    0    0 -0.33473739365E+02 -0.93934805794E+02 -0.97336336925E+02  0.16669640874E+03  0.91482737352E+02 0.  0.
        -11    1    3    3    0    0  0.34477147809E+02  0.31781420117E+02  0.15473446648E+02  0.49377727133E+02  0.00000000000E+00 0.  1.
         12    1    3    3    0    0 -0.46140029661E+02  0.51806312522E+02  0.82514895973E+01  0.69863319666E+02  0.00000000000E+00 0. -1.
        -11    1    4    4    0    0 -0.25372790149E+02 -0.71631717879E+01  0.10210080115E+02  0.28272517503E+02  0.00000000000E+00 0.  1.
         11    1    4    4    0    0 -0.81009492160E+01 -0.86771634006E+02 -0.10754641704E+03  0.13842389123E+03  0.00000000000E+00 0. -1.
         -2    1    1    2    0  502  0.45136621216E+02  0.10347073155E+02 -0.91845412945E+02  0.10285891491E+03  0.00000000000E+00 0.  1.
<scales pt_clust_5="13000.00000" pt_clust_6="13000.00000" pt_clust_7="13000.00000" pt_clust_8="13000.00000" pt_clust_9="46.30741"></scales>
<clustering>
<clus scale="   46.307">  2  9  1 -1</clus>
<clus scale="   80.825">  5  6 -1 -1</clus>
<clus scale="   91.483">  7  8 -1 -1</clus>
<clus scale="  118.265">  1  5  2 -1</clus>
<clus scale="   46.307">  2  5  1 -1</clus>
</clustering>
</event>
<event>
 9    2  0.6469128E-005  0.9608934E+02  0.7546771E-02  0.1299404E+00
          2   -1    0    0  502    0 -0.00000000000E+00  0.00000000000E+00  0.21339378907E+03  0.21339378907E+03  0.00000000000E+00 0. -1.
         21   -1    0    0  501  502  0.00000000000E+00 -0.00000000000E+00 -0.14129703160E+03  0.14129703160E+03  0.00000000000E+00 0. -1.
         23    2    1    2    0    0  0.33645008420E+02 -0.25703184474E+02  0.13583967297E+03  0.16919353194E+03  0.91549954742E+02 0.  0.
         24    2    1    2    0    0 -0.14870718882E+02 -0.50822164249E+02 -0.52448781074E+01  0.87361549448E+02  0.69285647263E+02 0.  0.
        -13    1    4    4    0    0  0.23966993618E+02 -0.19265449533E+02  0.13947475894E+02  0.33765461830E+02  0.00000000000E+00 0.  1.
         14    1    4    4    0    0 -0.38837712500E+02 -0.31556714716E+02 -0.19192354001E+02  0.53596087618E+02  0.00000000000E+00 0. -1.
        -11    1    3    3    0    0 -0.19202415597E+02  0.10773187825E+02  0.37670420905E+01  0.22337970964E+02  0.00000000000E+00 0.  1.
         11    1    3    3    0    0  0.52847424017E+02 -0.36476372299E+02  0.13207263088E+03  0.14685556098E+03  0.00000000000E+00 0. -1.
          1    1    1    2  501    0 -0.18774289538E+02  0.76525348723E+02 -0.58498037396E+02  0.98135739280E+02  0.00000000000E+00 0. -1.
<scales pt_clust_5="13000.00000" pt_clust_6="13000.00000" pt_clust_7="13000.00000" pt_clust_8="13000.00000" pt_clust_9="78.79469"></scales>
<clustering>
<clus scale="   69.286">  5  6 -1 -1</clus>
<clus scale="   78.795">  2  9  1 -1</clus>
<clus scale="   78.795">  2  5  1 -1</clus>
<clus scale="   91.550">  7  8 -1 -1</clus>
<clus scale="   78.795">  2  5  1 -1</clus>
</clustering>
</event>
<event>
 9    2  0.6469128E-005  0.1495200E+03  0.7546771E-02  0.1207765E+00
          2   -1    0    0  502    0 -0.00000000000E+00  0.00000000000E+00  0.16051206508E+04  0.16051206508E+04  0.00000000000E+00 0. -1.
         21   -1    0    0  501  502  0.00000000000E+00 -0.00000000000E+00 -0.28195103480E+02  0.28195103480E+02  0.00000000000E+00 0. -1.
         24    2    1    2    0    0 -0.91520214581E+02  0.37767361557E+02  0.45060125849E+03  0.46881590120E+03  0.83333857363E+02 0.  0.
         23    2    1    2    0    0  0.36637740019E+02  0.10245680142E+03  0.46593734242E+03  0.48716255094E+03  0.91597073209E+02 0.  0.
        -13    1    3    3    0    0 -0.60207764713E+01 -0.22807938673E+02  0.62012428195E+02  0.66347517410E+02  0.00000000000E+00 0.  1.
         14    1    3    3    0    0 -0.85499438110E+02  0.60575300230E+02  0.38858883030E+03  0.40246838379E+03  0.00000000000E+00 0. -1.
        -13    1    4    4    0    0 -0.18269628316E+02  0.21660370082E+02  0.33729813695E+02  0.44052823777E+02  0.00000000000E+00 0.  1.
         13    1    4    4    0    0  0.54907368334E+02  0.80796431340E+02  0.43220752873E+03  0.44310972716E+03  0.00000000000E+00 0. -1.
          1    1    1    2  501    0  0.54882474563E+02 -0.14022416298E+03  0.66038694639E+03  0.67733730213E+03  0.00000000000E+00 0. -1.
<scales pt_clust_5="13000.00000" pt_clust_6="13000.00000" pt_clust_7="13000.00000" pt_clust_8="13000.00000" pt_clust_9="118.17878"></scales>
<clustering>
<clus scale="   83.334">  5  6 -1 -1</clus>
<clus scale="   91.597">  7  8 -1 -1</clus>
<clus scale="  129.410">  1  5  2 -1</clus>
<clus scale="  118.179">  2  9  1 -1</clus>
<clus scale="  118.179">  2  5  1 -1</clus>
</clustering>
</event>
<event>
 9    2  0.6469128E-005  0.1866645E+03  0.7546771E-02  0.1162637E+00
         21   -1    0    0  501  502  0.00000000000E+00  0.00000000000E+00  0.79161525399E+02  0.79161525399E+02  0.00000000000E+00 0. -1.
          2   -1    0    0  502    0 -0.00000000000E+00 -0.00000000000E+00 -0.77223391918E+03  0.77223391918E+03  0.00000000000E+00 0. -1.
         23    2    1    2    0    0  0.94552509730E+02 -0.16110615065E+03 -0.36593841640E+03  0.42094306986E+03  0.91579334972E+02 0.  0.
         24    2    1    2    0    0 -0.15631518430E+02  0.13051621273E+03 -0.90389773523E+02  0.17903223784E+03  0.81261336886E+02 0.  0.
        -13    1    4    4    0    0 -0.40305489156E+02  0.28030749283E+02 -0.27068997269E+02  0.56062340074E+02  0.00000000000E+00 0.  1.
         14    1    4    4    0    0  0.24673970726E+02  0.10248546345E+03 -0.63320776254E+02  0.12296989776E+03  0.00000000000E+00 0. -1.
        -11    1    3    3    0    0 -0.12548244567E+02 -0.47569218276E+02 -0.60867948062E+02  0.78263631850E+02  0.00000000000E+00 0.  1.
         11    1    3    3    0    0  0.10710075430E+03 -0.11353693237E+03 -0.30507046834E+03  0.34267943801E+03  0.00000000000E+00 0. -1.
          1    1    1    2  501    0 -0.78920991300E+02  0.30589937913E+02 -0.23674420385E+03  0.25142013688E+03  0.00000000000E+00 0. -1.
<scales pt_clust_5="13000.00000" pt_clust_6="13000.00000" pt_clust_7="13000.00000" pt_clust_8="13000.00000" pt_clust_9="84.64204"></scales>
<clustering>
<clus scale="   81.261">  5  6 -1 -1</clus>
<clus scale="   84.642">  1  9  2 -1</clus>
<clus scale="   91.579">  7  8 -1 -1</clus>
<clus scale="  181.825">  1  5  2 -1</clus>
<clus scale="   84.642">  1  5  2 -1</clus>
</clustering>
</event>
<event>
 9    2  0.6469128E-005  0.1068417E+03  0.7546771E-02  0.1272107E+00
          4   -1    0    0  502    0 -0.00000000000E+00  0.00000000000E+00  0.12252822707E+04  0.12252822707E+04  0.00000000000E+00 0. -1.
         21   -1    0    0  501  502  0.00000000000E+00 -0.00000000000E+00 -0.20875322015E+03  0.20875322015E+03  0.00000000000E+00 0. -1.
         24    2    1    2    0    0 -0.53858442427E+02 -0.32891990533E+01  0.10975857224E+04  0.11018636390E+04  0.80607135128E+02 0.  0.
         23    2    1    2    0    0  0.33997365762E+02 -0.11740335523E+02  0.10466801760E+03  0.14478452680E+03  0.93346177939E+02 0.  0.
        -13    1    3    3    0    0 -0.16673658483E+02 -0.29515841391E+02  0.18087956692E+03  0.18402883880E+03  0.00000000000E+00 0.  1.
         14    1    3    3    0    0 -0.37184783944E+02  0.26226642338E+02  0.91670615552E+03  0.91783480022E+03  0.00000000000E+00 0. -1.
        -13    1    4    4    0    0  0.55896777764E+02  0.20313359460E+02  0.76111882883E+02  0.96592448219E+02  0.00000000000E+00 0.  1.
         13    1    4    4    0    0 -0.21899412002E+02 -0.32053694983E+02  0.28556134714E+02  0.48192078580E+02  0.00000000000E+00 0. -1.
          3    1    1    2  501    0  0.19861076665E+02  0.15029534576E+02 -0.18572468952E+03  0.18738732501E+03  0.00000000000E+00 0. -1.
<scales pt_clust_5="13000.00000" pt_clust_6="13000.00000" pt_clust_7="13000.00000" pt_clust_8="13000.00000" pt_clust_9="24.90681"></scales>
<clustering>
<clus scale="   24.907">  2  9  1 -1</clus>
<clus scale="   80.607">  5  6 -1 -1</clus>
<clus scale="   93.346">  7  8 -1 -1</clus>
<clus scale="   95.912">  1  5  2 -1</clus>
<clus scale="   24.907">  2  5  1 -1</clus>
</clustering>
</event>
<event>
 9    2  0.6469128E-005  0.9541493E+02  0.7546771E-02  0.1298624E+00
         21   -1    0    0  501  502  0.00000000000E+00  0.00000000000E+00  0.22759870013E+02  0.22759870013E+02  0.00000000000E+00 0. -1.
          2   -1    0    0  502    0 -0.00000000000E+00 -0.00000000000E+00 -0.58812317865E+03  0.58812317865E+03  0.00000000000E+00 0. -1.
         24    2    1    2    0    0  0.33989503760E+02  0.12640256326E+02 -0.31683282459E+03  0.32833183974E+03  0.78126153132E+02 0.  0.
         23    2    1    2    0    0  0.45364914074E+01  0.20298719994E+00 -0.15391924347E+03  0.17959253736E+03  0.92421453165E+02 0.  0.
        -11    1    3    3    0    0  0.50122568370E+02 -0.16282718231E+02 -0.18068629724E+03  0.18821513431E+03  0.00000000000E+00 0.  1.
         12    1    3    3    0    0 -0.16133064611E+02  0.28922974557E+02 -0.13614652736E+03  0.14011670544E+03  0.00000000000E+00 0. -1.
        -13    1    4    4    0    0  0.34552066666E+02 -0.83472922524E+01 -0.17446717338E+02  0.39596850186E+02  0.00000000000E+00 0. -1.
         13    1    4    4    0    0 -0.30015575258E+02  0.85502794524E+01 -0.13647252614E+03  0.13999568717E+03  0.00000000000E+00 0.  1.
          1    1    1    2  501    0 -0.38525995167E+02 -0.12843243526E+02 -0.94611240572E+02  0.10295867157E+03  0.00000000000E+00 0. -1.
<scales pt_clust_5="13000.00000" pt_clust_6="13000.00000" pt_clust_7="13000.00000" pt_clust_8="13000.00000" pt_clust_9="40.61036"></scales>
<clustering>
<clus scale="   40.610">  1  9  2 -1</clus>
<clus scale="   78.126">  5  6 -1 -1</clus>
<clus scale="   81.645">  2  5  1 -1</clus>
<clus scale="   92.421">  7  8 -1 -1</clus>
<clus scale="   40.610">  1  5  2 -1</clus>
</clustering>
</event>
<event>
 9    2  0.6469128E-005  0.1396873E+03  0.7546771E-02  0.1215896E+00
          2   -1    0    0  502    0 -0.00000000000E+00  0.00000000000E+00  0.86423527675E+03  0.86423527675E+03  0.00000000000E+00 0. -1.
         21   -1    0    0  501  502  0.00000000000E+00 -0.00000000000E+00 -0.37209099148E+02  0.37209099148E+02  0.00000000000E+00 0. -1.
         24    2    1    2    0    0  0.56269135000E+02  0.10182518286E+03  0.58536073623E+03  0.60221306898E+03  0.80491027512E+02 0.  0.
         23    2    1    2    0    0 -0.19036918571E+02 -0.77427840304E+02  0.12180156513E+03  0.17136881402E+03  0.90411141050E+02 0.  0.
        -13    1    3    3    0    0  0.21402281408E+02 -0.10148415224E+02  0.80671807043E+02  0.84077276554E+02  0.00000000000E+00 0.  1.
         14    1    3    3    0    0  0.34866853592E+02  0.11197359809E+03  0.50468892919E+03  0.51813579243E+03  0.00000000000E+00 0. -1.
        -13    1    4    4    0    0  0.15940805002E+01 -0.42556328156E+02  0.12368145714E+03  0.13080781704E+03  0.00000000000E+00 0.  1.
         13    1    4    4    0    0 -0.20630999072E+02 -0.34871512148E+02 -0.18798920014E+01  0.40560996982E+02  0.00000000000E+00 0. -1.
          1    1    1    2  501    0 -0.37232216429E+02 -0.24397342560E+02  0.11986387624E+03  0.12786249290E+03  0.00000000000E+00 0. -1.
<scales pt_clust_5="13000.00000" pt_clust_6="13000.00000" pt_clust_7="13000.00000" pt_clust_8="13000.00000" pt_clust_9="44.51371"></scales>
<clustering>
<clus scale="   44.514">  2  9  1 -1</clus>
<clus scale="   80.491">  5  6 -1 -1</clus>
<clus scale="   90.411">  7  8 -1 -1</clus>
<clus scale="  133.481">  1  5  2 -1</clus>
<clus scale="   44.514">  2  5  1 -1</clus>
</clustering>
</event>
<event>
 9    2  0.6469128E-005  0.4950451E+03  0.7546771E-02  0.1015566E+00
         21   -1    0    0  501  502  0.00000000000E+00  0.00000000000E+00  0.36744555951E+03  0.36744555951E+03  0.00000000000E+00 0.  1.
          2   -1    0    0  502    0 -0.00000000000E+00 -0.00000000000E+00 -0.14928028498E+04  0.14928028498E+04  0.00000000000E+00 0. -1.
         24    2    1    2    0    0 -0.12092182103E+03 -0.45205455665E+03 -0.24946665787E+03  0.53626900359E+03  0.79846238732E+02 0.  0.
         23    2    1    2    0    0  0.33996232921E+03  0.40467941820E+03 -0.14611226441E+03  0.56056627091E+03  0.11638699871E+03 0.  0.
        -13    1    3    3    0    0 -0.12785560236E+03 -0.36815154198E+03 -0.19296131864E+03  0.43487548035E+03  0.00000000000E+00 0.  1.
         14    1    3    3    0    0  0.69337813399E+01 -0.83903014668E+02 -0.56505339234E+02  0.10139352324E+03  0.00000000000E+00 0. -1.
        -11    1    4    4    0    0  0.32259550574E+03  0.35807372124E+03 -0.98924257238E+02  0.49200676706E+03  0.00000000000E+00 0.  1.
         11    1    4    4    0    0  0.17366823475E+02  0.46605696962E+02 -0.47188007168E+02  0.68559503844E+02  0.00000000000E+00 0. -1.
          1    1    1    2  501    0 -0.21904050819E+03  0.47375138444E+02 -0.72977836797E+03  0.76341313476E+03  0.00000000000E+00 0. -1.
<scales pt_clust_5="13000.00000" pt_clust_6="13000.00000" pt_clust_7="13000.00000" pt_clust_8="13000.00000" pt_clust_9="224.10533"></scales>
<clustering>
<clus scale="   79.846">  5  6 -1 -1</clus>
<clus scale="  116.387">  7  8 -1 -1</clus>
<clus scale="  224.105">  1  9  2 -1</clus>
<clus scale="  487.749">  2  5  1 -1</clus>
<clus scale="  224.105">  1  5  2 -1</clus>
</clustering>
</event>
<event>
 9    2  0.6469128E-005  0.9780544E+02  0.7546771E-02  0.1290684E+00
          2   -1    0    0  502    0 -0.00000000000E+00  0.00000000000E+00  0.84763020843E+03  0.84763020843E+03  0.00000000000E+00 0. -1.
         21   -1    0    0  501  502  0.00000000000E+00 -0.00000000000E+00 -0.17217791026E+02  0.17217791026E+02  0.00000000000E+00 0. -1.
         24    2    1    2    0    0  0.29641379960E+02  0.15756000489E+02  0.52253123854E+03  0.53007052174E+03  0.82516663808E+02 0.  0.
         23    2    1    2    0    0 -0.28832760677E+02  0.14464946388E+02  0.26139083123E+03  0.27932198278E+03  0.93032470963E+02 0.  0.
        -11    1    3    3    0    0  0.19447873084E+01 -0.26004821381E+02  0.68728189804E+02  0.73509162738E+02  0.00000000000E+00 0.  1.
         12    1    3    3    0    0  0.27696592652E+02  0.41760821870E+02  0.45380304874E+03  0.45656135900E+03  0.00000000000E+00 0. -1.
        -13    1    4    4    0    0 -0.24344368187E+02  0.49661990966E+02  0.20791336384E+03  0.21514397150E+03  0.00000000000E+00 0. -1.
         13    1    4    4    0    0 -0.44883924897E+01 -0.35197044577E+02  0.53477467388E+02  0.64178011284E+02  0.00000000000E+00 0.  1.
          1    1    1    2  501    0 -0.80861928348E+00 -0.30220946877E+02  0.46490347634E+02  0.55455494934E+02  0.00000000000E+00 0. -1.
<scales pt_clust_5="13000.00000" pt_clust_6="13000.00000" pt_clust_7="13000.00000" pt_clust_8="13000.00000" pt_clust_9="30.23176"></scales>
<clustering>
<clus scale="   30.232">  2  9  1 -1</clus>
<clus scale="   82.517">  5  6 -1 -1</clus>
<clus scale="   87.863">  1  5  2 -1</clus>
<clus scale="   93.032">  7  8 -1 -1</clus>
<clus scale="   30.232">  2  5  1 -1</clus>
</clustering>
</event>
<event>
 9    2  0.6469128E-005  0.9367709E+02  0.7546771E-02  0.1297464E+00
          2   -1    0    0  502    0 -0.00000000000E+00  0.00000000000E+00  0.49644802829E+03  0.49644802829E+03  0.00000000000E+00 0. -1.
         21   -1    0    0  501  502  0.00000000000E+00 -0.00000000000E+00 -0.13122043053E+03  0.13122043053E+03  0.00000000000E+00 0.  1.
         24    2    1    2    0    0 -0.64692797465E+01  0.22457676910E+02  0.45145947896E+03  0.45991746717E+03  0.84629880252E+02 0.  0.
         23    2    1    2    0    0  0.22846801004E+01 -0.45701814544E+02 -0.28286238283E+02  0.10517704867E+03  0.90378231195E+02 0.  0.
        -11    1    3    3    0    0  0.30310173689E+02  0.54820453953E+01  0.72133370020E+02  0.78434574782E+02  0.00000000000E+00 0.  1.
         12    1    3    3    0    0 -0.36779453435E+02  0.16975631515E+02  0.37932610894E+03  0.38148289239E+03  0.00000000000E+00 0. -1.
        -13    1    4    4    0    0  0.21808565436E+02  0.11547430618E+02 -0.36578779132E+02  0.44124412325E+02  0.00000000000E+00 0.  1.
         13    1    4    4    0    0 -0.19523885336E+02 -0.57249245163E+02  0.82925408489E+01  0.61052636340E+02  0.00000000000E+00 0. -1.
          1    1    1    2  501    0  0.41845996461E+01  0.23244137634E+02 -0.57945642916E+02  0.62573942991E+02  0.00000000000E+00 0. -1.
<scales pt_clust_5="13000.00000" pt_clust_6="13000.00000" pt_clust_7="13000.00000" pt_clust_8="13000.00000" pt_clust_9="23.61781"></scales>
<clustering>
<clus scale="   23.618">  2  9  1 -1</clus>
<clus scale="   84.630">  5  6 -1 -1</clus>
<clus scale="   88.144">  1  5  2 -1</clus>
<clus scale="   90.378">  7  8 -1 -1</clus>
<clus scale="   23.618">  2  5  1 -1</clus>
</clustering>
</event>
<event>
 9    2  0.6469128E-005  0.1827516E+03  0.7546771E-02  0.1185345E+00
          2   -1    0    0  502    0 -0.00000000000E+00  0.00000000000E+00  0.32780074912E+03  0.32780074912E+03  0.00000000000E+00 0. -1.
         21   -1    0    0  501  502  0.00000000000E+00 -0.00000000000E+00 -0.43064082928E+03  0.43064082928E+03  0.00000000000E+00 0. -1.
         24    2    1    2    0    0 -0.62908035613E+02  0.57831380770E+02 -0.30380794936E+03  0.32508330855E+03  0.77961515212E+02 0.  0.
         23    2    1    2    0    0  0.20169170325E+03 -0.12572692457E+02  0.18053124192E+03  0.28595775762E+03  0.91338349442E+02 0.  0.
        -11    1    3    3    0    0 -0.62503495628E+01  0.52573355472E+02 -0.96060689541E+02  0.10968445947E+03  0.00000000000E+00 0.  1.
         12    1    3    3    0    0 -0.56657686050E+02  0.52580252981E+01 -0.20774725982E+03  0.21539884907E+03  0.00000000000E+00 0. -1.
        -13    1    4    4    0    0  0.88775703353E+02 -0.26863895999E+02  0.30494761038E+02  0.97635674140E+02  0.00000000000E+00 0.  1.
         13    1    4    4    0    0  0.11291599990E+03  0.14291203542E+02  0.15003648088E+03  0.18832208348E+03  0.00000000000E+00 0. -1.
          1    1    1    2  501    0 -0.13878366764E+03 -0.45258688313E+02  0.20436627282E+02  0.14740051223E+03  0.00000000000E+00 0. -1.
<scales pt_clust_5="13000.00000" pt_clust_6="13000.00000" pt_clust_7="13000.00000" pt_clust_8="13000.00000" pt_clust_9="158.28919"></scales>
<clustering>
<clus scale="   77.962">  5  6 -1 -1</clus>
<clus scale="   91.338">  7  8 -1 -1</clus>
<clus scale="  115.672">  1  5  2 -1</clus>
<clus scale="  158.289">  2  9  1 -1</clus>
<clus scale="  158.289">  2  5  1 -1</clus>
</clustering>
</event>
<event>
 9    2  0.6469128E-005  0.1273032E+03  0.7546771E-02  0.1234202E+00
         21   -1    0    0  501  502  0.00000000000E+00  0.00000000000E+00  0.11683830037E+03  0.11683830037E+03  0.00000000000E+00 0. -1.
          2   -1    0    0  502    0 -0.00000000000E+00 -0.00000000000E+00 -0.71681899646E+03  0.71681899646E+03  0.00000000000E+00 0. -1.
         24    2    1    2    0    0 -0.61283777154E+02  0.76478032028E+02 -0.42131322792E+03  0.43988328644E+03  0.79924207501E+02 0.  0.
         23    2    1    2    0    0  0.11854950343E+03  0.31291204444E+02 -0.21779534113E+03  0.26561566233E+03  0.89909650286E+02 0.  0.
        -11    1    3    3    0    0 -0.21023630517E+02  0.73910730010E+01 -0.17793451875E+02  0.28517151503E+02  0.00000000000E+00 0.  1.
         12    1    3    3    0    0 -0.40260146638E+02  0.69086959027E+02 -0.40351977604E+03  0.41136613493E+03  0.00000000000E+00 0. -1.
        -13    1    4    4    0    0  0.24874955832E+02  0.32275622877E+02 -0.13354490211E+03  0.13962349422E+03  0.00000000000E+00 0.  1.
         13    1    4    4    0    0  0.93674547601E+02 -0.98441843248E+00 -0.84250439023E+02  0.12599216810E+03  0.00000000000E+00 0. -1.
          1    1    1    2  501    0 -0.57265726279E+02 -0.10776923647E+03  0.39127872958E+02  0.12815834806E+03  0.00000000000E+00 0. -1.
<scales pt_clust_5="13000.00000" pt_clust_6="13000.00000" pt_clust_7="13000.00000" pt_clust_8="13000.00000" pt_clust_9="122.03922"></scales>
<clustering>
<clus scale="   79.924">  5  6 -1 -1</clus>
<clus scale="   89.910">  7  8 -1 -1</clus>
<clus scale="  122.039">  1  9  2 -1</clus>
<clus scale="  120.458">  2  5  1 -1</clus>
<clus scale="  122.039">  1  5  2 -1</clus>
</clustering>
</event>
<event>
 9    2  0.6469128E-005  0.1021740E+03  0.7546771E-02  0.1279853E+00
          4   -1    0    0  502    0 -0.00000000000E+00  0.00000000000E+00  0.45295961774E+02  0.45295961774E+02  0.00000000000E+00 0. -1.
         21   -1    0    0  501  502  0.00000000000E+00 -0.00000000000E+00 -0.45577260556E+03  0.45577260556E+03  0.00000000000E+00 0. -1.
         24    2    1    2    0    0  0.35428261748E+02 -0.48722434355E+02 -0.55898224985E+02  0.11639639699E+03  0.82428589305E+02 0.  0.
         23    2    1    2    0    0 -0.23872015426E+02 -0.96573897060E+00 -0.18495461851E+03  0.20754313540E+03  0.91077639242E+02 0.  0.
        -11    1    3    3    0    0 -0.26327693773E+02 -0.16166706193E+02 -0.26284651164E+02  0.40563440872E+02  0.00000000000E+00 0.  1.
         12    1    3    3    0    0  0.61755955521E+02 -0.32555728162E+02 -0.29613573821E+02  0.75832956113E+02  0.00000000000E+00 0. -1.
        -13    1    4    4    0    0 -0.11718845604E+02 -0.32029428573E+02 -0.16539510203E+03  0.16887496977E+03  0.00000000000E+00 0. -1.
         13    1    4    4    0    0 -0.12153169822E+02  0.31063689603E+02 -0.19559516477E+02  0.38668165631E+02  0.00000000000E+00 0.  1.
          3    1    1    2  501    0 -0.11556246322E+02  0.49688173326E+02 -0.16962380029E+03  0.17712903495E+03  0.00000000000E+00 0. -1.
<scales pt_clust_5="13000.00000" pt_clust_6="13000.00000" pt_clust_7="13000.00000" pt_clust_8="13000.00000" pt_clust_9="51.01433"></scales>
<clustering>
<clus scale="   51.014">  2  9  1 -1</clus>
<clus scale="   82.429">  5  6 -1 -1</clus>
<clus scale="   91.078">  7  8 -1 -1</clus>
<clus scale="   94.546">  1  5  2 -1</clus>
<clus scale="   51.014">  2  5  1 -1</clus>
</clustering>
</event>
<event>
 9    2  0.6640018E-005  0.9502521E+02  0.7546771E-02  0.1296139E+00
         21   -1    0    0  501  502  0.00000000000E+00  0.00000000000E+00  0.54729776513E+02  0.54729776513E+02  0.00000000000E+00 0. -1.
         -1   -1    0    0    0  501 -0.00000000000E+00 -0.00000000000E+00 -0.36292168036E+03  0.36292168036E+03  0.00000000000E+00 0.  1.
         23    2    1    2    0    0 -0.27172764535E+02  0.38492141746E+01 -0.12894277574E+03  0.15905912000E+03  0.88996565423E+02 0.  0.
         24    2    1    2    0    0  0.48854700349E+02  0.14358231349E+01 -0.17445879387E+02  0.95257315349E+02  0.79879622469E+02 0.  0.
        -11    1    4    4    0    0  0.27665135470E+02 -0.13417034043E+02 -0.46881496997E+02  0.56064706222E+02  0.00000000000E+00 0.  1.
         12    1    4    4    0    0  0.21189564879E+02  0.14852857178E+02  0.29435617610E+02  0.39192609127E+02  0.00000000000E+00 0. -1.
        -13    1    3    3    0    0 -0.55766230756E+02 -0.16119776029E+02 -0.85604527307E+02  0.10343043444E+03  0.00000000000E+00 0.  1.
         13    1    3    3    0    0  0.28593466222E+02  0.19968990203E+02 -0.43338248435E+02  0.55628685566E+02  0.00000000000E+00 0. -1.
         -2    1    1    2    0  502 -0.21681935814E+02 -0.52850373095E+01 -0.16180324872E+03  0.16333502152E+03  0.00000000000E+00 0.  1.
<scales pt_clust_5="13000.00000" pt_clust_6="13000.00000" pt_clust_7="13000.00000" pt_clust_8="13000.00000" pt_clust_9="22.31678"></scales>
<clustering>
<clus scale="   22.317">  1  9  2 -1</clus>
<clus scale="   79.880">  5  6 -1 -1</clus>
<clus scale="   86.546">  1  5  2 -1</clus>
<clus scale="   88.997">  7  8 -1 -1</clus>
<clus scale="   22.317">  1  5  2 -1</clus>
</clustering>
</event>
<event>
 9    2  0.6469128E-005  0.2681935E+03  0.7546771E-02  0.1137801E+00
         -1   -1    0    0    0  501 -0.00000000000E+00  0.00000000000E+00  0.56733146642E+03  0.56733146642E+03  0.00000000000E+00 0.  1.
         21   -1    0    0  501  502  0.00000000000E+00 -0.00000000000E+00 -0.30708731360E+03  0.30708731360E+03  0.00000000000E+00 0. -1.
         23    2    1    2    0    0 -0.41205808625E+02 -0.46943746097E+02  0.29164833531E+03  0.31184707826E+03  0.91039632957E+02 0.  0.
         24    2    1    2    0    0  0.51657322649E+02 -0.23711564520E+03 -0.92297887913E+02  0.27187079827E+03  0.80638220839E+02 0.  0.
        -13    1    4    4    0    0  0.51775128697E+02 -0.75087403564E+02 -0.51670547959E+02  0.10482665525E+03  0.00000000000E+00 0.  1.
         14    1    4    4    0    0 -0.11780604741E+00 -0.16202824163E+03 -0.40627339954E+02  0.16704414302E+03  0.00000000000E+00 0. -1.
        -13    1    3    3    0    0 -0.46936784392E+02 -0.84841722735E+01  0.25139563250E+03  0.25588045441E+03  0.00000000000E+00 0. -1.
         13    1    3    3    0    0  0.57309757667E+01 -0.38459573824E+02  0.40252702808E+02  0.55966623851E+02  0.00000000000E+00 0.  1.
         -2    1    1    2    0  502 -0.10451514024E+02  0.28405939130E+03  0.60893705419E+02  0.29070090349E+03  0.00000000000E+00 0.  1.
<scales pt_clust_5="13000.00000" pt_clust_6="13000.00000" pt_clust_7="13000.00000" pt_clust_8="13000.00000" pt_clust_9="255.78370"></scales>
<clustering>
<clus scale="   80.638">  5  6 -1 -1</clus>
<clus scale="   91.040">  7  8 -1 -1</clus>
<clus scale="  110.408">  1  7  2 -1</clus>
<clus scale="  255.784">  2  9  1 -1</clus>
<clus scale="  255.784">  2  5  1 -1</clus>
</clustering>
</event>
<event>
 9    2  0.6469128E-005  0.9204713E+02  0.7546771E-02  0.1305915E+00
         -3   -1    0    0    0  501 -0.00000000000E+00  0.00000000000E+00  0.21804492819E+03  0.21804492819E+03  0.00000000000E+00 0.  1.
         21   -1    0    0  501  502  0.00000000000E+00 -0.00000000000E+00 -0.77179814695E+02  0.77179814695E+02  0.00000000000E+00 0. -1.
         24    2    1    2    0    0  0.45506741551E+01  0.34673984139E+01  0.54875328550E+02  0.95587060013E+02  0.78056728547E+02 0.  0.
         23    2    1    2    0    0  0.56433228821E+02 -0.82927430720E+01  0.18921189228E+02  0.10886038998E+03  0.90769456327E+02 0.  0.
        -13    1    3    3    0    0 -0.76804770033E+01  0.27750655828E+02 -0.55521129389E+01  0.29324300229E+02  0.00000000000E+00 0.  1.
         14    1    3    3    0    0  0.12231151158E+02 -0.24283257414E+02  0.60427441489E+02  0.66262759784E+02  0.00000000000E+00 0. -1.
        -13    1    4    4    0    0  0.29580432270E+02  0.19710926355E+02  0.48458911251E+02  0.60098158630E+02  0.00000000000E+00 0.  1.
         13    1    4    4    0    0  0.26852796551E+02 -0.28003669427E+02 -0.29537722023E+02  0.48762231350E+02  0.00000000000E+00 0. -1.
         -4    1    1    2    0  502 -0.60983902976E+02  0.48253446581E+01  0.67068595714E+02  0.90777292889E+02  0.00000000000E+00 0.  1.
<scales pt_clust_5="13000.00000" pt_clust_6="13000.00000" pt_clust_7="13000.00000" pt_clust_8="13000.00000" pt_clust_9="61.17454"></scales>
<clustering>
<clus scale="   61.175">  2  9  1 -1</clus>
<clus scale="   78.057">  5  6 -1 -1</clus>
<clus scale="   79.539">  1  5  2 -1</clus>
<clus scale="   90.769">  7  8 -1 -1</clus>
<clus scale="   61.175">  2  5  1 -1</clus>
</clustering>
</event>
<event>
 9    2  0.6469128E-005  0.1579326E+03  0.7546771E-02  0.1194211E+00
         -1   -1    0    0    0  501 -0.00000000000E+00  0.00000000000E+00  0.10026420358E+04  0.10026420358E+04  0.00000000000E+00 0.  1.
         21   -1    0    0  501  502  0.00000000000E+00 -0.00000000000E+00 -0.32802431583E+02  0.32802431583E+02  0.00000000000E+00 0.  1.
         24    2    1    2    0    0 -0.96722900027E+02  0.82965162739E+02  0.62714566835E+03  0.64464723682E+03  0.77587582705E+02 0.  0.
         23    2    1    2    0    0  0.70789390839E+02 -0.10060616690E+03  0.29328124623E+03  0.33227060565E+03  0.96213966300E+02 0.  0.
        -11    1    3    3    0    0 -0.67028914394E+02  0.95714357923E+02  0.48622842115E+03  0.50007218600E+03  0.00000000000E+00 0.  1.
         12    1    3    3    0    0 -0.29693985633E+02 -0.12749195184E+02  0.14091724720E+03  0.14457505082E+03  0.00000000000E+00 0. -1.
        -11    1    4    4    0    0  0.13220033840E+02 -0.75450799836E+02  0.83632118198E+02  0.11341042141E+03  0.00000000000E+00 0.  1.
         11    1    4    4    0    0  0.57569356998E+02 -0.25155367065E+02  0.20964912804E+03  0.21886018424E+03  0.00000000000E+00 0. -1.
         -2    1    1    2    0  502  0.25933509188E+02  0.17641004162E+02  0.49412689600E+02  0.58526624883E+02  0.00000000000E+00 0.  1.
<scales pt_clust_5="13000.00000" pt_clust_6="13000.00000" pt_clust_7="13000.00000" pt_clust_8="13000.00000" pt_clust_9="31.36482"></scales>
<clustering>
<clus scale="   31.365">  2  9  1 -1</clus>
<clus scale="   77.588">  5  6 -1 -1</clus>
<clus scale="   96.214">  7  8 -1 -1</clus>
<clus scale="  147.328">  1  5  2 -1</clus>
<clus scale="   31.365">  2  5  1 -1</clus>
</clustering>
</event>
<event>
 9    2  0.6469128E-005  0.9305659E+02  0.7546771E-02  0.1297584E+00
         -1   -1    0    0    0  501 -0.00000000000E+00  0.00000000000E+00  0.53114502371E+03  0.53114502371E+03  0.00000000000E+00 0.  1.
         21   -1    0    0  501  502  0.00000000000E+00 -0.00000000000E+00 -0.32235691498E+02  0.32235691498E+02  0.00000000000E+00 0. -1.
         24    2    1    2    0    0 -0.16521110100E+02 -0.41668227869E+02  0.28001294683E+03  0.29465443577E+03  0.80029980834E+02 0.  0.
         23    2    1    2    0    0 -0.18846606394E+02  0.33917783587E+02  0.70972488167E+02  0.11643568838E+03  0.83752998974E+02 0.  0.
        -13    1    3    3    0    0 -0.16505691275E+02 -0.65676840711E+02  0.20671140971E+03  0.21752124529E+03  0.00000000000E+00 0.  1.
         14    1    3    3    0    0 -0.15418824702E-01  0.24008612842E+02  0.73301537125E+02  0.77133190477E+02  0.00000000000E+00 0. -1.
        -11    1    4    4    0    0 -0.19093045008E+02 -0.25438894454E+02  0.33733784847E+02  0.46364317733E+02  0.00000000000E+00 0.  1.
         11    1    4    4    0    0  0.24643861410E+00  0.59356678041E+02  0.37238703320E+02  0.70071370652E+02  0.00000000000E+00 0. -1.
         -2    1    1    2    0  502  0.35367716494E+02  0.77504442823E+01  0.14792389722E+03  0.15229059106E+03  0.00000000000E+00 0.  1.
<scales pt_clust_5="13000.00000" pt_clust_6="13000.00000" pt_clust_7="13000.00000" pt_clust_8="13000.00000" pt_clust_9="36.20699"></scales>
<clustering>
<clus scale="   36.207">  2  9  1 -1</clus>
<clus scale="   80.030">  5  6 -1 -1</clus>
<clus scale="   83.753">  7  8 -1 -1</clus>
<clus scale="   89.720">  1  5  2 -1</clus>
<clus scale="   36.207">  2  5  1 -1</clus>
</clustering>
</event>
<event>
 9    2  0.6469128E-005  0.1121972E+03  0.7546771E-02  0.1266948E+00
          2   -1    0    0  502    0 -0.00000000000E+00  0.00000000000E+00  0.50220186186E+02  0.50220186186E+02  0.00000000000E+00 0. -1.
         21   -1    0    0  501  502  0.00000000000E+00 -0.00000000000E+00 -0.86060967221E+03  0.86060967221E+03  0.00000000000E+00 0.  1.
         24    2    1    2    0    0  0.29140005742E+02 -0.15201933608E+02 -0.32956261497E+03  0.34375506849E+03  0.92064060345E+02 0.  0.
         23    2    1    2    0    0 -0.75546101663E+02  0.80386464879E+02 -0.46898347717E+03  0.48618712191E+03  0.65293326126E+02 0.  0.
        -13    1    3    3    0    0  0.52713780866E+02 -0.36235105976E+02 -0.25230401728E+03  0.26028646284E+03  0.00000000000E+00 0.  1.
         14    1    3    3    0    0 -0.23573775124E+02  0.21033172368E+02 -0.77258597686E+02  0.83468605654E+02  0.00000000000E+00 0. -1.
        -11    1    4    4    0    0  0.78015313849E+01  0.26857532790E+02 -0.78424166899E+02  0.83261881515E+02  0.00000000000E+00 0.  1.
         11    1    4    4    0    0 -0.83347633048E+02  0.53528932089E+02 -0.39055931027E+03  0.40292524039E+03  0.00000000000E+00 0. -1.
          1    1    1    2  501    0  0.46406095921E+02 -0.65184531272E+02 -0.11843393885E+02  0.80887668000E+02  0.00000000000E+00 0. -1.
<scales pt_clust_5="13000.00000" pt_clust_6="13000.00000" pt_clust_7="13000.00000" pt_clust_8="13000.00000" pt_clust_9="80.01597"></scales>
<clustering>
<clus scale="   65.293">  7  8 -1 -1</clus>
<clus scale="   80.016">  2  9  1 -1</clus>
<clus scale="   91.518">  2  7  1 -1</clus>
<clus scale="   92.064">  5  6 -1 -1</clus>
<clus scale="   80.016">  2  5  1 -1</clus>
</clustering>
</event>
<event>
 9    2  0.6469128E-005  0.1918213E+03  0.7546771E-02  0.1159387E+00
         21   -1    0    0  501  502  0.00000000000E+00  0.00000000000E+00  0.26735132211E+03  0.26735132211E+03  0.00000000000E+00 0. -1.
          2   -1    0    0  502    0 -0.00000000000E+00 -0.00000000000E+00 -0.10457518711E+04  0.10457518711E+04  0.00000000000E+00 0. -1.
         24    2    1    2    0    0  0.32541423589E+02  0.15848542944E+03 -0.21188382445E+03  0.27846940064E+03  0.80460402889E+02 0.  0.
         23    2    1    2    0    0  0.16592434412E+03  0.10880508177E+02  0.16911893072E+03  0.25409980929E+03  0.91193349126E+02 0.  0.
        -13    1    3    3    0    0  0.65796664165E+01  0.30211917430E+02 -0.18219166774E+01  0.30973720238E+02  0.00000000000E+00 0.  1.
         14    1    3    3    0    0  0.25961757172E+02  0.12827351201E+03 -0.21006190778E+03  0.24749568040E+03  0.00000000000E+00 0. -1.
        -11    1    4    4    0    0  0.25729934165E+02  0.22028296417E+02 -0.35369134884E+00  0.33873299998E+02  0.00000000000E+00 0.  1.
         11    1    4    4    0    0  0.14019440996E+03 -0.11147788240E+02  0.16947262207E+03  0.22022650930E+03  0.00000000000E+00 0. -1.
          1    1    1    2  501    0 -0.19846576771E+03 -0.16936593762E+03 -0.73563565524E+03  0.78053398327E+03  0.00000000000E+00 0. -1.
<scales pt_clust_5="13000.00000" pt_clust_6="13000.00000" pt_clust_7="13000.00000" pt_clust_8="13000.00000" pt_clust_9="168.75791"></scales>
<clustering>
<clus scale="   80.460">  5  6 -1 -1</clus>
<clus scale="   91.193">  7  8 -1 -1</clus>
<clus scale="  180.694">  2  5  1 -1</clus>
<clus scale="  168.758">  1  9  2 -1</clus>
<clus scale="  168.758">  1  5  2 -1</clus>
</clustering>
</event>
<event>
 9    2  0.6469128E-005  0.1080478E+03  0.7546771E-02  0.1270593E+00
          2   -1    0    0  502    0 -0.00000000000E+00  0.00000000000E+00  0.49718687757E+02  0.49718687757E+02  0.00000000000E+00 0. -1.
         21   -1    0    0  501  502  0.00000000000E+00 -0.00000000000E+00 -0.36005292296E+03  0.36005292296E+03  0.00000000000E+00 0. -1.
         24    2    1    2    0    0 -0.14859008248E+02 -0.43113113880E+02 -0.82531153755E+02  0.12497668176E+03  0.82025904005E+02 0.  0.
         23    2    1    2    0    0  0.55105999717E+02  0.34406941512E+02 -0.20983524256E+03  0.23986764333E+03  0.96359475239E+02 0.  0.
        -11    1    3    3    0    0 -0.18348379871E+02  0.21099719685E+02 -0.36081891879E+02  0.45648265424E+02  0.00000000000E+00 0.  1.
         12    1    3    3    0    0  0.34893716229E+01 -0.64212833565E+02 -0.46449261877E+02  0.79328416331E+02  0.00000000000E+00 0. -1.
        -13    1    4    4    0    0  0.12114736337E+02 -0.33422655277E+02 -0.55967367852E+02  0.66303747908E+02  0.00000000000E+00 0.  1.
         13    1    4    4    0    0  0.42991263380E+02  0.67829596790E+02 -0.15386787471E+03  0.17356389542E+03  0.00000000000E+00 0. -1.
          1    1    1    2  501    0 -0.40246991469E+02  0.87061723676E+01 -0.17967838886E+02  0.44927285627E+02  0.00000000000E+00 0. -1.
<scales pt_clust_5="13000.00000" pt_clust_6="13000.00000" pt_clust_7="13000.00000" pt_clust_8="13000.00000" pt_clust_9="41.17790"></scales>
<clustering>
<clus scale="   41.178">  2  9  1 -1</clus>
<clus scale="   82.026">  5  6 -1 -1</clus>
<clus scale="   95.485">  1  5  2 -1</clus>
<clus scale="   96.359">  7  8 -1 -1</clus>
<clus scale="   41.178">  2  5  1 -1</clus>
</clustering>
</event>
<event>
 9    2  0.6469128E-005  0.1250244E+03  0.7546771E-02  0.1237745E+00
         21   -1    0    0  501  502  0.00000000000E+00  0.00000000000E+00  0.61701816583E+02  0.61701816583E+02  0.00000000000E+00 0.  1.
          2   -1    0    0  502    0 -0.00000000000E+00 -0.00000000000E+00 -0.42009068899E+03  0.42009068899E+03  0.00000000000E+00 0. -1.
         23    2    1    2    0    0 -0.10810193303E+03  0.29882549347E+02 -0.23697641091E+03  0.27713599502E+03  0.89819517516E+02 0.  0.
         24    2    1    2    0    0  0.45470230740E+02 -0.40846066187E+02 -0.80972759770E+02  0.12930202622E+03  0.80165348831E+02 0.  0.
        -11    1    4    4    0    0 -0.89133143438E+01 -0.34197102595E+02 -0.61920479887E+02  0.71295405378E+02  0.00000000000E+00 0.  1.
         12    1    4    4    0    0  0.54383545084E+02 -0.66489635920E+01 -0.19052279883E+02  0.58006620842E+02  0.00000000000E+00 0. -1.
        -13    1    3    3    0    0  0.46741158143E+01  0.26229619675E+02 -0.22851349341E+02  0.35100206177E+02  0.00000000000E+00 0.  1.
         13    1    3    3    0    0 -0.11277604885E+03  0.36529296716E+01 -0.21412506157E+03  0.24203578884E+03  0.00000000000E+00 0. -1.
          1    1    1    2  501    0  0.62631702294E+02  0.10963516840E+02 -0.40439701732E+02  0.75354484338E+02  0.00000000000E+00 0. -1.
<scales pt_clust_5="13000.00000" pt_clust_6="13000.00000" pt_clust_7="13000.00000" pt_clust_8="13000.00000" pt_clust_9="63.58403"></scales>
<clustering>
<clus scale="   63.584">  1  9  2 -1</clus>
<clus scale="   80.165">  5  6 -1 -1</clus>
<clus scale="   89.820">  7  8 -1 -1</clus>
<clus scale="  118.280">  1  5  2 -1</clus>
<clus scale="   63.584">  1  5  2 -1</clus>
</clustering>
</event>
<event>
 9    2  0.9910566E-005  0.1462865E+03  0.7546771E-02  0.1219976E+00
         21   -1    0    0  501  502  0.00000000000E+00  0.00000000000E+00  0.47063790391E+02  0.47063790391E+02  0.00000000000E+00 0. -1.
          2   -1    0    0  502    0 -0.00000000000E+00 -0.00000000000E+00 -0.20438193252E+04  0.20438193252E+04  0.00000000000E+00 0. -1.
         24    2    1    2    0    0 -0.28547627625E+01  0.67982694652E+02 -0.15253374085E+04  0.15290609570E+04  0.82118231465E+02 0.  0.
         23    2    1    2    0    0 -0.47947934673E+02  0.51345839358E+02 -0.39561031858E+03  0.41159886877E+03  0.89278804572E+02 0.  0.
        -13    1    3    3    0    0  0.10998894697E+02  0.28002972009E+02 -0.14564510498E+03  0.14872000111E+03  0.00000000000E+00 0.  1.
         14    1    3    3    0    0 -0.13853657459E+02  0.39979722643E+02 -0.13796923035E+04  0.13803409559E+04  0.00000000000E+00 0. -1.
        -13    1    4    4    0    0  0.12900563901E+02 -0.15648841134E+02 -0.42744890880E+02  0.47312117625E+02  0.00000000000E+00 0.  1.
         13    1    4    4    0    0 -0.60848498573E+02  0.66994680492E+02 -0.35286542770E+03  0.36428675115E+03  0.00000000000E+00 0. -1.
          1    1    1    2  501    0  0.50802697435E+02 -0.11932853401E+03 -0.75807807701E+02  0.15022328982E+03  0.00000000000E+00 0. -1.
<scales pt_clust_5="13000.00000" pt_clust_6="13000.00000" pt_clust_7="13000.00000" pt_clust_8="13000.00000" pt_clust_9="115.88377"></scales>
<clustering>
<clus scale="   82.118">  5  6 -1 -1</clus>
<clus scale="   89.279">  7  8 -1 -1</clus>
<clus scale="  106.645">  2  5  1 -1</clus>
<clus scale="  115.884">  1  9  2 -1</clus>
<clus scale="  115.884">  1  5  2 -1</clus>
</clustering>
</event>
<event>
 9    2  0.6469128E-005  0.9523936E+02  0.7546771E-02  0.1297443E+00
         21   -1    0    0  501  502  0.00000000000E+00  0.00000000000E+00  0.21389694669E+02  0.21389694669E+02  0.00000000000E+00 0. -1.
          2   -1    0    0  502    0 -0.00000000000E+00 -0.00000000000E+00 -0.92212723788E+03  0.92212723788E+03  0.00000000000E+00 0. -1.
         24    2    1    2    0    0 -0.29797165946E+02  0.10663902909E+02 -0.64451117168E+03  0.65021524774E+03  0.79897609765E+02 0.  0.
         23    2    1    2    0    0  0.82630281343E+01  0.28749863696E+02 -0.19269688623E+03  0.21549963090E+03  0.91723326704E+02 0.  0.
        -11    1    3    3    0    0  0.28735672697E+01  0.30914000575E+02 -0.10925587889E+03  0.11358160015E+03  0.00000000000E+00 0.  1.
         12    1    3    3    0    0 -0.32670733216E+02 -0.20250097665E+02 -0.53525529279E+03  0.53663364759E+03  0.00000000000E+00 0. -1.
        -13    1    4    4    0    0  0.33759319990E+02 -0.38764860496E+00 -0.21607405104E+02  0.40083935847E+02  0.00000000000E+00 0.  1.
         13    1    4    4    0    0 -0.25496291856E+02  0.29137512301E+02 -0.17108948112E+03  0.17541569506E+03  0.00000000000E+00 0. -1.
          1    1    1    2  501    0  0.21534137812E+02 -0.39413766605E+02 -0.63529485306E+02  0.77802053910E+02  0.00000000000E+00 0. -1.
<scales pt_clust_5="13000.00000" pt_clust_6="13000.00000" pt_clust_7="13000.00000" pt_clust_8="13000.00000" pt_clust_9="44.91285"></scales>
<clustering>
<clus scale="   44.913">  1  9  2 -1</clus>
<clus scale="   79.898">  5  6 -1 -1</clus>
<clus scale="   83.911">  2  5  1 -1</clus>
<clus scale="   91.723">  7  8 -1 -1</clus>
<clus scale="   44.913">  1  5  2 -1</clus>
</clustering>
</event>
<event>
 9    2  0.6469128E-005  0.1127925E+03  0.7546771E-02  0.1260716E+00
         21   -1    0    0  501  502  0.00000000000E+00  0.00000000000E+00  0.17656835927E+03  0.17656835927E+03  0.00000000000E+00 0.  1.
          2   -1    0    0  502    0 -0.00000000000E+00 -0.00000000000E+00 -0.48258936442E+03  0.48258936442E+03  0.00000000000E+00 0. -1.
         23    2    1    2    0    0  0.18067347809E+02  0.62513685343E+02 -0.38951169431E+03  0.40543202818E+03  0.91768074851E+02 0.  0.
         24    2    1    2    0    0 -0.10808894645E+03 -0.40866014921E+02  0.80937559593E+02  0.16110265126E+03  0.77781258468E+02 0.  0.
        -13    1    4    4    0    0 -0.68369527394E+02 -0.28055770175E+01  0.81074668734E+02  0.10609130713E+03  0.00000000000E+00 0.  1.
         14    1    4    4    0    0 -0.39719419056E+02 -0.38060437904E+02 -0.13710914105E+00  0.55011344126E+02  0.00000000000E+00 0. -1.
        -13    1    3    3    0    0  0.51265763597E+02  0.31815457116E+02 -0.14982407552E+03  0.16151673422E+03  0.00000000000E+00 0.  1.
         13    1    3    3    0    0 -0.33198415788E+02  0.30698228227E+02 -0.23968761879E+03  0.24391529397E+03  0.00000000000E+00 0. -1.
          1    1    1    2  501    0  0.90021598641E+02 -0.21647670422E+02  0.25531295664E+01  0.92623044256E+02  0.00000000000E+00 0. -1.
<scales pt_clust_5="13000.00000" pt_clust_6="13000.00000" pt_clust_7="13000.00000" pt_clust_8="13000.00000" pt_clust_9="92.58785"></scales>
<clustering>
<clus scale="   77.781">  5  6 -1 -1</clus>
<clus scale="   91.768">  7  8 -1 -1</clus>
<clus scale="   92.588">  1  9  2 -1</clus>
<clus scale="  101.738">  1  5  2 -1</clus>
<clus scale="   92.588">  1  5  2 -1</clus>
</clustering>
</event>
<event>
 9    2  0.6469128E-005  0.1072667E+03  0.7546771E-02  0.1269763E+00
         -3   -1    0    0    0  501 -0.00000000000E+00  0.00000000000E+00  0.28549264794E+03  0.28549264794E+03  0.00000000000E+00 0.  1.
         21   -1    0    0  501  502  0.00000000000E+00 -0.00000000000E+00 -0.97533055041E+02  0.97533055041E+02  0.00000000000E+00 0. -1.
         23    2    1    2    0    0 -0.36339862962E+02 -0.15366436364E+02  0.27194622026E+02  0.10229097378E+03  0.90372467283E+02 0.  0.
         24    2    1    2    0    0  0.57503071708E+02  0.67044689985E+02  0.10029430166E+02  0.11998732943E+03  0.80590173364E+02 0.  0.
        -11    1    4    4    0    0 -0.15611720537E+02  0.19990615149E+02 -0.15052371973E+02  0.29494481080E+02  0.00000000000E+00 0.  1.
         12    1    4    4    0    0  0.73114792245E+02  0.47054074836E+02  0.25081802139E+02  0.90492848348E+02  0.00000000000E+00 0. -1.
        -13    1    3    3    0    0 -0.43266929315E+02  0.19817165972E+02 -0.12090132950E+02  0.49101105428E+02  0.00000000000E+00 0. -1.
         13    1    3    3    0    0  0.69270663536E+01 -0.35183602336E+02  0.39284754975E+02  0.53189868350E+02  0.00000000000E+00 0.  1.
         -4    1    1    2    0  502 -0.21163208746E+02 -0.51678253621E+02  0.15073554071E+03  0.16074739978E+03  0.00000000000E+00 0.  1.
<scales pt_clust_5="13000.00000" pt_clust_6="13000.00000" pt_clust_7="13000.00000" pt_clust_8="13000.00000" pt_clust_9="55.84377"></scales>
<clustering>
<clus scale="   55.844">  2  9  1 -1</clus>
<clus scale="   80.590">  5  6 -1 -1</clus>
<clus scale="   90.372">  7  8 -1 -1</clus>
<clus scale="   99.165">  2  5  1 -1</clus>
<clus scale="   55.844">  2  5  1 -1</clus>
</clustering>
</event>
<event>
 9    2  0.6469128E-005  0.1419881E+03  0.7546771E-02  0.1233741E+00
          2   -1    0    0  502    0 -0.00000000000E+00  0.00000000000E+00  0.48741146034E+03  0.48741146034E+03  0.00000000000E+00 0. -1.
         21   -1    0    0  501  502  0.00000000000E+00 -0.00000000000E+00 -0.91502188130E+02  0.91502188130E+02  0.00000000000E+00 0.  1.
         24    2    1    2    0    0  0.10410955481E+02 -0.31629634236E+02 -0.22552797758E+02  0.90497318090E+02  0.81069810280E+02 0.  0.
         23    2    1    2    0    0 -0.11144426825E+03 -0.33993505454E+01  0.24184707668E+03  0.28195176703E+03  0.92603509242E+02 0.  0.
        -13    1    3    3    0    0  0.29643831285E+02 -0.42884843377E+02  0.79351472211E+01  0.52733604904E+02  0.00000000000E+00 0.  1.
         14    1    3    3    0    0 -0.19232875805E+02  0.11255209141E+02 -0.30487944979E+02  0.37763713185E+02  0.00000000000E+00 0. -1.
        -11    1    4    4    0    0 -0.98837992038E+02 -0.31719385993E+02  0.13263453503E+03  0.16842502190E+03  0.00000000000E+00 0.  1.
         11    1    4    4    0    0 -0.12606276213E+02  0.28320035448E+02  0.10921254165E+03  0.11352674514E+03  0.00000000000E+00 0. -1.
          1    1    1    2  501    0  0.10103331277E+03  0.35028984781E+02  0.17661499329E+03  0.20646456335E+03  0.00000000000E+00 0. -1.
<scales pt_clust_5="13000.00000" pt_clust_6="13000.00000" pt_clust_7="13000.00000" pt_clust_8="13000.00000" pt_clust_9="107.63465"></scales>
<clustering>
<clus scale="   81.070">  5  6 -1 -1</clus>
<clus scale="   87.642">  1  5  2 -1</clus>
<clus scale="   92.604">  7  8 -1 -1</clus>
<clus scale="  107.635">  2  9  1 -1</clus>
<clus scale="  107.635">  2  5  1 -1</clus>
</clustering>
</event>
<event>
 9    2  0.6469128E-005  0.1573874E+03  0.7546771E-02  0.1219097E+00
         21   -1    0    0  501  502  0.00000000000E+00  0.00000000000E+00  0.27715315752E+02  0.27715315752E+02  0.00000000000E+00 0. -1.
          2   -1    0    0  502    0 -0.00000000000E+00 -0.00000000000E+00 -0.13275926209E+04  0.13275926209E+04  0.00000000000E+00 0. -1.
         24    2    1    2    0    0  0.25777034572E+02  0.17244718791E+02 -0.22172318781E+03  0.23826546640E+03  0.81531740001E+02 0.  0.
         23    2    1    2    0    0 -0.55342944101E+02 -0.13238171796E+03 -0.52119155765E+03  0.54753569727E+03  0.86988156120E+02 0.  0.
        -11    1    3    3    0    0 -0.24450573608E+02 -0.84877290087E+01 -0.11114048007E+03  0.11411432164E+03  0.00000000000E+00 0.  1.
         12    1    3    3    0    0  0.50227608180E+02  0.25732447800E+02 -0.11058270775E+03  0.12415114476E+03  0.00000000000E+00 0. -1.
        -13    1    4    4    0    0 -0.12523238418E+02 -0.11388880222E+03 -0.43135897375E+03  0.44631609315E+03  0.00000000000E+00 0.  1.
         13    1    4    4    0    0 -0.42819705683E+02 -0.18492915743E+02 -0.89832583901E+02  0.10121960412E+03  0.00000000000E+00 0. -1.
          1    1    1    2  501    0  0.29565909528E+02  0.11513699917E+03 -0.55696255971E+03  0.56950677301E+03  0.00000000000E+00 0. -1.
<scales pt_clust_5="13000.00000" pt_clust_6="13000.00000" pt_clust_7="13000.00000" pt_clust_8="13000.00000" pt_clust_9="131.16350"></scales>
<clustering>
<clus scale="   81.532">  5  6 -1 -1</clus>
<clus scale="   86.988">  7  8 -1 -1</clus>
<clus scale="   87.231">  2  5  1 -1</clus>
<clus scale="  131.164">  1  9  2 -1</clus>
<clus scale="  131.164">  1  5  2 -1</clus>
</clustering>
</event>
<event>
 9    2  0.6469128E-005  0.1807239E+03  0.7546771E-02  0.1168817E+00
         21   -1    0    0  501  502  0.00000000000E+00  0.00000000000E+00  0.32348742098E+02  0.32348742098E+02  0.00000000000E+00 0. -1.
          2   -1    0    0  502    0 -0.00000000000E+00 -0.00000000000E+00 -0.14077192571E+04  0.14077192571E+04  0.00000000000E+00 0. -1.
         24    2    1    2    0    0 -0.14724741610E+03  0.29542021648E+02 -0.62319183208E+03  0.64583643875E+03  0.78626417012E+02 0.  0.
         23    2    1    2    0    0  0.16437117620E+03  0.27067910267E+02 -0.63389423360E+03  0.66198512948E+03  0.93015358608E+02 0.  0.
        -13    1    3    3    0    0 -0.42405021597E+02 -0.21239010173E+02 -0.26400391119E+03  0.26823002541E+03  0.00000000000E+00 0.  1.
         14    1    3    3    0    0 -0.10484239450E+03  0.50781031821E+02 -0.35918792089E+03  0.37760641334E+03  0.00000000000E+00 0. -1.
        -11    1    4    4    0    0  0.33943636553E+02  0.14580598580E+02 -0.42777688015E+02  0.56521632225E+02  0.00000000000E+00 0.  1.
         11    1    4    4    0    0  0.13042753965E+03  0.12487311688E+02 -0.59111654558E+03  0.60546349726E+03  0.00000000000E+00 0. -1.
          1    1    1    2  501    0 -0.17123760100E+02 -0.56609931915E+02 -0.11828444932E+03  0.13224643096E+03  0.00000000000E+00 0. -1.
<scales pt_clust_5="13000.00000" pt_clust_6="13000.00000" pt_clust_7="13000.00000" pt_clust_8="13000.00000" pt_clust_9="59.14311"></scales>
<clustering>
<clus scale="   59.143">  1  9  2 -1</clus>
<clus scale="   78.626">  5  6 -1 -1</clus>
<clus scale="   93.015">  7  8 -1 -1</clus>
<clus scale="  173.757">  2  5  1 -1</clus>
<clus scale="   59.143">  1  5  2 -1</clus>
</clustering>
</event>
<event>
 9    2  0.6469128E-005  0.1038347E+03  0.7546771E-02  0.1277361E+00
         21   -1    0    0  501  502  0.00000000000E+00  0.00000000000E+00  0.29353395125E+02  0.29353395125E+02  0.00000000000E+00 0. -1.
          2   -1    0    0  502    0 -0.00000000000E+00 -0.00000000000E+00 -0.11747577434E+04  0.11747577434E+04  0.00000000000E+00 0. -1.
         24    2    1    2    0    0 -0.12690185873E+02 -0.48032587422E+02 -0.71289078199E+03  0.71900692168E+03  0.79306469524E+02 0.  0.
         23    2    1    2    0    0 -0.68019929696E+02  0.70676022306E+02 -0.22848749184E+03  0.26452886248E+03  0.90261698384E+02 0.  0.
        -13    1    3    3    0    0  0.10209422422E+02  0.17810275967E+02 -0.94796709015E+02  0.96994094028E+02  0.00000000000E+00 0.  1.
         14    1    3    3    0    0 -0.22899608295E+02 -0.65842863390E+02 -0.61809407297E+03  0.62201282765E+03  0.00000000000E+00 0. -1.
        -11    1    4    4    0    0 -0.77403489456E+02  0.18611624184E+02 -0.12293239195E+03  0.14645840954E+03  0.00000000000E+00 0. -1.
         11    1    4    4    0    0  0.93835597598E+01  0.52064398122E+02 -0.10555509988E+03  0.11807045294E+03  0.00000000000E+00 0.  1.
          1    1    1    2  501    0  0.80710115569E+02 -0.22643434884E+02 -0.20402607449E+03  0.22057535440E+03  0.00000000000E+00 0. -1.
<scales pt_clust_5="13000.00000" pt_clust_6="13000.00000" pt_clust_7="13000.00000" pt_clust_8="13000.00000" pt_clust_9="83.82630"></scales>
<clustering>
<clus scale="   79.306">  5  6 -1 -1</clus>
<clus scale="   83.826">  1  9  2 -1</clus>
<clus scale="   90.262">  7  8 -1 -1</clus>
<clus scale="   94.467">  2  5  1 -1</clus>
<clus scale="   83.826">  1  5  2 -1</clus>
</clustering>
</event>
<event>
 9    2  0.6469128E-005  0.1821603E+03  0.7546771E-02  0.1179605E+00
          2   -1    0    0  502    0 -0.00000000000E+00  0.00000000000E+00  0.27085382091E+03  0.27085382091E+03  0.00000000000E+00 0. -1.
         21   -1    0    0  501  502  0.00000000000E+00 -0.00000000000E+00 -0.31519514636E+03  0.31519514636E+03  0.00000000000E+00 0. -1.
         24    2    1    2    0    0  0.99834611641E+02 -0.32671635118E+02 -0.22122390196E+02  0.13464245714E+03  0.81269955673E+02 0.  0.
         23    2    1    2    0    0 -0.47232892551E+02 -0.15004509175E+03 -0.13929652823E+03  0.22811408772E+03  0.88814630215E+02 0.  0.
        -13    1    3    3    0    0  0.83287657321E+02 -0.70197816580E+01 -0.46437109009E+02  0.95616506366E+02  0.00000000000E+00 0.  1.
         14    1    3    3    0    0  0.16546954320E+02 -0.25651853460E+02  0.24314718813E+02  0.39025950779E+02  0.00000000000E+00 0. -1.
        -13    1    4    4    0    0 -0.69001471792E+02 -0.11365407202E+03 -0.12722717228E+03  0.18402501070E+03  0.00000000000E+00 0. -1.
         13    1    4    4    0    0  0.21768579241E+02 -0.36391019734E+02 -0.12069355953E+02  0.44089077021E+02  0.00000000000E+00 0.  1.
          1    1    1    2  501    0 -0.52601719090E+02  0.18271672687E+03  0.11707759297E+03  0.22329242241E+03  0.00000000000E+00 0. -1.
<scales pt_clust_5="13000.00000" pt_clust_6="13000.00000" pt_clust_7="13000.00000" pt_clust_8="13000.00000" pt_clust_9="159.04196"></scales>
<clustering>
<clus scale="   81.270">  5  6 -1 -1</clus>
<clus scale="   88.815">  7  8 -1 -1</clus>
<clus scale="  132.813">  1  5  2 -1</clus>
<clus scale="  159.042">  2  9  1 -1</clus>
<clus scale="  159.042">  2  5  1 -1</clus>
</clustering>
</event>
<event>
 9    2  0.6469128E-005  0.9946900E+02  0.7546771E-02  0.1287798E+00
          2   -1    0    0  502    0 -0.00000000000E+00  0.00000000000E+00  0.11937232386E+03  0.11937232386E+03  0.00000000000E+00 0. -1.
         21   -1    0    0  501  502  0.00000000000E+00 -0.00000000000E+00 -0.24359480087E+03  0.24359480087E+03  0.00000000000E+00 0. -1.
         24    2    1    2    0    0 -0.64399094135E+02  0.16437085236E+02  0.24136503277E+02  0.10811615869E+03  0.81786990921E+02 0.  0.
         23    2    1    2    0    0 -0.94056645477E+01 -0.50133217688E+01 -0.66813081720E+01  0.94694144286E+02  0.93854894185E+02 0.  0.
        -11    1    3    3    0    0 -0.80460848382E+01  0.37896306420E+02 -0.83364169093E+01  0.39627835777E+02  0.00000000000E+00 0.  1.
         12    1    3    3    0    0 -0.56353009297E+02 -0.21459221184E+02  0.32472920186E+02  0.68488322918E+02  0.00000000000E+00 0. -1.
        -13    1    4    4    0    0  0.23258830114E+02 -0.39138065058E+02 -0.12201592899E+02  0.47134278227E+02  0.00000000000E+00 0.  1.
         13    1    4    4    0    0 -0.32664494662E+02  0.34124743289E+02  0.55202847268E+01  0.47559866059E+02  0.00000000000E+00 0. -1.
          1    1    1    2  501    0  0.73804758683E+02 -0.11423763468E+02 -0.14167767211E+03  0.16015682175E+03  0.00000000000E+00 0. -1.
<scales pt_clust_5="13000.00000" pt_clust_6="13000.00000" pt_clust_7="13000.00000" pt_clust_8="13000.00000" pt_clust_9="74.68363"></scales>
<clustering>
<clus scale="   74.684">  2  9  1 -1</clus>
<clus scale="   81.787">  5  6 -1 -1</clus>
<clus scale="   88.173">  1  5  2 -1</clus>
<clus scale="   93.855">  7  8 -1 -1</clus>
<clus scale="   74.684">  2  5  1 -1</clus>
</clustering>
</event>
<event>
 9    2  0.6469128E-005  0.1068919E+03  0.7546771E-02  0.1269926E+00
         -1   -1    0    0    0  501 -0.00000000000E+00  0.00000000000E+00  0.36214445825E+03  0.36214445825E+03  0.00000000000E+00 0.  1.
         21   -1    0    0  501  502  0.00000000000E+00 -0.00000000000E+00 -0.10476159291E+03  0.10476159291E+03  0.00000000000E+00 0.  1.
         24    2    1    2    0    0  0.32456269171E+02 -0.46622346769E+02  0.23139210860E+03  0.25209297387E+03  0.82349905425E+02 0.  0.
         23    2    1    2    0    0 -0.56070024860E+02  0.26007404465E+02 -0.58722623383E+02  0.12448621487E+03  0.90709637971E+02 0.  0.
        -13    1    3    3    0    0 -0.18276824464E+02 -0.43591166928E+02  0.86904563251E+02  0.98927424208E+02  0.00000000000E+00 0.  1.
         14    1    3    3    0    0  0.50733093634E+02 -0.30311798403E+01  0.14448754535E+03  0.15316554966E+03  0.00000000000E+00 0. -1.
        -11    1    4    4    0    0 -0.98479859488E+01 -0.26133330617E+02  0.69039202640E+01  0.28768001519E+02  0.00000000000E+00 0. -1.
         11    1    4    4    0    0 -0.46222038911E+02  0.52140735082E+02 -0.65626543647E+02  0.95718213351E+02  0.00000000000E+00 0.  1.
         -2    1    1    2    0  502  0.23613755689E+02  0.20614942303E+02  0.84713380117E+02  0.90326862420E+02  0.00000000000E+00 0.  1.
<scales pt_clust_5="13000.00000" pt_clust_6="13000.00000" pt_clust_7="13000.00000" pt_clust_8="13000.00000" pt_clust_9="31.34623"></scales>
<clustering>
<clus scale="   31.346">  2  9  1 -1</clus>
<clus scale="   82.350">  5  6 -1 -1</clus>
<clus scale="   90.710">  7  8 -1 -1</clus>
<clus scale="   99.896">  1  5  2 -1</clus>
<clus scale="   31.346">  2  5  1 -1</clus>
</clustering>
</event>
<event>
 9    2  0.6469128E-005  0.1784078E+03  0.7546771E-02  0.1170610E+00
         21   -1    0    0  501  502  0.00000000000E+00  0.00000000000E+00  0.98776740054E+02  0.98776740054E+02  0.00000000000E+00 0. -1.
          2   -1    0    0  502    0 -0.00000000000E+00 -0.00000000000E+00 -0.12642273154E+04  0.12642273154E+04  0.00000000000E+00 0. -1.
         24    2    1    2    0    0  0.79962297120E+02  0.13791193025E+03 -0.11220112027E+04  0.11361344041E+04  0.80489600226E+02 0.  0.
         23    2    1    2    0    0 -0.62823625068E+02 -0.98915244142E+02 -0.81970006731E+02  0.16943198619E+03  0.90868490410E+02 0.  0.
        -13    1    3    3    0    0  0.42991647407E+01  0.75408476824E+02 -0.36067537554E+03  0.36849918279E+03  0.00000000000E+00 0.  1.
         14    1    3    3    0    0  0.75663132379E+02  0.62503453426E+02 -0.76133582719E+03  0.76763522135E+03  0.00000000000E+00 0. -1.
        -13    1    4    4    0    0 -0.24358031229E+02 -0.88078593717E+02 -0.90451158425E+02  0.12857902013E+03  0.00000000000E+00 0. -1.
         13    1    4    4    0    0 -0.38465593839E+02 -0.10836650425E+02  0.84811516936E+01  0.40852966060E+02  0.00000000000E+00 0.  1.
          1    1    1    2  501    0 -0.17138672052E+02 -0.38996686108E+02  0.38530634132E+02  0.57437665114E+02  0.00000000000E+00 0. -1.
<scales pt_clust_5="13000.00000" pt_clust_6="13000.00000" pt_clust_7="13000.00000" pt_clust_8="13000.00000" pt_clust_9="42.59666"></scales>
<clustering>
<clus scale="   42.597">  1  9  2 -1</clus>
<clus scale="   80.490">  5  6 -1 -1</clus>
<clus scale="   90.868">  7  8 -1 -1</clus>
<clus scale="  173.352">  2  5  1 -1</clus>
<clus scale="   42.597">  1  5  2 -1</clus>
</clustering>
</event>
<event>
 9    2  0.6469128E-005  0.1384505E+03  0.7546771E-02  0.1216461E+00
          2   -1    0    0  502    0 -0.00000000000E+00  0.00000000000E+00  0.60005833610E+03  0.60005833610E+03  0.00000000000E+00 0. -1.
         21   -1    0    0  501  502  0.00000000000E+00 -0.00000000000E+00 -0.60499854810E+02  0.60499854810E+02  0.00000000000E+00 0.  1.
         24    2    1    2    0    0  0.53798473737E+02  0.96626013608E+02  0.44227177254E+03  0.46308961751E+03  0.81343781421E+02 0.  0.
         23    2    1    2    0    0 -0.69958187518E+02 -0.72878304858E+02  0.49553776989E+02  0.14175930313E+03  0.86224868159E+02 0.  0.
        -11    1    3    3    0    0  0.65331289972E+02  0.51549776097E+02  0.34991188449E+03  0.35967191129E+03  0.00000000000E+00 0.  1.
         12    1    3    3    0    0 -0.11532816234E+02  0.45076237510E+02  0.92359888050E+02  0.10341770622E+03  0.00000000000E+00 0. -1.
        -13    1    4    4    0    0 -0.90470143798E+02 -0.57835917796E+02  0.39715862663E+02  0.11448663701E+03  0.00000000000E+00 0.  1.
         13    1    4    4    0    0  0.20511956279E+02 -0.15042387062E+02  0.98379143255E+01  0.27272666119E+02  0.00000000000E+00 0. -1.
          1    1    1    2  501    0  0.16159713781E+02 -0.23747708750E+02  0.47732931762E+02  0.55709270279E+02  0.00000000000E+00 0. -1.
<scales pt_clust_5="13000.00000" pt_clust_6="13000.00000" pt_clust_7="13000.00000" pt_clust_8="13000.00000" pt_clust_9="28.72439"></scales>
<clustering>
<clus scale="   28.724">  2  9  1 -1</clus>
<clus scale="   81.344">  5  6 -1 -1</clus>
<clus scale="   86.225">  7  8 -1 -1</clus>
<clus scale="  135.464">  1  5  2 -1</clus>
<clus scale="   28.724">  2  5  1 -1</clus>
</clustering>
</event>
<event>
 9    2  0.6469128E-005  0.1143585E+03  0.7546771E-02  0.1256595E+00
         -3   -1    0    0    0  501 -0.00000000000E+00  0.00000000000E+00  0.19147880683E+03  0.19147880683E+03  0.00000000000E+00 0.  1.
         21   -1    0    0  501  502  0.00000000000E+00 -0.00000000000E+00 -0.12149285041E+03  0.12149285041E+03  0.00000000000E+00 0.  1.
         23    2    1    2    0    0 -0.11324941954E+02 -0.83599347653E+02  0.14166912002E+02  0.12472664586E+03  0.90768549362E+02 0.  0.
         24    2    1    2    0    0  0.33165945223E+02  0.46853723460E+02 -0.20820278461E+02  0.10049048938E+03  0.79809793481E+02 0.  0.
        -11    1    4    4    0    0  0.56961083471E+02  0.46362508611E+02 -0.21978078792E+02  0.76662136562E+02  0.00000000000E+00 0.  1.
         12    1    4    4    0    0 -0.23795138248E+02  0.49121484893E+00  0.11578003308E+01  0.23828352815E+02  0.00000000000E+00 0. -1.
        -13    1    3    3    0    0 -0.83872001208E+01 -0.36549081425E+02 -0.38704366735E+02  0.53890708691E+02  0.00000000000E+00 0. -1.
         13    1    3    3    0    0 -0.29377418337E+01 -0.47050266228E+02  0.52871278737E+02  0.70835937168E+02  0.00000000000E+00 0.  1.
         -4    1    1    2    0  502 -0.21841003268E+02  0.36745624193E+02  0.76639322880E+02  0.87754522007E+02  0.00000000000E+00 0.  1.
<scales pt_clust_5="13000.00000" pt_clust_6="13000.00000" pt_clust_7="13000.00000" pt_clust_8="13000.00000" pt_clust_9="42.74660"></scales>
<clustering>
<clus scale="   42.747">  2  9  1 -1</clus>
<clus scale="   79.810">  5  6 -1 -1</clus>
<clus scale="   90.769">  7  8 -1 -1</clus>
<clus scale="  105.870">  2  5  1 -1</clus>
<clus scale="   42.747">  2  5  1 -1</clus>
</clustering>
</event>
<event>
 9    2  0.6469128E-005  0.1043623E+03  0.7546771E-02  0.1271423E+00
         21   -1    0    0  501  502  0.00000000000E+00  0.00000000000E+00  0.18428184570E+03  0.18428184570E+03  0.00000000000E+00 0.  1.
         -3   -1    0    0    0  501 -0.00000000000E+00 -0.00000000000E+00 -0.27509513688E+03  0.27509513688E+03  0.00000000000E+00 0.  1.
         24    2    1    2    0    0 -0.52341879128E+02 -0.32202860964E+02 -0.20512264514E+03  0.23100712217E+03  0.86673492953E+02 0.  0.
         23    2    1    2    0    0  0.59851133654E+02 -0.25381687074E+02  0.98742290963E+01  0.10887482126E+03  0.86774639532E+02 0.  0.
        -11    1    3    3    0    0 -0.53728116779E+02  0.48669751125E+01 -0.57711557621E+02  0.79000138369E+02  0.00000000000E+00 0.  1.
         12    1    3    3    0    0  0.13862376507E+01 -0.37069836076E+02 -0.14741108752E+03  0.15200698380E+03  0.00000000000E+00 0. -1.
        -11    1    4    4    0    0  0.44332256209E+02 -0.41443341928E+02 -0.26476580789E+02  0.66211093187E+02  0.00000000000E+00 0.  1.
         11    1    4    4    0    0  0.15518877445E+02  0.16061654854E+02  0.36350809886E+02  0.42663728074E+02  0.00000000000E+00 0. -1.
         -4    1    1    2    0  502 -0.75092545258E+01  0.57584548038E+02  0.10443512486E+03  0.11949503915E+03  0.00000000000E+00 0.  1.
<scales pt_clust_5="13000.00000" pt_clust_6="13000.00000" pt_clust_7="13000.00000" pt_clust_8="13000.00000" pt_clust_9="58.07210"></scales>
<clustering>
<clus scale="   58.072">  1  9  2 -1</clus>
<clus scale="   86.673">  5  6 -1 -1</clus>
<clus scale="   86.775">  7  8 -1 -1</clus>
<clus scale="  104.278">  2  5  1 -1</clus>
<clus scale="   58.072">  1  5  2 -1</clus>
</clustering>
</event>
<event>
 9    2  0.6469128E-005  0.9838690E+02  0.7546771E-02  0.1285239E+00
          4   -1    0    0  502    0 -0.00000000000E+00  0.00000000000E+00  0.57624997629E+02  0.57624997629E+02  0.00000000000E+00 0. -1.
         21   -1    0    0  501  502  0.00000000000E+00 -0.00000000000E+00 -0.33840101589E+03  0.33840101589E+03  0.00000000000E+00 0. -1.
         24    2    1    2    0    0  0.21528441556E+02 -0.34173441572E+02 -0.84606844415E+01  0.96850770498E+02  0.87619579205E+02 0.  0.
         23    2    1    2    0    0 -0.30248041007E+02  0.13100666717E+02 -0.24668013717E+03  0.26486407047E+03  0.90638370998E+02 0.  0.
        -11    1    3    3    0    0  0.11555136435E+02  0.26596064330E+02 -0.18583996738E+02  0.34441787855E+02  0.00000000000E+00 0.  1.
         12    1    3    3    0    0  0.99733051212E+01 -0.60769505902E+02  0.10123312297E+02  0.62408982643E+02  0.00000000000E+00 0. -1.
        -11    1    4    4    0    0  0.50492751491E+01 -0.29366067777E+02 -0.34359879920E+02  0.45480352509E+02  0.00000000000E+00 0.  1.
         11    1    4    4    0    0 -0.35297316156E+02  0.42466734495E+02 -0.21232025725E+03  0.21938371796E+03  0.00000000000E+00 0. -1.
          3    1    1    2  501    0  0.87195994512E+01  0.21072774855E+02 -0.25635196648E+02  0.34311172552E+02  0.00000000000E+00 0. -1.
<scales pt_clust_5="13000.00000" pt_clust_6="13000.00000" pt_clust_7="13000.00000" pt_clust_8="13000.00000" pt_clust_9="22.80555"></scales>
<clustering>
<clus scale="   22.806">  2  9  1 -1</clus>
<clus scale="   87.620">  5  6 -1 -1</clus>
<clus scale="   90.638">  7  8 -1 -1</clus>
<clus scale="   95.613">  1  5  2 -1</clus>
<clus scale="   22.806">  2  5  1 -1</clus>
</clustering>
</event>
<event>
 9    2  0.6469128E-005  0.2351994E+03  0.7546771E-02  0.1166635E+00
          2   -1    0    0  502    0 -0.00000000000E+00  0.00000000000E+00  0.25121813211E+03  0.25121813211E+03  0.00000000000E+00 0. -1.
         21   -1    0    0  501  502  0.00000000000E+00 -0.00000000000E+00 -0.44121749871E+03  0.44121749871E+03  0.00000000000E+00 0. -1.
         24    2    1    2    0    0  0.21536720682E+02  0.21515295520E+02  0.48276152506E+02  0.95913032707E+02  0.77084269882E+02 0.  0.
         23    2    1    2    0    0  0.29809852351E+02  0.19465687426E+03  0.59535551075E+02  0.22496060991E+03  0.91010264138E+02 0.  0.
        -11    1    3    3    0    0  0.62590659487E+01  0.28197107044E+02 -0.13531176145E+02  0.31895853650E+02  0.00000000000E+00 0.  1.
         12    1    3    3    0    0  0.15277654733E+02 -0.66818115245E+01  0.61807328651E+02  0.64017179057E+02  0.00000000000E+00 0. -1.
        -11    1    4    4    0    0  0.48099858215E+01  0.12936422942E+03 -0.53662112519E+01  0.12956479476E+03  0.00000000000E+00 0.  1.
         11    1    4    4    0    0  0.24999866530E+02  0.65292644833E+02  0.64901762327E+02  0.95395815154E+02  0.00000000000E+00 0. -1.
          1    1    1    2  501    0 -0.51346573033E+02 -0.21617216978E+03 -0.29781107018E+03  0.37156198819E+03  0.00000000000E+00 0. -1.
<scales pt_clust_5="13000.00000" pt_clust_6="13000.00000" pt_clust_7="13000.00000" pt_clust_8="13000.00000" pt_clust_9="216.87756"></scales>
<clustering>
<clus scale="   77.084">  5  6 -1 -1</clus>
<clus scale="   82.878">  1  5  2 -1</clus>
<clus scale="   91.010">  7  8 -1 -1</clus>
<clus scale="  216.878">  2  9  1 -1</clus>
<clus scale="  216.878">  2  5  1 -1</clus>
</clustering>
</event>
<event>
 9    2  0.6469128E-005  0.1117051E+03  0.7546771E-02  0.1263528E+00
         -3   -1    0    0    0  501 -0.00000000000E+00  0.00000000000E+00  0.35113815989E+03  0.35113815989E+03  0.00000000000E+00 0.  1.
         21   -1    0    0  501  502  0.00000000000E+00 -0.00000000000E+00 -0.46542768002E+02  0.46542768002E+02  0.00000000000E+00 0. -1.
         23    2    1    2    0    0 -0.75706153566E+02  0.32861275177E+02  0.17620850151E+03  0.21577267691E+03  0.93258388383E+02 0.  0.
         24    2    1    2    0    0  0.39867244831E+02 -0.14880518431E+02  0.92271742872E+02  0.12794494056E+03  0.77749638211E+02 0.  0.
        -13    1    4    4    0    0  0.29317340350E+02  0.21789628727E+02  0.10978916031E+02  0.38142246426E+02  0.00000000000E+00 0.  1.
         14    1    4    4    0    0  0.10549904482E+02 -0.36670147157E+02  0.81292826841E+02  0.89802694130E+02  0.00000000000E+00 0. -1.
        -13    1    3    3    0    0  0.84979276854E+01 -0.22239479893E+02  0.30481152991E+02  0.38676994823E+02  0.00000000000E+00 0.  1.
         13    1    3    3    0    0 -0.84204081251E+02  0.55100755070E+02  0.14572734852E+03  0.17709568209E+03  0.00000000000E+00 0. -1.
         -4    1    1    2    0  502  0.35838908735E+02 -0.17980756746E+02  0.36115147507E+02  0.53963310424E+02  0.00000000000E+00 0.  1.
<scales pt_clust_5="13000.00000" pt_clust_6="13000.00000" pt_clust_7="13000.00000" pt_clust_8="13000.00000" pt_clust_9="40.09657"></scales>
<clustering>
<clus scale="   40.097">  2  9  1 -1</clus>
<clus scale="   77.750">  5  6 -1 -1</clus>
<clus scale="   93.258">  7  8 -1 -1</clus>
<clus scale="   99.126">  2  5  1 -1</clus>
<clus scale="   40.097">  2  5  1 -1</clus>
</clustering>
</event>
<event>
 9    2  0.6469128E-005  0.1056743E+03  0.7546771E-02  0.1272660E+00
         21   -1    0    0  501  502  0.00000000000E+00  0.00000000000E+00  0.86403210196E+02  0.86403210196E+02  0.00000000000E+00 0. -1.
          2   -1    0    0  502    0 -0.00000000000E+00 -0.00000000000E+00 -0.48978553157E+03  0.48978553157E+03  0.00000000000E+00 0. -1.
         24    2    1    2    0    0  0.52105839799E+02  0.24029574930E+02 -0.41384659149E+03  0.42566632203E+03  0.81427129427E+02 0.  0.
         23    2    1    2    0    0 -0.39763172903E+02 -0.36472467811E+01 -0.30218663508E+02  0.10337497214E+03  0.90436745369E+02 0.  0.
        -13    1    3    3    0    0  0.64142835773E+01  0.47458162250E+02 -0.21822203231E+03  0.22341502989E+03  0.00000000000E+00 0.  1.
         14    1    3    3    0    0  0.45691556222E+02 -0.23428587320E+02 -0.19562455918E+03  0.20225129213E+03  0.00000000000E+00 0. -1.
        -13    1    4    4    0    0  0.39170636611E+01 -0.35416561110E+02  0.88493241028E+01  0.36714938726E+02  0.00000000000E+00 0.  1.
         13    1    4    4    0    0 -0.43680236564E+02  0.31769314329E+02 -0.39067987611E+02  0.66660033417E+02  0.00000000000E+00 0. -1.
          1    1    1    2  501    0 -0.12342666896E+02 -0.20382328149E+02  0.40682933623E+02  0.47147447598E+02  0.00000000000E+00 0. -1.
<scales pt_clust_5="13000.00000" pt_clust_6="13000.00000" pt_clust_7="13000.00000" pt_clust_8="13000.00000" pt_clust_9="23.82815"></scales>
<clustering>
<clus scale="   23.828">  1  9  2 -1</clus>
<clus scale="   81.427">  5  6 -1 -1</clus>
<clus scale="   90.437">  7  8 -1 -1</clus>
<clus scale="   98.075">  2  5  1 -1</clus>
<clus scale="   23.828">  1  5  2 -1</clus>
</clustering>
</event>
<event>
 9    2  0.6469128E-005  0.9517467E+02  0.7546771E-02  0.1298633E+00
         -3   -1    0    0    0  501 -0.00000000000E+00  0.00000000000E+00  0.17243568101E+03  0.17243568101E+03  0.00000000000E+00 0.  1.
         21   -1    0    0  501  502  0.00000000000E+00 -0.00000000000E+00 -0.64947512981E+02  0.64947512981E+02  0.00000000000E+00 0. -1.
         24    2    1    2    0    0  0.27893106851E+02 -0.33981063633E+02  0.53866837834E+02  0.10339293117E+03  0.76522701881E+02 0.  0.
         23    2    1    2    0    0 -0.10738173017E+02  0.77707806774E+01  0.36294233657E+02  0.98192232678E+02  0.90270425775E+02 0.  0.
        -13    1    3    3    0    0  0.21039902034E+02  0.12819454571E+02 -0.76464050248E+01  0.25796964994E+02  0.00000000000E+00 0.  1.
         14    1    3    3    0    0  0.68532048165E+01 -0.46800518204E+02  0.61513242859E+02  0.77595966180E+02  0.00000000000E+00 0. -1.
        -11    1    4    4    0    0  0.98644700355E+01 -0.26007717527E+02  0.49247559810E+02  0.56559979555E+02  0.00000000000E+00 0.  1.
         11    1    4    4    0    0 -0.20602643052E+02  0.33778498204E+02 -0.12953326153E+02  0.41632253123E+02  0.00000000000E+00 0. -1.
         -4    1    1    2    0  502 -0.17154933834E+02  0.26210282955E+02  0.17327096541E+02  0.35798030141E+02  0.00000000000E+00 0.  1.
<scales pt_clust_5="13000.00000" pt_clust_6="13000.00000" pt_clust_7="13000.00000" pt_clust_8="13000.00000" pt_clust_9="31.32526"></scales>
<clustering>
<clus scale="   31.325">  2  9  1 -1</clus>
<clus scale="   76.523">  5  6 -1 -1</clus>
<clus scale="   82.251">  1  5  2 -1</clus>
<clus scale="   90.270">  7  8 -1 -1</clus>
<clus scale="   31.325">  2  5  1 -1</clus>
</clustering>
</event>
<event>
 9    2  0.6469128E-005  0.1788362E+03  0.7546771E-02  0.1170271E+00
          2   -1    0    0  502    0 -0.00000000000E+00  0.00000000000E+00  0.62305810026E+03  0.62305810026E+03  0.00000000000E+00 0. -1.
         21   -1    0    0  501  502  0.00000000000E+00 -0.00000000000E+00 -0.19500976237E+03  0.19500976237E+03  0.00000000000E+00 0. -1.
         23    2    1    2    0    0  0.16091182887E+03  0.23068939830E+02  0.54743486470E+03  0.57855577840E+03  0.92828147526E+02 0.  0.
         24    2    1    2    0    0 -0.10019560615E+03  0.98977497016E+00 -0.37512511957E+02  0.13478082927E+03  0.81966726414E+02 0.  0.
        -11    1    4    4    0    0 -0.41631117658E+02 -0.14736626598E+02 -0.56062701149E+02  0.71367671820E+02  0.00000000000E+00 0.  1.
         12    1    4    4    0    0 -0.58564488494E+02  0.15726401568E+02  0.18550189192E+02  0.63413157451E+02  0.00000000000E+00 0. -1.
        -13    1    3    3    0    0  0.96894422247E+02 -0.29815261061E+02  0.25070089952E+03  0.27042266894E+03  0.00000000000E+00 0. -1.
         13    1    3    3    0    0  0.64017406622E+02  0.52884200891E+02  0.29673396518E+03  0.30813310946E+03  0.00000000000E+00 0.  1.
          1    1    1    2  501    0 -0.60716222716E+02 -0.24058714800E+02 -0.81874014850E+02  0.10473125496E+03  0.00000000000E+00 0. -1.
<scales pt_clust_5="13000.00000" pt_clust_6="13000.00000" pt_clust_7="13000.00000" pt_clust_8="13000.00000" pt_clust_9="65.30912"></scales>
<clustering>
<clus scale="   65.309">  2  9  1 -1</clus>
<clus scale="   81.967">  5  6 -1 -1</clus>
<clus scale="   92.828">  7  8 -1 -1</clus>
<clus scale="  173.447">  2  5  1 -1</clus>
<clus scale="   65.309">  2  5  1 -1</clus>
</clustering>
</event>
<event>
 9    2  0.6469128E-005  0.2717813E+03  0.7546771E-02  0.1100770E+00
          2   -1    0    0  502    0 -0.00000000000E+00  0.00000000000E+00  0.54192009382E+03  0.54192009382E+03  0.00000000000E+00 0. -1.
         21   -1    0    0  501  502  0.00000000000E+00 -0.00000000000E+00 -0.23675356910E+03  0.23675356910E+03  0.00000000000E+00 0. -1.
         23    2    1    2    0    0  0.10524191226E+03  0.22950775432E+03  0.36313688652E+03  0.45130756195E+03  0.89779996243E+02 0.  0.
         24    2    1    2    0    0 -0.93832462363E+02 -0.25742729339E+03 -0.72224592849E+02  0.29400655495E+03  0.78422701855E+02 0.  0.
        -13    1    4    4    0    0 -0.26915717504E+02 -0.35242313520E+02  0.13936447724E+02  0.46483342029E+02  0.00000000000E+00 0.  1.
         14    1    4    4    0    0 -0.66916744859E+02 -0.22218497987E+03 -0.86161040573E+02  0.24752321292E+03  0.00000000000E+00 0. -1.
        -11    1    3    3    0    0  0.11707497100E+03  0.19412217632E+03  0.28061044735E+03  0.36073839737E+03  0.00000000000E+00 0. -1.
         11    1    3    3    0    0 -0.11833058738E+02  0.35385578001E+02  0.82526439172E+02  0.90569164576E+02  0.00000000000E+00 0.  1.
          1    1    1    2  501    0 -0.11409449902E+02  0.27919539063E+02  0.14254231045E+02  0.33359546028E+02  0.00000000000E+00 0. -1.
<scales pt_clust_5="13000.00000" pt_clust_6="13000.00000" pt_clust_7="13000.00000" pt_clust_8="13000.00000" pt_clust_9="30.16085"></scales>
<clustering>
<clus scale="   30.161">  2  9  1 -1</clus>
<clus scale="   78.423">  5  6 -1 -1</clus>
<clus scale="   89.780">  7  8 -1 -1</clus>
<clus scale="  268.244">  2  5  1 -1</clus>
<clus scale="   30.161">  2  5  1 -1</clus>
</clustering>
</event>
<event>
 9    2  0.6469128E-005  0.8923260E+02  0.7546771E-02  0.1311758E+00
          2   -1    0    0  502    0 -0.00000000000E+00  0.00000000000E+00  0.40071438673E+03  0.40071438673E+03  0.00000000000E+00 0. -1.
         21   -1    0    0  501  502  0.00000000000E+00 -0.00000000000E+00 -0.12221717264E+03  0.12221717264E+03  0.00000000000E+00 0. -1.
         24    2    1    2    0    0  0.70318128958E+01  0.61912267409E+01  0.34338753711E+03  0.35223079711E+03  0.77870123339E+02 0.  0.
         23    2    1    2    0    0  0.18716209057E+02 -0.47783631053E+02 -0.65822220280E+02  0.12177472457E+03  0.88673259688E+02 0.  0.
        -11    1    3    3    0    0 -0.24679956778E+02  0.51205336728E+01  0.40617872617E+02  0.47803051237E+02  0.00000000000E+00 0.  1.
         12    1    3    3    0    0  0.31711769674E+02  0.10706930682E+01  0.30276966450E+03  0.30442774588E+03  0.00000000000E+00 0. -1.
        -13    1    4    4    0    0  0.36450704719E+02 -0.37751448685E+02  0.41076033314E+00  0.52478514427E+02  0.00000000000E+00 0. -1.
         13    1    4    4    0    0 -0.17734495662E+02 -0.10032182368E+02 -0.66232980614E+02  0.69296210145E+02  0.00000000000E+00 0.  1.
          1    1    1    2  501    0 -0.25748021953E+02  0.41592404312E+02  0.93189726276E+00  0.48926037684E+02  0.00000000000E+00 0. -1.
<scales pt_clust_5="13000.00000" pt_clust_6="13000.00000" pt_clust_7="13000.00000" pt_clust_8="13000.00000" pt_clust_9="48.91716"></scales>
<clustering>
<clus scale="   48.917">  2  9  1 -1</clus>
<clus scale="   77.870">  5  6 -1 -1</clus>
<clus scale="   78.506">  1  5  2 -1</clus>
<clus scale="   88.673">  7  8 -1 -1</clus>
<clus scale="   48.917">  2  5  1 -1</clus>
</clustering>
</event>
<event>
 9    2  0.6469128E-005  0.9410235E+02  0.7546771E-02  0.1299209E+00
         21   -1    0    0  501  502  0.00000000000E+00  0.00000000000E+00  0.30471050564E+02  0.30471050564E+02  0.00000000000E+00 0.  1.
          2   -1    0    0  502    0 -0.00000000000E+00 -0.00000000000E+00 -0.56257925504E+03  0.56257925504E+03  0.00000000000E+00 0. -1.
         24    2    1    2    0    0  0.61587433685E+01  0.18366826114E+02 -0.33851955543E+03  0.34854392357E+03  0.80697625915E+02 0.  0.
         23    2    1    2    0    0 -0.68469633427E+01 -0.45957927631E+02 -0.86333333080E+02  0.13375691101E+03  0.90986014432E+02 0.  0.
        -11    1    3    3    0    0 -0.29394912320E+02  0.32822611212E+02 -0.20073457065E+03  0.20551338772E+03  0.00000000000E+00 0.  1.
         12    1    3    3    0    0  0.35553655689E+02 -0.14455785098E+02 -0.13778498478E+03  0.14303053586E+03  0.00000000000E+00 0. -1.
        -13    1    4    4    0    0  0.25319840613E+02  0.17325835899E+02 -0.32252956844E+02  0.44514403775E+02  0.00000000000E+00 0. -1.
         13    1    4    4    0    0 -0.32166803955E+02 -0.63283763530E+02 -0.54080376236E+02  0.89242507232E+02  0.00000000000E+00 0.  1.
          1    1    1    2  501    0  0.68821997414E+00  0.27591101517E+02 -0.10725531596E+03  0.11074947102E+03  0.00000000000E+00 0. -1.
<scales pt_clust_5="13000.00000" pt_clust_6="13000.00000" pt_clust_7="13000.00000" pt_clust_8="13000.00000" pt_clust_9="27.59970"></scales>
<clustering>
<clus scale="   27.600">  1  9  2 -1</clus>
<clus scale="   80.698">  5  6 -1 -1</clus>
<clus scale="   84.196">  2  5  1 -1</clus>
<clus scale="   90.986">  7  8 -1 -1</clus>
<clus scale="   27.600">  1  5  2 -1</clus>
</clustering>
</event>
<event>
 9    2  0.6469128E-005  0.1660482E+03  0.7546771E-02  0.1205087E+00
          2   -1    0    0  502    0 -0.00000000000E+00  0.00000000000E+00  0.35727052527E+03  0.35727052527E+03  0.00000000000E+00 0. -1.
         21   -1    0    0  501  502  0.00000000000E+00 -0.00000000000E+00 -0.12567352781E+03  0.12567352781E+03  0.00000000000E+00 0.  1.
         23    2    1    2    0    0  0.44018709344E+02  0.33902566308E+01  0.79167527429E+02  0.12760586369E+03  0.89814355406E+02 0.  0.
         24    2    1    2    0    0 -0.13066939185E+03  0.90214764972E+02  0.34901674528E+02  0.18189360584E+03  0.81571828309E+02 0.  0.
        -13    1    4    4    0    0 -0.12427066445E+03  0.10208162114E+03  0.42599394589E+02  0.16636875860E+03  0.00000000000E+00 0.  1.
         14    1    4    4    0    0 -0.63987273964E+01 -0.11866856168E+02 -0.76977200605E+01  0.15524847237E+02  0.00000000000E+00 0. -1.
        -11    1    3    3    0    0 -0.14962025769E+02 -0.27921294706E+02  0.15204389588E+02  0.35137364385E+02  0.00000000000E+00 0.  1.
         11    1    3    3    0    0  0.58980735114E+02  0.31311551337E+02  0.63963137840E+02  0.92468499307E+02  0.00000000000E+00 0. -1.
          1    1    1    2  501    0  0.86650682505E+02 -0.93605021603E+02  0.11752779550E+03  0.17344458355E+03  0.00000000000E+00 0. -1.
<scales pt_clust_5="13000.00000" pt_clust_6="13000.00000" pt_clust_7="13000.00000" pt_clust_8="13000.00000" pt_clust_9="144.63079"></scales>
<clustering>
<clus scale="   81.572">  5  6 -1 -1</clus>
<clus scale="   89.814">  7  8 -1 -1</clus>
<clus scale="  100.079">  1  7  2 -1</clus>
<clus scale="  144.631">  2  9  1 -1</clus>
<clus scale="  144.631">  2  5  1 -1</clus>
</clustering>
</event>
<event>
 9    2  0.6469128E-005  0.9329663E+02  0.7546771E-02  0.1304902E+00
          2   -1    0    0  502    0 -0.00000000000E+00  0.00000000000E+00  0.43073884569E+03  0.43073884569E+03  0.00000000000E+00 0. -1.
         21   -1    0    0  501  502  0.00000000000E+00 -0.00000000000E+00 -0.32025660839E+02  0.32025660839E+02  0.00000000000E+00 0. -1.
         23    2    1    2    0    0  0.16804255129E+01  0.29470513297E+02  0.28755128472E+03  0.30284448891E+03  0.90320031738E+02 0.  0.
         24    2    1    2    0    0 -0.22006548986E+02 -0.79012403302E+01  0.10316749674E+03  0.12922318851E+03  0.74218476599E+02 0.  0.
        -13    1    4    4    0    0 -0.26164857266E+02 -0.19415639543E+02  0.11032950225E+03  0.11503984476E+03  0.00000000000E+00 0.  1.
         14    1    4    4    0    0  0.41583082804E+01  0.11514399213E+02 -0.71620055154E+01  0.14183343752E+02  0.00000000000E+00 0. -1.
        -13    1    3    3    0    0  0.26083568228E+02 -0.24197320978E+02  0.93748458958E+02  0.10027281003E+03  0.00000000000E+00 0.  1.
         13    1    3    3    0    0 -0.24403142715E+02  0.53667834275E+02  0.19380282577E+03  0.20257167888E+03  0.00000000000E+00 0. -1.
          1    1    1    2  501    0  0.20326123473E+02 -0.21569272967E+02  0.79944033900E+01  0.30696829109E+02  0.00000000000E+00 0. -1.
<scales pt_clust_5="13000.00000" pt_clust_6="13000.00000" pt_clust_7="13000.00000" pt_clust_8="13000.00000" pt_clust_9="29.63756"></scales>
<clustering>
<clus scale="   29.638">  2  9  1 -1</clus>
<clus scale="   74.218">  5  6 -1 -1</clus>
<clus scale="   77.813">  2  5  1 -1</clus>
<clus scale="   90.320">  7  8 -1 -1</clus>
<clus scale="   29.638">  2  5  1 -1</clus>
</clustering>
</event>
<event>
 9    2  0.6469128E-005  0.1548785E+03  0.7546771E-02  0.1196742E+00
         21   -1    0    0  501  502  0.00000000000E+00  0.00000000000E+00  0.15924084815E+03  0.15924084815E+03  0.00000000000E+00 0.  1.
          2   -1    0    0  502    0 -0.00000000000E+00 -0.00000000000E+00 -0.12249881410E+04  0.12249881410E+04  0.00000000000E+00 0. -1.
         24    2    1    2    0    0  0.96689686328E+02  0.77823125520E+02 -0.11254718972E+04  0.11351814038E+04  0.80898046196E+02 0.  0.
         23    2    1    2    0    0 -0.76481886304E+02 -0.93185899456E+02 -0.30424909605E+02  0.15539234053E+03  0.93209514437E+02 0.  0.
        -11    1    3    3    0    0  0.84103506999E+02  0.38685092475E+02 -0.50970166577E+03  0.51804027291E+03  0.00000000000E+00 0.  1.
         12    1    3    3    0    0  0.12586179329E+02  0.39138033046E+02 -0.61577023145E+03  0.61714113093E+03  0.00000000000E+00 0. -1.
        -13    1    4    4    0    0  0.11169544403E+02 -0.34222778663E+02 -0.34244084911E+02  0.49685155258E+02  0.00000000000E+00 0. -1.
         13    1    4    4    0    0 -0.87651430708E+02 -0.58963120793E+02  0.38191753056E+01  0.10570718527E+03  0.00000000000E+00 0.  1.
          1    1    1    2  501    0 -0.20207800024E+02  0.15362773936E+02  0.90149513972E+02  0.93655244777E+02  0.00000000000E+00 0. -1.
<scales pt_clust_5="13000.00000" pt_clust_6="13000.00000" pt_clust_7="13000.00000" pt_clust_8="13000.00000" pt_clust_9="25.38444"></scales>
<clustering>
<clus scale="   25.384">  1  9  2 -1</clus>
<clus scale="   80.898">  5  6 -1 -1</clus>
<clus scale="   93.210">  7  8 -1 -1</clus>
<clus scale="  147.797">  2  5  1 -1</clus>
<clus scale="   25.384">  1  5  2 -1</clus>
</clustering>
</event>
<event>
 9    2  0.6469128E-005  0.9765536E+02  0.7546771E-02  0.1290496E+00
         21   -1    0    0  501  502  0.00000000000E+00  0.00000000000E+00  0.32533859340E+03  0.32533859340E+03  0.00000000000E+00 0.  1.
          2   -1    0    0  502    0 -0.00000000000E+00 -0.00000000000E+00 -0.53577549905E+02  0.53577549905E+02  0.00000000000E+00 0. -1.
         23    2    1    2    0    0  0.40472178672E+02  0.23407934419E+02  0.48523168668E+02  0.11236776137E+03  0.89922673769E+02 0.  0.
         24    2    1    2    0    0 -0.73047687461E+01 -0.14622253273E+02  0.21677462753E+03  0.23163364522E+03  0.79973348812E+02 0.  0.
        -13    1    4    4    0    0  0.31145091356E+02 -0.27013718291E+02  0.11012672104E+03  0.11759103868E+03  0.00000000000E+00 0.  1.
         14    1    4    4    0    0 -0.38449860102E+02  0.12391465019E+02  0.10664790649E+03  0.11404260654E+03  0.00000000000E+00 0. -1.
        -11    1    3    3    0    0  0.42256331103E+02 -0.19561164648E+02 -0.12595964110E+01  0.46581361763E+02  0.00000000000E+00 0. -1.
         11    1    3    3    0    0 -0.17841524302E+01  0.42969099066E+02  0.49782765079E+02  0.65786399608E+02  0.00000000000E+00 0.  1.
          1    1    1    2  501    0 -0.33167409926E+02 -0.87856811458E+01  0.64632473022E+01  0.34914736718E+02  0.00000000000E+00 0. -1.
<scales pt_clust_5="13000.00000" pt_clust_6="13000.00000" pt_clust_7="13000.00000" pt_clust_8="13000.00000" pt_clust_9="34.31132"></scales>
<clustering>
<clus scale="   34.311">  1  9  2 -1</clus>
<clus scale="   79.973">  5  6 -1 -1</clus>
<clus scale="   88.579">  1  5  2 -1</clus>
<clus scale="   89.923">  7  8 -1 -1</clus>
<clus scale="   34.311">  1  5  2 -1</clus>
</clustering>
</event>
<event>
 9    2  0.6469128E-005  0.9558940E+02  0.7546771E-02  0.1298282E+00
         21   -1    0    0  501  502  0.00000000000E+00  0.00000000000E+00  0.66423162902E+02  0.66423162902E+02  0.00000000000E+00 0.  1.
          2   -1    0    0  502    0 -0.00000000000E+00 -0.00000000000E+00 -0.87937137501E+03  0.87937137501E+03  0.00000000000E+00 0. -1.
         24    2    1    2    0    0 -0.72381279605E+01  0.14749160594E+02 -0.77948376074E+03  0.78376750222E+03  0.80166302478E+02 0.  0.
         23    2    1    2    0    0 -0.37251268798E+02 -0.21598494767E+02 -0.48692447730E+02  0.11450744315E+03  0.94270080443E+02 0.  0.
        -13    1    3    3    0    0  0.16713764470E+02 -0.18022370375E+02 -0.96588276041E+02  0.99666698678E+02  0.00000000000E+00 0.  1.
         14    1    3    3    0    0 -0.23951892430E+02  0.32771530969E+02 -0.68289548470E+03  0.68410080355E+03  0.00000000000E+00 0. -1.
        -13    1    4    4    0    0 -0.62346909311E+02 -0.34376196060E+02 -0.48853969531E+02  0.86345644332E+02  0.00000000000E+00 0.  1.
         13    1    4    4    0    0  0.25095640513E+02  0.12777701293E+02  0.16152180169E+00  0.28161798813E+02  0.00000000000E+00 0. -1.
          1    1    1    2  501    0  0.44489396759E+02  0.68493341728E+01  0.15227996358E+02  0.47519592545E+02  0.00000000000E+00 0. -1.
<scales pt_clust_5="13000.00000" pt_clust_6="13000.00000" pt_clust_7="13000.00000" pt_clust_8="13000.00000" pt_clust_9="45.01355"></scales>
<clustering>
<clus scale="   45.014">  1  9  2 -1</clus>
<clus scale="   80.166">  5  6 -1 -1</clus>
<clus scale="   81.714">  2  5  1 -1</clus>
<clus scale="   94.270">  7  8 -1 -1</clus>
<clus scale="   45.014">  1  5  2 -1</clus>
</clustering>
</event>
<event>
 9    2  0.6469128E-005  0.1365342E+03  0.7546771E-02  0.1242461E+00
          2   -1    0    0  502    0 -0.00000000000E+00  0.00000000000E+00  0.13111143343E+03  0.13111143343E+03  0.00000000000E+00 0. -1.
         21   -1    0    0  501  502  0.00000000000E+00 -0.00000000000E+00 -0.57252755393E+03  0.57252755393E+03  0.00000000000E+00 0. -1.
         24    2    1    2    0    0  0.93244071779E+01 -0.19134765349E+02  0.12493214427E+02  0.83465081859E+02  0.79732400371E+02 0.  0.
         23    2    1    2    0    0 -0.66227514050E+02 -0.65349944550E+02  0.22895230400E+02  0.13261034729E+03  0.91676680581E+02 0.  0.
        -13    1    3    3    0    0  0.38779558749E+02  0.31058188266E+01 -0.10096034753E+02  0.40192414770E+02  0.00000000000E+00 0.  1.
         14    1    3    3    0    0 -0.29455151571E+02 -0.22240584175E+02  0.22589249180E+02  0.43272667089E+02  0.00000000000E+00 0. -1.
        -13    1    4    4    0    0 -0.33349991603E+02  0.20108106463E+02  0.43304154449E+01  0.39183036934E+02  0.00000000000E+00 0.  1.
         13    1    4    4    0    0 -0.32877522447E+02 -0.85458051013E+02  0.18564814955E+02  0.93427310352E+02  0.00000000000E+00 0. -1.
          1    1    1    2  501    0  0.56903106872E+02  0.84484709899E+02 -0.47680456532E+03  0.48756355821E+03  0.00000000000E+00 0. -1.
<scales pt_clust_5="13000.00000" pt_clust_6="13000.00000" pt_clust_7="13000.00000" pt_clust_8="13000.00000" pt_clust_9="101.17794"></scales>
<clustering>
<clus scale="   79.732">  5  6 -1 -1</clus>
<clus scale="   82.525">  1  5  2 -1</clus>
<clus scale="   91.677">  7  8 -1 -1</clus>
<clus scale="  101.178">  2  9  1 -1</clus>
<clus scale="  101.178">  2  5  1 -1</clus>
</clustering>
</event>
<event>
 9    2  0.6469128E-005  0.9521082E+02  0.7546771E-02  0.1295774E+00
          4   -1    0    0  502    0 -0.00000000000E+00  0.00000000000E+00  0.94829905287E+02  0.94829905287E+02  0.00000000000E+00 0. -1.
         21   -1    0    0  501  502  0.00000000000E+00 -0.00000000000E+00 -0.25228161855E+03  0.25228161855E+03  0.00000000000E+00 0. -1.
         24    2    1    2    0    0 -0.28657586907E+02 -0.11663568760E+02  0.38954438843E+02  0.94916986117E+02  0.80836191303E+02 0.  0.
         23    2    1    2    0    0  0.96428935131E+01  0.51521247461E+02 -0.17374143090E+03  0.20255702465E+03  0.89976880861E+02 0.  0.
        -13    1    3    3    0    0 -0.93656445545E+01  0.28584561824E+02 -0.69700609720E+01  0.30876758615E+02  0.00000000000E+00 0.  1.
         14    1    3    3    0    0 -0.19291942352E+02 -0.40248130584E+02  0.45924499815E+02  0.64040227502E+02  0.00000000000E+00 0. -1.
        -13    1    4    4    0    0 -0.17855251296E+02  0.65744613482E+02 -0.14546844556E+03  0.16063073446E+03  0.00000000000E+00 0. -1.
         13    1    4    4    0    0  0.27498144809E+02 -0.14223366021E+02 -0.28272985339E+02  0.41926290188E+02  0.00000000000E+00 0.  1.
          3    1    1    2  501    0  0.19014693394E+02 -0.39857678701E+02 -0.22664721207E+02  0.49637513069E+02  0.00000000000E+00 0. -1.
<scales pt_clust_5="13000.00000" pt_clust_6="13000.00000" pt_clust_7="13000.00000" pt_clust_8="13000.00000" pt_clust_9="44.16099"></scales>
<clustering>
<clus scale="   44.161">  2  9  1 -1</clus>
<clus scale="   80.836">  5  6 -1 -1</clus>
<clus scale="   86.624">  1  5  2 -1</clus>
<clus scale="   89.977">  7  8 -1 -1</clus>
<clus scale="   44.161">  2  5  1 -1</clus>
</clustering>
</event>
<event>
 9    2  0.6469128E-005  0.2380782E+03  0.7546771E-02  0.1121080E+00
          2   -1    0    0  502    0 -0.00000000000E+00  0.00000000000E+00  0.66311543575E+03  0.66311543575E+03  0.00000000000E+00 0. -1.
         21   -1    0    0  501  502  0.00000000000E+00 -0.00000000000E+00 -0.66063566127E+02  0.66063566127E+02  0.00000000000E+00 0. -1.
         24    2    1    2    0    0  0.12665988372E+02 -0.93912863756E+02  0.27413488611E+03  0.30119837855E+03  0.81181735740E+02 0.  0.
         23    2    1    2    0    0  0.58293860100E+02 -0.40023454336E+02  0.21217969189E+03  0.24026545304E+03  0.87790746967E+02 0.  0.
        -11    1    3    3    0    0  0.23805316657E+02 -0.65190526814E+02  0.85771717052E+02  0.11033261228E+03  0.00000000000E+00 0.  1.
         12    1    3    3    0    0 -0.11139328285E+02 -0.28722336941E+02  0.18836316906E+03  0.19086576627E+03  0.00000000000E+00 0. -1.
        -11    1    4    4    0    0  0.64616479093E+02 -0.62038123410E+02  0.16231719224E+03  0.18539387537E+03  0.00000000000E+00 0. -1.
         11    1    4    4    0    0 -0.63226189935E+01  0.22014669074E+02  0.49862499644E+02  0.54871577671E+02  0.00000000000E+00 0.  1.
          1    1    1    2  501    0 -0.70959848472E+02  0.13393631809E+03  0.11073729162E+03  0.18771517028E+03  0.00000000000E+00 0. -1.
<scales pt_clust_5="13000.00000" pt_clust_6="13000.00000" pt_clust_7="13000.00000" pt_clust_8="13000.00000" pt_clust_9="151.57255"></scales>
<clustering>
<clus scale="   81.182">  5  6 -1 -1</clus>
<clus scale="   87.791">  7  8 -1 -1</clus>
<clus scale="  105.174">  5  7 -1 -1</clus>
<clus scale="  151.573">  2  9  1 -1</clus>
<clus scale="  151.573">  2  5  1 -1</clus>
</clustering>
</event>
<event>
 9    2  0.6469128E-005  0.1532934E+03  0.7546771E-02  0.1219748E+00
         21   -1    0    0  501  502  0.00000000000E+00  0.00000000000E+00  0.36472804436E+02  0.36472804436E+02  0.00000000000E+00 0. -1.
          2   -1    0    0  502    0 -0.00000000000E+00 -0.00000000000E+00 -0.98715490198E+03  0.98715490198E+03  0.00000000000E+00 0. -1.
         23    2    1    2    0    0  0.35861312628E+02  0.24095194474E+02 -0.21908678407E+03  0.23805751357E+03  0.82496961577E+02 0.  0.
         24    2    1    2    0    0 -0.24714078355E+02  0.11511390159E+03 -0.42384088876E+03  0.44761129123E+03  0.82781477644E+02 0.  0.
        -11    1    4    4    0    0 -0.21756356407E+02  0.37085552431E+01 -0.24334853652E+02  0.32852359555E+02  0.00000000000E+00 0.  1.
         12    1    4    4    0    0 -0.29577219484E+01  0.11140534634E+03 -0.39950603511E+03  0.41475893167E+03  0.00000000000E+00 0. -1.
        -11    1    3    3    0    0  0.34849017603E+02 -0.20313071620E+02 -0.15443991334E+03  0.15962068080E+03  0.00000000000E+00 0.  1.
         11    1    3    3    0    0  0.10122950244E+01  0.44408266094E+02 -0.64646870732E+02  0.78436832764E+02  0.00000000000E+00 0. -1.
          1    1    1    2  501    0 -0.11147234273E+02 -0.13920909606E+03 -0.30775442471E+03  0.33795890162E+03  0.00000000000E+00 0. -1.
<scales pt_clust_5="13000.00000" pt_clust_6="13000.00000" pt_clust_7="13000.00000" pt_clust_8="13000.00000" pt_clust_9="129.01972"></scales>
<clustering>
<clus scale="   82.497">  7  8 -1 -1</clus>
<clus scale="   82.781">  5  6 -1 -1</clus>
<clus scale="   93.126">  2  7  1 -1</clus>
<clus scale="  129.020">  1  9  2 -1</clus>
<clus scale="  129.020">  1  5  2 -1</clus>
</clustering>
</event>
<event>
 9    2  0.6469128E-005  0.2628110E+03  0.7546771E-02  0.1105466E+00
         21   -1    0    0  501  502  0.00000000000E+00  0.00000000000E+00  0.48026448059E+03  0.48026448059E+03  0.00000000000E+00 0. -1.
          2   -1    0    0  502    0 -0.00000000000E+00 -0.00000000000E+00 -0.16853121624E+03  0.16853121624E+03  0.00000000000E+00 0. -1.
         24    2    1    2    0    0 -0.49706609868E+01  0.63474462496E+02 -0.16327098913E+02  0.10525518911E+03  0.82209280594E+02 0.  0.
         23    2    1    2    0    0 -0.11251828744E+03  0.78247864941E+02 -0.97298644905E+01  0.15884438210E+03  0.79710564460E+02 0.  0.
        -11    1    3    3    0    0 -0.20838252225E+02 -0.13864873342E+02 -0.36884662734E+01  0.25299649247E+02  0.00000000000E+00 0.  1.
         12    1    3    3    0    0  0.15867591238E+02  0.77339335838E+02 -0.12638632640E+02  0.79955539862E+02  0.00000000000E+00 0. -1.
        -13    1    4    4    0    0  0.88815331904E+01  0.23492419327E+02  0.17340032172E+01  0.25175030582E+02  0.00000000000E+00 0.  1.
         13    1    4    4    0    0 -0.12139982063E+03  0.54755445614E+02 -0.11463867708E+02  0.13366935152E+03  0.00000000000E+00 0. -1.
          1    1    1    2  501    0  0.11748894842E+03 -0.14172232744E+03  0.33779022776E+03  0.38469612562E+03  0.00000000000E+00 0. -1.
<scales pt_clust_5="13000.00000" pt_clust_6="13000.00000" pt_clust_7="13000.00000" pt_clust_8="13000.00000" pt_clust_9="184.08930"></scales>
<clustering>
<clus scale="   79.711">  7  8 -1 -1</clus>
<clus scale="   82.209">  5  6 -1 -1</clus>
<clus scale="  101.146">  5  7 -1 -1</clus>
<clus scale="  184.089">  1  9  2 -1</clus>
<clus scale="  184.089">  1  5  2 -1</clus>
</clustering>
</event>
<event>
 9    2  0.6517592E-005  0.1020160E+03  0.7546771E-02  0.1280725E+00
         21   -1    0    0  501  502  0.00000000000E+00  0.00000000000E+00  0.70903672530E+02  0.70903672530E+02  0.00000000000E+00 0. -1.
          2   -1    0    0  502    0 -0.00000000000E+00 -0.00000000000E+00 -0.66323431318E+03  0.66323431318E+03  0.00000000000E+00 0. -1.
         23    2    1    2    0    0  0.13280710875E+02  0.65669703882E+01 -0.49542904790E+03  0.50416003833E+03  0.92238280364E+02 0.  0.
         24    2    1    2    0    0  0.55479028731E+01 -0.30671159574E+02 -0.14107977205E+03  0.17624490207E+03  0.10093197792E+03 0.  0.
        -13    1    4    4    0    0 -0.22733535459E+02 -0.59570849271E+02 -0.71769657880E+02  0.96001997424E+02  0.00000000000E+00 0.  1.
         14    1    4    4    0    0  0.28281438332E+02  0.28899689697E+02 -0.69310114172E+02  0.80242904641E+02  0.00000000000E+00 0. -1.
        -13    1    3    3    0    0 -0.32706769794E+02 -0.21729299428E+02 -0.19425582500E+03  0.19818481473E+03  0.00000000000E+00 0.  1.
         13    1    3    3    0    0  0.45987480669E+02  0.28296269817E+02 -0.30117322291E+03  0.30597522360E+03  0.00000000000E+00 0. -1.
          1    1    1    2  501    0 -0.18828613748E+02  0.24104189185E+02  0.44178179303E+02  0.53733045312E+02  0.00000000000E+00 0. -1.
<scales pt_clust_5="13000.00000" pt_clust_6="13000.00000" pt_clust_7="13000.00000" pt_clust_8="13000.00000" pt_clust_9="30.58641"></scales>
<clustering>
<clus scale="   30.586">  1  9  2 -1</clus>
<clus scale="   92.238">  7  8 -1 -1</clus>
<clus scale="   93.423">  2  7  1 -1</clus>
<clus scale="  100.932">  5  6 -1 -1</clus>
<clus scale="   30.586">  1  5  2 -1</clus>
</clustering>
</event>
<event>
 9    2  0.6469128E-005  0.1337523E+03  0.7546771E-02  0.1224851E+00
          2   -1    0    0  502    0 -0.00000000000E+00  0.00000000000E+00  0.58437886698E+02  0.58437886698E+02  0.00000000000E+00 0. -1.
         21   -1    0    0  501  502  0.00000000000E+00 -0.00000000000E+00 -0.37263369857E+03  0.37263369857E+03  0.00000000000E+00 0.  1.
         23    2    1    2    0    0 -0.10672952453E+03  0.26111393984E+02 -0.12343050585E+03  0.18940609217E+03  0.92555830031E+02 0.  0.
         24    2    1    2    0    0  0.75243446224E+02 -0.33253773927E+02 -0.15800001894E+03  0.19566602836E+03  0.80955537121E+02 0.  0.
        -11    1    4    4    0    0  0.54129856055E+02  0.71407351643E+01 -0.13279592913E+03  0.14358199820E+03  0.00000000000E+00 0.  1.
         12    1    4    4    0    0  0.21113590169E+02 -0.40394509091E+02 -0.25204089814E+02  0.52084030162E+02  0.00000000000E+00 0. -1.
        -11    1    3    3    0    0 -0.63441551331E+02  0.12628519445E+02 -0.12842170563E+03  0.14379306108E+03  0.00000000000E+00 0.  1.
         11    1    3    3    0    0 -0.43287973202E+02  0.13482874539E+02  0.49911997756E+01  0.45613031087E+02  0.00000000000E+00 0. -1.
          1    1    1    2  501    0  0.31486078309E+02  0.71423799434E+01 -0.32765287074E+02  0.45999464731E+02  0.00000000000E+00 0. -1.
<scales pt_clust_5="13000.00000" pt_clust_6="13000.00000" pt_clust_7="13000.00000" pt_clust_8="13000.00000" pt_clust_9="32.28603"></scales>
<clustering>
<clus scale="   32.286">  2  9  1 -1</clus>
<clus scale="   80.956">  5  6 -1 -1</clus>
<clus scale="   92.556">  7  8 -1 -1</clus>
<clus scale="  126.003">  2  5  1 -1</clus>
<clus scale="   32.286">  2  5  1 -1</clus>
</clustering>
</event>
<event>
 9    2  0.6469128E-005  0.1488723E+03  0.7546771E-02  0.1203774E+00
         21   -1    0    0  501  502  0.00000000000E+00  0.00000000000E+00  0.15462115520E+03  0.15462115520E+03  0.00000000000E+00 0.  1.
         -1   -1    0    0    0  501 -0.00000000000E+00 -0.00000000000E+00 -0.18954378471E+03  0.18954378471E+03  0.00000000000E+00 0.  1.
         24    2    1    2    0    0 -0.11318789577E+03 -0.54565742627E+02 -0.47305712388E+02  0.15691872355E+03  0.81220289084E+02 0.  0.
         23    2    1    2    0    0  0.10654500671E+03  0.25885777265E+02 -0.19256961382E+02  0.14402861821E+03  0.91386543772E+02 0.  0.
        -13    1    3    3    0    0 -0.11922294045E+03 -0.65164790412E+02 -0.36657661453E+02  0.14072790619E+03  0.00000000000E+00 0.  1.
         14    1    3    3    0    0  0.60350446720E+01  0.10599047784E+02 -0.10648050935E+02  0.16190817362E+02  0.00000000000E+00 0. -1.
        -11    1    4    4    0    0  0.91664936209E+02 -0.83935099078E+01  0.15084308175E+02  0.93276191452E+02  0.00000000000E+00 0.  1.
         11    1    4    4    0    0  0.14880070504E+02  0.34279287173E+02 -0.34341269557E+02  0.50752426760E+02  0.00000000000E+00 0. -1.
         -2    1    1    2    0  502  0.66428890603E+01  0.28679965362E+02  0.31640044267E+02  0.43217598146E+02  0.00000000000E+00 0.  1.
<scales pt_clust_5="13000.00000" pt_clust_6="13000.00000" pt_clust_7="13000.00000" pt_clust_8="13000.00000" pt_clust_9="29.43923"></scales>
<clustering>
<clus scale="   29.439">  1  9  2 -1</clus>
<clus scale="   81.220">  5  6 -1 -1</clus>
<clus scale="   91.387">  7  8 -1 -1</clus>
<clus scale="  142.857">  2  5  1 -1</clus>
<clus scale="   29.439">  1  5  2 -1</clus>
</clustering>
</event>
<event>
 9    2  0.6469128E-005  0.9763693E+02  0.7546771E-02  0.1293762E+00
         21   -1    0    0  501  502  0.00000000000E+00  0.00000000000E+00  0.25642220000E+02  0.25642220000E+02  0.00000000000E+00 0.  1.
          2   -1    0    0  502    0 -0.00000000000E+00 -0.00000000000E+00 -0.10627616092E+04  0.10627616092E+04  0.00000000000E+00 0. -1.
         24    2    1    2    0    0  0.20665219857E+01 -0.31250155763E+02 -0.88960131386E+03  0.89359157109E+03  0.78323403542E+02 0.  0.
         23    2    1    2    0    0  0.23461774572E+01  0.15927796075E+01 -0.88746396521E+02  0.12883391236E+03  0.93349946888E+02 0.  0.
        -11    1    3    3    0    0 -0.25274512737E+02  0.91688349249E+01 -0.15061789952E+03  0.15299875877E+03  0.00000000000E+00 0.  1.
         12    1    3    3    0    0  0.27341034723E+02 -0.40418990688E+02 -0.73898341434E+03  0.74059281232E+03  0.00000000000E+00 0. -1.
        -13    1    4    4    0    0  0.14932504593E+02 -0.38495449716E+02 -0.14948742266E+02  0.43912916523E+02  0.00000000000E+00 0. -1.
         13    1    4    4    0    0 -0.12586327136E+02  0.40088229323E+02 -0.73797654255E+02  0.84920995841E+02  0.00000000000E+00 0.  1.
          1    1    1    2  501    0 -0.44126994430E+01  0.29657376155E+02 -0.58771678796E+02  0.65978345730E+02  0.00000000000E+00 0. -1.
<scales pt_clust_5="13000.00000" pt_clust_6="13000.00000" pt_clust_7="13000.00000" pt_clust_8="13000.00000" pt_clust_9="29.98386"></scales>
<clustering>
<clus scale="   29.984">  1  9  2 -1</clus>
<clus scale="   78.323">  5  6 -1 -1</clus>
<clus scale="   83.387">  2  5  1 -1</clus>
<clus scale="   93.350">  7  8 -1 -1</clus>
<clus scale="   29.984">  1  5  2 -1</clus>
</clustering>
</event>
<event>
 9    2  0.6469128E-005  0.2296422E+03  0.7546771E-02  0.1162009E+00
         21   -1    0    0  501  502  0.00000000000E+00  0.00000000000E+00  0.99587173420E+03  0.99587173420E+03  0.00000000000E+00 0. -1.
          2   -1    0    0  502    0 -0.00000000000E+00 -0.00000000000E+00 -0.85406626641E+02  0.85406626641E+02  0.00000000000E+00 0. -1.
         24    2    1    2    0    0  0.56436791674E+02 -0.22091237907E+02  0.49095774577E+02  0.11058121049E+03  0.78387976024E+02 0.  0.
         23    2    1    2    0    0 -0.21555830101E+03 -0.91494964525E+02  0.46436553659E+03  0.52816636671E+03  0.92128441242E+02 0.  0.
        -13    1    3    3    0    0  0.64434775867E+02  0.79272774832E+01  0.45566302687E+02  0.79315635343E+02  0.00000000000E+00 0.  1.
         14    1    3    3    0    0 -0.79979841928E+01 -0.30018515390E+02  0.35294718903E+01  0.31265575146E+02  0.00000000000E+00 0. -1.
        -11    1    4    4    0    0 -0.93367992275E+02 -0.66778029417E+02  0.14238650008E+03  0.18289560574E+03  0.00000000000E+00 0.  1.
         11    1    4    4    0    0 -0.12219030874E+03 -0.24716935107E+02  0.32197903651E+03  0.34527076097E+03  0.00000000000E+00 0. -1.
          1    1    1    2  501    0  0.15912150934E+03  0.11358620243E+03  0.39700379640E+03  0.44253078364E+03  0.00000000000E+00 0. -1.
<scales pt_clust_5="13000.00000" pt_clust_6="13000.00000" pt_clust_7="13000.00000" pt_clust_8="13000.00000" pt_clust_9="210.35178"></scales>
<clustering>
<clus scale="   78.388">  5  6 -1 -1</clus>
<clus scale="   92.128">  7  8 -1 -1</clus>
<clus scale="   99.085">  2  5  1 -1</clus>
<clus scale="  210.352">  1  9  2 -1</clus>
<clus scale="  210.352">  1  5  2 -1</clus>
</clustering>
</event>
<event>
 9    2  0.6469128E-005  0.9505477E+02  0.7546771E-02  0.1297544E+00
         21   -1    0    0  501  502  0.00000000000E+00  0.00000000000E+00  0.23159348194E+03  0.23159348194E+03  0.00000000000E+00 0. -1.
          2   -1    0    0  502    0 -0.00000000000E+00 -0.00000000000E+00 -0.68564547538E+02  0.68564547538E+02  0.00000000000E+00 0. -1.
         24    2    1    2    0    0  0.13842308802E+02  0.39404164733E+02  0.47260000431E+01  0.89847637373E+02  0.79410107378E+02 0.  0.
         23    2    1    2    0    0  0.69626739890E+00  0.38141816155E+00  0.78800917042E+02  0.12022802112E+03  0.90799571962E+02 0.  0.
        -13    1    3    3    0    0  0.29002681331E+02 -0.46052267668E+01  0.25483575014E+02  0.38881566757E+02  0.00000000000E+00 0.  1.
         14    1    3    3    0    0 -0.15160372529E+02  0.44009391500E+02 -0.20757574971E+02  0.50966070617E+02  0.00000000000E+00 0. -1.
        -13    1    4    4    0    0  0.41436032444E+02  0.14021320428E+02  0.57575868367E+02  0.72308525289E+02  0.00000000000E+00 0. -1.
         13    1    4    4    0    0 -0.40739765045E+02 -0.13639902266E+02  0.21225048675E+02  0.47919495834E+02  0.00000000000E+00 0.  1.
          1    1    1    2  501    0 -0.14538576201E+02 -0.39785582895E+02  0.79502017312E+02  0.90082370977E+02  0.00000000000E+00 0. -1.
<scales pt_clust_5="13000.00000" pt_clust_6="13000.00000" pt_clust_7="13000.00000" pt_clust_8="13000.00000" pt_clust_9="42.35874"></scales>
<clustering>
<clus scale="   42.359">  1  9  2 -1</clus>
<clus scale="   79.410">  5  6 -1 -1</clus>
<clus scale="   84.243">  2  5  1 -1</clus>
<clus scale="   90.800">  7  8 -1 -1</clus>
<clus scale="   42.359">  1  5  2 -1</clus>
</clustering>
</event>
<event>
 9    2  0.6469128E-005  0.9356038E+02  0.7546771E-02  0.1300160E+00
         21   -1    0    0  501  502  0.00000000000E+00  0.00000000000E+00  0.16356664696E+02  0.16356664696E+02  0.00000000000E+00 0. -1.
          2   -1    0    0  502    0 -0.00000000000E+00 -0.00000000000E+00 -0.75765460409E+03  0.75765460409E+03  0.00000000000E+00 0. -1.
         24    2    1    2    0    0  0.41828889892E+01  0.18362176243E+02 -0.27000151096E+03  0.28230131597E+03  0.80240581989E+02 0.  0.
         23    2    1    2    0    0 -0.41837166457E+02 -0.10842071253E+02 -0.30091208979E+03  0.31705251827E+03  0.90035074002E+02 0.  0.
        -13    1    3    3    0    0  0.40058514262E+02  0.10529500189E+02 -0.18712303215E+03  0.19165224784E+03  0.00000000000E+00 0.  1.
         14    1    3    3    0    0 -0.35875625273E+02  0.78326760539E+01 -0.82878478807E+02  0.90649068127E+02  0.00000000000E+00 0. -1.
        -11    1    4    4    0    0  0.94580660552E+01  0.26507736727E+02 -0.42572949776E+02  0.51034999486E+02  0.00000000000E+00 0. -1.
         11    1    4    4    0    0 -0.51295232513E+02 -0.37349807980E+02 -0.25833914002E+03  0.26601751878E+03  0.00000000000E+00 0.  1.
          1    1    1    2  501    0  0.37654277468E+02 -0.75201049899E+01 -0.17038433864E+03  0.17465743455E+03  0.00000000000E+00 0. -1.
<scales pt_clust_5="13000.00000" pt_clust_6="13000.00000" pt_clust_7="13000.00000" pt_clust_8="13000.00000" pt_clust_9="38.39789"></scales>
<clustering>
<clus scale="   38.398">  1  9  2 -1</clus>
<clus scale="   80.241">  5  6 -1 -1</clus>
<clus scale="   84.177">  2  5  1 -1</clus>
<clus scale="   90.035">  7  8 -1 -1</clus>
<clus scale="   38.398">  1  5  2 -1</clus>
</clustering>
</event>
<event>
 9    2  0.6469128E-005  0.1071226E+03  0.7546771E-02  0.1268708E+00
          2   -1    0    0  502    0 -0.00000000000E+00  0.00000000000E+00  0.66712731046E+03  0.66712731046E+03  0.00000000000E+00 0. -1.
         21   -1    0    0  501  502  0.00000000000E+00 -0.00000000000E+00 -0.48314432045E+02  0.48314432045E+02  0.00000000000E+00 0.  1.
         24    2    1    2    0    0 -0.55109634136E+02  0.38654382670E+02  0.53731945572E+03  0.54751514857E+03  0.80804748298E+02 0.  0.
         23    2    1    2    0    0  0.39907542071E+02 -0.93602368733E+01  0.91788991663E+02  0.13335421592E+03  0.87623638168E+02 0.  0.
        -13    1    3    3    0    0 -0.28567326662E+02  0.42148735765E+02  0.13463274346E+03  0.14393951400E+03  0.00000000000E+00 0.  1.
         14    1    3    3    0    0 -0.26542307475E+02 -0.34943530951E+01  0.40268671226E+03  0.40357563457E+03  0.00000000000E+00 0. -1.
        -13    1    4    4    0    0  0.20466354537E+02 -0.33501323005E+02  0.30718553265E+01  0.39378250422E+02  0.00000000000E+00 0.  1.
         13    1    4    4    0    0  0.19441187535E+02  0.24141086132E+02  0.88717136336E+02  0.93975965502E+02  0.00000000000E+00 0. -1.
          1    1    1    2  501    0  0.15202092065E+02 -0.29294145797E+02 -0.10295568964E+02  0.34572378012E+02  0.00000000000E+00 0. -1.
<scales pt_clust_5="13000.00000" pt_clust_6="13000.00000" pt_clust_7="13000.00000" pt_clust_8="13000.00000" pt_clust_9="33.00380"></scales>
<clustering>
<clus scale="   33.004">  2  9  1 -1</clus>
<clus scale="   80.805">  5  6 -1 -1</clus>
<clus scale="   87.624">  7  8 -1 -1</clus>
<clus scale="  101.621">  1  5  2 -1</clus>
<clus scale="   33.004">  2  5  1 -1</clus>
</clustering>
</event>
<event>
 9    2  0.6946835E-005  0.8225250E+02  0.7546771E-02  0.1324444E+00
          4   -1    0    0  502    0 -0.00000000000E+00  0.00000000000E+00  0.56812727915E+03  0.56812727915E+03  0.00000000000E+00 0. -1.
         21   -1    0    0  501  502  0.00000000000E+00 -0.00000000000E+00 -0.23444698137E+03  0.23444698137E+03  0.00000000000E+00 0. -1.
         24    2    1    2    0    0  0.19142852681E+00  0.16977586068E+02  0.52745383981E+03  0.53383201304E+03  0.80503353614E+02 0.  0.
         23    2    1    2    0    0  0.25440218549E+02 -0.14355498872E+02 -0.10883059828E+02  0.84045779846E+02  0.78051054132E+02 0.  0.
        -11    1    3    3    0    0 -0.32225792564E+02 -0.11345339914E+02  0.14536090993E+03  0.14932184227E+03  0.00000000000E+00 0.  1.
         12    1    3    3    0    0  0.32417221091E+02  0.28322925982E+02  0.38209292988E+03  0.38451017077E+03  0.00000000000E+00 0. -1.
        -11    1    4    4    0    0 -0.26494991908E+02  0.28415203974E+01  0.49273756359E+01  0.27098669063E+02  0.00000000000E+00 0.  1.
         11    1    4    4    0    0  0.51935210457E+02 -0.17197019269E+02 -0.15810435464E+02  0.56947110783E+02  0.00000000000E+00 0. -1.
          3    1    1    2  501    0 -0.25631647076E+02 -0.26220871964E+01 -0.18289048220E+03  0.18469646763E+03  0.00000000000E+00 0. -1.
<scales pt_clust_5="13000.00000" pt_clust_6="13000.00000" pt_clust_7="13000.00000" pt_clust_8="13000.00000" pt_clust_9="25.76542"></scales>
<clustering>
<clus scale="   25.765">  2  9  1 -1</clus>
<clus scale="   78.051">  7  8 -1 -1</clus>
<clus scale="   79.854">  2  7  1 -1</clus>
<clus scale="   80.503">  5  6 -1 -1</clus>
<clus scale="   25.765">  2  5  1 -1</clus>
</clustering>
</event>
<event>
 9    2  0.6469128E-005  0.2221704E+03  0.7546771E-02  0.1132548E+00
         21   -1    0    0  501  502  0.00000000000E+00  0.00000000000E+00  0.40394701762E+03  0.40394701762E+03  0.00000000000E+00 0. -1.
          4   -1    0    0  502    0 -0.00000000000E+00 -0.00000000000E+00 -0.20807710902E+03  0.20807710902E+03  0.00000000000E+00 0. -1.
         23    2    1    2    0    0  0.23167794194E+03  0.44910336210E+02 -0.32843267453E+02  0.25117497173E+03  0.79489490685E+02 0.  0.
         24    2    1    2    0    0 -0.16575511294E+03 -0.33968247150E+02  0.87906464264E+02  0.20498999162E+03  0.75264539634E+02 0.  0.
        -13    1    4    4    0    0 -0.12450319964E+03 -0.51964618052E+02  0.43469528356E+02  0.14174261232E+03  0.00000000000E+00 0.  1.
         14    1    4    4    0    0 -0.41251913293E+02  0.17996370902E+02  0.44436935909E+02  0.63247379305E+02  0.00000000000E+00 0. -1.
        -13    1    3    3    0    0  0.16831417945E+03  0.82842929744E+00 -0.27836886601E+01  0.16833923554E+03  0.00000000000E+00 0. -1.
         13    1    3    3    0    0  0.63363762484E+02  0.44081906913E+02 -0.30059578793E+02  0.82835736192E+02  0.00000000000E+00 0.  1.
          3    1    1    2  501    0 -0.65922829002E+02 -0.10942089060E+02  0.14080671179E+03  0.15585916329E+03  0.00000000000E+00 0. -1.
<scales pt_clust_5="13000.00000" pt_clust_6="13000.00000" pt_clust_7="13000.00000" pt_clust_8="13000.00000" pt_clust_9="66.82476"></scales>
<clustering>
<clus scale="   66.825">  1  9  2 -1</clus>
<clus scale="   75.265">  5  6 -1 -1</clus>
<clus scale="   79.489">  7  8 -1 -1</clus>
<clus scale="  220.694">  1  5  2 -1</clus>
<clus scale="   66.825">  1  5  2 -1</clus>
</clustering>
</event>
<event>
 9    2  0.6469128E-005  0.1176469E+03  0.7546771E-02  0.1261706E+00
         21   -1    0    0  501  502  0.00000000000E+00  0.00000000000E+00  0.16070268383E+02  0.16070268383E+02  0.00000000000E+00 0.  1.
          2   -1    0    0  502    0 -0.00000000000E+00 -0.00000000000E+00 -0.14587935107E+04  0.14587935107E+04  0.00000000000E+00 0. -1.
         24    2    1    2    0    0 -0.24827540045E+02 -0.31975313669E+02 -0.99644608196E+03  0.10004550977E+04  0.79792109891E+02 0.  0.
         23    2    1    2    0    0  0.25656600061E+02  0.93722909814E+01 -0.43337401053E+03  0.44836880334E+03  0.11169355326E+03 0.  0.
        -11    1    3    3    0    0 -0.10261795617E+02  0.19733123353E+02 -0.10198205077E+03  0.10437930487E+03  0.00000000000E+00 0.  1.
         12    1    3    3    0    0 -0.14565744428E+02 -0.51708437023E+02 -0.89446403119E+03  0.89607579281E+03  0.00000000000E+00 0. -1.
        -13    1    4    4    0    0 -0.58674679593E+01 -0.48108343929E+02 -0.21337228403E+03  0.21880715602E+03  0.00000000000E+00 0. -1.
         13    1    4    4    0    0  0.31524068020E+02  0.57480634910E+02 -0.22000172651E+03  0.22956164732E+03  0.00000000000E+00 0.  1.
          1    1    1    2  501    0 -0.82906001562E+00  0.22603022688E+02 -0.12903149873E+02  0.26039878106E+02  0.00000000000E+00 0. -1.
<scales pt_clust_5="13000.00000" pt_clust_6="13000.00000" pt_clust_7="13000.00000" pt_clust_8="13000.00000" pt_clust_9="22.61822"></scales>
<clustering>
<clus scale="   22.618">  1  9  2 -1</clus>
<clus scale="   79.792">  5  6 -1 -1</clus>
<clus scale="   87.932">  2  5  1 -1</clus>
<clus scale="  111.694">  7  8 -1 -1</clus>
<clus scale="   22.618">  1  5  2 -1</clus>
</clustering>
</event>
<event>
 9    2  0.6469128E-005  0.1180748E+03  0.7546771E-02  0.1250282E+00
         21   -1    0    0  501  502  0.00000000000E+00  0.00000000000E+00  0.57324703506E+03  0.57324703506E+03  0.00000000000E+00 0. -1.
          2   -1    0    0  502    0 -0.00000000000E+00 -0.00000000000E+00 -0.72141132293E+03  0.72141132293E+03  0.00000000000E+00 0. -1.
         24    2    1    2    0    0  0.65917622643E+02 -0.28788836566E+02 -0.70038474529E+03  0.70878946341E+03  0.81668732859E+02 0.  0.
         23    2    1    2    0    0 -0.10579519214E+03  0.31772967176E+01  0.33475316289E+03  0.36329711804E+03  0.93393779338E+02 0.  0.
        -11    1    3    3    0    0  0.85659335341E+01  0.19777931874E+02 -0.55462459575E+02  0.59503161501E+02  0.00000000000E+00 0.  1.
         12    1    3    3    0    0  0.57351689108E+02 -0.48566768440E+02 -0.64492228571E+03  0.64928630191E+03  0.00000000000E+00 0. -1.
        -13    1    4    4    0    0 -0.11596670646E+03  0.20457916927E+02  0.30886386720E+03  0.33055058892E+03  0.00000000000E+00 0.  1.
         13    1    4    4    0    0  0.10171514320E+02 -0.17280620210E+02  0.25889295686E+02  0.32746529122E+02  0.00000000000E+00 0. -1.
          1    1    1    2  501    0  0.39877569499E+02  0.25611539848E+02  0.21746729452E+03  0.22257177653E+03  0.00000000000E+00 0. -1.
<scales pt_clust_5="13000.00000" pt_clust_6="13000.00000" pt_clust_7="13000.00000" pt_clust_8="13000.00000" pt_clust_9="47.39379"></scales>
<clustering>
<clus scale="   47.394">  1  9  2 -1</clus>
<clus scale="   81.669">  5  6 -1 -1</clus>
<clus scale="   93.394">  7  8 -1 -1</clus>
<clus scale="  109.037">  2  5  1 -1</clus>
<clus scale="   47.394">  1  5  2 -1</clus>
</clustering>
</event>
<event>
 9    2  0.6469128E-005  0.1047437E+03  0.7546771E-02  0.1277715E+00
          2   -1    0    0  502    0 -0.00000000000E+00  0.00000000000E+00  0.59555265041E+03  0.59555265041E+03  0.00000000000E+00 0. -1.
         21   -1    0    0  501  502  0.00000000000E+00 -0.00000000000E+00 -0.27250034742E+02  0.27250034742E+02  0.00000000000E+00 0.  1.
         24    2    1    2    0    0  0.24656949733E+02 -0.36308435344E+02  0.32979642172E+03  0.34146162502E+03  0.76838102121E+02 0.  0.
         23    2    1    2    0    0 -0.30090431241E+02  0.61880896189E+02  0.15020932398E+03  0.18925517239E+03  0.92303845526E+02 0.  0.
        -11    1    3    3    0    0 -0.24564769467E+02 -0.28914641670E+02  0.16538174535E+03  0.16967794817E+03  0.00000000000E+00 0.  1.
         12    1    3    3    0    0  0.49221719200E+02 -0.73937936738E+01  0.16441467637E+03  0.17178367685E+03  0.00000000000E+00 0. -1.
        -11    1    4    4    0    0 -0.55760331917E+02  0.17417531119E+02  0.50995682329E+02  0.77544468675E+02  0.00000000000E+00 0.  1.
         11    1    4    4    0    0  0.25669900676E+02  0.44463365070E+02  0.99213641651E+02  0.11171070371E+03  0.00000000000E+00 0. -1.
          1    1    1    2  501    0  0.54334815082E+01 -0.25572460846E+02  0.88296869976E+02  0.92085887749E+02  0.00000000000E+00 0. -1.
<scales pt_clust_5="13000.00000" pt_clust_6="13000.00000" pt_clust_7="13000.00000" pt_clust_8="13000.00000" pt_clust_9="26.14334"></scales>
<clustering>
<clus scale="   26.143">  2  9  1 -1</clus>
<clus scale="   76.838">  5  6 -1 -1</clus>
<clus scale="   91.408">  1  5  2 -1</clus>
<clus scale="   92.304">  7  8 -1 -1</clus>
<clus scale="   26.143">  2  5  1 -1</clus>
</clustering>
</event>
<event>
 9    2  0.6469128E-005  0.1099024E+03  0.7546771E-02  0.1271495E+00
         21   -1    0    0  501  502  0.00000000000E+00  0.00000000000E+00  0.29996866093E+03  0.29996866093E+03  0.00000000000E+00 0. -1.
          2   -1    0    0  502    0 -0.00000000000E+00 -0.00000000000E+00 -0.12439242228E+03  0.12439242228E+03  0.00000000000E+00 0. -1.
         23    2    1    2    0    0  0.36899495879E+02 -0.22474391313E+02  0.14262641734E+03  0.18257255127E+03  0.10546928697E+03 0.  0.
         24    2    1    2    0    0 -0.22428523480E+02  0.79633186491E+00  0.12165686635E+03  0.14933158441E+03  0.83641234832E+02 0.  0.
        -13    1    4    4    0    0  0.30782356967E+02  0.43804002563E+01  0.61674626374E+02  0.69068813116E+02  0.00000000000E+00 0.  1.
         14    1    4    4    0    0 -0.53210880447E+02 -0.35840683914E+01  0.59982239974E+02  0.80262771299E+02  0.00000000000E+00 0. -1.
        -11    1    3    3    0    0 -0.32779732190E+02  0.94916249588E+01  0.25554182628E+02  0.42633531833E+02  0.00000000000E+00 0.  1.
         11    1    3    3    0    0  0.69679228068E+02 -0.31966016272E+02  0.11707223472E+03  0.13993901944E+03  0.00000000000E+00 0. -1.
          1    1    1    2  501    0 -0.14470972398E+02  0.21678059448E+02 -0.88707045042E+02  0.92456947514E+02  0.00000000000E+00 0. -1.
<scales pt_clust_5="13000.00000" pt_clust_6="13000.00000" pt_clust_7="13000.00000" pt_clust_8="13000.00000" pt_clust_9="26.06430"></scales>
<clustering>
<clus scale="   26.064">  1  9  2 -1</clus>
<clus scale="   83.641">  5  6 -1 -1</clus>
<clus scale="   89.166">  1  5  2 -1</clus>
<clus scale="  105.469">  7  8 -1 -1</clus>
<clus scale="   26.064">  1  5  2 -1</clus>
</clustering>
</event>
<event>
 9    2  0.6469128E-005  0.9794037E+02  0.7546771E-02  0.1287928E+00
         21   -1    0    0  501  502  0.00000000000E+00  0.00000000000E+00  0.50985069613E+02  0.50985069613E+02  0.00000000000E+00 0.  1.
          2   -1    0    0  502    0 -0.00000000000E+00 -0.00000000000E+00 -0.28385738548E+03  0.28385738548E+03  0.00000000000E+00 0. -1.
         24    2    1    2    0    0 -0.33089642403E+02  0.35143361929E+01 -0.17824718803E+03  0.20036928228E+03  0.85255581909E+02 0.  0.
         23    2    1    2    0    0  0.40775211444E+02  0.15372670760E+02 -0.38240794792E+02  0.10831531792E+03  0.91492692801E+02 0.  0.
        -13    1    3    3    0    0  0.28940072552E+01  0.32028414663E+02 -0.26013212634E+02  0.41362807634E+02  0.00000000000E+00 0.  1.
         14    1    3    3    0    0 -0.35983649658E+02 -0.28514078470E+02 -0.15223397540E+03  0.15900647465E+03  0.00000000000E+00 0. -1.
        -11    1    4    4    0    0 -0.27923318706E+02  0.15269927405E+02 -0.18607571611E+02  0.36866300761E+02  0.00000000000E+00 0. -1.
         11    1    4    4    0    0  0.68698530151E+02  0.10274335467E+00 -0.19633223181E+02  0.71449017163E+02  0.00000000000E+00 0.  1.
          1    1    1    2  501    0 -0.76855690415E+01 -0.18887006953E+02 -0.16384333043E+02  0.26157854889E+02  0.00000000000E+00 0. -1.
<scales pt_clust_5="13000.00000" pt_clust_6="13000.00000" pt_clust_7="13000.00000" pt_clust_8="13000.00000" pt_clust_9="20.39086"></scales>
<clustering>
<clus scale="   20.391">  1  9  2 -1</clus>
<clus scale="   85.256">  5  6 -1 -1</clus>
<clus scale="   91.493">  7  8 -1 -1</clus>
<clus scale="   92.141">  2  5  1 -1</clus>
<clus scale="   20.391">  1  5  2 -1</clus>
</clustering>
</event>
<event>
 9    2  0.6469128E-005  0.9326168E+02  0.7546771E-02  0.1311491E+00
          4   -1    0    0  502    0 -0.00000000000E+00  0.00000000000E+00  0.89332775009E+02  0.89332775009E+02  0.00000000000E+00 0. -1.
         21   -1    0    0  501  502  0.00000000000E+00 -0.00000000000E+00 -0.22506741042E+03  0.22506741042E+03  0.00000000000E+00 0.  1.
         24    2    1    2    0    0 -0.17792980079E+01 -0.85122186033E+01  0.34925182330E+02  0.76978655181E+02  0.68046463727E+02 0.  0.
         23    2    1    2    0    0 -0.13311239825E+02  0.23364945225E+02 -0.38741465614E+02  0.10381472111E+03  0.92485054955E+02 0.  0.
        -11    1    3    3    0    0 -0.28188956896E+02 -0.21454059717E+02  0.63819114486E+01  0.35994760215E+02  0.00000000000E+00 0.  1.
         12    1    3    3    0    0  0.26409658888E+02  0.12941841114E+02  0.28543270881E+02  0.40983894966E+02  0.00000000000E+00 0. -1.
        -13    1    4    4    0    0 -0.53366807519E+02  0.13323673073E+02 -0.21214153833E+02  0.58954022185E+02  0.00000000000E+00 0.  1.
         13    1    4    4    0    0  0.40055567694E+02  0.10041272152E+02 -0.17527311782E+02  0.44860698925E+02  0.00000000000E+00 0. -1.
          3    1    1    2  501    0  0.15090537833E+02 -0.14852726622E+02 -0.13191835213E+03  0.13360680914E+03  0.00000000000E+00 0. -1.
<scales pt_clust_5="13000.00000" pt_clust_6="13000.00000" pt_clust_7="13000.00000" pt_clust_8="13000.00000" pt_clust_9="21.17375"></scales>
<clustering>
<clus scale="   21.174">  2  9  1 -1</clus>
<clus scale="   68.046">  5  6 -1 -1</clus>
<clus scale="   69.098">  1  5  2 -1</clus>
<clus scale="   92.485">  7  8 -1 -1</clus>
<clus scale="   21.174">  2  5  1 -1</clus>
</clustering>
</event>
<event>
 9    2  0.6469128E-005  0.8281454E+02  0.7546771E-02  0.1321883E+00
          4   -1    0    0  502    0 -0.00000000000E+00  0.00000000000E+00  0.26753533708E+03  0.26753533708E+03  0.00000000000E+00 0. -1.
         21   -1    0    0  501  502  0.00000000000E+00 -0.00000000000E+00 -0.59834950403E+02  0.59834950403E+02  0.00000000000E+00 0.  1.
         24    2    1    2    0    0 -0.15077004594E+01  0.26527467061E+02  0.19668548556E+03  0.21302656674E+03  0.77389652025E+02 0.  0.
         23    2    1    2    0    0 -0.18540377370E+02 -0.27802416353E+02 -0.93808616454E+01  0.85716145588E+02  0.78374339558E+02 0.  0.
        -11    1    3    3    0    0  0.31395692323E+02 -0.71763322351E+01  0.55214491984E+02  0.63920492534E+02  0.00000000000E+00 0.  1.
         12    1    3    3    0    0 -0.32903392783E+02  0.33703799296E+02  0.14147099357E+03  0.14910607421E+03  0.00000000000E+00 0. -1.
        -13    1    4    4    0    0  0.10413601076E+02 -0.47944732369E+02  0.57832998476E+00  0.49066026076E+02  0.00000000000E+00 0.  1.
         13    1    4    4    0    0 -0.28953978446E+02  0.20142316016E+02 -0.99591916302E+01  0.36650119512E+02  0.00000000000E+00 0. -1.
          3    1    1    2  501    0  0.20048077829E+02  0.12749492924E+01  0.20395762768E+02  0.28627575154E+02  0.00000000000E+00 0. -1.
<scales pt_clust_5="13000.00000" pt_clust_6="13000.00000" pt_clust_7="13000.00000" pt_clust_8="13000.00000" pt_clust_9="20.08859"></scales>
<clustering>
<clus scale="   20.089">  2  9  1 -1</clus>
<clus scale="   77.390">  5  6 -1 -1</clus>
<clus scale="   78.374">  7  8 -1 -1</clus>
<clus scale="   81.883">  1  5  2 -1</clus>
<clus scale="   20.089">  2  5  1 -1</clus>
</clustering>
</event>
<event>
 9    2  0.6469128E-005  0.1098134E+03  0.7546771E-02  0.1262730E+00
          2   -1    0    0  502    0 -0.00000000000E+00  0.00000000000E+00  0.84318006495E+03  0.84318006495E+03  0.00000000000E+00 0. -1.
         21   -1    0    0  501  502  0.00000000000E+00 -0.00000000000E+00 -0.21534224980E+02  0.21534224980E+02  0.00000000000E+00 0. -1.
         24    2    1    2    0    0  0.68901297106E+02  0.40813777865E+02  0.53442285273E+03  0.54668348488E+03  0.82715741655E+02 0.  0.
         23    2    1    2    0    0 -0.31887471617E+02 -0.28206003874E+02  0.20962340147E+03  0.23113618523E+03  0.87576116471E+02 0.  0.
        -13    1    3    3    0    0 -0.14104715901E+02  0.23866510379E+02  0.86984948959E+02  0.91295863399E+02  0.00000000000E+00 0.  1.
         14    1    3    3    0    0  0.83006013007E+02  0.16947267487E+02  0.44743790377E+03  0.45538762148E+03  0.00000000000E+00 0. -1.
        -11    1    4    4    0    0 -0.49096418908E+02 -0.22400126264E+01  0.18503339940E+03  0.19144930112E+03  0.00000000000E+00 0.  1.
         11    1    4    4    0    0  0.17208947290E+02 -0.25965991248E+02  0.24590002076E+02  0.39686884110E+02  0.00000000000E+00 0. -1.
          1    1    1    2  501    0 -0.37013825489E+02 -0.12607773991E+02  0.77599585768E+02  0.86894619820E+02  0.00000000000E+00 0. -1.
<scales pt_clust_5="13000.00000" pt_clust_6="13000.00000" pt_clust_7="13000.00000" pt_clust_8="13000.00000" pt_clust_9="39.10216"></scales>
<clustering>
<clus scale="   39.102">  2  9  1 -1</clus>
<clus scale="   82.716">  5  6 -1 -1</clus>
<clus scale="   87.576">  7  8 -1 -1</clus>
<clus scale="  105.978">  1  5  2 -1</clus>
<clus scale="   39.102">  2  5  1 -1</clus>
</clustering>
</event>
<event>
 9    2  0.6469128E-005  0.1065610E+03  0.7546771E-02  0.1273103E+00
          2   -1    0    0  502    0 -0.00000000000E+00  0.00000000000E+00  0.84213614518E+03  0.84213614518E+03  0.00000000000E+00 0. -1.
         21   -1    0    0  501  502  0.00000000000E+00 -0.00000000000E+00 -0.73157362693E+02  0.73157362693E+02  0.00000000000E+00 0. -1.
         24    2    1    2    0    0  0.52299691480E+02  0.18185377148E+02  0.74455374938E+03  0.75085528086E+03  0.79733314268E+02 0.  0.
         23    2    1    2    0    0  0.13300587836E+02 -0.19505454243E+02  0.70944019098E+01  0.96574466237E+02  0.93375203392E+02 0.  0.
        -11    1    3    3    0    0  0.46750353979E+02 -0.10209191791E+02  0.20437389594E+03  0.20990119708E+03  0.00000000000E+00 0.  1.
         12    1    3    3    0    0  0.55493375005E+01  0.28394568939E+02  0.54017985344E+03  0.54095408377E+03  0.00000000000E+00 0. -1.
        -11    1    4    4    0    0  0.31034457406E+02 -0.50802182468E+02 -0.16524752478E+01  0.59554428588E+02  0.00000000000E+00 0.  1.
         11    1    4    4    0    0 -0.17733869570E+02  0.31296728225E+02  0.87468771575E+01  0.37020037649E+02  0.00000000000E+00 0. -1.
          1    1    1    2  501    0 -0.65600279315E+02  0.13200770941E+01  0.17330631200E+02  0.67863760783E+02  0.00000000000E+00 0. -1.
<scales pt_clust_5="13000.00000" pt_clust_6="13000.00000" pt_clust_7="13000.00000" pt_clust_8="13000.00000" pt_clust_9="65.61356"></scales>
<clustering>
<clus scale="   65.614">  2  9  1 -1</clus>
<clus scale="   79.733">  5  6 -1 -1</clus>
<clus scale="   93.375">  7  8 -1 -1</clus>
<clus scale="   94.835">  1  5  2 -1</clus>
<clus scale="   65.614">  2  5  1 -1</clus>
</clustering>
</event>
<event>
 9    2  0.6469128E-005  0.8183409E+02  0.7546771E-02  0.1328763E+00
          2   -1    0    0  502    0 -0.00000000000E+00  0.00000000000E+00  0.99014137960E+02  0.99014137960E+02  0.00000000000E+00 0. -1.
         21   -1    0    0  501  502  0.00000000000E+00 -0.00000000000E+00 -0.12047361180E+03  0.12047361180E+03  0.00000000000E+00 0. -1.
         23    2    1    2    0    0 -0.16450712094E+02  0.43840696466E+01  0.38444851373E+02  0.84435059584E+02  0.73221763805E+02 0.  0.
         24    2    1    2    0    0  0.42380814500E+01 -0.25869416721E+02 -0.17650985941E+02  0.86102581231E+02  0.80093127883E+02 0.  0.
        -13    1    4    4    0    0  0.17011425273E+02 -0.23363388839E+02  0.27025859684E+02  0.39568088398E+02  0.00000000000E+00 0.  1.
         14    1    4    4    0    0 -0.12773343823E+02 -0.25060278826E+01 -0.44676845625E+02  0.46534492832E+02  0.00000000000E+00 0. -1.
        -13    1    3    3    0    0  0.24299705034E+02 -0.81597857018E+01 -0.19418856130E+01  0.25706588400E+02  0.00000000000E+00 0.  1.
         13    1    3    3    0    0 -0.40750417128E+02  0.12543855348E+02  0.40386736986E+02  0.58728471183E+02  0.00000000000E+00 0. -1.
          1    1    1    2  501    0  0.12212630644E+02  0.21485347074E+02 -0.42253339276E+02  0.48950108949E+02  0.00000000000E+00 0. -1.
<scales pt_clust_5="13000.00000" pt_clust_6="13000.00000" pt_clust_7="13000.00000" pt_clust_8="13000.00000" pt_clust_9="24.71373"></scales>
<clustering>
<clus scale="   24.714">  2  9  1 -1</clus>
<clus scale="   73.222">  7  8 -1 -1</clus>
<clus scale="   75.122">  1  7  2 -1</clus>
<clus scale="   80.093">  5  6 -1 -1</clus>
<clus scale="   24.714">  2  5  1 -1</clus>
</clustering>
</event>
<event>
 9    2  0.6469128E-005  0.1993689E+03  0.7546771E-02  0.1151132E+00
         21   -1    0    0  501  502  0.00000000000E+00  0.00000000000E+00  0.52056857944E+03  0.52056857944E+03  0.00000000000E+00 0.  1.
         -1   -1    0    0    0  501 -0.00000000000E+00 -0.00000000000E+00 -0.31452411287E+03  0.31452411287E+03  0.00000000000E+00 0.  1.
         23    2    1    2    0    0 -0.16702399511E+03 -0.17551266339E+02 -0.10068036918E+03  0.21530798994E+03  0.89531736841E+02 0.  0.
         24    2    1    2    0    0  0.19183590982E+03 -0.41791222102E+02 -0.80803713014E+02  0.22695453786E+03  0.80197254805E+02 0.  0.
        -11    1    4    4    0    0  0.80400218159E+02 -0.57359199349E+02 -0.27957856269E+02  0.10264460316E+03  0.00000000000E+00 0.  1.
         12    1    4    4    0    0  0.11143569166E+03  0.15567977247E+02 -0.52845856745E+02  0.12430993470E+03  0.00000000000E+00 0. -1.
        -13    1    3    3    0    0 -0.63191709645E+02 -0.22233185663E+02 -0.88005063610E+02  0.11060017149E+03  0.00000000000E+00 0.  1.
         13    1    3    3    0    0 -0.10383228546E+03  0.46819193240E+01 -0.12675305567E+02  0.10470781845E+03  0.00000000000E+00 0. -1.
         -2    1    1    2    0  502 -0.24811914710E+02  0.59342488441E+02  0.38752854876E+03  0.39283016451E+03  0.00000000000E+00 0.  1.
<scales pt_clust_5="13000.00000" pt_clust_6="13000.00000" pt_clust_7="13000.00000" pt_clust_8="13000.00000" pt_clust_9="64.32077"></scales>
<clustering>
<clus scale="   64.321">  1  9  2 -1</clus>
<clus scale="   80.197">  5  6 -1 -1</clus>
<clus scale="   89.532">  7  8 -1 -1</clus>
<clus scale="  195.355">  1  5  2 -1</clus>
<clus scale="   64.321">  1  5  2 -1</clus>
</clustering>
</event>
<event>
 9    2  0.6469128E-005  0.9372356E+02  0.7546771E-02  0.1300396E+00
          2   -1    0    0  502    0 -0.00000000000E+00  0.00000000000E+00  0.15136949892E+03  0.15136949892E+03  0.00000000000E+00 0. -1.
         21   -1    0    0  501  502  0.00000000000E+00 -0.00000000000E+00 -0.22266012293E+03  0.22266012293E+03  0.00000000000E+00 0. -1.
         23    2    1    2    0    0  0.12752105802E+02  0.10395396007E+02  0.83990651926E+02  0.12478360218E+03  0.90806592828E+02 0.  0.
         24    2    1    2    0    0 -0.70814191903E+01 -0.43011751326E+02 -0.72074991230E+00  0.91179769243E+02  0.80081668245E+02 0.  0.
        -11    1    4    4    0    0 -0.18918733741E+02 -0.62281352327E+02 -0.11545849479E+02  0.66107427527E+02  0.00000000000E+00 0.  1.
         12    1    4    4    0    0  0.11837314550E+02  0.19269601001E+02  0.10825099567E+02  0.25072341716E+02  0.00000000000E+00 0. -1.
        -11    1    3    3    0    0  0.34636065995E+02 -0.24674251564E+02  0.68523841002E+02  0.80647334386E+02  0.00000000000E+00 0.  1.
         11    1    3    3    0    0 -0.21883960193E+02  0.35069647571E+02  0.15466810924E+02  0.44136267792E+02  0.00000000000E+00 0. -1.
          1    1    1    2  501    0 -0.56706866118E+01  0.32616355319E+02 -0.15456052602E+03  0.15806625043E+03  0.00000000000E+00 0. -1.
<scales pt_clust_5="13000.00000" pt_clust_6="13000.00000" pt_clust_7="13000.00000" pt_clust_8="13000.00000" pt_clust_9="33.10564"></scales>
<clustering>
<clus scale="   33.106">  2  9  1 -1</clus>
<clus scale="   80.082">  5  6 -1 -1</clus>
<clus scale="   83.375">  2  5  1 -1</clus>
<clus scale="   90.807">  7  8 -1 -1</clus>
<clus scale="   33.106">  2  5  1 -1</clus>
</clustering>
</event>
<event>
 9    2  0.6469128E-005  0.1085234E+03  0.7546771E-02  0.1268179E+00
          4   -1    0    0  502    0 -0.00000000000E+00  0.00000000000E+00  0.25536961867E+03  0.25536961867E+03  0.00000000000E+00 0. -1.
         21   -1    0    0  501  502  0.00000000000E+00 -0.00000000000E+00 -0.78384146764E+02  0.78384146764E+02  0.00000000000E+00 0.  1.
         24    2    1    2    0    0  0.36813672841E+02 -0.59798923801E+02  0.13095066694E+03  0.16815773065E+03  0.78726027538E+02 0.  0.
         23    2    1    2    0    0 -0.54595972691E+00  0.48435605602E+02  0.66482331450E+02  0.12243849367E+03  0.90691666521E+02 0.  0.
        -11    1    3    3    0    0  0.57121442281E+02 -0.39514758196E+02  0.60600672072E+02  0.92177636871E+02  0.00000000000E+00 0.  1.
         12    1    3    3    0    0 -0.20307769440E+02 -0.20284165605E+02  0.70349994863E+02  0.75980093782E+02  0.00000000000E+00 0. -1.
        -13    1    4    4    0    0  0.35438623375E+02  0.16489146961E+02 -0.15394733129E+01  0.39117233699E+02  0.00000000000E+00 0.  1.
         13    1    4    4    0    0 -0.35984583102E+02  0.31946458640E+02  0.68021804763E+02  0.83321259975E+02  0.00000000000E+00 0. -1.
          3    1    1    2  501    0 -0.36267713114E+02  0.11363318200E+02 -0.20447526481E+02  0.43157541104E+02  0.00000000000E+00 0. -1.
<scales pt_clust_5="13000.00000" pt_clust_6="13000.00000" pt_clust_7="13000.00000" pt_clust_8="13000.00000" pt_clust_9="38.00621"></scales>
<clustering>
<clus scale="   38.006">  2  9  1 -1</clus>
<clus scale="   78.726">  5  6 -1 -1</clus>
<clus scale="   90.692">  7  8 -1 -1</clus>
<clus scale="   98.743">  1  5  2 -1</clus>
<clus scale="   38.006">  2  5  1 -1</clus>
</clustering>
</event>
<event>
 9    2  0.6469128E-005  0.9566882E+02  0.7546771E-02  0.1294835E+00
         -1   -1    0    0    0  501 -0.00000000000E+00  0.00000000000E+00  0.11377433336E+03  0.11377433336E+03  0.00000000000E+00 0.  1.
         21   -1    0    0  501  502  0.00000000000E+00 -0.00000000000E+00 -0.10870821511E+03  0.10870821511E+03  0.00000000000E+00 0.  1.
         24    2    1    2    0    0  0.24686986197E+02  0.22387630452E+02 -0.29701370359E+01  0.86843202893E+02  0.80139047224E+02 0.  0.
         23    2    1    2    0    0 -0.79577398523E+01 -0.36992733372E+02 -0.20596368914E+02  0.99403950131E+02  0.89583184490E+02 0.  0.
        -13    1    3    3    0    0  0.50023652114E+02  0.17225003334E+02  0.15426501920E+02  0.55109377353E+02  0.00000000000E+00 0.  1.
         14    1    3    3    0    0 -0.25336665918E+02  0.51626271185E+01 -0.18396638956E+02  0.31733825541E+02  0.00000000000E+00 0. -1.
        -11    1    4    4    0    0 -0.45266706816E+02 -0.32684999342E+02 -0.25767720155E+02  0.61492758354E+02  0.00000000000E+00 0.  1.
         11    1    4    4    0    0  0.37308966963E+02 -0.43077340293E+01  0.51713512409E+01  0.37911191778E+02  0.00000000000E+00 0. -1.
         -2    1    1    2    0  502 -0.16729246345E+02  0.14605102919E+02  0.28632624197E+02  0.36235395444E+02  0.00000000000E+00 0.  1.
<scales pt_clust_5="13000.00000" pt_clust_6="13000.00000" pt_clust_7="13000.00000" pt_clust_8="13000.00000" pt_clust_9="22.20759"></scales>
<clustering>
<clus scale="   22.208">  2  9  1 -1</clus>
<clus scale="   80.139">  5  6 -1 -1</clus>
<clus scale="   86.889">  1  5  2 -1</clus>
<clus scale="   89.583">  7  8 -1 -1</clus>
<clus scale="   22.208">  2  5  1 -1</clus>
</clustering>
</event>
<event>
 9    2  0.6469128E-005  0.9454076E+02  0.7546771E-02  0.1292588E+00
         21   -1    0    0  501  502  0.00000000000E+00  0.00000000000E+00  0.28578691723E+03  0.28578691723E+03  0.00000000000E+00 0.  1.
          2   -1    0    0  502    0 -0.00000000000E+00 -0.00000000000E+00 -0.62165369184E+03  0.62165369184E+03  0.00000000000E+00 0. -1.
         24    2    1    2    0    0 -0.54603210834E+01  0.12589881922E+02 -0.60521156602E+03  0.61256095240E+03  0.93603207882E+02 0.  0.
         23    2    1    2    0    0 -0.18771123757E+01  0.11671197642E+02  0.19512879096E+03  0.21645483514E+03  0.92939282271E+02 0.  0.
        -11    1    3    3    0    0  0.21683900490E+02  0.23056129354E+02 -0.73139994963E+02  0.79694639120E+02  0.00000000000E+00 0.  1.
         12    1    3    3    0    0 -0.27144221573E+02 -0.10466247432E+02 -0.53207157105E+03  0.53286631328E+03  0.00000000000E+00 0. -1.
        -11    1    4    4    0    0  0.37076349462E+02  0.32678519951E+02  0.10444062507E+03  0.11554386838E+03  0.00000000000E+00 0.  1.
         11    1    4    4    0    0 -0.38953461838E+02 -0.21007322309E+02  0.90688165894E+02  0.10091096676E+03  0.00000000000E+00 0. -1.
          1    1    1    2  501    0  0.73374334591E+01 -0.24261079564E+02  0.74216000440E+02  0.78424821534E+02  0.00000000000E+00 0. -1.
<scales pt_clust_5="13000.00000" pt_clust_6="13000.00000" pt_clust_7="13000.00000" pt_clust_8="13000.00000" pt_clust_9="25.34636"></scales>
<clustering>
<clus scale="   25.346">  1  9  2 -1</clus>
<clus scale="   92.939">  7  8 -1 -1</clus>
<clus scale="   93.603">  5  6 -1 -1</clus>
<clus scale="   93.883">  1  7  2 -1</clus>
<clus scale="   25.346">  1  5  2 -1</clus>
</clustering>
</event>
<event>
 9    2  0.6469128E-005  0.1100389E+03  0.7546771E-02  0.1267809E+00
          2   -1    0    0  502    0 -0.00000000000E+00  0.00000000000E+00  0.66291417976E+03  0.66291417976E+03  0.00000000000E+00 0. -1.
         21   -1    0    0  501  502  0.00000000000E+00 -0.00000000000E+00 -0.71640488760E+02  0.71640488760E+02  0.00000000000E+00 0. -1.
         24    2    1    2    0    0  0.17939161649E+02  0.45587186922E+02  0.46497895149E+03  0.47422386212E+03  0.79264373705E+02 0.  0.
         23    2    1    2    0    0 -0.97668950493E+02 -0.53565093273E+02  0.87142674072E+02  0.17114913538E+03  0.96383285838E+02 0.  0.
        -11    1    3    3    0    0  0.37173051080E+02  0.29304114664E+02  0.13089470032E+03  0.13919047896E+03  0.00000000000E+00 0.  1.
         12    1    3    3    0    0 -0.19233889431E+02  0.16283072258E+02  0.33408425117E+03  0.33503338315E+03  0.00000000000E+00 0. -1.
        -11    1    4    4    0    0 -0.72626270516E+02 -0.80190493765E+02  0.50510796345E+02  0.11940029735E+03  0.00000000000E+00 0.  1.
         11    1    4    4    0    0 -0.25042679977E+02  0.26625400492E+02  0.36631877727E+02  0.51748838031E+02  0.00000000000E+00 0. -1.
          1    1    1    2  501    0  0.79729788844E+02  0.79779063504E+01  0.39152065440E+02  0.89181671027E+02  0.00000000000E+00 0. -1.
<scales pt_clust_5="13000.00000" pt_clust_6="13000.00000" pt_clust_7="13000.00000" pt_clust_8="13000.00000" pt_clust_9="80.12794"></scales>
<clustering>
<clus scale="   79.264">  5  6 -1 -1</clus>
<clus scale="   80.128">  2  9  1 -1</clus>
<clus scale="   95.403">  1  5  2 -1</clus>
<clus scale="   96.383">  7  8 -1 -1</clus>
<clus scale="   80.128">  2  5  1 -1</clus>
</clustering>
</event>
<event>
 9    2  0.6469128E-005  0.1003130E+03  0.7546771E-02  0.1284579E+00
          2   -1    0    0  502    0 -0.00000000000E+00  0.00000000000E+00  0.80324115368E+03  0.80324115368E+03  0.00000000000E+00 0. -1.
         21   -1    0    0  501  502  0.00000000000E+00 -0.00000000000E+00 -0.26275894707E+02  0.26275894707E+02  0.00000000000E+00 0. -1.
         24    2    1    2    0    0  0.55472545520E+02  0.38765525627E+02  0.57301167380E+03  0.58256069051E+03  0.80340590809E+02 0.  0.
         23    2    1    2    0    0 -0.26275035355E+02 -0.14105823329E+02  0.54535983692E+02  0.92728555102E+02  0.68811769918E+02 0.  0.
        -11    1    3    3    0    0 -0.51725364064E+01  0.31435044091E+02  0.85601311362E+02  0.91337295980E+02  0.00000000000E+00 0.  1.
         12    1    3    3    0    0  0.60645081927E+02  0.73304815358E+01  0.48741036244E+03  0.49122339453E+03  0.00000000000E+00 0. -1.
        -13    1    4    4    0    0  0.23445622958E+02 -0.68085278902E+01  0.21984100874E+02  0.32853523086E+02  0.00000000000E+00 0.  1.
         13    1    4    4    0    0 -0.49720658313E+02 -0.72972954387E+01  0.32551882818E+02  0.59875032016E+02  0.00000000000E+00 0. -1.
          1    1    1    2  501    0 -0.29197510165E+02 -0.24659702298E+02  0.14941760148E+03  0.15422780278E+03  0.00000000000E+00 0. -1.
<scales pt_clust_5="13000.00000" pt_clust_6="13000.00000" pt_clust_7="13000.00000" pt_clust_8="13000.00000" pt_clust_9="38.21776"></scales>
<clustering>
<clus scale="   38.218">  2  9  1 -1</clus>
<clus scale="   68.812">  7  8 -1 -1</clus>
<clus scale="   80.341">  5  6 -1 -1</clus>
<clus scale="   91.341">  2  7  1 -1</clus>
<clus scale="   38.218">  2  5  1 -1</clus>
</clustering>
</event>
<event>
 9    2  0.6469128E-005  0.1576006E+03  0.7546771E-02  0.1193169E+00
         21   -1    0    0  501  502  0.00000000000E+00  0.00000000000E+00  0.20056538105E+03  0.20056538105E+03  0.00000000000E+00 0. -1.
          2   -1    0    0  502    0 -0.00000000000E+00 -0.00000000000E+00 -0.23746718752E+03  0.23746718752E+03  0.00000000000E+00 0. -1.
         24    2    1    2    0    0 -0.10453194675E+03 -0.17992991695E+02 -0.42577712924E+02  0.14098030284E+03  0.82534286869E+02 0.  0.
         23    2    1    2    0    0  0.18067769792E+03 -0.26614202659E+02  0.25801000397E+02  0.20653709234E+03  0.92946934218E+02 0.  0.
        -11    1    3    3    0    0 -0.38146224925E+02 -0.24768924656E+02 -0.56784850691E+02  0.72754060868E+02  0.00000000000E+00 0.  1.
         12    1    3    3    0    0 -0.66385721829E+02  0.67759329614E+01  0.14207137768E+02  0.68226241974E+02  0.00000000000E+00 0. -1.
        -13    1    4    4    0    0  0.28248685933E+02 -0.14829897238E+01  0.42603207564E+02  0.51139229660E+02  0.00000000000E+00 0. -1.
         13    1    4    4    0    0  0.15242901199E+03 -0.25131212935E+02 -0.16802207167E+02  0.15539786268E+03  0.00000000000E+00 0.  1.
          1    1    1    2  501    0 -0.76145751164E+02  0.44607194354E+02 -0.20125093937E+02  0.90515173394E+02  0.00000000000E+00 0. -1.
<scales pt_clust_5="13000.00000" pt_clust_6="13000.00000" pt_clust_7="13000.00000" pt_clust_8="13000.00000" pt_clust_9="88.24956"></scales>
<clustering>
<clus scale="   82.534">  5  6 -1 -1</clus>
<clus scale="   88.250">  1  9  2 -1</clus>
<clus scale="   92.947">  7  8 -1 -1</clus>
<clus scale="  151.693">  2  5  1 -1</clus>
<clus scale="   88.250">  1  5  2 -1</clus>
</clustering>
</event>
<event>
 9    2  0.6469128E-005  0.9301808E+02  0.7546771E-02  0.1303488E+00
         21   -1    0    0  501  502  0.00000000000E+00  0.00000000000E+00  0.11788541831E+03  0.11788541831E+03  0.00000000000E+00 0.  1.
          2   -1    0    0  502    0 -0.00000000000E+00 -0.00000000000E+00 -0.35191971542E+03  0.35191971542E+03  0.00000000000E+00 0. -1.
         24    2    1    2    0    0 -0.28981028048E+01  0.92404789936E+01 -0.28382783548E+03  0.29492127679E+03  0.79539511306E+02 0.  0.
         23    2    1    2    0    0  0.41211496454E+02 -0.25703682651E+02 -0.70547314913E+01  0.10438081450E+03  0.92122301628E+02 0.  0.
        -11    1    3    3    0    0  0.22266642371E+02 -0.27626041140E+02 -0.12778877379E+03  0.13262342259E+03  0.00000000000E+00 0.  1.
         12    1    3    3    0    0 -0.25164745176E+02  0.36866520134E+02 -0.15603906169E+03  0.16229785420E+03  0.00000000000E+00 0. -1.
        -13    1    4    4    0    0 -0.21174576657E+02 -0.82276267388E+01 -0.28216524460E+02  0.36224698632E+02  0.00000000000E+00 0. -1.
         13    1    4    4    0    0  0.62386073111E+02 -0.17476055912E+02  0.21161792968E+02  0.68156115867E+02  0.00000000000E+00 0.  1.
          1    1    1    2  501    0 -0.38313393649E+02  0.16463203657E+02  0.56848269859E+02  0.70503042442E+02  0.00000000000E+00 0. -1.
<scales pt_clust_5="13000.00000" pt_clust_6="13000.00000" pt_clust_7="13000.00000" pt_clust_8="13000.00000" pt_clust_9="41.70076"></scales>
<clustering>
<clus scale="   41.701">  1  9  2 -1</clus>
<clus scale="   79.540">  5  6 -1 -1</clus>
<clus scale="   80.575">  2  5  1 -1</clus>
<clus scale="   92.122">  7  8 -1 -1</clus>
<clus scale="   41.701">  1  5  2 -1</clus>
</clustering>
</event>
<event>
 9    2  0.6469128E-005  0.9230104E+02  0.7546771E-02  0.1305481E+00
          2   -1    0    0  502    0 -0.00000000000E+00  0.00000000000E+00  0.12802296080E+03  0.12802296080E+03  0.00000000000E+00 0. -1.
         21   -1    0    0  501  502  0.00000000000E+00 -0.00000000000E+00 -0.20023746072E+03  0.20023746072E+03  0.00000000000E+00 0.  1.
         23    2    1    2    0    0  0.48332211335E+01 -0.17005314800E+01  0.21726970012E+01  0.91890739604E+02  0.91722056120E+02 0.  0.
         24    2    1    2    0    0 -0.86370647899E+01  0.32002227879E+02 -0.13996679955E+03  0.16402781083E+03  0.78839560332E+02 0.  0.
        -13    1    4    4    0    0 -0.29674516685E+02  0.44967799727E+02 -0.12232710831E+03  0.13366600683E+03  0.00000000000E+00 0.  1.
         14    1    4    4    0    0  0.21037451895E+02 -0.12965571847E+02 -0.17639691233E+02  0.30361804004E+02  0.00000000000E+00 0. -1.
        -13    1    3    3    0    0 -0.33879556372E+02 -0.11835712164E+01 -0.27061618566E+02  0.43376910681E+02  0.00000000000E+00 0.  1.
         13    1    3    3    0    0  0.38712777506E+02 -0.51696026360E+00  0.29234315567E+02  0.48513828923E+02  0.00000000000E+00 0. -1.
          1    1    1    2  501    0  0.38038436563E+01 -0.30301696399E+02  0.65579602630E+02  0.72341871087E+02  0.00000000000E+00 0. -1.
<scales pt_clust_5="13000.00000" pt_clust_6="13000.00000" pt_clust_7="13000.00000" pt_clust_8="13000.00000" pt_clust_9="30.53953"></scales>
<clustering>
<clus scale="   30.540">  2  9  1 -1</clus>
<clus scale="   78.840">  5  6 -1 -1</clus>
<clus scale="   79.512">  2  5  1 -1</clus>
<clus scale="   91.722">  7  8 -1 -1</clus>
<clus scale="   30.540">  2  5  1 -1</clus>
</clustering>
</event>
<event>
 9    2  0.6469128E-005  0.1562196E+03  0.7546771E-02  0.1213506E+00
         21   -1    0    0  501  502  0.00000000000E+00  0.00000000000E+00  0.20939967951E+02  0.20939967951E+02  0.00000000000E+00 0. -1.
          2   -1    0    0  502    0 -0.00000000000E+00 -0.00000000000E+00 -0.18001480396E+04  0.18001480396E+04  0.00000000000E+00 0. -1.
         24    2    1    2    0    0 -0.55664336091E+02 -0.20498258882E+02 -0.30323505483E+03  0.31941983275E+03  0.80986629430E+02 0.  0.
         23    2    1    2    0    0  0.91327058506E+02 -0.85289854457E+02 -0.83489896675E+03  0.85094635070E+03  0.10695053153E+03 0.  0.
        -11    1    3    3    0    0 -0.68141019503E+02  0.80305117311E+00 -0.26710907110E+03  0.27566483144E+03  0.00000000000E+00 0.  1.
         12    1    3    3    0    0  0.12476683412E+02 -0.21301310056E+02 -0.36125983735E+02  0.43755001312E+02  0.00000000000E+00 0. -1.
        -11    1    4    4    0    0  0.90946476888E+02 -0.12694777082E+02 -0.47716325955E+03  0.48591891843E+03  0.00000000000E+00 0.  1.
         11    1    4    4    0    0  0.38058161852E+00 -0.72595077375E+02 -0.35773570720E+03  0.36502743227E+03  0.00000000000E+00 0. -1.
          1    1    1    2  501    0 -0.35662722415E+02  0.10578811334E+03 -0.64107405010E+03  0.65072182414E+03  0.00000000000E+00 0. -1.
<scales pt_clust_5="13000.00000" pt_clust_6="13000.00000" pt_clust_7="13000.00000" pt_clust_8="13000.00000" pt_clust_9="113.86902"></scales>
<clustering>
<clus scale="   80.987">  5  6 -1 -1</clus>
<clus scale="  100.387">  2  5  1 -1</clus>
<clus scale="  106.951">  7  8 -1 -1</clus>
<clus scale="  113.869">  1  9  2 -1</clus>
<clus scale="  113.869">  1  5  2 -1</clus>
</clustering>
</event>
<event>
 9    2  0.6469128E-005  0.1590384E+03  0.7546771E-02  0.1225909E+00
         21   -1    0    0  501  502  0.00000000000E+00  0.00000000000E+00  0.62707445899E+02  0.62707445899E+02  0.00000000000E+00 0. -1.
          2   -1    0    0  502    0 -0.00000000000E+00 -0.00000000000E+00 -0.70260242334E+03  0.70260242334E+03  0.00000000000E+00 0. -1.
         24    2    1    2    0    0  0.31687264806E+01 -0.11032002373E+02 -0.17841963002E+02  0.75458335366E+02  0.72414631316E+02 0.  0.
         23    2    1    2    0    0  0.12347572436E+03 -0.34086939780E+02 -0.26020137800E+03  0.30383191952E+03  0.90558844071E+02 0.  0.
        -11    1    3    3    0    0  0.14212379478E+02  0.27146094027E+02  0.26265357293E+01  0.30753875224E+02  0.00000000000E+00 0.  1.
         12    1    3    3    0    0 -0.11043652998E+02 -0.38178096400E+02 -0.20468498731E+02  0.44704460142E+02  0.00000000000E+00 0. -1.
        -11    1    4    4    0    0  0.67361587720E+02 -0.27411647606E+02 -0.55527432619E+02  0.91500151354E+02  0.00000000000E+00 0.  1.
         11    1    4    4    0    0  0.56114136635E+02 -0.66752921745E+01 -0.20467394538E+03  0.21233176817E+03  0.00000000000E+00 0. -1.
          1    1    1    2  501    0 -0.12664445084E+03  0.45118942154E+02 -0.36185163644E+03  0.38601961435E+03  0.00000000000E+00 0. -1.
<scales pt_clust_5="13000.00000" pt_clust_6="13000.00000" pt_clust_7="13000.00000" pt_clust_8="13000.00000" pt_clust_9="130.73763"></scales>
<clustering>
<clus scale="   72.415">  5  6 -1 -1</clus>
<clus scale="   73.319">  2  5  1 -1</clus>
<clus scale="   90.559">  7  8 -1 -1</clus>
<clus scale="  130.738">  1  9  2 -1</clus>
<clus scale="  130.738">  1  5  2 -1</clus>
</clustering>
</event>
<event>
 9    2  0.6469128E-005  0.1158723E+03  0.7546771E-02  0.1254294E+00
         21   -1    0    0  501  502  0.00000000000E+00  0.00000000000E+00  0.20190974901E+02  0.20190974901E+02  0.00000000000E+00 0.  1.
          2   -1    0    0  502    0 -0.00000000000E+00 -0.00000000000E+00 -0.82569940476E+03  0.82569940476E+03  0.00000000000E+00 0. -1.
         24    2    1    2    0    0 -0.44379621382E+02  0.61341105399E+02 -0.41115562569E+03  0.42559781351E+03  0.79701118726E+02 0.  0.
         23    2    1    2    0    0  0.20423437756E+02 -0.60912259783E+02 -0.25007417537E+03  0.27403797521E+03  0.91827547431E+02 0.  0.
        -11    1    3    3    0    0 -0.12162145474E+02  0.41171960840E+02 -0.68505038116E+02  0.80845459917E+02  0.00000000000E+00 0.  1.
         12    1    3    3    0    0 -0.32217475908E+02  0.20169144559E+02 -0.34265058757E+03  0.34475235359E+03  0.00000000000E+00 0. -1.
        -13    1    4    4    0    0 -0.88549108041E+01 -0.75646774608E+02 -0.20174025817E+03  0.21563853023E+03  0.00000000000E+00 0.  1.
         13    1    4    4    0    0  0.29278348560E+02  0.14734514826E+02 -0.48333917201E+02  0.58399444976E+02  0.00000000000E+00 0. -1.
          1    1    1    2  501    0  0.23956183625E+02 -0.42884561680E+00 -0.14427862880E+03  0.14625459094E+03  0.00000000000E+00 0. -1.
<scales pt_clust_5="13000.00000" pt_clust_6="13000.00000" pt_clust_7="13000.00000" pt_clust_8="13000.00000" pt_clust_9="23.96003"></scales>
<clustering>
<clus scale="   23.960">  1  9  2 -1</clus>
<clus scale="   79.701">  5  6 -1 -1</clus>
<clus scale="   91.828">  7  8 -1 -1</clus>
<clus scale="  106.519">  2  5  1 -1</clus>
<clus scale="   23.960">  1  5  2 -1</clus>
</clustering>
</event>
<event>
 9    2  0.6469128E-005  0.1198488E+03  0.7546771E-02  0.1245227E+00
         21   -1    0    0  501  502  0.00000000000E+00  0.00000000000E+00  0.10335379057E+03  0.10335379057E+03  0.00000000000E+00 0. -1.
          2   -1    0    0  502    0 -0.00000000000E+00 -0.00000000000E+00 -0.24416337046E+03  0.24416337046E+03  0.00000000000E+00 0. -1.
         24    2    1    2    0    0  0.75398645340E+02  0.76675935459E+01 -0.80715136384E+02  0.13802556683E+03  0.82415873151E+02 0.  0.
         23    2    1    2    0    0 -0.88711918429E+02 -0.35929698258E+02  0.11976499836E+02  0.13094090562E+03  0.88551321441E+02 0.  0.
        -13    1    3    3    0    0 -0.29585355440E+01 -0.24889183488E+02 -0.80901837059E+01  0.26337719333E+02  0.00000000000E+00 0.  1.
         14    1    3    3    0    0  0.78357180884E+02  0.32556777034E+02 -0.72624952679E+02  0.11168784750E+03  0.00000000000E+00 0. -1.
        -13    1    4    4    0    0 -0.61641040766E+02 -0.19917560927E+01  0.45042362807E+02  0.76370147612E+02  0.00000000000E+00 0. -1.
         13    1    4    4    0    0 -0.27070877663E+02 -0.33937942166E+02 -0.33065862972E+02  0.54570758011E+02  0.00000000000E+00 0.  1.
          1    1    1    2  501    0  0.13313273088E+02  0.28262104712E+02 -0.72070943342E+02  0.78550688586E+02  0.00000000000E+00 0. -1.
<scales pt_clust_5="13000.00000" pt_clust_6="13000.00000" pt_clust_7="13000.00000" pt_clust_8="13000.00000" pt_clust_9="31.24085"></scales>
<clustering>
<clus scale="   31.241">  1  9  2 -1</clus>
<clus scale="   82.416">  5  6 -1 -1</clus>
<clus scale="   88.551">  7  8 -1 -1</clus>
<clus scale="  115.390">  2  5  1 -1</clus>
<clus scale="   31.241">  1  5  2 -1</clus>
</clustering>
</event>
<event>
 9    2  0.6469128E-005  0.1028438E+03  0.7546771E-02  0.1278449E+00
          2   -1    0    0  502    0 -0.00000000000E+00  0.00000000000E+00  0.22366463739E+03  0.22366463739E+03  0.00000000000E+00 0. -1.
         21   -1    0    0  501  502  0.00000000000E+00 -0.00000000000E+00 -0.80945530967E+02  0.80945530967E+02  0.00000000000E+00 0.  1.
         24    2    1    2    0    0 -0.34147320566E+02  0.41683297860E+02  0.14570904507E+03  0.17576963602E+03  0.82221057583E+02 0.  0.
         23    2    1    2    0    0  0.29337531628E+02 -0.16425463701E+02  0.14091288273E+02  0.97972092634E+02  0.90936680774E+02 0.  0.
        -13    1    3    3    0    0 -0.35707641451E+01  0.60295182431E+02  0.73170857605E+02  0.94880102148E+02  0.00000000000E+00 0.  1.
         14    1    3    3    0    0 -0.30576556421E+02 -0.18611884571E+02  0.72538187465E+02  0.80889533875E+02  0.00000000000E+00 0. -1.
        -13    1    4    4    0    0 -0.16844636871E+02 -0.18081159785E+02  0.38470667003E+02  0.45723761330E+02  0.00000000000E+00 0. -1.
         13    1    4    4    0    0  0.46182168499E+02  0.16556960845E+01 -0.24379378730E+02  0.52248331304E+02  0.00000000000E+00 0.  1.
          1    1    1    2  501    0  0.48097889377E+01 -0.25257834159E+02 -0.17081226924E+02  0.30868439696E+02  0.00000000000E+00 0. -1.
<scales pt_clust_5="13000.00000" pt_clust_6="13000.00000" pt_clust_7="13000.00000" pt_clust_8="13000.00000" pt_clust_9="25.71171"></scales>
<clustering>
<clus scale="   25.712">  2  9  1 -1</clus>
<clus scale="   82.221">  5  6 -1 -1</clus>
<clus scale="   90.937">  7  8 -1 -1</clus>
<clus scale="   95.224">  1  5  2 -1</clus>
<clus scale="   25.712">  2  5  1 -1</clus>
</clustering>
</event>
<event>
 9    2  0.6469128E-005  0.1374264E+03  0.7546771E-02  0.1223519E+00
         21   -1    0    0  501  502  0.00000000000E+00  0.00000000000E+00  0.22192448838E+03  0.22192448838E+03  0.00000000000E+00 0. -1.
          2   -1    0    0  502    0 -0.00000000000E+00 -0.00000000000E+00 -0.26084713420E+03  0.26084713420E+03  0.00000000000E+00 0. -1.
         24    2    1    2    0    0  0.80499900481E+02  0.15359330645E+02 -0.30436422999E+02  0.12325136286E+03  0.86881411052E+02 0.  0.
         23    2    1    2    0    0  0.82500948191E+02  0.30052955755E+02  0.96951329559E+02  0.16014967544E+03  0.92405474072E+02 0.  0.
        -11    1    3    3    0    0  0.20077481255E+02 -0.12613671391E+02  0.26560463664E+02  0.35604328242E+02  0.00000000000E+00 0.  1.
         12    1    3    3    0    0  0.60422419226E+02  0.27973002035E+02 -0.56996886663E+02  0.87647034617E+02  0.00000000000E+00 0. -1.
        -13    1    4    4    0    0  0.62773810489E+02  0.37516136559E+01  0.56851514325E+01  0.63142274548E+02  0.00000000000E+00 0.  1.
         13    1    4    4    0    0  0.19727137702E+02  0.26301342099E+02  0.91266178127E+02  0.97007400893E+02  0.00000000000E+00 0. -1.
          1    1    1    2  501    0 -0.16300084867E+03 -0.45412286400E+02 -0.10543755238E+03  0.19937058428E+03  0.00000000000E+00 0. -1.
<scales pt_clust_5="13000.00000" pt_clust_6="13000.00000" pt_clust_7="13000.00000" pt_clust_8="13000.00000" pt_clust_9="101.72147"></scales>
<clustering>
<clus scale="   86.881">  5  6 -1 -1</clus>
<clus scale="   92.405">  7  8 -1 -1</clus>
<clus scale="  119.434">  2  5  1 -1</clus>
<clus scale="  101.721">  1  9  2 -1</clus>
<clus scale="  101.721">  1  5  2 -1</clus>
</clustering>
</event>
<event>
 9    2  0.6469128E-005  0.1183998E+03  0.7546771E-02  0.1246611E+00
         -3   -1    0    0    0  501 -0.00000000000E+00  0.00000000000E+00  0.26778818078E+03  0.26778818078E+03  0.00000000000E+00 0.  1.
         21   -1    0    0  501  502  0.00000000000E+00 -0.00000000000E+00 -0.10758159463E+03  0.10758159463E+03  0.00000000000E+00 0.  1.
         23    2    1    2    0    0 -0.20295035550E+02  0.76415207037E+02  0.18505222203E+03  0.22057791515E+03  0.90327844213E+02 0.  0.
         24    2    1    2    0    0  0.48099008721E+02 -0.56086256514E+02 -0.44140674024E+01  0.11474468627E+03  0.87679394538E+02 0.  0.
        -13    1    4    4    0    0  0.60330123460E+02 -0.15754336589E+02 -0.25804051653E+02  0.67481641946E+02  0.00000000000E+00 0.  1.
         14    1    4    4    0    0 -0.12231114739E+02 -0.40331919925E+02  0.21389984250E+02  0.47263044324E+02  0.00000000000E+00 0. -1.
        -11    1    3    3    0    0 -0.41584287706E+02  0.73057568556E+02  0.17967061128E+03  0.19836378164E+03  0.00000000000E+00 0.  1.
         11    1    3    3    0    0  0.21289252156E+02  0.33576384814E+01  0.53816107468E+01  0.22214133513E+02  0.00000000000E+00 0. -1.
         -4    1    1    2    0  502 -0.27803973170E+02 -0.20328950523E+02 -0.20431568481E+02  0.40047173983E+02  0.00000000000E+00 0.  1.
<scales pt_clust_5="13000.00000" pt_clust_6="13000.00000" pt_clust_7="13000.00000" pt_clust_8="13000.00000" pt_clust_9="34.44310"></scales>
<clustering>
<clus scale="   34.443">  2  9  1 -1</clus>
<clus scale="   87.679">  5  6 -1 -1</clus>
<clus scale="   90.328">  7  8 -1 -1</clus>
<clus scale="  116.392">  2  5  1 -1</clus>
<clus scale="   34.443">  2  5  1 -1</clus>
</clustering>
</event>
<event>
 9    2  0.6469128E-005  0.9551910E+02  0.7546771E-02  0.1297002E+00
         -1   -1    0    0    0  501 -0.00000000000E+00  0.00000000000E+00  0.12551260300E+03  0.12551260300E+03  0.00000000000E+00 0.  1.
         21   -1    0    0  501  502  0.00000000000E+00 -0.00000000000E+00 -0.15040263992E+03  0.15040263992E+03  0.00000000000E+00 0.  1.
         23    2    1    2    0    0 -0.14505373826E+00 -0.93629808744E+01  0.10264690903E+02  0.93429486954E+02  0.92390576910E+02 0.  0.
         24    2    1    2    0    0  0.32721458427E+02 -0.54900148911E+02 -0.67605081583E+00  0.10261241147E+03  0.80275337130E+02 0.  0.
        -13    1    4    4    0    0 -0.84198953064E+01 -0.19866000452E+02 -0.33160976268E+02  0.39562645993E+02  0.00000000000E+00 0.  1.
         14    1    4    4    0    0  0.41141353734E+02 -0.35034148459E+02  0.32484925452E+02  0.63049765479E+02  0.00000000000E+00 0. -1.
        -13    1    3    3    0    0  0.17583866152E+02 -0.46561652465E+02 -0.37289797943E+01  0.49910771577E+02  0.00000000000E+00 0.  1.
         13    1    3    3    0    0 -0.17728919890E+02  0.37198671590E+02  0.13993670697E+02  0.43518715378E+02  0.00000000000E+00 0. -1.
         -2    1    1    2    0  502 -0.32576404689E+02  0.64263129786E+02 -0.34478677006E+02  0.79873344493E+02  0.00000000000E+00 0.  1.
<scales pt_clust_5="13000.00000" pt_clust_6="13000.00000" pt_clust_7="13000.00000" pt_clust_8="13000.00000" pt_clust_9="72.04840"></scales>
<clustering>
<clus scale="   72.048">  2  9  1 -1</clus>
<clus scale="   80.275">  5  6 -1 -1</clus>
<clus scale="   83.857">  2  5  1 -1</clus>
<clus scale="   92.391">  7  8 -1 -1</clus>
<clus scale="   72.048">  2  5  1 -1</clus>
</clustering>
</event>
<event>
 9    2  0.6469128E-005  0.9330988E+02  0.7546771E-02  0.1298649E+00
         21   -1    0    0  501  502  0.00000000000E+00  0.00000000000E+00  0.90757278409E+02  0.90757278409E+02  0.00000000000E+00 0.  1.
          2   -1    0    0  502    0 -0.00000000000E+00 -0.00000000000E+00 -0.13992752607E+04  0.13992752607E+04  0.00000000000E+00 0. -1.
         24    2    1    2    0    0  0.21873320490E+02  0.13101720798E+02 -0.13488538568E+04  0.13516665427E+04  0.83340375541E+02 0.  0.
         23    2    1    2    0    0 -0.49345892128E+02 -0.10652441204E+01  0.32081391700E+02  0.10725722844E+03  0.89659051655E+02 0.  0.
        -13    1    3    3    0    0  0.18630875297E+02  0.26211091722E+02 -0.18774627233E+03  0.19048042844E+03  0.00000000000E+00 0.  1.
         14    1    3    3    0    0  0.32424451922E+01 -0.13109370924E+02 -0.11611075845E+04  0.11611861142E+04  0.00000000000E+00 0. -1.
        -11    1    4    4    0    0 -0.65702249749E+02  0.14333874478E+02 -0.10167742998E+01  0.67255329972E+02  0.00000000000E+00 0.  1.
         11    1    4    4    0    0  0.16356357622E+02 -0.15399118598E+02  0.33098166000E+02  0.40001898465E+02  0.00000000000E+00 0. -1.
          1    1    1    2  501    0  0.27472571638E+02 -0.12036476678E+02  0.82544828108E+01  0.31108768052E+02  0.00000000000E+00 0. -1.
<scales pt_clust_5="13000.00000" pt_clust_6="13000.00000" pt_clust_7="13000.00000" pt_clust_8="13000.00000" pt_clust_9="29.99365"></scales>
<clustering>
<clus scale="   29.994">  1  9  2 -1</clus>
<clus scale="   83.340">  5  6 -1 -1</clus>
<clus scale="   87.256">  2  5  1 -1</clus>
<clus scale="   89.659">  7  8 -1 -1</clus>
<clus scale="   29.994">  1  5  2 -1</clus>
</clustering>
</event>
<event>
 9    2  0.6469128E-005  0.9383699E+02  0.7546771E-02  0.1297141E+00
          2   -1    0    0  502    0 -0.00000000000E+00  0.00000000000E+00  0.34694753299E+03  0.34694753299E+03  0.00000000000E+00 0. -1.
         21   -1    0    0  501  502  0.00000000000E+00 -0.00000000000E+00 -0.46705233172E+02  0.46705233172E+02  0.00000000000E+00 0. -1.
         23    2    1    2    0    0  0.26212119517E+02 -0.10511311915E+02  0.19002867999E+03  0.21152357106E+03  0.88508525046E+02 0.  0.
         24    2    1    2    0    0 -0.15800619446E+02  0.39226996652E+02  0.11850706307E+03  0.15047842759E+03  0.82531305152E+02 0.  0.
        -13    1    4    4    0    0 -0.39809389215E+02 -0.36395654438E+00  0.83255943034E+02  0.92284733215E+02  0.00000000000E+00 0.  1.
         14    1    4    4    0    0  0.24008769769E+02  0.39590953197E+02  0.35251120039E+02  0.58193694374E+02  0.00000000000E+00 0. -1.
        -11    1    3    3    0    0 -0.35613953370E+01  0.24054009515E+02  0.10847644263E+02  0.26626120569E+02  0.00000000000E+00 0.  1.
         11    1    3    3    0    0  0.29773514854E+02 -0.34565321430E+02  0.17918103573E+03  0.18489745049E+03  0.00000000000E+00 0. -1.
          1    1    1    2  501    0 -0.10411500071E+02 -0.28715684738E+02 -0.82934432442E+01  0.31650767519E+02  0.00000000000E+00 0. -1.
<scales pt_clust_5="13000.00000" pt_clust_6="13000.00000" pt_clust_7="13000.00000" pt_clust_8="13000.00000" pt_clust_9="30.54488"></scales>
<clustering>
<clus scale="   30.545">  2  9  1 -1</clus>
<clus scale="   82.531">  5  6 -1 -1</clus>
<clus scale="   88.222">  2  5  1 -1</clus>
<clus scale="   88.509">  7  8 -1 -1</clus>
<clus scale="   30.545">  2  5  1 -1</clus>
</clustering>
</event>
<event>
 9    2  0.6469128E-005  0.1205721E+03  0.7546771E-02  0.1249300E+00
         21   -1    0    0  501  502  0.00000000000E+00  0.00000000000E+00  0.12504343805E+03  0.12504343805E+03  0.00000000000E+00 0.  1.
          2   -1    0    0  502    0 -0.00000000000E+00 -0.00000000000E+00 -0.31258415901E+03  0.31258415901E+03  0.00000000000E+00 0. -1.
         23    2    1    2    0    0  0.84646354392E+01  0.64049905805E+02 -0.25657320350E+03  0.28328654470E+03  0.10122952715E+03 0.  0.
         24    2    1    2    0    0  0.11942375290E+02 -0.74061799669E+02  0.71088460593E+02  0.13151757429E+03  0.81335924537E+02 0.  0.
        -11    1    4    4    0    0 -0.33608525973E+02 -0.41791637635E+02  0.44491655316E+02  0.69682001888E+02  0.00000000000E+00 0.  1.
         12    1    4    4    0    0  0.45550901263E+02 -0.32270162034E+02  0.26596805276E+02  0.61835572404E+02  0.00000000000E+00 0. -1.
        -13    1    3    3    0    0  0.35570843166E+02  0.62629644290E+02 -0.93787346350E+02  0.11825321798E+03  0.00000000000E+00 0.  1.
         13    1    3    3    0    0 -0.27106207727E+02  0.14202615153E+01 -0.16278585715E+03  0.16503332672E+03  0.00000000000E+00 0. -1.
          1    1    1    2  501    0 -0.20407010730E+02  0.10011893864E+02 -0.20559780549E+01  0.22823478075E+02  0.00000000000E+00 0. -1.
<scales pt_clust_5="13000.00000" pt_clust_6="13000.00000" pt_clust_7="13000.00000" pt_clust_8="13000.00000" pt_clust_9="22.73069"></scales>
<clustering>
<clus scale="   22.731">  1  9  2 -1</clus>
<clus scale="   81.336">  5  6 -1 -1</clus>
<clus scale="  101.230">  7  8 -1 -1</clus>
<clus scale="  104.431">  1  5  2 -1</clus>
<clus scale="   22.731">  1  5  2 -1</clus>
</clustering>
</event>
<event>
 9    2  0.6469128E-005  0.1214235E+03  0.7546771E-02  0.1258906E+00
         21   -1    0    0  501  502  0.00000000000E+00  0.00000000000E+00  0.12250941843E+03  0.12250941843E+03  0.00000000000E+00 0. -1.
          2   -1    0    0  502    0 -0.00000000000E+00 -0.00000000000E+00 -0.51148813215E+03  0.51148813215E+03  0.00000000000E+00 0. -1.
         24    2    1    2    0    0 -0.20293080805E+02  0.45864602571E+01 -0.41419547423E+03  0.42272743542E+03  0.81900848833E+02 0.  0.
         23    2    1    2    0    0  0.29256122439E+02  0.82864516483E+02  0.13697997366E+02  0.12260957517E+03  0.84398009451E+02 0.  0.
        -11    1    3    3    0    0  0.15340599584E+02 -0.30676638328E+02 -0.17684698251E+03  0.18014229197E+03  0.00000000000E+00 0.  1.
         12    1    3    3    0    0 -0.35633680390E+02  0.35263098585E+02 -0.23734849172E+03  0.24258514344E+03  0.00000000000E+00 0. -1.
        -13    1    4    4    0    0 -0.36434287207E+01  0.67003303558E+02 -0.22902596900E+02  0.70903076134E+02  0.00000000000E+00 0. -1.
         13    1    4    4    0    0  0.32899551159E+02  0.15861212926E+02  0.36600594266E+02  0.51706499036E+02  0.00000000000E+00 0.  1.
          1    1    1    2  501    0 -0.89630416334E+01 -0.87450976741E+02  0.11518763139E+02  0.88660539996E+02  0.00000000000E+00 0. -1.
<scales pt_clust_5="13000.00000" pt_clust_6="13000.00000" pt_clust_7="13000.00000" pt_clust_8="13000.00000" pt_clust_9="87.29632"></scales>
<clustering>
<clus scale="   81.901">  5  6 -1 -1</clus>
<clus scale="   84.398">  7  8 -1 -1</clus>
<clus scale="   84.502">  2  5  1 -1</clus>
<clus scale="   87.296">  1  9  2 -1</clus>
<clus scale="   87.296">  1  5  2 -1</clus>
</clustering>
</event>
<event>
 9    2  0.6469128E-005  0.1669056E+03  0.7546771E-02  0.1181348E+00
         21   -1    0    0  501  502  0.00000000000E+00  0.00000000000E+00  0.52746319193E+02  0.52746319193E+02  0.00000000000E+00 0. -1.
          2   -1    0    0  502    0 -0.00000000000E+00 -0.00000000000E+00 -0.16841887576E+04  0.16841887576E+04  0.00000000000E+00 0. -1.
         24    2    1    2    0    0  0.14462822154E+03 -0.24553731436E+01 -0.77338782539E+03  0.79100857718E+03  0.81501468687E+02 0.  0.
         23    2    1    2    0    0 -0.30960887238E+02  0.13663499675E+03 -0.18978604273E+03  0.25490745768E+03  0.96599022196E+02 0.  0.
        -13    1    3    3    0    0  0.21992746564E+02  0.20615054855E+02 -0.64184033641E+02  0.70910165439E+02  0.00000000000E+00 0.  1.
         14    1    3    3    0    0  0.12263547497E+03 -0.23070427999E+02 -0.70920379175E+03  0.72009841175E+03  0.00000000000E+00 0. -1.
        -13    1    4    4    0    0 -0.29531703771E+02  0.57195754773E+02 -0.15564514497E+03  0.16843065945E+03  0.00000000000E+00 0.  1.
         13    1    4    4    0    0 -0.14291834669E+01  0.79439241978E+02 -0.34140897764E+02  0.86476798227E+02  0.00000000000E+00 0. -1.
          1    1    1    2  501    0 -0.11366733430E+03 -0.13417962361E+03 -0.66826857032E+03  0.69101904196E+03  0.00000000000E+00 0. -1.
<scales pt_clust_5="13000.00000" pt_clust_6="13000.00000" pt_clust_7="13000.00000" pt_clust_8="13000.00000" pt_clust_9="136.11066"></scales>
<clustering>
<clus scale="   81.501">  5  6 -1 -1</clus>
<clus scale="   96.599">  7  8 -1 -1</clus>
<clus scale="  166.030">  2  5  1 -1</clus>
<clus scale="  136.111">  1  9  2 -1</clus>
<clus scale="  136.111">  1  5  2 -1</clus>
</clustering>
</event>
<event>
 9    2  0.6469128E-005  0.1847036E+03  0.7546771E-02  0.1164649E+00
          2   -1    0    0  502    0 -0.00000000000E+00  0.00000000000E+00  0.44481033813E+03  0.44481033813E+03  0.00000000000E+00 0. -1.
         21   -1    0    0  501  502  0.00000000000E+00 -0.00000000000E+00 -0.30011555551E+03  0.30011555551E+03  0.00000000000E+00 0.  1.
         24    2    1    2    0    0 -0.14854743287E+03  0.70403917484E+02  0.38831623963E+03  0.42873062237E+03  0.77442838202E+02 0.  0.
         23    2    1    2    0    0  0.12264768538E+03 -0.54687890069E+02 -0.16007837169E+03  0.22732886849E+03  0.89555063044E+02 0.  0.
        -13    1    3    3    0    0 -0.46526213700E+02  0.33559071497E+01  0.19172292184E+03  0.19731606481E+03  0.00000000000E+00 0.  1.
         14    1    3    3    0    0 -0.10202121917E+03  0.67048010334E+02  0.19659331779E+03  0.23141455756E+03  0.00000000000E+00 0. -1.
        -11    1    4    4    0    0  0.10059158685E+03 -0.64577319941E+02 -0.16389697045E+03  0.20285737482E+03  0.00000000000E+00 0.  1.
         11    1    4    4    0    0  0.22056098536E+02  0.98894298724E+01  0.38185987673E+01  0.24471493668E+02  0.00000000000E+00 0. -1.
          1    1    1    2  501    0  0.25899747487E+02 -0.15716027415E+02 -0.83543085324E+02  0.88866402780E+02  0.00000000000E+00 0. -1.
<scales pt_clust_5="13000.00000" pt_clust_6="13000.00000" pt_clust_7="13000.00000" pt_clust_8="13000.00000" pt_clust_9="30.29506"></scales>
<clustering>
<clus scale="   30.295">  2  9  1 -1</clus>
<clus scale="   77.443">  5  6 -1 -1</clus>
<clus scale="   89.555">  7  8 -1 -1</clus>
<clus scale="  179.144">  1  5  2 -1</clus>
<clus scale="   30.295">  2  5  1 -1</clus>
</clustering>
</event>
<event>
 9    2  0.6469128E-005  0.1213193E+03  0.7546771E-02  0.1244787E+00
         21   -1    0    0  501  502  0.00000000000E+00  0.00000000000E+00  0.11773578806E+03  0.11773578806E+03  0.00000000000E+00 0. -1.
          2   -1    0    0  502    0 -0.00000000000E+00 -0.00000000000E+00 -0.16908387987E+03  0.16908387987E+03  0.00000000000E+00 0. -1.
         24    2    1    2    0    0  0.24470253780E+02 -0.56590382994E+02 -0.34720561758E+01  0.10210358305E+03  0.81313109216E+02 0.  0.
         23    2    1    2    0    0 -0.52024843499E+02  0.81794034419E+02 -0.15960835300E+02  0.13559318318E+03  0.93455415326E+02 0.  0.
        -11    1    3    3    0    0  0.38368153201E+02  0.26869964896E+01  0.10011222429E+02  0.39743675028E+02  0.00000000000E+00 0.  1.
         12    1    3    3    0    0 -0.13897899421E+02 -0.59277379484E+02 -0.13483278605E+02  0.62359908024E+02  0.00000000000E+00 0. -1.
        -11    1    4    4    0    0 -0.37191189325E+02  0.30125129104E+02 -0.52155372702E+02  0.70787646300E+02  0.00000000000E+00 0.  1.
         11    1    4    4    0    0 -0.14833654174E+02  0.51668905314E+02  0.36194537402E+02  0.64805536880E+02  0.00000000000E+00 0. -1.
          1    1    1    2  501    0  0.27554589719E+02 -0.25203651424E+02 -0.31915200328E+02  0.49122901702E+02  0.00000000000E+00 0. -1.
<scales pt_clust_5="13000.00000" pt_clust_6="13000.00000" pt_clust_7="13000.00000" pt_clust_8="13000.00000" pt_clust_9="37.34275"></scales>
<clustering>
<clus scale="   37.343">  1  9  2 -1</clus>
<clus scale="   81.313">  5  6 -1 -1</clus>
<clus scale="   93.455">  7  8 -1 -1</clus>
<clus scale="  112.233">  2  5  1 -1</clus>
<clus scale="   37.343">  1  5  2 -1</clus>
</clustering>
</event>
<event>
 9    2  0.6469128E-005  0.1287477E+03  0.7546771E-02  0.1234344E+00
          2   -1    0    0  502    0 -0.00000000000E+00  0.00000000000E+00  0.94320318508E+02  0.94320318508E+02  0.00000000000E+00 0. -1.
         21   -1    0    0  501  502  0.00000000000E+00 -0.00000000000E+00 -0.41929990881E+03  0.41929990881E+03  0.00000000000E+00 0.  1.
         24    2    1    2    0    0 -0.42975414412E+02 -0.10624068506E+03 -0.15538926779E+03  0.21075248937E+03  0.84479688844E+02 0.  0.
         23    2    1    2    0    0  0.18327218063E+02  0.35341489583E+02 -0.19531014321E+03  0.22352204695E+03  0.10114912568E+03 0.  0.
        -11    1    3    3    0    0  0.28233138740E+01 -0.95229710407E+02 -0.10414291054E+03  0.14114678409E+03  0.00000000000E+00 0.  1.
         12    1    3    3    0    0 -0.45798728286E+02 -0.11010974649E+02 -0.51246357252E+02  0.69605705275E+02  0.00000000000E+00 0. -1.
        -13    1    4    4    0    0 -0.35670850178E+02  0.12132656752E+02 -0.30277059648E+02  0.48335403725E+02  0.00000000000E+00 0. -1.
         13    1    4    4    0    0  0.53998068241E+02  0.23208832831E+02 -0.16503308356E+03  0.17518664323E+03  0.00000000000E+00 0.  1.
          1    1    1    2  501    0  0.24648196349E+02  0.70899195473E+02  0.25719820700E+02  0.79345690991E+02  0.00000000000E+00 0. -1.
<scales pt_clust_5="13000.00000" pt_clust_6="13000.00000" pt_clust_7="13000.00000" pt_clust_8="13000.00000" pt_clust_9="75.06154"></scales>
<clustering>
<clus scale="   75.062">  2  9  1 -1</clus>
<clus scale="   84.480">  5  6 -1 -1</clus>
<clus scale="  101.149">  7  8 -1 -1</clus>
<clus scale="  116.111">  1  5  2 -1</clus>
<clus scale="   75.062">  2  5  1 -1</clus>
</clustering>
</event>
<event>
 9    2  0.6469128E-005  0.8658943E+02  0.7546771E-02  0.1315154E+00
         21   -1    0    0  501  502  0.00000000000E+00  0.00000000000E+00  0.40587351961E+02  0.40587351961E+02  0.00000000000E+00 0. -1.
         -1   -1    0    0    0  501 -0.00000000000E+00 -0.00000000000E+00 -0.47013761763E+03  0.47013761763E+03  0.00000000000E+00 0.  1.
         24    2    1    2    0    0  0.28750904353E+02  0.98236409571E+01 -0.24814043839E+03  0.26205804669E+03  0.78597864124E+02 0.  0.
         23    2    1    2    0    0  0.27804283798E+02  0.40608984755E+01 -0.43845787566E+02  0.99284411333E+02  0.84530303162E+02 0.  0.
        -11    1    3    3    0    0  0.22227242308E+02  0.42939562181E+02 -0.17405922825E+03  0.18065013490E+03  0.00000000000E+00 0.  1.
         12    1    3    3    0    0  0.65236620444E+01 -0.33115921224E+02 -0.74081210142E+02  0.81407911784E+02  0.00000000000E+00 0. -1.
        -13    1    4    4    0    0 -0.16895836943E+02 -0.19792351632E+02 -0.40970606630E+02  0.48536554232E+02  0.00000000000E+00 0.  1.
         13    1    4    4    0    0  0.44700120741E+02  0.23853250108E+02 -0.28751809360E+01  0.50747857101E+02  0.00000000000E+00 0. -1.
         -2    1    1    2    0  502 -0.56555188151E+02 -0.13884539433E+02 -0.13756403971E+03  0.14938251157E+03  0.00000000000E+00 0.  1.
<scales pt_clust_5="13000.00000" pt_clust_6="13000.00000" pt_clust_7="13000.00000" pt_clust_8="13000.00000" pt_clust_9="58.23464"></scales>
<clustering>
<clus scale="   58.235">  1  9  2 -1</clus>
<clus scale="   78.598">  5  6 -1 -1</clus>
<clus scale="   80.808">  2  5  1 -1</clus>
<clus scale="   84.530">  7  8 -1 -1</clus>
<clus scale="   58.235">  1  5  2 -1</clus>
</clustering>
</event>
<event>
 9    2  0.6469128E-005  0.1317343E+03  0.7546771E-02  0.1226695E+00
          2   -1    0    0  502    0 -0.00000000000E+00  0.00000000000E+00  0.12435843564E+04  0.12435843564E+04  0.00000000000E+00 0. -1.
         21   -1    0    0  501  502  0.00000000000E+00 -0.00000000000E+00 -0.29809653627E+02  0.29809653627E+02  0.00000000000E+00 0.  1.
         24    2    1    2    0    0  0.62455021588E+02 -0.87187168511E+02  0.96206501638E+03  0.97144192581E+03  0.81413066601E+02 0.  0.
         23    2    1    2    0    0 -0.20909132202E+02  0.53141177834E+02  0.12048355187E+03  0.16015825928E+03  0.88731083358E+02 0.  0.
        -11    1    3    3    0    0  0.63335184160E+02 -0.21756827805E+02  0.39809883413E+03  0.40369219319E+03  0.00000000000E+00 0.  1.
         12    1    3    3    0    0 -0.88016257175E+00 -0.65430340706E+02  0.56396618225E+03  0.56774973262E+03  0.00000000000E+00 0. -1.
        -13    1    4    4    0    0 -0.19431012483E+02  0.73819513225E+02  0.62749272403E+02  0.98814755811E+02  0.00000000000E+00 0.  1.
         13    1    4    4    0    0 -0.14781197186E+01 -0.20678335391E+02  0.57734279470E+02  0.61343503473E+02  0.00000000000E+00 0. -1.
          1    1    1    2  501    0 -0.41545889386E+02  0.34045990677E+02  0.13122613448E+03  0.14179382489E+03  0.00000000000E+00 0. -1.
<scales pt_clust_5="13000.00000" pt_clust_6="13000.00000" pt_clust_7="13000.00000" pt_clust_8="13000.00000" pt_clust_9="53.71397"></scales>
<clustering>
<clus scale="   53.714">  2  9  1 -1</clus>
<clus scale="   81.413">  5  6 -1 -1</clus>
<clus scale="   88.731">  7  8 -1 -1</clus>
<clus scale="  126.921">  1  5  2 -1</clus>
<clus scale="   53.714">  2  5  1 -1</clus>
</clustering>
</event>
<event>
 9    2  0.6469128E-005  0.1045653E+03  0.7546771E-02  0.1279360E+00
         21   -1    0    0  501  502  0.00000000000E+00  0.00000000000E+00  0.94249384312E+02  0.94249384312E+02  0.00000000000E+00 0.  1.
          2   -1    0    0  502    0 -0.00000000000E+00 -0.00000000000E+00 -0.21697627357E+03  0.21697627357E+03  0.00000000000E+00 0. -1.
         24    2    1    2    0    0  0.49395064398E+01 -0.42258201164E+02 -0.11222139964E+03  0.14404931237E+03  0.79664343134E+02 0.  0.
         23    2    1    2    0    0  0.16697132759E+02  0.34631440984E+02 -0.54560547176E+02  0.11750583390E+03  0.96709031355E+02 0.  0.
        -13    1    3    3    0    0  0.38348156660E+02 -0.75001488738E+01 -0.32224928785E+02  0.50648587222E+02  0.00000000000E+00 0.  1.
         14    1    3    3    0    0 -0.33408650220E+02 -0.34758052290E+02 -0.79996470854E+02  0.93400725145E+02  0.00000000000E+00 0. -1.
        -11    1    4    4    0    0  0.29945321887E+02  0.15612735247E+02 -0.77720092393E+02  0.84740147311E+02  0.00000000000E+00 0. -1.
         11    1    4    4    0    0 -0.13248189127E+02  0.19018705737E+02  0.23159545217E+02  0.32765686590E+02  0.00000000000E+00 0.  1.
          1    1    1    2  501    0 -0.21636639199E+02  0.76267601802E+01  0.44055057562E+02  0.49670511609E+02  0.00000000000E+00 0. -1.
<scales pt_clust_5="13000.00000" pt_clust_6="13000.00000" pt_clust_7="13000.00000" pt_clust_8="13000.00000" pt_clust_9="22.94148"></scales>
<clustering>
<clus scale="   22.941">  1  9  2 -1</clus>
<clus scale="   79.664">  5  6 -1 -1</clus>
<clus scale="   89.037">  2  5  1 -1</clus>
<clus scale="   96.709">  7  8 -1 -1</clus>
<clus scale="   22.941">  1  5  2 -1</clus>
</clustering>
</event>
<event>
 9    2  0.9897938E-005  0.1013135E+03  0.7546771E-02  0.1284475E+00
         21   -1    0    0  501  502  0.00000000000E+00  0.00000000000E+00  0.14658650142E+03  0.14658650142E+03  0.00000000000E+00 0. -1.
          2   -1    0    0  502    0 -0.00000000000E+00 -0.00000000000E+00 -0.57579082594E+03  0.57579082594E+03  0.00000000000E+00 0. -1.
         23    2    1    2    0    0 -0.38407953584E+02  0.12576667209E+00 -0.50865805847E+03  0.51865437484E+03  0.93777147392E+02 0.  0.
         24    2    1    2    0    0  0.33539549832E+02 -0.58996772101E+02  0.36804745893E+00  0.10501103610E+03  0.80135271404E+02 0.  0.
        -13    1    4    4    0    0  0.59659606785E+02 -0.33926882660E+02  0.31175294319E+01  0.68702409263E+02  0.00000000000E+00 0.  1.
         14    1    4    4    0    0 -0.26120056953E+02 -0.25069889441E+02 -0.27494819730E+01  0.36308626839E+02  0.00000000000E+00 0. -1.
        -11    1    3    3    0    0 -0.66381453768E+02 -0.14368848394E+02 -0.39079422865E+03  0.39665235453E+03  0.00000000000E+00 0. -1.
         11    1    3    3    0    0  0.27973500184E+02  0.14494615066E+02 -0.11786382983E+03  0.12200202031E+03  0.00000000000E+00 0.  1.
          1    1    1    2  501    0  0.48684037520E+01  0.58871005429E+02  0.79085686492E+02  0.98711916420E+02  0.00000000000E+00 0. -1.
<scales pt_clust_5="13000.00000" pt_clust_6="13000.00000" pt_clust_7="13000.00000" pt_clust_8="13000.00000" pt_clust_9="59.07196"></scales>
<clustering>
<clus scale="   59.072">  1  9  2 -1</clus>
<clus scale="   80.135">  5  6 -1 -1</clus>
<clus scale="   88.837">  1  5  2 -1</clus>
<clus scale="   93.777">  7  8 -1 -1</clus>
<clus scale="   59.072">  1  5  2 -1</clus>
</clustering>
</event>
<event>
 9    2  0.6469128E-005  0.1106280E+03  0.7546771E-02  0.1266631E+00
          2   -1    0    0  502    0 -0.00000000000E+00  0.00000000000E+00  0.36056178991E+03  0.36056178991E+03  0.00000000000E+00 0. -1.
         21   -1    0    0  501  502  0.00000000000E+00 -0.00000000000E+00 -0.10057353076E+03  0.10057353076E+03  0.00000000000E+00 0. -1.
         24    2    1    2    0    0  0.52043857326E+02 -0.69850015584E+02  0.18280428407E+03  0.21518284689E+03  0.72791919581E+02 0.  0.
         23    2    1    2    0    0 -0.56254988146E+02 -0.23252349677E+02  0.10176285565E+03  0.14956831840E+03  0.91157597715E+02 0.  0.
        -13    1    3    3    0    0  0.34425652465E+02 -0.26543074364E+02  0.24034051088E+02  0.49671882953E+02  0.00000000000E+00 0.  1.
         14    1    3    3    0    0  0.17618204861E+02 -0.43306941220E+02  0.15877023299E+03  0.16551096394E+03  0.00000000000E+00 0. -1.
        -13    1    4    4    0    0  0.21577603696E+02  0.84517087104E+01  0.10308936210E+02  0.25363330365E+02  0.00000000000E+00 0.  1.
         13    1    4    4    0    0 -0.77832591843E+02 -0.31704058387E+02  0.91453919438E+02  0.12420498803E+03  0.00000000000E+00 0. -1.
          1    1    1    2  501    0  0.42111308201E+01  0.93102365261E+02 -0.24578880574E+02  0.96384155390E+02  0.00000000000E+00 0. -1.
<scales pt_clust_5="13000.00000" pt_clust_6="13000.00000" pt_clust_7="13000.00000" pt_clust_8="13000.00000" pt_clust_9="93.19755"></scales>
<clustering>
<clus scale="   72.792">  5  6 -1 -1</clus>
<clus scale="   91.158">  7  8 -1 -1</clus>
<clus scale="   93.198">  2  9  1 -1</clus>
<clus scale="   96.060">  1  5  2 -1</clus>
<clus scale="   93.198">  2  5  1 -1</clus>
</clustering>
</event>
<event>
 9    2  0.6469128E-005  0.9832084E+02  0.7546771E-02  0.1289919E+00
         21   -1    0    0  501  502  0.00000000000E+00  0.00000000000E+00  0.28395993377E+03  0.28395993377E+03  0.00000000000E+00 0. -1.
          2   -1    0    0  502    0 -0.00000000000E+00 -0.00000000000E+00 -0.44371688081E+03  0.44371688081E+03  0.00000000000E+00 0. -1.
         24    2    1    2    0    0  0.16613967898E+02 -0.23356022641E+02 -0.38411559736E+03  0.39394978258E+03  0.82644487657E+02 0.  0.
         23    2    1    2    0    0 -0.47481980010E+02  0.10742743207E+02 -0.12236159626E+01  0.10569350848E+03  0.93806585811E+02 0.  0.
        -13    1    3    3    0    0  0.46218131237E+02 -0.15156865693E+02 -0.14665798713E+03  0.15451346680E+03  0.00000000000E+00 0.  1.
         14    1    3    3    0    0 -0.29604163339E+02 -0.81991569481E+01 -0.23745761022E+03  0.23943631578E+03  0.00000000000E+00 0. -1.
        -11    1    4    4    0    0  0.52100661313E+00  0.32175442008E+02  0.30463271172E+02  0.44311865304E+02  0.00000000000E+00 0.  1.
         11    1    4    4    0    0 -0.48002986623E+02 -0.21432698801E+02 -0.31686887134E+02  0.61381643175E+02  0.00000000000E+00 0. -1.
          1    1    1    2  501    0  0.30868012112E+02  0.12613279435E+02  0.22558226628E+03  0.22803352352E+03  0.00000000000E+00 0. -1.
<scales pt_clust_5="13000.00000" pt_clust_6="13000.00000" pt_clust_7="13000.00000" pt_clust_8="13000.00000" pt_clust_9="33.34560"></scales>
<clustering>
<clus scale="   33.346">  1  9  2 -1</clus>
<clus scale="   82.644">  5  6 -1 -1</clus>
<clus scale="   87.735">  2  5  1 -1</clus>
<clus scale="   93.807">  7  8 -1 -1</clus>
<clus scale="   33.346">  1  5  2 -1</clus>
</clustering>
</event>
<event>
 9    2  0.6469128E-005  0.2152291E+03  0.7546771E-02  0.1171916E+00
         -3   -1    0    0    0  501 -0.00000000000E+00  0.00000000000E+00  0.43872398746E+03  0.43872398746E+03  0.00000000000E+00 0.  1.
         21   -1    0    0  501  502  0.00000000000E+00 -0.00000000000E+00 -0.32512075451E+03  0.32512075451E+03  0.00000000000E+00 0.  1.
         24    2    1    2    0    0 -0.51543861076E+02 -0.71998977923E+01  0.26235792991E+03  0.27931294826E+03  0.80470066066E+02 0.  0.
         23    2    1    2    0    0  0.22465358138E+03  0.61447720362E+02 -0.75268211201E+00  0.25040704510E+03  0.91967753809E+02 0.  0.
        -11    1    3    3    0    0 -0.58058928262E+02 -0.28479567748E+02  0.23657244214E+03  0.24525179981E+03  0.00000000000E+00 0.  1.
         12    1    3    3    0    0  0.65150671857E+01  0.21279669956E+02  0.25785487778E+02  0.34061148451E+02  0.00000000000E+00 0. -1.
        -13    1    4    4    0    0  0.19889742343E+03  0.79141619394E+02 -0.17814195053E+02  0.21480439127E+03  0.00000000000E+00 0.  1.
         13    1    4    4    0    0  0.25756157951E+02 -0.17693899031E+02  0.17061512941E+02  0.35602653822E+02  0.00000000000E+00 0. -1.
         -4    1    1    2    0  502 -0.17310972030E+03 -0.54247822570E+02 -0.14800201485E+03  0.23412474862E+03  0.00000000000E+00 0.  1.
<scales pt_clust_5="13000.00000" pt_clust_6="13000.00000" pt_clust_7="13000.00000" pt_clust_8="13000.00000" pt_clust_9="194.59059"></scales>
<clustering>
<clus scale="   80.470">  5  6 -1 -1</clus>
<clus scale="   91.968">  7  8 -1 -1</clus>
<clus scale="   95.833">  1  5  2 -1</clus>
<clus scale="  194.591">  2  9  1 -1</clus>
<clus scale="  194.591">  2  5  1 -1</clus>
</clustering>
</event>
<event>
 9    2  0.6469128E-005  0.2054281E+03  0.7546771E-02  0.1145238E+00
         21   -1    0    0  501  502  0.00000000000E+00  0.00000000000E+00  0.21673811665E+03  0.21673811665E+03  0.00000000000E+00 0. -1.
          2   -1    0    0  502    0 -0.00000000000E+00 -0.00000000000E+00 -0.11586968189E+03  0.11586968189E+03  0.00000000000E+00 0. -1.
         24    2    1    2    0    0  0.85753841201E+01  0.55095800524E+02  0.36860951489E+02  0.10383853258E+03  0.79464625180E+02 0.  0.
         23    2    1    2    0    0  0.11900025238E+02  0.50390388008E+02  0.54200244321E+02  0.12086764273E+03  0.94818346172E+02 0.  0.
        -11    1    3    3    0    0 -0.28781720660E+02  0.16850427364E+02 -0.77130091429E+01  0.34231781381E+02  0.00000000000E+00 0.  1.
         12    1    3    3    0    0  0.37357104780E+02  0.38245373161E+02  0.44573960632E+02  0.69606751197E+02  0.00000000000E+00 0. -1.
        -11    1    4    4    0    0  0.43406407266E+01  0.70443682918E+02  0.65805608380E+02  0.96496278267E+02  0.00000000000E+00 0. -1.
         11    1    4    4    0    0  0.75593845114E+01 -0.20053294911E+02 -0.11605364059E+02  0.24371364465E+02  0.00000000000E+00 0.  1.
          1    1    1    2  501    0 -0.20475409358E+02 -0.10548618853E+03  0.98072389516E+01  0.10790162323E+03  0.00000000000E+00 0. -1.
<scales pt_clust_5="13000.00000" pt_clust_6="13000.00000" pt_clust_7="13000.00000" pt_clust_8="13000.00000" pt_clust_9="107.45506"></scales>
<clustering>
<clus scale="   79.465">  5  6 -1 -1</clus>
<clus scale="   94.818">  7  8 -1 -1</clus>
<clus scale="   95.770">  5  7 -1 -1</clus>
<clus scale="  107.455">  1  9  2 -1</clus>
<clus scale="  107.455">  1  5  2 -1</clus>
</clustering>
</event>
<event>
 9    2  0.6469128E-005  0.1017697E+03  0.7546771E-02  0.1280994E+00
          4   -1    0    0  502    0 -0.00000000000E+00  0.00000000000E+00  0.12951303061E+03  0.12951303061E+03  0.00000000000E+00 0. -1.
         21   -1    0    0  501  502  0.00000000000E+00 -0.00000000000E+00 -0.12513998231E+03  0.12513998231E+03  0.00000000000E+00 0. -1.
         23    2    1    2    0    0 -0.25113661166E+02 -0.14432337693E+02 -0.19393864916E+02  0.98455131055E+02  0.92077698094E+02 0.  0.
         24    2    1    2    0    0  0.42112290378E+02  0.41104446064E+02 -0.18507471133E+02  0.10340130686E+03  0.82983632640E+02 0.  0.
        -11    1    4    4    0    0 -0.52179203555E+01  0.52711741076E+02 -0.83964759050E+01  0.53630729509E+02  0.00000000000E+00 0.  1.
         12    1    4    4    0    0  0.47330210734E+02 -0.11607295012E+02 -0.10110995228E+02  0.49770577354E+02  0.00000000000E+00 0. -1.
        -13    1    3    3    0    0 -0.58523160008E+02  0.94210760604E+00 -0.19450049683E+02  0.61677810084E+02  0.00000000000E+00 0. -1.
         13    1    3    3    0    0  0.33409498842E+02 -0.15374445299E+02  0.56184767556E-01  0.36777320972E+02  0.00000000000E+00 0.  1.
          3    1    1    2  501    0 -0.16998629212E+02 -0.26672108371E+02  0.42274384347E+02  0.52796575002E+02  0.00000000000E+00 0. -1.
<scales pt_clust_5="13000.00000" pt_clust_6="13000.00000" pt_clust_7="13000.00000" pt_clust_8="13000.00000" pt_clust_9="31.62840"></scales>
<clustering>
<clus scale="   31.628">  2  9  1 -1</clus>
<clus scale="   82.984">  5  6 -1 -1</clus>
<clus scale="   92.078">  7  8 -1 -1</clus>
<clus scale="   93.622">  2  5  1 -1</clus>
<clus scale="   31.628">  2  5  1 -1</clus>
</clustering>
</event>
<event>
 9    2  0.6469128E-005  0.9935375E+02  0.7546771E-02  0.1283218E+00
         21   -1    0    0  501  502  0.00000000000E+00  0.00000000000E+00  0.30928832098E+03  0.30928832098E+03  0.00000000000E+00 0. -1.
         -1   -1    0    0    0  501 -0.00000000000E+00 -0.00000000000E+00 -0.45629754488E+02  0.45629754488E+02  0.00000000000E+00 0.  1.
         23    2    1    2    0    0  0.31111409729E+02  0.16589591126E+02  0.78153745611E+02  0.12542341603E+03  0.91541744504E+02 0.  0.
         24    2    1    2    0    0 -0.95108038419E+01 -0.23877995912E+02  0.18160602764E+03  0.20636658974E+03  0.94582271120E+02 0.  0.
        -11    1    4    4    0    0  0.11508514018E+02  0.19793500027E+02  0.52747371163E+01  0.23495773873E+02  0.00000000000E+00 0.  1.
         12    1    4    4    0    0 -0.21019317860E+02 -0.43671495940E+02  0.17633129052E+03  0.18287081587E+03  0.00000000000E+00 0. -1.
        -13    1    3    3    0    0  0.30688772000E+02  0.52526290045E+02  0.58790679991E+02  0.84599975925E+02  0.00000000000E+00 0.  1.
         13    1    3    3    0    0  0.42263772918E+00 -0.35936698919E+02  0.19363065620E+02  0.40823440106E+02  0.00000000000E+00 0. -1.
         -2    1    1    2    0  502 -0.21600605887E+02  0.72884047863E+01  0.38987932469E+01  0.23128069695E+02  0.00000000000E+00 0.  1.
<scales pt_clust_5="13000.00000" pt_clust_6="13000.00000" pt_clust_7="13000.00000" pt_clust_8="13000.00000" pt_clust_9="22.79709"></scales>
<clustering>
<clus scale="   22.797">  1  9  2 -1</clus>
<clus scale="   91.542">  7  8 -1 -1</clus>
<clus scale="   94.582">  5  6 -1 -1</clus>
<clus scale="   96.464">  2  7  1 -1</clus>
<clus scale="   22.797">  1  5  2 -1</clus>
</clustering>
</event>
<event>
 9    2  0.6469128E-005  0.1950632E+03  0.7546771E-02  0.1155142E+00
          2   -1    0    0  502    0 -0.00000000000E+00  0.00000000000E+00  0.64072828278E+03  0.64072828278E+03  0.00000000000E+00 0. -1.
         21   -1    0    0  501  502  0.00000000000E+00 -0.00000000000E+00 -0.10192267485E+03  0.10192267485E+03  0.00000000000E+00 0. -1.
         24    2    1    2    0    0 -0.11194023251E+03  0.11015914130E+03  0.24728426630E+03  0.30372314414E+03  0.80203415529E+02 0.  0.
         23    2    1    2    0    0  0.19984356392E+03 -0.67350307263E+02  0.21265844256E+03  0.31331352771E+03  0.92023037992E+02 0.  0.
        -13    1    3    3    0    0 -0.10809552430E+03  0.10526013979E+03  0.25344996973E+03  0.29495970327E+03  0.00000000000E+00 0.  1.
         14    1    3    3    0    0 -0.38447082135E+01  0.48990015124E+01 -0.61657034290E+01  0.87634408676E+01  0.00000000000E+00 0. -1.
        -13    1    4    4    0    0  0.70734626891E+02 -0.54086459575E+02  0.13606071261E+03  0.16260765685E+03  0.00000000000E+00 0. -1.
         13    1    4    4    0    0  0.12910893703E+03 -0.13263847688E+02  0.76597729957E+02  0.15070587086E+03  0.00000000000E+00 0.  1.
          1    1    1    2  501    0 -0.87903331407E+02 -0.42808834037E+02  0.78862899070E+02  0.12561428579E+03  0.00000000000E+00 0. -1.
<scales pt_clust_5="13000.00000" pt_clust_6="13000.00000" pt_clust_7="13000.00000" pt_clust_8="13000.00000" pt_clust_9="97.77317"></scales>
<clustering>
<clus scale="   80.203">  5  6 -1 -1</clus>
<clus scale="   92.023">  7  8 -1 -1</clus>
<clus scale="   97.773">  2  9  1 -1</clus>
<clus scale="  189.774">  1  5  2 -1</clus>
<clus scale="   97.773">  2  5  1 -1</clus>
</clustering>
</event>
<event>
 9    2  0.6469128E-005  0.1041812E+03  0.7546771E-02  0.1275611E+00
         21   -1    0    0  501  502  0.00000000000E+00  0.00000000000E+00  0.11600311217E+03  0.11600311217E+03  0.00000000000E+00 0. -1.
          2   -1    0    0  502    0 -0.00000000000E+00 -0.00000000000E+00 -0.22347938348E+03  0.22347938348E+03  0.00000000000E+00 0. -1.
         23    2    1    2    0    0 -0.14322620061E+02  0.19444150363E+02 -0.65329685946E+02  0.11551259930E+03  0.92151941394E+02 0.  0.
         24    2    1    2    0    0  0.73146631074E+01 -0.77838846299E+02 -0.92008292526E+02  0.14686450214E+03  0.83613789571E+02 0.  0.
        -11    1    4    4    0    0  0.29565399349E+02 -0.56489650144E+02 -0.96542673647E+02  0.11569650490E+03  0.00000000000E+00 0.  1.
         12    1    4    4    0    0 -0.22250736241E+02 -0.21349196155E+02  0.45343811206E+01  0.31167997239E+02  0.00000000000E+00 0. -1.
        -13    1    3    3    0    0 -0.52952890118E+02  0.17386447696E+02 -0.30909012477E+02  0.63731186931E+02  0.00000000000E+00 0. -1.
         13    1    3    3    0    0  0.38630270057E+02  0.20577026663E+01 -0.34420673469E+02  0.51781412370E+02  0.00000000000E+00 0.  1.
          1    1    1    2  501    0  0.70079569538E+01  0.58394695936E+02  0.49861707166E+02  0.77105394206E+02  0.00000000000E+00 0. -1.
<scales pt_clust_5="13000.00000" pt_clust_6="13000.00000" pt_clust_7="13000.00000" pt_clust_8="13000.00000" pt_clust_9="58.81371"></scales>
<clustering>
<clus scale="   58.814">  1  9  2 -1</clus>
<clus scale="   83.614">  5  6 -1 -1</clus>
<clus scale="   92.152">  7  8 -1 -1</clus>
<clus scale="   96.711">  1  5  2 -1</clus>
<clus scale="   58.814">  1  5  2 -1</clus>
</clustering>
</event>
<event>
 9    2  0.6469128E-005  0.4153364E+03  0.7546771E-02  0.1038595E+00
          2   -1    0    0  502    0 -0.00000000000E+00  0.00000000000E+00  0.32614399168E+04  0.32614399168E+04  0.00000000000E+00 0. -1.
         21   -1    0    0  501  502  0.00000000000E+00 -0.00000000000E+00 -0.61102754108E+02  0.61102754108E+02  0.00000000000E+00 0.  1.
         24    2    1    2    0    0  0.14099678090E+03  0.49681526196E+02  0.38961822591E+03  0.42415523159E+03  0.75874582407E+02 0.  0.
         23    2    1    2    0    0  0.23506074667E+03 -0.40607336959E+00  0.51120814281E+03  0.56780870735E+03  0.76283965205E+02 0.  0.
        -13    1    3    3    0    0  0.45111125375E+02  0.44277706913E+02  0.93573907256E+02  0.11292300510E+03  0.00000000000E+00 0.  1.
         14    1    3    3    0    0  0.95885655527E+02  0.54038192838E+01  0.29604431865E+03  0.31123222649E+03  0.00000000000E+00 0. -1.
        -11    1    4    4    0    0  0.54200945043E+02  0.10359074755E+02  0.59656328876E+02  0.81264570683E+02  0.00000000000E+00 0. -1.
         11    1    4    4    0    0  0.18085980163E+03 -0.10765148125E+02  0.45155181394E+03  0.48654413667E+03  0.00000000000E+00 0.  1.
          1    1    1    2  501    0 -0.37605752758E+03 -0.49275452827E+02  0.22995107940E+04  0.23305787320E+04  0.00000000000E+00 0. -1.
<scales pt_clust_5="13000.00000" pt_clust_6="13000.00000" pt_clust_7="13000.00000" pt_clust_8="13000.00000" pt_clust_9="379.27230"></scales>
<clustering>
<clus scale="   75.875">  5  6 -1 -1</clus>
<clus scale="   76.284">  7  8 -1 -1</clus>
<clus scale="   92.419">  5  7 -1 -1</clus>
<clus scale="  379.272">  2  9  1 -1</clus>
<clus scale="  379.272">  2  5  1 -1</clus>
</clustering>
</event>
<event>
 9    2  0.6469128E-005  0.1117001E+03  0.7546771E-02  0.1261633E+00
          2   -1    0    0  502    0 -0.00000000000E+00  0.00000000000E+00  0.14659179654E+04  0.14659179654E+04  0.00000000000E+00 0. -1.
         21   -1    0    0  501  502  0.00000000000E+00 -0.00000000000E+00 -0.20882243217E+02  0.20882243217E+02  0.00000000000E+00 0. -1.
         24    2    1    2    0    0  0.69483627343E+02  0.14326836853E+00  0.11223281799E+04  0.11273714505E+04  0.80733195861E+02 0.  0.
         23    2    1    2    0    0 -0.30091527603E+02  0.31747047888E+02  0.16495258755E+03  0.19373218144E+03  0.91702927452E+02 0.  0.
        -11    1    3    3    0    0  0.19651128262E+02  0.16798309867E+02  0.88236394990E+02  0.91945698416E+02  0.00000000000E+00 0.  1.
         12    1    3    3    0    0  0.49832499081E+02 -0.16655041498E+02  0.10340917849E+04  0.10354257521E+04  0.00000000000E+00 0. -1.
        -13    1    4    4    0    0  0.24742283237E+02  0.38882956653E+02  0.81324772308E+02  0.93476111862E+02  0.00000000000E+00 0. -1.
         13    1    4    4    0    0 -0.54833810841E+02 -0.71359087648E+01  0.83627815238E+02  0.10025606958E+03  0.00000000000E+00 0.  1.
          1    1    1    2  501    0 -0.39392099739E+02 -0.31890316257E+02  0.15775495469E+03  0.16569657668E+03  0.00000000000E+00 0. -1.
<scales pt_clust_5="13000.00000" pt_clust_6="13000.00000" pt_clust_7="13000.00000" pt_clust_8="13000.00000" pt_clust_9="50.68264"></scales>
<clustering>
<clus scale="   50.683">  2  9  1 -1</clus>
<clus scale="   80.733">  5  6 -1 -1</clus>
<clus scale="   91.703">  7  8 -1 -1</clus>
<clus scale="  102.885">  1  5  2 -1</clus>
<clus scale="   50.683">  2  5  1 -1</clus>
</clustering>
</event>
<event>
 9    2  0.6469128E-005  0.2491130E+03  0.7546771E-02  0.1114492E+00
         21   -1    0    0  501  502  0.00000000000E+00  0.00000000000E+00  0.23538336454E+03  0.23538336454E+03  0.00000000000E+00 0. -1.
          2   -1    0    0  502    0 -0.00000000000E+00 -0.00000000000E+00 -0.34874996675E+03  0.34874996675E+03  0.00000000000E+00 0. -1.
         24    2    1    2    0    0 -0.19423973678E+03  0.10217978965E+03 -0.58787284357E+02  0.24134292160E+03  0.81367538039E+02 0.  0.
         23    2    1    2    0    0  0.24502291383E+03 -0.56527772892E+02 -0.27501987619E+02  0.26933144483E+03  0.92474052796E+02 0.  0.
        -13    1    3    3    0    0 -0.18189323133E+02 -0.14034779012E+02 -0.32306771758E+01  0.23200512342E+02  0.00000000000E+00 0.  1.
         14    1    3    3    0    0 -0.17605041365E+03  0.11621456867E+03 -0.55556607181E+02  0.21814240926E+03  0.00000000000E+00 0. -1.
        -13    1    4    4    0    0  0.71967486378E+02 -0.60860747641E+02 -0.18047010636E+02  0.95963765515E+02  0.00000000000E+00 0.  1.
         13    1    4    4    0    0  0.17305542745E+03  0.43329747487E+01 -0.94549769830E+01  0.17336767931E+03  0.00000000000E+00 0. -1.
          1    1    1    2  501    0 -0.50783177043E+02 -0.45652016762E+02 -0.27077330237E+02  0.73458964856E+02  0.00000000000E+00 0. -1.
<scales pt_clust_5="13000.00000" pt_clust_6="13000.00000" pt_clust_7="13000.00000" pt_clust_8="13000.00000" pt_clust_9="68.28647"></scales>
<clustering>
<clus scale="   68.286">  1  9  2 -1</clus>
<clus scale="   81.368">  5  6 -1 -1</clus>
<clus scale="   92.474">  7  8 -1 -1</clus>
<clus scale="  245.207">  2  5  1 -1</clus>
<clus scale="   68.286">  1  5  2 -1</clus>
</clustering>
</event>
<event>
 9    2  0.6469128E-005  0.1159875E+03  0.7546771E-02  0.1262125E+00
         21   -1    0    0  501  502  0.00000000000E+00  0.00000000000E+00  0.40891910598E+02  0.40891910598E+02  0.00000000000E+00 0.  1.
          2   -1    0    0  502    0 -0.00000000000E+00 -0.00000000000E+00 -0.38835553146E+03  0.38835553146E+03  0.00000000000E+00 0. -1.
         24    2    1    2    0    0 -0.51894390754E+02  0.13263161928E+02 -0.21804875034E+03  0.23755725677E+03  0.77583847961E+02 0.  0.
         23    2    1    2    0    0  0.35794150540E+02  0.10151495129E+02 -0.11129611252E+03  0.15798924625E+03  0.10578044812E+03 0.  0.
        -13    1    3    3    0    0 -0.36069537323E+02 -0.30510197352E+02 -0.97752085393E+02  0.10856958075E+03  0.00000000000E+00 0.  1.
         14    1    3    3    0    0 -0.15824853432E+02  0.43773359280E+02 -0.12029666495E+03  0.12898767602E+03  0.00000000000E+00 0. -1.
        -13    1    4    4    0    0 -0.11486824856E+02 -0.38452340435E+02 -0.21686434514E+02  0.45616127325E+02  0.00000000000E+00 0.  1.
         13    1    4    4    0    0  0.47280975396E+02  0.48603835563E+02 -0.89609678002E+02  0.11237311893E+03  0.00000000000E+00 0. -1.
          1    1    1    2  501    0  0.16100240214E+02 -0.23414657056E+02 -0.18118758008E+02  0.33700939034E+02  0.00000000000E+00 0. -1.
<scales pt_clust_5="13000.00000" pt_clust_6="13000.00000" pt_clust_7="13000.00000" pt_clust_8="13000.00000" pt_clust_9="28.41591"></scales>
<clustering>
<clus scale="   28.416">  1  9  2 -1</clus>
<clus scale="   77.584">  5  6 -1 -1</clus>
<clus scale="   91.010">  2  5  1 -1</clus>
<clus scale="  105.780">  7  8 -1 -1</clus>
<clus scale="   28.416">  1  5  2 -1</clus>
</clustering>
</event>
<event>
 9    2  0.6469128E-005  0.9222421E+02  0.7546771E-02  0.1304269E+00
          2   -1    0    0  502    0 -0.00000000000E+00  0.00000000000E+00  0.84972828671E+03  0.84972828671E+03  0.00000000000E+00 0. -1.
         21   -1    0    0  501  502  0.00000000000E+00 -0.00000000000E+00 -0.14733616302E+02  0.14733616302E+02  0.00000000000E+00 0.  1.
         23    2    1    2    0    0  0.90399393184E+01  0.77632635006E+01  0.37979720757E+03  0.39046183378E+03  0.89847292646E+02 0.  0.
         24    2    1    2    0    0  0.25641731701E+02 -0.32638572336E+02  0.32521739460E+03  0.33719211101E+03  0.78799690153E+02 0.  0.
        -13    1    4    4    0    0 -0.26094885900E+02  0.25386285003E+01  0.84227581109E+02  0.88213792143E+02  0.00000000000E+00 0.  1.
         14    1    4    4    0    0  0.51736617601E+02 -0.35177200836E+02  0.24098981349E+03  0.24897831887E+03  0.00000000000E+00 0. -1.
        -11    1    3    3    0    0 -0.79229086595E+01  0.45573393223E+02  0.15044150423E+03  0.15739235321E+03  0.00000000000E+00 0.  1.
         11    1    3    3    0    0  0.16962847978E+02 -0.37810129722E+02  0.22935570333E+03  0.23306948057E+03  0.00000000000E+00 0. -1.
          1    1    1    2  501    0 -0.34681671019E+02  0.24875308835E+02  0.12998006824E+03  0.13680795822E+03  0.00000000000E+00 0. -1.
<scales pt_clust_5="13000.00000" pt_clust_6="13000.00000" pt_clust_7="13000.00000" pt_clust_8="13000.00000" pt_clust_9="42.68020"></scales>
<clustering>
<clus scale="   42.680">  2  9  1 -1</clus>
<clus scale="   78.800">  5  6 -1 -1</clus>
<clus scale="   81.499">  2  5  1 -1</clus>
<clus scale="   89.847">  7  8 -1 -1</clus>
<clus scale="   42.680">  2  5  1 -1</clus>
</clustering>
</event>
<event>
 9    2  0.6469128E-005  0.9376532E+02  0.7546771E-02  0.1298924E+00
         21   -1    0    0  501  502  0.00000000000E+00  0.00000000000E+00  0.60120878390E+02  0.60120878390E+02  0.00000000000E+00 0. -1.
          2   -1    0    0  502    0 -0.00000000000E+00 -0.00000000000E+00 -0.85707381298E+03  0.85707381298E+03  0.00000000000E+00 0. -1.
         24    2    1    2    0    0  0.26983588635E+02  0.13995113472E+02 -0.67173764518E+03  0.67744751470E+03  0.82338897030E+02 0.  0.
         23    2    1    2    0    0  0.20690705186E+02 -0.14668047995E+02 -0.15649877574E+03  0.18272132595E+03  0.90840295229E+02 0.  0.
        -11    1    3    3    0    0 -0.20382920816E+02 -0.35678648902E+01 -0.57039209556E+02  0.60676721629E+02  0.00000000000E+00 0.  1.
         12    1    3    3    0    0  0.47366509451E+02  0.17562978362E+02 -0.61469843563E+03  0.61677079307E+03  0.00000000000E+00 0. -1.
        -13    1    4    4    0    0 -0.15158784920E+02  0.27949056169E+02 -0.26842131869E+02  0.41610558086E+02  0.00000000000E+00 0.  1.
         13    1    4    4    0    0  0.35849490106E+02 -0.42617104164E+02 -0.12965664387E+03  0.14111076787E+03  0.00000000000E+00 0. -1.
          1    1    1    2  501    0 -0.47674293821E+02  0.67293452264E+00  0.31283486333E+02  0.57025850712E+02  0.00000000000E+00 0. -1.
<scales pt_clust_5="13000.00000" pt_clust_6="13000.00000" pt_clust_7="13000.00000" pt_clust_8="13000.00000" pt_clust_9="47.67904"></scales>
<clustering>
<clus scale="   47.679">  1  9  2 -1</clus>
<clus scale="   82.339">  5  6 -1 -1</clus>
<clus scale="   85.555">  2  5  1 -1</clus>
<clus scale="   90.840">  7  8 -1 -1</clus>
<clus scale="   47.679">  1  5  2 -1</clus>
</clustering>
</event>
<event>
 9    2  0.6469128E-005  0.1032610E+03  0.7546771E-02  0.1278783E+00
          2   -1    0    0  502    0 -0.00000000000E+00  0.00000000000E+00  0.38732973104E+02  0.38732973104E+02  0.00000000000E+00 0. -1.
         21   -1    0    0  501  502  0.00000000000E+00 -0.00000000000E+00 -0.58719124537E+03  0.58719124537E+03  0.00000000000E+00 0.  1.
         24    2    1    2    0    0  0.28291553776E+02 -0.16910754434E+02 -0.20577540588E+03  0.22322693664E+03  0.80002262119E+02 0.  0.
         23    2    1    2    0    0 -0.70863953878E+02  0.22304623201E+02 -0.33990552714E+03  0.35969476233E+03  0.91243402479E+02 0.  0.
        -13    1    3    3    0    0 -0.21254781625E+02 -0.28585974571E+02 -0.85157969255E+02  0.92308197966E+02  0.00000000000E+00 0.  1.
         14    1    3    3    0    0  0.49546335401E+02  0.11675220136E+02 -0.12061743663E+03  0.13091873867E+03  0.00000000000E+00 0. -1.
        -11    1    4    4    0    0 -0.91687196662E+02  0.87597788182E+01 -0.28278536872E+03  0.29740686024E+03  0.00000000000E+00 0.  1.
         11    1    4    4    0    0  0.20823242783E+02  0.13544844383E+02 -0.57120158421E+02  0.62287902095E+02  0.00000000000E+00 0. -1.
          1    1    1    2  501    0  0.42572400103E+02 -0.53938687668E+01 -0.27773392515E+01  0.43002519509E+02  0.00000000000E+00 0. -1.
<scales pt_clust_5="13000.00000" pt_clust_6="13000.00000" pt_clust_7="13000.00000" pt_clust_8="13000.00000" pt_clust_9="42.91276"></scales>
<clustering>
<clus scale="   42.913">  2  9  1 -1</clus>
<clus scale="   80.002">  5  6 -1 -1</clus>
<clus scale="   91.243">  7  8 -1 -1</clus>
<clus scale="   93.476">  1  5  2 -1</clus>
<clus scale="   42.913">  2  5  1 -1</clus>
</clustering>
</event>
<event>
 9    2  0.6469128E-005  0.1456153E+03  0.7546771E-02  0.1227171E+00
          2   -1    0    0  502    0 -0.00000000000E+00  0.00000000000E+00  0.56700529098E+03  0.56700529098E+03  0.00000000000E+00 0. -1.
         21   -1    0    0  501  502  0.00000000000E+00 -0.00000000000E+00 -0.47723510484E+03  0.47723510484E+03  0.00000000000E+00 0. -1.
         24    2    1    2    0    0  0.11031994321E+02  0.47274866824E+02  0.52291451450E+03  0.53112889246E+03  0.79383203503E+02 0.  0.
         23    2    1    2    0    0 -0.57644956299E+02  0.75409019800E+02 -0.28043315103E+03  0.31175408994E+03  0.97664728241E+02 0.  0.
        -11    1    3    3    0    0  0.19521584373E+02  0.29164131165E+02  0.75396604897E+02  0.83164216061E+02  0.00000000000E+00 0.  1.
         12    1    3    3    0    0 -0.84895900515E+01  0.18110735659E+02  0.44751790960E+03  0.44796467640E+03  0.00000000000E+00 0. -1.
        -13    1    4    4    0    0 -0.42815449565E+01  0.65725713009E+02 -0.22400749919E+03  0.23348995840E+03  0.00000000000E+00 0. -1.
         13    1    4    4    0    0 -0.53363411342E+02  0.96833067909E+01 -0.56425651837E+02  0.78264131540E+02  0.00000000000E+00 0.  1.
          1    1    1    2  501    0  0.46612961978E+02 -0.12268388662E+03 -0.15271117732E+03  0.20135741342E+03  0.00000000000E+00 0. -1.
<scales pt_clust_5="13000.00000" pt_clust_6="13000.00000" pt_clust_7="13000.00000" pt_clust_8="13000.00000" pt_clust_9="108.00658"></scales>
<clustering>
<clus scale="   79.383">  5  6 -1 -1</clus>
<clus scale="   93.050">  1  5  2 -1</clus>
<clus scale="   97.665">  7  8 -1 -1</clus>
<clus scale="  108.007">  2  9  1 -1</clus>
<clus scale="  108.007">  2  5  1 -1</clus>
</clustering>
</event>
<event>
 9    2  0.6469128E-005  0.8891541E+02  0.7546771E-02  0.1319476E+00
          2   -1    0    0  502    0 -0.00000000000E+00  0.00000000000E+00  0.32291513207E+03  0.32291513207E+03  0.00000000000E+00 0. -1.
         21   -1    0    0  501  502  0.00000000000E+00 -0.00000000000E+00 -0.58360043429E+02  0.58360043429E+02  0.00000000000E+00 0.  1.
         24    2    1    2    0    0  0.28952364169E+02 -0.19423052782E+02  0.20407981478E+03  0.22348056864E+03  0.84139761037E+02 0.  0.
         23    2    1    2    0    0 -0.28400614690E+02 -0.32429614478E+02  0.71847134811E+02  0.10470672923E+03  0.62795012191E+02 0.  0.
        -13    1    3    3    0    0 -0.41536703889E+01 -0.40601933807E+02  0.50389797507E+02  0.64845213388E+02  0.00000000000E+00 0.  1.
         14    1    3    3    0    0  0.33106034557E+02  0.21178881025E+02  0.15369001727E+03  0.15863535525E+03  0.00000000000E+00 0. -1.
        -13    1    4    4    0    0  0.16889671031E+02 -0.24342047475E+02  0.22213724622E+02  0.37030336541E+02  0.00000000000E+00 0. -1.
         13    1    4    4    0    0 -0.45290285720E+02 -0.80875670033E+01  0.49633410190E+02  0.67676392692E+02  0.00000000000E+00 0.  1.
          1    1    1    2  501    0 -0.55174947872E+00  0.51852667260E+02 -0.11371860953E+02  0.53087877628E+02  0.00000000000E+00 0. -1.
<scales pt_clust_5="13000.00000" pt_clust_6="13000.00000" pt_clust_7="13000.00000" pt_clust_8="13000.00000" pt_clust_9="51.85560"></scales>
<clustering>
<clus scale="   51.856">  2  9  1 -1</clus>
<clus scale="   62.795">  7  8 -1 -1</clus>
<clus scale="   69.063">  2  7  1 -1</clus>
<clus scale="   84.140">  5  6 -1 -1</clus>
<clus scale="   51.856">  2  5  1 -1</clus>
</clustering>
</event>
<event>
 9    2  0.6469128E-005  0.4035842E+03  0.7546771E-02  0.1042546E+00
         21   -1    0    0  501  502  0.00000000000E+00  0.00000000000E+00  0.56623215019E+02  0.56623215019E+02  0.00000000000E+00 0. -1.
          2   -1    0    0  502    0 -0.00000000000E+00 -0.00000000000E+00 -0.28030424385E+04  0.28030424385E+04  0.00000000000E+00 0. -1.
         24    2    1    2    0    0  0.24420196669E+02  0.12510653681E+03 -0.30311046406E+03  0.33861623338E+03  0.80851768861E+02 0.  0.
         23    2    1    2    0    0  0.95367227358E+02  0.20919131963E+03 -0.71364935896E+03  0.75531282444E+03  0.91357205291E+02 0.  0.
        -13    1    3    3    0    0  0.38827164310E+02  0.11155781505E+03 -0.18952098251E+03  0.22331792942E+03  0.00000000000E+00 0.  1.
         14    1    3    3    0    0 -0.14406967641E+02  0.13548721756E+02 -0.11358948155E+03  0.11529830396E+03  0.00000000000E+00 0. -1.
        -11    1    4    4    0    0  0.40206832466E+02  0.11179531847E+02 -0.11231734826E+03  0.11981968966E+03  0.00000000000E+00 0.  1.
         11    1    4    4    0    0  0.55160394892E+02  0.19801178779E+03 -0.60133201069E+03  0.63549313478E+03  0.00000000000E+00 0. -1.
          1    1    1    2  501    0 -0.11978742403E+03 -0.33429785645E+03 -0.17296594005E+04  0.17657365957E+04  0.00000000000E+00 0. -1.
<scales pt_clust_5="13000.00000" pt_clust_6="13000.00000" pt_clust_7="13000.00000" pt_clust_8="13000.00000" pt_clust_9="355.11155"></scales>
<clustering>
<clus scale="   80.852">  5  6 -1 -1</clus>
<clus scale="   91.357">  7  8 -1 -1</clus>
<clus scale="  109.291">  5  7 -1 -1</clus>
<clus scale="  355.112">  1  9  2 -1</clus>
<clus scale="  355.112">  1  5  2 -1</clus>
</clustering>
</event>
<event>
 9    2  0.6469128E-005  0.1189497E+03  0.7546771E-02  0.1247289E+00
         21   -1    0    0  501  502  0.00000000000E+00  0.00000000000E+00  0.79417713001E+02  0.79417713001E+02  0.00000000000E+00 0. -1.
          2   -1    0    0  502    0 -0.00000000000E+00 -0.00000000000E+00 -0.31170859152E+03  0.31170859152E+03  0.00000000000E+00 0. -1.
         23    2    1    2    0    0  0.52948708512E+02  0.32739290067E+02 -0.10899401059E+03  0.15334167156E+03  0.88082614878E+02 0.  0.
         24    2    1    2    0    0 -0.10288690093E+03 -0.19955899019E+02 -0.13066542177E+03  0.18571224360E+03  0.80197460603E+02 0.  0.
        -11    1    4    4    0    0 -0.28949619409E+02  0.25247371953E+02 -0.70266064414E+02  0.80080147744E+02  0.00000000000E+00 0.  1.
         12    1    4    4    0    0 -0.73937281522E+02 -0.45203270972E+02 -0.60399357352E+02  0.10563209585E+03  0.00000000000E+00 0. -1.
        -13    1    3    3    0    0  0.17280319117E+02 -0.28934529583E+02 -0.19446926866E+02  0.38910145149E+02  0.00000000000E+00 0.  1.
         13    1    3    3    0    0  0.35668389395E+02  0.61673819650E+02 -0.89547083727E+02  0.11443152641E+03  0.00000000000E+00 0. -1.
          1    1    1    2  501    0  0.49938192419E+02 -0.12783391048E+02  0.73685538411E+01  0.52072389368E+02  0.00000000000E+00 0. -1.
<scales pt_clust_5="13000.00000" pt_clust_6="13000.00000" pt_clust_7="13000.00000" pt_clust_8="13000.00000" pt_clust_9="51.54841"></scales>
<clustering>
<clus scale="   51.548">  1  9  2 -1</clus>
<clus scale="   80.197">  5  6 -1 -1</clus>
<clus scale="   88.083">  7  8 -1 -1</clus>
<clus scale="  113.235">  1  5  2 -1</clus>
<clus scale="   51.548">  1  5  2 -1</clus>
</clustering>
</event>
<event>
 9    2  0.6469128E-005  0.1342342E+03  0.7546771E-02  0.1227617E+00
         21   -1    0    0  501  502  0.00000000000E+00  0.00000000000E+00  0.14679108016E+03  0.14679108016E+03  0.00000000000E+00 0. -1.
          2   -1    0    0  502    0 -0.00000000000E+00 -0.00000000000E+00 -0.39537245716E+03  0.39537245716E+03  0.00000000000E+00 0. -1.
         23    2    1    2    0    0  0.27603308722E+02 -0.69685942888E+02 -0.64241272270E+02  0.13408076511E+03  0.90733881324E+02 0.  0.
         24    2    1    2    0    0  0.12419268136E+02 -0.95042521570E+02  0.35875247232E+02  0.13017617837E+03  0.80445540107E+02 0.  0.
        -11    1    4    4    0    0  0.21622206186E+02 -0.33278874383E+02 -0.21706296362E+02  0.45234572866E+02  0.00000000000E+00 0.  1.
         12    1    4    4    0    0 -0.92029380499E+01 -0.61763647187E+02  0.57581543594E+02  0.84941605502E+02  0.00000000000E+00 0. -1.
        -11    1    3    3    0    0  0.28254779268E+02  0.13944998655E+01 -0.55717984099E+02  0.62488166347E+02  0.00000000000E+00 0. -1.
         11    1    3    3    0    0 -0.65147054675E+00 -0.71080442753E+02 -0.85232881713E+01  0.71592598759E+02  0.00000000000E+00 0.  1.
          1    1    1    2  501    0 -0.40022576858E+02  0.16472846446E+03 -0.22021535196E+03  0.27790659384E+03  0.00000000000E+00 0. -1.
<scales pt_clust_5="13000.00000" pt_clust_6="13000.00000" pt_clust_7="13000.00000" pt_clust_8="13000.00000" pt_clust_9="107.45853"></scales>
<clustering>
<clus scale="   80.446">  5  6 -1 -1</clus>
<clus scale="   90.734">  7  8 -1 -1</clus>
<clus scale="  117.689">  2  7  1 -1</clus>
<clus scale="  107.459">  1  9  2 -1</clus>
<clus scale="  107.459">  1  5  2 -1</clus>
</clustering>
</event>
<event>
 9    2  0.6469128E-005  0.1002749E+03  0.7546771E-02  0.1283387E+00
          2   -1    0    0  502    0 -0.00000000000E+00  0.00000000000E+00  0.63243000276E+03  0.63243000276E+03  0.00000000000E+00 0. -1.
         21   -1    0    0  501  502  0.00000000000E+00 -0.00000000000E+00 -0.31183912730E+02  0.31183912730E+02  0.00000000000E+00 0. -1.
         24    2    1    2    0    0  0.34752362012E+02  0.61561526294E+01  0.33078234003E+03  0.34252372638E+03  0.81608343790E+02 0.  0.
         23    2    1    2    0    0 -0.66122636961E+02  0.23988906146E+01  0.26599577860E+03  0.28826876800E+03  0.89259008373E+02 0.  0.
        -13    1    3    3    0    0  0.31126428661E+02  0.40885119450E+02  0.15464470317E+03  0.16295837435E+03  0.00000000000E+00 0.  1.
         14    1    3    3    0    0  0.36259333516E+01 -0.34728966821E+02  0.17613763686E+03  0.17956535202E+03  0.00000000000E+00 0. -1.
        -11    1    4    4    0    0 -0.42786844497E+01  0.38688910164E+02  0.81159373352E+02  0.90011014843E+02  0.00000000000E+00 0.  1.
         11    1    4    4    0    0 -0.61843952512E+02 -0.36290019550E+02  0.18483640525E+03  0.19825775316E+03  0.00000000000E+00 0. -1.
          1    1    1    2  501    0  0.31370274949E+02 -0.85550432439E+01  0.44679713993E+01  0.32821421111E+02  0.00000000000E+00 0. -1.
<scales pt_clust_5="13000.00000" pt_clust_6="13000.00000" pt_clust_7="13000.00000" pt_clust_8="13000.00000" pt_clust_9="32.51589"></scales>
<clustering>
<clus scale="   32.516">  2  9  1 -1</clus>
<clus scale="   81.608">  5  6 -1 -1</clus>
<clus scale="   89.259">  7  8 -1 -1</clus>
<clus scale="   93.530">  1  5  2 -1</clus>
<clus scale="   32.516">  2  5  1 -1</clus>
</clustering>
</event>
<event>
 9    2  0.6469128E-005  0.1735923E+03  0.7546771E-02  0.1194542E+00
         21   -1    0    0  501  502  0.00000000000E+00  0.00000000000E+00  0.88174091446E+02  0.88174091446E+02  0.00000000000E+00 0.  1.
          2   -1    0    0  502    0 -0.00000000000E+00 -0.00000000000E+00 -0.91597058252E+03  0.91597058252E+03  0.00000000000E+00 0. -1.
         23    2    1    2    0    0  0.16685366552E+02 -0.61518892802E+02 -0.55103698905E+02  0.12315845918E+03  0.89825457451E+02 0.  0.
         24    2    1    2    0    0  0.68894731415E+02  0.14863604518E+03 -0.12324326003E+03  0.22015488517E+03  0.80250323225E+02 0.  0.
        -13    1    4    4    0    0  0.21766580711E+02  0.92234252022E+02 -0.26019139811E+02  0.98274803070E+02  0.00000000000E+00 0.  1.
         14    1    4    4    0    0  0.47128150704E+02  0.56401793157E+02 -0.97224120219E+02  0.12188008210E+03  0.00000000000E+00 0. -1.
        -13    1    3    3    0    0  0.44856826173E+02 -0.16949677526E+02 -0.15094540932E+01  0.47976086483E+02  0.00000000000E+00 0. -1.
         13    1    3    3    0    0 -0.28171459622E+02 -0.44569215276E+02 -0.53594244812E+02  0.75182372698E+02  0.00000000000E+00 0.  1.
          1    1    1    2  501    0 -0.85580097967E+02 -0.87117152377E+02 -0.64944953214E+03  0.66083132962E+03  0.00000000000E+00 0. -1.
<scales pt_clust_5="13000.00000" pt_clust_6="13000.00000" pt_clust_7="13000.00000" pt_clust_8="13000.00000" pt_clust_9="153.92920"></scales>
<clustering>
<clus scale="   80.250">  5  6 -1 -1</clus>
<clus scale="   89.825">  7  8 -1 -1</clus>
<clus scale="  110.144">  2  7  1 -1</clus>
<clus scale="  153.929">  1  9  2 -1</clus>
<clus scale="  153.929">  1  5  2 -1</clus>
</clustering>
</event>
<event>
 9    2  0.6469128E-005  0.1167974E+03  0.7546771E-02  0.1268269E+00
         21   -1    0    0  501  502  0.00000000000E+00  0.00000000000E+00  0.65931047444E+02  0.65931047444E+02  0.00000000000E+00 0. -1.
         -1   -1    0    0    0  501 -0.00000000000E+00 -0.00000000000E+00 -0.30510842970E+03  0.30510842970E+03  0.00000000000E+00 0.  1.
         24    2    1    2    0    0 -0.11570948272E+02 -0.16097321631E+01 -0.59531929740E+02  0.98976780660E+02  0.78204055967E+02 0.  0.
         23    2    1    2    0    0  0.76417914648E+02 -0.43846019718E+02 -0.77702094935E+02  0.14297434464E+03  0.81497708823E+02 0.  0.
        -13    1    3    3    0    0  0.10917024245E+02  0.21338592630E+02  0.71036032967E+01  0.24999562668E+02  0.00000000000E+00 0.  1.
         14    1    3    3    0    0 -0.22487972517E+02 -0.22948324793E+02 -0.66635533037E+02  0.73977217992E+02  0.00000000000E+00 0. -1.
        -11    1    4    4    0    0  0.59525489552E+02 -0.67667067689E+02 -0.51856245782E+02  0.10397685407E+03  0.00000000000E+00 0. -1.
         11    1    4    4    0    0  0.16892425096E+02  0.23821047971E+02 -0.25845849153E+02  0.38997490567E+02  0.00000000000E+00 0.  1.
         -2    1    1    2    0  502 -0.64846966376E+02  0.45455751881E+02 -0.10194335758E+03  0.12908835185E+03  0.00000000000E+00 0.  1.
<scales pt_clust_5="13000.00000" pt_clust_6="13000.00000" pt_clust_7="13000.00000" pt_clust_8="13000.00000" pt_clust_9="83.66455"></scales>
<clustering>
<clus scale="   78.204">  5  6 -1 -1</clus>
<clus scale="   79.072">  2  5  1 -1</clus>
<clus scale="   81.498">  7  8 -1 -1</clus>
<clus scale="   83.665">  1  9  2 -1</clus>
<clus scale="   83.665">  1  5  2 -1</clus>
</clustering>
</event>
<event>
 9    2  0.6469128E-005  0.4347121E+03  0.7546771E-02  0.1046168E+00
         21   -1    0    0  501  502  0.00000000000E+00  0.00000000000E+00  0.31232745980E+03  0.31232745980E+03  0.00000000000E+00 0. -1.
          2   -1    0    0  502    0 -0.00000000000E+00 -0.00000000000E+00 -0.17462083449E+04  0.17462083449E+04  0.00000000000E+00 0. -1.
         23    2    1    2    0    0 -0.26992936439E+03  0.64524212708E+02 -0.99963728729E+03  0.10411043486E+04  0.87168358368E+02 0.  0.
         24    2    1    2    0    0 -0.20705887937E+03 -0.25387799578E+03 -0.36875616049E+03  0.50007157721E+03  0.82237826880E+02 0.  0.
        -11    1    4    4    0    0 -0.13802772624E+01 -0.35455650102E+02 -0.22951732700E+02  0.42258612417E+02  0.00000000000E+00 0.  1.
         12    1    4    4    0    0 -0.20567860211E+03 -0.21842234568E+03 -0.34580442779E+03  0.45781296479E+03  0.00000000000E+00 0. -1.
        -11    1    3    3    0    0 -0.93025828266E+02  0.12129304897E+02 -0.20681942401E+03  0.22710173691E+03  0.00000000000E+00 0.  1.
         11    1    3    3    0    0 -0.17690353612E+03  0.52394907811E+02 -0.79281786328E+03  0.81400261166E+03  0.00000000000E+00 0. -1.
          1    1    1    2  501    0  0.47698824376E+03  0.18935378307E+03 -0.65487437302E+02  0.51735987890E+03  0.00000000000E+00 0. -1.
<scales pt_clust_5="13000.00000" pt_clust_6="13000.00000" pt_clust_7="13000.00000" pt_clust_8="13000.00000" pt_clust_9="426.86241"></scales>
<clustering>
<clus scale="   82.238">  5  6 -1 -1</clus>
<clus scale="   87.168">  7  8 -1 -1</clus>
<clus scale="  290.901">  2  7  1 -1</clus>
<clus scale="  426.862">  1  9  2 -1</clus>
<clus scale="  426.862">  1  5  2 -1</clus>
</clustering>
</event>
<event>
 9    2  0.6469128E-005  0.1020057E+03  0.7546771E-02  0.1278761E+00
         21   -1    0    0  501  502  0.00000000000E+00  0.00000000000E+00  0.35049550223E+02  0.35049550223E+02  0.00000000000E+00 0.  1.
          2   -1    0    0  502    0 -0.00000000000E+00 -0.00000000000E+00 -0.55558371551E+03  0.55558371551E+03  0.00000000000E+00 0. -1.
         24    2    1    2    0    0 -0.10482502262E+02 -0.55480701466E+02 -0.28911031313E+03  0.30976311758E+03  0.95814533177E+02 0.  0.
         23    2    1    2    0    0 -0.17517521593E+02  0.54818732123E-01 -0.10293415017E+03  0.13816193770E+03  0.90478810725E+02 0.  0.
        -13    1    3    3    0    0 -0.39543900141E+02 -0.55901414464E+02 -0.25906080577E+03  0.26795743927E+03  0.00000000000E+00 0.  1.
         14    1    3    3    0    0  0.29061397880E+02  0.42071299847E+00 -0.30049507362E+02  0.41805678309E+02  0.00000000000E+00 0. -1.
        -13    1    4    4    0    0 -0.38161005085E+02 -0.17757965496E+02 -0.10259521168E+03  0.11089357559E+03  0.00000000000E+00 0. -1.
         13    1    4    4    0    0  0.20643483492E+02  0.17812784228E+02 -0.33893848434E+00  0.27268362106E+02  0.00000000000E+00 0.  1.
          1    1    1    2  501    0  0.28000023855E+02  0.55425882733E+02 -0.12848970199E+03  0.14270821045E+03  0.00000000000E+00 0. -1.
<scales pt_clust_5="13000.00000" pt_clust_6="13000.00000" pt_clust_7="13000.00000" pt_clust_8="13000.00000" pt_clust_9="62.09697"></scales>
<clustering>
<clus scale="   62.097">  1  9  2 -1</clus>
<clus scale="   90.479">  7  8 -1 -1</clus>
<clus scale="   95.815">  5  6 -1 -1</clus>
<clus scale="   97.011">  1  7  2 -1</clus>
<clus scale="   62.097">  1  5  2 -1</clus>
</clustering>
</event>
<event>
 9    2  0.6469128E-005  0.1144870E+03  0.7546771E-02  0.1269905E+00
         21   -1    0    0  501  502  0.00000000000E+00  0.00000000000E+00  0.22326445285E+03  0.22326445285E+03  0.00000000000E+00 0. -1.
          2   -1    0    0  502    0 -0.00000000000E+00 -0.00000000000E+00 -0.87651340547E+02  0.87651340547E+02  0.00000000000E+00 0. -1.
         23    2    1    2    0    0  0.10671920900E+02  0.45751095485E+02  0.21621683984E+02  0.12412311518E+03  0.11283615498E+03 0.  0.
         24    2    1    2    0    0 -0.13335927058E+02  0.91077554942E+01  0.29177796448E+02  0.85748417564E+02  0.78997779390E+02 0.  0.
        -11    1    4    4    0    0 -0.15413887739E+02 -0.16526700289E+02 -0.20047403434E+02  0.30209570373E+02  0.00000000000E+00 0.  1.
         12    1    4    4    0    0  0.20779606804E+01  0.25634455783E+02  0.49225199882E+02  0.55538847191E+02  0.00000000000E+00 0. -1.
        -13    1    3    3    0    0 -0.22908277219E+02 -0.13871052046E+02  0.44529485433E+02  0.51962200905E+02  0.00000000000E+00 0.  1.
         13    1    3    3    0    0  0.33580198119E+02  0.59622147531E+02 -0.22907801448E+02  0.72160914276E+02  0.00000000000E+00 0. -1.
          1    1    1    2  501    0  0.26640061578E+01 -0.54858850979E+02  0.84813631873E+02  0.10104426065E+03  0.00000000000E+00 0. -1.
<scales pt_clust_5="13000.00000" pt_clust_6="13000.00000" pt_clust_7="13000.00000" pt_clust_8="13000.00000" pt_clust_9="54.92350"></scales>
<clustering>
<clus scale="   54.923">  1  9  2 -1</clus>
<clus scale="   78.998">  5  6 -1 -1</clus>
<clus scale="   81.338">  1  5  2 -1</clus>
<clus scale="  112.836">  7  8 -1 -1</clus>
<clus scale="   54.923">  1  5  2 -1</clus>
</clustering>
</event>
<event>
 9    2  0.6469128E-005  0.9083361E+02  0.7546771E-02  0.1306386E+00
         21   -1    0    0  501  502  0.00000000000E+00  0.00000000000E+00  0.27304065633E+02  0.27304065633E+02  0.00000000000E+00 0.  1.
          2   -1    0    0  502    0 -0.00000000000E+00 -0.00000000000E+00 -0.68339593923E+03  0.68339593923E+03  0.00000000000E+00 0. -1.
         24    2    1    2    0    0  0.24569202835E+02  0.23883287253E+01 -0.38307113482E+03  0.39235222194E+03  0.81162934217E+02 0.  0.
         23    2    1    2    0    0  0.33263166895E+02  0.15376601333E+02 -0.12427754853E+03  0.15777159423E+03  0.90022712340E+02 0.  0.
        -13    1    3    3    0    0 -0.29956827691E+02 -0.22135972814E+01 -0.12794837194E+03  0.13142715632E+03  0.00000000000E+00 0.  1.
         14    1    3    3    0    0  0.54526030526E+02  0.46019260068E+01 -0.25512276288E+03  0.26092506562E+03  0.00000000000E+00 0. -1.
        -11    1    4    4    0    0  0.40388961568E+02  0.45168134535E+02 -0.10601449898E+03  0.12210856885E+03  0.00000000000E+00 0.  1.
         11    1    4    4    0    0 -0.71257946721E+01 -0.29791533201E+02 -0.18263049556E+02  0.35663025380E+02  0.00000000000E+00 0. -1.
          1    1    1    2  501    0 -0.57832369731E+02 -0.17764930059E+02 -0.14874319025E+03  0.16057618869E+03  0.00000000000E+00 0. -1.
<scales pt_clust_5="13000.00000" pt_clust_6="13000.00000" pt_clust_7="13000.00000" pt_clust_8="13000.00000" pt_clust_9="60.49942"></scales>
<clustering>
<clus scale="   60.499">  1  9  2 -1</clus>
<clus scale="   81.163">  5  6 -1 -1</clus>
<clus scale="   82.061">  2  5  1 -1</clus>
<clus scale="   90.023">  7  8 -1 -1</clus>
<clus scale="   60.499">  1  5  2 -1</clus>
</clustering>
</event>
<event>
 9    2  0.6469128E-005  0.8236034E+02  0.7546771E-02  0.1323233E+00
         21   -1    0    0  501  502  0.00000000000E+00  0.00000000000E+00  0.88415673881E+02  0.88415673881E+02  0.00000000000E+00 0.  1.
          2   -1    0    0  502    0 -0.00000000000E+00 -0.00000000000E+00 -0.47125925666E+03  0.47125925666E+03  0.00000000000E+00 0. -1.
         24    2    1    2    0    0  0.86059910180E+01  0.57198659120E+01 -0.41725978681E+03  0.42512595136E+03  0.80743822614E+02 0.  0.
         23    2    1    2    0    0 -0.10587383292E+02  0.31240379647E+02  0.70553351748E+01  0.88520696437E+02  0.81841810450E+02 0.  0.
        -11    1    3    3    0    0 -0.35077501655E+02 -0.65091049339E+01 -0.20382692130E+03  0.20692562291E+03  0.00000000000E+00 0.  1.
         12    1    3    3    0    0  0.43683492673E+02  0.12228970846E+02 -0.21343286550E+03  0.21820032845E+03  0.00000000000E+00 0. -1.
        -13    1    4    4    0    0  0.30523912820E+02 -0.56116585153E+01 -0.64128860955E+01  0.31691088230E+02  0.00000000000E+00 0. -1.
         13    1    4    4    0    0 -0.41111296112E+02  0.36852038162E+02  0.13468221270E+02  0.56829608206E+02  0.00000000000E+00 0.  1.
          1    1    1    2  501    0  0.19813922743E+01 -0.36960245559E+02  0.27360868856E+02  0.46028282736E+02  0.00000000000E+00 0. -1.
<scales pt_clust_5="13000.00000" pt_clust_6="13000.00000" pt_clust_7="13000.00000" pt_clust_8="13000.00000" pt_clust_9="37.01332"></scales>
<clustering>
<clus scale="   37.013">  1  9  2 -1</clus>
<clus scale="   80.744">  5  6 -1 -1</clus>
<clus scale="   81.269">  2  5  1 -1</clus>
<clus scale="   81.842">  7  8 -1 -1</clus>
<clus scale="   37.013">  1  5  2 -1</clus>
</clustering>
</event>
<event>
 9    2  0.6469128E-005  0.1505826E+03  0.7546771E-02  0.1226761E+00
          4   -1    0    0  502    0 -0.00000000000E+00  0.00000000000E+00  0.37272416318E+03  0.37272416318E+03  0.00000000000E+00 0. -1.
         21   -1    0    0  501  502  0.00000000000E+00 -0.00000000000E+00 -0.14231790600E+03  0.14231790600E+03  0.00000000000E+00 0. -1.
         24    2    1    2    0    0  0.14798851509E+02 -0.20402879572E+02  0.47990473430E+01  0.84996462648E+02  0.81031378530E+02 0.  0.
         23    2    1    2    0    0 -0.92554092291E+02  0.10980613462E+03  0.25710262678E+03  0.30744552182E+03  0.88302553685E+02 0.  0.
        -11    1    3    3    0    0  0.18286926996E+02 -0.49995804292E+02  0.11479760189E+02  0.54458948207E+02  0.00000000000E+00 0.  1.
         12    1    3    3    0    0 -0.34880754871E+01  0.29592924720E+02 -0.66807128460E+01  0.30537514441E+02  0.00000000000E+00 0. -1.
        -11    1    4    4    0    0 -0.87157015016E+02  0.35547468901E+02  0.14259441188E+03  0.17085998393E+03  0.00000000000E+00 0.  1.
         11    1    4    4    0    0 -0.53970772742E+01  0.74258665724E+02  0.11450821490E+03  0.13658553788E+03  0.00000000000E+00 0. -1.
          3    1    1    2  501    0  0.77755240781E+02 -0.89403255052E+02 -0.31495416943E+02  0.12260008471E+03  0.00000000000E+00 0. -1.
<scales pt_clust_5="13000.00000" pt_clust_6="13000.00000" pt_clust_7="13000.00000" pt_clust_8="13000.00000" pt_clust_9="121.97455"></scales>
<clustering>
<clus scale="   81.031">  5  6 -1 -1</clus>
<clus scale="   84.861">  1  5  2 -1</clus>
<clus scale="   88.303">  7  8 -1 -1</clus>
<clus scale="  121.975">  2  9  1 -1</clus>
<clus scale="  121.975">  2  5  1 -1</clus>
</clustering>
</event>
<event>
 9    2  0.6469128E-005  0.1119569E+03  0.7546771E-02  0.1262032E+00
          2   -1    0    0  502    0 -0.00000000000E+00  0.00000000000E+00  0.10120902546E+03  0.10120902546E+03  0.00000000000E+00 0. -1.
         21   -1    0    0  501  502  0.00000000000E+00 -0.00000000000E+00 -0.58859774833E+03  0.58859774833E+03  0.00000000000E+00 0. -1.
         23    2    1    2    0    0 -0.27911169671E+02  0.63010135711E+02  0.54752869022E+02  0.12828219800E+03  0.93322746756E+02 0.  0.
         24    2    1    2    0    0  0.13495766780E+02 -0.15522690567E+02 -0.21142570856E+03  0.22710589094E+03  0.80331599108E+02 0.  0.
        -11    1    4    4    0    0  0.36966213236E+02 -0.19705370374E+02 -0.19152073696E+03  0.19604845122E+03  0.00000000000E+00 0.  1.
         12    1    4    4    0    0 -0.23470446455E+02  0.41826798069E+01 -0.19904971606E+02  0.31057439718E+02  0.00000000000E+00 0. -1.
        -13    1    3    3    0    0 -0.31841356053E+02  0.30518363704E-01  0.56833946916E+02  0.65145762784E+02  0.00000000000E+00 0. -1.
         13    1    3    3    0    0  0.39301863820E+01  0.62979617347E+02 -0.20810778937E+01  0.63136435213E+02  0.00000000000E+00 0.  1.
          1    1    1    2  501    0  0.14415402891E+02 -0.47487445144E+02 -0.33071588334E+03  0.33441868485E+03  0.00000000000E+00 0. -1.
<scales pt_clust_5="13000.00000" pt_clust_6="13000.00000" pt_clust_7="13000.00000" pt_clust_8="13000.00000" pt_clust_9="49.62722"></scales>
<clustering>
<clus scale="   49.627">  2  9  1 -1</clus>
<clus scale="   80.332">  5  6 -1 -1</clus>
<clus scale="   93.323">  7  8 -1 -1</clus>
<clus scale="  101.382">  2  5  1 -1</clus>
<clus scale="   49.627">  2  5  1 -1</clus>
</clustering>
</event>
<event>
 9    2  0.6469128E-005  0.1941775E+03  0.7546771E-02  0.1155860E+00
         21   -1    0    0  501  502  0.00000000000E+00  0.00000000000E+00  0.18560496061E+03  0.18560496061E+03  0.00000000000E+00 0.  1.
          2   -1    0    0  502    0 -0.00000000000E+00 -0.00000000000E+00 -0.77439189178E+03  0.77439189178E+03  0.00000000000E+00 0. -1.
         24    2    1    2    0    0 -0.12083643722E+03 -0.11566269344E+03 -0.64089316243E+03  0.66717886369E+03  0.80026791079E+02 0.  0.
         23    2    1    2    0    0  0.14493843827E+03  0.16193163939E+03  0.47577836142E+02  0.24045170016E+03  0.91237946562E+02 0.  0.
        -13    1    3    3    0    0 -0.26074197098E+02  0.91962832878E+01 -0.73351539045E+02  0.78389308333E+02  0.00000000000E+00 0.  1.
         14    1    3    3    0    0 -0.94762240121E+02 -0.12485897673E+03 -0.56754162339E+03  0.58878955536E+03  0.00000000000E+00 0. -1.
        -11    1    4    4    0    0  0.90822921094E+02  0.13983047452E+03  0.65756953452E+02  0.17923543602E+03  0.00000000000E+00 0.  1.
         11    1    4    4    0    0  0.54115517179E+02  0.22101164870E+02 -0.18179117310E+02  0.61216264132E+02  0.00000000000E+00 0. -1.
          1    1    1    2  501    0 -0.24102001053E+02 -0.46268945947E+02  0.45283951235E+01  0.52366288547E+02  0.00000000000E+00 0. -1.
<scales pt_clust_5="13000.00000" pt_clust_6="13000.00000" pt_clust_7="13000.00000" pt_clust_8="13000.00000" pt_clust_9="52.17012"></scales>
<clustering>
<clus scale="   52.170">  1  9  2 -1</clus>
<clus scale="   80.027">  5  6 -1 -1</clus>
<clus scale="   91.238">  7  8 -1 -1</clus>
<clus scale="  189.169">  2  5  1 -1</clus>
<clus scale="   52.170">  1  5  2 -1</clus>
</clustering>
</event>
<event>
 9    2  0.6469128E-005  0.1345532E+03  0.7546771E-02  0.1223093E+00
         21   -1    0    0  501  502  0.00000000000E+00  0.00000000000E+00  0.37324642112E+03  0.37324642112E+03  0.00000000000E+00 0. -1.
          2   -1    0    0  502    0 -0.00000000000E+00 -0.00000000000E+00 -0.17118990194E+03  0.17118990194E+03  0.00000000000E+00 0. -1.
         24    2    1    2    0    0 -0.62318045145E+02  0.34040195876E+02  0.12474953307E+03  0.16486528916E+03  0.81091577134E+02 0.  0.
         23    2    1    2    0    0  0.81126994164E+02 -0.12406506383E+03  0.17418594736E+03  0.24599039703E+03  0.90536191249E+02 0.  0.
        -11    1    3    3    0    0 -0.61697778083E+02 -0.10044417480E+02  0.60890002548E+02  0.87264532046E+02  0.00000000000E+00 0.  1.
         12    1    3    3    0    0 -0.62026706189E+00  0.44084613356E+02  0.63859530518E+02  0.77600757109E+02  0.00000000000E+00 0. -1.
        -13    1    4    4    0    0 -0.20208804236E+02 -0.20189254478E+02  0.29785230392E+02  0.41269379866E+02  0.00000000000E+00 0.  1.
         13    1    4    4    0    0  0.10133579840E+03 -0.10387580935E+03  0.14440071697E+03  0.20472101716E+03  0.00000000000E+00 0. -1.
          1    1    1    2  501    0 -0.18808949020E+02  0.90024867956E+02 -0.96878961250E+02  0.13358063687E+03  0.00000000000E+00 0. -1.
<scales pt_clust_5="13000.00000" pt_clust_6="13000.00000" pt_clust_7="13000.00000" pt_clust_8="13000.00000" pt_clust_9="91.96881"></scales>
<clustering>
<clus scale="   81.092">  5  6 -1 -1</clus>
<clus scale="   90.536">  7  8 -1 -1</clus>
<clus scale="   91.969">  1  9  2 -1</clus>
<clus scale="  128.389">  2  5  1 -1</clus>
<clus scale="   91.969">  1  5  2 -1</clus>
</clustering>
</event>
<event>
 9    2  0.6469128E-005  0.2313863E+03  0.7546771E-02  0.1126548E+00
          2   -1    0    0  502    0 -0.00000000000E+00  0.00000000000E+00  0.13977473991E+04  0.13977473991E+04  0.00000000000E+00 0. -1.
         21   -1    0    0  501  502  0.00000000000E+00 -0.00000000000E+00 -0.58022487672E+02  0.58022487672E+02  0.00000000000E+00 0. -1.
         23    2    1    2    0    0 -0.75119071780E+02  0.21875681374E+03  0.88758317743E+03  0.92196268269E+03  0.93348127548E+02 0.  0.
         24    2    1    2    0    0  0.16218820026E+02 -0.18668826982E+03  0.39970020734E+03  0.44867351578E+03  0.80200422747E+02 0.  0.
        -11    1    4    4    0    0  0.84544576724E+01 -0.84302883077E+02  0.95775886415E+02  0.12787288363E+03  0.00000000000E+00 0.  1.
         12    1    4    4    0    0  0.77643623534E+01 -0.10238538674E+03  0.30392432092E+03  0.32080063215E+03  0.00000000000E+00 0. -1.
        -13    1    3    3    0    0 -0.49149270043E+02  0.10063102077E+03  0.26422011450E+03  0.28697477588E+03  0.00000000000E+00 0. -1.
         13    1    3    3    0    0 -0.25969801738E+02  0.11812579297E+03  0.62336306293E+03  0.63498790681E+03  0.00000000000E+00 0.  1.
          1    1    1    2  501    0  0.58900251755E+02 -0.32068543922E+02  0.52441526687E+02  0.85133688322E+02  0.00000000000E+00 0. -1.
<scales pt_clust_5="13000.00000" pt_clust_6="13000.00000" pt_clust_7="13000.00000" pt_clust_8="13000.00000" pt_clust_9="67.06438"></scales>
<clustering>
<clus scale="   67.064">  2  9  1 -1</clus>
<clus scale="   80.200">  5  6 -1 -1</clus>
<clus scale="   93.348">  7  8 -1 -1</clus>
<clus scale="  226.402">  2  5  1 -1</clus>
<clus scale="   67.064">  2  5  1 -1</clus>
</clustering>
</event>
<event>
 9    2  0.6469128E-005  0.1466325E+03  0.7546771E-02  0.1220332E+00
         21   -1    0    0  501  502  0.00000000000E+00  0.00000000000E+00  0.29646846598E+02  0.29646846598E+02  0.00000000000E+00 0. -1.
          2   -1    0    0  502    0 -0.00000000000E+00 -0.00000000000E+00 -0.14323881897E+04  0.14323881897E+04  0.00000000000E+00 0. -1.
         23    2    1    2    0    0 -0.16774057130E+02 -0.51852858600E+02 -0.21873242040E+03  0.24267423018E+03  0.89871142860E+02 0.  0.
         24    2    1    2    0    0  0.29397140212E+01  0.15916169273E+03 -0.84148536767E+03  0.86015479186E+03  0.80172037599E+02 0.  0.
        -13    1    4    4    0    0 -0.37078549837E+02  0.54706504884E+02 -0.28913147283E+03  0.29658831588E+03  0.00000000000E+00 0.  1.
         14    1    4    4    0    0  0.40018263858E+02  0.10445518784E+03 -0.55235389483E+03  0.56356647598E+03  0.00000000000E+00 0. -1.
        -11    1    3    3    0    0  0.18487081834E+02 -0.58887513590E+02 -0.90846946595E+02  0.10983022880E+03  0.00000000000E+00 0. -1.
         11    1    3    3    0    0 -0.35261138965E+02  0.70346549901E+01 -0.12788547381E+03  0.13284400138E+03  0.00000000000E+00 0.  1.
          1    1    1    2  501    0  0.13834343109E+02 -0.10730883413E+03 -0.34252355508E+03  0.35920601431E+03  0.00000000000E+00 0. -1.
<scales pt_clust_5="13000.00000" pt_clust_6="13000.00000" pt_clust_7="13000.00000" pt_clust_8="13000.00000" pt_clust_9="122.77438"></scales>
<clustering>
<clus scale="   80.172">  5  6 -1 -1</clus>
<clus scale="   89.871">  7  8 -1 -1</clus>
<clus scale="  105.104">  2  7  1 -1</clus>
<clus scale="  122.774">  1  9  2 -1</clus>
<clus scale="  122.774">  1  5  2 -1</clus>
</clustering>
</event>
<event>
 9    2  0.6469128E-005  0.9425233E+02  0.7546771E-02  0.1300703E+00
          2   -1    0    0  502    0 -0.00000000000E+00  0.00000000000E+00  0.11871800632E+04  0.11871800632E+04  0.00000000000E+00 0. -1.
         21   -1    0    0  501  502  0.00000000000E+00 -0.00000000000E+00 -0.72338160666E+02  0.72338160666E+02  0.00000000000E+00 0. -1.
         24    2    1    2    0    0 -0.24559236687E+01 -0.19705353170E+02  0.10933779737E+04  0.10964506979E+04  0.79588988499E+02 0.  0.
         23    2    1    2    0    0 -0.96578263535E+01 -0.22819365326E+02  0.52272967103E+02  0.10917604738E+03  0.92590221884E+02 0.  0.
        -13    1    3    3    0    0  0.14920961268E+01  0.20588475621E+02  0.93420411301E+02  0.95673846619E+02  0.00000000000E+00 0.  1.
         14    1    3    3    0    0 -0.39480197955E+01 -0.40293828791E+02  0.99995756239E+03  0.10007768513E+04  0.00000000000E+00 0. -1.
        -11    1    4    4    0    0 -0.23629277767E+02  0.91734299263E+01 -0.17742302568E+02  0.30940004603E+02  0.00000000000E+00 0.  1.
         11    1    4    4    0    0  0.13971451414E+02 -0.31992795252E+02  0.70015269671E+02  0.78236042779E+02  0.00000000000E+00 0. -1.
          1    1    1    2  501    0  0.12113750022E+02  0.42524718496E+02 -0.30809038269E+02  0.53891478564E+02  0.00000000000E+00 0. -1.
<scales pt_clust_5="13000.00000" pt_clust_6="13000.00000" pt_clust_7="13000.00000" pt_clust_8="13000.00000" pt_clust_9="44.21645"></scales>
<clustering>
<clus scale="   44.216">  2  9  1 -1</clus>
<clus scale="   79.589">  5  6 -1 -1</clus>
<clus scale="   81.517">  1  5  2 -1</clus>
<clus scale="   92.590">  7  8 -1 -1</clus>
<clus scale="   44.216">  2  5  1 -1</clus>
</clustering>
</event>
<event>
 9    2  0.6469128E-005  0.1560467E+03  0.7546771E-02  0.1193290E+00
          2   -1    0    0  502    0 -0.00000000000E+00  0.00000000000E+00  0.74533433008E+03  0.74533433008E+03  0.00000000000E+00 0. -1.
         21   -1    0    0  501  502  0.00000000000E+00 -0.00000000000E+00 -0.45067920086E+02  0.45067920086E+02  0.00000000000E+00 0.  1.
         23    2    1    2    0    0  0.13673821182E+03 -0.22042081344E+02  0.51962374294E+03  0.54409780446E+03  0.82767111001E+02 0.  0.
         24    2    1    2    0    0 -0.11556154107E+03  0.14311647117E+02  0.14206846604E+03  0.20162581568E+03  0.83127778071E+02 0.  0.
        -13    1    4    4    0    0 -0.50441583652E+02 -0.51314866793E+01  0.80177268763E+01  0.51331953607E+02  0.00000000000E+00 0.  1.
         14    1    4    4    0    0 -0.65119957422E+02  0.19443133796E+02  0.13405073916E+03  0.15029386207E+03  0.00000000000E+00 0. -1.
        -11    1    3    3    0    0  0.13136054525E+03 -0.43458610063E+02  0.46595253535E+03  0.48606173357E+03  0.00000000000E+00 0. -1.
         11    1    3    3    0    0  0.53776665688E+01  0.21416528719E+02  0.53671207591E+02  0.58036070891E+02  0.00000000000E+00 0.  1.
          1    1    1    2  501    0 -0.21176670749E+02  0.77304342268E+01  0.38574201007E+02  0.44678630022E+02  0.00000000000E+00 0. -1.
<scales pt_clust_5="13000.00000" pt_clust_6="13000.00000" pt_clust_7="13000.00000" pt_clust_8="13000.00000" pt_clust_9="22.54354"></scales>
<clustering>
<clus scale="   22.544">  2  9  1 -1</clus>
<clus scale="   82.767">  7  8 -1 -1</clus>
<clus scale="   83.128">  5  6 -1 -1</clus>
<clus scale="  155.855">  1  7  2 -1</clus>
<clus scale="   22.544">  2  5  1 -1</clus>
</clustering>
</event>
<event>
 9    2  0.6469128E-005  0.9593986E+02  0.7546771E-02  0.1293045E+00
         21   -1    0    0  501  502  0.00000000000E+00  0.00000000000E+00  0.98966332650E+02  0.98966332650E+02  0.00000000000E+00 0. -1.
         -1   -1    0    0    0  501 -0.00000000000E+00 -0.00000000000E+00 -0.59987619507E+03  0.59987619507E+03  0.00000000000E+00 0.  1.
         24    2    1    2    0    0 -0.50879016413E+01  0.33031689447E+02 -0.49506987480E+03  0.50313825263E+03  0.83288300961E+02 0.  0.
         23    2    1    2    0    0 -0.19769185486E+02 -0.22977684712E+02 -0.75047425636E+02  0.12148414797E+03  0.90595184337E+02 0.  0.
        -13    1    3    3    0    0  0.90315564594E+01  0.58857409105E+02 -0.29903189942E+03  0.30490300177E+03  0.00000000000E+00 0.  1.
         14    1    3    3    0    0 -0.14119458101E+02 -0.25825719658E+02 -0.19603797538E+03  0.19823525086E+03  0.00000000000E+00 0. -1.
        -11    1    4    4    0    0  0.10740047070E+02 -0.52087824982E+02 -0.38148549676E+02  0.65450759849E+02  0.00000000000E+00 0.  1.
         11    1    4    4    0    0 -0.30509232556E+02  0.29110140270E+02 -0.36898875960E+02  0.56033388125E+02  0.00000000000E+00 0. -1.
         -2    1    1    2    0  502  0.24857087127E+02 -0.10054004736E+02  0.69207438017E+02  0.74220127112E+02  0.00000000000E+00 0.  1.
<scales pt_clust_5="13000.00000" pt_clust_6="13000.00000" pt_clust_7="13000.00000" pt_clust_8="13000.00000" pt_clust_9="26.81339"></scales>
<clustering>
<clus scale="   26.813">  1  9  2 -1</clus>
<clus scale="   83.288">  5  6 -1 -1</clus>
<clus scale="   89.073">  2  5  1 -1</clus>
<clus scale="   90.595">  7  8 -1 -1</clus>
<clus scale="   26.813">  1  5  2 -1</clus>
</clustering>
</event>
<event>
 9    2  0.6469128E-005  0.1030854E+03  0.7546771E-02  0.1279600E+00
         21   -1    0    0  501  502  0.00000000000E+00  0.00000000000E+00  0.22690466953E+03  0.22690466953E+03  0.00000000000E+00 0. -1.
          2   -1    0    0  502    0 -0.00000000000E+00 -0.00000000000E+00 -0.74336976643E+03  0.74336976643E+03  0.00000000000E+00 0. -1.
         24    2    1    2    0    0  0.13747044444E+02  0.20134085605E+02 -0.71050377461E+03  0.71797646842E+03  0.10040036268E+03 0.  0.
         23    2    1    2    0    0 -0.43811550788E+01 -0.23159380204E+01  0.42102795783E+02  0.99034408639E+02  0.89502014463E+02 0.  0.
        -13    1    3    3    0    0 -0.18549228412E+02 -0.82148836711E+01 -0.30588015680E+02  0.36704017378E+02  0.00000000000E+00 0.  1.
         14    1    3    3    0    0  0.32296272856E+02  0.28348969276E+02 -0.67991575893E+03  0.68127245104E+03  0.00000000000E+00 0. -1.
        -11    1    4    4    0    0 -0.12314197661E+02  0.29308626808E+02 -0.13531217222E+02  0.34550382181E+02  0.00000000000E+00 0. -1.
         11    1    4    4    0    0  0.79330425823E+01 -0.31624564828E+02  0.55634013005E+02  0.64484026458E+02  0.00000000000E+00 0.  1.
          1    1    1    2  501    0 -0.93658893651E+01 -0.17818147584E+02  0.15193588194E+03  0.15326355890E+03  0.00000000000E+00 0. -1.
<scales pt_clust_5="13000.00000" pt_clust_6="13000.00000" pt_clust_7="13000.00000" pt_clust_8="13000.00000" pt_clust_9="20.12974"></scales>
<clustering>
<clus scale="   20.130">  1  9  2 -1</clus>
<clus scale="   89.502">  7  8 -1 -1</clus>
<clus scale="   92.504">  1  7  2 -1</clus>
<clus scale="  100.400">  5  6 -1 -1</clus>
<clus scale="   20.130">  1  5  2 -1</clus>
</clustering>
</event>
<event>
 9    2  0.6469128E-005  0.8801579E+02  0.7546771E-02  0.1312326E+00
         21   -1    0    0  501  502  0.00000000000E+00  0.00000000000E+00  0.96347379561E+02  0.96347379561E+02  0.00000000000E+00 0.  1.
          2   -1    0    0  502    0 -0.00000000000E+00 -0.00000000000E+00 -0.44468322195E+03  0.44468322195E+03  0.00000000000E+00 0. -1.
         24    2    1    2    0    0  0.47780414659E+01  0.10149102450E+02 -0.28756311739E+03  0.29834813935E+03  0.78697088936E+02 0.  0.
         23    2    1    2    0    0 -0.19479245227E+01 -0.43156643742E+02 -0.13246993336E+03  0.16370147059E+03  0.85927864617E+02 0.  0.
        -11    1    3    3    0    0  0.40547989753E+02 -0.45553710178E+01 -0.14472869207E+03  0.15037049307E+03  0.00000000000E+00 0.  1.
         12    1    3    3    0    0 -0.35769948287E+02  0.14704473468E+02 -0.14283442533E+03  0.14797764628E+03  0.00000000000E+00 0. -1.
        -11    1    4    4    0    0  0.86738910992E+01 -0.66917286461E+02 -0.11127823439E+03  0.13013840734E+03  0.00000000000E+00 0.  1.
         11    1    4    4    0    0 -0.10621815622E+02  0.23760642719E+02 -0.21191698968E+02  0.33563063249E+02  0.00000000000E+00 0. -1.
          1    1    1    2  501    0 -0.28301169432E+01  0.33007541292E+02  0.71697208363E+02  0.78980991581E+02  0.00000000000E+00 0. -1.
<scales pt_clust_5="13000.00000" pt_clust_6="13000.00000" pt_clust_7="13000.00000" pt_clust_8="13000.00000" pt_clust_9="33.12865"></scales>
<clustering>
<clus scale="   33.129">  1  9  2 -1</clus>
<clus scale="   78.697">  5  6 -1 -1</clus>
<clus scale="   80.972">  2  5  1 -1</clus>
<clus scale="   85.928">  7  8 -1 -1</clus>
<clus scale="   33.129">  1  5  2 -1</clus>
</clustering>
</event>
<event>
 9    2  0.6469128E-005  0.9527304E+02  0.7546771E-02  0.1296600E+00
         -1   -1    0    0    0  501 -0.00000000000E+00  0.00000000000E+00  0.22671166528E+03  0.22671166528E+03  0.00000000000E+00 0.  1.
         21   -1    0    0  501  502  0.00000000000E+00 -0.00000000000E+00 -0.84833498757E+02  0.84833498757E+02  0.00000000000E+00 0.  1.
         24    2    1    2    0    0 -0.19699783147E+02 -0.19511602805E+02  0.68620683007E+02  0.10893101986E+03  0.79927372355E+02 0.  0.
         23    2    1    2    0    0 -0.35632334567E+02  0.39631538215E+02  0.93141129027E+02  0.14047064563E+03  0.90644416707E+02 0.  0.
        -11    1    3    3    0    0 -0.45459166036E+02 -0.17788957945E+02  0.67221056341E+02  0.83076189230E+02  0.00000000000E+00 0.  1.
         12    1    3    3    0    0  0.25759382889E+02 -0.17226448590E+01  0.13996266662E+01  0.25854830631E+02  0.00000000000E+00 0. -1.
        -13    1    4    4    0    0 -0.41194530630E+02 -0.29097182168E+01  0.88066141708E+02  0.97268191765E+02  0.00000000000E+00 0.  1.
         13    1    4    4    0    0  0.55621960632E+01  0.42541256432E+02  0.50749873183E+01  0.43202453867E+02  0.00000000000E+00 0. -1.
         -2    1    1    2    0  502  0.55332117714E+02 -0.20119935411E+02 -0.19883645514E+02  0.62143498539E+02  0.00000000000E+00 0.  1.
<scales pt_clust_5="13000.00000" pt_clust_6="13000.00000" pt_clust_7="13000.00000" pt_clust_8="13000.00000" pt_clust_9="58.87661"></scales>
<clustering>
<clus scale="   58.877">  2  9  1 -1</clus>
<clus scale="   79.927">  5  6 -1 -1</clus>
<clus scale="   85.141">  1  5  2 -1</clus>
<clus scale="   90.644">  7  8 -1 -1</clus>
<clus scale="   58.877">  2  5  1 -1</clus>
</clustering>
</event>
<event>
 9    2  0.6469128E-005  0.1141943E+03  0.7546771E-02  0.1256524E+00
          2   -1    0    0  502    0 -0.00000000000E+00  0.00000000000E+00  0.39870185473E+03  0.39870185473E+03  0.00000000000E+00 0. -1.
         21   -1    0    0  501  502  0.00000000000E+00 -0.00000000000E+00 -0.15240598568E+03  0.15240598568E+03  0.00000000000E+00 0. -1.
         24    2    1    2    0    0 -0.24291166310E+02  0.67290322859E+02  0.32466443123E+03  0.34211282133E+03  0.80722619526E+02 0.  0.
         23    2    1    2    0    0  0.18342325471E+01 -0.60754047961E+02  0.17296388998E+02  0.11051243357E+03  0.90660984708E+02 0.  0.
        -11    1    3    3    0    0 -0.10690428711E+02  0.34165859610E+02  0.34400795538E+02  0.49648826397E+02  0.00000000000E+00 0.  1.
         12    1    3    3    0    0 -0.13600737599E+02  0.33124463249E+02  0.29026363569E+03  0.29246399493E+03  0.00000000000E+00 0. -1.
        -13    1    4    4    0    0  0.34826560429E+02 -0.66539627130E+02  0.67967368602E+01  0.75409594362E+02  0.00000000000E+00 0.  1.
         13    1    4    4    0    0 -0.32992327882E+02  0.57855791690E+01  0.10499652137E+02  0.35102839207E+02  0.00000000000E+00 0. -1.
          1    1    1    2  501    0  0.22456933763E+02 -0.65362748977E+01 -0.95664951185E+02  0.98482585510E+02  0.00000000000E+00 0. -1.
<scales pt_clust_5="13000.00000" pt_clust_6="13000.00000" pt_clust_7="13000.00000" pt_clust_8="13000.00000" pt_clust_9="23.38882"></scales>
<clustering>
<clus scale="   23.389">  2  9  1 -1</clus>
<clus scale="   80.723">  5  6 -1 -1</clus>
<clus scale="   90.661">  7  8 -1 -1</clus>
<clus scale="  106.476">  1  5  2 -1</clus>
<clus scale="   23.389">  2  5  1 -1</clus>
</clustering>
</event>
<event>
 9    2  0.6469128E-005  0.9741360E+02  0.7546771E-02  0.1290273E+00
         -1   -1    0    0    0  501 -0.00000000000E+00  0.00000000000E+00  0.45088928795E+03  0.45088928795E+03  0.00000000000E+00 0.  1.
         21   -1    0    0  501  502  0.00000000000E+00 -0.00000000000E+00 -0.35537093233E+02  0.35537093233E+02  0.00000000000E+00 0.  1.
         23    2    1    2    0    0 -0.37587396899E+02  0.43346542686E+02  0.19681007787E+03  0.22376744623E+03  0.89699097379E+02 0.  0.
         24    2    1    2    0    0  0.32116987296E+02  0.13676990876E+02  0.12866742127E+03  0.15607999864E+03  0.81160949524E+02 0.  0.
        -11    1    4    4    0    0  0.57554325009E+02  0.28142805473E+01  0.66219436029E+02  0.87780602699E+02  0.00000000000E+00 0.  1.
         12    1    4    4    0    0 -0.25437337713E+02  0.10862710328E+02  0.62447985239E+02  0.68299395942E+02  0.00000000000E+00 0. -1.
        -11    1    3    3    0    0 -0.62605097473E+02  0.46259276264E+02  0.12093646697E+03  0.14382262657E+03  0.00000000000E+00 0.  1.
         11    1    3    3    0    0  0.25017700574E+02 -0.29127335779E+01  0.75873610898E+02  0.79944819655E+02  0.00000000000E+00 0. -1.
         -2    1    1    2    0  502  0.54704096026E+01 -0.57023533562E+02  0.89874695576E+02  0.10657893631E+03  0.00000000000E+00 0.  1.
<scales pt_clust_5="13000.00000" pt_clust_6="13000.00000" pt_clust_7="13000.00000" pt_clust_8="13000.00000" pt_clust_9="57.28533"></scales>
<clustering>
<clus scale="   57.285">  2  9  1 -1</clus>
<clus scale="   81.161">  5  6 -1 -1</clus>
<clus scale="   89.614">  2  5  1 -1</clus>
<clus scale="   89.699">  7  8 -1 -1</clus>
<clus scale="   57.285">  2  5  1 -1</clus>
</clustering>
</event>
<event>
 9    2  0.6469128E-005  0.1582269E+03  0.7546771E-02  0.1192765E+00
         21   -1    0    0  501  502  0.00000000000E+00  0.00000000000E+00  0.16644343189E+03  0.16644343189E+03  0.00000000000E+00 0. -1.
          2   -1    0    0  502    0 -0.00000000000E+00 -0.00000000000E+00 -0.20300141249E+03  0.20300141249E+03  0.00000000000E+00 0. -1.
         23    2    1    2    0    0 -0.11318962179E+03  0.36339638192E+02 -0.55999610034E+02  0.16048016472E+03  0.92116595467E+02 0.  0.
         24    2    1    2    0    0  0.14290817368E+03 -0.20563895987E+02 -0.87656714373E+01  0.16505889199E+03  0.79510885451E+02 0.  0.
        -11    1    4    4    0    0  0.91826263031E+01 -0.25048276851E+02  0.12700369037E+02  0.29547185530E+02  0.00000000000E+00 0.  1.
         12    1    4    4    0    0  0.13372554738E+03  0.44843808640E+01 -0.21466040474E+02  0.13551170646E+03  0.00000000000E+00 0. -1.
        -13    1    3    3    0    0 -0.23652214684E+02 -0.29967296339E+02 -0.21654211010E+02  0.43890442739E+02  0.00000000000E+00 0.  1.
         13    1    3    3    0    0 -0.89537407108E+02  0.66306934531E+02 -0.34345399023E+02  0.11658972198E+03  0.00000000000E+00 0. -1.
          1    1    1    2  501    0 -0.29718551892E+02 -0.15775742205E+02  0.28207300872E+02  0.43905787672E+02  0.00000000000E+00 0. -1.
<scales pt_clust_5="13000.00000" pt_clust_6="13000.00000" pt_clust_7="13000.00000" pt_clust_8="13000.00000" pt_clust_9="33.64619"></scales>
<clustering>
<clus scale="   33.646">  1  9  2 -1</clus>
<clus scale="   79.511">  5  6 -1 -1</clus>
<clus scale="   92.117">  7  8 -1 -1</clus>
<clus scale="  151.236">  1  5  2 -1</clus>
<clus scale="   33.646">  1  5  2 -1</clus>
</clustering>
</event>
<event>
 9    2  0.6469128E-005  0.1318697E+03  0.7546771E-02  0.1227561E+00
         21   -1    0    0  501  502  0.00000000000E+00  0.00000000000E+00  0.89109251300E+02  0.89109251300E+02  0.00000000000E+00 0.  1.
          2   -1    0    0  502    0 -0.00000000000E+00 -0.00000000000E+00 -0.32446160602E+03  0.32446160602E+03  0.00000000000E+00 0. -1.
         23    2    1    2    0    0 -0.79593953371E+02  0.55819056437E+02 -0.23524389556E+03  0.27076995945E+03  0.92334804192E+02 0.  0.
         24    2    1    2    0    0  0.56516869729E+02 -0.64568037476E+02  0.11249860547E+01  0.11809021504E+03  0.81122409158E+02 0.  0.
        -13    1    4    4    0    0  0.66132364020E+02 -0.39652776064E+02 -0.24671084501E+02  0.80959833442E+02  0.00000000000E+00 0.  1.
         14    1    4    4    0    0 -0.96154942909E+01 -0.24915261412E+02  0.25796070556E+02  0.37130381601E+02  0.00000000000E+00 0. -1.
        -11    1    3    3    0    0 -0.92162387207E+02  0.17775037353E+02 -0.15889821111E+03  0.18454944883E+03  0.00000000000E+00 0.  1.
         11    1    3    3    0    0  0.12568433836E+02  0.38044019084E+02 -0.76345684457E+02  0.86220510624E+02  0.00000000000E+00 0. -1.
          1    1    1    2  501    0  0.23077083641E+02  0.87489810395E+01 -0.12334452075E+01  0.24710682825E+02  0.00000000000E+00 0. -1.
<scales pt_clust_5="13000.00000" pt_clust_6="13000.00000" pt_clust_7="13000.00000" pt_clust_8="13000.00000" pt_clust_9="24.67988"></scales>
<clustering>
<clus scale="   24.680">  1  9  2 -1</clus>
<clus scale="   81.122">  5  6 -1 -1</clus>
<clus scale="   92.335">  7  8 -1 -1</clus>
<clus scale="  124.277">  1  5  2 -1</clus>
<clus scale="   24.680">  1  5  2 -1</clus>
</clustering>
</event>
<event>
 9    2  0.6469128E-005  0.9757867E+02  0.7546771E-02  0.1296144E+00
          2   -1    0    0  502    0 -0.00000000000E+00  0.00000000000E+00  0.29426178220E+03  0.29426178220E+03  0.00000000000E+00 0. -1.
         21   -1    0    0  501  502  0.00000000000E+00 -0.00000000000E+00 -0.10282241463E+03  0.10282241463E+03  0.00000000000E+00 0.  1.
         24    2    1    2    0    0  0.16234647764E+02 -0.28823175646E+02  0.36989953824E+02  0.92620020192E+02  0.78204042185E+02 0.  0.
         23    2    1    2    0    0 -0.22620851152E+01 -0.33616482705E+02 -0.32421765674E+02  0.10694257999E+03  0.96178789698E+02 0.  0.
        -11    1    3    3    0    0  0.26313912110E+02 -0.46940918230E+02  0.45243015777E+02  0.70305065617E+02  0.00000000000E+00 0.  1.
         12    1    3    3    0    0 -0.10079264345E+02  0.18117742584E+02 -0.82530619526E+01  0.22314954575E+02  0.00000000000E+00 0. -1.
        -11    1    4    4    0    0 -0.13503669023E+02 -0.62573413583E+02 -0.39317084776E+02  0.75123992970E+02  0.00000000000E+00 0.  1.
         11    1    4    4    0    0  0.11241583908E+02  0.28956930878E+02  0.68953191024E+01  0.31818587023E+02  0.00000000000E+00 0. -1.
          1    1    1    2  501    0 -0.13972562649E+02  0.62439658351E+02  0.18687117942E+03  0.19752159664E+03  0.00000000000E+00 0. -1.
<scales pt_clust_5="13000.00000" pt_clust_6="13000.00000" pt_clust_7="13000.00000" pt_clust_8="13000.00000" pt_clust_9="63.98396"></scales>
<clustering>
<clus scale="   63.984">  2  9  1 -1</clus>
<clus scale="   78.204">  5  6 -1 -1</clus>
<clus scale="   79.919">  1  5  2 -1</clus>
<clus scale="   96.179">  7  8 -1 -1</clus>
<clus scale="   63.984">  2  5  1 -1</clus>
</clustering>
</event>
<event>
 9    2  0.6469128E-005  0.1274583E+03  0.7546771E-02  0.1233925E+00
         21   -1    0    0  501  502  0.00000000000E+00  0.00000000000E+00  0.23456361202E+03  0.23456361202E+03  0.00000000000E+00 0. -1.
          2   -1    0    0  502    0 -0.00000000000E+00 -0.00000000000E+00 -0.78944783521E+03  0.78944783521E+03  0.00000000000E+00 0. -1.
         24    2    1    2    0    0 -0.85726139240E+02 -0.58203098416E+01 -0.70984137091E+03  0.71975235426E+03  0.82376165517E+02 0.  0.
         23    2    1    2    0    0  0.13537736520E+03  0.44383973702E+02  0.41565094088E+02  0.17460509868E+03  0.91990843611E+02 0.  0.
        -11    1    3    3    0    0 -0.11365155693E+02  0.30086852795E+02 -0.12324920994E+03  0.12737642335E+03  0.00000000000E+00 0.  1.
         12    1    3    3    0    0 -0.74360983547E+02 -0.35907162636E+02 -0.58659216097E+03  0.59237593091E+03  0.00000000000E+00 0. -1.
        -13    1    4    4    0    0  0.66153775673E+02 -0.19094189866E+02 -0.63871758597E+01  0.69149881691E+02  0.00000000000E+00 0. -1.
         13    1    4    4    0    0  0.69223589532E+02  0.63478163568E+02  0.47952269948E+02  0.10545521699E+03  0.00000000000E+00 0.  1.
          1    1    1    2  501    0 -0.49651225965E+02 -0.38563663860E+02  0.11339205363E+03  0.12965399429E+03  0.00000000000E+00 0. -1.
<scales pt_clust_5="13000.00000" pt_clust_6="13000.00000" pt_clust_7="13000.00000" pt_clust_8="13000.00000" pt_clust_9="62.86812"></scales>
<clustering>
<clus scale="   62.868">  1  9  2 -1</clus>
<clus scale="   82.376">  5  6 -1 -1</clus>
<clus scale="   91.991">  7  8 -1 -1</clus>
<clus scale="  120.703">  2  5  1 -1</clus>
<clus scale="   62.868">  1  5  2 -1</clus>
</clustering>
</event>
<event>
 9    2  0.6469128E-005  0.9513692E+02  0.7546771E-02  0.1296952E+00
         21   -1    0    0  501  502  0.00000000000E+00  0.00000000000E+00  0.36335633094E+03  0.36335633094E+03  0.00000000000E+00 0. -1.
         -3   -1    0    0    0  501 -0.00000000000E+00 -0.00000000000E+00 -0.40675696916E+02  0.40675696916E+02  0.00000000000E+00 0.  1.
         24    2    1    2    0    0  0.20128819088E+02  0.39983687847E+01  0.77417398041E+02  0.11336284472E+03  0.80227954805E+02 0.  0.
         23    2    1    2    0    0 -0.37597227189E+02  0.41082547431E+02  0.18345571768E+03  0.21219878358E+03  0.90945017489E+02 0.  0.
        -13    1    3    3    0    0  0.32732490306E+02  0.58392165153E+01  0.89702515253E+02  0.95666366158E+02  0.00000000000E+00 0.  1.
         14    1    3    3    0    0 -0.12603671217E+02 -0.18408477305E+01 -0.12285117212E+02  0.17696478560E+02  0.00000000000E+00 0. -1.
        -13    1    4    4    0    0  0.64285958864E+01  0.25364893758E+02  0.36556230409E+01  0.26420981439E+02  0.00000000000E+00 0.  1.
         13    1    4    4    0    0 -0.44025823076E+02  0.15717653673E+02  0.17980009464E+03  0.18577780214E+03  0.00000000000E+00 0. -1.
         -4    1    1    2    0  502  0.17468408101E+02 -0.45080916216E+02  0.61807518296E+02  0.78470399555E+02  0.00000000000E+00 0.  1.
<scales pt_clust_5="13000.00000" pt_clust_6="13000.00000" pt_clust_7="13000.00000" pt_clust_8="13000.00000" pt_clust_9="48.34704"></scales>
<clustering>
<clus scale="   48.347">  1  9  2 -1</clus>
<clus scale="   80.228">  5  6 -1 -1</clus>
<clus scale="   84.950">  2  5  1 -1</clus>
<clus scale="   90.945">  7  8 -1 -1</clus>
<clus scale="   48.347">  1  5  2 -1</clus>
</clustering>
</event>
<event>
 9    2  0.6469128E-005  0.2163833E+03  0.7546771E-02  0.1172749E+00
          2   -1    0    0  502    0 -0.00000000000E+00  0.00000000000E+00  0.80274728515E+03  0.80274728515E+03  0.00000000000E+00 0. -1.
         21   -1    0    0  501  502  0.00000000000E+00 -0.00000000000E+00 -0.12350387318E+03  0.12350387318E+03  0.00000000000E+00 0. -1.
         24    2    1    2    0    0 -0.27579970305E+02  0.38548935223E+02  0.51070082569E+02  0.10569276925E+03  0.79474102514E+02 0.  0.
         23    2    1    2    0    0 -0.11115172625E+03 -0.17459537206E+03  0.57660016211E+03  0.61952379456E+03  0.92215697625E+02 0.  0.
        -11    1    3    3    0    0  0.21634073405E+01 -0.23085632063E+02  0.67134883955E+01  0.24139131415E+02  0.00000000000E+00 0.  1.
         12    1    3    3    0    0 -0.29743377645E+02  0.61634567285E+02  0.44356594173E+02  0.81553637839E+02  0.00000000000E+00 0. -1.
        -11    1    4    4    0    0 -0.43776986975E+02 -0.88785847966E+02  0.39894897006E+03  0.41104699500E+03  0.00000000000E+00 0. -1.
         11    1    4    4    0    0 -0.67374739273E+02 -0.85809524096E+02  0.17765119205E+03  0.20847679956E+03  0.00000000000E+00 0.  1.
          1    1    1    2  501    0  0.13873169655E+03  0.13604643684E+03  0.51573167296E+02  0.20103459451E+03  0.00000000000E+00 0. -1.
<scales pt_clust_5="13000.00000" pt_clust_6="13000.00000" pt_clust_7="13000.00000" pt_clust_8="13000.00000" pt_clust_9="195.74984"></scales>
<clustering>
<clus scale="   79.474">  5  6 -1 -1</clus>
<clus scale="   92.216">  7  8 -1 -1</clus>
<clus scale="   92.535">  1  5  2 -1</clus>
<clus scale="  195.750">  2  9  1 -1</clus>
<clus scale="  195.750">  2  5  1 -1</clus>
</clustering>
</event>
<event>
 9    2  0.6469128E-005  0.1021768E+03  0.7546771E-02  0.1281932E+00
         21   -1    0    0  501  502  0.00000000000E+00  0.00000000000E+00  0.55214963500E+02  0.55214963500E+02  0.00000000000E+00 0.  1.
          2   -1    0    0  502    0 -0.00000000000E+00 -0.00000000000E+00 -0.40232372753E+03  0.40232372753E+03  0.00000000000E+00 0. -1.
         24    2    1    2    0    0  0.46458414131E+02 -0.14434440197E+02 -0.30328822750E+03  0.31757611302E+03  0.80648008734E+02 0.  0.
         23    2    1    2    0    0 -0.10064007959E+02  0.10720575793E+02 -0.42158540988E+02  0.10334143906E+03  0.93198151517E+02 0.  0.
        -11    1    3    3    0    0  0.43491137605E+02  0.27733522059E+02 -0.17982753654E+03  0.18707904798E+03  0.00000000000E+00 0.  1.
         12    1    3    3    0    0  0.29672765255E+01 -0.42167962256E+02 -0.12346069097E+03  0.13049706504E+03  0.00000000000E+00 0. -1.
        -11    1    4    4    0    0 -0.47993868058E+02 -0.94669018279E+01 -0.34084140787E+02  0.59621826998E+02  0.00000000000E+00 0. -1.
         11    1    4    4    0    0  0.37929860099E+02  0.20187477621E+02 -0.80744002011E+01  0.43719612057E+02  0.00000000000E+00 0.  1.
          1    1    1    2  501    0 -0.36394406172E+02  0.37138644045E+01 -0.16619955437E+01  0.36621138958E+02  0.00000000000E+00 0. -1.
<scales pt_clust_5="13000.00000" pt_clust_6="13000.00000" pt_clust_7="13000.00000" pt_clust_8="13000.00000" pt_clust_9="36.58341"></scales>
<clustering>
<clus scale="   36.583">  1  9  2 -1</clus>
<clus scale="   80.648">  5  6 -1 -1</clus>
<clus scale="   90.875">  2  5  1 -1</clus>
<clus scale="   93.198">  7  8 -1 -1</clus>
<clus scale="   36.583">  1  5  2 -1</clus>
</clustering>
</event>
<event>
 9    2  0.6469128E-005  0.1273047E+03  0.7546771E-02  0.1233590E+00
          2   -1    0    0  502    0 -0.00000000000E+00  0.00000000000E+00  0.11329985971E+04  0.11329985971E+04  0.00000000000E+00 0. -1.
         21   -1    0    0  501  502  0.00000000000E+00 -0.00000000000E+00 -0.28971989808E+02  0.28971989808E+02  0.00000000000E+00 0. -1.
         24    2    1    2    0    0 -0.89000224291E+02 -0.10516296419E+02  0.69919989185E+03  0.70948308420E+03  0.80337572686E+02 0.  0.
         23    2    1    2    0    0  0.90070858533E+02  0.43277801041E+02  0.39700940830E+03  0.41878924261E+03  0.88216958834E+02 0.  0.
        -11    1    3    3    0    0 -0.44949756961E+02  0.16982354760E+02  0.14285039606E+03  0.15071534984E+03  0.00000000000E+00 0.  1.
         12    1    3    3    0    0 -0.44050467330E+02 -0.27498651180E+02  0.55634949580E+03  0.55876773436E+03  0.00000000000E+00 0. -1.
        -11    1    4    4    0    0  0.95550305449E+02  0.84282248748E+01  0.25444442642E+03  0.27192436813E+03  0.00000000000E+00 0. -1.
         11    1    4    4    0    0 -0.54794469164E+01  0.34849576167E+02  0.14256498188E+03  0.14686487448E+03  0.00000000000E+00 0.  1.
          1    1    1    2  501    0 -0.10706342419E+01 -0.32761504622E+02  0.78173071381E+01  0.33698260099E+02  0.00000000000E+00 0. -1.
<scales pt_clust_5="13000.00000" pt_clust_6="13000.00000" pt_clust_7="13000.00000" pt_clust_8="13000.00000" pt_clust_9="32.77899"></scales>
<clustering>
<clus scale="   32.779">  2  9  1 -1</clus>
<clus scale="   80.338">  5  6 -1 -1</clus>
<clus scale="   88.217">  7  8 -1 -1</clus>
<clus scale="  121.977">  1  5  2 -1</clus>
<clus scale="   32.779">  2  5  1 -1</clus>
</clustering>
</event>
<event>
 9    2  0.6469128E-005  0.9289098E+02  0.7546771E-02  0.1302169E+00
          2   -1    0    0  502    0 -0.00000000000E+00  0.00000000000E+00  0.49480503798E+03  0.49480503798E+03  0.00000000000E+00 0. -1.
         21   -1    0    0  501  502  0.00000000000E+00 -0.00000000000E+00 -0.50867198352E+02  0.50867198352E+02  0.00000000000E+00 0.  1.
         24    2    1    2    0    0 -0.11344064202E+02 -0.93589871253E+01  0.38516568266E+03  0.39391708770E+03  0.81251402768E+02 0.  0.
         23    2    1    2    0    0  0.31538259580E+02 -0.17472739955E+01  0.75968198573E+02  0.12300000284E+03  0.91433684819E+02 0.  0.
        -11    1    3    3    0    0  0.34698559662E+02 -0.11125637103E+02  0.16288330449E+03  0.16690937878E+03  0.00000000000E+00 0.  1.
         12    1    3    3    0    0 -0.46042623864E+02  0.17666499779E+01  0.22228237817E+03  0.22700770892E+03  0.00000000000E+00 0. -1.
        -11    1    4    4    0    0  0.46302445964E+02 -0.31101830411E+02  0.22298233041E+02  0.60070388328E+02  0.00000000000E+00 0.  1.
         11    1    4    4    0    0 -0.14764186384E+02  0.29354556416E+02  0.53669965532E+02  0.62929614508E+02  0.00000000000E+00 0. -1.
          1    1    1    2  501    0 -0.20194195378E+02  0.11106261121E+02 -0.17196041602E+02  0.28755145797E+02  0.00000000000E+00 0. -1.
<scales pt_clust_5="13000.00000" pt_clust_6="13000.00000" pt_clust_7="13000.00000" pt_clust_8="13000.00000" pt_clust_9="23.04679"></scales>
<clustering>
<clus scale="   23.047">  2  9  1 -1</clus>
<clus scale="   81.251">  5  6 -1 -1</clus>
<clus scale="   82.888">  1  5  2 -1</clus>
<clus scale="   91.434">  7  8 -1 -1</clus>
<clus scale="   23.047">  2  5  1 -1</clus>
</clustering>
</event>
<event>
 9    2  0.6469128E-005  0.1625161E+03  0.7546771E-02  0.1187623E+00
          2   -1    0    0  502    0 -0.00000000000E+00  0.00000000000E+00  0.78022149962E+03  0.78022149962E+03  0.00000000000E+00 0. -1.
         21   -1    0    0  501  502  0.00000000000E+00 -0.00000000000E+00 -0.59930483688E+02  0.59930483688E+02  0.00000000000E+00 0.  1.
         23    2    1    2    0    0 -0.11734122413E+03  0.64871882115E+02  0.28935747474E+03  0.33220956030E+03  0.93049018262E+02 0.  0.
         24    2    1    2    0    0  0.14785966031E+03  0.23240419882E+02  0.22930054696E+03  0.28579153492E+03  0.81825817053E+02 0.  0.
        -11    1    4    4    0    0  0.12163381362E+03  0.20316298356E+02  0.11546338077E+03  0.16893587213E+03  0.00000000000E+00 0.  1.
         12    1    4    4    0    0  0.26225846695E+02  0.29241215260E+01  0.11383716619E+03  0.11685566280E+03  0.00000000000E+00 0. -1.
        -13    1    3    3    0    0 -0.49998530063E+02 -0.18205942485E+02  0.67754305143E+02  0.86150770256E+02  0.00000000000E+00 0.  1.
         13    1    3    3    0    0 -0.67342694069E+02  0.83077824600E+02  0.22160316959E+03  0.24605879005E+03  0.00000000000E+00 0. -1.
          1    1    1    2  501    0 -0.30518436180E+02 -0.88112301997E+02  0.20163299423E+03  0.22215088808E+03  0.00000000000E+00 0. -1.
<scales pt_clust_5="13000.00000" pt_clust_6="13000.00000" pt_clust_7="13000.00000" pt_clust_8="13000.00000" pt_clust_9="93.24785"></scales>
<clustering>
<clus scale="   81.826">  5  6 -1 -1</clus>
<clus scale="   93.049">  7  8 -1 -1</clus>
<clus scale="   93.248">  2  9  1 -1</clus>
<clus scale="  156.361">  2  5  1 -1</clus>
<clus scale="   93.248">  2  5  1 -1</clus>
</clustering>
</event>
<event>
 9    2  0.6469128E-005  0.1052349E+03  0.7546771E-02  0.1270775E+00
          2   -1    0    0  502    0 -0.00000000000E+00  0.00000000000E+00  0.16114370602E+03  0.16114370602E+03  0.00000000000E+00 0. -1.
         21   -1    0    0  501  502  0.00000000000E+00 -0.00000000000E+00 -0.11550505370E+03  0.11550505370E+03  0.00000000000E+00 0. -1.
         23    2    1    2    0    0  0.32148802740E+02 -0.60844430610E+02  0.58102429621E+02  0.12696178716E+03  0.89486383411E+02 0.  0.
         24    2    1    2    0    0  0.13486850648E+02  0.39824427300E+02 -0.20970224940E+02  0.98728037622E+02  0.86830840883E+02 0.  0.
        -11    1    4    4    0    0  0.21601880105E+02 -0.23686396126E+02 -0.11211142674E+02  0.33961394341E+02  0.00000000000E+00 0.  1.
         12    1    4    4    0    0 -0.81150294571E+01  0.63510823426E+02 -0.97590822656E+01  0.64766643282E+02  0.00000000000E+00 0. -1.
        -11    1    3    3    0    0  0.55079219081E+02 -0.47138317423E+02  0.11722197386E+02  0.73438077695E+02  0.00000000000E+00 0. -1.
         11    1    3    3    0    0 -0.22930416341E+02 -0.13706113187E+02  0.46380232235E+02  0.53523709460E+02  0.00000000000E+00 0.  1.
          1    1    1    2  501    0 -0.45635653387E+02  0.21020003310E+02  0.85064476421E+01  0.50958934945E+02  0.00000000000E+00 0. -1.
<scales pt_clust_5="13000.00000" pt_clust_6="13000.00000" pt_clust_7="13000.00000" pt_clust_8="13000.00000" pt_clust_9="50.24396"></scales>
<clustering>
<clus scale="   50.244">  2  9  1 -1</clus>
<clus scale="   86.831">  5  6 -1 -1</clus>
<clus scale="   89.486">  7  8 -1 -1</clus>
<clus scale="  102.986">  2  5  1 -1</clus>
<clus scale="   50.244">  2  5  1 -1</clus>
</clustering>
</event>
<event>
 9    2  0.6469128E-005  0.1415385E+03  0.7546771E-02  0.1220317E+00
          2   -1    0    0  502    0 -0.00000000000E+00  0.00000000000E+00  0.60821316741E+03  0.60821316741E+03  0.00000000000E+00 0. -1.
         21   -1    0    0  501  502  0.00000000000E+00 -0.00000000000E+00 -0.45435303247E+02  0.45435303247E+02  0.00000000000E+00 0.  1.
         24    2    1    2    0    0  0.59630123548E+02  0.46504803614E+02  0.33543027711E+03  0.35335301089E+03  0.81402893762E+02 0.  0.
         23    2    1    2    0    0 -0.82212085585E+02 -0.69467281373E+02  0.21435672766E+03  0.26556819639E+03  0.11398741176E+03 0.  0.
        -11    1    3    3    0    0  0.53199124499E+00  0.48592062391E+02  0.10925252662E+03  0.11957251404E+03  0.00000000000E+00 0.  1.
         12    1    3    3    0    0  0.59098132303E+02 -0.20872587763E+01  0.22617775049E+03  0.23378049685E+03  0.00000000000E+00 0. -1.
        -13    1    4    4    0    0 -0.39562857106E+02  0.28989639460E+02  0.58359059041E+02  0.76232530003E+02  0.00000000000E+00 0. -1.
         13    1    4    4    0    0 -0.42649228479E+02 -0.98456920833E+02  0.15599766862E+03  0.18933566638E+03  0.00000000000E+00 0.  1.
          1    1    1    2  501    0  0.22581962036E+02  0.22962477758E+02  0.12990859399E+02  0.34727263384E+02  0.00000000000E+00 0. -1.
<scales pt_clust_5="13000.00000" pt_clust_6="13000.00000" pt_clust_7="13000.00000" pt_clust_8="13000.00000" pt_clust_9="32.20591"></scales>
<clustering>
<clus scale="   32.206">  2  9  1 -1</clus>
<clus scale="   81.403">  5  6 -1 -1</clus>
<clus scale="  113.987">  7  8 -1 -1</clus>
<clus scale="  116.904">  1  5  2 -1</clus>
<clus scale="   32.206">  2  5  1 -1</clus>
</clustering>
</event>
<event>
 9    2  0.8119657E-005  0.1770182E+03  0.7546771E-02  0.1194192E+00
         -1   -1    0    0    0  501 -0.00000000000E+00  0.00000000000E+00  0.73478383227E+03  0.73478383227E+03  0.00000000000E+00 0.  1.
         21   -1    0    0  501  502  0.00000000000E+00 -0.00000000000E+00 -0.98053878425E+02  0.98053878425E+02  0.00000000000E+00 0.  1.
         23    2    1    2    0    0 -0.54763732447E+02 -0.55595032913E+01  0.23505625498E+03  0.25730780960E+03  0.89027475582E+02 0.  0.
         24    2    1    2    0    0  0.14771489718E+02 -0.15680456745E+03  0.45779537263E+02  0.18230970170E+03  0.79593919505E+02 0.  0.
        -11    1    4    4    0    0 -0.15252947148E+02 -0.14217170131E+03  0.39253302880E+02  0.14827766804E+03  0.00000000000E+00 0.  1.
         12    1    4    4    0    0  0.30024436865E+02 -0.14632866136E+02  0.65262343827E+01  0.34032033669E+02  0.00000000000E+00 0. -1.
        -13    1    3    3    0    0  0.22701066081E+02 -0.12322477306E+02  0.75833788913E+02  0.80112080169E+02  0.00000000000E+00 0.  1.
         13    1    3    3    0    0 -0.77464798529E+02  0.67629740151E+01  0.15922246606E+03  0.17719572943E+03  0.00000000000E+00 0. -1.
         -2    1    1    2    0  502  0.39992242730E+02  0.16236407074E+03  0.35589416161E+03  0.39322019940E+03  0.00000000000E+00 0.  1.
<scales pt_clust_5="13000.00000" pt_clust_6="13000.00000" pt_clust_7="13000.00000" pt_clust_8="13000.00000" pt_clust_9="158.11480"></scales>
<clustering>
<clus scale="   79.594">  5  6 -1 -1</clus>
<clus scale="   89.027">  7  8 -1 -1</clus>
<clus scale="  104.670">  1  7  2 -1</clus>
<clus scale="  158.115">  2  9  1 -1</clus>
<clus scale="  158.115">  2  5  1 -1</clus>
</clustering>
</event>
<event>
 9    2  0.6469128E-005  0.1036878E+03  0.7546771E-02  0.1277273E+00
         -1   -1    0    0    0  501 -0.00000000000E+00  0.00000000000E+00  0.12881766240E+03  0.12881766240E+03  0.00000000000E+00 0.  1.
         21   -1    0    0  501  502  0.00000000000E+00 -0.00000000000E+00 -0.13472372861E+03  0.13472372861E+03  0.00000000000E+00 0.  1.
         23    2    1    2    0    0 -0.34488430086E+01 -0.52403079942E+02  0.51631139954E+02  0.11748260673E+03  0.91533660283E+02 0.  0.
         24    2    1    2    0    0 -0.24613821770E+02  0.40993691763E+02 -0.18031165248E+02  0.96275106620E+02  0.81593199765E+02 0.  0.
        -13    1    4    4    0    0 -0.83978346802E+01 -0.24479858643E+02 -0.12081776881E+02  0.28561450227E+02  0.00000000000E+00 0.  1.
         14    1    4    4    0    0 -0.16215987090E+02  0.65473550406E+02 -0.59493883669E+01  0.67713656392E+02  0.00000000000E+00 0. -1.
        -11    1    3    3    0    0 -0.14268824718E+02  0.21875536482E+02  0.29121197259E+02  0.39117548300E+02  0.00000000000E+00 0.  1.
         11    1    3    3    0    0  0.10819981710E+02 -0.74278616423E+02  0.22509942695E+02  0.78365058426E+02  0.00000000000E+00 0. -1.
         -2    1    1    2    0  502  0.28062664779E+02  0.11409388178E+02 -0.39506040914E+02  0.49783677664E+02  0.00000000000E+00 0.  1.
<scales pt_clust_5="13000.00000" pt_clust_6="13000.00000" pt_clust_7="13000.00000" pt_clust_8="13000.00000" pt_clust_9="30.29335"></scales>
<clustering>
<clus scale="   30.293">  2  9  1 -1</clus>
<clus scale="   81.593">  5  6 -1 -1</clus>
<clus scale="   91.534">  7  8 -1 -1</clus>
<clus scale="   95.027">  2  5  1 -1</clus>
<clus scale="   30.293">  2  5  1 -1</clus>
</clustering>
</event>
<event>
 9    2  0.6469128E-005  0.9567035E+02  0.7546771E-02  0.1297403E+00
         21   -1    0    0  501  502  0.00000000000E+00  0.00000000000E+00  0.19189747894E+03  0.19189747894E+03  0.00000000000E+00 0.  1.
          2   -1    0    0  502    0 -0.00000000000E+00 -0.00000000000E+00 -0.43595295632E+03  0.43595295632E+03  0.00000000000E+00 0. -1.
         24    2    1    2    0    0 -0.24020233138E+02  0.46518792188E+01 -0.40439599096E+03  0.41275450262E+03  0.78940169441E+02 0.  0.
         23    2    1    2    0    0  0.50560376027E+02 -0.12657125647E+02  0.15349169270E+03  0.18654125697E+03  0.92311355596E+02 0.  0.
        -11    1    3    3    0    0  0.22629112217E+02  0.17207720649E+02 -0.82664094051E+02  0.87415872786E+02  0.00000000000E+00 0.  1.
         12    1    3    3    0    0 -0.46649345356E+02 -0.12555841430E+02 -0.32173189691E+03  0.32533862984E+03  0.00000000000E+00 0. -1.
        -13    1    4    4    0    0  0.41558287936E+02  0.35367694935E+02  0.10119022450E+03  0.11496706778E+03  0.00000000000E+00 0.  1.
         13    1    4    4    0    0  0.90020880908E+01 -0.48024820582E+02  0.52301468199E+02  0.71574189187E+02  0.00000000000E+00 0. -1.
          1    1    1    2  501    0 -0.26540142888E+02  0.80052464286E+01  0.68488208845E+01  0.28554675667E+02  0.00000000000E+00 0. -1.
<scales pt_clust_5="13000.00000" pt_clust_6="13000.00000" pt_clust_7="13000.00000" pt_clust_8="13000.00000" pt_clust_9="27.72117"></scales>
<clustering>
<clus scale="   27.721">  1  9  2 -1</clus>
<clus scale="   78.940">  5  6 -1 -1</clus>
<clus scale="   82.843">  2  5  1 -1</clus>
<clus scale="   92.311">  7  8 -1 -1</clus>
<clus scale="   27.721">  1  5  2 -1</clus>
</clustering>
</event>
<event>
 9    2  0.6469128E-005  0.1059392E+03  0.7546771E-02  0.1273349E+00
          2   -1    0    0  502    0 -0.00000000000E+00  0.00000000000E+00  0.29519784585E+03  0.29519784585E+03  0.00000000000E+00 0. -1.
         21   -1    0    0  501  502  0.00000000000E+00 -0.00000000000E+00 -0.88423421096E+02  0.88423421096E+02  0.00000000000E+00 0. -1.
         24    2    1    2    0    0  0.68658750986E+02 -0.10089417254E+02  0.14944684227E+03  0.18305851706E+03  0.79751122740E+02 0.  0.
         23    2    1    2    0    0 -0.31482377306E+02  0.18966654084E+02  0.10197172842E+03  0.14179211215E+03  0.91410588135E+02 0.  0.
        -11    1    3    3    0    0  0.25260593933E+02  0.46506461991E+01 -0.10807605181E+01  0.25707861817E+02  0.00000000000E+00 0.  1.
         12    1    3    3    0    0  0.43398157054E+02 -0.14740063453E+02  0.15052760278E+03  0.15735065525E+03  0.00000000000E+00 0. -1.
        -13    1    4    4    0    0 -0.39482157550E+02 -0.28964305107E+02  0.61059714191E+02  0.78269153772E+02  0.00000000000E+00 0. -1.
         13    1    4    4    0    0  0.79997802431E+01  0.47930959191E+02  0.40912014230E+02  0.63522958380E+02  0.00000000000E+00 0.  1.
          1    1    1    2  501    0 -0.37176373680E+02 -0.88772368302E+01 -0.44644145932E+02  0.58770637734E+02  0.00000000000E+00 0. -1.
<scales pt_clust_5="13000.00000" pt_clust_6="13000.00000" pt_clust_7="13000.00000" pt_clust_8="13000.00000" pt_clust_9="38.22157"></scales>
<clustering>
<clus scale="   38.222">  2  9  1 -1</clus>
<clus scale="   79.751">  5  6 -1 -1</clus>
<clus scale="   91.411">  7  8 -1 -1</clus>
<clus scale="   96.060">  1  5  2 -1</clus>
<clus scale="   38.222">  2  5  1 -1</clus>
</clustering>
</event>
<event>
 9    2  0.6469128E-005  0.1203622E+03  0.7546771E-02  0.1256581E+00
         -1   -1    0    0    0  501 -0.00000000000E+00  0.00000000000E+00  0.29672961908E+03  0.29672961908E+03  0.00000000000E+00 0.  1.
         21   -1    0    0  501  502  0.00000000000E+00 -0.00000000000E+00 -0.91739217791E+02  0.91739217791E+02  0.00000000000E+00 0.  1.
         24    2    1    2    0    0 -0.87229739541E+01 -0.39175075556E+02  0.79919103302E+02  0.12098449043E+03  0.81482556609E+02 0.  0.
         23    2    1    2    0    0 -0.17705749605E+02 -0.63825160632E+02  0.13111690916E+02  0.11307424412E+03  0.90701287458E+02 0.  0.
        -13    1    3    3    0    0 -0.25810852264E+02 -0.75847168058E+01 -0.62598636414E+01  0.27620896372E+02  0.00000000000E+00 0.  1.
         14    1    3    3    0    0  0.17087878310E+02 -0.31590358751E+02  0.86178966943E+02  0.93363594053E+02  0.00000000000E+00 0. -1.
        -13    1    4    4    0    0 -0.22438269227E+02 -0.18454318074E+02  0.47683494410E+02  0.55836846442E+02  0.00000000000E+00 0. -1.
         13    1    4    4    0    0  0.47325196213E+01 -0.45370842558E+02 -0.34571803494E+02  0.57237397681E+02  0.00000000000E+00 0.  1.
         -2    1    1    2    0  502  0.26428723559E+02  0.10300023619E+03  0.11195960707E+03  0.15441010232E+03  0.00000000000E+00 0.  1.
<scales pt_clust_5="13000.00000" pt_clust_6="13000.00000" pt_clust_7="13000.00000" pt_clust_8="13000.00000" pt_clust_9="79.12236"></scales>
<clustering>
<clus scale="   81.483">  5  6 -1 -1</clus>
<clus scale="   90.701">  7  8 -1 -1</clus>
<clus scale="   90.831">  1  5  2 -1</clus>
<clus scale="   79.122">  2  9  1 -1</clus>
<clus scale="   79.122">  2  5  1 -1</clus>
</clustering>
</event>
<event>
 9    2  0.6469128E-005  0.1115586E+03  0.7546771E-02  0.1262906E+00
         21   -1    0    0  501  502  0.00000000000E+00  0.00000000000E+00  0.26082271388E+03  0.26082271388E+03  0.00000000000E+00 0.  1.
          2   -1    0    0  502    0 -0.00000000000E+00 -0.00000000000E+00 -0.13357126925E+04  0.13357126925E+04  0.00000000000E+00 0. -1.
         24    2    1    2    0    0  0.61206510940E+02  0.58012713003E+00 -0.12485345998E+04  0.12525748673E+04  0.79740691280E+02 0.  0.
         23    2    1    2    0    0 -0.10343085622E+03 -0.30074811804E+02  0.22818900442E+03  0.26894106492E+03  0.93041057290E+02 0.  0.
        -11    1    3    3    0    0  0.28223925695E+02 -0.20606698273E+02 -0.18226521683E+03  0.18558511595E+03  0.00000000000E+00 0.  1.
         12    1    3    3    0    0  0.32982585246E+02  0.21186825403E+02 -0.10662693830E+04  0.10669897514E+04  0.00000000000E+00 0. -1.
        -13    1    4    4    0    0 -0.73761691890E+02  0.21906020245E+02  0.16413486804E+03  0.18127580042E+03  0.00000000000E+00 0.  1.
         13    1    4    4    0    0 -0.29669164328E+02 -0.51980832048E+02  0.64054136380E+02  0.87665264499E+02  0.00000000000E+00 0. -1.
          1    1    1    2  501    0  0.42224345278E+02  0.29494684673E+02 -0.54544383267E+02  0.75019474166E+02  0.00000000000E+00 0. -1.
<scales pt_clust_5="13000.00000" pt_clust_6="13000.00000" pt_clust_7="13000.00000" pt_clust_8="13000.00000" pt_clust_9="51.50567"></scales>
<clustering>
<clus scale="   51.506">  1  9  2 -1</clus>
<clus scale="   79.741">  5  6 -1 -1</clus>
<clus scale="   93.041">  7  8 -1 -1</clus>
<clus scale="  100.734">  2  5  1 -1</clus>
<clus scale="   51.506">  1  5  2 -1</clus>
</clustering>
</event>
<event>
 9    2  0.6469128E-005  0.9337183E+02  0.7546771E-02  0.1301163E+00
         21   -1    0    0  501  502  0.00000000000E+00  0.00000000000E+00  0.32628598361E+02  0.32628598361E+02  0.00000000000E+00 0. -1.
          2   -1    0    0  502    0 -0.00000000000E+00 -0.00000000000E+00 -0.56395322884E+03  0.56395322884E+03  0.00000000000E+00 0. -1.
         24    2    1    2    0    0  0.42842925328E+01  0.21333581924E+02 -0.14343325204E+03  0.16664308161E+03  0.81995987562E+02 0.  0.
         23    2    1    2    0    0  0.36161845504E+02  0.37646235094E+02 -0.16783142967E+03  0.19854970102E+03  0.92356249938E+02 0.  0.
        -13    1    3    3    0    0  0.19949956984E+02  0.48984019838E+02 -0.94535553120E+02  0.10832546232E+03  0.00000000000E+00 0.  1.
         14    1    3    3    0    0 -0.15665664451E+02 -0.27650437914E+02 -0.48897698919E+02  0.58317619285E+02  0.00000000000E+00 0. -1.
        -13    1    4    4    0    0  0.34223395160E+02 -0.83378854576E+01 -0.14087426697E+03  0.14521129503E+03  0.00000000000E+00 0.  1.
         13    1    4    4    0    0  0.19384503443E+01  0.45984120552E+02 -0.26957162703E+02  0.53338405991E+02  0.00000000000E+00 0. -1.
          1    1    1    2  501    0 -0.40446138037E+02 -0.58979817018E+02 -0.22005994876E+03  0.23138904457E+03  0.00000000000E+00 0. -1.
<scales pt_clust_5="13000.00000" pt_clust_6="13000.00000" pt_clust_7="13000.00000" pt_clust_8="13000.00000" pt_clust_9="71.51583"></scales>
<clustering>
<clus scale="   71.516">  1  9  2 -1</clus>
<clus scale="   81.996">  5  6 -1 -1</clus>
<clus scale="   83.138">  2  5  1 -1</clus>
<clus scale="   92.356">  7  8 -1 -1</clus>
<clus scale="   71.516">  1  5  2 -1</clus>
</clustering>
</event>
<event>
 9    2  0.6469128E-005  0.1368432E+03  0.7546771E-02  0.1219254E+00
         21   -1    0    0  501  502  0.00000000000E+00  0.00000000000E+00  0.45604222312E+03  0.45604222312E+03  0.00000000000E+00 0.  1.
          4   -1    0    0  502    0 -0.00000000000E+00 -0.00000000000E+00 -0.26690260271E+03  0.26690260271E+03  0.00000000000E+00 0. -1.
         24    2    1    2    0    0  0.10633584124E+03  0.16471502213E+02 -0.22941353188E+03  0.26626248777E+03  0.81771157919E+02 0.  0.
         23    2    1    2    0    0 -0.58509142362E+02 -0.39870874195E+02  0.18510776706E+03  0.21724200807E+03  0.88973020042E+02 0.  0.
        -11    1    3    3    0    0  0.20037369372E+02 -0.27574141561E+02 -0.33977653663E+02  0.48128062527E+02  0.00000000000E+00 0.  1.
         12    1    3    3    0    0  0.86298471868E+02  0.44045643774E+02 -0.19543587822E+03  0.21813442525E+03  0.00000000000E+00 0. -1.
        -13    1    4    4    0    0 -0.28458335397E+02 -0.50816731105E+01  0.25904784196E+01  0.29024314524E+02  0.00000000000E+00 0. -1.
         13    1    4    4    0    0 -0.30050806966E+02 -0.34789201084E+02  0.18251728864E+03  0.18821769354E+03  0.00000000000E+00 0.  1.
          3    1    1    2  501    0 -0.47826698877E+02  0.23399371981E+02  0.23344538524E+03  0.23944032999E+03  0.00000000000E+00 0. -1.
<scales pt_clust_5="13000.00000" pt_clust_6="13000.00000" pt_clust_7="13000.00000" pt_clust_8="13000.00000" pt_clust_9="53.24400"></scales>
<clustering>
<clus scale="   53.244">  1  9  2 -1</clus>
<clus scale="   81.771">  5  6 -1 -1</clus>
<clus scale="   88.973">  7  8 -1 -1</clus>
<clus scale="  132.274">  2  5  1 -1</clus>
<clus scale="   53.244">  1  5  2 -1</clus>
</clustering>
</event>
<event>
 9    2  0.6469128E-005  0.1160852E+03  0.7546771E-02  0.1252944E+00
         21   -1    0    0  501  502  0.00000000000E+00  0.00000000000E+00  0.41510432885E+02  0.41510432885E+02  0.00000000000E+00 0.  1.
          2   -1    0    0  502    0 -0.00000000000E+00 -0.00000000000E+00 -0.81808571181E+03  0.81808571181E+03  0.00000000000E+00 0. -1.
         24    2    1    2    0    0  0.80371328457E+02  0.27335087591E+02 -0.44049091755E+03  0.45587701777E+03  0.81147085182E+02 0.  0.
         23    2    1    2    0    0 -0.31439699339E+02  0.20176432888E+02 -0.50881320823E+02  0.11047447950E+03  0.90665090706E+02 0.  0.
        -11    1    3    3    0    0  0.79507244548E+02 -0.76186363557E+01 -0.34668752403E+03  0.35576914547E+03  0.00000000000E+00 0.  1.
         12    1    3    3    0    0  0.86408390850E+00  0.34953723947E+02 -0.93803393524E+02  0.10010787229E+03  0.00000000000E+00 0. -1.
        -11    1    4    4    0    0 -0.21469837340E+02  0.24108964947E+01 -0.75493994410E+02  0.78524579141E+02  0.00000000000E+00 0. -1.
         11    1    4    4    0    0 -0.99698619983E+01  0.17765536393E+02  0.24612673587E+02  0.31949900355E+02  0.00000000000E+00 0.  1.
          1    1    1    2  501    0 -0.48931629118E+02 -0.47511520479E+02 -0.28520304055E+03  0.29324464743E+03  0.00000000000E+00 0. -1.
<scales pt_clust_5="13000.00000" pt_clust_6="13000.00000" pt_clust_7="13000.00000" pt_clust_8="13000.00000" pt_clust_9="68.20303"></scales>
<clustering>
<clus scale="   68.203">  1  9  2 -1</clus>
<clus scale="   81.147">  5  6 -1 -1</clus>
<clus scale="   90.665">  7  8 -1 -1</clus>
<clus scale="  108.814">  2  5  1 -1</clus>
<clus scale="   68.203">  1  5  2 -1</clus>
</clustering>
</event>
<event>
 9    2  0.6469128E-005  0.9713226E+02  0.7546771E-02  0.1293028E+00
          2   -1    0    0  502    0 -0.00000000000E+00  0.00000000000E+00  0.17874933045E+04  0.17874933045E+04  0.00000000000E+00 0. -1.
         21   -1    0    0  501  502  0.00000000000E+00 -0.00000000000E+00 -0.80273014887E+02  0.80273014887E+02  0.00000000000E+00 0. -1.
         24    2    1    2    0    0 -0.29464058663E+02 -0.65538122752E+01  0.15212967096E+04  0.15236893876E+04  0.79841015433E+02 0.  0.
         23    2    1    2    0    0  0.28349498716E+02  0.74584084106E+02  0.23195508792E+03  0.26192913913E+03  0.91854403480E+02 0.  0.
        -13    1    3    3    0    0  0.82826022395E+01 -0.19451424833E+02  0.12158228299E+03  0.12340668930E+03  0.00000000000E+00 0.  1.
         14    1    3    3    0    0 -0.37746660902E+02  0.12897612558E+02  0.13997144267E+04  0.14002826983E+04  0.00000000000E+00 0. -1.
        -13    1    4    4    0    0  0.45922527237E+02  0.63131428411E+01  0.12964703396E+03  0.13768474024E+03  0.00000000000E+00 0.  1.
         13    1    4    4    0    0 -0.17573028521E+02  0.68270941265E+02  0.10230805396E+03  0.12424439890E+03  0.00000000000E+00 0. -1.
          1    1    1    2  501    0  0.11145599467E+01 -0.68030271831E+02 -0.46031507920E+02  0.82147792731E+02  0.00000000000E+00 0. -1.
<scales pt_clust_5="13000.00000" pt_clust_6="13000.00000" pt_clust_7="13000.00000" pt_clust_8="13000.00000" pt_clust_9="68.03940"></scales>
<clustering>
<clus scale="   68.039">  2  9  1 -1</clus>
<clus scale="   79.841">  5  6 -1 -1</clus>
<clus scale="   85.861">  1  5  2 -1</clus>
<clus scale="   91.854">  7  8 -1 -1</clus>
<clus scale="   68.039">  2  5  1 -1</clus>
</clustering>
</event>
<event>
 9    2  0.6469128E-005  0.1347777E+03  0.7546771E-02  0.1223259E+00
         21   -1    0    0  501  502  0.00000000000E+00  0.00000000000E+00  0.10752233935E+04  0.10752233935E+04  0.00000000000E+00 0.  1.
          2   -1    0    0  502    0 -0.00000000000E+00 -0.00000000000E+00 -0.51261218541E+02  0.51261218541E+02  0.00000000000E+00 0. -1.
         24    2    1    2    0    0 -0.76310509349E+01  0.87815837825E+02  0.76857481343E+02  0.14176531357E+03  0.80127881426E+02 0.  0.
         23    2    1    2    0    0  0.29666083398E+02 -0.16406139547E+03  0.66888888256E+03  0.69540465101E+03  0.91537278981E+02 0.  0.
        -11    1    3    3    0    0 -0.37017992397E+02  0.60846864761E+02  0.72517153939E+02  0.10164354543E+03  0.00000000000E+00 0.  1.
         12    1    3    3    0    0  0.29386941462E+02  0.26968973064E+02  0.43403274038E+01  0.40121768139E+02  0.00000000000E+00 0. -1.
        -11    1    4    4    0    0  0.57818121993E+02 -0.89964384529E+02  0.45219589261E+03  0.46466939969E+03  0.00000000000E+00 0.  1.
         11    1    4    4    0    0 -0.28152038595E+02 -0.74097010943E+02  0.21669298995E+03  0.23073525132E+03  0.00000000000E+00 0. -1.
          1    1    1    2  501    0 -0.22035032463E+02  0.76245557646E+02  0.27821581110E+03  0.28931464751E+03  0.00000000000E+00 0. -1.
<scales pt_clust_5="13000.00000" pt_clust_6="13000.00000" pt_clust_7="13000.00000" pt_clust_8="13000.00000" pt_clust_9="79.36578"></scales>
<clustering>
<clus scale="   79.366">  1  9  2 -1</clus>
<clus scale="   80.128">  5  6 -1 -1</clus>
<clus scale="   91.537">  7  8 -1 -1</clus>
<clus scale="  127.305">  2  5  1 -1</clus>
<clus scale="   79.366">  1  5  2 -1</clus>
</clustering>
</event>
<event>
 9    2  0.6469128E-005  0.9946534E+02  0.7546771E-02  0.1286206E+00
          2   -1    0    0  502    0 -0.00000000000E+00  0.00000000000E+00  0.56722929314E+03  0.56722929314E+03  0.00000000000E+00 0. -1.
         21   -1    0    0  501  502  0.00000000000E+00 -0.00000000000E+00 -0.65784242214E+02  0.65784242214E+02  0.00000000000E+00 0. -1.
         24    2    1    2    0    0 -0.28425442263E+02 -0.59430525858E+01  0.33733787741E+03  0.34833364393E+03  0.81830057525E+02 0.  0.
         23    2    1    2    0    0  0.74821861455E+02 -0.24279288438E+02  0.18885819497E+03  0.22402817525E+03  0.91287516670E+02 0.  0.
        -13    1    3    3    0    0 -0.23217630210E+02  0.19784954301E+02  0.42415382183E+02  0.52245262130E+02  0.00000000000E+00 0.  1.
         14    1    3    3    0    0 -0.52078120528E+01 -0.25728006887E+02  0.29492249523E+03  0.29608838180E+03  0.00000000000E+00 0. -1.
        -11    1    4    4    0    0  0.18225788703E+02 -0.32935856991E+02  0.15044239197E+03  0.15508018361E+03  0.00000000000E+00 0. -1.
         11    1    4    4    0    0  0.56596072752E+02  0.86565685536E+01  0.38415803005E+02  0.68947991636E+02  0.00000000000E+00 0.  1.
          1    1    1    2  501    0 -0.46396419192E+02  0.30222341023E+02 -0.24751021462E+02  0.60651716168E+02  0.00000000000E+00 0. -1.
<scales pt_clust_5="13000.00000" pt_clust_6="13000.00000" pt_clust_7="13000.00000" pt_clust_8="13000.00000" pt_clust_9="55.37163"></scales>
<clustering>
<clus scale="   55.372">  2  9  1 -1</clus>
<clus scale="   81.830">  5  6 -1 -1</clus>
<clus scale="   90.863">  1  5  2 -1</clus>
<clus scale="   91.288">  7  8 -1 -1</clus>
<clus scale="   55.372">  2  5  1 -1</clus>
</clustering>
</event>
<event>
 9    2  0.6469128E-005  0.1040121E+03  0.7546771E-02  0.1281721E+00
          4   -1    0    0  502    0 -0.00000000000E+00  0.00000000000E+00  0.30113265601E+03  0.30113265601E+03  0.00000000000E+00 0. -1.
         21   -1    0    0  501  502  0.00000000000E+00 -0.00000000000E+00 -0.10284458248E+03  0.10284458248E+03  0.00000000000E+00 0. -1.
         23    2    1    2    0    0 -0.16456261226E+02  0.34432188115E+02  0.22006852407E+03  0.24441884725E+03  0.99267484576E+02 0.  0.
         24    2    1    2    0    0  0.40502932186E+02  0.23465685961E+02 -0.39440312487E+00  0.93318152485E+02  0.80727913983E+02 0.  0.
        -13    1    4    4    0    0 -0.19701670451E+02 -0.77048818485E+01 -0.12321932973E+02  0.24481647311E+02  0.00000000000E+00 0.  1.
         14    1    4    4    0    0  0.60204602637E+02  0.31170567809E+02  0.11927529848E+02  0.68836505174E+02  0.00000000000E+00 0. -1.
        -13    1    3    3    0    0  0.12037946926E+02 -0.29231833741E+02  0.37901910364E+02  0.49355517212E+02  0.00000000000E+00 0.  1.
         13    1    3    3    0    0 -0.28494208153E+02  0.63664021856E+02  0.18216661371E+03  0.19506333004E+03  0.00000000000E+00 0. -1.
          3    1    1    2  501    0 -0.24046670960E+02 -0.57897874075E+02 -0.21386047416E+02  0.66240238759E+02  0.00000000000E+00 0. -1.
<scales pt_clust_5="13000.00000" pt_clust_6="13000.00000" pt_clust_7="13000.00000" pt_clust_8="13000.00000" pt_clust_9="62.69295"></scales>
<clustering>
<clus scale="   62.693">  2  9  1 -1</clus>
<clus scale="   80.728">  5  6 -1 -1</clus>
<clus scale="   86.496">  2  5  1 -1</clus>
<clus scale="   99.267">  7  8 -1 -1</clus>
<clus scale="   62.693">  2  5  1 -1</clus>
</clustering>
</event>
<event>
 9    2  0.6469128E-005  0.3023076E+03  0.7546771E-02  0.1124102E+00
         21   -1    0    0  501  502  0.00000000000E+00  0.00000000000E+00  0.31951607255E+03  0.31951607255E+03  0.00000000000E+00 0.  1.
         -1   -1    0    0    0  501 -0.00000000000E+00 -0.00000000000E+00 -0.58520175819E+03  0.58520175819E+03  0.00000000000E+00 0.  1.
         24    2    1    2    0    0  0.40621781993E+02 -0.58112439532E+02 -0.13220355576E+03  0.17062071381E+03  0.81280151488E+02 0.  0.
         23    2    1    2    0    0 -0.24807579162E+03 -0.14467399715E+03 -0.27792528135E+03  0.41002408655E+03  0.91679472604E+02 0.  0.
        -11    1    3    3    0    0 -0.13703689771E+02 -0.37472224354E+02 -0.91055831679E+02  0.99413898395E+02  0.00000000000E+00 0.  1.
         12    1    3    3    0    0  0.54325471764E+02 -0.20640215178E+02 -0.41147724082E+02  0.71206815419E+02  0.00000000000E+00 0. -1.
        -11    1    4    4    0    0 -0.11036495800E+03 -0.94451649986E+02 -0.87017677948E+02  0.16933285096E+03  0.00000000000E+00 0.  1.
         11    1    4    4    0    0 -0.13771083362E+03 -0.50222347159E+02 -0.19090760341E+03  0.24069123559E+03  0.00000000000E+00 0. -1.
         -2    1    1    2    0  502  0.20745400962E+03  0.20278643668E+03  0.14444315147E+03  0.32407303038E+03  0.00000000000E+00 0.  1.
<scales pt_clust_5="13000.00000" pt_clust_6="13000.00000" pt_clust_7="13000.00000" pt_clust_8="13000.00000" pt_clust_9="288.07081"></scales>
<clustering>
<clus scale="   81.280">  5  6 -1 -1</clus>
<clus scale="   91.679">  7  8 -1 -1</clus>
<clus scale="  107.859">  2  5  1 -1</clus>
<clus scale="  288.071">  1  9  2 -1</clus>
<clus scale="  288.071">  1  5  2 -1</clus>
</clustering>
</event>
<event>
 9    2  0.6469128E-005  0.9388007E+02  0.7546771E-02  0.1300148E+00
          2   -1    0    0  502    0 -0.00000000000E+00  0.00000000000E+00  0.11272664744E+04  0.11272664744E+04  0.00000000000E+00 0. -1.
         21   -1    0    0  501  502  0.00000000000E+00 -0.00000000000E+00 -0.36185341650E+02  0.36185341650E+02  0.00000000000E+00 0. -1.
         24    2    1    2    0    0 -0.16354017262E+02 -0.10093191840E+02  0.92013772973E+03  0.92399577420E+03  0.82130522051E+02 0.  0.
         23    2    1    2    0    0 -0.10648165564E+02 -0.37059205821E+02  0.15138197970E+03  0.18170558070E+03  0.92809730694E+02 0.  0.
        -13    1    3    3    0    0 -0.20685190775E+02 -0.74743339323E+01  0.61014384381E+02  0.64857519892E+02  0.00000000000E+00 0.  1.
         14    1    3    3    0    0  0.43311735124E+01 -0.26188579076E+01  0.85912334535E+03  0.85913825430E+03  0.00000000000E+00 0. -1.
        -13    1    4    4    0    0 -0.32104739753E+02  0.22767616626E+01  0.10476777277E+02  0.33847611738E+02  0.00000000000E+00 0. -1.
         13    1    4    4    0    0  0.21456574189E+02 -0.39335967484E+02  0.14090520242E+03  0.14785796896E+03  0.00000000000E+00 0.  1.
          1    1    1    2  501    0  0.27002182826E+02  0.47152397661E+02  0.19561423326E+02  0.57750461168E+02  0.00000000000E+00 0. -1.
<scales pt_clust_5="13000.00000" pt_clust_6="13000.00000" pt_clust_7="13000.00000" pt_clust_8="13000.00000" pt_clust_9="54.33660"></scales>
<clustering>
<clus scale="   54.337">  2  9  1 -1</clus>
<clus scale="   82.131">  5  6 -1 -1</clus>
<clus scale="   83.338">  1  5  2 -1</clus>
<clus scale="   92.810">  7  8 -1 -1</clus>
<clus scale="   54.337">  2  5  1 -1</clus>
</clustering>
</event>
<event>
 9    2  0.6469128E-005  0.1047247E+03  0.7546771E-02  0.1275139E+00
         21   -1    0    0  501  502  0.00000000000E+00  0.00000000000E+00  0.12586166688E+03  0.12586166688E+03  0.00000000000E+00 0. -1.
          2   -1    0    0  502    0 -0.00000000000E+00 -0.00000000000E+00 -0.25055768273E+03  0.25055768273E+03  0.00000000000E+00 0. -1.
         24    2    1    2    0    0 -0.54089791375E+02 -0.22860954004E+02 -0.16015582897E+03  0.18849270764E+03  0.80195277491E+02 0.  0.
         23    2    1    2    0    0 -0.72501388646E+01  0.54958554090E+02  0.49946727380E+02  0.11719677800E+03  0.90373679886E+02 0.  0.
        -11    1    3    3    0    0  0.14098295445E+02 -0.17790872092E+02 -0.12834351697E+02  0.26076764518E+02  0.00000000000E+00 0.  1.
         12    1    3    3    0    0 -0.68188086820E+02 -0.50700819118E+01 -0.14732147727E+03  0.16241594312E+03  0.00000000000E+00 0. -1.
        -11    1    4    4    0    0 -0.30289917969E+02  0.81613678972E+01  0.56500780529E+02  0.64625267945E+02  0.00000000000E+00 0. -1.
         11    1    4    4    0    0  0.23039779104E+02  0.46797186193E+02 -0.65540531489E+01  0.52571510054E+02  0.00000000000E+00 0.  1.
          1    1    1    2  501    0  0.61339930240E+02 -0.32097600086E+02 -0.14486914264E+02  0.70729863976E+02  0.00000000000E+00 0. -1.
<scales pt_clust_5="13000.00000" pt_clust_6="13000.00000" pt_clust_7="13000.00000" pt_clust_8="13000.00000" pt_clust_9="69.23036"></scales>
<clustering>
<clus scale="   69.230">  1  9  2 -1</clus>
<clus scale="   80.195">  5  6 -1 -1</clus>
<clus scale="   90.374">  7  8 -1 -1</clus>
<clus scale="   96.079">  2  5  1 -1</clus>
<clus scale="   69.230">  1  5  2 -1</clus>
</clustering>
</event>
<event>
 9    2  0.6469128E-005  0.1073750E+03  0.7546771E-02  0.1272798E+00
         21   -1    0    0  501  502  0.00000000000E+00  0.00000000000E+00  0.52652258584E+02  0.52652258584E+02  0.00000000000E+00 0.  1.
         -3   -1    0    0    0  501 -0.00000000000E+00 -0.00000000000E+00 -0.39571823952E+03  0.39571823952E+03  0.00000000000E+00 0.  1.
         23    2    1    2    0    0 -0.38403072862E+02 -0.87697768888E+01 -0.12181687271E+03  0.15689943619E+03  0.90699380412E+02 0.  0.
         24    2    1    2    0    0  0.40891966707E+02  0.81390047749E+02 -0.14086840388E+03  0.18311537003E+03  0.73422331189E+02 0.  0.
        -13    1    4    4    0    0  0.19443854896E+02  0.86684079878E+02 -0.13242842246E+03  0.15946623553E+03  0.00000000000E+00 0.  1.
         14    1    4    4    0    0  0.21448111811E+02 -0.52940321289E+01 -0.84399814110E+01  0.23649134501E+02  0.00000000000E+00 0. -1.
        -11    1    3    3    0    0 -0.61592970494E+02 -0.19710666623E+02 -0.11222132723E+03  0.12952154523E+03  0.00000000000E+00 0. -1.
         11    1    3    3    0    0  0.23189897632E+02  0.10940889734E+02 -0.95955454810E+01  0.27377890960E+02  0.00000000000E+00 0.  1.
         -4    1    1    2    0  502 -0.24888938444E+01 -0.72620270861E+02 -0.80380704355E+02  0.10835569189E+03  0.00000000000E+00 0.  1.
<scales pt_clust_5="13000.00000" pt_clust_6="13000.00000" pt_clust_7="13000.00000" pt_clust_8="13000.00000" pt_clust_9="72.66291"></scales>
<clustering>
<clus scale="   72.663">  1  9  2 -1</clus>
<clus scale="   73.422">  5  6 -1 -1</clus>
<clus scale="   90.699">  7  8 -1 -1</clus>
<clus scale="   93.241">  1  5  2 -1</clus>
<clus scale="   72.663">  1  5  2 -1</clus>
</clustering>
</event>
<event>
 9    2  0.6469128E-005  0.1373309E+03  0.7546771E-02  0.1217184E+00
         21   -1    0    0  501  502  0.00000000000E+00  0.00000000000E+00  0.16636736699E+03  0.16636736699E+03  0.00000000000E+00 0. -1.
         -3   -1    0    0    0  501 -0.00000000000E+00 -0.00000000000E+00 -0.37993166223E+03  0.37993166223E+03  0.00000000000E+00 0.  1.
         23    2    1    2    0    0  0.76426989875E+02  0.81410695249E+02 -0.30890208529E+03  0.33817154646E+03  0.80440726364E+02 0.  0.
         24    2    1    2    0    0 -0.10007465699E+03 -0.43037246420E+02  0.89077987122E+02  0.16262013316E+03  0.81506308751E+02 0.  0.
        -11    1    4    4    0    0 -0.59853779114E+02 -0.23388593534E+02  0.15155681654E+01  0.64279064466E+02  0.00000000000E+00 0.  1.
         12    1    4    4    0    0 -0.40220877880E+02 -0.19648652886E+02  0.87562418956E+02  0.98341068690E+02  0.00000000000E+00 0. -1.
        -11    1    3    3    0    0  0.56564216747E+02  0.71934479623E+01 -0.17173406898E+03  0.18095260915E+03  0.00000000000E+00 0.  1.
         11    1    3    3    0    0  0.19862773128E+02  0.74217247287E+02 -0.13716801631E+03  0.15721893731E+03  0.00000000000E+00 0. -1.
         -4    1    1    2    0  502  0.23647667119E+02 -0.38373448829E+02  0.62598029253E+01  0.45507349602E+02  0.00000000000E+00 0.  1.
<scales pt_clust_5="13000.00000" pt_clust_6="13000.00000" pt_clust_7="13000.00000" pt_clust_8="13000.00000" pt_clust_9="45.07476"></scales>
<clustering>
<clus scale="   45.075">  1  9  2 -1</clus>
<clus scale="   80.441">  7  8 -1 -1</clus>
<clus scale="   81.506">  5  6 -1 -1</clus>
<clus scale="  136.701">  2  7  1 -1</clus>
<clus scale="   45.075">  1  5  2 -1</clus>
</clustering>
</event>
<event>
 9    2  0.6469128E-005  0.1144253E+03  0.7546771E-02  0.1258893E+00
         21   -1    0    0  501  502  0.00000000000E+00  0.00000000000E+00  0.64352116239E+02  0.64352116239E+02  0.00000000000E+00 0.  1.
          2   -1    0    0  502    0 -0.00000000000E+00 -0.00000000000E+00 -0.37165830786E+03  0.37165830786E+03  0.00000000000E+00 0. -1.
         23    2    1    2    0    0 -0.57180756146E+02 -0.39930927826E+02 -0.27890693682E+03  0.30162532443E+03  0.91239459980E+02 0.  0.
         24    2    1    2    0    0  0.40718548952E+02  0.55952354117E+02 -0.44489884834E+01  0.10119917460E+03  0.73707620242E+02 0.  0.
        -11    1    4    4    0    0  0.26584554545E+02  0.61781626840E+02  0.21901385913E+02  0.70734564820E+02  0.00000000000E+00 0.  1.
         12    1    4    4    0    0  0.14133994407E+02 -0.58292727231E+01 -0.26350374396E+02  0.30464609782E+02  0.00000000000E+00 0. -1.
        -13    1    3    3    0    0 -0.56619748137E+02 -0.66100072597E+02 -0.23379318336E+03  0.24946797001E+03  0.00000000000E+00 0. -1.
         13    1    3    3    0    0 -0.56100800821E+00  0.26169144772E+02 -0.45113753468E+02  0.52157354419E+02  0.00000000000E+00 0.  1.
          1    1    1    2  501    0  0.16462207194E+02 -0.16021426291E+02 -0.23950266310E+02  0.33185925065E+02  0.00000000000E+00 0. -1.
<scales pt_clust_5="13000.00000" pt_clust_6="13000.00000" pt_clust_7="13000.00000" pt_clust_8="13000.00000" pt_clust_9="22.97152"></scales>
<clustering>
<clus scale="   22.972">  1  9  2 -1</clus>
<clus scale="   73.708">  5  6 -1 -1</clus>
<clus scale="   91.239">  7  8 -1 -1</clus>
<clus scale="  101.002">  1  5  2 -1</clus>
<clus scale="   22.972">  1  5  2 -1</clus>
</clustering>
</event>
<event>
 9    2  0.6469128E-005  0.1287559E+03  0.7546771E-02  0.1232401E+00
         21   -1    0    0  501  502  0.00000000000E+00  0.00000000000E+00  0.34967953058E+03  0.34967953058E+03  0.00000000000E+00 0.  1.
          4   -1    0    0  502    0 -0.00000000000E+00 -0.00000000000E+00 -0.19398741501E+03  0.19398741501E+03  0.00000000000E+00 0. -1.
         23    2    1    2    0    0  0.61408414327E+02 -0.22602010823E+02  0.11311649553E+03  0.16001342859E+03  0.92342360400E+02 0.  0.
         24    2    1    2    0    0 -0.85160242307E+02  0.10223006103E+03  0.17062847619E+03  0.23100257635E+03  0.80900316090E+02 0.  0.
        -13    1    4    4    0    0 -0.81086508218E+02  0.53356640007E+02  0.14799896843E+03  0.17699052942E+03  0.00000000000E+00 0.  1.
         14    1    4    4    0    0 -0.40737340888E+01  0.48873421020E+02  0.22629507762E+02  0.54012046926E+02  0.00000000000E+00 0. -1.
        -11    1    3    3    0    0 -0.18316257816E+02 -0.27333215727E+02  0.26991518427E+02  0.42557397117E+02  0.00000000000E+00 0. -1.
         11    1    3    3    0    0  0.79724672143E+02  0.47312049035E+01  0.86124977102E+02  0.11745603147E+03  0.00000000000E+00 0.  1.
          3    1    1    2  501    0  0.23751827979E+02 -0.79628050204E+02 -0.12805285616E+03  0.15265094065E+03  0.00000000000E+00 0. -1.
<scales pt_clust_5="13000.00000" pt_clust_6="13000.00000" pt_clust_7="13000.00000" pt_clust_8="13000.00000" pt_clust_9="83.09502"></scales>
<clustering>
<clus scale="   80.900">  5  6 -1 -1</clus>
<clus scale="   83.095">  1  9  2 -1</clus>
<clus scale="   92.342">  7  8 -1 -1</clus>
<clus scale="  120.813">  1  5  2 -1</clus>
<clus scale="   83.095">  1  5  2 -1</clus>
</clustering>
</event>
<event>
 9    2  0.6469128E-005  0.1518462E+03  0.7546771E-02  0.1219870E+00
          2   -1    0    0  502    0 -0.00000000000E+00  0.00000000000E+00  0.13225975393E+04  0.13225975393E+04  0.00000000000E+00 0. -1.
         21   -1    0    0  501  502  0.00000000000E+00 -0.00000000000E+00 -0.28518940533E+02  0.28518940533E+02  0.00000000000E+00 0.  1.
         23    2    1    2    0    0  0.35706578466E+01 -0.37798411323E+02  0.25306706731E+03  0.27051107057E+03  0.87703074363E+02 0.  0.
         24    2    1    2    0    0 -0.95029214312E+02  0.11379790825E+03  0.67519520868E+03  0.69594689434E+03  0.80454921729E+02 0.  0.
        -11    1    4    4    0    0 -0.82776468843E+02  0.60070965202E+02  0.30546239864E+03  0.32213000735E+03  0.00000000000E+00 0.  1.
         12    1    4    4    0    0 -0.12252745468E+02  0.53726943045E+02  0.36973281004E+03  0.37381688699E+03  0.00000000000E+00 0. -1.
        -11    1    3    3    0    0  0.44349984609E+02 -0.10174317262E+02  0.10403352998E+03  0.11354916656E+03  0.00000000000E+00 0.  1.
         11    1    3    3    0    0 -0.40779326762E+02 -0.27624094061E+02  0.14903353732E+03  0.15696190401E+03  0.00000000000E+00 0. -1.
          1    1    1    2  501    0  0.91458556465E+02 -0.75999496923E+02  0.36581632282E+03  0.38465851495E+03  0.00000000000E+00 0. -1.
<scales pt_clust_5="13000.00000" pt_clust_6="13000.00000" pt_clust_7="13000.00000" pt_clust_8="13000.00000" pt_clust_9="128.77990"></scales>
<clustering>
<clus scale="   80.455">  5  6 -1 -1</clus>
<clus scale="   87.703">  7  8 -1 -1</clus>
<clus scale="   95.568">  1  7  2 -1</clus>
<clus scale="  128.780">  2  9  1 -1</clus>
<clus scale="  128.780">  2  5  1 -1</clus>
</clustering>
</event>
<event>
 9    2  0.6469128E-005  0.1778883E+03  0.7546771E-02  0.1195437E+00
          2   -1    0    0  502    0 -0.00000000000E+00  0.00000000000E+00  0.23063874213E+03  0.23063874213E+03  0.00000000000E+00 0. -1.
         21   -1    0    0  501  502  0.00000000000E+00 -0.00000000000E+00 -0.27868335541E+03  0.27868335541E+03  0.00000000000E+00 0. -1.
         24    2    1    2    0    0  0.21115255129E+02 -0.55937332620E+02 -0.16130344646E+02  0.10165460954E+03  0.80614095803E+02 0.  0.
         23    2    1    2    0    0  0.24851935437E+02  0.19177359242E+03  0.77075574824E+02  0.22754736680E+03  0.91882699446E+02 0.  0.
        -11    1    3    3    0    0 -0.25515740979E+02  0.24035302686E+01 -0.27078743802E+01  0.25771351907E+02  0.00000000000E+00 0.  1.
         12    1    3    3    0    0  0.46630996108E+02 -0.58340862889E+02 -0.13422470266E+02  0.75883257631E+02  0.00000000000E+00 0. -1.
        -11    1    4    4    0    0 -0.15885212185E+02  0.13517523291E+03  0.20274687193E+02  0.13760721819E+03  0.00000000000E+00 0.  1.
         11    1    4    4    0    0  0.40737147621E+02  0.56598359518E+02  0.56800887631E+02  0.89940148611E+02  0.00000000000E+00 0. -1.
          1    1    1    2  501    0 -0.45967190566E+02 -0.13583625980E+03 -0.10898984345E+03  0.18012012120E+03  0.00000000000E+00 0. -1.
<scales pt_clust_5="13000.00000" pt_clust_6="13000.00000" pt_clust_7="13000.00000" pt_clust_8="13000.00000" pt_clust_9="152.32148"></scales>
<clustering>
<clus scale="   80.614">  5  6 -1 -1</clus>
<clus scale="   91.883">  7  8 -1 -1</clus>
<clus scale="  100.367">  1  5  2 -1</clus>
<clus scale="  152.321">  2  9  1 -1</clus>
<clus scale="  152.321">  2  5  1 -1</clus>
</clustering>
</event>
<event>
 9    2  0.6469128E-005  0.1003924E+03  0.7546771E-02  0.1285285E+00
          2   -1    0    0  502    0 -0.00000000000E+00  0.00000000000E+00  0.72893377829E+03  0.72893377829E+03  0.00000000000E+00 0. -1.
         21   -1    0    0  501  502  0.00000000000E+00 -0.00000000000E+00 -0.10654077238E+03  0.10654077238E+03  0.00000000000E+00 0. -1.
         24    2    1    2    0    0  0.41266737751E+02 -0.18938991116E+00  0.62492092013E+03  0.63133732971E+03  0.79735111213E+02 0.  0.
         23    2    1    2    0    0 -0.49399004421E+02 -0.50321586678E+02 -0.57571580435E+02  0.12898871660E+03  0.91384235033E+02 0.  0.
        -13    1    3    3    0    0  0.52767388835E+01 -0.31046956473E+02  0.11553571003E+03  0.11975081532E+03  0.00000000000E+00 0.  1.
         14    1    3    3    0    0  0.35989998867E+02  0.30857566561E+02  0.50938521010E+03  0.51158651439E+03  0.00000000000E+00 0. -1.
        -13    1    4    4    0    0 -0.21332984659E+02 -0.30296899779E+01 -0.69460109934E+02  0.72725388468E+02  0.00000000000E+00 0. -1.
         13    1    4    4    0    0 -0.28066019762E+02 -0.47291896700E+02  0.11888529498E+02  0.56263328131E+02  0.00000000000E+00 0.  1.
          1    1    1    2  501    0  0.81322666701E+01  0.50510976589E+02  0.55043666212E+02  0.75148504358E+02  0.00000000000E+00 0. -1.
<scales pt_clust_5="13000.00000" pt_clust_6="13000.00000" pt_clust_7="13000.00000" pt_clust_8="13000.00000" pt_clust_9="51.16144"></scales>
<clustering>
<clus scale="   51.161">  2  9  1 -1</clus>
<clus scale="   79.735">  5  6 -1 -1</clus>
<clus scale="   89.918">  1  5  2 -1</clus>
<clus scale="   91.384">  7  8 -1 -1</clus>
<clus scale="   51.161">  2  5  1 -1</clus>
</clustering>
</event>
<event>
 9    2  0.6469128E-005  0.1039237E+03  0.7546771E-02  0.1277086E+00
         21   -1    0    0  501  502  0.00000000000E+00  0.00000000000E+00  0.10543585562E+03  0.10543585562E+03  0.00000000000E+00 0. -1.
          2   -1    0    0  502    0 -0.00000000000E+00 -0.00000000000E+00 -0.32221750424E+03  0.32221750424E+03  0.00000000000E+00 0. -1.
         24    2    1    2    0    0 -0.14361402989E+02  0.56921307777E+02 -0.15891120365E+03  0.18734613051E+03  0.79996979907E+02 0.  0.
         23    2    1    2    0    0  0.31123958235E+02 -0.32017682873E+02 -0.12853385272E+03  0.16353164087E+03  0.90707295606E+02 0.  0.
        -13    1    3    3    0    0 -0.39473849743E+02  0.50425483079E+02 -0.70656760939E+02  0.95358754311E+02  0.00000000000E+00 0.  1.
         14    1    3    3    0    0  0.25112446754E+02  0.64958246982E+01 -0.88254442715E+02  0.91987376196E+02  0.00000000000E+00 0. -1.
        -11    1    4    4    0    0  0.16176264580E+02 -0.47816869951E+02 -0.22458575244E+02  0.55249544701E+02  0.00000000000E+00 0.  1.
         11    1    4    4    0    0  0.14947693656E+02  0.15799187078E+02 -0.10607527748E+03  0.10828209617E+03  0.00000000000E+00 0. -1.
          1    1    1    2  501    0 -0.16762555247E+02 -0.24903624905E+02  0.70663407761E+02  0.76775588491E+02  0.00000000000E+00 0. -1.
<scales pt_clust_5="13000.00000" pt_clust_6="13000.00000" pt_clust_7="13000.00000" pt_clust_8="13000.00000" pt_clust_9="30.01956"></scales>
<clustering>
<clus scale="   30.020">  1  9  2 -1</clus>
<clus scale="   79.997">  5  6 -1 -1</clus>
<clus scale="   90.707">  7  8 -1 -1</clus>
<clus scale="   94.720">  2  5  1 -1</clus>
<clus scale="   30.020">  1  5  2 -1</clus>
</clustering>
</event>
<event>
 9    2  0.6469128E-005  0.1015989E+03  0.7546771E-02  0.1283424E+00
         21   -1    0    0  501  502  0.00000000000E+00  0.00000000000E+00  0.19613126787E+03  0.19613126787E+03  0.00000000000E+00 0.  1.
         -3   -1    0    0    0  501 -0.00000000000E+00 -0.00000000000E+00 -0.14135252410E+03  0.14135252410E+03  0.00000000000E+00 0.  1.
         23    2    1    2    0    0 -0.41596743094E+02  0.22899442195E+01 -0.30227300744E+02  0.10703934774E+03  0.93852007832E+02 0.  0.
         24    2    1    2    0    0  0.23290352009E+02  0.53740737523E+02  0.12437414500E+03  0.15956138145E+03  0.80996290903E+02 0.  0.
        -11    1    4    4    0    0 -0.69712106698E+01  0.64172824288E+02  0.10123805035E+03  0.12006619839E+03  0.00000000000E+00 0.  1.
         12    1    4    4    0    0  0.30261562679E+02 -0.10432086765E+02  0.23136094650E+02  0.39495183069E+02  0.00000000000E+00 0. -1.
        -13    1    3    3    0    0 -0.98774150872E+01  0.34360433913E+02 -0.46879636607E+02  0.58956789905E+02  0.00000000000E+00 0.  1.
         13    1    3    3    0    0 -0.31719328007E+02 -0.32070489694E+02  0.16652335864E+02  0.48082557837E+02  0.00000000000E+00 0. -1.
         -4    1    1    2    0  502  0.18306391085E+02 -0.56030681743E+02 -0.39368100488E+02  0.70883062767E+02  0.00000000000E+00 0.  1.
<scales pt_clust_5="13000.00000" pt_clust_6="13000.00000" pt_clust_7="13000.00000" pt_clust_8="13000.00000" pt_clust_9="58.94544"></scales>
<clustering>
<clus scale="   58.945">  1  9  2 -1</clus>
<clus scale="   80.996">  5  6 -1 -1</clus>
<clus scale="   89.858">  1  5  2 -1</clus>
<clus scale="   93.852">  7  8 -1 -1</clus>
<clus scale="   58.945">  1  5  2 -1</clus>
</clustering>
</event>
<event>
 9    2  0.6469128E-005  0.1022982E+03  0.7546771E-02  0.1284547E+00
         21   -1    0    0  501  502  0.00000000000E+00  0.00000000000E+00  0.10020404233E+03  0.10020404233E+03  0.00000000000E+00 0. -1.
         -3   -1    0    0    0  501 -0.00000000000E+00 -0.00000000000E+00 -0.15994879178E+03  0.15994879178E+03  0.00000000000E+00 0.  1.
         24    2    1    2    0    0  0.42672500789E+02 -0.14498276639E+02 -0.67526267819E+02  0.11404356919E+03  0.80093673158E+02 0.  0.
         23    2    1    2    0    0  0.45670025506E+01  0.12628130597E+02  0.10758782555E+02  0.98739103169E+02  0.97228246399E+02 0.  0.
        -11    1    3    3    0    0 -0.10144546745E+01 -0.33461942041E+02 -0.55676555648E+02  0.64966218393E+02  0.00000000000E+00 0.  1.
         12    1    3    3    0    0  0.43686955463E+02  0.18963665402E+02 -0.11849712171E+02  0.49077350801E+02  0.00000000000E+00 0. -1.
        -13    1    4    4    0    0 -0.41827342228E+02 -0.14335959826E+02  0.11915775067E+01  0.44231958571E+02  0.00000000000E+00 0. -1.
         13    1    4    4    0    0  0.46394344779E+02  0.26964090423E+02  0.95672050484E+01  0.54507144598E+02  0.00000000000E+00 0.  1.
         -4    1    1    2    0  502 -0.47239503340E+02  0.18701460425E+01 -0.29772641797E+01  0.47370161747E+02  0.00000000000E+00 0.  1.
<scales pt_clust_5="13000.00000" pt_clust_6="13000.00000" pt_clust_7="13000.00000" pt_clust_8="13000.00000" pt_clust_9="47.27651"></scales>
<clustering>
<clus scale="   47.277">  1  9  2 -1</clus>
<clus scale="   80.094">  5  6 -1 -1</clus>
<clus scale="   86.178">  2  5  1 -1</clus>
<clus scale="   97.228">  7  8 -1 -1</clus>
<clus scale="   47.277">  1  5  2 -1</clus>
</clustering>
</event>
<event>
 9    2  0.6469128E-005  0.9142473E+02  0.7546771E-02  0.1306338E+00
          2   -1    0    0  502    0 -0.00000000000E+00  0.00000000000E+00  0.21786428110E+03  0.21786428110E+03  0.00000000000E+00 0. -1.
         21   -1    0    0  501  502  0.00000000000E+00 -0.00000000000E+00 -0.75889892092E+02  0.75889892092E+02  0.00000000000E+00 0. -1.
         24    2    1    2    0    0  0.84381877739E+01  0.78924072706E+00  0.37633696876E+02  0.88703448056E+02  0.79876032968E+02 0.  0.
         23    2    1    2    0    0  0.17969601704E+02 -0.27947857777E+02  0.28931900259E+01  0.96761494328E+02  0.90831860580E+02 0.  0.
        -13    1    3    3    0    0  0.20732374345E+01  0.37404179525E+02  0.24739893771E+01  0.37543196225E+02  0.00000000000E+00 0.  1.
         14    1    3    3    0    0  0.63649503394E+01 -0.36614938798E+02  0.35159707499E+02  0.51160251831E+02  0.00000000000E+00 0. -1.
        -13    1    4    4    0    0  0.45991632805E+02 -0.42689444809E+02 -0.80412368306E+01  0.63263579380E+02  0.00000000000E+00 0. -1.
         13    1    4    4    0    0 -0.28022031100E+02  0.14741587032E+02  0.10934426856E+02  0.33497914949E+02  0.00000000000E+00 0.  1.
          1    1    1    2  501    0 -0.26407789478E+02  0.27158617050E+02  0.10144750211E+03  0.10828923081E+03  0.00000000000E+00 0. -1.
<scales pt_clust_5="13000.00000" pt_clust_6="13000.00000" pt_clust_7="13000.00000" pt_clust_8="13000.00000" pt_clust_9="37.88091"></scales>
<clustering>
<clus scale="   37.881">  2  9  1 -1</clus>
<clus scale="   79.876">  5  6 -1 -1</clus>
<clus scale="   80.550">  1  5  2 -1</clus>
<clus scale="   90.832">  7  8 -1 -1</clus>
<clus scale="   37.881">  2  5  1 -1</clus>
</clustering>
</event>
<event>
 9    2  0.6469128E-005  0.1406376E+03  0.7546771E-02  0.1215244E+00
         -1   -1    0    0    0  501 -0.00000000000E+00  0.00000000000E+00  0.15346435902E+03  0.15346435902E+03  0.00000000000E+00 0.  1.
         21   -1    0    0  501  502  0.00000000000E+00 -0.00000000000E+00 -0.36956878530E+03  0.36956878530E+03  0.00000000000E+00 0.  1.
         24    2    1    2    0    0  0.77448069314E+02 -0.73110221380E+02  0.58887993479E+02  0.14601323494E+03  0.80676893157E+02 0.  0.
         23    2    1    2    0    0 -0.95882992278E+02  0.45260117411E+02 -0.50383730370E+02  0.14994164529E+03  0.93284244484E+02 0.  0.
        -13    1    3    3    0    0  0.51355587426E+02 -0.77401324482E+01  0.54813257608E+02  0.75510259037E+02  0.00000000000E+00 0.  1.
         14    1    3    3    0    0  0.26092481888E+02 -0.65370088932E+02  0.40747358705E+01  0.70502975898E+02  0.00000000000E+00 0. -1.
        -13    1    4    4    0    0 -0.72755041238E+02  0.49131030632E+02 -0.75347849568E+02  0.11569119513E+03  0.00000000000E+00 0.  1.
         13    1    4    4    0    0 -0.23127951039E+02 -0.38709132202E+01  0.24964119198E+02  0.34250450154E+02  0.00000000000E+00 0. -1.
         -2    1    1    2    0  502  0.18434922964E+02  0.27850103969E+02 -0.22460868939E+03  0.22707826409E+03  0.00000000000E+00 0.  1.
<scales pt_clust_5="13000.00000" pt_clust_6="13000.00000" pt_clust_7="13000.00000" pt_clust_8="13000.00000" pt_clust_9="33.39872"></scales>
<clustering>
<clus scale="   33.399">  2  9  1 -1</clus>
<clus scale="   80.677">  5  6 -1 -1</clus>
<clus scale="   93.284">  7  8 -1 -1</clus>
<clus scale="  132.611">  1  5  2 -1</clus>
<clus scale="   33.399">  2  5  1 -1</clus>
</clustering>
</event>
<event>
 9    2  0.6469128E-005  0.1319427E+03  0.7546771E-02  0.1227220E+00
         -1   -1    0    0    0  501 -0.00000000000E+00  0.00000000000E+00  0.78866806644E+02  0.78866806644E+02  0.00000000000E+00 0.  1.
         21   -1    0    0  501  502  0.00000000000E+00 -0.00000000000E+00 -0.44055433855E+03  0.44055433855E+03  0.00000000000E+00 0.  1.
         23    2    1    2    0    0 -0.65180579569E+02 -0.14224424688E+02 -0.86871395763E+02  0.14255913784E+03  0.91244869276E+02 0.  0.
         24    2    1    2    0    0  0.11493387918E+03  0.55233276936E+02 -0.78347583063E+02  0.17008432690E+03  0.80807320331E+02 0.  0.
        -11    1    4    4    0    0  0.45164989022E+02 -0.33341722114E+01 -0.63184408202E+02  0.77738422788E+02  0.00000000000E+00 0.  1.
         12    1    4    4    0    0  0.69768890162E+02  0.58567449147E+02 -0.15163174861E+02  0.92345904110E+02  0.00000000000E+00 0. -1.
        -11    1    3    3    0    0 -0.33184268520E+02 -0.31352390242E+02  0.28843549129E+01  0.45743716009E+02  0.00000000000E+00 0.  1.
         11    1    3    3    0    0 -0.31996311049E+02  0.17127965554E+02 -0.89755750676E+02  0.96815421830E+02  0.00000000000E+00 0. -1.
         -2    1    1    2    0  502 -0.49753299616E+02 -0.41008852248E+02 -0.19646855308E+03  0.20677768045E+03  0.00000000000E+00 0.  1.
<scales pt_clust_5="13000.00000" pt_clust_6="13000.00000" pt_clust_7="13000.00000" pt_clust_8="13000.00000" pt_clust_9="64.47571"></scales>
<clustering>
<clus scale="   64.476">  2  9  1 -1</clus>
<clus scale="   80.807">  5  6 -1 -1</clus>
<clus scale="   91.245">  7  8 -1 -1</clus>
<clus scale="  124.952">  2  5  1 -1</clus>
<clus scale="   64.476">  2  5  1 -1</clus>
</clustering>
</event>
<event>
 9    2  0.6469128E-005  0.1995647E+03  0.7546771E-02  0.1177735E+00
          2   -1    0    0  502    0 -0.00000000000E+00  0.00000000000E+00  0.45710009576E+03  0.45710009576E+03  0.00000000000E+00 0. -1.
         21   -1    0    0  501  502  0.00000000000E+00 -0.00000000000E+00 -0.14324629292E+03  0.14324629292E+03  0.00000000000E+00 0. -1.
         24    2    1    2    0    0 -0.20335779510E+02  0.64647619076E+02  0.15227760557E+03  0.18516948124E+03  0.80662314889E+02 0.  0.
         23    2    1    2    0    0 -0.12784922057E+02 -0.21027211908E+03  0.72775521988E+02  0.24142698426E+03  0.92805677823E+02 0.  0.
        -13    1    3    3    0    0  0.19294719777E+02  0.55513130243E+02  0.58360437276E+02  0.82824721429E+02  0.00000000000E+00 0.  1.
         14    1    3    3    0    0 -0.39630499287E+02  0.91344888325E+01  0.93917168295E+02  0.10234475981E+03  0.00000000000E+00 0. -1.
        -13    1    4    4    0    0  0.17562259940E+02 -0.10368353602E+02  0.27480464300E+02  0.34221508569E+02  0.00000000000E+00 0.  1.
         13    1    4    4    0    0 -0.30347181996E+02 -0.19990376548E+03  0.45295057687E+02  0.20720547569E+03  0.00000000000E+00 0. -1.
          1    1    1    2  501    0  0.33120701567E+02  0.14562450000E+03  0.88800675287E+02  0.17374992318E+03  0.00000000000E+00 0. -1.
<scales pt_clust_5="13000.00000" pt_clust_6="13000.00000" pt_clust_7="13000.00000" pt_clust_8="13000.00000" pt_clust_9="176.67256"></scales>
<clustering>
<clus scale="   80.662">  5  6 -1 -1</clus>
<clus scale="   92.806">  7  8 -1 -1</clus>
<clus scale="  105.353">  1  5  2 -1</clus>
<clus scale="  176.673">  2  9  1 -1</clus>
<clus scale="  176.673">  2  5  1 -1</clus>
</clustering>
</event>
<event>
 9    2  0.6469128E-005  0.1040779E+03  0.7546771E-02  0.1275078E+00
          2   -1    0    0  502    0 -0.00000000000E+00  0.00000000000E+00  0.11050212432E+03  0.11050212432E+03  0.00000000000E+00 0. -1.
         21   -1    0    0  501  502  0.00000000000E+00 -0.00000000000E+00 -0.18202611196E+03  0.18202611196E+03  0.00000000000E+00 0. -1.
         24    2    1    2    0    0  0.45718001449E+02 -0.38925640625E+02  0.44887382329E+02  0.11023485374E+03  0.80817725355E+02 0.  0.
         23    2    1    2    0    0 -0.80646444197E+01  0.49231994431E+02 -0.83296137335E+02  0.13110144122E+03  0.88093777472E+02 0.  0.
        -11    1    3    3    0    0 -0.21261633849E+02 -0.12165846411E+02 -0.13939421705E+01  0.24535850660E+02  0.00000000000E+00 0.  1.
         12    1    3    3    0    0  0.66979635298E+02 -0.26759794214E+02  0.46281324500E+02  0.85699003078E+02  0.00000000000E+00 0. -1.
        -13    1    4    4    0    0 -0.20806572895E+02 -0.20284604805E+02 -0.14513282149E+02  0.32480979456E+02  0.00000000000E+00 0.  1.
         13    1    4    4    0    0  0.12741928475E+02  0.69516599236E+02 -0.68782855186E+02  0.98620461762E+02  0.00000000000E+00 0. -1.
          1    1    1    2  501    0 -0.37653357029E+02 -0.10306353806E+02 -0.33115232638E+02  0.51191941329E+02  0.00000000000E+00 0. -1.
<scales pt_clust_5="13000.00000" pt_clust_6="13000.00000" pt_clust_7="13000.00000" pt_clust_8="13000.00000" pt_clust_9="39.03839"></scales>
<clustering>
<clus scale="   39.038">  2  9  1 -1</clus>
<clus scale="   80.818">  5  6 -1 -1</clus>
<clus scale="   88.094">  7  8 -1 -1</clus>
<clus scale="   97.996">  1  5  2 -1</clus>
<clus scale="   39.038">  2  5  1 -1</clus>
</clustering>
</event>
<event>
 9    2  0.6469128E-005  0.1405944E+03  0.7546771E-02  0.1214923E+00
         21   -1    0    0  501  502  0.00000000000E+00  0.00000000000E+00  0.25362279780E+03  0.25362279780E+03  0.00000000000E+00 0.  1.
          2   -1    0    0  502    0 -0.00000000000E+00 -0.00000000000E+00 -0.12784938905E+03  0.12784938905E+03  0.00000000000E+00 0. -1.
         23    2    1    2    0    0 -0.10252367970E+03  0.40018139647E+02  0.24748000074E+02  0.14487375422E+03  0.90903161418E+02 0.  0.
         24    2    1    2    0    0  0.79605924392E+02 -0.70486314659E+02  0.13212417483E+03  0.18739816379E+03  0.79723587885E+02 0.  0.
        -11    1    4    4    0    0  0.66335186531E+02 -0.68356461077E+02  0.14181054482E+03  0.17083089113E+03  0.00000000000E+00 0.  1.
         12    1    4    4    0    0  0.13270737861E+02 -0.21298535824E+01 -0.96863699922E+01  0.16567272657E+02  0.00000000000E+00 0. -1.
        -11    1    3    3    0    0 -0.13519530658E+02  0.51249748803E+02  0.10659354736E+02  0.54064186898E+02  0.00000000000E+00 0.  1.
         11    1    3    3    0    0 -0.89004149038E+02 -0.11231609156E+02  0.14088645338E+02  0.90809567325E+02  0.00000000000E+00 0. -1.
          1    1    1    2  501    0  0.22917755304E+02  0.30468175012E+02 -0.31098766153E+02  0.49200268831E+02  0.00000000000E+00 0. -1.
<scales pt_clust_5="13000.00000" pt_clust_6="13000.00000" pt_clust_7="13000.00000" pt_clust_8="13000.00000" pt_clust_9="38.12525"></scales>
<clustering>
<clus scale="   38.125">  1  9  2 -1</clus>
<clus scale="   79.724">  5  6 -1 -1</clus>
<clus scale="   90.903">  7  8 -1 -1</clus>
<clus scale="  133.639">  1  5  2 -1</clus>
<clus scale="   38.125">  1  5  2 -1</clus>
</clustering>
</event>
<event>
 9    2  0.6469128E-005  0.9516798E+02  0.7546771E-02  0.1296193E+00
         21   -1    0    0  501  502  0.00000000000E+00  0.00000000000E+00  0.21071669027E+02  0.21071669027E+02  0.00000000000E+00 0. -1.
          2   -1    0    0  502    0 -0.00000000000E+00 -0.00000000000E+00 -0.69619267790E+03  0.69619267790E+03  0.00000000000E+00 0. -1.
         24    2    1    2    0    0  0.37139457454E+02 -0.12775988145E+02 -0.38858020103E+03  0.39918289207E+03  0.82521776008E+02 0.  0.
         23    2    1    2    0    0  0.55697369003E+01  0.93607931165E+01 -0.22276424498E+03  0.24124924280E+03  0.91970875234E+02 0.  0.
        -13    1    3    3    0    0  0.13461301549E+02  0.29046622101E+02 -0.69692788690E+02  0.76694182897E+02  0.00000000000E+00 0.  1.
         14    1    3    3    0    0  0.23678155905E+02 -0.41822610246E+02 -0.31888741234E+03  0.32248870917E+03  0.00000000000E+00 0. -1.
        -13    1    4    4    0    0 -0.30139511993E+02  0.19471887458E+02 -0.35983042129E+02  0.50816571167E+02  0.00000000000E+00 0.  1.
         13    1    4    4    0    0  0.35709248893E+02 -0.10111094342E+02 -0.18678120285E+03  0.19043267163E+03  0.00000000000E+00 0. -1.
          1    1    1    2  501    0 -0.42709194354E+02  0.34151950288E+01 -0.63776562863E+02  0.76832212060E+02  0.00000000000E+00 0. -1.
<scales pt_clust_5="13000.00000" pt_clust_6="13000.00000" pt_clust_7="13000.00000" pt_clust_8="13000.00000" pt_clust_9="42.84552"></scales>
<clustering>
<clus scale="   42.846">  1  9  2 -1</clus>
<clus scale="   82.522">  5  6 -1 -1</clus>
<clus scale="   86.071">  2  5  1 -1</clus>
<clus scale="   91.971">  7  8 -1 -1</clus>
<clus scale="   42.846">  1  5  2 -1</clus>
</clustering>
</event>
<event>
 9    2  0.6469128E-005  0.1312331E+03  0.7546771E-02  0.1228967E+00
          2   -1    0    0  502    0 -0.00000000000E+00  0.00000000000E+00  0.18804230469E+03  0.18804230469E+03  0.00000000000E+00 0. -1.
         21   -1    0    0  501  502  0.00000000000E+00 -0.00000000000E+00 -0.39630871315E+03  0.39630871315E+03  0.00000000000E+00 0. -1.
         24    2    1    2    0    0  0.60092034751E+01 -0.91163325458E+02  0.14040054759E+03  0.18543443336E+03  0.79540888085E+02 0.  0.
         23    2    1    2    0    0  0.97683571615E+01  0.11094411517E+03 -0.19323526287E+03  0.24143889618E+03  0.92460025322E+02 0.  0.
        -13    1    3    3    0    0 -0.59630199706E+01 -0.90616082900E+02  0.71724534194E+02  0.11572052926E+03  0.00000000000E+00 0.  1.
         14    1    3    3    0    0  0.11972223446E+02 -0.54724255812E+00  0.68676013399E+02  0.69713904101E+02  0.00000000000E+00 0. -1.
        -13    1    4    4    0    0  0.34124251775E+02  0.63668510888E+02 -0.47888834718E+02  0.86668819817E+02  0.00000000000E+00 0. -1.
         13    1    4    4    0    0 -0.24355894613E+02  0.47275604279E+02 -0.14534642815E+03  0.15477007636E+03  0.00000000000E+00 0.  1.
          1    1    1    2  501    0 -0.15777560637E+02 -0.19780789709E+02 -0.15543169319E+03  0.15747768829E+03  0.00000000000E+00 0. -1.
<scales pt_clust_5="13000.00000" pt_clust_6="13000.00000" pt_clust_7="13000.00000" pt_clust_8="13000.00000" pt_clust_9="25.30239"></scales>
<clustering>
<clus scale="   25.302">  2  9  1 -1</clus>
<clus scale="   79.541">  5  6 -1 -1</clus>
<clus scale="   92.460">  7  8 -1 -1</clus>
<clus scale="  122.475">  1  5  2 -1</clus>
<clus scale="   25.302">  2  5  1 -1</clus>
</clustering>
</event>
<event>
 9    2  0.6469128E-005  0.1422309E+03  0.7546771E-02  0.1239175E+00
          2   -1    0    0  502    0 -0.00000000000E+00  0.00000000000E+00  0.31029622614E+03  0.31029622614E+03  0.00000000000E+00 0. -1.
         21   -1    0    0  501  502  0.00000000000E+00 -0.00000000000E+00 -0.14948928008E+03  0.14948928008E+03  0.00000000000E+00 0. -1.
         24    2    1    2    0    0 -0.60174923868E+01  0.35603289475E+02 -0.68578040905E+02  0.10388365112E+03  0.69174134181E+02 0.  0.
         23    2    1    2    0    0 -0.99524280213E+02  0.45911626734E+01  0.19563985502E+03  0.23803161425E+03  0.91967034229E+02 0.  0.
        -13    1    3    3    0    0  0.15924146887E+02  0.37012234950E+02 -0.10288578799E+02  0.41585320052E+02  0.00000000000E+00 0.  1.
         14    1    3    3    0    0 -0.21941639274E+02 -0.14089454748E+01 -0.58289462106E+02  0.62298331069E+02  0.00000000000E+00 0. -1.
        -13    1    4    4    0    0 -0.70427142941E+02  0.21327784291E+02  0.19031365378E+03  0.20404446491E+03  0.00000000000E+00 0. -1.
         13    1    4    4    0    0 -0.29097137273E+02 -0.16736621618E+02  0.53262012378E+01  0.33987149340E+02  0.00000000000E+00 0.  1.
          1    1    1    2  501    0  0.10554177260E+03 -0.40194452149E+02  0.33745131942E+02  0.11787024085E+03  0.00000000000E+00 0. -1.
<scales pt_clust_5="13000.00000" pt_clust_6="13000.00000" pt_clust_7="13000.00000" pt_clust_8="13000.00000" pt_clust_9="108.49746"></scales>
<clustering>
<clus scale="   69.174">  5  6 -1 -1</clus>
<clus scale="   78.031">  1  5  2 -1</clus>
<clus scale="   91.967">  7  8 -1 -1</clus>
<clus scale="  108.497">  2  9  1 -1</clus>
<clus scale="  108.497">  2  5  1 -1</clus>
</clustering>
</event>
<event>
 9    2  0.6469128E-005  0.9782438E+02  0.7546771E-02  0.1290009E+00
         21   -1    0    0  501  502  0.00000000000E+00  0.00000000000E+00  0.64098323936E+02  0.64098323936E+02  0.00000000000E+00 0. -1.
          2   -1    0    0  502    0 -0.00000000000E+00 -0.00000000000E+00 -0.55885488779E+03  0.55885488779E+03  0.00000000000E+00 0. -1.
         24    2    1    2    0    0 -0.47343369567E+02  0.14635913421E+02 -0.40019816781E+03  0.41115984612E+03  0.80238649878E+02 0.  0.
         23    2    1    2    0    0 -0.21551638679E+02  0.40131203125E+02 -0.41854876040E+02  0.10920866774E+03  0.89998421476E+02 0.  0.
        -11    1    3    3    0    0 -0.25692668942E+02 -0.30831959405E+02 -0.23681083993E+03  0.24018762846E+03  0.00000000000E+00 0.  1.
         12    1    3    3    0    0 -0.21650700625E+02  0.45467872825E+02 -0.16338732788E+03  0.17097221765E+03  0.00000000000E+00 0. -1.
        -11    1    4    4    0    0  0.37281974941E+01  0.59279357622E+02 -0.35822798227E+01  0.59504406772E+02  0.00000000000E+00 0. -1.
         11    1    4    4    0    0 -0.25279836173E+02 -0.19148154497E+02 -0.38272596217E+02  0.49704260972E+02  0.00000000000E+00 0.  1.
          1    1    1    2  501    0  0.68895008245E+02 -0.54767116545E+02 -0.52703520002E+02  0.10258469787E+03  0.00000000000E+00 0. -1.
<scales pt_clust_5="13000.00000" pt_clust_6="13000.00000" pt_clust_7="13000.00000" pt_clust_8="13000.00000" pt_clust_9="88.01113"></scales>
<clustering>
<clus scale="   80.239">  5  6 -1 -1</clus>
<clus scale="   88.011">  1  9  2 -1</clus>
<clus scale="   88.928">  2  5  1 -1</clus>
<clus scale="   89.998">  7  8 -1 -1</clus>
<clus scale="   88.011">  1  5  2 -1</clus>
</clustering>
</event>
<event>
 9    2  0.6469128E-005  0.1223536E+03  0.7546771E-02  0.1242897E+00
         21   -1    0    0  501  502  0.00000000000E+00  0.00000000000E+00  0.16747869149E+03  0.16747869149E+03  0.00000000000E+00 0. -1.
          2   -1    0    0  502    0 -0.00000000000E+00 -0.00000000000E+00 -0.21600987421E+03  0.21600987421E+03  0.00000000000E+00 0. -1.
         24    2    1    2    0    0 -0.63462048698E+02 -0.59319239032E+02 -0.13564043159E+03  0.17902954987E+03  0.78147612234E+02 0.  0.
         23    2    1    2    0    0  0.61489728946E+02  0.15293896532E+02  0.10914009039E+03  0.15518956481E+03  0.90318058316E+02 0.  0.
        -13    1    3    3    0    0 -0.12337628644E+02  0.18694954464E+02 -0.37163089105E+02  0.43391400009E+02  0.00000000000E+00 0.  1.
         14    1    3    3    0    0 -0.51124420054E+02 -0.78014193496E+02 -0.98477342490E+02  0.13563814986E+03  0.00000000000E+00 0. -1.
        -13    1    4    4    0    0  0.12454311059E+02  0.49100052210E+02  0.53677092308E+02  0.73804845570E+02  0.00000000000E+00 0.  1.
         13    1    4    4    0    0  0.49035417888E+02 -0.33806155679E+02  0.55462998081E+02  0.81384719237E+02  0.00000000000E+00 0. -1.
          1    1    1    2  501    0  0.19723197523E+01  0.44025342500E+02 -0.22030841511E+02  0.49269451033E+02  0.00000000000E+00 0. -1.
<scales pt_clust_5="13000.00000" pt_clust_6="13000.00000" pt_clust_7="13000.00000" pt_clust_8="13000.00000" pt_clust_9="44.06952"></scales>
<clustering>
<clus scale="   44.070">  1  9  2 -1</clus>
<clus scale="   78.148">  5  6 -1 -1</clus>
<clus scale="   90.318">  7  8 -1 -1</clus>
<clus scale="  113.667">  2  5  1 -1</clus>
<clus scale="   44.070">  1  5  2 -1</clus>
</clustering>
</event>
<event>
 9    2  0.6469128E-005  0.1246490E+03  0.7546771E-02  0.1243270E+00
         21   -1    0    0  501  502  0.00000000000E+00  0.00000000000E+00  0.28405840694E+02  0.28405840694E+02  0.00000000000E+00 0. -1.
          2   -1    0    0  502    0 -0.00000000000E+00 -0.00000000000E+00 -0.13343920482E+04  0.13343920482E+04  0.00000000000E+00 0. -1.
         24    2    1    2    0    0  0.46481449558E+02  0.53066432362E+02 -0.42159489621E+03  0.43488610065E+03  0.80044316680E+02 0.  0.
         23    2    1    2    0    0 -0.67037199338E+02  0.52340106586E+02 -0.20179721332E+03  0.23692135424E+03  0.90422010236E+02 0.  0.
        -11    1    3    3    0    0  0.55106247302E+02  0.47729163085E+02 -0.41771129252E+03  0.42402534759E+03  0.00000000000E+00 0.  1.
         12    1    3    3    0    0 -0.86247977443E+01  0.53372692766E+01 -0.38836036927E+01  0.10860753063E+02  0.00000000000E+00 0. -1.
        -11    1    4    4    0    0 -0.21499846284E+02  0.15527149725E+02  0.28945031741E+00  0.26522057807E+02  0.00000000000E+00 0. -1.
         11    1    4    4    0    0 -0.45537353053E+02  0.36812956861E+02 -0.20208666364E+03  0.21039929643E+03  0.00000000000E+00 0.  1.
          1    1    1    2  501    0  0.20555749780E+02 -0.10540653895E+03 -0.68259409795E+03  0.69099043399E+03  0.00000000000E+00 0. -1.
<scales pt_clust_5="13000.00000" pt_clust_6="13000.00000" pt_clust_7="13000.00000" pt_clust_8="13000.00000" pt_clust_9="85.79765"></scales>
<clustering>
<clus scale="   80.044">  5  6 -1 -1</clus>
<clus scale="   90.422">  7  8 -1 -1</clus>
<clus scale="  106.694">  2  5  1 -1</clus>
<clus scale="   85.798">  1  9  2 -1</clus>
<clus scale="   85.798">  1  5  2 -1</clus>
</clustering>
</event>
<event>
 9    2  0.6469128E-005  0.1144389E+03  0.7546771E-02  0.1256118E+00
         21   -1    0    0  501  502  0.00000000000E+00  0.00000000000E+00  0.11675658455E+03  0.11675658455E+03  0.00000000000E+00 0.  1.
          2   -1    0    0  502    0 -0.00000000000E+00 -0.00000000000E+00 -0.49187894265E+03  0.49187894265E+03  0.00000000000E+00 0. -1.
         24    2    1    2    0    0  0.24033386266E+02 -0.73177995330E+02 -0.41719752268E+03  0.43193549767E+03  0.81128777630E+02 0.  0.
         23    2    1    2    0    0  0.25904159894E+02  0.19840632261E+02  0.11427004339E+02  0.97466560949E+02  0.91128908073E+02 0.  0.
        -11    1    3    3    0    0  0.44437848749E+02 -0.10098883189E+02 -0.17025715127E+03  0.17625041107E+03  0.00000000000E+00 0.  1.
         12    1    3    3    0    0 -0.20404462483E+02 -0.63079112141E+02 -0.24694037142E+03  0.25568508661E+03  0.00000000000E+00 0. -1.
        -13    1    4    4    0    0 -0.22834347194E+02  0.32667908875E+02 -0.12369838392E+02  0.41732632122E+02  0.00000000000E+00 0.  1.
         13    1    4    4    0    0  0.48738507088E+02 -0.12827276613E+02  0.23796842731E+02  0.55733928826E+02  0.00000000000E+00 0. -1.
          1    1    1    2  501    0 -0.49937546160E+02  0.53337363068E+02  0.30648160252E+02  0.79233468575E+02  0.00000000000E+00 0. -1.
<scales pt_clust_5="13000.00000" pt_clust_6="13000.00000" pt_clust_7="13000.00000" pt_clust_8="13000.00000" pt_clust_9="73.06595"></scales>
<clustering>
<clus scale="   73.066">  1  9  2 -1</clus>
<clus scale="   81.129">  5  6 -1 -1</clus>
<clus scale="   91.129">  7  8 -1 -1</clus>
<clus scale="  106.647">  2  5  1 -1</clus>
<clus scale="   73.066">  1  5  2 -1</clus>
</clustering>
</event>
<event>
 9    2  0.6469128E-005  0.3116432E+03  0.7546771E-02  0.1079561E+00
         21   -1    0    0  501  502  0.00000000000E+00  0.00000000000E+00  0.55009214935E+03  0.55009214935E+03  0.00000000000E+00 0. -1.
         -3   -1    0    0    0  501 -0.00000000000E+00 -0.00000000000E+00 -0.26371079840E+03  0.26371079840E+03  0.00000000000E+00 0.  1.
         24    2    1    2    0    0  0.94466771378E+02  0.51326662584E+02  0.12147895772E+03  0.18069377708E+03  0.79590870829E+02 0.  0.
         23    2    1    2    0    0  0.13573908748E+03  0.14966858823E+02  0.31110574009E+03  0.35245816486E+03  0.93759638009E+02 0.  0.
        -11    1    3    3    0    0  0.82109327728E+01  0.20377555821E+02  0.74582757046E+02  0.77751217655E+02  0.00000000000E+00 0.  1.
         12    1    3    3    0    0  0.86255838605E+02  0.30949106764E+02  0.46896200674E+02  0.10294255942E+03  0.00000000000E+00 0. -1.
        -11    1    4    4    0    0  0.13615208809E+03 -0.64478298118E+01  0.21947016716E+03  0.25835270441E+03  0.00000000000E+00 0. -1.
         11    1    4    4    0    0 -0.41300061113E+00  0.21414688634E+02  0.91635572939E+02  0.94105460450E+02  0.00000000000E+00 0.  1.
         -4    1    1    2    0  502 -0.23020585886E+03 -0.66293521407E+02 -0.14620334687E+03  0.28065100582E+03  0.00000000000E+00 0.  1.
<scales pt_clust_5="13000.00000" pt_clust_6="13000.00000" pt_clust_7="13000.00000" pt_clust_8="13000.00000" pt_clust_9="239.56132"></scales>
<clustering>
<clus scale="   79.591">  5  6 -1 -1</clus>
<clus scale="   93.760">  7  8 -1 -1</clus>
<clus scale="  123.290">  5  7 -1 -1</clus>
<clus scale="  239.561">  1  9  2 -1</clus>
<clus scale="  239.561">  1  5  2 -1</clus>
</clustering>
</event>
<event>
 9    2  0.6469128E-005  0.1086717E+03  0.7546771E-02  0.1267224E+00
          2   -1    0    0  502    0 -0.00000000000E+00  0.00000000000E+00  0.74410710644E+03  0.74410710644E+03  0.00000000000E+00 0. -1.
         21   -1    0    0  501  502  0.00000000000E+00 -0.00000000000E+00 -0.31853521790E+02  0.31853521790E+02  0.00000000000E+00 0.  1.
         24    2    1    2    0    0  0.60738239447E+02 -0.60062594777E+00  0.26944031038E+03  0.28780401543E+03  0.80892372691E+02 0.  0.
         23    2    1    2    0    0 -0.35209556581E+02 -0.76313335427E+02  0.28252395064E+03  0.30854553749E+03  0.91198289349E+02 0.  0.
        -11    1    3    3    0    0  0.59836420739E+02  0.26543424714E+02  0.12786063429E+03  0.14364293384E+03  0.00000000000E+00 0.  1.
         12    1    3    3    0    0  0.90181870776E+00 -0.27144050662E+02  0.14157967609E+03  0.14416108159E+03  0.00000000000E+00 0. -1.
        -13    1    4    4    0    0  0.27782150103E+02 -0.26320255233E+02  0.13738935552E+03  0.14261990993E+03  0.00000000000E+00 0. -1.
         13    1    4    4    0    0 -0.62991706683E+02 -0.49993080195E+02  0.14513459513E+03  0.16592562756E+03  0.00000000000E+00 0.  1.
          1    1    1    2  501    0 -0.25528682866E+02  0.76913961375E+02  0.16028932363E+03  0.17961107531E+03  0.00000000000E+00 0. -1.
<scales pt_clust_5="13000.00000" pt_clust_6="13000.00000" pt_clust_7="13000.00000" pt_clust_8="13000.00000" pt_clust_9="81.03994"></scales>
<clustering>
<clus scale="   80.892">  5  6 -1 -1</clus>
<clus scale="   81.040">  2  9  1 -1</clus>
<clus scale="   91.198">  7  8 -1 -1</clus>
<clus scale="  100.180">  1  5  2 -1</clus>
<clus scale="   81.040">  2  5  1 -1</clus>
</clustering>
</event>
<event>
 9    2  0.6469128E-005  0.1049409E+03  0.7546771E-02  0.1275226E+00
          2   -1    0    0  502    0 -0.00000000000E+00  0.00000000000E+00  0.29272696459E+03  0.29272696459E+03  0.00000000000E+00 0. -1.
         21   -1    0    0  501  502  0.00000000000E+00 -0.00000000000E+00 -0.51604951674E+02  0.51604951674E+02  0.00000000000E+00 0.  1.
         23    2    1    2    0    0 -0.52582964042E+02 -0.29732410116E+02  0.15369924853E+03  0.18850696903E+03  0.90897932076E+02 0.  0.
         24    2    1    2    0    0  0.23110650693E+02  0.41067493279E+02  0.82332702638E+02  0.12384041826E+03  0.79606118435E+02 0.  0.
        -11    1    4    4    0    0 -0.28189484822E+02  0.23749041635E+02  0.44522681025E+02  0.57800805866E+02  0.00000000000E+00 0.  1.
         12    1    4    4    0    0  0.51300135515E+02  0.17318451644E+02  0.37810021613E+02  0.66039612397E+02  0.00000000000E+00 0. -1.
        -11    1    3    3    0    0 -0.14076900611E+02  0.20657836286E+02  0.32132370235E+01  0.25203773983E+02  0.00000000000E+00 0.  1.
         11    1    3    3    0    0 -0.38506063431E+02 -0.50390246402E+02  0.15048601151E+03  0.16330319505E+03  0.00000000000E+00 0. -1.
          1    1    1    2  501    0  0.29472313349E+02 -0.11335083163E+02  0.50900617404E+01  0.31984528963E+02  0.00000000000E+00 0. -1.
<scales pt_clust_5="13000.00000" pt_clust_6="13000.00000" pt_clust_7="13000.00000" pt_clust_8="13000.00000" pt_clust_9="31.57691"></scales>
<clustering>
<clus scale="   31.577">  2  9  1 -1</clus>
<clus scale="   79.606">  5  6 -1 -1</clus>
<clus scale="   90.898">  7  8 -1 -1</clus>
<clus scale="   95.327">  2  5  1 -1</clus>
<clus scale="   31.577">  2  5  1 -1</clus>
</clustering>
</event>
<event>
 9    2  0.6469128E-005  0.1061680E+03  0.7546771E-02  0.1271839E+00
         -3   -1    0    0    0  501 -0.00000000000E+00  0.00000000000E+00  0.21320671298E+03  0.21320671298E+03  0.00000000000E+00 0.  1.
         21   -1    0    0  501  502  0.00000000000E+00 -0.00000000000E+00 -0.38927491252E+03  0.38927491252E+03  0.00000000000E+00 0. -1.
         23    2    1    2    0    0  0.52278093339E+02 -0.40853092795E+01  0.15665058897E+03  0.18861022197E+03  0.91020437331E+02 0.  0.
         24    2    1    2    0    0 -0.10146718610E+03 -0.52262084137E+02 -0.30199675226E+03  0.33301078824E+03  0.81653116404E+02 0.  0.
        -11    1    4    4    0    0 -0.57206932860E+02  0.11149988947E+02 -0.17362403033E+03  0.18314545948E+03  0.00000000000E+00 0.  1.
         12    1    4    4    0    0 -0.44260253241E+02 -0.63412073084E+02 -0.12837272193E+03  0.14986532877E+03  0.00000000000E+00 0. -1.
        -13    1    3    3    0    0  0.64710138948E+02 -0.30489776249E+02  0.84088056294E+02  0.11039850429E+03  0.00000000000E+00 0.  1.
         13    1    3    3    0    0 -0.12432045609E+02  0.26404466969E+02  0.72562532679E+02  0.78211717682E+02  0.00000000000E+00 0. -1.
         -4    1    1    2    0  502  0.49189092762E+02  0.56347393417E+02 -0.30722036261E+02  0.80860615282E+02  0.00000000000E+00 0.  1.
<scales pt_clust_5="13000.00000" pt_clust_6="13000.00000" pt_clust_7="13000.00000" pt_clust_8="13000.00000" pt_clust_9="74.79703"></scales>
<clustering>
<clus scale="   74.797">  2  9  1 -1</clus>
<clus scale="   81.653">  5  6 -1 -1</clus>
<clus scale="   91.020">  7  8 -1 -1</clus>
<clus scale="   98.256">  2  5  1 -1</clus>
<clus scale="   74.797">  2  5  1 -1</clus>
</clustering>
</event>
<event>
 9    2  0.6469128E-005  0.1153921E+03  0.7546771E-02  0.1252827E+00
         21   -1    0    0  501  502  0.00000000000E+00  0.00000000000E+00  0.25201942474E+03  0.25201942474E+03  0.00000000000E+00 0. -1.
          2   -1    0    0  502    0 -0.00000000000E+00 -0.00000000000E+00 -0.42857491578E+03  0.42857491578E+03  0.00000000000E+00 0. -1.
         24    2    1    2    0    0  0.76670710556E+02 -0.14648557353E+02 -0.39589919341E+03  0.41143388400E+03  0.80303745067E+02 0.  0.
         23    2    1    2    0    0 -0.57125396180E+02  0.52688857838E+01  0.87584450066E+02  0.13562956825E+03  0.86216424452E+02 0.  0.
        -11    1    3    3    0    0  0.14946984454E+02 -0.17455000257E+02 -0.19921771633E+02  0.30413259662E+02  0.00000000000E+00 0.  1.
         12    1    3    3    0    0  0.61723726102E+02  0.28064429046E+01 -0.37597742178E+03  0.38102062434E+03  0.00000000000E+00 0. -1.
        -11    1    4    4    0    0 -0.10710857916E+02  0.37128879533E+02  0.63636548676E+02  0.74450564136E+02  0.00000000000E+00 0.  1.
         11    1    4    4    0    0 -0.46414538263E+02 -0.31859993749E+02  0.23947901389E+02  0.61179004118E+02  0.00000000000E+00 0. -1.
          1    1    1    2  501    0 -0.19545314376E+02  0.93796715689E+01  0.13175925230E+03  0.13353088826E+03  0.00000000000E+00 0. -1.
<scales pt_clust_5="13000.00000" pt_clust_6="13000.00000" pt_clust_7="13000.00000" pt_clust_8="13000.00000" pt_clust_9="21.67943"></scales>
<clustering>
<clus scale="   21.679">  1  9  2 -1</clus>
<clus scale="   80.304">  5  6 -1 -1</clus>
<clus scale="   86.216">  7  8 -1 -1</clus>
<clus scale="  111.044">  2  5  1 -1</clus>
<clus scale="   21.679">  1  5  2 -1</clus>
</clustering>
</event>
<event>
 9    2  0.6469128E-005  0.1004517E+03  0.7546771E-02  0.1284684E+00
          2   -1    0    0  502    0 -0.00000000000E+00  0.00000000000E+00  0.41658666923E+03  0.41658666923E+03  0.00000000000E+00 0. -1.
         21   -1    0    0  501  502  0.00000000000E+00 -0.00000000000E+00 -0.15925313801E+03  0.15925313801E+03  0.00000000000E+00 0. -1.
         24    2    1    2    0    0 -0.89107502579E+01  0.29554950087E+02  0.25262641031E+03  0.26748456550E+03  0.82310345939E+02 0.  0.
         23    2    1    2    0    0  0.10305955103E+02 -0.56865389332E+02  0.13583928927E+03  0.17440206981E+03  0.92864870804E+02 0.  0.
        -11    1    3    3    0    0 -0.28278528440E+02  0.48969305114E+02  0.12894481131E+03  0.14079926271E+03  0.00000000000E+00 0.  1.
         12    1    3    3    0    0  0.19367778182E+02 -0.19414355028E+02  0.12368159900E+03  0.12668530279E+03  0.00000000000E+00 0. -1.
        -13    1    4    4    0    0 -0.37308448128E+02 -0.41472843741E+01  0.57312471524E+02  0.68511602387E+02  0.00000000000E+00 0.  1.
         13    1    4    4    0    0  0.47614403231E+02 -0.52718104958E+02  0.78526817750E+02  0.10589046742E+03  0.00000000000E+00 0. -1.
          1    1    1    2  501    0 -0.13952048453E+01  0.27310439245E+02 -0.13113216837E+03  0.13395317192E+03  0.00000000000E+00 0. -1.
<scales pt_clust_5="13000.00000" pt_clust_6="13000.00000" pt_clust_7="13000.00000" pt_clust_8="13000.00000" pt_clust_9="27.34605"></scales>
<clustering>
<clus scale="   27.346">  2  9  1 -1</clus>
<clus scale="   82.310">  5  6 -1 -1</clus>
<clus scale="   90.784">  1  5  2 -1</clus>
<clus scale="   92.865">  7  8 -1 -1</clus>
<clus scale="   27.346">  2  5  1 -1</clus>
</clustering>
</event>
<event>
 9    2  0.6469128E-005  0.2464789E+03  0.7546771E-02  0.1135778E+00
         21   -1    0    0  501  502  0.00000000000E+00  0.00000000000E+00  0.13852858921E+03  0.13852858921E+03  0.00000000000E+00 0. -1.
          2   -1    0    0  502    0 -0.00000000000E+00 -0.00000000000E+00 -0.12638111464E+04  0.12638111464E+04  0.00000000000E+00 0. -1.
         24    2    1    2    0    0 -0.72582170036E+02 -0.10227805054E+03 -0.47594522410E+03  0.49883913188E+03  0.81164352521E+02 0.  0.
         23    2    1    2    0    0 -0.21389065085E+03 -0.15444792106E+01 -0.60224656466E+02  0.24025137414E+03  0.91335193622E+02 0.  0.
        -13    1    3    3    0    0 -0.41077614072E+02 -0.37978514539E+02 -0.87542039000E+02  0.10389103203E+03  0.00000000000E+00 0.  1.
         14    1    3    3    0    0 -0.31504555964E+02 -0.64299536004E+02 -0.38840318510E+03  0.39494809985E+03  0.00000000000E+00 0. -1.
        -13    1    4    4    0    0 -0.13860431540E+03  0.42736062717E+02 -0.42333098568E+02  0.15109473365E+03  0.00000000000E+00 0.  1.
         13    1    4    4    0    0 -0.75286335449E+02 -0.44280541928E+02 -0.17891557899E+02  0.89156640486E+02  0.00000000000E+00 0. -1.
          1    1    1    2  501    0  0.28647282088E+03  0.10382252975E+03 -0.58911267658E+03  0.66324922955E+03  0.00000000000E+00 0. -1.
<scales pt_clust_5="13000.00000" pt_clust_6="13000.00000" pt_clust_7="13000.00000" pt_clust_8="13000.00000" pt_clust_9="228.93185"></scales>
<clustering>
<clus scale="   81.164">  5  6 -1 -1</clus>
<clus scale="   91.335">  7  8 -1 -1</clus>
<clus scale="  149.387">  2  5  1 -1</clus>
<clus scale="  228.932">  1  9  2 -1</clus>
<clus scale="  228.932">  1  5  2 -1</clus>
</clustering>
</event>
<event>
 9    2  0.6469128E-005  0.2731360E+03  0.7546771E-02  0.1099498E+00
         21   -1    0    0  501  502  0.00000000000E+00  0.00000000000E+00  0.62739806623E+02  0.62739806623E+02  0.00000000000E+00 0. -1.
          2   -1    0    0  502    0 -0.00000000000E+00 -0.00000000000E+00 -0.84409043054E+03  0.84409043054E+03  0.00000000000E+00 0. -1.
         24    2    1    2    0    0  0.79349652285E+01 -0.13870865987E+03 -0.34036477246E+03  0.37630515259E+03  0.80338866910E+02 0.  0.
         23    2    1    2    0    0  0.43757586382E+02 -0.40437213220E+02 -0.14765089389E+03  0.18294666024E+03  0.90104380838E+02 0.  0.
        -13    1    3    3    0    0 -0.31617271100E+02 -0.73525964920E+02 -0.13129035213E+03  0.15376240083E+03  0.00000000000E+00 0.  1.
         14    1    3    3    0    0  0.39552236329E+02 -0.65182694948E+02 -0.20907442033E+03  0.22254275175E+03  0.00000000000E+00 0. -1.
        -13    1    4    4    0    0  0.15445089281E+02 -0.26202518270E+02  0.15132915867E+01  0.30453452974E+02  0.00000000000E+00 0. -1.
         13    1    4    4    0    0  0.28312497101E+02 -0.14234694950E+02 -0.14916418548E+03  0.15249320726E+03  0.00000000000E+00 0.  1.
          1    1    1    2  501    0 -0.51692551610E+02  0.17914587309E+03 -0.29333495757E+03  0.34757842435E+03  0.00000000000E+00 0. -1.
<scales pt_clust_5="13000.00000" pt_clust_6="13000.00000" pt_clust_7="13000.00000" pt_clust_8="13000.00000" pt_clust_9="186.45472"></scales>
<clustering>
<clus scale="   80.339">  5  6 -1 -1</clus>
<clus scale="   90.104">  7  8 -1 -1</clus>
<clus scale="  105.905">  5  7 -1 -1</clus>
<clus scale="  186.455">  1  9  2 -1</clus>
<clus scale="  186.455">  1  5  2 -1</clus>
</clustering>
</event>
<event>
 9    2  0.6469128E-005  0.1149905E+03  0.7546771E-02  0.1253113E+00
         21   -1    0    0  501  502  0.00000000000E+00  0.00000000000E+00  0.18735336709E+03  0.18735336709E+03  0.00000000000E+00 0. -1.
         -3   -1    0    0    0  501 -0.00000000000E+00 -0.00000000000E+00 -0.22668324781E+03  0.22668324781E+03  0.00000000000E+00 0.  1.
         24    2    1    2    0    0  0.79864475111E+00 -0.55629373946E+02 -0.12202404283E+03  0.16525791008E+03  0.96566271206E+02 0.  0.
         23    2    1    2    0    0  0.68084883247E+02  0.96268071116E+02  0.77323094204E+02  0.16862078252E+03  0.92471695988E+02 0.  0.
        -11    1    3    3    0    0  0.33317308334E+02  0.66273912423E+01 -0.70145266956E+02  0.77937948559E+02  0.00000000000E+00 0.  1.
         12    1    3    3    0    0 -0.32518663583E+02 -0.62256765188E+02 -0.51878775875E+02  0.87319961516E+02  0.00000000000E+00 0. -1.
        -13    1    4    4    0    0  0.20733890501E+02 -0.16957503354E+02  0.96429218886E+01  0.28468176582E+02  0.00000000000E+00 0.  1.
         13    1    4    4    0    0  0.47350992745E+02  0.11322557447E+03  0.67680172315E+02  0.14015260594E+03  0.00000000000E+00 0. -1.
         -4    1    1    2    0  502 -0.68883527998E+02 -0.40638697170E+02  0.53710679133E+01  0.80157922301E+02  0.00000000000E+00 0.  1.
<scales pt_clust_5="13000.00000" pt_clust_6="13000.00000" pt_clust_7="13000.00000" pt_clust_8="13000.00000" pt_clust_9="79.97777"></scales>
<clustering>
<clus scale="   79.978">  1  9  2 -1</clus>
<clus scale="   92.472">  7  8 -1 -1</clus>
<clus scale="   96.566">  5  6 -1 -1</clus>
<clus scale="  111.574">  1  7  2 -1</clus>
<clus scale="   79.978">  1  5  2 -1</clus>
</clustering>
</event>
<event>
 9    2  0.6469128E-005  0.1101373E+03  0.7546771E-02  0.1264430E+00
          2   -1    0    0  502    0 -0.00000000000E+00  0.00000000000E+00  0.59215138045E+03  0.59215138045E+03  0.00000000000E+00 0. -1.
         21   -1    0    0  501  502  0.00000000000E+00 -0.00000000000E+00 -0.13192344454E+03  0.13192344454E+03  0.00000000000E+00 0.  1.
         24    2    1    2    0    0 -0.27127914480E+02 -0.55851075708E+02  0.51581574869E+03  0.52581464213E+03  0.80993116281E+02 0.  0.
         23    2    1    2    0    0  0.40378751591E+02  0.28653169516E+02 -0.10016086073E+03  0.14438934298E+03  0.91458387477E+02 0.  0.
        -13    1    3    3    0    0 -0.15090252854E+02 -0.27493863594E+02  0.50272923469E+02  0.59253650526E+02  0.00000000000E+00 0.  1.
         14    1    3    3    0    0 -0.12037661626E+02 -0.28357212114E+02  0.46554282522E+03  0.46656099161E+03  0.00000000000E+00 0. -1.
        -11    1    4    4    0    0  0.10635277315E+02  0.21840597682E+02  0.12745076243E+02  0.27432786936E+02  0.00000000000E+00 0. -1.
         11    1    4    4    0    0  0.29743474276E+02  0.68125718344E+01 -0.11290593698E+03  0.11695655604E+03  0.00000000000E+00 0.  1.
          1    1    1    2  501    0 -0.13250837110E+02  0.27197906192E+02  0.44573047950E+02  0.53870839876E+02  0.00000000000E+00 0. -1.
<scales pt_clust_5="13000.00000" pt_clust_6="13000.00000" pt_clust_7="13000.00000" pt_clust_8="13000.00000" pt_clust_9="30.25412"></scales>
<clustering>
<clus scale="   30.254">  2  9  1 -1</clus>
<clus scale="   80.993">  5  6 -1 -1</clus>
<clus scale="   91.458">  7  8 -1 -1</clus>
<clus scale="  101.614">  1  5  2 -1</clus>
<clus scale="   30.254">  2  5  1 -1</clus>
</clustering>
</event>
<event>
 9    2  0.6469128E-005  0.1481403E+03  0.7546771E-02  0.1205031E+00
          2   -1    0    0  502    0 -0.00000000000E+00  0.00000000000E+00  0.15639740102E+04  0.15639740102E+04  0.00000000000E+00 0. -1.
         21   -1    0    0  501  502  0.00000000000E+00 -0.00000000000E+00 -0.40918665416E+02  0.40918665416E+02  0.00000000000E+00 0. -1.
         24    2    1    2    0    0 -0.97244414490E+02 -0.80599651443E+02  0.10656953795E+04  0.10761662509E+04  0.80463518654E+02 0.  0.
         23    2    1    2    0    0  0.59873725162E+02  0.78612346143E+02  0.47013463972E+03  0.48918265002E+03  0.92240564225E+02 0.  0.
        -11    1    3    3    0    0 -0.76735285752E+02 -0.17490543187E+02  0.44216544143E+03  0.44911524220E+03  0.00000000000E+00 0.  1.
         12    1    3    3    0    0 -0.20509128738E+02 -0.63109108255E+02  0.62352993805E+03  0.62705100873E+03  0.00000000000E+00 0. -1.
        -13    1    4    4    0    0 -0.18331461546E+02  0.24273276189E+02  0.51141661490E+02  0.59503814662E+02  0.00000000000E+00 0. -1.
         13    1    4    4    0    0  0.78205186709E+02  0.54339069954E+02  0.41899297823E+03  0.42967883536E+03  0.00000000000E+00 0.  1.
          1    1    1    2  501    0  0.37370689327E+02  0.19873052995E+01 -0.12774674463E+02  0.39543774615E+02  0.00000000000E+00 0. -1.
<scales pt_clust_5="13000.00000" pt_clust_6="13000.00000" pt_clust_7="13000.00000" pt_clust_8="13000.00000" pt_clust_9="37.42349"></scales>
<clustering>
<clus scale="   37.423">  2  9  1 -1</clus>
<clus scale="   80.464">  5  6 -1 -1</clus>
<clus scale="   92.241">  7  8 -1 -1</clus>
<clus scale="  141.108">  1  5  2 -1</clus>
<clus scale="   37.423">  2  5  1 -1</clus>
</clustering>
</event>
<event>
 9    2  0.6469128E-005  0.9380337E+02  0.7546771E-02  0.1298551E+00
          2   -1    0    0  502    0 -0.00000000000E+00  0.00000000000E+00  0.74782493562E+03  0.74782493562E+03  0.00000000000E+00 0. -1.
         21   -1    0    0  501  502  0.00000000000E+00 -0.00000000000E+00 -0.45440782431E+02  0.45440782431E+02  0.00000000000E+00 0. -1.
         24    2    1    2    0    0  0.14430116703E+02  0.75109877018E+01  0.58776120594E+03  0.59396134109E+03  0.84036874622E+02 0.  0.
         23    2    1    2    0    0 -0.38351482081E+02 -0.27084284549E+02  0.27496050591E+02  0.10685740950E+03  0.91967812415E+02 0.  0.
        -13    1    3    3    0    0  0.42673226051E+02  0.22498789616E+02  0.24446041328E+03  0.24917482501E+03  0.00000000000E+00 0.  1.
         14    1    3    3    0    0 -0.28243109348E+02 -0.14987801914E+02  0.34330079266E+03  0.34478651608E+03  0.00000000000E+00 0. -1.
        -11    1    4    4    0    0 -0.64291788587E+02 -0.24123118603E+02 -0.37238832031E+00  0.68669480877E+02  0.00000000000E+00 0. -1.
         11    1    4    4    0    0  0.25940306507E+02 -0.29611659458E+01  0.27868438911E+02  0.38187928626E+02  0.00000000000E+00 0.  1.
          1    1    1    2  501    0  0.23921365377E+02  0.19573296847E+02  0.87126896657E+02  0.92446967457E+02  0.00000000000E+00 0. -1.
<scales pt_clust_5="13000.00000" pt_clust_6="13000.00000" pt_clust_7="13000.00000" pt_clust_8="13000.00000" pt_clust_9="30.90868"></scales>
<clustering>
<clus scale="   30.909">  2  9  1 -1</clus>
<clus scale="   84.037">  5  6 -1 -1</clus>
<clus scale="   86.042">  1  5  2 -1</clus>
<clus scale="   91.968">  7  8 -1 -1</clus>
<clus scale="   30.909">  2  5  1 -1</clus>
</clustering>
</event>
<event>
 9    2  0.6469128E-005  0.1526272E+03  0.7546771E-02  0.1216583E+00
         21   -1    0    0  501  502  0.00000000000E+00  0.00000000000E+00  0.12504042965E+03  0.12504042965E+03  0.00000000000E+00 0. -1.
          2   -1    0    0  502    0 -0.00000000000E+00 -0.00000000000E+00 -0.12909006024E+04  0.12909006024E+04  0.00000000000E+00 0. -1.
         24    2    1    2    0    0  0.20703828443E+02  0.55570975200E+02 -0.10684076537E+04  0.10731571357E+04  0.81575374012E+02 0.  0.
         23    2    1    2    0    0 -0.12929056975E+03 -0.92478298797E+02 -0.12873848759E+03  0.22390562775E+03  0.91059567199E+02 0.  0.
        -13    1    3    3    0    0  0.34202768932E+02  0.18876892959E+01 -0.19414162032E+03  0.19714046138E+03  0.00000000000E+00 0.  1.
         14    1    3    3    0    0 -0.13498940489E+02  0.53683285905E+02 -0.87426603335E+03  0.87601667430E+03  0.00000000000E+00 0. -1.
        -11    1    4    4    0    0 -0.22945175078E+02  0.83026701381E+01  0.57014174553E+01  0.25058362911E+02  0.00000000000E+00 0.  1.
         11    1    4    4    0    0 -0.10634539468E+03 -0.10078096893E+03 -0.13443990504E+03  0.19884726484E+03  0.00000000000E+00 0. -1.
          1    1    1    2  501    0  0.10858674131E+03  0.36907323596E+02  0.31285968509E+02  0.11887826862E+03  0.00000000000E+00 0. -1.
<scales pt_clust_5="13000.00000" pt_clust_6="13000.00000" pt_clust_7="13000.00000" pt_clust_8="13000.00000" pt_clust_9="122.48763"></scales>
<clustering>
<clus scale="   81.575">  5  6 -1 -1</clus>
<clus scale="   91.060">  7  8 -1 -1</clus>
<clus scale="  100.853">  2  5  1 -1</clus>
<clus scale="  122.488">  1  9  2 -1</clus>
<clus scale="  122.488">  1  5  2 -1</clus>
</clustering>
</event>
<event>
 9    2  0.6469128E-005  0.1604833E+03  0.7546771E-02  0.1205152E+00
         21   -1    0    0  501  502  0.00000000000E+00  0.00000000000E+00  0.73230214025E+02  0.73230214025E+02  0.00000000000E+00 0. -1.
          2   -1    0    0  502    0 -0.00000000000E+00 -0.00000000000E+00 -0.75087681823E+03  0.75087681823E+03  0.00000000000E+00 0. -1.
         23    2    1    2    0    0 -0.32050826550E+01  0.42841038349E+02 -0.41733858506E+02  0.11830613307E+03  0.10202450222E+03 0.  0.
         24    2    1    2    0    0  0.14095166939E+03 -0.30193399955E+02 -0.39413825944E+03  0.42725290131E+03  0.80131514515E+02 0.  0.
        -11    1    4    4    0    0  0.62845470981E+02  0.14774099783E+02 -0.24162171455E+03  0.25009774128E+03  0.00000000000E+00 0.  1.
         12    1    4    4    0    0  0.78106198411E+02 -0.44967499738E+02 -0.15251654489E+03  0.17715516004E+03  0.00000000000E+00 0. -1.
        -11    1    3    3    0    0  0.24951578723E+02  0.48769489862E+02  0.13149070818E+02  0.56337753643E+02  0.00000000000E+00 0. -1.
         11    1    3    3    0    0 -0.28156661378E+02 -0.59284515134E+01 -0.54882929324E+02  0.61968379424E+02  0.00000000000E+00 0.  1.
          1    1    1    2  501    0 -0.13774658674E+03 -0.12647638394E+02 -0.24177448625E+03  0.27854799787E+03  0.00000000000E+00 0. -1.
<scales pt_clust_5="13000.00000" pt_clust_6="13000.00000" pt_clust_7="13000.00000" pt_clust_8="13000.00000" pt_clust_9="139.04611"></scales>
<clustering>
<clus scale="   80.132">  5  6 -1 -1</clus>
<clus scale="  102.025">  7  8 -1 -1</clus>
<clus scale="  110.701">  2  7  1 -1</clus>
<clus scale="  139.046">  1  9  2 -1</clus>
<clus scale="  139.046">  1  5  2 -1</clus>
</clustering>
</event>
<event>
 9    2  0.6469128E-005  0.1523935E+03  0.7546771E-02  0.1199455E+00
          2   -1    0    0  502    0 -0.00000000000E+00  0.00000000000E+00  0.10563938904E+03  0.10563938904E+03  0.00000000000E+00 0. -1.
         21   -1    0    0  501  502  0.00000000000E+00 -0.00000000000E+00 -0.38236227455E+03  0.38236227455E+03  0.00000000000E+00 0. -1.
         24    2    1    2    0    0 -0.13458952198E+03  0.66003907974E+02 -0.69634631478E+02  0.18392507843E+03  0.80675877938E+02 0.  0.
         23    2    1    2    0    0  0.69329713398E+02 -0.29594828252E+02 -0.19532112446E+03  0.22842654193E+03  0.91355790062E+02 0.  0.
        -11    1    3    3    0    0 -0.76326652298E+02 -0.71710750809E+01 -0.29540567415E+02  0.82157332552E+02  0.00000000000E+00 0.  1.
         12    1    3    3    0    0 -0.58262869681E+02  0.73174983055E+02 -0.40094064063E+02  0.10176774588E+03  0.00000000000E+00 0. -1.
        -13    1    4    4    0    0  0.26100184424E+02  0.13292099717E+02 -0.14917346674E+03  0.15202178371E+03  0.00000000000E+00 0. -1.
         13    1    4    4    0    0  0.43229528974E+02 -0.42886927969E+02 -0.46147657718E+02  0.76404758221E+02  0.00000000000E+00 0.  1.
          1    1    1    2  501    0  0.65259808581E+02 -0.36409079723E+02 -0.11767129567E+02  0.75650043229E+02  0.00000000000E+00 0. -1.
<scales pt_clust_5="13000.00000" pt_clust_6="13000.00000" pt_clust_7="13000.00000" pt_clust_8="13000.00000" pt_clust_9="74.72931"></scales>
<clustering>
<clus scale="   74.729">  2  9  1 -1</clus>
<clus scale="   80.676">  5  6 -1 -1</clus>
<clus scale="   91.356">  7  8 -1 -1</clus>
<clus scale="  146.241">  1  5  2 -1</clus>
<clus scale="   74.729">  2  5  1 -1</clus>
</clustering>
</event>
<event>
 9    2  0.6469128E-005  0.9803819E+02  0.7546771E-02  0.1293100E+00
         21   -1    0    0  501  502  0.00000000000E+00  0.00000000000E+00  0.22838251971E+03  0.22838251971E+03  0.00000000000E+00 0. -1.
          2   -1    0    0  502    0 -0.00000000000E+00 -0.00000000000E+00 -0.23590797214E+03  0.23590797214E+03  0.00000000000E+00 0. -1.
         24    2    1    2    0    0  0.19201328661E+02 -0.23010837605E+02 -0.18132552841E+03  0.20060145347E+03  0.80397799782E+02 0.  0.
         23    2    1    2    0    0  0.17144908816E+02 -0.24670448666E+02  0.24897357839E+02  0.10316934018E+03  0.95506310740E+02 0.  0.
        -13    1    3    3    0    0  0.38288130807E+02 -0.33101082127E+02 -0.16746296195E+03  0.17494429463E+03  0.00000000000E+00 0.  1.
         14    1    3    3    0    0 -0.19086802146E+02  0.10090244522E+02 -0.13862566461E+02  0.25657158836E+02  0.00000000000E+00 0. -1.
        -13    1    4    4    0    0 -0.28902137895E+02 -0.41388584610E+02  0.18505022895E+02  0.53766015132E+02  0.00000000000E+00 0. -1.
         13    1    4    4    0    0  0.46047046711E+02  0.16718135943E+02  0.63923349445E+01  0.49403325052E+02  0.00000000000E+00 0.  1.
          1    1    1    2  501    0 -0.36346237477E+02  0.47681286271E+02  0.14890271815E+03  0.16051969820E+03  0.00000000000E+00 0. -1.
<scales pt_clust_5="13000.00000" pt_clust_6="13000.00000" pt_clust_7="13000.00000" pt_clust_8="13000.00000" pt_clust_9="59.95460"></scales>
<clustering>
<clus scale="   59.955">  1  9  2 -1</clus>
<clus scale="   80.398">  5  6 -1 -1</clus>
<clus scale="   83.390">  2  5  1 -1</clus>
<clus scale="   95.506">  7  8 -1 -1</clus>
<clus scale="   59.955">  1  5  2 -1</clus>
</clustering>
</event>
<event>
 9    2  0.6469128E-005  0.9805752E+02  0.7546771E-02  0.1291502E+00
         21   -1    0    0  501  502  0.00000000000E+00  0.00000000000E+00  0.36837085366E+02  0.36837085366E+02  0.00000000000E+00 0. -1.
          2   -1    0    0  502    0 -0.00000000000E+00 -0.00000000000E+00 -0.41501274975E+03  0.41501274975E+03  0.00000000000E+00 0. -1.
         23    2    1    2    0    0 -0.69594187788E+01 -0.19274863503E+02 -0.28530874532E+03  0.30119200294E+03  0.94316428073E+02 0.  0.
         24    2    1    2    0    0  0.61435352646E+01  0.43075725180E+02 -0.84984119681E+02  0.12557227441E+03  0.81564908979E+02 0.  0.
        -13    1    4    4    0    0 -0.58111717746E+01 -0.20983143566E+02 -0.48858762643E+01  0.22314430716E+02  0.00000000000E+00 0.  1.
         14    1    4    4    0    0  0.11954707039E+02  0.64058868747E+02 -0.80098243416E+02  0.10325784369E+03  0.00000000000E+00 0. -1.
        -13    1    3    3    0    0 -0.43077527057E+02 -0.93478335543E+01 -0.70532216742E+02  0.83173607160E+02  0.00000000000E+00 0. -1.
         13    1    3    3    0    0  0.36118108278E+02 -0.99270299482E+01 -0.21477652858E+03  0.21801839578E+03  0.00000000000E+00 0.  1.
          1    1    1    2  501    0  0.81588351416E+00 -0.23800861678E+02 -0.78827993829E+01  0.25085557770E+02  0.00000000000E+00 0. -1.
<scales pt_clust_5="13000.00000" pt_clust_6="13000.00000" pt_clust_7="13000.00000" pt_clust_8="13000.00000" pt_clust_9="23.81484"></scales>
<clustering>
<clus scale="   23.815">  1  9  2 -1</clus>
<clus scale="   81.565">  5  6 -1 -1</clus>
<clus scale="   85.863">  1  5  2 -1</clus>
<clus scale="   94.316">  7  8 -1 -1</clus>
<clus scale="   23.815">  1  5  2 -1</clus>
</clustering>
</event>
<event>
 9    2  0.6469128E-005  0.1007744E+03  0.7546771E-02  0.1279862E+00
         21   -1    0    0  501  502  0.00000000000E+00  0.00000000000E+00  0.11154910095E+03  0.11154910095E+03  0.00000000000E+00 0.  1.
          2   -1    0    0  502    0 -0.00000000000E+00 -0.00000000000E+00 -0.21466922989E+03  0.21466922989E+03  0.00000000000E+00 0. -1.
         24    2    1    2    0    0  0.50474570590E+00  0.27255852719E+02 -0.13318304903E+03  0.16544297854E+03  0.94289545144E+02 0.  0.
         23    2    1    2    0    0 -0.17578048930E+01 -0.63644365284E+02 -0.26696243042E+01  0.11181502686E+03  0.91879150122E+02 0.  0.
        -11    1    3    3    0    0 -0.35771604578E+02  0.12788846600E+01 -0.14446168362E+02  0.38599676429E+02  0.00000000000E+00 0.  1.
         12    1    3    3    0    0  0.36276350284E+02  0.25976968059E+02 -0.11873688067E+03  0.12684330211E+03  0.00000000000E+00 0. -1.
        -11    1    4    4    0    0  0.14982667303E+02  0.19035172079E+02 -0.11835910888E+02  0.26961210695E+02  0.00000000000E+00 0. -1.
         11    1    4    4    0    0 -0.16740472196E+02 -0.82679537363E+02  0.91662865836E+01  0.84853816165E+02  0.00000000000E+00 0.  1.
          1    1    1    2  501    0  0.12530591871E+01  0.36388512565E+02  0.32732544395E+02  0.48960325434E+02  0.00000000000E+00 0. -1.
<scales pt_clust_5="13000.00000" pt_clust_6="13000.00000" pt_clust_7="13000.00000" pt_clust_8="13000.00000" pt_clust_9="36.41008"></scales>
<clustering>
<clus scale="   36.410">  1  9  2 -1</clus>
<clus scale="   91.879">  7  8 -1 -1</clus>
<clus scale="   94.290">  5  6 -1 -1</clus>
<clus scale="   98.523">  1  7  2 -1</clus>
<clus scale="   36.410">  1  5  2 -1</clus>
</clustering>
</event>
<event>
 9    2  0.6469128E-005  0.1041048E+03  0.7546771E-02  0.1273748E+00
         21   -1    0    0  501  502  0.00000000000E+00  0.00000000000E+00  0.33473043881E+03  0.33473043881E+03  0.00000000000E+00 0.  1.
         -1   -1    0    0    0  501 -0.00000000000E+00 -0.00000000000E+00 -0.89622567118E+02  0.89622567118E+02  0.00000000000E+00 0.  1.
         23    2    1    2    0    0 -0.30872731013E+02 -0.33255530621E+02  0.51486603187E+02  0.11404854751E+03  0.91088665838E+02 0.  0.
         24    2    1    2    0    0 -0.64779858354E+02  0.63940932473E+02  0.46066978930E+02  0.13180157298E+03  0.83454270098E+02 0.  0.
        -11    1    4    4    0    0 -0.36053889634E+02  0.50961181464E+02 -0.13990754350E+02  0.63973949239E+02  0.00000000000E+00 0.  1.
         12    1    4    4    0    0 -0.28725968720E+02  0.12979751009E+02  0.60057733280E+02  0.67827623738E+02  0.00000000000E+00 0. -1.
        -13    1    3    3    0    0 -0.57047016800E+02 -0.45376797181E+02  0.35687859061E+02  0.81160576221E+02  0.00000000000E+00 0.  1.
         13    1    3    3    0    0  0.26174285787E+02  0.12121266560E+02  0.15798744127E+02  0.32887971288E+02  0.00000000000E+00 0. -1.
         -2    1    1    2    0  502  0.95652589367E+02 -0.30685401852E+02  0.14755428957E+03  0.17850288544E+03  0.00000000000E+00 0.  1.
<scales pt_clust_5="13000.00000" pt_clust_6="13000.00000" pt_clust_7="13000.00000" pt_clust_8="13000.00000" pt_clust_9="100.45403"></scales>
<clustering>
<clus scale="   83.454">  5  6 -1 -1</clus>
<clus scale="   91.089">  7  8 -1 -1</clus>
<clus scale="  100.454">  1  9  2 -1</clus>
<clus scale="  100.454">  1  5  2 -1</clus>
<clus scale="  100.454">  1  5  2 -1</clus>
</clustering>
</event>
<event>
 9    2  0.6469128E-005  0.1166488E+03  0.7546771E-02  0.1251559E+00
         21   -1    0    0  501  502  0.00000000000E+00  0.00000000000E+00  0.17909635997E+03  0.17909635997E+03  0.00000000000E+00 0. -1.
          2   -1    0    0  502    0 -0.00000000000E+00 -0.00000000000E+00 -0.18308503191E+03  0.18308503191E+03  0.00000000000E+00 0. -1.
         24    2    1    2    0    0  0.32787446266E+02 -0.70144564928E+02 -0.10686860691E+03  0.15558869189E+03  0.82411560348E+02 0.  0.
         23    2    1    2    0    0 -0.56805198517E+02  0.38768369402E+02  0.21211556712E+02  0.11586760932E+03  0.90805042303E+02 0.  0.
        -11    1    3    3    0    0  0.17068163921E+02  0.14619012783E+02 -0.67418872864E+01  0.23462540327E+02  0.00000000000E+00 0.  1.
         12    1    3    3    0    0  0.15719282345E+02 -0.84763577711E+02 -0.10012671962E+03  0.13212615156E+03  0.00000000000E+00 0. -1.
        -11    1    4    4    0    0  0.93571819079E+01 -0.22102750357E+02  0.40987918493E+01  0.24349302273E+02  0.00000000000E+00 0.  1.
         11    1    4    4    0    0 -0.66162380425E+02  0.60871119758E+02  0.17112764863E+02  0.91518307050E+02  0.00000000000E+00 0. -1.
          1    1    1    2  501    0  0.24017752251E+02  0.31376195526E+02  0.81668378261E+02  0.90725090668E+02  0.00000000000E+00 0. -1.
<scales pt_clust_5="13000.00000" pt_clust_6="13000.00000" pt_clust_7="13000.00000" pt_clust_8="13000.00000" pt_clust_9="39.51352"></scales>
<clustering>
<clus scale="   39.514">  1  9  2 -1</clus>
<clus scale="   82.412">  5  6 -1 -1</clus>
<clus scale="   90.805">  7  8 -1 -1</clus>
<clus scale="  110.241">  2  5  1 -1</clus>
<clus scale="   39.514">  1  5  2 -1</clus>
</clustering>
</event>
<event>
 9    2  0.6469128E-005  0.9474204E+02  0.7546771E-02  0.1299426E+00
          2   -1    0    0  502    0 -0.00000000000E+00  0.00000000000E+00  0.40242366859E+02  0.40242366859E+02  0.00000000000E+00 0. -1.
         21   -1    0    0  501  502  0.00000000000E+00 -0.00000000000E+00 -0.32885722781E+03  0.32885722781E+03  0.00000000000E+00 0.  1.
         24    2    1    2    0    0 -0.11216052896E+02 -0.12708062809E+01 -0.97949492569E+02  0.12828503141E+03  0.82070283280E+02 0.  0.
         23    2    1    2    0    0 -0.17400101785E+02 -0.13110445562E+02 -0.18405675138E+03  0.20811320958E+03  0.94655020737E+02 0.  0.
        -11    1    3    3    0    0  0.18137113996E+02 -0.22493809183E+02 -0.60733131492E+01  0.29526454041E+02  0.00000000000E+00 0.  1.
         12    1    3    3    0    0 -0.29353166892E+02  0.21223002902E+02 -0.91876179419E+02  0.98758577367E+02  0.00000000000E+00 0. -1.
        -13    1    4    4    0    0 -0.36856908137E+02  0.29400990842E+02 -0.65777136900E+02  0.80928868018E+02  0.00000000000E+00 0. -1.
         13    1    4    4    0    0  0.19456806352E+02 -0.42511436405E+02 -0.11827961448E+03  0.12718434157E+03  0.00000000000E+00 0.  1.
          1    1    1    2  501    0  0.28616154681E+02  0.14381251843E+02 -0.66086170000E+01  0.32701353672E+02  0.00000000000E+00 0. -1.
<scales pt_clust_5="13000.00000" pt_clust_6="13000.00000" pt_clust_7="13000.00000" pt_clust_8="13000.00000" pt_clust_9="32.02664"></scales>
<clustering>
<clus scale="   32.027">  2  9  1 -1</clus>
<clus scale="   82.070">  5  6 -1 -1</clus>
<clus scale="   82.171">  1  5  2 -1</clus>
<clus scale="   94.655">  7  8 -1 -1</clus>
<clus scale="   32.027">  2  5  1 -1</clus>
</clustering>
</event>
<event>
 9    2  0.6469128E-005  0.9962790E+02  0.7546771E-02  0.1285483E+00
         21   -1    0    0  501  502  0.00000000000E+00  0.00000000000E+00  0.11516630246E+02  0.11516630246E+02  0.00000000000E+00 0. -1.
          2   -1    0    0  502    0 -0.00000000000E+00 -0.00000000000E+00 -0.10889617706E+04  0.10889617706E+04  0.00000000000E+00 0. -1.
         24    2    1    2    0    0 -0.27544613518E+01  0.52383549819E+02 -0.53729379590E+03  0.54587282117E+03  0.80875771613E+02 0.  0.
         23    2    1    2    0    0 -0.16642318859E+02 -0.30118923564E+02 -0.40404399082E+03  0.41533189093E+03  0.89804881639E+02 0.  0.
        -11    1    3    3    0    0 -0.28798741300E+02  0.52326555041E+02 -0.23545640795E+03  0.24291388578E+03  0.00000000000E+00 0.  1.
         12    1    3    3    0    0  0.26044279948E+02  0.56994777518E-01 -0.30183738795E+03  0.30295893539E+03  0.00000000000E+00 0. -1.
        -11    1    4    4    0    0 -0.43577116712E+02  0.12819052139E+02 -0.18355283754E+03  0.18908976008E+03  0.00000000000E+00 0. -1.
         11    1    4    4    0    0  0.26934797854E+02 -0.42937975703E+02 -0.22049115328E+03  0.22624213084E+03  0.00000000000E+00 0.  1.
          1    1    1    2  501    0  0.19396780210E+02 -0.22264626255E+02 -0.13610735363E+03  0.13927368875E+03  0.00000000000E+00 0. -1.
<scales pt_clust_5="13000.00000" pt_clust_6="13000.00000" pt_clust_7="13000.00000" pt_clust_8="13000.00000" pt_clust_9="29.52878"></scales>
<clustering>
<clus scale="   29.529">  1  9  2 -1</clus>
<clus scale="   80.876">  5  6 -1 -1</clus>
<clus scale="   89.805">  7  8 -1 -1</clus>
<clus scale="   91.661">  2  5  1 -1</clus>
<clus scale="   29.529">  1  5  2 -1</clus>
</clustering>
</event>
<event>
 9    2  0.6469128E-005  0.2046398E+03  0.7546771E-02  0.1161328E+00
          2   -1    0    0  502    0 -0.00000000000E+00  0.00000000000E+00  0.16069069631E+04  0.16069069631E+04  0.00000000000E+00 0. -1.
         21   -1    0    0  501  502  0.00000000000E+00 -0.00000000000E+00 -0.63680663113E+02  0.63680663113E+02  0.00000000000E+00 0. -1.
         23    2    1    2    0    0  0.30825142846E+02 -0.10729633145E+03  0.12613118324E+03  0.19011791348E+03  0.88164921979E+02 0.  0.
         24    2    1    2    0    0 -0.15543154506E+03 -0.81663769205E+02  0.50591775466E+03  0.54159972157E+03  0.80929274871E+02 0.  0.
        -13    1    4    4    0    0 -0.12606055849E+03 -0.42118969279E+02  0.27433340162E+03  0.30483452433E+03  0.00000000000E+00 0.  1.
         14    1    4    4    0    0 -0.29370986565E+02 -0.39544799926E+02  0.23158435304E+03  0.23676519724E+03  0.00000000000E+00 0. -1.
        -13    1    3    3    0    0 -0.14314434245E+02 -0.49503185917E+02  0.99586531574E+02  0.11212914748E+03  0.00000000000E+00 0.  1.
         13    1    3    3    0    0  0.45139577091E+02 -0.57793145534E+02  0.26544651667E+02  0.77988766004E+02  0.00000000000E+00 0. -1.
          1    1    1    2  501    0  0.12460640221E+03  0.18896010066E+03  0.91117736211E+03  0.93886999118E+03  0.00000000000E+00 0. -1.
<scales pt_clust_5="13000.00000" pt_clust_6="13000.00000" pt_clust_7="13000.00000" pt_clust_8="13000.00000" pt_clust_9="187.95732"></scales>
<clustering>
<clus scale="   80.929">  5  6 -1 -1</clus>
<clus scale="   88.165">  7  8 -1 -1</clus>
<clus scale="  142.252">  1  7  2 -1</clus>
<clus scale="  187.957">  2  9  1 -1</clus>
<clus scale="  187.957">  2  5  1 -1</clus>
</clustering>
</event>
<event>
 9    2  0.6469128E-005  0.1010073E+03  0.7546771E-02  0.1283309E+00
          2   -1    0    0  502    0 -0.00000000000E+00  0.00000000000E+00  0.82253913135E+02  0.82253913135E+02  0.00000000000E+00 0. -1.
         21   -1    0    0  501  502  0.00000000000E+00 -0.00000000000E+00 -0.33050597263E+03  0.33050597263E+03  0.00000000000E+00 0. -1.
         24    2    1    2    0    0 -0.36324697237E+02 -0.71115980332E-01  0.26285658599E+02  0.93133340263E+02  0.81629617993E+02 0.  0.
         23    2    1    2    0    0  0.66991617467E+02 -0.14926992961E+02 -0.14113736651E+03  0.18192739129E+03  0.92016995962E+02 0.  0.
        -13    1    3    3    0    0 -0.15144465955E+02 -0.18942127580E+02 -0.24808044096E+02  0.34692911354E+02  0.00000000000E+00 0.  1.
         14    1    3    3    0    0 -0.21180231282E+02  0.18871011600E+02  0.51093702695E+02  0.58440428909E+02  0.00000000000E+00 0. -1.
        -13    1    4    4    0    0  0.37812787283E+02  0.15497159469E+02 -0.13281391779E+03  0.13895864706E+03  0.00000000000E+00 0. -1.
         13    1    4    4    0    0  0.29178830183E+02 -0.30424152430E+02 -0.83234487188E+01  0.42968744228E+02  0.00000000000E+00 0.  1.
          1    1    1    2  501    0 -0.30666920230E+02  0.14998108941E+02 -0.13340035159E+03  0.13769915422E+03  0.00000000000E+00 0. -1.
<scales pt_clust_5="13000.00000" pt_clust_6="13000.00000" pt_clust_7="13000.00000" pt_clust_8="13000.00000" pt_clust_9="34.13800"></scales>
<clustering>
<clus scale="   34.138">  2  9  1 -1</clus>
<clus scale="   81.630">  5  6 -1 -1</clus>
<clus scale="   91.645">  1  5  2 -1</clus>
<clus scale="   92.017">  7  8 -1 -1</clus>
<clus scale="   34.138">  2  5  1 -1</clus>
</clustering>
</event>
<event>
 9    2  0.6469128E-005  0.1763797E+03  0.7546771E-02  0.1172505E+00
         21   -1    0    0  501  502  0.00000000000E+00  0.00000000000E+00  0.79350714457E+02  0.79350714457E+02  0.00000000000E+00 0. -1.
          2   -1    0    0  502    0 -0.00000000000E+00 -0.00000000000E+00 -0.72593829144E+03  0.72593829144E+03  0.00000000000E+00 0. -1.
         23    2    1    2    0    0 -0.13919412137E+03 -0.83991755192E+02 -0.41994754020E+03  0.46072806744E+03  0.97389923706E+02 0.  0.
         24    2    1    2    0    0  0.12777578613E+03 -0.47698242766E+01 -0.86035235996E+02  0.17789148603E+03  0.88847713674E+02 0.  0.
        -11    1    4    4    0    0  0.67617730354E+02 -0.42956877417E+02 -0.66213341716E+02  0.10393102230E+03  0.00000000000E+00 0.  1.
         12    1    4    4    0    0  0.60158055771E+02  0.38187053141E+02 -0.19821894280E+02  0.73960463726E+02  0.00000000000E+00 0. -1.
        -13    1    3    3    0    0 -0.98838413118E+02 -0.10242823294E+03 -0.28312437945E+03  0.31689113123E+03  0.00000000000E+00 0. -1.
         13    1    3    3    0    0 -0.40355708256E+02  0.18436477751E+02 -0.13682316075E+03  0.14383693621E+03  0.00000000000E+00 0.  1.
          1    1    1    2  501    0  0.11418335249E+02  0.88761579468E+02 -0.14060480079E+03  0.16666945243E+03  0.00000000000E+00 0. -1.
<scales pt_clust_5="13000.00000" pt_clust_6="13000.00000" pt_clust_7="13000.00000" pt_clust_8="13000.00000" pt_clust_9="89.49304"></scales>
<clustering>
<clus scale="   88.848">  5  6 -1 -1</clus>
<clus scale="   89.493">  1  9  2 -1</clus>
<clus scale="   97.390">  7  8 -1 -1</clus>
<clus scale="  171.811">  1  5  2 -1</clus>
<clus scale="   89.493">  1  5  2 -1</clus>
</clustering>
</event>
<event>
 9    2  0.6469128E-005  0.1286678E+03  0.7546771E-02  0.1231537E+00
          2   -1    0    0  502    0 -0.00000000000E+00  0.00000000000E+00  0.99767427231E+03  0.99767427231E+03  0.00000000000E+00 0. -1.
         21   -1    0    0  501  502  0.00000000000E+00 -0.00000000000E+00 -0.50357022395E+02  0.50357022395E+02  0.00000000000E+00 0. -1.
         24    2    1    2    0    0 -0.49380557154E+02 -0.10053041079E+03  0.80277026928E+03  0.81451309533E+03  0.80291184472E+02 0.  0.
         23    2    1    2    0    0 -0.67719742268E+01  0.31610132132E+02  0.81801142734E+02  0.12470573793E+03  0.88402681137E+02 0.  0.
        -13    1    3    3    0    0 -0.32029287373E+02 -0.10846527031E+03  0.57974656086E+03  0.59067475394E+03  0.00000000000E+00 0.  1.
         14    1    3    3    0    0 -0.17351269782E+02  0.79348595160E+01  0.22302370842E+03  0.22383834139E+03  0.00000000000E+00 0. -1.
        -13    1    4    4    0    0  0.91249753133E+01  0.59556325648E+02  0.64229106220E+02  0.88065879800E+02  0.00000000000E+00 0.  1.
         13    1    4    4    0    0 -0.15896949540E+02 -0.27946193516E+02  0.17572036513E+02  0.36639858132E+02  0.00000000000E+00 0. -1.
          1    1    1    2  501    0  0.56152531381E+02  0.68920278662E+02  0.62745837899E+02  0.10881246144E+03  0.00000000000E+00 0. -1.
<scales pt_clust_5="13000.00000" pt_clust_6="13000.00000" pt_clust_7="13000.00000" pt_clust_8="13000.00000" pt_clust_9="88.89945"></scales>
<clustering>
<clus scale="   80.291">  5  6 -1 -1</clus>
<clus scale="   88.403">  7  8 -1 -1</clus>
<clus scale="   88.899">  2  9  1 -1</clus>
<clus scale="  123.236">  1  5  2 -1</clus>
<clus scale="   88.899">  2  5  1 -1</clus>
</clustering>
</event>
<event>
 9    2  0.6469128E-005  0.1343094E+03  0.7546771E-02  0.1238479E+00
         21   -1    0    0  501  502  0.00000000000E+00  0.00000000000E+00  0.46471297228E+02  0.46471297228E+02  0.00000000000E+00 0. -1.
          2   -1    0    0  502    0 -0.00000000000E+00 -0.00000000000E+00 -0.83294334181E+03  0.83294334181E+03  0.00000000000E+00 0. -1.
         24    2    1    2    0    0  0.23602078017E+02 -0.44190189586E+02 -0.12704199682E+03  0.15803149655E+03  0.79526435869E+02 0.  0.
         23    2    1    2    0    0  0.76611005755E+02  0.50043125628E+02 -0.57702499033E+03  0.59150815448E+03  0.92468896038E+02 0.  0.
        -13    1    3    3    0    0 -0.41678581417E+01 -0.30112740121E+02 -0.12292258706E+03  0.12662586848E+03  0.00000000000E+00 0.  1.
         14    1    3    3    0    0  0.27769936159E+02 -0.14077449465E+02 -0.41194097680E+01  0.31405628071E+02  0.00000000000E+00 0. -1.
        -11    1    4    4    0    0  0.67324774085E+02  0.69303281687E+02 -0.54143884295E+03  0.54999235514E+03  0.00000000000E+00 0. -1.
         11    1    4    4    0    0  0.92862316697E+01 -0.19260156059E+02 -0.35586147380E+02  0.41515799346E+02  0.00000000000E+00 0.  1.
          1    1    1    2  501    0 -0.10021308377E+03 -0.58529360421E+01 -0.82405057435E+02  0.12987498801E+03  0.00000000000E+00 0. -1.
<scales pt_clust_5="13000.00000" pt_clust_6="13000.00000" pt_clust_7="13000.00000" pt_clust_8="13000.00000" pt_clust_9="97.40904"></scales>
<clustering>
<clus scale="   79.526">  5  6 -1 -1</clus>
<clus scale="   92.469">  7  8 -1 -1</clus>
<clus scale="   93.991">  2  5  1 -1</clus>
<clus scale="   97.409">  1  9  2 -1</clus>
<clus scale="   97.409">  1  5  2 -1</clus>
</clustering>
</event>
<event>
 9    2  0.6469128E-005  0.1091522E+03  0.7546771E-02  0.1265597E+00
          2   -1    0    0  502    0 -0.00000000000E+00  0.00000000000E+00  0.15220558254E+03  0.15220558254E+03  0.00000000000E+00 0. -1.
         21   -1    0    0  501  502  0.00000000000E+00 -0.00000000000E+00 -0.31782003649E+03  0.31782003649E+03  0.00000000000E+00 0.  1.
         23    2    1    2    0    0 -0.59490839489E+02  0.10274838527E+02  0.10121910735E+03  0.14787598750E+03  0.89315551257E+02 0.  0.
         24    2    1    2    0    0  0.90651256838E+02  0.33035782256E+02 -0.20543567572E+03  0.24080787204E+03  0.80471119683E+02 0.  0.
        -13    1    4    4    0    0  0.56076573536E+02  0.44594874276E+02 -0.68577416238E+02  0.99177350888E+02  0.00000000000E+00 0.  1.
         14    1    4    4    0    0  0.34574683302E+02 -0.11559092020E+02 -0.13685825948E+03  0.14163052115E+03  0.00000000000E+00 0. -1.
        -13    1    3    3    0    0  0.17668956521E+02 -0.18377375498E+02  0.23397966654E+02  0.34603248378E+02  0.00000000000E+00 0.  1.
         13    1    3    3    0    0 -0.77159796011E+02  0.28652214025E+02  0.77821140699E+02  0.11327273912E+03  0.00000000000E+00 0. -1.
          1    1    1    2  501    0 -0.31160417348E+02 -0.43310620783E+02 -0.61397885586E+02  0.81341759486E+02  0.00000000000E+00 0. -1.
<scales pt_clust_5="13000.00000" pt_clust_6="13000.00000" pt_clust_7="13000.00000" pt_clust_8="13000.00000" pt_clust_9="53.35524"></scales>
<clustering>
<clus scale="   53.355">  2  9  1 -1</clus>
<clus scale="   80.471">  5  6 -1 -1</clus>
<clus scale="   89.316">  7  8 -1 -1</clus>
<clus scale="  102.042">  2  5  1 -1</clus>
<clus scale="   53.355">  2  5  1 -1</clus>
</clustering>
</event>
<event>
 9    2  0.6640594E-005  0.1568131E+03  0.7546771E-02  0.1196251E+00
         21   -1    0    0  501  502  0.00000000000E+00  0.00000000000E+00  0.86676155605E+02  0.86676155605E+02  0.00000000000E+00 0.  1.
          2   -1    0    0  502    0 -0.00000000000E+00 -0.00000000000E+00 -0.89675930753E+03  0.89675930753E+03  0.00000000000E+00 0. -1.
         23    2    1    2    0    0 -0.91435089156E+02  0.85267562911E+02 -0.80411964272E+03  0.81986985350E+03  0.99735871532E+02 0.  0.
         24    2    1    2    0    0  0.54498832457E+02 -0.78474359396E+02 -0.16904679137E+02  0.12444855616E+03  0.77931554144E+02 0.  0.
        -11    1    4    4    0    0  0.66305847508E+02 -0.86520942184E+02 -0.15081325702E+02  0.11004446935E+03  0.00000000000E+00 0.  1.
         12    1    4    4    0    0 -0.11807015050E+02  0.80465827879E+01 -0.18233534357E+01  0.14404086806E+02  0.00000000000E+00 0. -1.
        -11    1    3    3    0    0  0.62143551401E+01  0.51310333278E+02 -0.18112233868E+03  0.18835251546E+03  0.00000000000E+00 0.  1.
         11    1    3    3    0    0 -0.97649444296E+02  0.33957229632E+02 -0.62299730404E+03  0.63151733805E+03  0.00000000000E+00 0. -1.
          1    1    1    2  501    0  0.36936256698E+02 -0.67932035145E+01  0.10941169929E+02  0.39117053471E+02  0.00000000000E+00 0. -1.
<scales pt_clust_5="13000.00000" pt_clust_6="13000.00000" pt_clust_7="13000.00000" pt_clust_8="13000.00000" pt_clust_9="37.55575"></scales>
<clustering>
<clus scale="   37.556">  1  9  2 -1</clus>
<clus scale="   77.932">  5  6 -1 -1</clus>
<clus scale="   99.736">  7  8 -1 -1</clus>
<clus scale="  143.932">  1  5  2 -1</clus>
<clus scale="   37.556">  1  5  2 -1</clus>
</clustering>
</event>
<event>
 9    2  0.6469128E-005  0.1484738E+03  0.7546771E-02  0.1204415E+00
         21   -1    0    0  501  502  0.00000000000E+00  0.00000000000E+00  0.15505300808E+03  0.15505300808E+03  0.00000000000E+00 0. -1.
          2   -1    0    0  502    0 -0.00000000000E+00 -0.00000000000E+00 -0.11315300685E+04  0.11315300685E+04  0.00000000000E+00 0. -1.
         24    2    1    2    0    0  0.10483934874E+03  0.48306994207E+02 -0.83286733558E+03  0.84475923532E+03  0.81396021136E+02 0.  0.
         23    2    1    2    0    0 -0.11990748814E+03 -0.23776149739E+02 -0.27098079288E+03  0.31123976821E+03  0.92176418849E+02 0.  0.
        -13    1    3    3    0    0  0.49594726827E+01  0.38614571966E+02 -0.17466207402E+03  0.17894837702E+03  0.00000000000E+00 0.  1.
         14    1    3    3    0    0  0.99879876057E+02  0.96924222410E+01 -0.65820526156E+03  0.66581085830E+03  0.00000000000E+00 0. -1.
        -11    1    4    4    0    0 -0.14868979830E+02  0.22537645566E+02 -0.11160795073E+03  0.11482755199E+03  0.00000000000E+00 0. -1.
         11    1    4    4    0    0 -0.10503850831E+03 -0.46313795305E+02 -0.15937284215E+03  0.19641221622E+03  0.00000000000E+00 0.  1.
          1    1    1    2  501    0  0.15068139404E+02 -0.24530844468E+02  0.12737106805E+03  0.13058407304E+03  0.00000000000E+00 0. -1.
<scales pt_clust_5="13000.00000" pt_clust_6="13000.00000" pt_clust_7="13000.00000" pt_clust_8="13000.00000" pt_clust_9="28.78908"></scales>
<clustering>
<clus scale="   28.789">  1  9  2 -1</clus>
<clus scale="   81.396">  5  6 -1 -1</clus>
<clus scale="   92.176">  7  8 -1 -1</clus>
<clus scale="  142.033">  2  5  1 -1</clus>
<clus scale="   28.789">  1  5  2 -1</clus>
</clustering>
</event>
<event>
 9    2  0.6469128E-005  0.1405511E+03  0.7546771E-02  0.1215071E+00
          2   -1    0    0  502    0 -0.00000000000E+00  0.00000000000E+00  0.56549040819E+03  0.56549040819E+03  0.00000000000E+00 0. -1.
         21   -1    0    0  501  502  0.00000000000E+00 -0.00000000000E+00 -0.53814926902E+02  0.53814926902E+02  0.00000000000E+00 0. -1.
         24    2    1    2    0    0 -0.63013070811E+02 -0.70595109338E+02  0.26407871676E+03  0.29166216719E+03  0.79843187357E+02 0.  0.
         23    2    1    2    0    0  0.98613329513E+02  0.96084553829E+02  0.16153826814E+03  0.23108668185E+03  0.91376212496E+02 0.  0.
        -13    1    3    3    0    0 -0.19919115038E+02 -0.70849889342E+02  0.11545984116E+03  0.13692133831E+03  0.00000000000E+00 0.  1.
         14    1    3    3    0    0 -0.43093955773E+02  0.25478000468E+00  0.14861887561E+03  0.15474082888E+03  0.00000000000E+00 0. -1.
        -11    1    4    4    0    0  0.46086134908E+02 -0.94966456802E+01  0.52108800057E+02  0.70210007501E+02  0.00000000000E+00 0.  1.
         11    1    4    4    0    0  0.52527194605E+02  0.10558119951E+03  0.10942946809E+03  0.16087667435E+03  0.00000000000E+00 0. -1.
          1    1    1    2  501    0 -0.35600258702E+02 -0.25489444491E+02  0.86058496382E+02  0.96556486056E+02  0.00000000000E+00 0. -1.
<scales pt_clust_5="13000.00000" pt_clust_6="13000.00000" pt_clust_7="13000.00000" pt_clust_8="13000.00000" pt_clust_9="43.78461"></scales>
<clustering>
<clus scale="   43.785">  2  9  1 -1</clus>
<clus scale="   79.843">  5  6 -1 -1</clus>
<clus scale="   91.376">  7  8 -1 -1</clus>
<clus scale="  133.341">  1  5  2 -1</clus>
<clus scale="   43.785">  2  5  1 -1</clus>
</clustering>
</event>
<event>
 9    2  0.6469128E-005  0.1481893E+03  0.7546771E-02  0.1215607E+00
          2   -1    0    0  502    0 -0.00000000000E+00  0.00000000000E+00  0.16393272575E+03  0.16393272575E+03  0.00000000000E+00 0. -1.
         21   -1    0    0  501  502  0.00000000000E+00 -0.00000000000E+00 -0.68480263228E+03  0.68480263228E+03  0.00000000000E+00 0.  1.
         23    2    1    2    0    0 -0.70841081890E+02  0.11094711752E+00 -0.31720679453E+03  0.33656028919E+03  0.87373946758E+02 0.  0.
         24    2    1    2    0    0  0.14362712652E+03  0.96649938853E+02  0.77585620766E+02  0.20597035459E+03  0.80214065281E+02 0.  0.
        -13    1    4    4    0    0  0.28562019939E+02 -0.12434451281E+02  0.48416496439E+01  0.31525325263E+02  0.00000000000E+00 0.  1.
         14    1    4    4    0    0  0.11506510658E+03  0.10908439013E+03  0.72743971122E+02  0.17444502933E+03  0.00000000000E+00 0. -1.
        -13    1    3    3    0    0 -0.77121185450E+02 -0.26763433186E+02 -0.19735336608E+03  0.21357038584E+03  0.00000000000E+00 0. -1.
         13    1    3    3    0    0  0.62801035595E+01  0.26874380304E+02 -0.11985342844E+03  0.12298990335E+03  0.00000000000E+00 0.  1.
          1    1    1    2  501    0 -0.72786044631E+02 -0.96760885970E+02 -0.28124873277E+03  0.30620471425E+03  0.00000000000E+00 0. -1.
<scales pt_clust_5="13000.00000" pt_clust_6="13000.00000" pt_clust_7="13000.00000" pt_clust_8="13000.00000" pt_clust_9="124.60245"></scales>
<clustering>
<clus scale="   80.214">  5  6 -1 -1</clus>
<clus scale="   87.374">  7  8 -1 -1</clus>
<clus scale="  112.484">  1  7  2 -1</clus>
<clus scale="  124.602">  2  9  1 -1</clus>
<clus scale="  124.602">  2  5  1 -1</clus>
</clustering>
</event>
<event>
 9    2  0.6469128E-005  0.1235564E+03  0.7546771E-02  0.1240885E+00
          2   -1    0    0  502    0 -0.00000000000E+00  0.00000000000E+00  0.37888417637E+03  0.37888417637E+03  0.00000000000E+00 0. -1.
         21   -1    0    0  501  502  0.00000000000E+00 -0.00000000000E+00 -0.13125896609E+03  0.13125896609E+03  0.00000000000E+00 0.  1.
         24    2    1    2    0    0 -0.69852970629E+01 -0.64090356759E+02  0.68672268514E+02  0.12378207060E+03  0.80310350111E+02 0.  0.
         23    2    1    2    0    0  0.55185598062E+02  0.13591307121E+03 -0.15095440869E+02  0.17390743895E+03  0.92185203954E+02 0.  0.
        -13    1    3    3    0    0  0.22218558047E+02  0.92169260572E+01  0.17117508640E+02  0.29523298422E+02  0.00000000000E+00 0.  1.
         14    1    3    3    0    0 -0.29203855110E+02 -0.73307282816E+02  0.51554759875E+02  0.94258772180E+02  0.00000000000E+00 0. -1.
        -11    1    4    4    0    0  0.94650365271E+01  0.44794865261E+02  0.37511682120E+02  0.59188623617E+02  0.00000000000E+00 0. -1.
         11    1    4    4    0    0  0.45720561535E+02  0.91118205952E+02 -0.52607122988E+02  0.11471881534E+03  0.00000000000E+00 0.  1.
          1    1    1    2  501    0 -0.48200300999E+02 -0.71822714454E+02  0.19404838263E+03  0.21245363290E+03  0.00000000000E+00 0. -1.
<scales pt_clust_5="13000.00000" pt_clust_6="13000.00000" pt_clust_7="13000.00000" pt_clust_8="13000.00000" pt_clust_9="86.49728"></scales>
<clustering>
<clus scale="   80.310">  5  6 -1 -1</clus>
<clus scale="   86.497">  2  9  1 -1</clus>
<clus scale="   92.185">  7  8 -1 -1</clus>
<clus scale="  114.969">  1  5  2 -1</clus>
<clus scale="   86.497">  2  5  1 -1</clus>
</clustering>
</event>
<event>
 9    2  0.6469128E-005  0.9356717E+02  0.7546771E-02  0.1301315E+00
         21   -1    0    0  501  502  0.00000000000E+00  0.00000000000E+00  0.25631243569E+03  0.25631243569E+03  0.00000000000E+00 0.  1.
          4   -1    0    0  502    0 -0.00000000000E+00 -0.00000000000E+00 -0.67511775135E+02  0.67511775135E+02  0.00000000000E+00 0. -1.
         23    2    1    2    0    0  0.30249791074E+02  0.10517777073E+02  0.16554827018E+02  0.98538229708E+02  0.91706307972E+02 0.  0.
         24    2    1    2    0    0  0.20106520391E+02 -0.13511189970E+01  0.14585712393E+03  0.16769996095E+03  0.80267543971E+02 0.  0.
        -13    1    4    4    0    0  0.50673740963E+02  0.44618017525E+00  0.75061862985E+02  0.90566607394E+02  0.00000000000E+00 0.  1.
         14    1    4    4    0    0 -0.30567220573E+02 -0.17972991722E+01  0.70795260949E+02  0.77133353556E+02  0.00000000000E+00 0. -1.
        -13    1    3    3    0    0  0.61250361447E+02  0.16376960575E+02  0.20749991591E+02  0.66711121757E+02  0.00000000000E+00 0. -1.
         13    1    3    3    0    0 -0.31000570372E+02 -0.58591835023E+01 -0.41951645732E+01  0.31827107951E+02  0.00000000000E+00 0.  1.
          3    1    1    2  501    0 -0.50356311465E+02 -0.91666580762E+01  0.26388709607E+02  0.57586020173E+02  0.00000000000E+00 0. -1.
<scales pt_clust_5="13000.00000" pt_clust_6="13000.00000" pt_clust_7="13000.00000" pt_clust_8="13000.00000" pt_clust_9="51.18387"></scales>
<clustering>
<clus scale="   51.184">  1  9  2 -1</clus>
<clus scale="   80.268">  5  6 -1 -1</clus>
<clus scale="   82.387">  1  5  2 -1</clus>
<clus scale="   91.706">  7  8 -1 -1</clus>
<clus scale="   51.184">  1  5  2 -1</clus>
</clustering>
</event>
<event>
 9    2  0.6469128E-005  0.4607190E+03  0.7546771E-02  0.1048941E+00
          2   -1    0    0  502    0 -0.00000000000E+00  0.00000000000E+00  0.11867247160E+04  0.11867247160E+04  0.00000000000E+00 0. -1.
         21   -1    0    0  501  502  0.00000000000E+00 -0.00000000000E+00 -0.93070772519E+03  0.93070772519E+03  0.00000000000E+00 0. -1.
         23    2    1    2    0    0  0.77673083934E+02  0.18555253714E+03  0.59815316281E+02  0.23348497827E+03  0.10234505854E+03 0.  0.
         24    2    1    2    0    0 -0.35899601811E+03  0.17812504773E+03  0.93120853986E+03  0.10169762574E+04  0.80527571445E+02 0.  0.
        -13    1    4    4    0    0 -0.12461624963E+03  0.79895358061E+02  0.25876444266E+03  0.29811325818E+03  0.00000000000E+00 0.  1.
         14    1    4    4    0    0 -0.23437976848E+03  0.98229689672E+02  0.67244409720E+03  0.71886299923E+03  0.00000000000E+00 0. -1.
        -13    1    3    3    0    0  0.66339898198E+02  0.55010640970E+02  0.55254091610E+02  0.10237268851E+03  0.00000000000E+00 0.  1.
         13    1    3    3    0    0  0.11333185736E+02  0.13054189617E+03  0.45612246709E+01  0.13111228976E+03  0.00000000000E+00 0. -1.
          1    1    1    2  501    0  0.28132293418E+03 -0.36367758488E+03 -0.73500686535E+03  0.86697120549E+03  0.00000000000E+00 0. -1.
<scales pt_clust_5="13000.00000" pt_clust_6="13000.00000" pt_clust_7="13000.00000" pt_clust_8="13000.00000" pt_clust_9="453.62682"></scales>
<clustering>
<clus scale="   80.528">  5  6 -1 -1</clus>
<clus scale="  102.345">  7  8 -1 -1</clus>
<clus scale="  225.693">  1  7  2 -1</clus>
<clus scale="  453.627">  2  9  1 -1</clus>
<clus scale="  453.627">  2  5  1 -1</clus>
</clustering>
</event>
<event>
 9    2  0.6469128E-005  0.9631220E+02  0.7546771E-02  0.1295662E+00
         21   -1    0    0  501  502  0.00000000000E+00  0.00000000000E+00  0.45984548479E+02  0.45984548479E+02  0.00000000000E+00 0.  1.
          2   -1    0    0  502    0 -0.00000000000E+00 -0.00000000000E+00 -0.39999378685E+03  0.39999378685E+03  0.00000000000E+00 0. -1.
         23    2    1    2    0    0  0.36743085399E+02  0.40965946596E+02 -0.25483090513E+03  0.27593511713E+03  0.90405395565E+02 0.  0.
         24    2    1    2    0    0 -0.65796423439E+01  0.43450311003E+01 -0.82463665740E+02  0.11310203709E+03  0.77004179360E+02 0.  0.
        -11    1    4    4    0    0  0.27284114487E+02 -0.10451129750E+02 -0.85138182518E+01  0.30432451719E+02  0.00000000000E+00 0.  1.
         12    1    4    4    0    0 -0.33863756831E+02  0.14796160851E+02 -0.73949847489E+02  0.82669585376E+02  0.00000000000E+00 0. -1.
        -11    1    3    3    0    0  0.98280027944E+01  0.64266095509E+02 -0.11995462770E+03  0.13643985260E+03  0.00000000000E+00 0.  1.
         11    1    3    3    0    0  0.26915082604E+02 -0.23300148913E+02 -0.13487627743E+03  0.13949526453E+03  0.00000000000E+00 0. -1.
          1    1    1    2  501    0 -0.30163443055E+02 -0.45310977696E+02 -0.16714667501E+02  0.56941181111E+02  0.00000000000E+00 0. -1.
<scales pt_clust_5="13000.00000" pt_clust_6="13000.00000" pt_clust_7="13000.00000" pt_clust_8="13000.00000" pt_clust_9="54.43269"></scales>
<clustering>
<clus scale="   54.433">  1  9  2 -1</clus>
<clus scale="   77.004">  5  6 -1 -1</clus>
<clus scale="   83.860">  1  5  2 -1</clus>
<clus scale="   90.405">  7  8 -1 -1</clus>
<clus scale="   54.433">  1  5  2 -1</clus>
</clustering>
</event>
<event>
 9    2  0.6469128E-005  0.9235551E+02  0.7546771E-02  0.1304079E+00
         21   -1    0    0  501  502  0.00000000000E+00  0.00000000000E+00  0.10428009746E+03  0.10428009746E+03  0.00000000000E+00 0.  1.
         -3   -1    0    0    0  501 -0.00000000000E+00 -0.00000000000E+00 -0.23584719471E+03  0.23584719471E+03  0.00000000000E+00 0.  1.
         24    2    1    2    0    0 -0.15955906313E+02 -0.12971362993E+02 -0.14896235720E+03  0.16995287919E+03  0.79191856127E+02 0.  0.
         23    2    1    2    0    0 -0.15867306005E+02  0.29985593934E+02 -0.38258075311E+02  0.10384572671E+03  0.90384442171E+02 0.  0.
        -13    1    3    3    0    0 -0.29909805312E+02 -0.29911610656E+02 -0.13999201201E+03  0.14624316850E+03  0.00000000000E+00 0.  1.
         14    1    3    3    0    0  0.13953899000E+02  0.16940247662E+02 -0.89703451936E+01  0.23709710691E+02  0.00000000000E+00 0. -1.
        -11    1    4    4    0    0  0.34131806559E+02  0.11623008813E+02  0.34127211819E+01  0.36217692068E+02  0.00000000000E+00 0. -1.
         11    1    4    4    0    0 -0.49999112564E+02  0.18362585120E+02 -0.41670796493E+02  0.67628034644E+02  0.00000000000E+00 0.  1.
         -4    1    1    2    0  502  0.31823212317E+02 -0.17014230940E+02  0.55653335263E+02  0.66328686272E+02  0.00000000000E+00 0.  1.
<scales pt_clust_5="13000.00000" pt_clust_6="13000.00000" pt_clust_7="13000.00000" pt_clust_8="13000.00000" pt_clust_9="36.08602"></scales>
<clustering>
<clus scale="   36.086">  1  9  2 -1</clus>
<clus scale="   79.192">  5  6 -1 -1</clus>
<clus scale="   81.434">  2  5  1 -1</clus>
<clus scale="   90.384">  7  8 -1 -1</clus>
<clus scale="   36.086">  1  5  2 -1</clus>
</clustering>
</event>
<event>
 9    2  0.6469128E-005  0.1056214E+03  0.7546771E-02  0.1274602E+00
         21   -1    0    0  501  502  0.00000000000E+00  0.00000000000E+00  0.15627498146E+03  0.15627498146E+03  0.00000000000E+00 0.  1.
          2   -1    0    0  502    0 -0.00000000000E+00 -0.00000000000E+00 -0.15573308894E+03  0.15573308894E+03  0.00000000000E+00 0. -1.
         24    2    1    2    0    0  0.92455368689E+01 -0.63611921982E+02  0.23590822025E+02  0.10584503317E+03  0.80713614669E+02 0.  0.
         23    2    1    2    0    0 -0.23168908236E+02  0.24741124912E+02  0.58130201916E+02  0.11508696730E+03  0.93364704776E+02 0.  0.
        -11    1    3    3    0    0 -0.23995784398E+02 -0.43290089771E+02 -0.14276607740E+02  0.51513600824E+02  0.00000000000E+00 0.  1.
         12    1    3    3    0    0  0.33241321267E+02 -0.20321832210E+02  0.37867429764E+02  0.54331432347E+02  0.00000000000E+00 0. -1.
        -13    1    4    4    0    0  0.24244541191E+02 -0.17503647303E+02  0.14019248554E+01  0.29935611565E+02  0.00000000000E+00 0. -1.
         13    1    4    4    0    0 -0.47413449427E+02  0.42244772215E+02  0.56728277060E+02  0.85151355740E+02  0.00000000000E+00 0.  1.
          1    1    1    2  501    0  0.13923371367E+02  0.38870797069E+02 -0.81179131422E+02  0.91076069927E+02  0.00000000000E+00 0. -1.
<scales pt_clust_5="13000.00000" pt_clust_6="13000.00000" pt_clust_7="13000.00000" pt_clust_8="13000.00000" pt_clust_9="41.28923"></scales>
<clustering>
<clus scale="   41.289">  1  9  2 -1</clus>
<clus scale="   80.714">  5  6 -1 -1</clus>
<clus scale="   93.365">  7  8 -1 -1</clus>
<clus scale="   94.623">  2  5  1 -1</clus>
<clus scale="   41.289">  1  5  2 -1</clus>
</clustering>
</event>
<event>
 9    2  0.6469128E-005  0.1001015E+03  0.7546771E-02  0.1285298E+00
         21   -1    0    0  501  502  0.00000000000E+00  0.00000000000E+00  0.68746126174E+02  0.68746126174E+02  0.00000000000E+00 0. -1.
         -3   -1    0    0    0  501 -0.00000000000E+00 -0.00000000000E+00 -0.21881677935E+03  0.21881677935E+03  0.00000000000E+00 0.  1.
         24    2    1    2    0    0  0.34368976267E+02  0.35109664005E+02 -0.11982953053E+03  0.15226340175E+03  0.80069420440E+02 0.  0.
         23    2    1    2    0    0 -0.15360098181E+02 -0.27481441042E+02 -0.48839866370E+02  0.10763290840E+03  0.90599934914E+02 0.  0.
        -13    1    3    3    0    0  0.43663143085E+02 -0.55825440089E+01 -0.30173704343E+02  0.53367474134E+02  0.00000000000E+00 0.  1.
         14    1    3    3    0    0 -0.92941668184E+01  0.40692208014E+02 -0.89655826187E+02  0.98895927617E+02  0.00000000000E+00 0. -1.
        -11    1    4    4    0    0 -0.32334022544E+02 -0.23507061557E+01 -0.65462220699E+02  0.73050100425E+02  0.00000000000E+00 0.  1.
         11    1    4    4    0    0  0.16973924363E+02 -0.25130734887E+02  0.16622354329E+02  0.34582807978E+02  0.00000000000E+00 0. -1.
         -4    1    1    2    0  502 -0.19008878086E+02 -0.76282229626E+01  0.18598743720E+02  0.27666595374E+02  0.00000000000E+00 0.  1.
<scales pt_clust_5="13000.00000" pt_clust_6="13000.00000" pt_clust_7="13000.00000" pt_clust_8="13000.00000" pt_clust_9="20.48236"></scales>
<clustering>
<clus scale="   20.482">  1  9  2 -1</clus>
<clus scale="   80.069">  5  6 -1 -1</clus>
<clus scale="   90.600">  7  8 -1 -1</clus>
<clus scale="   90.681">  2  5  1 -1</clus>
<clus scale="   20.482">  1  5  2 -1</clus>
</clustering>
</event>
<event>
 9    2  0.6469128E-005  0.1407814E+03  0.7546771E-02  0.1216183E+00
         21   -1    0    0  501  502  0.00000000000E+00  0.00000000000E+00  0.78850638056E+03  0.78850638056E+03  0.00000000000E+00 0.  1.
         -3   -1    0    0    0  501 -0.00000000000E+00 -0.00000000000E+00 -0.72658321715E+02  0.72658321715E+02  0.00000000000E+00 0.  1.
         23    2    1    2    0    0  0.42255443414E+02  0.97496883718E+02  0.57643855907E+02  0.15497643150E+03  0.96972755785E+02 0.  0.
         24    2    1    2    0    0  0.35835775337E+02 -0.10706966943E+03  0.21217904706E+03  0.25327733433E+03  0.79883309698E+02 0.  0.
        -13    1    4    4    0    0  0.47037665346E+02 -0.10844854058E+03  0.15466373660E+03  0.19466509531E+03  0.00000000000E+00 0.  1.
         14    1    4    4    0    0 -0.11201890010E+02  0.13788711408E+01  0.57515310465E+02  0.58612239023E+02  0.00000000000E+00 0. -1.
        -13    1    3    3    0    0  0.30486335118E+02  0.45317295956E+02 -0.22128792110E+02  0.58930105905E+02  0.00000000000E+00 0.  1.
         13    1    3    3    0    0  0.11769108296E+02  0.52179587762E+02  0.79772648017E+02  0.96046325597E+02  0.00000000000E+00 0. -1.
         -4    1    1    2    0  502 -0.78091218750E+02  0.95727857169E+01  0.44602515587E+03  0.45291093644E+03  0.00000000000E+00 0.  1.
<scales pt_clust_5="13000.00000" pt_clust_6="13000.00000" pt_clust_7="13000.00000" pt_clust_8="13000.00000" pt_clust_9="78.67577"></scales>
<clustering>
<clus scale="   78.676">  1  9  2 -1</clus>
<clus scale="   79.883">  5  6 -1 -1</clus>
<clus scale="   96.973">  7  8 -1 -1</clus>
<clus scale="  129.603">  1  5  2 -1</clus>
<clus scale="   78.676">  1  5  2 -1</clus>
</clustering>
</event>
