<event>
 9    1  0.7586638E-005  0.1225047E+03  0.7546771E-02  0.1259952E+00
          1   -1    0    0  502    0 -0.00000000000E+00  0.00000000000E+00  0.58539988315E+03  0.58539988315E+03  0.00000000000E+00 0. -1.
         21   -1    0    0  501  502  0.00000000000E+00 -0.00000000000E+00 -0.35985867140E+02  0.35985867140E+02  0.00000000000E+00 0.  1.
        -24    2    1    2    0    0  0.79378456354E+01 -0.25802799440E+01  0.19646236503E+03  0.21235636777E+03  0.80175425292E+02 0.  0.
         23    2    1    2    0    0  0.24329893855E+01 -0.79977839221E+02  0.18060169338E+03  0.21764520046E+03  0.91378812795E+02 0.  0.
         11    1    3    3    0    0  0.23774917055E+02 -0.34775123313E+02  0.13228623223E+03  0.13883156384E+03  0.00000000000E+00 0. -1.
        -12    1    3    3    0    0 -0.15837071420E+02  0.32194843369E+02  0.64176132808E+02  0.73524803930E+02  0.00000000000E+00 0.  1.
        -13    1    4    4    0    0 -0.21919711386E+02  0.80122208146E+01  0.72419345942E+02  0.76086996894E+02  0.00000000000E+00 0. -1.
         13    1    4    4    0    0  0.24352700771E+02 -0.87990060035E+02  0.10818234744E+03  0.14155820357E+03  0.00000000000E+00 0.  1.
          2    1    1    2  501    0 -0.10370835021E+02  0.82558119165E+02  0.17234995759E+03  0.19138418206E+03  0.00000000000E+00 0. -1.
<scales pt_clust_5="13000.00000" pt_clust_6="13000.00000" pt_clust_7="13000.00000" pt_clust_8="13000.00000" pt_clust_9="81.59235"></scales>
<clustering>
<clus scale="   80.175">  5  6 -1 -1</clus>
<clus scale="   80.609">  1  5  2 -1</clus>
<clus scale="   81.592">  2  9  1 -1</clus>
<clus scale="   91.379">  7  8 -1 -1</clus>
<clus scale="   81.592">  2  5  1 -1</clus>
</clustering>
</event>
<event>
 9    1  0.7586638E-005  0.9894584E+02  0.7546771E-02  0.1289665E+00
          1   -1    0    0  502    0 -0.00000000000E+00  0.00000000000E+00  0.42164939748E+03  0.42164939748E+03  0.00000000000E+00 0. -1.
         21   -1    0    0  501  502  0.00000000000E+00 -0.00000000000E+00 -0.42202725227E+02  0.42202725227E+02  0.00000000000E+00 0. -1.
         23    2    1    2    0    0 -0.25427520716E+02  0.12541229284E+02  0.10519586532E+03  0.14366477166E+03  0.93645903773E+02 0.  0.
        -24    2    1    2    0    0  0.27016190413E+02  0.46478809678E+02  0.11446523745E+03  0.14984265026E+03  0.80376457745E+02 0.  0.
         13    1    4    4    0    0 -0.10625035507E+02  0.54132010291E+02  0.48230361866E+02  0.73275737618E+02  0.00000000000E+00 0. -1.
        -14    1    4    4    0    0  0.37641225920E+02 -0.76532006129E+01  0.66234875579E+02  0.76566912641E+02  0.00000000000E+00 0.  1.
        -13    1    3    3    0    0 -0.50508758067E+02  0.32999518622E+02  0.88866444322E+02  0.10741204680E+03  0.00000000000E+00 0.  1.
         13    1    3    3    0    0  0.25081237351E+02 -0.20458289337E+02  0.16329420996E+02  0.36252724859E+02  0.00000000000E+00 0. -1.
          2    1    1    2  501    0 -0.15886696966E+01 -0.59020038962E+02  0.15978556949E+03  0.17034470079E+03  0.00000000000E+00 0. -1.
<scales pt_clust_5="13000.00000" pt_clust_6="13000.00000" pt_clust_7="13000.00000" pt_clust_8="13000.00000" pt_clust_9="59.04145"></scales>
<clustering>
<clus scale="   59.041">  2  9  1 -1</clus>
<clus scale="   80.376">  5  6 -1 -1</clus>
<clus scale="   86.493">  2  5  1 -1</clus>
<clus scale="   93.646">  7  8 -1 -1</clus>
<clus scale="   59.041">  2  5  1 -1</clus>
</clustering>
</event>
<event>
 9    1  0.7586638E-005  0.1180663E+03  0.7546771E-02  0.1249331E+00
         -2   -1    0    0    0  501 -0.00000000000E+00  0.00000000000E+00  0.67404177510E+02  0.67404177510E+02  0.00000000000E+00 0.  1.
         21   -1    0    0  501  502  0.00000000000E+00 -0.00000000000E+00 -0.53051301635E+03  0.53051301635E+03  0.00000000000E+00 0. -1.
         23    2    1    2    0    0  0.19574754812E+02  0.49170280391E+02 -0.15260641696E+03  0.18506050475E+03  0.90320454055E+02 0.  0.
        -24    2    1    2    0    0 -0.11873962798E+03 -0.52706365775E+02 -0.25943522440E+03  0.30125904295E+03  0.81075983196E+02 0.  0.
         13    1    4    4    0    0 -0.55132825575E+02  0.59690586874E+00 -0.17239178771E+03  0.18099423533E+03  0.00000000000E+00 0. -1.
        -14    1    4    4    0    0 -0.63606802409E+02 -0.53303271643E+02 -0.87043436688E+02  0.12026480762E+03  0.00000000000E+00 0.  1.
        -11    1    3    3    0    0  0.48162666266E+02  0.26036620334E+02 -0.13200308438E+03  0.14290683086E+03  0.00000000000E+00 0.  1.
         11    1    3    3    0    0 -0.28587911453E+02  0.23133660057E+02 -0.20603332577E+02  0.42153673887E+02  0.00000000000E+00 0. -1.
         -1    1    1    2    0  502  0.99164873171E+02  0.35360853837E+01 -0.51067197480E+02  0.11159764616E+03  0.00000000000E+00 0.  1.
<scales pt_clust_5="13000.00000" pt_clust_6="13000.00000" pt_clust_7="13000.00000" pt_clust_8="13000.00000" pt_clust_9="99.22795"></scales>
<clustering>
<clus scale="   81.076">  5  6 -1 -1</clus>
<clus scale="   90.320">  7  8 -1 -1</clus>
<clus scale="   99.228">  2  9  1 -1</clus>
<clus scale="  111.154">  2  5  1 -1</clus>
<clus scale="   99.228">  2  5  1 -1</clus>
</clustering>
</event>
<event>
 9    1  0.7586638E-005  0.2371571E+03  0.7546771E-02  0.1164701E+00
          1   -1    0    0  502    0 -0.00000000000E+00  0.00000000000E+00  0.13601733996E+04  0.13601733996E+04  0.00000000000E+00 0. -1.
         21   -1    0    0  501  502  0.00000000000E+00 -0.00000000000E+00 -0.55169037741E+02  0.55169037741E+02  0.00000000000E+00 0. -1.
        -24    2    1    2    0    0  0.13335187363E+02 -0.26690656059E+02  0.22465847523E+03  0.24003411574E+03  0.79086837615E+02 0.  0.
         23    2    1    2    0    0  0.13059953164E+03 -0.15333240417E+03  0.65763258942E+03  0.69383969626E+03  0.91464952871E+02 0.  0.
         11    1    3    3    0    0  0.21855806984E+02  0.11624950750E+02  0.20513726345E+02  0.32150097160E+02  0.00000000000E+00 0. -1.
        -12    1    3    3    0    0 -0.85206196208E+01 -0.38315606809E+02  0.20414474888E+03  0.20788401858E+03  0.00000000000E+00 0.  1.
        -13    1    4    4    0    0  0.68735833990E+02 -0.17481817327E+02  0.18191105998E+03  0.19524820756E+03  0.00000000000E+00 0.  1.
         13    1    4    4    0    0  0.61863697652E+02 -0.13585058684E+03  0.47572152944E+03  0.49859148870E+03  0.00000000000E+00 0. -1.
          2    1    1    2  501    0 -0.14393471900E+03  0.18002306023E+03  0.42271329719E+03  0.48146862532E+03  0.00000000000E+00 0. -1.
<scales pt_clust_5="13000.00000" pt_clust_6="13000.00000" pt_clust_7="13000.00000" pt_clust_8="13000.00000" pt_clust_9="218.80959"></scales>
<clustering>
<clus scale="   79.087">  5  6 -1 -1</clus>
<clus scale="   84.528">  1  5  2 -1</clus>
<clus scale="   91.465">  7  8 -1 -1</clus>
<clus scale="  218.810">  2  9  1 -1</clus>
<clus scale="  218.810">  2  5  1 -1</clus>
</clustering>
</event>
<event>
 9    1  0.7586638E-005  0.9238830E+02  0.7546771E-02  0.1301306E+00
         21   -1    0    0  501  502  0.00000000000E+00  0.00000000000E+00  0.69020704193E+03  0.69020704193E+03  0.00000000000E+00 0.  1.
          1   -1    0    0  502    0 -0.00000000000E+00 -0.00000000000E+00 -0.31760263123E+02  0.31760263123E+02  0.00000000000E+00 0. -1.
         23    2    1    2    0    0  0.22327927789E+02  0.18784954841E+02  0.57090045483E+02  0.10893540624E+03  0.88069509770E+02 0.  0.
        -24    2    1    2    0    0 -0.32732599096E+02  0.10162557994E+02  0.46737429937E+03  0.47556369051E+03  0.80915927970E+02 0.  0.
         11    1    4    4    0    0  0.23910711987E+02  0.14674094603E+02  0.10160465959E+03  0.10540663191E+03  0.00000000000E+00 0. -1.
        -12    1    4    4    0    0 -0.56643311083E+02 -0.45115366081E+01  0.36576963978E+03  0.37015705861E+03  0.00000000000E+00 0.  1.
        -11    1    3    3    0    0 -0.21225492598E+02  0.39209738768E+02  0.25114205097E+02  0.51172731488E+02  0.00000000000E+00 0. -1.
         11    1    3    3    0    0  0.43553420387E+02 -0.20424783927E+02  0.31975840386E+02  0.57762674750E+02  0.00000000000E+00 0.  1.
          2    1    1    2  501    0  0.10404671307E+02 -0.28947512835E+02  0.13398243395E+03  0.13746820830E+03  0.00000000000E+00 0. -1.
<scales pt_clust_5="13000.00000" pt_clust_6="13000.00000" pt_clust_7="13000.00000" pt_clust_8="13000.00000" pt_clust_9="30.76062"></scales>
<clustering>
<clus scale="   30.761">  1  9  2 -1</clus>
<clus scale="   80.916">  5  6 -1 -1</clus>
<clus scale="   85.596">  1  5  2 -1</clus>
<clus scale="   88.070">  7  8 -1 -1</clus>
<clus scale="   30.761">  1  5  2 -1</clus>
</clustering>
</event>
<event>
 9    1  0.7586638E-005  0.9244462E+02  0.7546771E-02  0.1301714E+00
         21   -1    0    0  501  502  0.00000000000E+00  0.00000000000E+00  0.13514001084E+03  0.13514001084E+03  0.00000000000E+00 0.  1.
         -2   -1    0    0    0  501 -0.00000000000E+00 -0.00000000000E+00 -0.14109250142E+03  0.14109250142E+03  0.00000000000E+00 0.  1.
        -24    2    1    2    0    0  0.28398965415E+02  0.32769028650E+02 -0.12995576100E+02  0.93296564446E+02  0.81578511042E+02 0.  0.
         23    2    1    2    0    0  0.46179549197E+02 -0.82502855925E+01  0.20984196667E+02  0.10320215207E+03  0.89497093286E+02 0.  0.
         13    1    3    3    0    0  0.26045126506E+02  0.49360611772E+02  0.17508583674E+02  0.58492470554E+02  0.00000000000E+00 0. -1.
        -14    1    3    3    0    0  0.23538389083E+01 -0.16591583122E+02 -0.30504159774E+02  0.34804093892E+02  0.00000000000E+00 0.  1.
        -13    1    4    4    0    0  0.24798751686E+02  0.34986834373E+02  0.32264307176E+02  0.53666024468E+02  0.00000000000E+00 0. -1.
         13    1    4    4    0    0  0.21380797511E+02 -0.43237119966E+02 -0.11280110509E+02  0.49536127607E+02  0.00000000000E+00 0.  1.
         -1    1    1    2    0  502 -0.74578514611E+02 -0.24518743057E+02 -0.13941111141E+02  0.79733795737E+02  0.00000000000E+00 0.  1.
<scales pt_clust_5="13000.00000" pt_clust_6="13000.00000" pt_clust_7="13000.00000" pt_clust_8="13000.00000" pt_clust_9="78.50560"></scales>
<clustering>
<clus scale="   78.506">  1  9  2 -1</clus>
<clus scale="   81.579">  5  6 -1 -1</clus>
<clus scale="   84.802">  2  5  1 -1</clus>
<clus scale="   89.497">  7  8 -1 -1</clus>
<clus scale="   78.506">  1  5  2 -1</clus>
</clustering>
</event>
<event>
 9    1  0.7586638E-005  0.1316974E+03  0.7546771E-02  0.1236290E+00
         21   -1    0    0  501  502  0.00000000000E+00  0.00000000000E+00  0.91031658009E+02  0.91031658009E+02  0.00000000000E+00 0. -1.
          1   -1    0    0  502    0 -0.00000000000E+00 -0.00000000000E+00 -0.53577567527E+03  0.53577567527E+03  0.00000000000E+00 0. -1.
         23    2    1    2    0    0 -0.52029506196E+02 -0.42784186048E+01  0.11623356362E+02  0.10489249806E+03  0.90232806428E+02 0.  0.
        -24    2    1    2    0    0 -0.72158681315E+02 -0.40951122425E+02 -0.17309355974E+03  0.20932489467E+03  0.83496475305E+02 0.  0.
         13    1    4    4    0    0 -0.30398805565E+02 -0.63353278034E+02 -0.10639237955E+03  0.12750319072E+03  0.00000000000E+00 0. -1.
        -14    1    4    4    0    0 -0.41759875750E+02  0.22402155610E+02 -0.66701180195E+02  0.81821703955E+02  0.00000000000E+00 0.  1.
        -11    1    3    3    0    0  0.14375734108E+02 -0.29466910838E+02  0.81568235476E+01  0.33786007989E+02  0.00000000000E+00 0.  1.
         11    1    3    3    0    0 -0.66405240304E+02  0.25188492233E+02  0.34665328144E+01  0.71106490073E+02  0.00000000000E+00 0. -1.
          2    1    1    2  501    0  0.12418818751E+03  0.45229541029E+02 -0.28327381388E+03  0.31258994054E+03  0.00000000000E+00 0. -1.
<scales pt_clust_5="13000.00000" pt_clust_6="13000.00000" pt_clust_7="13000.00000" pt_clust_8="13000.00000" pt_clust_9="101.84575"></scales>
<clustering>
<clus scale="   83.496">  5  6 -1 -1</clus>
<clus scale="   90.233">  7  8 -1 -1</clus>
<clus scale="  104.247">  2  7  1 -1</clus>
<clus scale="  101.846">  1  9  2 -1</clus>
<clus scale="  101.846">  1  5  2 -1</clus>
</clustering>
</event>
<event>
 9    1  0.7586638E-005  0.2113140E+03  0.7546771E-02  0.1141109E+00
          3   -1    0    0  502    0 -0.00000000000E+00  0.00000000000E+00  0.34477222796E+03  0.34477222796E+03  0.00000000000E+00 0. -1.
         21   -1    0    0  501  502  0.00000000000E+00 -0.00000000000E+00 -0.23327649196E+03  0.23327649196E+03  0.00000000000E+00 0. -1.
         23    2    1    2    0    0 -0.12332415612E+03 -0.15524106522E+03  0.18765336152E+03  0.28717368176E+03  0.89142041679E+02 0.  0.
        -24    2    1    2    0    0  0.82925423990E+02  0.14810642237E+03 -0.12569282611E+03  0.22655788037E+03  0.81961261164E+02 0.  0.
         11    1    4    4    0    0  0.83175992303E+02  0.14884632075E+03 -0.93706513382E+02  0.19456203008E+03  0.00000000000E+00 0. -1.
        -12    1    4    4    0    0 -0.25056831296E+00 -0.73989838199E+00 -0.31986312731E+02  0.31995850297E+02  0.00000000000E+00 0.  1.
        -13    1    3    3    0    0 -0.53131539007E+01 -0.27610074665E+02 -0.40365122141E+01  0.28404916093E+02  0.00000000000E+00 0.  1.
         13    1    3    3    0    0 -0.11801100222E+03 -0.12763099055E+03  0.19168987373E+03  0.25876876567E+03  0.00000000000E+00 0. -1.
          4    1    1    2  501    0  0.40398732134E+02  0.71346428481E+01  0.49535200596E+02  0.64317157778E+02  0.00000000000E+00 0. -1.
<scales pt_clust_5="13000.00000" pt_clust_6="13000.00000" pt_clust_7="13000.00000" pt_clust_8="13000.00000" pt_clust_9="41.02392"></scales>
<clustering>
<clus scale="   41.024">  2  9  1 -1</clus>
<clus scale="   81.961">  5  6 -1 -1</clus>
<clus scale="   89.142">  7  8 -1 -1</clus>
<clus scale="  208.387">  2  5  1 -1</clus>
<clus scale="   41.024">  2  5  1 -1</clus>
</clustering>
</event>
<event>
 9    1  0.7586638E-005  0.1159008E+03  0.7546771E-02  0.1256010E+00
         21   -1    0    0  501  502  0.00000000000E+00  0.00000000000E+00  0.15762440356E+03  0.15762440356E+03  0.00000000000E+00 0. -1.
          3   -1    0    0  502    0 -0.00000000000E+00 -0.00000000000E+00 -0.16553430623E+03  0.16553430623E+03  0.00000000000E+00 0. -1.
         23    2    1    2    0    0 -0.69159121730E+01 -0.45667870931E+02  0.24965592964E+02  0.10721786572E+03  0.93482648768E+02 0.  0.
        -24    2    1    2    0    0 -0.44905012431E+02  0.89791926280E+02  0.22300521002E+02  0.12832387484E+03  0.76750592503E+02 0.  0.
         13    1    4    4    0    0 -0.40359641426E+02  0.75671628085E+02 -0.16008513807E+02  0.87243157138E+02  0.00000000000E+00 0. -1.
        -14    1    4    4    0    0 -0.45453710053E+01  0.14120298195E+02  0.38309034809E+02  0.41080717699E+02  0.00000000000E+00 0.  1.
        -13    1    3    3    0    0  0.20302032027E+02 -0.18266003015E+02 -0.29659845846E+02  0.40317810285E+02  0.00000000000E+00 0.  1.
         13    1    3    3    0    0 -0.27217944200E+02 -0.27401867916E+02  0.54625438810E+02  0.66900055433E+02  0.00000000000E+00 0. -1.
          4    1    1    2  501    0  0.51820924604E+02 -0.44124055349E+02 -0.55176016635E+02  0.87616969241E+02  0.00000000000E+00 0. -1.
<scales pt_clust_5="13000.00000" pt_clust_6="13000.00000" pt_clust_7="13000.00000" pt_clust_8="13000.00000" pt_clust_9="68.06133"></scales>
<clustering>
<clus scale="   68.061">  1  9  2 -1</clus>
<clus scale="   76.751">  5  6 -1 -1</clus>
<clus scale="   93.483">  7  8 -1 -1</clus>
<clus scale="  102.882">  1  5  2 -1</clus>
<clus scale="   68.061">  1  5  2 -1</clus>
</clustering>
</event>
<event>
 9    1  0.7586638E-005  0.2281151E+03  0.7546771E-02  0.1128190E+00
          1   -1    0    0  502    0 -0.00000000000E+00  0.00000000000E+00  0.14095388278E+04  0.14095388278E+04  0.00000000000E+00 0. -1.
         21   -1    0    0  501  502  0.00000000000E+00 -0.00000000000E+00 -0.48532741555E+02  0.48532741555E+02  0.00000000000E+00 0.  1.
        -24    2    1    2    0    0 -0.22489229778E+02 -0.20130901734E+03  0.79347958608E+03  0.82301781998E+03  0.81959700892E+02 0.  0.
         23    2    1    2    0    0  0.11956725907E+02  0.23094212359E+03  0.44650039177E+03  0.51000826350E+03  0.85256092094E+02 0.  0.
         13    1    3    3    0    0  0.20000649155E+02 -0.55354384313E+02  0.13592559226E+03  0.14812123568E+03  0.00000000000E+00 0. -1.
        -14    1    3    3    0    0 -0.42489878933E+02 -0.14595463302E+03  0.65755399382E+03  0.67489658430E+03  0.00000000000E+00 0.  1.
        -11    1    4    4    0    0 -0.13391250785E+02  0.67511954038E+02  0.21320020164E+03  0.22403463017E+03  0.00000000000E+00 0. -1.
         11    1    4    4    0    0  0.25347976692E+02  0.16343016955E+03  0.23330019013E+03  0.28597363332E+03  0.00000000000E+00 0.  1.
          2    1    1    2  501    0  0.10532503871E+02 -0.29633106255E+02  0.12102610835E+03  0.12504548583E+03  0.00000000000E+00 0. -1.
<scales pt_clust_5="13000.00000" pt_clust_6="13000.00000" pt_clust_7="13000.00000" pt_clust_8="13000.00000" pt_clust_9="31.44925"></scales>
<clustering>
<clus scale="   31.449">  2  9  1 -1</clus>
<clus scale="   81.960">  5  6 -1 -1</clus>
<clus scale="   85.256">  7  8 -1 -1</clus>
<clus scale="  226.904">  1  5  2 -1</clus>
<clus scale="   31.449">  2  5  1 -1</clus>
</clustering>
</event>
<event>
 9    1  0.7586638E-005  0.1371068E+03  0.7546771E-02  0.1221443E+00
         21   -1    0    0  501  502  0.00000000000E+00  0.00000000000E+00  0.53309131834E+03  0.53309131834E+03  0.00000000000E+00 0. -1.
          1   -1    0    0  502    0 -0.00000000000E+00 -0.00000000000E+00 -0.37365518538E+03  0.37365518538E+03  0.00000000000E+00 0. -1.
         23    2    1    2    0    0 -0.40462738693E+02 -0.10342051934E+03 -0.28017002612E+03  0.31688976860E+03  0.97932858957E+02 0.  0.
        -24    2    1    2    0    0 -0.13978366330E+02  0.70411538127E+02 -0.32836119693E+02  0.11314389334E+03  0.81056464380E+02 0.  0.
         11    1    4    4    0    0  0.26010224359E+02 -0.12757106573E+01 -0.54132523775E+01  0.26598167422E+02  0.00000000000E+00 0. -1.
        -12    1    4    4    0    0 -0.39988590689E+02  0.71687248785E+02 -0.27422867316E+02  0.86545725922E+02  0.00000000000E+00 0.  1.
        -13    1    3    3    0    0 -0.24902651637E+02 -0.12144618605E+03 -0.22747386651E+03  0.25906307747E+03  0.00000000000E+00 0. -1.
         13    1    3    3    0    0 -0.15560087056E+02  0.18025666704E+02 -0.52696159606E+02  0.57826691126E+02  0.00000000000E+00 0.  1.
          2    1    1    2  501    0  0.54441105023E+02  0.33008981215E+02  0.47244227876E+03  0.47671284178E+03  0.00000000000E+00 0. -1.
<scales pt_clust_5="13000.00000" pt_clust_6="13000.00000" pt_clust_7="13000.00000" pt_clust_8="13000.00000" pt_clust_9="63.66653"></scales>
<clustering>
<clus scale="   63.667">  1  9  2 -1</clus>
<clus scale="   81.056">  5  6 -1 -1</clus>
<clus scale="   97.933">  7  8 -1 -1</clus>
<clus scale="  125.609">  1  5  2 -1</clus>
<clus scale="   63.667">  1  5  2 -1</clus>
</clustering>
</event>
<event>
 9    1  0.7586638E-005  0.1015584E+03  0.7546771E-02  0.1279371E+00
         -2   -1    0    0    0  501 -0.00000000000E+00  0.00000000000E+00  0.18079504930E+03  0.18079504930E+03  0.00000000000E+00 0.  1.
         21   -1    0    0  501  502  0.00000000000E+00 -0.00000000000E+00 -0.13413873687E+03  0.13413873687E+03  0.00000000000E+00 0.  1.
        -24    2    1    2    0    0  0.18160524562E+02  0.12773925979E+02  0.35034943616E+02  0.95871171009E+02  0.86434115483E+02 0.  0.
         23    2    1    2    0    0 -0.14899930790E+02 -0.96969235026E+02  0.13934941416E+02  0.13477243688E+03  0.91347614485E+02 0.  0.
         13    1    3    3    0    0 -0.29432661401E+02 -0.13326966388E+02  0.20935209652E+01  0.32377035385E+02  0.00000000000E+00 0. -1.
        -14    1    3    3    0    0  0.47593185963E+02  0.26100892368E+02  0.32941422650E+02  0.63494135625E+02  0.00000000000E+00 0.  1.
        -13    1    4    4    0    0 -0.53216521244E+02 -0.61620513795E+02  0.14154929529E+02  0.82640473641E+02  0.00000000000E+00 0.  1.
         13    1    4    4    0    0  0.38316590454E+02 -0.35348721231E+02 -0.21998811310E+00  0.52131963242E+02  0.00000000000E+00 0. -1.
         -1    1    1    2    0  502 -0.32605937726E+01  0.84195309047E+02 -0.23135726004E+01  0.84290178286E+02  0.00000000000E+00 0.  1.
<scales pt_clust_5="13000.00000" pt_clust_6="13000.00000" pt_clust_7="13000.00000" pt_clust_8="13000.00000" pt_clust_9="84.25842"></scales>
<clustering>
<clus scale="   84.258">  2  9  1 -1</clus>
<clus scale="   86.434">  5  6 -1 -1</clus>
<clus scale="   91.348">  7  8 -1 -1</clus>
<clus scale="   97.163">  1  5  2 -1</clus>
<clus scale="   84.258">  2  5  1 -1</clus>
</clustering>
</event>
<event>
 9    1  0.7586638E-005  0.1138705E+03  0.7546771E-02  0.1257234E+00
          3   -1    0    0  502    0 -0.00000000000E+00  0.00000000000E+00  0.48393100542E+02  0.48393100542E+02  0.00000000000E+00 0. -1.
         21   -1    0    0  501  502  0.00000000000E+00 -0.00000000000E+00 -0.37701266422E+03  0.37701266422E+03  0.00000000000E+00 0.  1.
         23    2    1    2    0    0 -0.60893659447E+02  0.41121052613E+02 -0.12443525677E+03  0.17036833062E+03  0.90234451415E+02 0.  0.
        -24    2    1    2    0    0  0.42414707298E+02 -0.49007035889E+02 -0.21022310159E+03  0.23405821952E+03  0.79929973853E+02 0.  0.
         11    1    4    4    0    0 -0.60116500610E-01 -0.36033739237E+02 -0.25684710104E+02  0.44250856608E+02  0.00000000000E+00 0. -1.
        -12    1    4    4    0    0  0.42474823799E+02 -0.12973296652E+02 -0.18453839149E+03  0.18980736291E+03  0.00000000000E+00 0.  1.
        -13    1    3    3    0    0 -0.70999159028E+02  0.23298452954E+02 -0.42614628744E+02  0.86021538441E+02  0.00000000000E+00 0.  1.
         13    1    3    3    0    0  0.10105499581E+02  0.17822599659E+02 -0.81820628027E+02  0.84346792180E+02  0.00000000000E+00 0. -1.
          4    1    1    2  501    0  0.18478952149E+02  0.78859832765E+01  0.60387946869E+01  0.20979214619E+02  0.00000000000E+00 0. -1.
<scales pt_clust_5="13000.00000" pt_clust_6="13000.00000" pt_clust_7="13000.00000" pt_clust_8="13000.00000" pt_clust_9="20.09131"></scales>
<clustering>
<clus scale="   20.091">  2  9  1 -1</clus>
<clus scale="   79.930">  5  6 -1 -1</clus>
<clus scale="   90.234">  7  8 -1 -1</clus>
<clus scale="  105.892">  2  5  1 -1</clus>
<clus scale="   20.091">  2  5  1 -1</clus>
</clustering>
</event>
<event>
 9    1  0.1415622E-004  0.1043756E+03  0.7546771E-02  0.1275990E+00
         21   -1    0    0  501  502  0.00000000000E+00  0.00000000000E+00  0.27252890975E+03  0.27252890975E+03  0.00000000000E+00 0.  1.
         -2   -1    0    0    0  501 -0.00000000000E+00 -0.00000000000E+00 -0.22931767939E+03  0.22931767939E+03  0.00000000000E+00 0.  1.
        -24    2    1    2    0    0  0.29227218577E+02 -0.40215825991E+02 -0.19937416455E+03  0.22091975022E+03  0.81141454143E+02 0.  0.
         23    2    1    2    0    0 -0.55140154805E+02  0.34726067725E+02  0.17074554913E+03  0.20435934484E+03  0.91445955755E+02 0.  0.
         13    1    3    3    0    0  0.37911378497E+01  0.23976739347E+02 -0.34628404645E+02  0.42289279542E+02  0.00000000000E+00 0. -1.
        -14    1    3    3    0    0  0.25436080727E+02 -0.64192565337E+02 -0.16474575990E+03  0.17863047068E+03  0.00000000000E+00 0.  1.
        -11    1    4    4    0    0  0.19022352018E+02 -0.12761878407E+02  0.49129962752E+02  0.54207643896E+02  0.00000000000E+00 0. -1.
         11    1    4    4    0    0 -0.74162506822E+02  0.47487946132E+02  0.12161558638E+03  0.15015170094E+03  0.00000000000E+00 0.  1.
         -1    1    1    2    0  502  0.25912936228E+02  0.54897582662E+01  0.71839845771E+02  0.76567494083E+02  0.00000000000E+00 0.  1.
<scales pt_clust_5="13000.00000" pt_clust_6="13000.00000" pt_clust_7="13000.00000" pt_clust_8="13000.00000" pt_clust_9="26.48807"></scales>
<clustering>
<clus scale="   26.488">  1  9  2 -1</clus>
<clus scale="   81.141">  5  6 -1 -1</clus>
<clus scale="   91.446">  7  8 -1 -1</clus>
<clus scale="   95.477">  2  5  1 -1</clus>
<clus scale="   26.488">  1  5  2 -1</clus>
</clustering>
</event>
<event>
 9    1  0.7586638E-005  0.9849221E+02  0.7546771E-02  0.1286663E+00
          1   -1    0    0  502    0 -0.00000000000E+00  0.00000000000E+00  0.24826676283E+03  0.24826676283E+03  0.00000000000E+00 0. -1.
         21   -1    0    0  501  502  0.00000000000E+00 -0.00000000000E+00 -0.10588207906E+03  0.10588207906E+03  0.00000000000E+00 0. -1.
        -24    2    1    2    0    0  0.26225539933E+02 -0.32905679763E+01  0.16429948406E+03  0.18753146743E+03  0.86458799611E+02 0.  0.
         23    2    1    2    0    0 -0.72524388915E+02  0.70545562170E+01 -0.77523812848E+01  0.11805478457E+03  0.92559596985E+02 0.  0.
         11    1    3    3    0    0  0.46081540083E+02  0.21291748941E+02  0.60221810430E+02  0.78762385444E+02  0.00000000000E+00 0. -1.
        -12    1    3    3    0    0 -0.19856000150E+02 -0.24582316917E+02  0.10407767363E+03  0.10876908198E+03  0.00000000000E+00 0.  1.
        -13    1    4    4    0    0 -0.31251341727E+02 -0.41123884853E+02  0.90258397649E+01  0.52433634707E+02  0.00000000000E+00 0.  1.
         13    1    4    4    0    0 -0.41273047188E+02  0.48178441070E+02 -0.16778221050E+02  0.65621149866E+02  0.00000000000E+00 0. -1.
          2    1    1    2  501    0  0.46298848982E+02 -0.37639882407E+01 -0.14162419012E+02  0.48562589890E+02  0.00000000000E+00 0. -1.
<scales pt_clust_5="13000.00000" pt_clust_6="13000.00000" pt_clust_7="13000.00000" pt_clust_8="13000.00000" pt_clust_9="46.45160"></scales>
<clustering>
<clus scale="   46.452">  2  9  1 -1</clus>
<clus scale="   86.459">  5  6 -1 -1</clus>
<clus scale="   92.560">  7  8 -1 -1</clus>
<clus scale="   92.782">  1  5  2 -1</clus>
<clus scale="   46.452">  2  5  1 -1</clus>
</clustering>
</event>
<event>
 9    1  0.7586638E-005  0.8332559E+02  0.7546771E-02  0.1320278E+00
         21   -1    0    0  501  502  0.00000000000E+00  0.00000000000E+00  0.43808378213E+03  0.43808378213E+03  0.00000000000E+00 0.  1.
          3   -1    0    0  502    0 -0.00000000000E+00 -0.00000000000E+00 -0.27233113378E+02  0.27233113378E+02  0.00000000000E+00 0. -1.
         23    2    1    2    0    0  0.15975296261E+02  0.10619940213E+02  0.85884632530E+02  0.11847631881E+03  0.79325120818E+02 0.  0.
        -24    2    1    2    0    0 -0.26111474027E+02 -0.36322316204E+02  0.27783779024E+03  0.29221067828E+03  0.78690044413E+02 0.  0.
         11    1    4    4    0    0 -0.17807124394E+02  0.14350422435E+02  0.23691564618E+02  0.32928992352E+02  0.00000000000E+00 0. -1.
        -12    1    4    4    0    0 -0.83043496332E+01 -0.50672738640E+02  0.25414622562E+03  0.25928168593E+03  0.00000000000E+00 0.  1.
        -11    1    3    3    0    0  0.85018945412E+01  0.42295828452E+02  0.70083530092E+02  0.82297755166E+02  0.00000000000E+00 0. -1.
         11    1    3    3    0    0  0.74734017202E+01 -0.31675888239E+02  0.15801102438E+02  0.36178563642E+02  0.00000000000E+00 0.  1.
          4    1    1    2  501    0  0.10136177766E+02  0.25702375991E+02  0.47128245988E+02  0.54629898419E+02  0.00000000000E+00 0. -1.
<scales pt_clust_5="13000.00000" pt_clust_6="13000.00000" pt_clust_7="13000.00000" pt_clust_8="13000.00000" pt_clust_9="27.62888"></scales>
<clustering>
<clus scale="   27.629">  1  9  2 -1</clus>
<clus scale="   78.690">  5  6 -1 -1</clus>
<clus scale="   79.325">  7  8 -1 -1</clus>
<clus scale="   82.721">  1  5  2 -1</clus>
<clus scale="   27.629">  1  5  2 -1</clus>
</clustering>
</event>
<event>
 9    1  0.7586638E-005  0.9343265E+02  0.7546771E-02  0.1301593E+00
         21   -1    0    0  501  502  0.00000000000E+00  0.00000000000E+00  0.33526100719E+02  0.33526100719E+02  0.00000000000E+00 0. -1.
          1   -1    0    0  502    0 -0.00000000000E+00 -0.00000000000E+00 -0.92591291036E+03  0.92591291036E+03  0.00000000000E+00 0. -1.
        -24    2    1    2    0    0  0.93600103210E+01 -0.88845477879E+01 -0.75105787671E+03  0.75549553675E+03  0.80740491134E+02 0.  0.
         23    2    1    2    0    0 -0.19262803658E+02  0.34561971974E+02 -0.14493090771E+03  0.17618794062E+03  0.92041495527E+02 0.  0.
         13    1    3    3    0    0 -0.26817706479E+02 -0.72189054721E+01 -0.11127322780E+03  0.11468667404E+03  0.00000000000E+00 0. -1.
        -14    1    3    3    0    0  0.36177716800E+02 -0.16656423158E+01 -0.63978464891E+03  0.64080886271E+03  0.00000000000E+00 0.  1.
        -11    1    4    4    0    0  0.16572025256E+01 -0.22352461970E+02 -0.40031683123E+01  0.22768492108E+02  0.00000000000E+00 0.  1.
         11    1    4    4    0    0 -0.20920006183E+02  0.56914433944E+02 -0.14092773940E+03  0.15341944851E+03  0.00000000000E+00 0. -1.
          2    1    1    2  501    0  0.99027933367E+01 -0.25677424187E+02  0.36019747814E+01  0.27755533701E+02  0.00000000000E+00 0. -1.
<scales pt_clust_5="13000.00000" pt_clust_6="13000.00000" pt_clust_7="13000.00000" pt_clust_8="13000.00000" pt_clust_9="27.52082"></scales>
<clustering>
<clus scale="   27.521">  1  9  2 -1</clus>
<clus scale="   80.740">  5  6 -1 -1</clus>
<clus scale="   82.323">  2  5  1 -1</clus>
<clus scale="   92.041">  7  8 -1 -1</clus>
<clus scale="   27.521">  1  5  2 -1</clus>
</clustering>
</event>
<event>
 9    1  0.7586638E-005  0.1379088E+03  0.7546771E-02  0.1218410E+00
         21   -1    0    0  501  502  0.00000000000E+00  0.00000000000E+00  0.25813353168E+02  0.25813353168E+02  0.00000000000E+00 0. -1.
          1   -1    0    0  502    0 -0.00000000000E+00 -0.00000000000E+00 -0.89095250520E+03  0.89095250520E+03  0.00000000000E+00 0. -1.
        -24    2    1    2    0    0 -0.76164557035E+02 -0.75524090393E+02 -0.47111471732E+03  0.48978398101E+03  0.80214357790E+02 0.  0.
         23    2    1    2    0    0  0.85107521596E+02  0.54072902826E+02 -0.28491326706E+03  0.31542302755E+03  0.90271521061E+02 0.  0.
         11    1    3    3    0    0 -0.71543925096E+02 -0.67640512882E+02 -0.25306865540E+03  0.27154652741E+03  0.00000000000E+00 0. -1.
        -12    1    3    3    0    0 -0.46206319386E+01 -0.78835775109E+01 -0.21804606192E+03  0.21823745360E+03  0.00000000000E+00 0.  1.
        -11    1    4    4    0    0 -0.86487171028E+01  0.20585137639E+02 -0.12553505491E+03  0.12750528699E+03  0.00000000000E+00 0.  1.
         11    1    4    4    0    0  0.93756238699E+02  0.33487765188E+02 -0.15937821215E+03  0.18791774057E+03  0.00000000000E+00 0. -1.
          2    1    1    2  501    0 -0.89429645606E+01  0.21451187567E+02 -0.10911116765E+03  0.11155884980E+03  0.00000000000E+00 0. -1.
<scales pt_clust_5="13000.00000" pt_clust_6="13000.00000" pt_clust_7="13000.00000" pt_clust_8="13000.00000" pt_clust_9="23.24071"></scales>
<clustering>
<clus scale="   23.241">  1  9  2 -1</clus>
<clus scale="   80.214">  5  6 -1 -1</clus>
<clus scale="   90.272">  7  8 -1 -1</clus>
<clus scale="  131.546">  2  5  1 -1</clus>
<clus scale="   23.241">  1  5  2 -1</clus>
</clustering>
</event>
<event>
 9    1  0.7586638E-005  0.2289154E+03  0.7546771E-02  0.1128225E+00
          1   -1    0    0  502    0 -0.00000000000E+00  0.00000000000E+00  0.70409211262E+03  0.70409211262E+03  0.00000000000E+00 0. -1.
         21   -1    0    0  501  502  0.00000000000E+00 -0.00000000000E+00 -0.21935896192E+03  0.21935896192E+03  0.00000000000E+00 0.  1.
         23    2    1    2    0    0 -0.84313612785E+02  0.19278858212E+03  0.50858870140E+03  0.55779067085E+03  0.90508246044E+02 0.  0.
        -24    2    1    2    0    0  0.15462295772E+03 -0.15871478966E+03 -0.10108702538E+03  0.25580082059E+03  0.78210163047E+02 0.  0.
         11    1    4    4    0    0  0.58253111767E+02 -0.82186394910E+02 -0.71607216988E+01  0.10099160596E+03  0.00000000000E+00 0. -1.
        -12    1    4    4    0    0  0.96369845948E+02 -0.76528394752E+02 -0.93926303679E+02  0.15480921463E+03  0.00000000000E+00 0.  1.
        -13    1    3    3    0    0 -0.91585129665E+02  0.14026519417E+03  0.44193187934E+03  0.47261606685E+03  0.00000000000E+00 0. -1.
         13    1    3    3    0    0  0.72715168795E+01  0.52523387949E+02  0.66656822065E+02  0.85174604003E+02  0.00000000000E+00 0.  1.
          2    1    1    2  501    0 -0.70309344930E+02 -0.34073792457E+02  0.77231474675E+02  0.10985958309E+03  0.00000000000E+00 0. -1.
<scales pt_clust_5="13000.00000" pt_clust_6="13000.00000" pt_clust_7="13000.00000" pt_clust_8="13000.00000" pt_clust_9="78.13087"></scales>
<clustering>
<clus scale="   78.131">  2  9  1 -1</clus>
<clus scale="   78.210">  5  6 -1 -1</clus>
<clus scale="   90.508">  7  8 -1 -1</clus>
<clus scale="  224.338">  2  5  1 -1</clus>
<clus scale="   78.131">  2  5  1 -1</clus>
</clustering>
</event>
<event>
 9    1  0.7586638E-005  0.1939610E+03  0.7546771E-02  0.1156047E+00
         -2   -1    0    0    0  501 -0.00000000000E+00  0.00000000000E+00  0.54472174521E+03  0.54472174521E+03  0.00000000000E+00 0.  1.
         21   -1    0    0  501  502  0.00000000000E+00 -0.00000000000E+00 -0.31998244821E+03  0.31998244821E+03  0.00000000000E+00 0.  1.
        -24    2    1    2    0    0  0.50727817007E+02 -0.16533563990E+03  0.48121074003E+03  0.51773005412E+03  0.81064464331E+02 0.  0.
         23    2    1    2    0    0 -0.41579811096E+02  0.14343662016E+03 -0.13018534778E+03  0.21847732639E+03  0.92093282462E+02 0.  0.
         13    1    3    3    0    0  0.28791426054E+02 -0.14887028751E+03  0.45572847186E+03  0.48029131658E+03  0.00000000000E+00 0. -1.
        -14    1    3    3    0    0  0.21936390953E+02 -0.16465352396E+02  0.25482268171E+02  0.37438737541E+02  0.00000000000E+00 0.  1.
        -11    1    4    4    0    0  0.43248930893E+01  0.80622323084E+02 -0.11286870207E+03  0.13877322359E+03  0.00000000000E+00 0.  1.
         11    1    4    4    0    0 -0.45904704185E+02  0.62814297081E+02 -0.17316645714E+02  0.79704102798E+02  0.00000000000E+00 0. -1.
         -1    1    1    2    0  502 -0.91480059115E+01  0.21899019737E+02 -0.12628609525E+03  0.12849681292E+03  0.00000000000E+00 0.  1.
<scales pt_clust_5="13000.00000" pt_clust_6="13000.00000" pt_clust_7="13000.00000" pt_clust_8="13000.00000" pt_clust_9="23.73295"></scales>
<clustering>
<clus scale="   23.733">  2  9  1 -1</clus>
<clus scale="   81.064">  5  6 -1 -1</clus>
<clus scale="   92.093">  7  8 -1 -1</clus>
<clus scale="  188.974">  1  5  2 -1</clus>
<clus scale="   23.733">  2  5  1 -1</clus>
</clustering>
</event>
<event>
 9    1  0.7586638E-005  0.1027282E+03  0.7546771E-02  0.1279574E+00
         -2   -1    0    0    0  501 -0.00000000000E+00  0.00000000000E+00  0.15196679184E+03  0.15196679184E+03  0.00000000000E+00 0.  1.
         21   -1    0    0  501  502  0.00000000000E+00 -0.00000000000E+00 -0.12566303676E+03  0.12566303676E+03  0.00000000000E+00 0.  1.
         23    2    1    2    0    0  0.22268843352E+02  0.37389906353E+02  0.80921396641E+02  0.13034746509E+03  0.92456923698E+02 0.  0.
        -24    2    1    2    0    0  0.81151111016E+01 -0.56571558466E+02 -0.32950640274E+02  0.10532310457E+03  0.82103686918E+02 0.  0.
         11    1    4    4    0    0 -0.18739342595E+02 -0.24965537724E+02  0.20741055388E+02  0.37478425972E+02  0.00000000000E+00 0. -1.
        -12    1    4    4    0    0  0.26854453697E+02 -0.31606020743E+02 -0.53691695662E+02  0.67844678595E+02  0.00000000000E+00 0.  1.
        -11    1    3    3    0    0 -0.12483994713E+02  0.52419532401E+02  0.74497071240E+02  0.91942760044E+02  0.00000000000E+00 0.  1.
         11    1    3    3    0    0  0.34752838066E+02 -0.15029626048E+02  0.64243254004E+01  0.38404705045E+02  0.00000000000E+00 0. -1.
         -1    1    1    2    0  502 -0.30383954454E+02  0.19181652113E+02 -0.21667001293E+02  0.41959258944E+02  0.00000000000E+00 0.  1.
<scales pt_clust_5="13000.00000" pt_clust_6="13000.00000" pt_clust_7="13000.00000" pt_clust_8="13000.00000" pt_clust_9="35.93216"></scales>
<clustering>
<clus scale="   35.932">  2  9  1 -1</clus>
<clus scale="   82.104">  5  6 -1 -1</clus>
<clus scale="   92.457">  7  8 -1 -1</clus>
<clus scale="   93.519">  2  5  1 -1</clus>
<clus scale="   35.932">  2  5  1 -1</clus>
</clustering>
</event>
<event>
 9    1  0.7586638E-005  0.2431228E+03  0.7546771E-02  0.1149790E+00
          1   -1    0    0  502    0 -0.00000000000E+00  0.00000000000E+00  0.11855735993E+04  0.11855735993E+04  0.00000000000E+00 0. -1.
         21   -1    0    0  501  502  0.00000000000E+00 -0.00000000000E+00 -0.83922034653E+02  0.83922034653E+02  0.00000000000E+00 0. -1.
        -24    2    1    2    0    0  0.68038114334E+02  0.39023675889E+02  0.38862445571E+03  0.40422158418E+03  0.78829494863E+02 0.  0.
         23    2    1    2    0    0 -0.20914982536E+03  0.12680011317E+03  0.47717529167E+03  0.54428164533E+03  0.93404134347E+02 0.  0.
         11    1    3    3    0    0  0.69671877103E+02  0.44329141214E+02  0.21208065232E+03  0.22759052333E+03  0.00000000000E+00 0. -1.
        -12    1    3    3    0    0 -0.16337627697E+01 -0.53054653249E+01  0.17654380339E+03  0.17663106085E+03  0.00000000000E+00 0.  1.
        -13    1    4    4    0    0 -0.16421945081E+03  0.75562471074E+02  0.26000855503E+03  0.31667359180E+03  0.00000000000E+00 0. -1.
         13    1    4    4    0    0 -0.44930374549E+02  0.51237642094E+02  0.21716673665E+03  0.22760805353E+03  0.00000000000E+00 0.  1.
          2    1    1    2  501    0  0.14111171102E+03 -0.16582378906E+03  0.23585181728E+03  0.32099240445E+03  0.00000000000E+00 0. -1.
<scales pt_clust_5="13000.00000" pt_clust_6="13000.00000" pt_clust_7="13000.00000" pt_clust_8="13000.00000" pt_clust_9="224.46465"></scales>
<clustering>
<clus scale="   78.829">  5  6 -1 -1</clus>
<clus scale="   93.404">  7  8 -1 -1</clus>
<clus scale="  111.203">  1  5  2 -1</clus>
<clus scale="  224.465">  2  9  1 -1</clus>
<clus scale="  224.465">  2  5  1 -1</clus>
</clustering>
</event>
<event>
 9    1  0.7586638E-005  0.1221117E+03  0.7546771E-02  0.1243602E+00
         21   -1    0    0  501  502  0.00000000000E+00  0.00000000000E+00  0.80857083200E+02  0.80857083200E+02  0.00000000000E+00 0.  1.
          1   -1    0    0  502    0 -0.00000000000E+00 -0.00000000000E+00 -0.28260395746E+03  0.28260395746E+03  0.00000000000E+00 0. -1.
        -24    2    1    2    0    0  0.75123910134E+02  0.82428070486E+01 -0.73619102554E+02  0.13174490529E+03  0.78901217151E+02 0.  0.
         23    2    1    2    0    0 -0.88927553976E+02  0.27196461666E+02 -0.41507790896E+02  0.13711432024E+03  0.91813303643E+02 0.  0.
         13    1    3    3    0    0  0.55215349037E+02 -0.23147534462E+02 -0.73206513755E+02  0.94571331687E+02  0.00000000000E+00 0. -1.
        -14    1    3    3    0    0  0.19908561097E+02  0.31390341511E+02 -0.41258879909E+00  0.37173573606E+02  0.00000000000E+00 0.  1.
        -13    1    4    4    0    0 -0.58567348740E+02  0.38874673932E+02  0.15032714322E+02  0.71884331475E+02  0.00000000000E+00 0. -1.
         13    1    4    4    0    0 -0.30360205235E+02 -0.11678212266E+02 -0.56540505218E+02  0.65229988762E+02  0.00000000000E+00 0.  1.
          2    1    1    2  501    0  0.13803643841E+02 -0.35439268715E+02 -0.86619980813E+02  0.94601815133E+02  0.00000000000E+00 0. -1.
<scales pt_clust_5="13000.00000" pt_clust_6="13000.00000" pt_clust_7="13000.00000" pt_clust_8="13000.00000" pt_clust_9="38.03267"></scales>
<clustering>
<clus scale="   38.033">  1  9  2 -1</clus>
<clus scale="   78.901">  5  6 -1 -1</clus>
<clus scale="   91.813">  7  8 -1 -1</clus>
<clus scale="  112.725">  2  5  1 -1</clus>
<clus scale="   38.033">  1  5  2 -1</clus>
</clustering>
</event>
<event>
 9    1  0.7586638E-005  0.3949777E+03  0.7546771E-02  0.1045764E+00
          1   -1    0    0  502    0 -0.00000000000E+00  0.00000000000E+00  0.35825215708E+04  0.35825215708E+04  0.00000000000E+00 0. -1.
         21   -1    0    0  501  502  0.00000000000E+00 -0.00000000000E+00 -0.47973275807E+02  0.47973275807E+02  0.00000000000E+00 0. -1.
        -24    2    1    2    0    0 -0.35551440315E+03 -0.16043314394E+03  0.19576375877E+04  0.19976877146E+04  0.79259041006E+02 0.  0.
         23    2    1    2    0    0  0.35385810902E+03  0.13035700726E+03  0.13763083146E+04  0.14299558633E+04  0.91327341417E+02 0.  0.
         13    1    3    3    0    0 -0.30258356662E+03 -0.11307071726E+03  0.17011916150E+04  0.17315873391E+04  0.00000000000E+00 0. -1.
        -14    1    3    3    0    0 -0.52930836528E+02 -0.47362426686E+02  0.25644597270E+03  0.26610037548E+03  0.00000000000E+00 0.  1.
        -11    1    4    4    0    0  0.16151957250E+02 -0.13013500505E+02  0.89256785190E+02  0.91635204047E+02  0.00000000000E+00 0.  1.
         11    1    4    4    0    0  0.33770615177E+03  0.14337050777E+03  0.12870515294E+04  0.13383206592E+04  0.00000000000E+00 0. -1.
          2    1    1    2  501    0  0.16562941291E+01  0.30076136683E+02  0.20060239266E+03  0.20285126879E+03  0.00000000000E+00 0. -1.
<scales pt_clust_5="13000.00000" pt_clust_6="13000.00000" pt_clust_7="13000.00000" pt_clust_8="13000.00000" pt_clust_9="30.12172"></scales>
<clustering>
<clus scale="   30.122">  2  9  1 -1</clus>
<clus scale="   79.259">  5  6 -1 -1</clus>
<clus scale="   91.327">  7  8 -1 -1</clus>
<clus scale="  392.363">  1  5  2 -1</clus>
<clus scale="   30.122">  2  5  1 -1</clus>
</clustering>
</event>
<event>
 9    1  0.7586638E-005  0.9441814E+02  0.7546771E-02  0.1299017E+00
         21   -1    0    0  501  502  0.00000000000E+00  0.00000000000E+00  0.23359762547E+03  0.23359762547E+03  0.00000000000E+00 0. -1.
          1   -1    0    0  502    0 -0.00000000000E+00 -0.00000000000E+00 -0.16556104530E+03  0.16556104530E+03  0.00000000000E+00 0. -1.
         23    2    1    2    0    0  0.13527653213E+02  0.17565691359E+02 -0.78876756410E+02  0.12257462318E+03  0.91167124725E+02 0.  0.
        -24    2    1    2    0    0  0.15292283482E+02 -0.63393069077E+02  0.18400498816E+03  0.21095990633E+03  0.79960685771E+02 0.  0.
         13    1    4    4    0    0  0.37892395653E+02 -0.43816672037E+01  0.89331403979E+02  0.97134609655E+02  0.00000000000E+00 0. -1.
        -14    1    4    4    0    0 -0.22600112171E+02 -0.59011401873E+02  0.94673584183E+02  0.11382529668E+03  0.00000000000E+00 0.  1.
        -13    1    3    3    0    0  0.70791490694E+01  0.54805331601E+02 -0.54417964858E+02  0.77556776769E+02  0.00000000000E+00 0.  1.
         13    1    3    3    0    0  0.64485041431E+01 -0.37239640241E+02 -0.24458791552E+02  0.45017846407E+02  0.00000000000E+00 0. -1.
          2    1    1    2  501    0 -0.28819936694E+02  0.45827377718E+02 -0.37091651581E+02  0.65624141264E+02  0.00000000000E+00 0. -1.
<scales pt_clust_5="13000.00000" pt_clust_6="13000.00000" pt_clust_7="13000.00000" pt_clust_8="13000.00000" pt_clust_9="54.13631"></scales>
<clustering>
<clus scale="   54.136">  1  9  2 -1</clus>
<clus scale="   79.961">  5  6 -1 -1</clus>
<clus scale="   83.648">  1  5  2 -1</clus>
<clus scale="   91.167">  7  8 -1 -1</clus>
<clus scale="   54.136">  1  5  2 -1</clus>
</clustering>
</event>
<event>
 9    1  0.7586638E-005  0.2252716E+03  0.7546771E-02  0.1166796E+00
         -2   -1    0    0    0  501 -0.00000000000E+00  0.00000000000E+00  0.18464279491E+03  0.18464279491E+03  0.00000000000E+00 0.  1.
         21   -1    0    0  501  502  0.00000000000E+00 -0.00000000000E+00 -0.13958333091E+04  0.13958333091E+04  0.00000000000E+00 0.  1.
        -24    2    1    2    0    0  0.27111654977E+02 -0.46721794236E+02 -0.38618661507E+02  0.10160322034E+03  0.76901531033E+02 0.  0.
         23    2    1    2    0    0  0.90080447019E+02 -0.12367943462E+03  0.88406889947E+02  0.20104740383E+03  0.95881129070E+02 0.  0.
         13    1    3    3    0    0  0.34952919692E+02  0.99589049375E+01 -0.10398938785E+02  0.37802437890E+02  0.00000000000E+00 0. -1.
        -14    1    3    3    0    0 -0.78412647149E+01 -0.56680699173E+02 -0.28219722722E+02  0.63800782453E+02  0.00000000000E+00 0.  1.
        -11    1    4    4    0    0  0.32566435755E+02 -0.49195109631E+02  0.89192023859E+02  0.10693899508E+03  0.00000000000E+00 0.  1.
         11    1    4    4    0    0  0.57514011263E+02 -0.74484324990E+02 -0.78513391161E+00  0.94108408742E+02  0.00000000000E+00 0. -1.
         -1    1    1    2    0  502 -0.11719210200E+03  0.17040122886E+03 -0.12609787426E+04  0.12778254798E+04  0.00000000000E+00 0.  1.
<scales pt_clust_5="13000.00000" pt_clust_6="13000.00000" pt_clust_7="13000.00000" pt_clust_8="13000.00000" pt_clust_9="203.84828"></scales>
<clustering>
<clus scale="   76.902">  5  6 -1 -1</clus>
<clus scale="   93.978">  1  5  2 -1</clus>
<clus scale="   95.881">  7  8 -1 -1</clus>
<clus scale="  203.848">  2  9  1 -1</clus>
<clus scale="  203.848">  2  5  1 -1</clus>
</clustering>
</event>
<event>
 9    1  0.7586638E-005  0.1346150E+03  0.7546771E-02  0.1222608E+00
         21   -1    0    0  501  502  0.00000000000E+00  0.00000000000E+00  0.35487005504E+02  0.35487005504E+02  0.00000000000E+00 0. -1.
          1   -1    0    0  502    0 -0.00000000000E+00 -0.00000000000E+00 -0.82128908682E+03  0.82128908682E+03  0.00000000000E+00 0. -1.
        -24    2    1    2    0    0 -0.93323886351E+02  0.77598835665E+02 -0.35790360651E+03  0.38625960554E+03  0.79815814578E+02 0.  0.
         23    2    1    2    0    0  0.77076950294E+02 -0.24656171908E+02 -0.17666917368E+03  0.21325582069E+03  0.87847965537E+02 0.  0.
         13    1    3    3    0    0 -0.66956427308E+02  0.67294893439E+01 -0.20343883083E+03  0.21427974023E+03  0.00000000000E+00 0. -1.
        -14    1    3    3    0    0 -0.26367459043E+02  0.70869346321E+02 -0.15446477568E+03  0.17197986531E+03  0.00000000000E+00 0.  1.
        -13    1    4    4    0    0  0.38838080509E+02 -0.33888902398E+02 -0.26378707830E+02  0.57902421626E+02  0.00000000000E+00 0. -1.
         13    1    4    4    0    0  0.38238869785E+02  0.92327304902E+01 -0.15029046585E+03  0.15535339906E+03  0.00000000000E+00 0.  1.
          2    1    1    2  501    0  0.16246936057E+02 -0.52942663757E+02 -0.25122930112E+03  0.25726066609E+03  0.00000000000E+00 0. -1.
<scales pt_clust_5="13000.00000" pt_clust_6="13000.00000" pt_clust_7="13000.00000" pt_clust_8="13000.00000" pt_clust_9="55.37952"></scales>
<clustering>
<clus scale="   55.380">  1  9  2 -1</clus>
<clus scale="   79.816">  5  6 -1 -1</clus>
<clus scale="   87.848">  7  8 -1 -1</clus>
<clus scale="  129.516">  2  5  1 -1</clus>
<clus scale="   55.380">  1  5  2 -1</clus>
</clustering>
</event>
<event>
 9    1  0.7586638E-005  0.2146874E+03  0.7546771E-02  0.1160785E+00
         21   -1    0    0  501  502  0.00000000000E+00  0.00000000000E+00  0.14544346435E+03  0.14544346435E+03  0.00000000000E+00 0. -1.
          1   -1    0    0  502    0 -0.00000000000E+00 -0.00000000000E+00 -0.68875883256E+03  0.68875883256E+03  0.00000000000E+00 0. -1.
        -24    2    1    2    0    0 -0.23215915887E+02 -0.92491112367E+02 -0.32129442042E+03  0.34466851849E+03  0.80453082128E+02 0.  0.
         23    2    1    2    0    0  0.10464671547E+03 -0.11646706221E+03 -0.19474208928E+03  0.26361647061E+03  0.83986014326E+02 0.  0.
         13    1    3    3    0    0  0.92678943895E+00 -0.56925396684E+02 -0.27758558330E+03  0.28336392816E+03  0.00000000000E+00 0. -1.
        -14    1    3    3    0    0 -0.24142705326E+02 -0.35565715683E+02 -0.43708837122E+02  0.61304590327E+02  0.00000000000E+00 0.  1.
        -11    1    4    4    0    0  0.36783998101E+02 -0.31569357369E+02 -0.10335321814E+02  0.49563148790E+02  0.00000000000E+00 0.  1.
         11    1    4    4    0    0  0.67862717372E+02 -0.84897704844E+02 -0.18440676746E+03  0.21405332182E+03  0.00000000000E+00 0. -1.
          2    1    1    2  501    0 -0.81430799587E+02  0.20895817458E+03 -0.27278858516E+02  0.22591730781E+03  0.00000000000E+00 0. -1.
<scales pt_clust_5="13000.00000" pt_clust_6="13000.00000" pt_clust_7="13000.00000" pt_clust_8="13000.00000" pt_clust_9="197.57790"></scales>
<clustering>
<clus scale="   80.453">  5  6 -1 -1</clus>
<clus scale="   83.986">  7  8 -1 -1</clus>
<clus scale="  124.765">  2  5  1 -1</clus>
<clus scale="  197.578">  1  9  2 -1</clus>
<clus scale="  197.578">  1  5  2 -1</clus>
</clustering>
</event>
<event>
 9    1  0.7586638E-005  0.1977715E+03  0.7546771E-02  0.1153085E+00
         21   -1    0    0  501  502  0.00000000000E+00  0.00000000000E+00  0.13649574760E+03  0.13649574760E+03  0.00000000000E+00 0.  1.
          1   -1    0    0  502    0 -0.00000000000E+00 -0.00000000000E+00 -0.64365849205E+03  0.64365849205E+03  0.00000000000E+00 0. -1.
        -24    2    1    2    0    0 -0.16309119575E+03 -0.10321196107E+03 -0.34403761376E+03  0.40217711074E+03  0.78314121870E+02 0.  0.
         23    2    1    2    0    0  0.49725443983E+02  0.13041425204E+03  0.11143245092E+02  0.16830780567E+03  0.93396191708E+02 0.  0.
         11    1    3    3    0    0 -0.10862330248E+03 -0.23234479595E+02 -0.17069945234E+03  0.20365943610E+03  0.00000000000E+00 0. -1.
        -12    1    3    3    0    0 -0.54467893271E+02 -0.79977481478E+02 -0.17333816142E+03  0.19851767464E+03  0.00000000000E+00 0.  1.
        -13    1    4    4    0    0 -0.42670494493E+01  0.10621621806E+03 -0.66885730286E+01  0.10651211057E+03  0.00000000000E+00 0.  1.
         13    1    4    4    0    0  0.53992493432E+02  0.24198033981E+02  0.17831818121E+02  0.61795695101E+02  0.00000000000E+00 0. -1.
          2    1    1    2  501    0  0.11336575177E+03 -0.27202290965E+02 -0.17426837579E+03  0.20966932324E+03  0.00000000000E+00 0. -1.
<scales pt_clust_5="13000.00000" pt_clust_6="13000.00000" pt_clust_7="13000.00000" pt_clust_8="13000.00000" pt_clust_9="116.58375"></scales>
<clustering>
<clus scale="   78.314">  5  6 -1 -1</clus>
<clus scale="   93.396">  7  8 -1 -1</clus>
<clus scale="  116.584">  1  9  2 -1</clus>
<clus scale="  191.112">  2  5  1 -1</clus>
<clus scale="  116.584">  1  5  2 -1</clus>
</clustering>
</event>
<event>
 9    1  0.7586638E-005  0.1104325E+03  0.7546771E-02  0.1264156E+00
         21   -1    0    0  501  502  0.00000000000E+00  0.00000000000E+00  0.25980084058E+03  0.25980084058E+03  0.00000000000E+00 0.  1.
          3   -1    0    0  502    0 -0.00000000000E+00 -0.00000000000E+00 -0.62314767477E+02  0.62314767477E+02  0.00000000000E+00 0. -1.
        -24    2    1    2    0    0  0.25884262400E+01 -0.69427866796E+02  0.36315662997E+02  0.11199774518E+03  0.79985866929E+02 0.  0.
         23    2    1    2    0    0  0.18447908382E+02  0.47895109107E+02  0.12329426055E+03  0.16173615421E+03  0.91229611940E+02 0.  0.
         11    1    3    3    0    0  0.15744393134E+02 -0.20442445312E+02 -0.22568755273E+02  0.34280142941E+02  0.00000000000E+00 0. -1.
        -12    1    3    3    0    0 -0.13155966894E+02 -0.48985421484E+02  0.58884418270E+02  0.77717602240E+02  0.00000000000E+00 0.  1.
        -11    1    4    4    0    0 -0.79376384267E+01  0.22846991682E+02  0.12299806680E+03  0.12535356225E+03  0.00000000000E+00 0.  1.
         11    1    4    4    0    0  0.26385546809E+02  0.25048117426E+02  0.29619374902E+00  0.36382591960E+02  0.00000000000E+00 0. -1.
          4    1    1    2  501    0 -0.21036334622E+02  0.21532757689E+02  0.37876149556E+02  0.48381708663E+02  0.00000000000E+00 0. -1.
<scales pt_clust_5="13000.00000" pt_clust_6="13000.00000" pt_clust_7="13000.00000" pt_clust_8="13000.00000" pt_clust_9="30.10294"></scales>
<clustering>
<clus scale="   30.103">  1  9  2 -1</clus>
<clus scale="   79.986">  5  6 -1 -1</clus>
<clus scale="   91.230">  7  8 -1 -1</clus>
<clus scale="  101.342">  2  5  1 -1</clus>
<clus scale="   30.103">  1  5  2 -1</clus>
</clustering>
</event>
<event>
 9    1  0.7586638E-005  0.9682144E+02  0.7546771E-02  0.1288536E+00
         21   -1    0    0  501  502  0.00000000000E+00  0.00000000000E+00  0.40286467046E+03  0.40286467046E+03  0.00000000000E+00 0. -1.
         -2   -1    0    0    0  501 -0.00000000000E+00 -0.00000000000E+00 -0.70106119515E+02  0.70106119515E+02  0.00000000000E+00 0.  1.
         23    2    1    2    0    0 -0.10290364057E+02 -0.49035340043E+02  0.11289061727E+01  0.90770962478E+02  0.75681814425E+02 0.  0.
        -24    2    1    2    0    0  0.18210620197E+02  0.96156347451E+02  0.29902494963E+03  0.32435360081E+03  0.78814135876E+02 0.  0.
         13    1    4    4    0    0  0.45926926524E+02  0.34775701896E+02  0.15502870971E+03  0.16538601167E+03  0.00000000000E+00 0. -1.
        -14    1    4    4    0    0 -0.27716306328E+02  0.61380645555E+02  0.14399623992E+03  0.15896758914E+03  0.00000000000E+00 0.  1.
        -11    1    3    3    0    0  0.95008903202E+01 -0.56365383954E+02  0.21849843577E+02  0.61194273339E+02  0.00000000000E+00 0.  1.
         11    1    3    3    0    0 -0.19791254377E+02  0.73300439115E+01 -0.20720937404E+02  0.29576689139E+02  0.00000000000E+00 0. -1.
         -1    1    1    2    0  502 -0.79202561399E+01 -0.47121007409E+02  0.32604695139E+02  0.57846226684E+02  0.00000000000E+00 0.  1.
<scales pt_clust_5="13000.00000" pt_clust_6="13000.00000" pt_clust_7="13000.00000" pt_clust_8="13000.00000" pt_clust_9="47.78203"></scales>
<clustering>
<clus scale="   47.782">  1  9  2 -1</clus>
<clus scale="   75.682">  7  8 -1 -1</clus>
<clus scale="   78.814">  5  6 -1 -1</clus>
<clus scale="   94.289">  2  7  1 -1</clus>
<clus scale="   47.782">  1  5  2 -1</clus>
</clustering>
</event>
<event>
 9    1  0.7586638E-005  0.1115226E+03  0.7546771E-02  0.1261393E+00
          1   -1    0    0  502    0 -0.00000000000E+00  0.00000000000E+00  0.71700643812E+02  0.71700643812E+02  0.00000000000E+00 0. -1.
         21   -1    0    0  501  502  0.00000000000E+00 -0.00000000000E+00 -0.28174357136E+03  0.28174357136E+03  0.00000000000E+00 0.  1.
         23    2    1    2    0    0 -0.61896990869E+02 -0.27849742669E+02 -0.23816093979E+02  0.11616184861E+03  0.91211419757E+02 0.  0.
        -24    2    1    2    0    0  0.64024928455E+02 -0.13293053195E+02 -0.11915819528E+03  0.15857112206E+03  0.81671466998E+02 0.  0.
         13    1    4    4    0    0  0.25520378600E+02  0.10674230163E+02  0.34180332662E+01  0.27873138770E+02  0.00000000000E+00 0. -1.
        -14    1    4    4    0    0  0.38504549854E+02 -0.23967283358E+02 -0.12257622855E+03  0.13069798329E+03  0.00000000000E+00 0.  1.
        -11    1    3    3    0    0 -0.23437462754E+02 -0.17437875336E+02  0.34705755797E+02  0.45363902412E+02  0.00000000000E+00 0.  1.
         11    1    3    3    0    0 -0.38459528115E+02 -0.10411867333E+02 -0.58521849777E+02  0.70797946195E+02  0.00000000000E+00 0. -1.
          2    1    1    2  501    0 -0.21279375857E+01  0.41142795865E+02 -0.67068638292E+02  0.78711244509E+02  0.00000000000E+00 0. -1.
<scales pt_clust_5="13000.00000" pt_clust_6="13000.00000" pt_clust_7="13000.00000" pt_clust_8="13000.00000" pt_clust_9="41.19779"></scales>
<clustering>
<clus scale="   41.198">  2  9  1 -1</clus>
<clus scale="   81.671">  5  6 -1 -1</clus>
<clus scale="   91.211">  7  8 -1 -1</clus>
<clus scale="  103.865">  2  5  1 -1</clus>
<clus scale="   41.198">  2  5  1 -1</clus>
</clustering>
</event>
<event>
 9    1  0.7586638E-005  0.9552045E+02  0.7546771E-02  0.1296546E+00
          1   -1    0    0  502    0 -0.00000000000E+00  0.00000000000E+00  0.18754465927E+03  0.18754465927E+03  0.00000000000E+00 0. -1.
         21   -1    0    0  501  502  0.00000000000E+00 -0.00000000000E+00 -0.82305666438E+02  0.82305666438E+02  0.00000000000E+00 0.  1.
         23    2    1    2    0    0  0.45586813612E+02  0.14857747262E+02  0.62373657544E+02  0.11976816819E+03  0.90305208742E+02 0.  0.
        -24    2    1    2    0    0  0.71765369290E+00 -0.14140906970E+02 -0.91785950843E+01  0.80417329661E+02  0.78627094728E+02 0.  0.
         13    1    4    4    0    0  0.24288958843E+02 -0.17072582182E+02  0.24988246093E+02  0.38805141758E+02  0.00000000000E+00 0. -1.
        -14    1    4    4    0    0 -0.23571305150E+02  0.29316752120E+01 -0.34166841178E+02  0.41612187903E+02  0.00000000000E+00 0.  1.
        -11    1    3    3    0    0  0.26029215638E+02 -0.20251377966E+02 -0.12111137316E+02  0.35132862442E+02  0.00000000000E+00 0.  1.
         11    1    3    3    0    0  0.19557597974E+02  0.35109125228E+02  0.74484794861E+02  0.84635305743E+02  0.00000000000E+00 0. -1.
          2    1    1    2  501    0 -0.46304467305E+02 -0.71684029174E+00  0.52043930372E+02  0.69664827861E+02  0.00000000000E+00 0. -1.
<scales pt_clust_5="13000.00000" pt_clust_6="13000.00000" pt_clust_7="13000.00000" pt_clust_8="13000.00000" pt_clust_9="46.31004"></scales>
<clustering>
<clus scale="   46.310">  2  9  1 -1</clus>
<clus scale="   78.627">  5  6 -1 -1</clus>
<clus scale="   84.566">  2  5  1 -1</clus>
<clus scale="   90.305">  7  8 -1 -1</clus>
<clus scale="   46.310">  2  5  1 -1</clus>
</clustering>
</event>
<event>
 9    1  0.7586638E-005  0.1216209E+03  0.7546771E-02  0.1244457E+00
         21   -1    0    0  501  502  0.00000000000E+00  0.00000000000E+00  0.36549390002E+02  0.36549390002E+02  0.00000000000E+00 0.  1.
          1   -1    0    0  502    0 -0.00000000000E+00 -0.00000000000E+00 -0.51652409097E+03  0.51652409097E+03  0.00000000000E+00 0. -1.
         23    2    1    2    0    0 -0.57435918456E+01 -0.69979864172E+02 -0.25093733752E+03  0.27640339131E+03  0.92190656410E+02 0.  0.
        -24    2    1    2    0    0 -0.32936871706E+01  0.90428379737E+02 -0.22321439280E+03  0.25356768312E+03  0.79270199532E+02 0.  0.
         11    1    4    4    0    0 -0.20565122753E+02  0.70011252695E+00 -0.87997126339E+02  0.90370950395E+02  0.00000000000E+00 0. -1.
        -12    1    4    4    0    0  0.17271435582E+02  0.89728267210E+02 -0.13521726646E+03  0.16319673272E+03  0.00000000000E+00 0.  1.
        -13    1    3    3    0    0  0.31546416247E+02  0.47999658466E+01 -0.59301974972E+02  0.67341965265E+02  0.00000000000E+00 0.  1.
         13    1    3    3    0    0 -0.37290008093E+02 -0.74779830018E+02 -0.19163536255E+03  0.20906142605E+03  0.00000000000E+00 0. -1.
          2    1    1    2  501    0  0.90372790161E+01 -0.20448515565E+02 -0.58229706508E+01  0.23102406542E+02  0.00000000000E+00 0. -1.
<scales pt_clust_5="13000.00000" pt_clust_6="13000.00000" pt_clust_7="13000.00000" pt_clust_8="13000.00000" pt_clust_9="22.35652"></scales>
<clustering>
<clus scale="   22.357">  1  9  2 -1</clus>
<clus scale="   79.270">  5  6 -1 -1</clus>
<clus scale="   92.191">  7  8 -1 -1</clus>
<clus scale="  112.144">  1  5  2 -1</clus>
<clus scale="   22.357">  1  5  2 -1</clus>
</clustering>
</event>
<event>
 9    1  0.7586638E-005  0.2029480E+03  0.7546771E-02  0.1175486E+00
         21   -1    0    0  501  502  0.00000000000E+00  0.00000000000E+00  0.32338070919E+02  0.32338070919E+02  0.00000000000E+00 0. -1.
          1   -1    0    0  502    0 -0.00000000000E+00 -0.00000000000E+00 -0.21250477783E+04  0.21250477783E+04  0.00000000000E+00 0. -1.
         23    2    1    2    0    0 -0.38359277685E+02  0.38113638617E+02 -0.29752512909E+03  0.31564215983E+03  0.90469259906E+02 0.  0.
        -24    2    1    2    0    0 -0.13368567344E+03 -0.12739390953E+03 -0.65770616262E+03  0.68786866232E+03  0.80528459453E+02 0.  0.
         11    1    4    4    0    0 -0.11590850407E+03 -0.13837258327E+03 -0.59448935276E+03  0.62128845447E+03  0.00000000000E+00 0. -1.
        -12    1    4    4    0    0 -0.17777169375E+02  0.10978673736E+02 -0.63216809863E+02  0.66580207849E+02  0.00000000000E+00 0.  1.
        -11    1    3    3    0    0  0.12385180419E+02  0.25325762321E+02 -0.23608723667E+02  0.36771711468E+02  0.00000000000E+00 0. -1.
         11    1    3    3    0    0 -0.50744458103E+02  0.12787876296E+02 -0.27391640543E+03  0.27887044836E+03  0.00000000000E+00 0.  1.
          2    1    1    2  501    0  0.17204495113E+03  0.89280270915E+02 -0.11374784156E+04  0.11538750270E+04  0.00000000000E+00 0. -1.
<scales pt_clust_5="13000.00000" pt_clust_6="13000.00000" pt_clust_7="13000.00000" pt_clust_8="13000.00000" pt_clust_9="186.28767"></scales>
<clustering>
<clus scale="   80.528">  5  6 -1 -1</clus>
<clus scale="   90.469">  7  8 -1 -1</clus>
<clus scale="  105.398">  2  7  1 -1</clus>
<clus scale="  186.288">  1  9  2 -1</clus>
<clus scale="  186.288">  1  5  2 -1</clus>
</clustering>
</event>
<event>
 9    1  0.7586638E-005  0.1016926E+03  0.7546771E-02  0.1281610E+00
          1   -1    0    0  502    0 -0.00000000000E+00  0.00000000000E+00  0.37418010283E+03  0.37418010283E+03  0.00000000000E+00 0. -1.
         21   -1    0    0  501  502  0.00000000000E+00 -0.00000000000E+00 -0.46826732267E+02  0.46826732267E+02  0.00000000000E+00 0. -1.
        -24    2    1    2    0    0 -0.21057239318E+02 -0.25302523548E+02  0.14423495660E+03  0.16882352585E+03  0.81326718539E+02 0.  0.
         23    2    1    2    0    0 -0.35163084734E+01  0.71054950039E+02  0.15383607659E+03  0.19256285083E+03  0.91398811296E+02 0.  0.
         11    1    3    3    0    0 -0.50576059822E+02 -0.27796791237E+02  0.87462620559E+02  0.10478697164E+03  0.00000000000E+00 0. -1.
        -12    1    3    3    0    0  0.29518820504E+02  0.24942676888E+01  0.56772336040E+02  0.64036554207E+02  0.00000000000E+00 0.  1.
        -13    1    4    4    0    0  0.31971368107E+02  0.90183017957E+01  0.92836526144E+02  0.98600804928E+02  0.00000000000E+00 0.  1.
         13    1    4    4    0    0 -0.35487676581E+02  0.62036648243E+02  0.60999550448E+02  0.93962045897E+02  0.00000000000E+00 0. -1.
          2    1    1    2  501    0  0.24573547791E+02 -0.45752426491E+02  0.29282337371E+02  0.59620458425E+02  0.00000000000E+00 0. -1.
<scales pt_clust_5="13000.00000" pt_clust_6="13000.00000" pt_clust_7="13000.00000" pt_clust_8="13000.00000" pt_clust_9="51.93403"></scales>
<clustering>
<clus scale="   51.934">  2  9  1 -1</clus>
<clus scale="   81.327">  5  6 -1 -1</clus>
<clus scale="   91.399">  7  8 -1 -1</clus>
<clus scale="   92.745">  1  5  2 -1</clus>
<clus scale="   51.934">  2  5  1 -1</clus>
</clustering>
</event>
<event>
 9    1  0.7586638E-005  0.9358143E+02  0.7546771E-02  0.1301678E+00
         21   -1    0    0  501  502  0.00000000000E+00  0.00000000000E+00  0.56584051780E+02  0.56584051780E+02  0.00000000000E+00 0. -1.
         -4   -1    0    0    0  501 -0.00000000000E+00 -0.00000000000E+00 -0.50112684954E+03  0.50112684954E+03  0.00000000000E+00 0.  1.
         23    2    1    2    0    0 -0.69961620847E+01  0.75991106089E+01 -0.32995127388E+03  0.34289519360E+03  0.92750082960E+02 0.  0.
        -24    2    1    2    0    0 -0.20135197061E+02 -0.42435998085E+02 -0.16151923188E+01  0.93517023186E+02  0.80849147709E+02 0.  0.
         13    1    4    4    0    0 -0.29186855282E+02 -0.53849802417E+02  0.22575469860E+02  0.65278829501E+02  0.00000000000E+00 0. -1.
        -14    1    4    4    0    0  0.90516582212E+01  0.11413804333E+02 -0.24190662179E+02  0.28238193685E+02  0.00000000000E+00 0.  1.
        -11    1    3    3    0    0  0.40421760188E+02  0.10315892964E+02 -0.10498500534E+03  0.11296985302E+03  0.00000000000E+00 0.  1.
         11    1    3    3    0    0 -0.47417922273E+02 -0.27167823555E+01 -0.22496626854E+03  0.22992534058E+03  0.00000000000E+00 0. -1.
         -3    1    1    2    0  502  0.27131359145E+02  0.34836887476E+02 -0.11297633156E+03  0.12129868453E+03  0.00000000000E+00 0.  1.
<scales pt_clust_5="13000.00000" pt_clust_6="13000.00000" pt_clust_7="13000.00000" pt_clust_8="13000.00000" pt_clust_9="44.15565"></scales>
<clustering>
<clus scale="   44.156">  1  9  2 -1</clus>
<clus scale="   80.849">  5  6 -1 -1</clus>
<clus scale="   81.802">  1  5  2 -1</clus>
<clus scale="   92.750">  7  8 -1 -1</clus>
<clus scale="   44.156">  1  5  2 -1</clus>
</clustering>
</event>
<event>
 9    1  0.7586638E-005  0.1071151E+03  0.7546771E-02  0.1270456E+00
          1   -1    0    0  502    0 -0.00000000000E+00  0.00000000000E+00  0.17538269330E+03  0.17538269330E+03  0.00000000000E+00 0. -1.
         21   -1    0    0  501  502  0.00000000000E+00 -0.00000000000E+00 -0.87944250814E+02  0.87944250814E+02  0.00000000000E+00 0. -1.
         23    2    1    2    0    0  0.23274928215E+02 -0.53461750229E+02  0.63269074306E+02  0.12491346507E+03  0.90556705830E+02 0.  0.
        -24    2    1    2    0    0  0.16094949320E+01  0.58848979870E+02 -0.54111780935E+01  0.99384445284E+02  0.79888636303E+02 0.  0.
         13    1    4    4    0    0  0.20069506782E+02  0.72702919983E+02 -0.92491396798E+01  0.75987145369E+02  0.00000000000E+00 0. -1.
        -14    1    4    4    0    0 -0.18460011850E+02 -0.13853940113E+02  0.38379615863E+01  0.23397299915E+02  0.00000000000E+00 0.  1.
        -11    1    3    3    0    0  0.39604336495E+02 -0.69827917813E+02  0.62573855844E+02  0.10178373647E+03  0.00000000000E+00 0. -1.
         11    1    3    3    0    0 -0.16329408279E+02  0.16366167584E+02  0.69521846200E+00  0.23129728595E+02  0.00000000000E+00 0.  1.
          2    1    1    2  501    0 -0.24884423147E+02 -0.53872296417E+01  0.29580546272E+02  0.39029033761E+02  0.00000000000E+00 0. -1.
<scales pt_clust_5="13000.00000" pt_clust_6="13000.00000" pt_clust_7="13000.00000" pt_clust_8="13000.00000" pt_clust_9="25.46090"></scales>
<clustering>
<clus scale="   25.461">  2  9  1 -1</clus>
<clus scale="   79.889">  5  6 -1 -1</clus>
<clus scale="   90.557">  7  8 -1 -1</clus>
<clus scale="   98.261">  2  5  1 -1</clus>
<clus scale="   25.461">  2  5  1 -1</clus>
</clustering>
</event>
<event>
 9    1  0.7586638E-005  0.1051245E+03  0.7546771E-02  0.1273364E+00
          1   -1    0    0  502    0 -0.00000000000E+00  0.00000000000E+00  0.64537624730E+03  0.64537624730E+03  0.00000000000E+00 0. -1.
         21   -1    0    0  501  502  0.00000000000E+00 -0.00000000000E+00 -0.21410233494E+02  0.21410233494E+02  0.00000000000E+00 0.  1.
         23    2    1    2    0    0  0.39745195624E+02 -0.43461552658E+02  0.34537360649E+03  0.36241123108E+03  0.92684331036E+02 0.  0.
        -24    2    1    2    0    0 -0.38317593377E+02  0.16608035825E+02  0.23275730727E+03  0.25123387402E+03  0.84843565166E+02 0.  0.
         13    1    4    4    0    0 -0.11287728146E+02  0.42184816640E+02  0.18810812134E+03  0.19311042664E+03  0.00000000000E+00 0. -1.
        -14    1    4    4    0    0 -0.27029865231E+02 -0.25576780815E+02  0.44649185930E+02  0.58123447380E+02  0.00000000000E+00 0.  1.
        -13    1    3    3    0    0  0.50898293412E+01 -0.51308001928E+02  0.30186591607E+03  0.30623756906E+03  0.00000000000E+00 0.  1.
         13    1    3    3    0    0  0.34655366282E+02  0.78464492702E+01  0.43507690425E+02  0.56173662017E+02  0.00000000000E+00 0. -1.
          2    1    1    2  501    0 -0.14276022470E+01  0.26853516833E+02  0.45835100040E+02  0.53141375690E+02  0.00000000000E+00 0. -1.
<scales pt_clust_5="13000.00000" pt_clust_6="13000.00000" pt_clust_7="13000.00000" pt_clust_8="13000.00000" pt_clust_9="26.89144"></scales>
<clustering>
<clus scale="   26.891">  2  9  1 -1</clus>
<clus scale="   84.844">  5  6 -1 -1</clus>
<clus scale="   92.684">  7  8 -1 -1</clus>
<clus scale="   98.281">  2  5  1 -1</clus>
<clus scale="   26.891">  2  5  1 -1</clus>
</clustering>
</event>
<event>
 9    1  0.7586638E-005  0.1157183E+03  0.7546771E-02  0.1254948E+00
         21   -1    0    0  501  502  0.00000000000E+00  0.00000000000E+00  0.80922989256E+02  0.80922989256E+02  0.00000000000E+00 0. -1.
          1   -1    0    0  502    0 -0.00000000000E+00 -0.00000000000E+00 -0.73996226588E+03  0.73996226588E+03  0.00000000000E+00 0. -1.
        -24    2    1    2    0    0 -0.56531943570E+02 -0.35840669011E+02 -0.50341210351E+03  0.51436191666E+03  0.81633456065E+02 0.  0.
         23    2    1    2    0    0 -0.59495463250E+02  0.42519516550E+01  0.21912648271E+01  0.10811248809E+03  0.90142771195E+02 0.  0.
         11    1    3    3    0    0 -0.67263783756E+02 -0.51013774320E+02 -0.44889160278E+03  0.45676087050E+03  0.00000000000E+00 0. -1.
        -12    1    3    3    0    0  0.10731840185E+02  0.15173105308E+02 -0.54520500734E+02  0.57601046160E+02  0.00000000000E+00 0.  1.
        -11    1    4    4    0    0 -0.34615950436E+02 -0.28727293915E+02 -0.31407551259E+02  0.54863063315E+02  0.00000000000E+00 0.  1.
         11    1    4    4    0    0 -0.24879512813E+02  0.32979245570E+02  0.33598816086E+02  0.53249424772E+02  0.00000000000E+00 0. -1.
          2    1    1    2  501    0  0.11602740682E+03  0.31588717356E+02 -0.15781843793E+03  0.19841085038E+03  0.00000000000E+00 0. -1.
<scales pt_clust_5="13000.00000" pt_clust_6="13000.00000" pt_clust_7="13000.00000" pt_clust_8="13000.00000" pt_clust_9="72.56044"></scales>
<clustering>
<clus scale="   81.633">  5  6 -1 -1</clus>
<clus scale="   90.143">  7  8 -1 -1</clus>
<clus scale="  105.567">  2  5  1 -1</clus>
<clus scale="   72.560">  1  9  2 -1</clus>
<clus scale="   72.560">  1  5  2 -1</clus>
</clustering>
</event>
<event>
 9    1  0.7586638E-005  0.1040984E+03  0.7546771E-02  0.1275699E+00
         21   -1    0    0  501  502  0.00000000000E+00  0.00000000000E+00  0.56639411070E+03  0.56639411070E+03  0.00000000000E+00 0.  1.
          1   -1    0    0  502    0 -0.00000000000E+00 -0.00000000000E+00 -0.13722970771E+03  0.13722970771E+03  0.00000000000E+00 0. -1.
         23    2    1    2    0    0 -0.54526911019E+02 -0.56164371536E+01 -0.98080726165E+02  0.14416723078E+03  0.90330687999E+02 0.  0.
        -24    2    1    2    0    0 -0.85412667983E+01 -0.96595237949E+01  0.45447399548E+03  0.46195485465E+03  0.81788847219E+02 0.  0.
         11    1    4    4    0    0 -0.25775201877E+02  0.30002502678E+02  0.21800460873E+03  0.22156380712E+03  0.00000000000E+00 0. -1.
        -12    1    4    4    0    0  0.17233935079E+02 -0.39662026473E+02  0.23646938675E+03  0.24039104753E+03  0.00000000000E+00 0.  1.
        -13    1    3    3    0    0 -0.31055618879E+02 -0.32982687092E+02 -0.65264937558E+01  0.45770123799E+02  0.00000000000E+00 0.  1.
         13    1    3    3    0    0 -0.23471292140E+02  0.27366249939E+02 -0.91554232409E+02  0.98397106982E+02  0.00000000000E+00 0. -1.
          2    1    1    2  501    0  0.63068177817E+02  0.15275960948E+02  0.72771133681E+02  0.97501732976E+02  0.00000000000E+00 0. -1.
<scales pt_clust_5="13000.00000" pt_clust_6="13000.00000" pt_clust_7="13000.00000" pt_clust_8="13000.00000" pt_clust_9="64.89183"></scales>
<clustering>
<clus scale="   64.892">  1  9  2 -1</clus>
<clus scale="   81.789">  5  6 -1 -1</clus>
<clus scale="   90.331">  7  8 -1 -1</clus>
<clus scale="   96.779">  1  5  2 -1</clus>
<clus scale="   64.892">  1  5  2 -1</clus>
</clustering>
</event>
<event>
 9    1  0.7586638E-005  0.1244155E+03  0.7546771E-02  0.1257204E+00
         -2   -1    0    0    0  501 -0.00000000000E+00  0.00000000000E+00  0.71676099186E+02  0.71676099186E+02  0.00000000000E+00 0.  1.
         21   -1    0    0  501  502  0.00000000000E+00 -0.00000000000E+00 -0.68757513234E+03  0.68757513234E+03  0.00000000000E+00 0.  1.
        -24    2    1    2    0    0 -0.62016196808E+01  0.77418642511E+01 -0.99268570968E+02  0.12826908794E+03  0.80624519788E+02 0.  0.
         23    2    1    2    0    0  0.62897379067E+02  0.54966631901E+02 -0.53087713541E+03  0.54525156374E+03  0.92148380042E+02 0.  0.
         13    1    3    3    0    0 -0.42373051297E+02  0.13563280148E+02 -0.51187362301E+02  0.67820233735E+02  0.00000000000E+00 0. -1.
        -14    1    3    3    0    0  0.36171431616E+02 -0.58214158965E+01 -0.48081208668E+02  0.60448854209E+02  0.00000000000E+00 0.  1.
        -11    1    4    4    0    0  0.40670929936E+02  0.75031326030E+02 -0.46661377715E+03  0.47435455248E+03  0.00000000000E+00 0.  1.
         11    1    4    4    0    0  0.22226449131E+02 -0.20064694129E+02 -0.64263358257E+02  0.70897011262E+02  0.00000000000E+00 0. -1.
         -1    1    1    2    0  502 -0.56695759387E+02 -0.62708496152E+02  0.14246673225E+02  0.85730579842E+02  0.00000000000E+00 0.  1.
<scales pt_clust_5="13000.00000" pt_clust_6="13000.00000" pt_clust_7="13000.00000" pt_clust_8="13000.00000" pt_clust_9="83.59361"></scales>
<clustering>
<clus scale="   80.625">  5  6 -1 -1</clus>
<clus scale="   81.232">  1  5  2 -1</clus>
<clus scale="   83.594">  2  9  1 -1</clus>
<clus scale="   92.148">  7  8 -1 -1</clus>
<clus scale="   83.594">  2  5  1 -1</clus>
</clustering>
</event>
<event>
 9    1  0.7586638E-005  0.1232820E+03  0.7546771E-02  0.1241067E+00
         21   -1    0    0  501  502  0.00000000000E+00  0.00000000000E+00  0.63080194988E+03  0.63080194988E+03  0.00000000000E+00 0. -1.
         -4   -1    0    0    0  501 -0.00000000000E+00 -0.00000000000E+00 -0.69087681401E+02  0.69087681401E+02  0.00000000000E+00 0.  1.
         23    2    1    2    0    0 -0.84989639536E+02 -0.41275500553E+01  0.38803395550E+01  0.12510415875E+03  0.91628150713E+02 0.  0.
        -24    2    1    2    0    0  0.64275448210E+02  0.27090156291E+02  0.40030968385E+03  0.41425433289E+03  0.80582873661E+02 0.  0.
         11    1    4    4    0    0 -0.42489723536E+01  0.32614683854E+02  0.77237876455E+02  0.83949156805E+02  0.00000000000E+00 0. -1.
        -12    1    4    4    0    0  0.68524420563E+02 -0.55245275631E+01  0.32307180739E+03  0.33030517609E+03  0.00000000000E+00 0.  1.
        -13    1    3    3    0    0  0.80796429401E+01  0.21469679867E+02  0.15787527671E+02  0.27847330457E+02  0.00000000000E+00 0. -1.
         13    1    3    3    0    0 -0.93069282476E+02 -0.25597229923E+02 -0.11907188116E+02  0.97256828290E+02  0.00000000000E+00 0.  1.
         -3    1    1    2    0  502  0.20714191326E+02 -0.22962606235E+02  0.15752424508E+03  0.16053113964E+03  0.00000000000E+00 0.  1.
<scales pt_clust_5="13000.00000" pt_clust_6="13000.00000" pt_clust_7="13000.00000" pt_clust_8="13000.00000" pt_clust_9="30.92505"></scales>
<clustering>
<clus scale="   30.925">  1  9  2 -1</clus>
<clus scale="   80.583">  5  6 -1 -1</clus>
<clus scale="   91.628">  7  8 -1 -1</clus>
<clus scale="  115.310">  1  5  2 -1</clus>
<clus scale="   30.925">  1  5  2 -1</clus>
</clustering>
</event>
<event>
 9    1  0.7586638E-005  0.1632720E+03  0.7546771E-02  0.1186793E+00
         21   -1    0    0  501  502  0.00000000000E+00  0.00000000000E+00  0.24629202857E+03  0.24629202857E+03  0.00000000000E+00 0.  1.
         -4   -1    0    0    0  501 -0.00000000000E+00 -0.00000000000E+00 -0.73269267291E+03  0.73269267291E+03  0.00000000000E+00 0.  1.
        -24    2    1    2    0    0 -0.13210685967E+03  0.92006345509E+01 -0.60782206958E+03  0.62700454813E+03  0.78422962556E+02 0.  0.
         23    2    1    2    0    0  0.16573810620E+03 -0.11323973662E+02 -0.34757333628E+02  0.19220727069E+03  0.90212030455E+02 0.  0.
         13    1    3    3    0    0 -0.61867229538E+02 -0.34633185272E+02 -0.29676139260E+03  0.30511364400E+03  0.00000000000E+00 0. -1.
        -14    1    3    3    0    0 -0.70239630128E+02  0.43833819823E+02 -0.31106067698E+03  0.32189090413E+03  0.00000000000E+00 0.  1.
        -13    1    4    4    0    0  0.74362810815E+02  0.15682092980E+02 -0.56225595792E+02  0.94536095195E+02  0.00000000000E+00 0.  1.
         13    1    4    4    0    0  0.91375295384E+02 -0.27006066642E+02  0.21468262164E+02  0.97671175494E+02  0.00000000000E+00 0. -1.
         -3    1    1    2    0  502 -0.33631246533E+02  0.21233391116E+01  0.15617875887E+03  0.15977288266E+03  0.00000000000E+00 0.  1.
<scales pt_clust_5="13000.00000" pt_clust_6="13000.00000" pt_clust_7="13000.00000" pt_clust_8="13000.00000" pt_clust_9="33.69821"></scales>
<clustering>
<clus scale="   33.698">  1  9  2 -1</clus>
<clus scale="   78.423">  5  6 -1 -1</clus>
<clus scale="   90.212">  7  8 -1 -1</clus>
<clus scale="  157.066">  2  5  1 -1</clus>
<clus scale="   33.698">  1  5  2 -1</clus>
</clustering>
</event>
<event>
 9    1  0.7586638E-005  0.2341417E+03  0.7546771E-02  0.1124726E+00
         21   -1    0    0  501  502  0.00000000000E+00  0.00000000000E+00  0.34594450170E+03  0.34594450170E+03  0.00000000000E+00 0. -1.
          1   -1    0    0  502    0 -0.00000000000E+00 -0.00000000000E+00 -0.33760638643E+03  0.33760638643E+03  0.00000000000E+00 0. -1.
         23    2    1    2    0    0 -0.12379286623E+03  0.15822957608E+03 -0.99834019538E+02  0.24223649256E+03  0.91380601845E+02 0.  0.
        -24    2    1    2    0    0  0.15787099860E+03 -0.17405882096E+03 -0.72005018973E+02  0.25726089563E+03  0.76017894664E+02 0.  0.
         13    1    4    4    0    0  0.21246959651E+01 -0.38583665892E+02 -0.68286155762E-02  0.38642122784E+02  0.00000000000E+00 0. -1.
        -14    1    4    4    0    0  0.15574630264E+03 -0.13547515507E+03 -0.71998190357E+02  0.21861877284E+03  0.00000000000E+00 0.  1.
        -11    1    3    3    0    0 -0.58942078693E+02  0.61368312324E+02 -0.92135606189E+02  0.12541614061E+03  0.00000000000E+00 0.  1.
         11    1    3    3    0    0 -0.64850787533E+02  0.96861263759E+02 -0.76984133494E+01  0.11682035195E+03  0.00000000000E+00 0. -1.
          2    1    1    2  501    0 -0.34078132375E+02  0.15829244874E+02  0.18017715378E+03  0.18405349995E+03  0.00000000000E+00 0. -1.
<scales pt_clust_5="13000.00000" pt_clust_6="13000.00000" pt_clust_7="13000.00000" pt_clust_8="13000.00000" pt_clust_9="37.57505"></scales>
<clustering>
<clus scale="   37.575">  1  9  2 -1</clus>
<clus scale="   76.018">  5  6 -1 -1</clus>
<clus scale="   91.381">  7  8 -1 -1</clus>
<clus scale="  228.584">  1  5  2 -1</clus>
<clus scale="   37.575">  1  5  2 -1</clus>
</clustering>
</event>
<event>
 9    1  0.7586638E-005  0.2239719E+03  0.7546771E-02  0.1160102E+00
          1   -1    0    0  502    0 -0.00000000000E+00  0.00000000000E+00  0.12850503104E+04  0.12850503104E+04  0.00000000000E+00 0. -1.
         21   -1    0    0  501  502  0.00000000000E+00 -0.00000000000E+00 -0.10547334902E+03  0.10547334902E+03  0.00000000000E+00 0. -1.
        -24    2    1    2    0    0 -0.59838088030E+02 -0.48289584333E+02  0.27509172836E+03  0.29688258728E+03  0.80940292102E+02 0.  0.
         23    2    1    2    0    0  0.18219256157E+03 -0.11457851247E+03  0.85140637595E+03  0.88313216683E+03  0.93312604079E+02 0.  0.
         13    1    3    3    0    0 -0.74754471689E+01 -0.57842055766E+02  0.14982168932E+03  0.16077351871E+03  0.00000000000E+00 0. -1.
        -14    1    3    3    0    0 -0.52362640861E+02  0.95524714333E+01  0.12527003903E+03  0.13610906857E+03  0.00000000000E+00 0.  1.
        -11    1    4    4    0    0  0.33532496042E+02 -0.12397761552E+02  0.48745466638E+02  0.60450420181E+02  0.00000000000E+00 0.  1.
         11    1    4    4    0    0  0.14866006553E+03 -0.10218075092E+03  0.80266090931E+03  0.82268174665E+03  0.00000000000E+00 0. -1.
          2    1    1    2  501    0 -0.12235447354E+03  0.16286809681E+03  0.53078857099E+02  0.21050890533E+03  0.00000000000E+00 0. -1.
<scales pt_clust_5="13000.00000" pt_clust_6="13000.00000" pt_clust_7="13000.00000" pt_clust_8="13000.00000" pt_clust_9="203.60787"></scales>
<clustering>
<clus scale="   80.940">  5  6 -1 -1</clus>
<clus scale="   93.313">  7  8 -1 -1</clus>
<clus scale="  111.641">  1  5  2 -1</clus>
<clus scale="  203.608">  2  9  1 -1</clus>
<clus scale="  203.608">  2  5  1 -1</clus>
</clustering>
</event>
<event>
 9    1  0.7586638E-005  0.1137484E+03  0.7546771E-02  0.1257831E+00
         21   -1    0    0  501  502  0.00000000000E+00  0.00000000000E+00  0.41381501479E+03  0.41381501479E+03  0.00000000000E+00 0.  1.
         -2   -1    0    0    0  501 -0.00000000000E+00 -0.00000000000E+00 -0.88876608470E+02  0.88876608470E+02  0.00000000000E+00 0.  1.
         23    2    1    2    0    0 -0.42222413453E+02 -0.66066660656E+02  0.51263387440E+02  0.13096903792E+03  0.91528236924E+02 0.  0.
        -24    2    1    2    0    0  0.73200902654E+02 -0.16230770750E+02  0.26058231769E+03  0.28281840752E+03  0.80382194973E+02 0.  0.
         11    1    4    4    0    0 -0.12276715874E+02 -0.20171077797E+02  0.70895835395E+02  0.74724892831E+02  0.00000000000E+00 0. -1.
        -12    1    4    4    0    0  0.85477618528E+02  0.39403070468E+01  0.18968648230E+03  0.20809351469E+03  0.00000000000E+00 0.  1.
        -11    1    3    3    0    0  0.21750237596E+02  0.15984403458E+01 -0.47247624177E+01  0.22314820791E+02  0.00000000000E+00 0. -1.
         11    1    3    3    0    0 -0.63972651049E+02 -0.67665101002E+02  0.55988149858E+02  0.10865421713E+03  0.00000000000E+00 0.  1.
         -1    1    1    2    0  502 -0.30978489201E+02  0.82297431406E+02  0.13092701187E+02  0.88904177819E+02  0.00000000000E+00 0.  1.
<scales pt_clust_5="13000.00000" pt_clust_6="13000.00000" pt_clust_7="13000.00000" pt_clust_8="13000.00000" pt_clust_9="87.93487"></scales>
<clustering>
<clus scale="   80.382">  5  6 -1 -1</clus>
<clus scale="   87.935">  1  9  2 -1</clus>
<clus scale="   91.528">  7  8 -1 -1</clus>
<clus scale="  104.988">  1  5  2 -1</clus>
<clus scale="   87.935">  1  5  2 -1</clus>
</clustering>
</event>
<event>
 9    1  0.7586638E-005  0.1179422E+03  0.7546771E-02  0.1248735E+00
         21   -1    0    0  501  502  0.00000000000E+00  0.00000000000E+00  0.96318501989E+02  0.96318501989E+02  0.00000000000E+00 0.  1.
         -2   -1    0    0    0  501 -0.00000000000E+00 -0.00000000000E+00 -0.53741443474E+03  0.53741443474E+03  0.00000000000E+00 0.  1.
         23    2    1    2    0    0 -0.66661079673E+01 -0.72438802632E+02 -0.41232771344E+03  0.42818136766E+03  0.89628807972E+02 0.  0.
        -24    2    1    2    0    0  0.55694842215E+02  0.10379671728E+03 -0.97193523620E+01  0.14431436694E+03  0.82803965648E+02 0.  0.
         13    1    4    4    0    0 -0.12669570303E+01  0.47868169812E+02  0.28588511989E+02  0.55769793607E+02  0.00000000000E+00 0. -1.
        -14    1    4    4    0    0  0.56961799245E+02  0.55928547465E+02 -0.38307864351E+02  0.88544573329E+02  0.00000000000E+00 0.  1.
        -13    1    3    3    0    0  0.15947369327E+02 -0.63946265549E+02 -0.38919523399E+03  0.39473582765E+03  0.00000000000E+00 0.  1.
         13    1    3    3    0    0 -0.22613477294E+02 -0.84925370831E+01 -0.23132479452E+02  0.33445540017E+02  0.00000000000E+00 0. -1.
         -1    1    1    2    0  502 -0.49028734248E+02 -0.31357914645E+02 -0.19048866945E+02  0.61237202130E+02  0.00000000000E+00 0.  1.
<scales pt_clust_5="13000.00000" pt_clust_6="13000.00000" pt_clust_7="13000.00000" pt_clust_8="13000.00000" pt_clust_9="58.19910"></scales>
<clustering>
<clus scale="   58.199">  1  9  2 -1</clus>
<clus scale="   82.804">  5  6 -1 -1</clus>
<clus scale="   89.629">  7  8 -1 -1</clus>
<clus scale="  112.843">  1  5  2 -1</clus>
<clus scale="   58.199">  1  5  2 -1</clus>
</clustering>
</event>
<event>
 9    1  0.7586638E-005  0.1594740E+03  0.7546771E-02  0.1191321E+00
         21   -1    0    0  501  502  0.00000000000E+00  0.00000000000E+00  0.21688224619E+03  0.21688224619E+03  0.00000000000E+00 0.  1.
         -4   -1    0    0    0  501 -0.00000000000E+00 -0.00000000000E+00 -0.17701582269E+03  0.17701582269E+03  0.00000000000E+00 0.  1.
        -24    2    1    2    0    0 -0.98637373659E+02  0.10112237119E+03 -0.76810026814E+02  0.17956572416E+03  0.79931243172E+02 0.  0.
         23    2    1    2    0    0  0.80435487297E+02 -0.64160815743E+02  0.85716524479E+02  0.16279612197E+03  0.92567688021E+02 0.  0.
         11    1    3    3    0    0 -0.97171902557E+00  0.44540880253E+02 -0.42556671794E+02  0.61610912716E+02  0.00000000000E+00 0. -1.
        -12    1    3    3    0    0 -0.97665654634E+02  0.56581490942E+02 -0.34253355020E+02  0.11795481144E+03  0.00000000000E+00 0.  1.
        -13    1    4    4    0    0  0.63552261431E+02 -0.14681787665E+02  0.89081056728E+02  0.11040778727E+03  0.00000000000E+00 0.  1.
         13    1    4    4    0    0  0.16883225867E+02 -0.49479028078E+02 -0.33645322493E+01  0.52388334699E+02  0.00000000000E+00 0. -1.
         -3    1    1    2    0  502  0.18201886362E+02 -0.36961555451E+02  0.30959925836E+02  0.51536222759E+02  0.00000000000E+00 0.  1.
<scales pt_clust_5="13000.00000" pt_clust_6="13000.00000" pt_clust_7="13000.00000" pt_clust_8="13000.00000" pt_clust_9="41.20031"></scales>
<clustering>
<clus scale="   41.200">  1  9  2 -1</clus>
<clus scale="   79.931">  5  6 -1 -1</clus>
<clus scale="   92.568">  7  8 -1 -1</clus>
<clus scale="  152.487">  2  5  1 -1</clus>
<clus scale="   41.200">  1  5  2 -1</clus>
</clustering>
</event>
<event>
 9    1  0.7586638E-005  0.9241762E+02  0.7546771E-02  0.1304918E+00
          3   -1    0    0  502    0 -0.00000000000E+00  0.00000000000E+00  0.27842709073E+02  0.27842709073E+02  0.00000000000E+00 0. -1.
         21   -1    0    0  501  502  0.00000000000E+00 -0.00000000000E+00 -0.13386075771E+04  0.13386075771E+04  0.00000000000E+00 0.  1.
         23    2    1    2    0    0 -0.89820279097E+01  0.20304619154E+01 -0.70991107245E+02  0.11668514876E+03  0.92146009315E+02 0.  0.
        -24    2    1    2    0    0 -0.21829990700E+02 -0.52576319908E+01 -0.11755060528E+04  0.11784199666E+04  0.79717916318E+02 0.  0.
         11    1    4    4    0    0 -0.11202612207E+02 -0.25997139124E+02 -0.14991982092E+03  0.15256900887E+03  0.00000000000E+00 0. -1.
        -12    1    4    4    0    0 -0.10627378493E+02  0.20739507134E+02 -0.10255862319E+04  0.10258509577E+04  0.00000000000E+00 0.  1.
        -11    1    3    3    0    0 -0.15084932048E+02 -0.30374506598E+02  0.45907278067E+01  0.34223392698E+02  0.00000000000E+00 0. -1.
         11    1    3    3    0    0  0.61029041387E+01  0.32404968513E+02 -0.75581835052E+02  0.82461756064E+02  0.00000000000E+00 0.  1.
          4    1    1    2  501    0  0.30812018610E+02  0.32271700754E+01 -0.64267707974E+02  0.71345170865E+02  0.00000000000E+00 0. -1.
<scales pt_clust_5="13000.00000" pt_clust_6="13000.00000" pt_clust_7="13000.00000" pt_clust_8="13000.00000" pt_clust_9="30.98058"></scales>
<clustering>
<clus scale="   30.981">  2  9  1 -1</clus>
<clus scale="   79.718">  5  6 -1 -1</clus>
<clus scale="   80.032">  2  5  1 -1</clus>
<clus scale="   92.146">  7  8 -1 -1</clus>
<clus scale="   30.981">  2  5  1 -1</clus>
</clustering>
</event>
<event>
 9    1  0.7586638E-005  0.9534114E+02  0.7546771E-02  0.1297322E+00
          1   -1    0    0  502    0 -0.00000000000E+00  0.00000000000E+00  0.36046734108E+03  0.36046734108E+03  0.00000000000E+00 0. -1.
         21   -1    0    0  501  502  0.00000000000E+00 -0.00000000000E+00 -0.11485979879E+03  0.11485979879E+03  0.00000000000E+00 0. -1.
         23    2    1    2    0    0 -0.76666522608E+01 -0.29994109372E+02  0.23763058278E+03  0.25692873316E+03  0.92658814451E+02 0.  0.
        -24    2    1    2    0    0  0.72311472560E+01  0.76017228022E+01  0.96967729887E+02  0.12663258599E+03  0.80765063705E+02 0.  0.
         13    1    4    4    0    0 -0.36139634773E+02 -0.44270976057E+01  0.41778710376E+02  0.55417804318E+02  0.00000000000E+00 0. -1.
        -14    1    4    4    0    0  0.43370782029E+02  0.12028820408E+02  0.55189019512E+02  0.71214781674E+02  0.00000000000E+00 0.  1.
        -11    1    3    3    0    0  0.14531596927E+02  0.30113708901E+02  0.89051702315E+02  0.95122071351E+02  0.00000000000E+00 0.  1.
         11    1    3    3    0    0 -0.22198249188E+02 -0.60107818272E+02  0.14857888046E+03  0.16180666180E+03  0.00000000000E+00 0. -1.
          2    1    1    2  501    0  0.43550500480E+00  0.22392386569E+02 -0.88990770372E+02  0.91765820719E+02  0.00000000000E+00 0. -1.
<scales pt_clust_5="13000.00000" pt_clust_6="13000.00000" pt_clust_7="13000.00000" pt_clust_8="13000.00000" pt_clust_9="22.39662"></scales>
<clustering>
<clus scale="   22.397">  2  9  1 -1</clus>
<clus scale="   80.765">  5  6 -1 -1</clus>
<clus scale="   83.829">  2  5  1 -1</clus>
<clus scale="   92.659">  7  8 -1 -1</clus>
<clus scale="   22.397">  2  5  1 -1</clus>
</clustering>
</event>
<event>
 9    1  0.7586638E-005  0.1106058E+03  0.7546771E-02  0.1264426E+00
         21   -1    0    0  501  502  0.00000000000E+00  0.00000000000E+00  0.38560928142E+03  0.38560928142E+03  0.00000000000E+00 0.  1.
         -4   -1    0    0    0  501 -0.00000000000E+00 -0.00000000000E+00 -0.37598045114E+02  0.37598045114E+02  0.00000000000E+00 0.  1.
         23    2    1    2    0    0  0.47828668722E+02 -0.38319781686E+02  0.15337305438E+03  0.18930326487E+03  0.92501054380E+02 0.  0.
        -24    2    1    2    0    0 -0.61500624251E+02  0.14188072455E+02  0.15720250240E+03  0.18731337740E+03  0.79937765851E+02 0.  0.
         11    1    4    4    0    0 -0.72727187500E+02 -0.88544530144E+01  0.13409047592E+03  0.15280019918E+03  0.00000000000E+00 0. -1.
        -12    1    4    4    0    0  0.11226563249E+02  0.23042525470E+02  0.23112026489E+02  0.34513178220E+02  0.00000000000E+00 0.  1.
        -13    1    3    3    0    0  0.17191963539E+02 -0.50098945896E+02  0.28417025232E+02  0.60108196723E+02  0.00000000000E+00 0.  1.
         13    1    3    3    0    0  0.30636705183E+02  0.11779164210E+02  0.12495602914E+03  0.12919506815E+03  0.00000000000E+00 0. -1.
         -3    1    1    2    0  502  0.13671955529E+02  0.24131709231E+02  0.37435679530E+02  0.46590684265E+02  0.00000000000E+00 0.  1.
<scales pt_clust_5="13000.00000" pt_clust_6="13000.00000" pt_clust_7="13000.00000" pt_clust_8="13000.00000" pt_clust_9="27.73558"></scales>
<clustering>
<clus scale="   27.736">  1  9  2 -1</clus>
<clus scale="   79.938">  5  6 -1 -1</clus>
<clus scale="   92.501">  7  8 -1 -1</clus>
<clus scale="  100.336">  1  5  2 -1</clus>
<clus scale="   27.736">  1  5  2 -1</clus>
</clustering>
</event>
<event>
 9    1  0.7586638E-005  0.9262299E+02  0.7546771E-02  0.1303547E+00
         21   -1    0    0  501  502  0.00000000000E+00  0.00000000000E+00  0.17605002953E+03  0.17605002953E+03  0.00000000000E+00 0.  1.
          1   -1    0    0  502    0 -0.00000000000E+00 -0.00000000000E+00 -0.26970370150E+03  0.26970370150E+03  0.00000000000E+00 0. -1.
        -24    2    1    2    0    0  0.16378387312E+02  0.10439147166E+01 -0.24107114847E+03  0.25443728778E+03  0.79710058702E+02 0.  0.
         23    2    1    2    0    0 -0.31266983984E+02 -0.16460329912E+02  0.13477932571E+03  0.16643554648E+03  0.91031630463E+02 0.  0.
         11    1    3    3    0    0  0.26339212967E+02  0.27054644191E+02 -0.57657946976E+02  0.68921308472E+02  0.00000000000E+00 0. -1.
        -12    1    3    3    0    0 -0.99608256551E+01 -0.26010729474E+02 -0.18341320150E+03  0.18551597931E+03  0.00000000000E+00 0.  1.
        -11    1    4    4    0    0  0.23572250936E+02 -0.30762520616E+02  0.37961008575E+02  0.54249625444E+02  0.00000000000E+00 0.  1.
         11    1    4    4    0    0 -0.54839234920E+02  0.14302190704E+02  0.96818317136E+02  0.11218592104E+03  0.00000000000E+00 0. -1.
          2    1    1    2  501    0  0.14888596672E+02  0.15416415196E+02  0.12638150792E+02  0.24880896764E+02  0.00000000000E+00 0. -1.
<scales pt_clust_5="13000.00000" pt_clust_6="13000.00000" pt_clust_7="13000.00000" pt_clust_8="13000.00000" pt_clust_9="21.43213"></scales>
<clustering>
<clus scale="   21.432">  1  9  2 -1</clus>
<clus scale="   79.710">  5  6 -1 -1</clus>
<clus scale="   81.523">  2  5  1 -1</clus>
<clus scale="   91.032">  7  8 -1 -1</clus>
<clus scale="   21.432">  1  5  2 -1</clus>
</clustering>
</event>
<event>
 9    1  0.7586638E-005  0.1412458E+03  0.7546771E-02  0.1228551E+00
          1   -1    0    0  502    0 -0.00000000000E+00  0.00000000000E+00  0.88963168656E+03  0.88963168656E+03  0.00000000000E+00 0. -1.
         21   -1    0    0  501  502  0.00000000000E+00 -0.00000000000E+00 -0.94458437021E+02  0.94458437021E+02  0.00000000000E+00 0. -1.
        -24    2    1    2    0    0  0.95157331416E+01  0.56773997190E+02  0.63948202697E+03  0.64711218761E+03  0.80641705103E+02 0.  0.
         23    2    1    2    0    0  0.11381956191E+02  0.91151762512E+02  0.11799889415E+02  0.12955696413E+03  0.90595677756E+02 0.  0.
         13    1    3    3    0    0  0.35286275886E+02  0.54466933517E+02  0.31590146208E+03  0.32249884008E+03  0.00000000000E+00 0. -1.
        -14    1    3    3    0    0 -0.25770542745E+02  0.23070636726E+01  0.32358056489E+03  0.32461334753E+03  0.00000000000E+00 0.  1.
        -13    1    4    4    0    0 -0.20968538166E+02  0.67288941888E+01  0.30118732220E+02  0.37310797906E+02  0.00000000000E+00 0.  1.
         13    1    4    4    0    0  0.32350494357E+02  0.84422868323E+02 -0.18318842805E+02  0.92246166222E+02  0.00000000000E+00 0. -1.
          2    1    1    2  501    0 -0.20897689333E+02 -0.14792575970E+03  0.14389133315E+03  0.20742097184E+03  0.00000000000E+00 0. -1.
<scales pt_clust_5="13000.00000" pt_clust_6="13000.00000" pt_clust_7="13000.00000" pt_clust_8="13000.00000" pt_clust_9="108.36428"></scales>
<clustering>
<clus scale="   80.642">  5  6 -1 -1</clus>
<clus scale="   90.596">  7  8 -1 -1</clus>
<clus scale="   99.080">  1  5  2 -1</clus>
<clus scale="  108.364">  2  9  1 -1</clus>
<clus scale="  108.364">  2  5  1 -1</clus>
</clustering>
</event>
<event>
 9    1  0.7586638E-005  0.1468375E+03  0.7546771E-02  0.1223617E+00
          1   -1    0    0  502    0 -0.00000000000E+00  0.00000000000E+00  0.99344567181E+03  0.99344567181E+03  0.00000000000E+00 0. -1.
         21   -1    0    0  501  502  0.00000000000E+00 -0.00000000000E+00 -0.70952626534E+02  0.70952626534E+02  0.00000000000E+00 0. -1.
         23    2    1    2    0    0  0.39327519588E+02  0.12728721378E+01 -0.45115559994E+01  0.97815348830E+02  0.89438326957E+02 0.  0.
        -24    2    1    2    0    0  0.60125433168E+02  0.89398035115E+02  0.55254035513E+03  0.56866892001E+03  0.80476208554E+02 0.  0.
         13    1    4    4    0    0  0.76174485647E+02  0.90360297374E+02  0.47530724466E+03  0.48978006537E+03  0.00000000000E+00 0. -1.
        -14    1    4    4    0    0 -0.16049052478E+02 -0.96226225902E+00  0.77233110470E+02  0.78888854644E+02  0.00000000000E+00 0.  1.
        -13    1    3    3    0    0  0.43313816516E+02  0.36603997173E+02  0.13002066624E+02  0.58180693075E+02  0.00000000000E+00 0. -1.
         13    1    3    3    0    0 -0.39862969276E+01 -0.35331125035E+02 -0.17513622623E+02  0.39634655755E+02  0.00000000000E+00 0.  1.
          2    1    1    2  501    0 -0.99452952757E+02 -0.90670907253E+02  0.37446424614E+03  0.39791402950E+03  0.00000000000E+00 0. -1.
<scales pt_clust_5="13000.00000" pt_clust_6="13000.00000" pt_clust_7="13000.00000" pt_clust_8="13000.00000" pt_clust_9="122.82030"></scales>
<clustering>
<clus scale="   80.476">  5  6 -1 -1</clus>
<clus scale="   89.438">  7  8 -1 -1</clus>
<clus scale="   97.711">  1  7  2 -1</clus>
<clus scale="  122.820">  2  9  1 -1</clus>
<clus scale="  122.820">  2  5  1 -1</clus>
</clustering>
</event>
<event>
 9    1  0.7586638E-005  0.1065857E+03  0.7546771E-02  0.1270869E+00
         21   -1    0    0  501  502  0.00000000000E+00  0.00000000000E+00  0.20387630481E+03  0.20387630481E+03  0.00000000000E+00 0. -1.
          1   -1    0    0  502    0 -0.00000000000E+00 -0.00000000000E+00 -0.23612531625E+03  0.23612531625E+03  0.00000000000E+00 0. -1.
        -24    2    1    2    0    0  0.49071054173E+02 -0.36527440309E+02 -0.12765374683E+03  0.16358699589E+03  0.81993925953E+02 0.  0.
         23    2    1    2    0    0 -0.80863283629E+01  0.55544324542E+02 -0.54348384796E+02  0.11999408100E+03  0.91072893058E+02 0.  0.
         13    1    3    3    0    0  0.69710146431E+02 -0.35346290498E+02 -0.11594421257E+03  0.13982819885E+03  0.00000000000E+00 0. -1.
        -14    1    3    3    0    0 -0.20639092258E+02 -0.11811498103E+01 -0.11709534260E+02  0.23758797038E+02  0.00000000000E+00 0.  1.
        -11    1    4    4    0    0 -0.25791835651E+02 -0.15688810640E+02 -0.30255493702E+02  0.42740524853E+02  0.00000000000E+00 0.  1.
         11    1    4    4    0    0  0.17705507288E+02  0.71233135182E+02 -0.24092891094E+02  0.77253556148E+02  0.00000000000E+00 0. -1.
          2    1    1    2  501    0 -0.40984725810E+02 -0.19016884233E+02  0.14975312018E+03  0.15642054417E+03  0.00000000000E+00 0. -1.
<scales pt_clust_5="13000.00000" pt_clust_6="13000.00000" pt_clust_7="13000.00000" pt_clust_8="13000.00000" pt_clust_9="45.18174"></scales>
<clustering>
<clus scale="   45.182">  1  9  2 -1</clus>
<clus scale="   81.994">  5  6 -1 -1</clus>
<clus scale="   91.073">  7  8 -1 -1</clus>
<clus scale="   98.941">  2  5  1 -1</clus>
<clus scale="   45.182">  1  5  2 -1</clus>
</clustering>
</event>
<event>
 9    1  0.7586638E-005  0.2101225E+03  0.7546771E-02  0.1166640E+00
          1   -1    0    0  502    0 -0.00000000000E+00  0.00000000000E+00  0.14856004175E+03  0.14856004175E+03  0.00000000000E+00 0. -1.
         21   -1    0    0  501  502  0.00000000000E+00 -0.00000000000E+00 -0.78275082508E+03  0.78275082508E+03  0.00000000000E+00 0.  1.
         23    2    1    2    0    0 -0.20956261253E+02 -0.68464252563E+02 -0.72100767335E+02  0.13676861741E+03  0.91545700577E+02 0.  0.
        -24    2    1    2    0    0  0.60460117224E+02  0.19716041960E+03 -0.61216789289E+03  0.65090711513E+03  0.80018039300E+02 0.  0.
         13    1    4    4    0    0 -0.15249167082E+02  0.13034157085E+02 -0.86685302093E+02  0.88976221243E+02  0.00000000000E+00 0. -1.
        -14    1    4    4    0    0  0.75709284306E+02  0.18412626251E+03 -0.52548259080E+03  0.56193089389E+03  0.00000000000E+00 0.  1.
        -11    1    3    3    0    0  0.25382758691E+02 -0.53792103336E+02 -0.64209918825E+02  0.87525930418E+02  0.00000000000E+00 0.  1.
         11    1    3    3    0    0 -0.46339019944E+02 -0.14672149227E+02 -0.78908485099E+01  0.49242686995E+02  0.00000000000E+00 0. -1.
          2    1    1    2  501    0 -0.39503855971E+02 -0.12869616703E+03  0.50077876893E+02  0.14363513428E+03  0.00000000000E+00 0. -1.
<scales pt_clust_5="13000.00000" pt_clust_6="13000.00000" pt_clust_7="13000.00000" pt_clust_8="13000.00000" pt_clust_9="194.29003"></scales>
<clustering>
<clus scale="   80.018">  5  6 -1 -1</clus>
<clus scale="   91.546">  7  8 -1 -1</clus>
<clus scale="  116.220">  1  7  2 -1</clus>
<clus scale="  194.290">  2  9  1 -1</clus>
<clus scale="  194.290">  2  5  1 -1</clus>
</clustering>
</event>
<event>
 9    1  0.7586638E-005  0.1095671E+03  0.7546771E-02  0.1262344E+00
          1   -1    0    0  502    0 -0.00000000000E+00  0.00000000000E+00  0.75153937418E+03  0.75153937418E+03  0.00000000000E+00 0. -1.
         21   -1    0    0  501  502  0.00000000000E+00 -0.00000000000E+00 -0.49643668255E+02  0.49643668255E+02  0.00000000000E+00 0. -1.
         23    2    1    2    0    0  0.51102505108E+02 -0.31191870272E+02  0.38483749602E+03  0.40097433581E+03  0.95373585608E+02 0.  0.
        -24    2    1    2    0    0 -0.61529524323E+02 -0.75805070642E+02  0.11253741783E+03  0.16915498455E+03  0.80102729596E+02 0.  0.
         13    1    4    4    0    0 -0.58139969480E+02 -0.79823863519E+02  0.58329639007E+02  0.11469285952E+03  0.00000000000E+00 0. -1.
        -14    1    4    4    0    0 -0.33895548434E+01  0.40187928772E+01  0.54207778820E+02  0.54462125030E+02  0.00000000000E+00 0.  1.
        -11    1    3    3    0    0  0.71408725905E+02  0.27745462317E+01  0.27816229776E+03  0.28719534839E+03  0.00000000000E+00 0.  1.
         11    1    3    3    0    0 -0.20306220797E+02 -0.33966416503E+02  0.10667519827E+03  0.11377898742E+03  0.00000000000E+00 0. -1.
          2    1    1    2  501    0  0.10427019215E+02  0.10699694091E+03  0.20452079207E+03  0.23105372207E+03  0.00000000000E+00 0. -1.
<scales pt_clust_5="13000.00000" pt_clust_6="13000.00000" pt_clust_7="13000.00000" pt_clust_8="13000.00000" pt_clust_9="107.50386"></scales>
<clustering>
<clus scale="   80.103">  5  6 -1 -1</clus>
<clus scale="   95.374">  7  8 -1 -1</clus>
<clus scale="  107.504">  2  9  1 -1</clus>
<clus scale="  107.504">  2  5  1 -1</clus>
<clus scale="  107.504">  2  5  1 -1</clus>
</clustering>
</event>
<event>
 9    1  0.7586638E-005  0.3729581E+03  0.7546771E-02  0.1053821E+00
         21   -1    0    0  501  502  0.00000000000E+00  0.00000000000E+00  0.33290039692E+03  0.33290039692E+03  0.00000000000E+00 0.  1.
          3   -1    0    0  502    0 -0.00000000000E+00 -0.00000000000E+00 -0.13131918200E+04  0.13131918200E+04  0.00000000000E+00 0. -1.
         23    2    1    2    0    0  0.16294829723E+03 -0.33355506862E+03 -0.10829886893E+04  0.11484238695E+04  0.90563521464E+02 0.  0.
        -24    2    1    2    0    0 -0.67095207834E+02  0.28117342062E+03  0.19259991038E+03  0.35619701743E+03  0.78875410451E+02 0.  0.
         11    1    4    4    0    0  0.12218435342E+02  0.70229514121E+02  0.68797900445E+02  0.99068793883E+02  0.00000000000E+00 0. -1.
        -12    1    4    4    0    0 -0.79313643176E+02  0.21094390650E+03  0.12380200993E+03  0.25712822355E+03  0.00000000000E+00 0.  1.
        -13    1    3    3    0    0  0.20266541014E+02 -0.93389556064E+02 -0.18868247406E+03  0.21150276094E+03  0.00000000000E+00 0.  1.
         13    1    3    3    0    0  0.14268175622E+03 -0.24016551255E+03 -0.89430621524E+03  0.93692110852E+03  0.00000000000E+00 0. -1.
          4    1    1    2  501    0 -0.95853089398E+02  0.52381648000E+02 -0.89902644191E+02  0.14147133005E+03  0.00000000000E+00 0. -1.
<scales pt_clust_5="13000.00000" pt_clust_6="13000.00000" pt_clust_7="13000.00000" pt_clust_8="13000.00000" pt_clust_9="109.23216"></scales>
<clustering>
<clus scale="   78.875">  5  6 -1 -1</clus>
<clus scale="   90.564">  7  8 -1 -1</clus>
<clus scale="  109.232">  1  9  2 -1</clus>
<clus scale="  370.294">  1  5  2 -1</clus>
<clus scale="  109.232">  1  5  2 -1</clus>
</clustering>
</event>
<event>
 9    1  0.7586638E-005  0.9971850E+02  0.7546771E-02  0.1284907E+00
          3   -1    0    0  502    0 -0.00000000000E+00  0.00000000000E+00  0.21306294543E+03  0.21306294543E+03  0.00000000000E+00 0. -1.
         21   -1    0    0  501  502  0.00000000000E+00 -0.00000000000E+00 -0.18777131834E+03  0.18777131834E+03  0.00000000000E+00 0. -1.
         23    2    1    2    0    0 -0.32033044044E+02 -0.35205404344E+02  0.17494968495E+03  0.20186970243E+03  0.88760622413E+02 0.  0.
        -24    2    1    2    0    0  0.41298887507E+02  0.40520753636E+00 -0.80901621087E+02  0.12134782892E+03  0.80464035367E+02 0.  0.
         11    1    4    4    0    0  0.52406429312E+02 -0.15722022232E+02 -0.21474165830E+02  0.58777169160E+02  0.00000000000E+00 0. -1.
        -12    1    4    4    0    0 -0.11107541806E+02  0.16127229769E+02 -0.59427455257E+02  0.62570659764E+02  0.00000000000E+00 0.  1.
        -11    1    3    3    0    0 -0.21123233467E+01 -0.26436375155E+02  0.25159054329E+01  0.26639700099E+02  0.00000000000E+00 0.  1.
         11    1    3    3    0    0 -0.29920720697E+02 -0.87690291894E+01  0.17243377951E+03  0.17523000233E+03  0.00000000000E+00 0. -1.
          4    1    1    2  501    0 -0.92658434625E+01  0.34800196808E+02 -0.68756436776E+02  0.77616732417E+02  0.00000000000E+00 0. -1.
<scales pt_clust_5="13000.00000" pt_clust_6="13000.00000" pt_clust_7="13000.00000" pt_clust_8="13000.00000" pt_clust_9="36.01263"></scales>
<clustering>
<clus scale="   36.013">  2  9  1 -1</clus>
<clus scale="   80.464">  5  6 -1 -1</clus>
<clus scale="   88.761">  7  8 -1 -1</clus>
<clus scale="   92.411">  2  5  1 -1</clus>
<clus scale="   36.013">  2  5  1 -1</clus>
</clustering>
</event>
<event>
 9    1  0.7586638E-005  0.9484763E+02  0.7546771E-02  0.1296905E+00
         21   -1    0    0  501  502  0.00000000000E+00  0.00000000000E+00  0.14237949741E+03  0.14237949741E+03  0.00000000000E+00 0. -1.
          1   -1    0    0  502    0 -0.00000000000E+00 -0.00000000000E+00 -0.18143846144E+03  0.18143846144E+03  0.00000000000E+00 0. -1.
         23    2    1    2    0    0  0.54793003617E+00  0.23990492792E+02 -0.11573710643E+03  0.14969239001E+03  0.91852544047E+02 0.  0.
        -24    2    1    2    0    0  0.33566977038E+02 -0.18882911686E+02  0.97854576319E+02  0.13364896298E+03  0.82481639755E+02 0.  0.
         11    1    4    4    0    0  0.58033226986E+02 -0.15236807845E+02  0.89080026474E+02  0.10740235968E+03  0.00000000000E+00 0. -1.
        -12    1    4    4    0    0 -0.24466249948E+02 -0.36461038412E+01  0.87745498456E+01  0.26246603299E+02  0.00000000000E+00 0.  1.
        -13    1    3    3    0    0 -0.42941547391E+02  0.25290868195E+02 -0.75274186719E+02  0.90276285328E+02  0.00000000000E+00 0. -1.
         13    1    3    3    0    0  0.43489477427E+02 -0.13003754027E+01 -0.40462919716E+02  0.59416104677E+02  0.00000000000E+00 0.  1.
          2    1    1    2  501    0 -0.34114907074E+02 -0.51075811067E+01 -0.21176433909E+02  0.40476605867E+02  0.00000000000E+00 0. -1.
<scales pt_clust_5="13000.00000" pt_clust_6="13000.00000" pt_clust_7="13000.00000" pt_clust_8="13000.00000" pt_clust_9="34.49515"></scales>
<clustering>
<clus scale="   34.495">  1  9  2 -1</clus>
<clus scale="   82.482">  5  6 -1 -1</clus>
<clus scale="   85.804">  1  5  2 -1</clus>
<clus scale="   91.853">  7  8 -1 -1</clus>
<clus scale="   34.495">  1  5  2 -1</clus>
</clustering>
</event>
<event>
 9    1  0.7586638E-005  0.1207083E+03  0.7546771E-02  0.1244824E+00
          3   -1    0    0  502    0 -0.00000000000E+00  0.00000000000E+00  0.14141743364E+03  0.14141743364E+03  0.00000000000E+00 0. -1.
         21   -1    0    0  501  502  0.00000000000E+00 -0.00000000000E+00 -0.28507738264E+03  0.28507738264E+03  0.00000000000E+00 0. -1.
        -24    2    1    2    0    0 -0.45804429424E+02 -0.82410324655E+02  0.81658842122E+02  0.14801785526E+03  0.79696998782E+02 0.  0.
         23    2    1    2    0    0  0.94007451141E+00  0.35293071986E+02 -0.10905537098E+03  0.14524772736E+03  0.89203944376E+02 0.  0.
         13    1    3    3    0    0 -0.57178384302E+02 -0.53459538230E+02  0.86363966385E+02  0.11655910324E+03  0.00000000000E+00 0. -1.
        -14    1    3    3    0    0  0.11373954877E+02 -0.28950786425E+02 -0.47051242637E+01  0.31458752018E+02  0.00000000000E+00 0.  1.
        -13    1    4    4    0    0  0.38385230705E+02 -0.51960738568E+00 -0.22865778755E+02  0.44682656212E+02  0.00000000000E+00 0.  1.
         13    1    4    4    0    0 -0.37445156194E+02  0.35812679372E+02 -0.86189592226E+02  0.10056507114E+03  0.00000000000E+00 0. -1.
          4    1    1    2  501    0  0.44864354913E+02  0.47117252668E+02 -0.11626342014E+03  0.13322923367E+03  0.00000000000E+00 0. -1.
<scales pt_clust_5="13000.00000" pt_clust_6="13000.00000" pt_clust_7="13000.00000" pt_clust_8="13000.00000" pt_clust_9="65.06032"></scales>
<clustering>
<clus scale="   65.060">  2  9  1 -1</clus>
<clus scale="   79.697">  5  6 -1 -1</clus>
<clus scale="   89.204">  7  8 -1 -1</clus>
<clus scale="  113.863">  1  5  2 -1</clus>
<clus scale="   65.060">  2  5  1 -1</clus>
</clustering>
</event>
<event>
 9    1  0.7586638E-005  0.1094870E+03  0.7546771E-02  0.1263571E+00
         21   -1    0    0  501  502  0.00000000000E+00  0.00000000000E+00  0.27029665348E+03  0.27029665348E+03  0.00000000000E+00 0. -1.
          1   -1    0    0  502    0 -0.00000000000E+00 -0.00000000000E+00 -0.77437055328E+02  0.77437055328E+02  0.00000000000E+00 0. -1.
         23    2    1    2    0    0  0.34826126757E+02 -0.50440019002E+02  0.95795246920E+02  0.14610248600E+03  0.91717787055E+02 0.  0.
        -24    2    1    2    0    0 -0.63063450906E+02  0.18650760556E+02  0.11247081946E+03  0.15640664220E+03  0.86536135722E+02 0.  0.
         11    1    4    4    0    0 -0.78019110837E+02  0.12123225347E+01  0.57798190065E+02  0.97103461094E+02  0.00000000000E+00 0. -1.
        -12    1    4    4    0    0  0.14955659931E+02  0.17438438022E+02  0.54672629397E+02  0.59303181110E+02  0.00000000000E+00 0.  1.
        -13    1    3    3    0    0  0.49175207578E+02 -0.70294226998E+02  0.75920567771E+02  0.11455746157E+03  0.00000000000E+00 0. -1.
         13    1    3    3    0    0 -0.14349080821E+02  0.19854207996E+02  0.19874679149E+02  0.31545024439E+02  0.00000000000E+00 0.  1.
          2    1    1    2  501    0  0.28237324150E+02  0.31789258446E+02 -0.15406468226E+02  0.45224580605E+02  0.00000000000E+00 0. -1.
<scales pt_clust_5="13000.00000" pt_clust_6="13000.00000" pt_clust_7="13000.00000" pt_clust_8="13000.00000" pt_clust_9="42.51947"></scales>
<clustering>
<clus scale="   42.519">  1  9  2 -1</clus>
<clus scale="   86.536">  5  6 -1 -1</clus>
<clus scale="   91.718">  7  8 -1 -1</clus>
<clus scale="  105.184">  1  5  2 -1</clus>
<clus scale="   42.519">  1  5  2 -1</clus>
</clustering>
</event>
<event>
 9    1  0.7586638E-005  0.1763180E+03  0.7546771E-02  0.1199490E+00
          1   -1    0    0  502    0 -0.00000000000E+00  0.00000000000E+00  0.12085333628E+04  0.12085333628E+04  0.00000000000E+00 0. -1.
         21   -1    0    0  501  502  0.00000000000E+00 -0.00000000000E+00 -0.38880117466E+02  0.38880117466E+02  0.00000000000E+00 0.  1.
        -24    2    1    2    0    0 -0.28716550495E+02 -0.40895913998E+02  0.31706545188E+03  0.33080582806E+03  0.80030488232E+02 0.  0.
         23    2    1    2    0    0  0.76216104971E+02  0.15340053477E+03  0.36356163450E+03  0.41256392245E+03  0.93227191837E+02 0.  0.
         11    1    3    3    0    0 -0.24508323676E+01 -0.40642522336E+02  0.60656623366E+02  0.73055096737E+02  0.00000000000E+00 0. -1.
        -12    1    3    3    0    0 -0.26265718127E+02 -0.25339166214E+00  0.25640882851E+03  0.25775073132E+03  0.00000000000E+00 0.  1.
        -11    1    4    4    0    0  0.52167909788E+02  0.16107783097E+03  0.30622545817E+03  0.34991654673E+03  0.00000000000E+00 0.  1.
         11    1    4    4    0    0  0.24048195183E+02 -0.76772961954E+01  0.57336176328E+02  0.62647375718E+02  0.00000000000E+00 0. -1.
          2    1    1    2  501    0 -0.47499554476E+02 -0.11250462078E+03  0.48902615895E+03  0.50404372976E+03  0.00000000000E+00 0. -1.
<scales pt_clust_5="13000.00000" pt_clust_6="13000.00000" pt_clust_7="13000.00000" pt_clust_8="13000.00000" pt_clust_9="149.65540"></scales>
<clustering>
<clus scale="   80.030">  5  6 -1 -1</clus>
<clus scale="   93.227">  7  8 -1 -1</clus>
<clus scale="   94.350">  1  5  2 -1</clus>
<clus scale="  149.655">  2  9  1 -1</clus>
<clus scale="  149.655">  2  5  1 -1</clus>
</clustering>
</event>
<event>
 9    1  0.7586638E-005  0.1308269E+03  0.7546771E-02  0.1227293E+00
         21   -1    0    0  501  502  0.00000000000E+00  0.00000000000E+00  0.13627044400E+03  0.13627044400E+03  0.00000000000E+00 0.  1.
          1   -1    0    0  502    0 -0.00000000000E+00 -0.00000000000E+00 -0.35579527335E+03  0.35579527335E+03  0.00000000000E+00 0. -1.
         23    2    1    2    0    0  0.96361691369E+02 -0.54935819641E+02 -0.26778832610E+03  0.30184890827E+03  0.84253522091E+02 0.  0.
        -24    2    1    2    0    0 -0.67449235225E+02  0.26508165699E+02 -0.21152016504E+02  0.10982666596E+03  0.79764695025E+02 0.  0.
         13    1    4    4    0    0 -0.49163511481E+02 -0.23484000746E+02 -0.12448488399E+02  0.55888406808E+02  0.00000000000E+00 0. -1.
        -14    1    4    4    0    0 -0.18285723745E+02  0.49992166446E+02 -0.87035281046E+01  0.53938259151E+02  0.00000000000E+00 0.  1.
        -13    1    3    3    0    0  0.31332070678E+02 -0.52052552103E+02 -0.65469630592E+02  0.89316512266E+02  0.00000000000E+00 0.  1.
         13    1    3    3    0    0  0.65029620691E+02 -0.28832675381E+01 -0.20231869551E+03  0.21253239601E+03  0.00000000000E+00 0. -1.
          2    1    1    2  501    0 -0.28912456144E+02  0.28427653942E+02  0.69415513255E+02  0.80390143111E+02  0.00000000000E+00 0. -1.
<scales pt_clust_5="13000.00000" pt_clust_6="13000.00000" pt_clust_7="13000.00000" pt_clust_8="13000.00000" pt_clust_9="40.54703"></scales>
<clustering>
<clus scale="   40.547">  1  9  2 -1</clus>
<clus scale="   79.765">  5  6 -1 -1</clus>
<clus scale="   84.254">  7  8 -1 -1</clus>
<clus scale="  127.982">  1  5  2 -1</clus>
<clus scale="   40.547">  1  5  2 -1</clus>
</clustering>
</event>
<event>
 9    1  0.7586638E-005  0.1591606E+03  0.7546771E-02  0.1214111E+00
          1   -1    0    0  502    0 -0.00000000000E+00  0.00000000000E+00  0.13405545350E+04  0.13405545350E+04  0.00000000000E+00 0. -1.
         21   -1    0    0  501  502  0.00000000000E+00 -0.00000000000E+00 -0.30163555627E+02  0.30163555627E+02  0.00000000000E+00 0. -1.
         23    2    1    2    0    0  0.28350926718E+02 -0.20549349549E+02  0.49583020210E+03  0.50460859558E+03  0.86926374614E+02 0.  0.
        -24    2    1    2    0    0  0.88726444791E+02  0.94005979040E+02  0.42978452221E+03  0.45726263644E+03  0.87549283563E+02 0.  0.
         11    1    4    4    0    0  0.87817403640E+02  0.46660185985E+02  0.35567811639E+03  0.36931827983E+03  0.00000000000E+00 0. -1.
        -12    1    4    4    0    0  0.90904115026E+00  0.47345793055E+02  0.74106405816E+02  0.87944356605E+02  0.00000000000E+00 0.  1.
        -13    1    3    3    0    0  0.59362256980E+02 -0.15209923488E+02  0.36022753788E+03  0.36540265239E+03  0.00000000000E+00 0. -1.
         13    1    3    3    0    0 -0.31011330262E+02 -0.53394260606E+01  0.13560266422E+03  0.13920594318E+03  0.00000000000E+00 0.  1.
          2    1    1    2  501    0 -0.11707737151E+03 -0.73456629491E+02  0.38477625510E+03  0.40884685865E+03  0.00000000000E+00 0. -1.
<scales pt_clust_5="13000.00000" pt_clust_6="13000.00000" pt_clust_7="13000.00000" pt_clust_8="13000.00000" pt_clust_9="132.91810"></scales>
<clustering>
<clus scale="   86.926">  7  8 -1 -1</clus>
<clus scale="   87.549">  5  6 -1 -1</clus>
<clus scale="   93.714">  1  7  2 -1</clus>
<clus scale="  132.918">  2  9  1 -1</clus>
<clus scale="  132.918">  2  5  1 -1</clus>
</clustering>
</event>
<event>
 9    1  0.7586638E-005  0.1019364E+03  0.7546771E-02  0.1277999E+00
          3   -1    0    0  502    0 -0.00000000000E+00  0.00000000000E+00  0.58775755464E+02  0.58775755464E+02  0.00000000000E+00 0. -1.
         21   -1    0    0  501  502  0.00000000000E+00 -0.00000000000E+00 -0.28190633566E+03  0.28190633566E+03  0.00000000000E+00 0. -1.
         23    2    1    2    0    0  0.28779745293E+02 -0.60334342049E+02 -0.83028854631E+02  0.13969582027E+03  0.90291887405E+02 0.  0.
        -24    2    1    2    0    0  0.92489711467E+01  0.29607404170E+02 -0.11084802708E+03  0.14401165492E+03  0.86544380499E+02 0.  0.
         11    1    4    4    0    0  0.20554893736E+02  0.56026467794E+02 -0.91947256038E+02  0.10961645243E+03  0.00000000000E+00 0. -1.
        -12    1    4    4    0    0 -0.11305922589E+02 -0.26419063624E+02 -0.18900771040E+02  0.34395202489E+02  0.00000000000E+00 0.  1.
        -11    1    3    3    0    0 -0.27989394757E+02  0.10851560938E+01 -0.14338293596E+02  0.31466973891E+02  0.00000000000E+00 0.  1.
         11    1    3    3    0    0  0.56769140050E+02 -0.61419498143E+02 -0.68690561035E+02  0.10822884638E+03  0.00000000000E+00 0. -1.
          4    1    1    2  501    0 -0.38028716439E+02  0.30726937879E+02 -0.29253698486E+02  0.56974615932E+02  0.00000000000E+00 0. -1.
<scales pt_clust_5="13000.00000" pt_clust_6="13000.00000" pt_clust_7="13000.00000" pt_clust_8="13000.00000" pt_clust_9="48.89101"></scales>
<clustering>
<clus scale="   48.891">  2  9  1 -1</clus>
<clus scale="   86.544">  5  6 -1 -1</clus>
<clus scale="   90.292">  7  8 -1 -1</clus>
<clus scale="   98.632">  2  5  1 -1</clus>
<clus scale="   48.891">  2  5  1 -1</clus>
</clustering>
</event>
<event>
 9    1  0.7586638E-005  0.1117989E+03  0.7546771E-02  0.1262263E+00
          3   -1    0    0  502    0 -0.00000000000E+00  0.00000000000E+00  0.29961002711E+03  0.29961002711E+03  0.00000000000E+00 0. -1.
         21   -1    0    0  501  502  0.00000000000E+00 -0.00000000000E+00 -0.23486204985E+03  0.23486204985E+03  0.00000000000E+00 0. -1.
        -24    2    1    2    0    0  0.68949145017E+02 -0.10688724200E+02  0.24391299100E+03  0.26586324098E+03  0.79507749950E+02 0.  0.
         23    2    1    2    0    0 -0.28661506057E+02 -0.97589117590E+01 -0.15117393435E+02  0.98453549853E+02  0.92454570499E+02 0.  0.
         13    1    3    3    0    0  0.49939609091E+02  0.12515984070E+02  0.58034071045E+02  0.77579429074E+02  0.00000000000E+00 0. -1.
        -14    1    3    3    0    0  0.19009535925E+02 -0.23204708270E+02  0.18587891996E+03  0.18828381191E+03  0.00000000000E+00 0.  1.
        -13    1    4    4    0    0 -0.62613332823E+02 -0.42668254196E+01 -0.72862367650E+01  0.63180095699E+02  0.00000000000E+00 0.  1.
         13    1    4    4    0    0  0.33951826766E+02 -0.54920863394E+01 -0.78311566700E+01  0.35273454153E+02  0.00000000000E+00 0. -1.
          4    1    1    2  501    0 -0.40287638960E+02  0.20447635959E+02 -0.16404762030E+03  0.17015528612E+03  0.00000000000E+00 0. -1.
<scales pt_clust_5="13000.00000" pt_clust_6="13000.00000" pt_clust_7="13000.00000" pt_clust_8="13000.00000" pt_clust_9="45.17964"></scales>
<clustering>
<clus scale="   45.180">  2  9  1 -1</clus>
<clus scale="   79.508">  5  6 -1 -1</clus>
<clus scale="   92.455">  7  8 -1 -1</clus>
<clus scale="  101.354">  1  5  2 -1</clus>
<clus scale="   45.180">  2  5  1 -1</clus>
</clustering>
</event>
<event>
 9    1  0.7586638E-005  0.9277241E+02  0.7546771E-02  0.1296938E+00
         21   -1    0    0  501  502  0.00000000000E+00  0.00000000000E+00  0.38094214975E+03  0.38094214975E+03  0.00000000000E+00 0.  1.
          3   -1    0    0  502    0 -0.00000000000E+00 -0.00000000000E+00 -0.50735012573E+02  0.50735012573E+02  0.00000000000E+00 0. -1.
         23    2    1    2    0    0 -0.41801914139E+02  0.10982768458E+02  0.13497323538E+02  0.91158366920E+02  0.79117942896E+02 0.  0.
        -24    2    1    2    0    0  0.55127760563E+02 -0.29680822266E+02  0.25060377798E+03  0.27053877433E+03  0.80429805930E+02 0.  0.
         11    1    4    4    0    0  0.25603405598E+02 -0.37565185785E+02  0.49825314962E+02  0.67448050916E+02  0.00000000000E+00 0. -1.
        -12    1    4    4    0    0  0.29524354965E+02  0.78843635192E+01  0.20077846302E+03  0.20309072341E+03  0.00000000000E+00 0.  1.
        -11    1    3    3    0    0 -0.34982530437E+02 -0.18520026680E+02 -0.21365955702E+02  0.44980805763E+02  0.00000000000E+00 0. -1.
         11    1    3    3    0    0 -0.68193837020E+01  0.29502795138E+02  0.34863279240E+02  0.46177561157E+02  0.00000000000E+00 0.  1.
          4    1    1    2  501    0 -0.13325846424E+02  0.18698053808E+02  0.66106035663E+02  0.69980021079E+02  0.00000000000E+00 0. -1.
<scales pt_clust_5="13000.00000" pt_clust_6="13000.00000" pt_clust_7="13000.00000" pt_clust_8="13000.00000" pt_clust_9="22.96074"></scales>
<clustering>
<clus scale="   22.961">  1  9  2 -1</clus>
<clus scale="   79.118">  7  8 -1 -1</clus>
<clus scale="   80.430">  5  6 -1 -1</clus>
<clus scale="   91.637">  2  7  1 -1</clus>
<clus scale="   22.961">  1  5  2 -1</clus>
</clustering>
</event>
<event>
 9    1  0.7586638E-005  0.1259240E+03  0.7546771E-02  0.1236321E+00
         21   -1    0    0  501  502  0.00000000000E+00  0.00000000000E+00  0.23720478273E+02  0.23720478273E+02  0.00000000000E+00 0. -1.
          1   -1    0    0  502    0 -0.00000000000E+00 -0.00000000000E+00 -0.85018500412E+03  0.85018500412E+03  0.00000000000E+00 0. -1.
        -24    2    1    2    0    0 -0.67185337842E+02  0.40098984661E+02 -0.28889422613E+03  0.31019217287E+03  0.81470927525E+02 0.  0.
         23    2    1    2    0    0  0.92412149832E+02 -0.32246593020E+02 -0.35677280978E+03  0.38099553681E+03  0.91054451109E+02 0.  0.
         11    1    3    3    0    0 -0.50624647944E+02 -0.26096819669E+01 -0.69242323513E+02  0.85814711937E+02  0.00000000000E+00 0. -1.
        -12    1    3    3    0    0 -0.16560689898E+02  0.42708666628E+02 -0.21965190261E+03  0.22437746094E+03  0.00000000000E+00 0.  1.
        -13    1    4    4    0    0 -0.41960337830E+01 -0.31047008177E+02 -0.14318096938E+03  0.14656845980E+03  0.00000000000E+00 0.  1.
         13    1    4    4    0    0  0.96608183615E+02 -0.11995848438E+01 -0.21359184040E+03  0.23442707700E+03  0.00000000000E+00 0. -1.
          2    1    1    2  501    0 -0.25226811990E+02 -0.78523916402E+01 -0.18079748993E+03  0.18271777271E+03  0.00000000000E+00 0. -1.
<scales pt_clust_5="13000.00000" pt_clust_6="13000.00000" pt_clust_7="13000.00000" pt_clust_8="13000.00000" pt_clust_9="26.42069"></scales>
<clustering>
<clus scale="   26.421">  1  9  2 -1</clus>
<clus scale="   81.471">  5  6 -1 -1</clus>
<clus scale="   91.054">  7  8 -1 -1</clus>
<clus scale="  119.178">  2  5  1 -1</clus>
<clus scale="   26.421">  1  5  2 -1</clus>
</clustering>
</event>
<event>
 9    1  0.7586638E-005  0.1287992E+03  0.7546771E-02  0.1232440E+00
          1   -1    0    0  502    0 -0.00000000000E+00  0.00000000000E+00  0.19398309623E+03  0.19398309623E+03  0.00000000000E+00 0. -1.
         21   -1    0    0  501  502  0.00000000000E+00 -0.00000000000E+00 -0.42682655822E+03  0.42682655822E+03  0.00000000000E+00 0. -1.
         23    2    1    2    0    0  0.15094777353E+02  0.10106135294E+03  0.14556084922E+03  0.20084358138E+03  0.93321669476E+02 0.  0.
        -24    2    1    2    0    0  0.90910211488E+01 -0.31215243342E+02 -0.10584225957E+03  0.13755944449E+03  0.81627071335E+02 0.  0.
         11    1    4    4    0    0  0.25513496147E+02 -0.52045374168E+02 -0.53496776915E+02  0.78876895212E+02  0.00000000000E+00 0. -1.
        -12    1    4    4    0    0 -0.16422474998E+02  0.20830130826E+02 -0.52345482652E+02  0.58682549274E+02  0.00000000000E+00 0.  1.
        -11    1    3    3    0    0 -0.21646792952E+02  0.97698030275E+02  0.11843716810E+03  0.15505112561E+03  0.00000000000E+00 0. -1.
         11    1    3    3    0    0  0.36741570305E+02  0.33633226621E+01  0.27123681119E+02  0.45792455768E+02  0.00000000000E+00 0.  1.
          2    1    1    2  501    0 -0.24185798502E+02 -0.69846109595E+02 -0.27256205164E+03  0.28240662859E+03  0.00000000000E+00 0. -1.
<scales pt_clust_5="13000.00000" pt_clust_6="13000.00000" pt_clust_7="13000.00000" pt_clust_8="13000.00000" pt_clust_9="73.91503"></scales>
<clustering>
<clus scale="   73.915">  2  9  1 -1</clus>
<clus scale="   81.627">  5  6 -1 -1</clus>
<clus scale="   93.322">  7  8 -1 -1</clus>
<clus scale="  120.596">  2  5  1 -1</clus>
<clus scale="   73.915">  2  5  1 -1</clus>
</clustering>
</event>
<event>
 9    1  0.7586638E-005  0.9441496E+02  0.7546771E-02  0.1299581E+00
         21   -1    0    0  501  502  0.00000000000E+00  0.00000000000E+00  0.67281191447E+03  0.67281191447E+03  0.00000000000E+00 0. -1.
          1   -1    0    0  502    0 -0.00000000000E+00 -0.00000000000E+00 -0.31537350170E+02  0.31537350170E+02  0.00000000000E+00 0. -1.
        -24    2    1    2    0    0 -0.13189272446E+02 -0.17973912718E+02  0.51908776412E+02  0.97681357686E+02  0.79687565684E+02 0.  0.
         23    2    1    2    0    0  0.42170814241E+02 -0.71985888661E+01  0.48553737186E+03  0.49597046084E+03  0.91705841147E+02 0.  0.
         11    1    3    3    0    0 -0.20041952195E+02 -0.46679041855E+02  0.43802294466E+02  0.67076477224E+02  0.00000000000E+00 0. -1.
        -12    1    3    3    0    0  0.68526797487E+01  0.28705129137E+02  0.81064819463E+01  0.30604880462E+02  0.00000000000E+00 0.  1.
        -13    1    4    4    0    0 -0.24641811213E+02  0.16485394602E+02  0.11866381908E+03  0.12231144286E+03  0.00000000000E+00 0.  1.
         13    1    4    4    0    0  0.66812625454E+02 -0.23683983468E+02  0.36687355278E+03  0.37365901798E+03  0.00000000000E+00 0. -1.
          2    1    1    2  501    0 -0.28981541795E+02  0.25172501584E+02  0.10382841603E+03  0.11069744612E+03  0.00000000000E+00 0. -1.
<scales pt_clust_5="13000.00000" pt_clust_6="13000.00000" pt_clust_7="13000.00000" pt_clust_8="13000.00000" pt_clust_9="38.38730"></scales>
<clustering>
<clus scale="   38.387">  1  9  2 -1</clus>
<clus scale="   79.688">  5  6 -1 -1</clus>
<clus scale="   82.791">  2  5  1 -1</clus>
<clus scale="   91.706">  7  8 -1 -1</clus>
<clus scale="   38.387">  1  5  2 -1</clus>
</clustering>
</event>
<event>
 9    1  0.7586638E-005  0.1026622E+03  0.7546771E-02  0.1275045E+00
         21   -1    0    0  501  502  0.00000000000E+00  0.00000000000E+00  0.24289405441E+02  0.24289405441E+02  0.00000000000E+00 0. -1.
          3   -1    0    0  502    0 -0.00000000000E+00 -0.00000000000E+00 -0.84104324079E+03  0.84104324079E+03  0.00000000000E+00 0. -1.
        -24    2    1    2    0    0 -0.77707620448E+02 -0.40492319387E+02 -0.42420424971E+03  0.44072757212E+03  0.81323091101E+02 0.  0.
         23    2    1    2    0    0  0.89406140844E+01  0.42856895348E+02 -0.21677720549E+03  0.23584485053E+03  0.81937711973E+02 0.  0.
         13    1    3    3    0    0 -0.91049175415E+02 -0.29134079051E+02 -0.39716187820E+03  0.40850496252E+03  0.00000000000E+00 0. -1.
        -14    1    3    3    0    0  0.13341554967E+02 -0.11358240335E+02 -0.27042371511E+02  0.32222609599E+02  0.00000000000E+00 0.  1.
        -11    1    4    4    0    0 -0.11301745894E+02  0.62972314324E+02 -0.15947187879E+03  0.17182701172E+03  0.00000000000E+00 0.  1.
         11    1    4    4    0    0  0.20242359978E+02 -0.20115418976E+02 -0.57305326705E+02  0.64017838818E+02  0.00000000000E+00 0. -1.
          4    1    1    2  501    0  0.68767006363E+02 -0.23645759612E+01 -0.17577238014E+03  0.18876022358E+03  0.00000000000E+00 0. -1.
<scales pt_clust_5="13000.00000" pt_clust_6="13000.00000" pt_clust_7="13000.00000" pt_clust_8="13000.00000" pt_clust_9="68.80765"></scales>
<clustering>
<clus scale="   68.808">  1  9  2 -1</clus>
<clus scale="   81.323">  5  6 -1 -1</clus>
<clus scale="   81.938">  7  8 -1 -1</clus>
<clus scale="  102.172">  2  5  1 -1</clus>
<clus scale="   68.808">  1  5  2 -1</clus>
</clustering>
</event>
<event>
 9    1  0.7586638E-005  0.9920356E+02  0.7546771E-02  0.1285216E+00
         21   -1    0    0  501  502  0.00000000000E+00  0.00000000000E+00  0.14633981724E+02  0.14633981724E+02  0.00000000000E+00 0. -1.
         -2   -1    0    0    0  501 -0.00000000000E+00 -0.00000000000E+00 -0.12744716295E+04  0.12744716295E+04  0.00000000000E+00 0.  1.
        -24    2    1    2    0    0 -0.38766115761E+02 -0.36842161998E+02 -0.89252431178E+03  0.89798270008E+03  0.83145209740E+02 0.  0.
         23    2    1    2    0    0  0.59990387650E+01  0.72427421727E+01 -0.24315531260E+03  0.25934650292E+03  0.89708732855E+02 0.  0.
         13    1    3    3    0    0  0.10299132935E+02  0.18522350395E+02 -0.11413609193E+03  0.11608702375E+03  0.00000000000E+00 0. -1.
        -14    1    3    3    0    0 -0.49065248696E+02 -0.55364512393E+02 -0.77838821985E+03  0.78189567633E+03  0.00000000000E+00 0.  1.
        -11    1    4    4    0    0  0.43799348586E+02  0.93180038098E+01 -0.78300382428E+02  0.90200654210E+02  0.00000000000E+00 0. -1.
         11    1    4    4    0    0 -0.37800309821E+02 -0.20752616371E+01 -0.16485493017E+03  0.16914584871E+03  0.00000000000E+00 0.  1.
         -1    1    1    2    0  502  0.32767076996E+02  0.29599419825E+02 -0.12415802335E+03  0.13177640818E+03  0.00000000000E+00 0.  1.
<scales pt_clust_5="13000.00000" pt_clust_6="13000.00000" pt_clust_7="13000.00000" pt_clust_8="13000.00000" pt_clust_9="44.15662"></scales>
<clustering>
<clus scale="   44.157">  1  9  2 -1</clus>
<clus scale="   83.145">  5  6 -1 -1</clus>
<clus scale="   89.709">  7  8 -1 -1</clus>
<clus scale="   93.310">  2  5  1 -1</clus>
<clus scale="   44.157">  1  5  2 -1</clus>
</clustering>
</event>
<event>
 9    1  0.7586638E-005  0.1024609E+03  0.7546771E-02  0.1281256E+00
         -4   -1    0    0    0  501 -0.00000000000E+00  0.00000000000E+00  0.11603177127E+03  0.11603177127E+03  0.00000000000E+00 0.  1.
         21   -1    0    0  501  502  0.00000000000E+00 -0.00000000000E+00 -0.13978302244E+03  0.13978302244E+03  0.00000000000E+00 0. -1.
         23    2    1    2    0    0 -0.39761739711E+02 -0.63444331594E+01  0.25160230302E+02  0.10337735756E+03  0.91829151638E+02 0.  0.
        -24    2    1    2    0    0  0.58814473905E+02 -0.15984212643E+02 -0.64776900970E+02  0.11907148585E+03  0.79166498265E+02 0.  0.
         11    1    4    4    0    0  0.30997391993E+02 -0.44176953945E+02 -0.57397666919E+02  0.78784095717E+02  0.00000000000E+00 0. -1.
        -12    1    4    4    0    0  0.27817081912E+02  0.28192741301E+02 -0.73792340512E+01  0.40287390129E+02  0.00000000000E+00 0.  1.
        -11    1    3    3    0    0  0.20410822679E+02  0.63246267052E+01  0.35094720208E+02  0.41088221814E+02  0.00000000000E+00 0.  1.
         11    1    3    3    0    0 -0.60172562390E+02 -0.12669059865E+02 -0.99344899063E+01  0.62289135747E+02  0.00000000000E+00 0. -1.
         -3    1    1    2    0  502 -0.19052734194E+02  0.22328645803E+02  0.15865419505E+02  0.33365950304E+02  0.00000000000E+00 0.  1.
<scales pt_clust_5="13000.00000" pt_clust_6="13000.00000" pt_clust_7="13000.00000" pt_clust_8="13000.00000" pt_clust_9="29.35261"></scales>
<clustering>
<clus scale="   29.353">  2  9  1 -1</clus>
<clus scale="   79.166">  5  6 -1 -1</clus>
<clus scale="   91.285">  2  5  1 -1</clus>
<clus scale="   91.829">  7  8 -1 -1</clus>
<clus scale="   29.353">  2  5  1 -1</clus>
</clustering>
</event>
<event>
 9    1  0.7586638E-005  0.8951577E+02  0.7546771E-02  0.1308100E+00
         21   -1    0    0  501  502  0.00000000000E+00  0.00000000000E+00  0.31927659399E+03  0.31927659399E+03  0.00000000000E+00 0.  1.
         -2   -1    0    0    0  501 -0.00000000000E+00 -0.00000000000E+00 -0.35400178575E+02  0.35400178575E+02  0.00000000000E+00 0.  1.
        -24    2    1    2    0    0  0.19466170932E+01  0.23194761723E+02  0.75934197695E+02  0.11404268483E+03  0.81840975646E+02 0.  0.
         23    2    1    2    0    0  0.73967878788E+01 -0.19091292746E+01  0.11722880757E+03  0.14698954627E+03  0.88345776029E+02 0.  0.
         13    1    3    3    0    0 -0.30014125207E+02  0.29068074862E+02  0.69231272201E+02  0.80862659730E+02  0.00000000000E+00 0. -1.
        -14    1    3    3    0    0  0.31960742300E+02 -0.58733131388E+01  0.67029254938E+01  0.33180025102E+02  0.00000000000E+00 0.  1.
        -13    1    4    4    0    0  0.28844130711E+02  0.34708291050E+01  0.12110464093E+03  0.12454061420E+03  0.00000000000E+00 0.  1.
         13    1    4    4    0    0 -0.21447342833E+02 -0.53799583796E+01 -0.38758333572E+01  0.22448932067E+02  0.00000000000E+00 0. -1.
         -1    1    1    2    0  502 -0.93434049720E+01 -0.21285632449E+02  0.90713410149E+02  0.93644541464E+02  0.00000000000E+00 0.  1.
<scales pt_clust_5="13000.00000" pt_clust_6="13000.00000" pt_clust_7="13000.00000" pt_clust_8="13000.00000" pt_clust_9="23.24602"></scales>
<clustering>
<clus scale="   23.246">  1  9  2 -1</clus>
<clus scale="   81.841">  5  6 -1 -1</clus>
<clus scale="   83.103">  2  5  1 -1</clus>
<clus scale="   88.346">  7  8 -1 -1</clus>
<clus scale="   23.246">  1  5  2 -1</clus>
</clustering>
</event>
<event>
 9    1  0.7586638E-005  0.1892368E+03  0.7546771E-02  0.1160266E+00
         21   -1    0    0  501  502  0.00000000000E+00  0.00000000000E+00  0.44317805742E+03  0.44317805742E+03  0.00000000000E+00 0.  1.
          1   -1    0    0  502    0 -0.00000000000E+00 -0.00000000000E+00 -0.99294878825E+02  0.99294878825E+02  0.00000000000E+00 0. -1.
        -24    2    1    2    0    0  0.26579135481E+02  0.17962705366E+03  0.12144143671E+03  0.23289016124E+03  0.80730885057E+02 0.  0.
         23    2    1    2    0    0 -0.14136183477E+02 -0.14393292520E+03  0.20761538480E+03  0.26897835745E+03  0.91261657482E+02 0.  0.
         11    1    3    3    0    0  0.24201873689E+02  0.36760171053E+02  0.66625179254E+02  0.79849579689E+02  0.00000000000E+00 0. -1.
        -12    1    3    3    0    0  0.23772617925E+01  0.14286688261E+03  0.54816257454E+02  0.15304058155E+03  0.00000000000E+00 0.  1.
        -11    1    4    4    0    0 -0.16589858320E+02 -0.66344605273E+02  0.16892644488E+03  0.18224426967E+03  0.00000000000E+00 0.  1.
         11    1    4    4    0    0  0.24536748421E+01 -0.77588319928E+02  0.38688939921E+02  0.86734087772E+02  0.00000000000E+00 0. -1.
          2    1    1    2  501    0 -0.12442952004E+02 -0.35694128461E+02  0.14826357084E+02  0.40604417562E+02  0.00000000000E+00 0. -1.
<scales pt_clust_5="13000.00000" pt_clust_6="13000.00000" pt_clust_7="13000.00000" pt_clust_8="13000.00000" pt_clust_9="37.80078"></scales>
<clustering>
<clus scale="   37.801">  1  9  2 -1</clus>
<clus scale="   80.731">  5  6 -1 -1</clus>
<clus scale="   91.262">  7  8 -1 -1</clus>
<clus scale="  184.389">  2  5  1 -1</clus>
<clus scale="   37.801">  1  5  2 -1</clus>
</clustering>
</event>
<event>
 9    1  0.7586638E-005  0.2142949E+03  0.7546771E-02  0.1138888E+00
          3   -1    0    0  502    0 -0.00000000000E+00  0.00000000000E+00  0.10878659810E+04  0.10878659810E+04  0.00000000000E+00 0. -1.
         21   -1    0    0  501  502  0.00000000000E+00 -0.00000000000E+00 -0.89376081553E+02  0.89376081553E+02  0.00000000000E+00 0. -1.
        -24    2    1    2    0    0 -0.18028350852E+03  0.13910532116E+02  0.44551246077E+03  0.48752408936E+03  0.80639560137E+02 0.  0.
         23    2    1    2    0    0  0.22949003632E+03 -0.78298861507E+02  0.19785619149E+03  0.32546773016E+03  0.89363204861E+02 0.  0.
         11    1    3    3    0    0 -0.10487970441E+03 -0.30731696260E+02  0.27213387063E+03  0.29325932738E+03  0.00000000000E+00 0. -1.
        -12    1    3    3    0    0 -0.75403804106E+02  0.44642228375E+02  0.17337859014E+03  0.19426476198E+03  0.00000000000E+00 0.  1.
        -11    1    4    4    0    0  0.54291234453E+02 -0.47371403177E+02  0.22053038048E+02  0.75352003719E+02  0.00000000000E+00 0.  1.
         11    1    4    4    0    0  0.17519880187E+03 -0.30927458330E+02  0.17580315344E+03  0.25011572644E+03  0.00000000000E+00 0. -1.
          4    1    1    2  501    0 -0.49206527802E+02  0.64388329391E+02  0.35512124719E+03  0.36425024303E+03  0.00000000000E+00 0. -1.
<scales pt_clust_5="13000.00000" pt_clust_6="13000.00000" pt_clust_7="13000.00000" pt_clust_8="13000.00000" pt_clust_9="81.03793"></scales>
<clustering>
<clus scale="   80.640">  5  6 -1 -1</clus>
<clus scale="   81.038">  2  9  1 -1</clus>
<clus scale="   89.363">  7  8 -1 -1</clus>
<clus scale="  210.806">  1  5  2 -1</clus>
<clus scale="   81.038">  2  5  1 -1</clus>
</clustering>
</event>
<event>
 9    1  0.7586638E-005  0.1776549E+03  0.7546771E-02  0.1171788E+00
         -2   -1    0    0    0  501 -0.00000000000E+00  0.00000000000E+00  0.15141848505E+04  0.15141848505E+04  0.00000000000E+00 0.  1.
         21   -1    0    0  501  502  0.00000000000E+00 -0.00000000000E+00 -0.93183733248E+02  0.93183733248E+02  0.00000000000E+00 0.  1.
        -24    2    1    2    0    0  0.86026289127E+00 -0.16016881328E+03  0.11273574647E+04  0.11415527100E+04  0.80950279403E+02 0.  0.
         23    2    1    2    0    0  0.93135630743E+01  0.12759501898E+03  0.35870170388E+03  0.39235085595E+03  0.94366575013E+02 0.  0.
         11    1    3    3    0    0  0.24110558713E+02 -0.47470279348E+02  0.19561290972E+03  0.20272926999E+03  0.00000000000E+00 0. -1.
        -12    1    3    3    0    0 -0.23250295822E+02 -0.11269853394E+03  0.93174455494E+03  0.93882343999E+03  0.00000000000E+00 0.  1.
        -13    1    4    4    0    0 -0.31419544103E+02  0.10455136046E+03  0.21348225880E+03  0.23977666598E+03  0.00000000000E+00 0. -1.
         13    1    4    4    0    0  0.40733107177E+02  0.23043658513E+02  0.14521944508E+03  0.15257418997E+03  0.00000000000E+00 0.  1.
         -1    1    1    2    0  502 -0.10173825966E+02  0.32573794307E+02 -0.65058051267E+02  0.73465017832E+02  0.00000000000E+00 0.  1.
<scales pt_clust_5="13000.00000" pt_clust_6="13000.00000" pt_clust_7="13000.00000" pt_clust_8="13000.00000" pt_clust_9="34.12563"></scales>
<clustering>
<clus scale="   34.126">  2  9  1 -1</clus>
<clus scale="   80.950">  5  6 -1 -1</clus>
<clus scale="   94.367">  7  8 -1 -1</clus>
<clus scale="  170.907">  1  5  2 -1</clus>
<clus scale="   34.126">  2  5  1 -1</clus>
</clustering>
</event>
<event>
 9    1  0.7586638E-005  0.9130896E+02  0.7546771E-02  0.1307733E+00
          1   -1    0    0  502    0 -0.00000000000E+00  0.00000000000E+00  0.11109331162E+04  0.11109331162E+04  0.00000000000E+00 0. -1.
         21   -1    0    0  501  502  0.00000000000E+00 -0.00000000000E+00 -0.17646252251E+02  0.17646252251E+02  0.00000000000E+00 0. -1.
         23    2    1    2    0    0  0.15542168968E+02 -0.27293841133E+02  0.37751736600E+03  0.38966995453E+03  0.91306073470E+02 0.  0.
        -24    2    1    2    0    0  0.23362671090E+02 -0.39016378374E+02  0.23450238916E+03  0.25154029119E+03  0.78822936938E+02 0.  0.
         11    1    4    4    0    0  0.38328451831E+02 -0.55082587088E+02  0.15176557646E+03  0.16593960292E+03  0.00000000000E+00 0. -1.
        -12    1    4    4    0    0 -0.14965780741E+02  0.16066208714E+02  0.82736812708E+02  0.85600688272E+02  0.00000000000E+00 0.  1.
        -11    1    3    3    0    0 -0.11462741511E+02 -0.55497501749E+02  0.24813185645E+03  0.25452069725E+03  0.00000000000E+00 0.  1.
         11    1    3    3    0    0  0.27004910478E+02  0.28203660616E+02  0.12938550956E+03  0.13514925729E+03  0.00000000000E+00 0. -1.
          2    1    1    2  501    0 -0.38904840058E+02  0.66310219507E+02  0.48126710879E+03  0.48736912274E+03  0.00000000000E+00 0. -1.
<scales pt_clust_5="13000.00000" pt_clust_6="13000.00000" pt_clust_7="13000.00000" pt_clust_8="13000.00000" pt_clust_9="76.88067"></scales>
<clustering>
<clus scale="   76.881">  2  9  1 -1</clus>
<clus scale="   78.823">  5  6 -1 -1</clus>
<clus scale="   78.826">  2  5  1 -1</clus>
<clus scale="   91.306">  7  8 -1 -1</clus>
<clus scale="   76.881">  2  5  1 -1</clus>
</clustering>
</event>
<event>
 9    1  0.7586638E-005  0.1786702E+03  0.7546771E-02  0.1185692E+00
         21   -1    0    0  501  502  0.00000000000E+00  0.00000000000E+00  0.18021214963E+03  0.18021214963E+03  0.00000000000E+00 0. -1.
          1   -1    0    0  502    0 -0.00000000000E+00 -0.00000000000E+00 -0.43865970616E+03  0.43865970616E+03  0.00000000000E+00 0. -1.
        -24    2    1    2    0    0  0.92747637709E+02 -0.22025023133E+02  0.60481729855E+02  0.13691038511E+03  0.77454425061E+02 0.  0.
         23    2    1    2    0    0  0.68538336472E+02  0.12175965811E+03 -0.10905025056E+03  0.19910219019E+03  0.90701747946E+02 0.  0.
         13    1    3    3    0    0  0.51130145443E+02  0.13334438832E+02  0.63019626512E+02  0.82240940885E+02  0.00000000000E+00 0. -1.
        -14    1    3    3    0    0  0.41617492266E+02 -0.35359461965E+02 -0.25378966566E+01  0.54669444230E+02  0.00000000000E+00 0.  1.
        -13    1    4    4    0    0 -0.19042858090E+02  0.16679174542E+02 -0.19860299613E+01  0.25392314243E+02  0.00000000000E+00 0.  1.
         13    1    4    4    0    0  0.87581194562E+02  0.10508048357E+03 -0.10706422059E+03  0.17370987594E+03  0.00000000000E+00 0. -1.
          2    1    1    2  501    0 -0.16128597418E+03 -0.99734634981E+02 -0.20987903583E+03  0.28285928050E+03  0.00000000000E+00 0. -1.
<scales pt_clust_5="13000.00000" pt_clust_6="13000.00000" pt_clust_7="13000.00000" pt_clust_8="13000.00000" pt_clust_9="153.93583"></scales>
<clustering>
<clus scale="   77.454">  5  6 -1 -1</clus>
<clus scale="   90.702">  7  8 -1 -1</clus>
<clus scale="  122.827">  2  5  1 -1</clus>
<clus scale="  153.936">  1  9  2 -1</clus>
<clus scale="  153.936">  1  5  2 -1</clus>
</clustering>
</event>
<event>
 9    1  0.7586638E-005  0.1646093E+03  0.7546771E-02  0.1184375E+00
         21   -1    0    0  501  502  0.00000000000E+00  0.00000000000E+00  0.72514138950E+03  0.72514138950E+03  0.00000000000E+00 0. -1.
          1   -1    0    0  502    0 -0.00000000000E+00 -0.00000000000E+00 -0.60139657050E+02  0.60139657050E+02  0.00000000000E+00 0. -1.
         23    2    1    2    0    0 -0.10509072485E+03 -0.38129830666E+02  0.21984986698E+03  0.26255996439E+03  0.90032363362E+02 0.  0.
        -24    2    1    2    0    0  0.14977430691E+03  0.98635151148E+02  0.33594938366E+03  0.39012131465E+03  0.84684211674E+02 0.  0.
         11    1    4    4    0    0  0.65931803379E+02  0.64153426842E+02  0.93012035039E+02  0.13082011900E+03  0.00000000000E+00 0. -1.
        -12    1    4    4    0    0  0.83842503527E+02  0.34481724306E+02  0.24293734862E+03  0.25930119565E+03  0.00000000000E+00 0.  1.
        -11    1    3    3    0    0 -0.10227014599E+03 -0.14968295888E+02  0.11278706627E+03  0.15298416572E+03  0.00000000000E+00 0.  1.
         11    1    3    3    0    0 -0.28205788579E+01 -0.23161534779E+02  0.10706280071E+03  0.10957579867E+03  0.00000000000E+00 0. -1.
          2    1    1    2  501    0 -0.44683582058E+02 -0.60505320482E+02  0.10920248181E+03  0.13259976752E+03  0.00000000000E+00 0. -1.
<scales pt_clust_5="13000.00000" pt_clust_6="13000.00000" pt_clust_7="13000.00000" pt_clust_8="13000.00000" pt_clust_9="75.21650"></scales>
<clustering>
<clus scale="   75.217">  1  9  2 -1</clus>
<clus scale="   84.684">  5  6 -1 -1</clus>
<clus scale="   90.032">  7  8 -1 -1</clus>
<clus scale="  161.746">  1  5  2 -1</clus>
<clus scale="   75.217">  1  5  2 -1</clus>
</clustering>
</event>
<event>
 9    1  0.7586638E-005  0.9473463E+02  0.7546771E-02  0.1296839E+00
         -2   -1    0    0    0  501 -0.00000000000E+00  0.00000000000E+00  0.10457053034E+03  0.10457053034E+03  0.00000000000E+00 0.  1.
         21   -1    0    0  501  502  0.00000000000E+00 -0.00000000000E+00 -0.15342717596E+03  0.15342717596E+03  0.00000000000E+00 0.  1.
         23    2    1    2    0    0 -0.19966006096E+02 -0.40138152760E+02 -0.28007898190E+02  0.10416436809E+03  0.89755559787E+02 0.  0.
        -24    2    1    2    0    0  0.31572662862E+02 -0.93619479350E+01 -0.44366507606E+02  0.97814952887E+02  0.80714923662E+02 0.  0.
         13    1    4    4    0    0  0.42772127390E+02 -0.37143424900E+02 -0.34254875294E+02  0.66200342719E+02  0.00000000000E+00 0. -1.
        -14    1    4    4    0    0 -0.11199464528E+02  0.27781476965E+02 -0.10111632312E+02  0.31614610168E+02  0.00000000000E+00 0.  1.
        -13    1    3    3    0    0  0.18499968868E+02 -0.51301107898E+02  0.12729755533E+01  0.54549729481E+02  0.00000000000E+00 0.  1.
         13    1    3    3    0    0 -0.38465974965E+02  0.11162955138E+02 -0.29280873744E+02  0.49614638612E+02  0.00000000000E+00 0. -1.
         -1    1    1    2    0  502 -0.11606656765E+02  0.49500100695E+02  0.23517760182E+02  0.56018385322E+02  0.00000000000E+00 0.  1.
<scales pt_clust_5="13000.00000" pt_clust_6="13000.00000" pt_clust_7="13000.00000" pt_clust_8="13000.00000" pt_clust_9="50.84267"></scales>
<clustering>
<clus scale="   50.843">  2  9  1 -1</clus>
<clus scale="   80.715">  5  6 -1 -1</clus>
<clus scale="   86.218">  2  5  1 -1</clus>
<clus scale="   89.756">  7  8 -1 -1</clus>
<clus scale="   50.843">  2  5  1 -1</clus>
</clustering>
</event>
<event>
 9    1  0.7586638E-005  0.1587747E+03  0.7546771E-02  0.1211033E+00
         -2   -1    0    0    0  501 -0.00000000000E+00  0.00000000000E+00  0.12435095568E+03  0.12435095568E+03  0.00000000000E+00 0.  1.
         21   -1    0    0  501  502  0.00000000000E+00 -0.00000000000E+00 -0.70943883346E+03  0.70943883346E+03  0.00000000000E+00 0.  1.
        -24    2    1    2    0    0  0.46516419045E+02 -0.35657727535E+02  0.63217490330E+02  0.11896840800E+03  0.81986463786E+02 0.  0.
         23    2    1    2    0    0  0.92282531999E+01  0.14711715956E+03 -0.32466376128E+03  0.36801514829E+03  0.91104183145E+02 0.  0.
         11    1    3    3    0    0 -0.88081644232E+01 -0.42465041006E+02  0.38499220217E+02  0.57991839301E+02  0.00000000000E+00 0. -1.
        -12    1    3    3    0    0  0.55324583468E+02  0.68073134714E+01  0.24718270113E+02  0.60976568697E+02  0.00000000000E+00 0.  1.
        -11    1    4    4    0    0 -0.39117931288E+02  0.49706944823E+02 -0.14162356652E+03  0.15510714847E+03  0.00000000000E+00 0. -1.
         11    1    4    4    0    0  0.48346184488E+02  0.97410214734E+02 -0.18304019476E+03  0.21290799982E+03  0.00000000000E+00 0.  1.
         -1    1    1    2    0  502 -0.55744672245E+02 -0.11145943202E+03 -0.32364160683E+03  0.34680623285E+03  0.00000000000E+00 0.  1.
<scales pt_clust_5="13000.00000" pt_clust_6="13000.00000" pt_clust_7="13000.00000" pt_clust_8="13000.00000" pt_clust_9="130.03629"></scales>
<clustering>
<clus scale="   81.986">  5  6 -1 -1</clus>
<clus scale="   91.104">  7  8 -1 -1</clus>
<clus scale="  100.782">  1  5  2 -1</clus>
<clus scale="  130.036">  2  9  1 -1</clus>
<clus scale="  130.036">  2  5  1 -1</clus>
</clustering>
</event>
<event>
 9    1  0.7586638E-005  0.1153577E+03  0.7546771E-02  0.1252928E+00
         -2   -1    0    0    0  501 -0.00000000000E+00  0.00000000000E+00  0.20880820641E+03  0.20880820641E+03  0.00000000000E+00 0.  1.
         21   -1    0    0  501  502  0.00000000000E+00 -0.00000000000E+00 -0.15054119032E+03  0.15054119032E+03  0.00000000000E+00 0.  1.
         23    2    1    2    0    0 -0.51732749121E+02  0.71677018364E+02  0.11329680796E+03  0.16843127595E+03  0.87858156888E+02 0.  0.
        -24    2    1    2    0    0  0.34377497769E+02 -0.59777992733E+01 -0.78807609070E+02  0.11892522717E+03  0.81945249852E+02 0.  0.
         13    1    4    4    0    0  0.50867275447E+02  0.21426409186E+01 -0.15824727025E+02  0.53315031717E+02  0.00000000000E+00 0. -1.
        -14    1    4    4    0    0 -0.16489777679E+02 -0.81204401919E+01 -0.62982882045E+02  0.65610195454E+02  0.00000000000E+00 0.  1.
        -11    1    3    3    0    0 -0.54696311599E+02  0.14142260159E+02  0.22313486756E+02  0.60741927169E+02  0.00000000000E+00 0. -1.
         11    1    3    3    0    0  0.29635624783E+01  0.57534758205E+02  0.90983321199E+02  0.10768934878E+03  0.00000000000E+00 0.  1.
         -1    1    1    2    0  502  0.17355251352E+02 -0.65699219091E+02  0.23777817208E+02  0.71992893607E+02  0.00000000000E+00 0.  1.
<scales pt_clust_5="13000.00000" pt_clust_6="13000.00000" pt_clust_7="13000.00000" pt_clust_8="13000.00000" pt_clust_9="67.95290"></scales>
<clustering>
<clus scale="   67.953">  2  9  1 -1</clus>
<clus scale="   81.945">  5  6 -1 -1</clus>
<clus scale="   87.858">  7  8 -1 -1</clus>
<clus scale="  110.921">  2  5  1 -1</clus>
<clus scale="   67.953">  2  5  1 -1</clus>
</clustering>
</event>
<event>
 9    1  0.7586638E-005  0.2447056E+03  0.7546771E-02  0.1151629E+00
          1   -1    0    0  502    0 -0.00000000000E+00  0.00000000000E+00  0.83579426979E+03  0.83579426979E+03  0.00000000000E+00 0. -1.
         21   -1    0    0  501  502  0.00000000000E+00 -0.00000000000E+00 -0.15767128635E+03  0.15767128635E+03  0.00000000000E+00 0. -1.
        -24    2    1    2    0    0 -0.47979544721E+02 -0.46218357101E+02  0.40646505985E+03  0.41966245285E+03  0.80402463951E+02 0.  0.
         23    2    1    2    0    0  0.11924635115E+03 -0.18661641284E+03  0.50105562916E+02  0.24459733737E+03  0.90950053376E+02 0.  0.
         11    1    3    3    0    0 -0.22043779556E+02 -0.66855657529E+02  0.30046100014E+03  0.30859750447E+03  0.00000000000E+00 0. -1.
        -12    1    3    3    0    0 -0.25935765164E+02  0.20637300428E+02  0.10600405971E+03  0.11106494838E+03  0.00000000000E+00 0.  1.
        -11    1    4    4    0    0  0.52582223248E+02 -0.15800435094E+02  0.16069952137E+01  0.54928375039E+02  0.00000000000E+00 0.  1.
         11    1    4    4    0    0  0.66664127902E+02 -0.17081597774E+03  0.48498567703E+02  0.18966896233E+03  0.00000000000E+00 0. -1.
          2    1    1    2  501    0 -0.71266806429E+02  0.23283476994E+03  0.22155236068E+03  0.32920576592E+03  0.00000000000E+00 0. -1.
<scales pt_clust_5="13000.00000" pt_clust_6="13000.00000" pt_clust_7="13000.00000" pt_clust_8="13000.00000" pt_clust_9="227.17609"></scales>
<clustering>
<clus scale="   80.402">  5  6 -1 -1</clus>
<clus scale="   90.950">  7  8 -1 -1</clus>
<clus scale="  104.416">  1  5  2 -1</clus>
<clus scale="  227.176">  2  9  1 -1</clus>
<clus scale="  227.176">  2  5  1 -1</clus>
</clustering>
</event>
<event>
 9    1  0.7586638E-005  0.3905882E+03  0.7546771E-02  0.1047088E+00
         21   -1    0    0  501  502  0.00000000000E+00  0.00000000000E+00  0.84151102632E+02  0.84151102632E+02  0.00000000000E+00 0.  1.
          1   -1    0    0  502    0 -0.00000000000E+00 -0.00000000000E+00 -0.17276168638E+04  0.17276168638E+04  0.00000000000E+00 0. -1.
        -24    2    1    2    0    0 -0.59880249006E+02 -0.20581700624E+03 -0.43947390541E+03  0.49552140624E+03  0.80360850088E+02 0.  0.
         23    2    1    2    0    0 -0.53436006559E+02 -0.10713462605E+03 -0.15558116774E+03  0.21627189290E+03  0.90745782315E+02 0.  0.
         13    1    3    3    0    0 -0.19111384291E+02 -0.77268213633E+02 -0.85934037455E+02  0.11713360167E+03  0.00000000000E+00 0. -1.
        -14    1    3    3    0    0 -0.40768864714E+02 -0.12854879260E+03 -0.35353986796E+03  0.37838780457E+03  0.00000000000E+00 0.  1.
        -11    1    4    4    0    0 -0.26606587392E+02 -0.27185682278E+02  0.14092210354E+01  0.38065177229E+02  0.00000000000E+00 0.  1.
         11    1    4    4    0    0 -0.26829419167E+02 -0.79948943775E+02 -0.15699038877E+03  0.17820671567E+03  0.00000000000E+00 0. -1.
          2    1    1    2  501    0  0.11331625556E+03  0.31295163229E+03 -0.10484106880E+04  0.10999746673E+04  0.00000000000E+00 0. -1.
<scales pt_clust_5="13000.00000" pt_clust_6="13000.00000" pt_clust_7="13000.00000" pt_clust_8="13000.00000" pt_clust_9="332.83541"></scales>
<clustering>
<clus scale="   80.361">  5  6 -1 -1</clus>
<clus scale="   90.746">  7  8 -1 -1</clus>
<clus scale="  120.434">  5  7 -1 -1</clus>
<clus scale="  332.835">  1  9  2 -1</clus>
<clus scale="  332.835">  1  5  2 -1</clus>
</clustering>
</event>
<event>
 9    1  0.7586638E-005  0.9336628E+02  0.7546771E-02  0.1302214E+00
          3   -1    0    0  502    0 -0.00000000000E+00  0.00000000000E+00  0.17035281149E+03  0.17035281149E+03  0.00000000000E+00 0. -1.
         21   -1    0    0  501  502  0.00000000000E+00 -0.00000000000E+00 -0.13983447598E+03  0.13983447598E+03  0.00000000000E+00 0.  1.
         23    2    1    2    0    0 -0.24786580567E+02  0.10298248082E+02  0.11552249712E+03  0.14900898180E+03  0.90209760149E+02 0.  0.
        -24    2    1    2    0    0  0.16335377708E+02  0.29549019370E+02 -0.85402391437E+02  0.12044274210E+03  0.77928791542E+02 0.  0.
         11    1    4    4    0    0 -0.57220592118E-01 -0.24388324573E+02 -0.10148569080E+02  0.26415660205E+02  0.00000000000E+00 0. -1.
        -12    1    4    4    0    0  0.16392598300E+02  0.53937343943E+02 -0.75253822357E+02  0.94027081896E+02  0.00000000000E+00 0.  1.
        -11    1    3    3    0    0 -0.38045434107E+02  0.43459668326E+02  0.79660578021E+02  0.98397182470E+02  0.00000000000E+00 0.  1.
         11    1    3    3    0    0  0.13258853540E+02 -0.33161420244E+02  0.35861919097E+02  0.50611799327E+02  0.00000000000E+00 0. -1.
          4    1    1    2  501    0  0.84512028595E+01 -0.39847267452E+02  0.39822982610E+00  0.40735563579E+02  0.00000000000E+00 0. -1.
<scales pt_clust_5="13000.00000" pt_clust_6="13000.00000" pt_clust_7="13000.00000" pt_clust_8="13000.00000" pt_clust_9="40.73362"></scales>
<clustering>
<clus scale="   40.734">  2  9  1 -1</clus>
<clus scale="   77.929">  5  6 -1 -1</clus>
<clus scale="   81.562">  2  5  1 -1</clus>
<clus scale="   90.210">  7  8 -1 -1</clus>
<clus scale="   40.734">  2  5  1 -1</clus>
</clustering>
</event>
<event>
 9    1  0.7586638E-005  0.1334256E+03  0.7546771E-02  0.1225066E+00
         21   -1    0    0  501  502  0.00000000000E+00  0.00000000000E+00  0.18433038210E+03  0.18433038210E+03  0.00000000000E+00 0. -1.
          3   -1    0    0  502    0 -0.00000000000E+00 -0.00000000000E+00 -0.13222304589E+03  0.13222304589E+03  0.00000000000E+00 0. -1.
        -24    2    1    2    0    0 -0.63487196373E+02 -0.52378282875E+02  0.38974844852E+02  0.12127722471E+03  0.80093808011E+02 0.  0.
         23    2    1    2    0    0  0.83311892586E+02  0.81089264646E+02  0.38099048036E+02  0.15237319631E+03  0.90827931866E+02 0.  0.
         11    1    3    3    0    0 -0.65763134797E+02 -0.35657633783E+01  0.19642880480E+02  0.68726612897E+02  0.00000000000E+00 0. -1.
        -12    1    3    3    0    0  0.22759384235E+01 -0.48812519497E+02  0.19331964373E+02  0.52550611812E+02  0.00000000000E+00 0.  1.
        -13    1    4    4    0    0  0.50639609184E+02  0.95049552511E+02  0.12159395868E+02  0.10838190974E+03  0.00000000000E+00 0. -1.
         13    1    4    4    0    0  0.32672283401E+02 -0.13960287866E+02  0.25939652168E+02  0.43991286575E+02  0.00000000000E+00 0.  1.
          4    1    1    2  501    0 -0.19824696212E+02 -0.28710981770E+02 -0.24966556684E+02  0.42903006967E+02  0.00000000000E+00 0. -1.
<scales pt_clust_5="13000.00000" pt_clust_6="13000.00000" pt_clust_7="13000.00000" pt_clust_8="13000.00000" pt_clust_9="34.89040"></scales>
<clustering>
<clus scale="   34.890">  1  9  2 -1</clus>
<clus scale="   80.094">  5  6 -1 -1</clus>
<clus scale="   90.828">  7  8 -1 -1</clus>
<clus scale="  126.363">  2  5  1 -1</clus>
<clus scale="   34.890">  1  5  2 -1</clus>
</clustering>
</event>
<event>
 9    1  0.7586638E-005  0.1081612E+03  0.7546771E-02  0.1266618E+00
          1   -1    0    0  502    0 -0.00000000000E+00  0.00000000000E+00  0.51748888112E+03  0.51748888112E+03  0.00000000000E+00 0. -1.
         21   -1    0    0  501  502  0.00000000000E+00 -0.00000000000E+00 -0.89287169491E+02  0.89287169491E+02  0.00000000000E+00 0. -1.
         23    2    1    2    0    0 -0.16710273685E+01 -0.55960965613E+02  0.26475296834E+03  0.28430202475E+03  0.87172730983E+02 0.  0.
        -24    2    1    2    0    0  0.80878004889E+02  0.60149736534E+02  0.19773077833E+03  0.23606483066E+03  0.80435695406E+02 0.  0.
         13    1    4    4    0    0  0.87256222067E+02  0.23631417075E+02  0.15553336668E+03  0.17989641551E+03  0.00000000000E+00 0. -1.
        -14    1    4    4    0    0 -0.63782171776E+01  0.36518319459E+02  0.42197411644E+02  0.56168415145E+02  0.00000000000E+00 0.  1.
        -11    1    3    3    0    0  0.16191717797E+02 -0.68800851924E+02  0.24410275231E+03  0.25412965714E+03  0.00000000000E+00 0.  1.
         11    1    3    3    0    0 -0.17862745165E+02  0.12839886310E+02  0.20650216028E+02  0.30172367612E+02  0.00000000000E+00 0. -1.
          2    1    1    2  501    0 -0.79206977521E+02 -0.41887709209E+01 -0.34282035037E+02  0.86409195205E+02  0.00000000000E+00 0. -1.
<scales pt_clust_5="13000.00000" pt_clust_6="13000.00000" pt_clust_7="13000.00000" pt_clust_8="13000.00000" pt_clust_9="79.31766"></scales>
<clustering>
<clus scale="   79.318">  2  9  1 -1</clus>
<clus scale="   80.436">  5  6 -1 -1</clus>
<clus scale="   87.173">  7  8 -1 -1</clus>
<clus scale="  102.809">  2  5  1 -1</clus>
<clus scale="   79.318">  2  5  1 -1</clus>
</clustering>
</event>
<event>
 9    1  0.7586638E-005  0.1000578E+03  0.7546771E-02  0.1284957E+00
          1   -1    0    0  502    0 -0.00000000000E+00  0.00000000000E+00  0.44061348198E+03  0.44061348198E+03  0.00000000000E+00 0. -1.
         21   -1    0    0  501  502  0.00000000000E+00 -0.00000000000E+00 -0.12788922749E+03  0.12788922749E+03  0.00000000000E+00 0. -1.
         23    2    1    2    0    0 -0.19754939467E+02 -0.42719449812E+02  0.31059364125E+03  0.32672467972E+03  0.89807557170E+02 0.  0.
        -24    2    1    2    0    0 -0.33939303708E+02  0.46766573727E+02  0.93342633837E+02  0.13585785384E+03  0.80034495093E+02 0.  0.
         11    1    4    4    0    0 -0.53593530145E+02  0.95374266613E+01  0.66461180924E+02  0.85908774584E+02  0.00000000000E+00 0. -1.
        -12    1    4    4    0    0  0.19654226437E+02  0.37229147066E+02  0.26881452913E+02  0.49949079259E+02  0.00000000000E+00 0.  1.
        -13    1    3    3    0    0 -0.12855947747E+01 -0.69133791741E+02  0.21458290461E+03  0.22544834633E+03  0.00000000000E+00 0.  1.
         13    1    3    3    0    0 -0.18469344693E+02  0.26414341929E+02  0.96010736643E+02  0.10127633338E+03  0.00000000000E+00 0. -1.
          2    1    1    2  501    0  0.53694243175E+02 -0.40471239148E+01 -0.91212020599E+02  0.10592017591E+03  0.00000000000E+00 0. -1.
<scales pt_clust_5="13000.00000" pt_clust_6="13000.00000" pt_clust_7="13000.00000" pt_clust_8="13000.00000" pt_clust_9="53.84655"></scales>
<clustering>
<clus scale="   53.847">  2  9  1 -1</clus>
<clus scale="   80.034">  5  6 -1 -1</clus>
<clus scale="   89.808">  7  8 -1 -1</clus>
<clus scale="   91.388">  2  5  1 -1</clus>
<clus scale="   53.847">  2  5  1 -1</clus>
</clustering>
</event>
<event>
 9    1  0.7586638E-005  0.1008530E+03  0.7546771E-02  0.1283227E+00
          1   -1    0    0  502    0 -0.00000000000E+00  0.00000000000E+00  0.26176854345E+03  0.26176854345E+03  0.00000000000E+00 0. -1.
         21   -1    0    0  501  502  0.00000000000E+00 -0.00000000000E+00 -0.10215789093E+03  0.10215789093E+03  0.00000000000E+00 0.  1.
         23    2    1    2    0    0 -0.38243164756E+02  0.51076236955E+01  0.94443014469E+02  0.13664403620E+03  0.90903697260E+02 0.  0.
        -24    2    1    2    0    0  0.54582613066E+02 -0.41345258302E+02 -0.41043213031E+02  0.11387654022E+03  0.81207321364E+02 0.  0.
         11    1    4    4    0    0  0.68681416209E+02 -0.16747190657E+02 -0.92800237785E+01  0.71300239611E+02  0.00000000000E+00 0. -1.
        -12    1    4    4    0    0 -0.14098803143E+02 -0.24598067645E+02 -0.31763189253E+02  0.42576300607E+02  0.00000000000E+00 0.  1.
        -13    1    3    3    0    0  0.25235678213E+02  0.18375960186E+01  0.32872356235E+01  0.25515135353E+02  0.00000000000E+00 0.  1.
         13    1    3    3    0    0 -0.63478842969E+02  0.32700276769E+01  0.91155778845E+02  0.11112890084E+03  0.00000000000E+00 0. -1.
          2    1    1    2  501    0 -0.16339448310E+02  0.36237634606E+02  0.10621085108E+03  0.11340585796E+03  0.00000000000E+00 0. -1.
<scales pt_clust_5="13000.00000" pt_clust_6="13000.00000" pt_clust_7="13000.00000" pt_clust_8="13000.00000" pt_clust_9="39.75104"></scales>
<clustering>
<clus scale="   39.751">  2  9  1 -1</clus>
<clus scale="   81.207">  5  6 -1 -1</clus>
<clus scale="   90.904">  7  8 -1 -1</clus>
<clus scale="   92.209">  2  5  1 -1</clus>
<clus scale="   39.751">  2  5  1 -1</clus>
</clustering>
</event>
<event>
 9    1  0.7586638E-005  0.9822326E+02  0.7546771E-02  0.1287042E+00
          1   -1    0    0  502    0 -0.00000000000E+00  0.00000000000E+00  0.24843339593E+03  0.24843339593E+03  0.00000000000E+00 0. -1.
         21   -1    0    0  501  502  0.00000000000E+00 -0.00000000000E+00 -0.59009985789E+02  0.59009985789E+02  0.00000000000E+00 0.  1.
         23    2    1    2    0    0 -0.67411233032E+01 -0.39974313301E+02  0.13862436697E+03  0.17118309297E+03  0.91888779153E+02 0.  0.
        -24    2    1    2    0    0 -0.22693650921E+02  0.23617471184E+02  0.31258325515E+02  0.97327116973E+02  0.86155081377E+02 0.  0.
         11    1    4    4    0    0 -0.45276323286E+02  0.33763393922E+02  0.41955770244E+02  0.70357649735E+02  0.00000000000E+00 0. -1.
        -12    1    4    4    0    0  0.22582672365E+02 -0.10145922738E+02 -0.10697444729E+02  0.26969467238E+02  0.00000000000E+00 0.  1.
        -13    1    3    3    0    0 -0.48384691154E+02 -0.15882583566E+02  0.56998452309E+02  0.76434013138E+02  0.00000000000E+00 0.  1.
         13    1    3    3    0    0  0.41643567851E+02 -0.24091729735E+02  0.81625914665E+02  0.94749079837E+02  0.00000000000E+00 0. -1.
          2    1    1    2  501    0  0.29434774224E+02  0.16356842117E+02  0.19540717647E+02  0.38933171767E+02  0.00000000000E+00 0. -1.
<scales pt_clust_5="13000.00000" pt_clust_6="13000.00000" pt_clust_7="13000.00000" pt_clust_8="13000.00000" pt_clust_9="33.67421"></scales>
<clustering>
<clus scale="   33.674">  2  9  1 -1</clus>
<clus scale="   86.155">  5  6 -1 -1</clus>
<clus scale="   91.889">  7  8 -1 -1</clus>
<clus scale="   92.881">  2  5  1 -1</clus>
<clus scale="   33.674">  2  5  1 -1</clus>
</clustering>
</event>
<event>
 9    1  0.7586638E-005  0.1635745E+03  0.7546771E-02  0.1190405E+00
         21   -1    0    0  501  502  0.00000000000E+00  0.00000000000E+00  0.12524257568E+03  0.12524257568E+03  0.00000000000E+00 0. -1.
          3   -1    0    0  502    0 -0.00000000000E+00 -0.00000000000E+00 -0.51709925337E+03  0.51709925337E+03  0.00000000000E+00 0. -1.
         23    2    1    2    0    0  0.83116906285E+02  0.10199031629E+03 -0.42202495529E+03  0.45516870321E+03  0.10845755283E+03 0.  0.
        -24    2    1    2    0    0 -0.19000524816E+02 -0.90104019626E+02  0.21187823310E+02  0.12134879158E+03  0.76137054483E+02 0.  0.
         11    1    4    4    0    0 -0.47278159327E+02 -0.62982904808E+02  0.48649509956E+01  0.78903348444E+02  0.00000000000E+00 0. -1.
        -12    1    4    4    0    0  0.28277634511E+02 -0.27121114817E+02  0.16322872314E+02  0.42445443136E+02  0.00000000000E+00 0.  1.
        -11    1    3    3    0    0 -0.19128920301E+02  0.27839760475E+02 -0.37685073525E+02  0.50607634026E+02  0.00000000000E+00 0.  1.
         11    1    3    3    0    0  0.10224582659E+03  0.74150555814E+02 -0.38433988177E+03  0.40456106919E+03  0.00000000000E+00 0. -1.
          4    1    1    2  501    0 -0.64116381468E+02 -0.11886296663E+02  0.89804542877E+01  0.65824334255E+02  0.00000000000E+00 0. -1.
<scales pt_clust_5="13000.00000" pt_clust_6="13000.00000" pt_clust_7="13000.00000" pt_clust_8="13000.00000" pt_clust_9="65.20885"></scales>
<clustering>
<clus scale="   65.209">  1  9  2 -1</clus>
<clus scale="   76.137">  5  6 -1 -1</clus>
<clus scale="  108.458">  7  8 -1 -1</clus>
<clus scale="  144.189">  1  5  2 -1</clus>
<clus scale="   65.209">  1  5  2 -1</clus>
</clustering>
</event>
<event>
 9    1  0.7586638E-005  0.1245766E+03  0.7546771E-02  0.1250943E+00
          1   -1    0    0  502    0 -0.00000000000E+00  0.00000000000E+00  0.30151463053E+03  0.30151463053E+03  0.00000000000E+00 0. -1.
         21   -1    0    0  501  502  0.00000000000E+00 -0.00000000000E+00 -0.69888340313E+02  0.69888340313E+02  0.00000000000E+00 0. -1.
         23    2    1    2    0    0  0.36118902871E+01  0.47974701295E+02  0.19416054851E+03  0.22864635956E+03  0.11075297481E+03 0.  0.
        -24    2    1    2    0    0 -0.19714494208E+02 -0.74945657357E+02  0.35073689119E+02  0.11125346478E+03  0.71705347913E+02 0.  0.
         11    1    4    4    0    0  0.18118811867E+02 -0.22911550083E+02 -0.11955926915E+02  0.31562234697E+02  0.00000000000E+00 0. -1.
        -12    1    4    4    0    0 -0.37833306074E+02 -0.52034107274E+02  0.47029616034E+02  0.79691230086E+02  0.00000000000E+00 0.  1.
        -11    1    3    3    0    0 -0.20777806849E+02  0.70061344274E+02  0.73760937037E+02  0.10383152244E+03  0.00000000000E+00 0.  1.
         11    1    3    3    0    0  0.24389697136E+02 -0.22086642979E+02  0.12039961147E+03  0.12481483712E+03  0.00000000000E+00 0. -1.
          2    1    1    2  501    0  0.16102603921E+02  0.26970956062E+02  0.23920525959E+01  0.31503146502E+02  0.00000000000E+00 0. -1.
<scales pt_clust_5="13000.00000" pt_clust_6="13000.00000" pt_clust_7="13000.00000" pt_clust_8="13000.00000" pt_clust_9="31.41220"></scales>
<clustering>
<clus scale="   31.412">  2  9  1 -1</clus>
<clus scale="   71.705">  5  6 -1 -1</clus>
<clus scale="   91.623">  2  5  1 -1</clus>
<clus scale="  110.753">  7  8 -1 -1</clus>
<clus scale="   31.412">  2  5  1 -1</clus>
</clustering>
</event>
<event>
 9    1  0.7619836E-005  0.1018929E+03  0.7546771E-02  0.1285354E+00
         -2   -1    0    0    0  501 -0.00000000000E+00  0.00000000000E+00  0.20453569802E+03  0.20453569802E+03  0.00000000000E+00 0.  1.
         21   -1    0    0  501  502  0.00000000000E+00 -0.00000000000E+00 -0.20362416682E+03  0.20362416682E+03  0.00000000000E+00 0. -1.
        -24    2    1    2    0    0  0.51664507916E+01 -0.27898143628E+02  0.13679636512E+03  0.16175184168E+03  0.81519409608E+02 0.  0.
         23    2    1    2    0    0  0.11843445553E+02  0.93926183222E+01 -0.17421413048E+03  0.20057216367E+03  0.98235131691E+02 0.  0.
         13    1    3    3    0    0  0.23720658243E+02  0.21259890477E+02  0.35902917759E+02  0.47996583985E+02  0.00000000000E+00 0. -1.
        -14    1    3    3    0    0 -0.18554207451E+02 -0.49158034105E+02  0.10089344737E+03  0.11375525769E+03  0.00000000000E+00 0.  1.
        -13    1    4    4    0    0  0.44057768695E+02  0.35628468884E+02 -0.11545048070E+03  0.12860516425E+03  0.00000000000E+00 0. -1.
         13    1    4    4    0    0 -0.32214323142E+02 -0.26235850562E+02 -0.58763649787E+02  0.71966999426E+02  0.00000000000E+00 0.  1.
         -1    1    1    2    0  502 -0.17009896345E+02  0.18505525306E+02  0.38329296564E+02  0.45835859494E+02  0.00000000000E+00 0.  1.
<scales pt_clust_5="13000.00000" pt_clust_6="13000.00000" pt_clust_7="13000.00000" pt_clust_8="13000.00000" pt_clust_9="25.13547"></scales>
<clustering>
<clus scale="   25.135">  2  9  1 -1</clus>
<clus scale="   81.519">  5  6 -1 -1</clus>
<clus scale="   85.892">  1  5  2 -1</clus>
<clus scale="   98.235">  7  8 -1 -1</clus>
<clus scale="   25.135">  2  5  1 -1</clus>
</clustering>
</event>
<event>
 9    1  0.7586638E-005  0.9997438E+02  0.7546771E-02  0.1287671E+00
         21   -1    0    0  501  502  0.00000000000E+00  0.00000000000E+00  0.15906445256E+03  0.15906445256E+03  0.00000000000E+00 0. -1.
          1   -1    0    0  502    0 -0.00000000000E+00 -0.00000000000E+00 -0.45026440244E+03  0.45026440244E+03  0.00000000000E+00 0. -1.
        -24    2    1    2    0    0  0.15612618595E+02  0.22963473612E+02 -0.35862479569E+03  0.36883048253E+03  0.81566572695E+02 0.  0.
         23    2    1    2    0    0 -0.34137288830E+02 -0.34156092137E+02 -0.52251419554E+02  0.11888074789E+03  0.95238795954E+02 0.  0.
         11    1    3    3    0    0  0.64032626984E+01  0.52973533682E+02 -0.25644314163E+03  0.26193564464E+03  0.00000000000E+00 0. -1.
        -12    1    3    3    0    0  0.92093558963E+01 -0.30010060071E+02 -0.10218165406E+03  0.10689483789E+03  0.00000000000E+00 0.  1.
        -11    1    4    4    0    0 -0.59814724194E+02 -0.12025340106E+01 -0.12304245548E+02  0.61078979829E+02  0.00000000000E+00 0.  1.
         11    1    4    4    0    0  0.25677435363E+02 -0.32953558126E+02 -0.39947174006E+02  0.57801768062E+02  0.00000000000E+00 0. -1.
          2    1    1    2  501    0  0.18524670236E+02  0.11192618525E+02  0.11967626536E+03  0.12161762458E+03  0.00000000000E+00 0. -1.
<scales pt_clust_5="13000.00000" pt_clust_6="13000.00000" pt_clust_7="13000.00000" pt_clust_8="13000.00000" pt_clust_9="21.64343"></scales>
<clustering>
<clus scale="   21.643">  1  9  2 -1</clus>
<clus scale="   81.567">  5  6 -1 -1</clus>
<clus scale="   87.049">  2  5  1 -1</clus>
<clus scale="   95.239">  7  8 -1 -1</clus>
<clus scale="   21.643">  1  5  2 -1</clus>
</clustering>
</event>
<event>
 9    1  0.7586638E-005  0.1077344E+03  0.7546771E-02  0.1269222E+00
         21   -1    0    0  501  502  0.00000000000E+00  0.00000000000E+00  0.63261511366E+02  0.63261511366E+02  0.00000000000E+00 0. -1.
         -2   -1    0    0    0  501 -0.00000000000E+00 -0.00000000000E+00 -0.42445997485E+03  0.42445997485E+03  0.00000000000E+00 0.  1.
        -24    2    1    2    0    0  0.15935717328E+02  0.57363674156E+02 -0.32648179642E+03  0.34156240345E+03  0.80808253617E+02 0.  0.
         23    2    1    2    0    0 -0.40547967927E+02 -0.33698785361E+02 -0.37308186215E+02  0.11191721055E+03  0.91399209087E+02 0.  0.
         11    1    3    3    0    0 -0.10992116726E+02  0.53537268380E+02 -0.10458186156E+03  0.11800182839E+03  0.00000000000E+00 0. -1.
        -12    1    3    3    0    0  0.26927834054E+02  0.38264057764E+01 -0.22189993486E+03  0.22356057505E+03  0.00000000000E+00 0.  1.
        -13    1    4    4    0    0  0.17513262055E+02  0.13300558787E+02 -0.29522311683E+02  0.36812852361E+02  0.00000000000E+00 0.  1.
         13    1    4    4    0    0 -0.58061229982E+02 -0.46999344149E+02 -0.77858745323E+01  0.75104358194E+02  0.00000000000E+00 0. -1.
         -1    1    1    2    0  502  0.24612250599E+02 -0.23664888795E+02  0.25915191551E+01  0.34241872214E+02  0.00000000000E+00 0.  1.
<scales pt_clust_5="13000.00000" pt_clust_6="13000.00000" pt_clust_7="13000.00000" pt_clust_8="13000.00000" pt_clust_9="34.14366"></scales>
<clustering>
<clus scale="   34.144">  1  9  2 -1</clus>
<clus scale="   80.808">  5  6 -1 -1</clus>
<clus scale="   91.399">  7  8 -1 -1</clus>
<clus scale="   98.908">  2  5  1 -1</clus>
<clus scale="   34.144">  1  5  2 -1</clus>
</clustering>
</event>
<event>
 9    1  0.7586638E-005  0.2222742E+03  0.7546771E-02  0.1147155E+00
         21   -1    0    0  501  502  0.00000000000E+00  0.00000000000E+00  0.23940302629E+03  0.23940302629E+03  0.00000000000E+00 0.  1.
         -2   -1    0    0    0  501 -0.00000000000E+00 -0.00000000000E+00 -0.81168997289E+03  0.81168997289E+03  0.00000000000E+00 0.  1.
         23    2    1    2    0    0 -0.93261963531E+02  0.80636402456E+02  0.76473209940E+02  0.17277043224E+03  0.93816028345E+02 0.  0.
        -24    2    1    2    0    0  0.28257803670E+03 -0.10243447848E+03 -0.60836591042E+03  0.68352157414E+03  0.82155292872E+02 0.  0.
         13    1    4    4    0    0  0.23159249955E+02 -0.34733319041E+02 -0.59635125306E+02  0.72794934442E+02  0.00000000000E+00 0. -1.
        -14    1    4    4    0    0  0.25941878674E+03 -0.67701159443E+02 -0.54873078511E+03  0.61072663970E+03  0.00000000000E+00 0.  1.
        -13    1    3    3    0    0 -0.20353782778E+02  0.91305091142E+01  0.66525452669E+02  0.70166078149E+02  0.00000000000E+00 0.  1.
         13    1    3    3    0    0 -0.72908180753E+02  0.71505893342E+02  0.99477572715E+01  0.10260435409E+03  0.00000000000E+00 0. -1.
         -1    1    1    2    0  502 -0.18931607317E+03  0.21798076029E+02 -0.40394246119E+02  0.19480099280E+03  0.00000000000E+00 0.  1.
<scales pt_clust_5="13000.00000" pt_clust_6="13000.00000" pt_clust_7="13000.00000" pt_clust_8="13000.00000" pt_clust_9="206.53410"></scales>
<clustering>
<clus scale="   82.155">  5  6 -1 -1</clus>
<clus scale="   93.816">  7  8 -1 -1</clus>
<clus scale="  154.924">  2  7  1 -1</clus>
<clus scale="  206.534">  1  9  2 -1</clus>
<clus scale="  206.534">  1  5  2 -1</clus>
</clustering>
</event>
<event>
 9    1  0.7586638E-005  0.1761061E+03  0.7546771E-02  0.1172805E+00
         -4   -1    0    0    0  501 -0.00000000000E+00  0.00000000000E+00  0.35856847871E+03  0.35856847871E+03  0.00000000000E+00 0.  1.
         21   -1    0    0  501  502  0.00000000000E+00 -0.00000000000E+00 -0.32929596381E+03  0.32929596381E+03  0.00000000000E+00 0.  1.
        -24    2    1    2    0    0 -0.22023627934E+02  0.14777709844E+03  0.27982082196E+03  0.32751329490E+03  0.81499416708E+02 0.  0.
         23    2    1    2    0    0  0.67872799131E+02 -0.15859237817E+03 -0.24468380825E+03  0.31288000774E+03  0.90914652005E+02 0.  0.
         11    1    3    3    0    0  0.29673274596E+02  0.69469987776E+02  0.14088204742E+03  0.15985722915E+03  0.00000000000E+00 0. -1.
        -12    1    3    3    0    0 -0.51696902530E+02  0.78307110665E+02  0.13893877454E+03  0.16765606575E+03  0.00000000000E+00 0.  1.
        -13    1    4    4    0    0  0.50907593637E+01 -0.11939335614E+03 -0.13195465991E+03  0.17802449718E+03  0.00000000000E+00 0.  1.
         13    1    4    4    0    0  0.62782039767E+02 -0.39199022027E+02 -0.11272914833E+03  0.13485551056E+03  0.00000000000E+00 0. -1.
         -3    1    1    2    0  502 -0.45849171197E+02  0.10815279729E+02 -0.58644988117E+01  0.47471139879E+02  0.00000000000E+00 0.  1.
<scales pt_clust_5="13000.00000" pt_clust_6="13000.00000" pt_clust_7="13000.00000" pt_clust_8="13000.00000" pt_clust_9="47.10750"></scales>
<clustering>
<clus scale="   47.108">  2  9  1 -1</clus>
<clus scale="   81.499">  5  6 -1 -1</clus>
<clus scale="   90.915">  7  8 -1 -1</clus>
<clus scale="  171.435">  1  5  2 -1</clus>
<clus scale="   47.108">  2  5  1 -1</clus>
</clustering>
</event>
<event>
 9    1  0.7586638E-005  0.9253787E+02  0.7546771E-02  0.1304503E+00
          3   -1    0    0  502    0 -0.00000000000E+00  0.00000000000E+00  0.51023238574E+03  0.51023238574E+03  0.00000000000E+00 0. -1.
         21   -1    0    0  501  502  0.00000000000E+00 -0.00000000000E+00 -0.42697343228E+02  0.42697343228E+02  0.00000000000E+00 0. -1.
        -24    2    1    2    0    0 -0.17795451861E+01 -0.51243560444E+01  0.40598423900E+03  0.41381459570E+03  0.79936796825E+02 0.  0.
         23    2    1    2    0    0 -0.98024074708E+01  0.26782477655E+02  0.61715513669E+02  0.11455412782E+03  0.92197913601E+02 0.  0.
         11    1    3    3    0    0 -0.27405260264E+02  0.26960673774E+02  0.22196870789E+03  0.22527324187E+03  0.00000000000E+00 0. -1.
        -12    1    3    3    0    0  0.25625715078E+02 -0.32085029818E+02  0.18401553112E+03  0.18854135383E+03  0.00000000000E+00 0.  1.
        -11    1    4    4    0    0 -0.43818507427E+01  0.61271468488E+02  0.36073566122E+02  0.71236898019E+02  0.00000000000E+00 0. -1.
         11    1    4    4    0    0 -0.54205567281E+01 -0.34488990833E+02  0.25641947546E+02  0.43317229804E+02  0.00000000000E+00 0.  1.
          4    1    1    2  501    0  0.11581952657E+02 -0.21658121611E+02 -0.16471016292E+00  0.24561005445E+02  0.00000000000E+00 0. -1.
<scales pt_clust_5="13000.00000" pt_clust_6="13000.00000" pt_clust_7="13000.00000" pt_clust_8="13000.00000" pt_clust_9="24.56045"></scales>
<clustering>
<clus scale="   24.560">  2  9  1 -1</clus>
<clus scale="   79.937">  5  6 -1 -1</clus>
<clus scale="   80.329">  1  5  2 -1</clus>
<clus scale="   92.198">  7  8 -1 -1</clus>
<clus scale="   24.560">  2  5  1 -1</clus>
</clustering>
</event>
<event>
 9    1  0.7586638E-005  0.9043511E+02  0.7546771E-02  0.1307664E+00
         21   -1    0    0  501  502  0.00000000000E+00  0.00000000000E+00  0.80364450992E+02  0.80364450992E+02  0.00000000000E+00 0. -1.
          1   -1    0    0  502    0 -0.00000000000E+00 -0.00000000000E+00 -0.27291842839E+03  0.27291842839E+03  0.00000000000E+00 0. -1.
         23    2    1    2    0    0  0.10368712033E+02  0.18332978130E+02 -0.22096721603E+03  0.23908533037E+03  0.88835107725E+02 0.  0.
        -24    2    1    2    0    0 -0.35263938806E+01  0.10996910216E+02  0.23718856344E+02  0.83716458263E+02  0.79451203576E+02 0.  0.
         11    1    4    4    0    0  0.30656989480E+02  0.22064583232E+02  0.28705570854E+02  0.47441612907E+02  0.00000000000E+00 0. -1.
        -12    1    4    4    0    0 -0.34183383360E+02 -0.11067673016E+02 -0.49867145104E+01  0.36274845356E+02  0.00000000000E+00 0.  1.
        -11    1    3    3    0    0 -0.68570672686E+01 -0.34786061442E+02 -0.85930142889E+02  0.92957403681E+02  0.00000000000E+00 0.  1.
         11    1    3    3    0    0  0.17225779302E+02  0.53119039572E+02 -0.13503707314E+03  0.14612792669E+03  0.00000000000E+00 0. -1.
          2    1    1    2  501    0 -0.68423181529E+01 -0.29329888346E+02  0.46943822836E+01  0.30481090747E+02  0.00000000000E+00 0. -1.
<scales pt_clust_5="13000.00000" pt_clust_6="13000.00000" pt_clust_7="13000.00000" pt_clust_8="13000.00000" pt_clust_9="30.11743"></scales>
<clustering>
<clus scale="   30.117">  1  9  2 -1</clus>
<clus scale="   79.451">  5  6 -1 -1</clus>
<clus scale="   81.236">  1  5  2 -1</clus>
<clus scale="   88.835">  7  8 -1 -1</clus>
<clus scale="   30.117">  1  5  2 -1</clus>
</clustering>
</event>
<event>
 9    1  0.7586638E-005  0.9726712E+02  0.7546771E-02  0.1292249E+00
         21   -1    0    0  501  502  0.00000000000E+00  0.00000000000E+00  0.16263993585E+03  0.16263993585E+03  0.00000000000E+00 0.  1.
         -4   -1    0    0    0  501 -0.00000000000E+00 -0.00000000000E+00 -0.15003045255E+03  0.15003045255E+03  0.00000000000E+00 0.  1.
         23    2    1    2    0    0 -0.48672280026E+01 -0.45600043218E+02 -0.29092275673E+02  0.10621314386E+03  0.91278790387E+02 0.  0.
        -24    2    1    2    0    0  0.60675824889E+02 -0.20436960816E+02  0.59080174867E+02  0.11826713893E+03  0.79983898351E+02 0.  0.
         11    1    4    4    0    0  0.32755793975E+02  0.29668238667E+02  0.18022992943E+02  0.47728133204E+02  0.00000000000E+00 0. -1.
        -12    1    4    4    0    0  0.27920030914E+02 -0.50105199483E+02  0.41057181925E+02  0.70539005728E+02  0.00000000000E+00 0.  1.
        -11    1    3    3    0    0  0.21333535594E+02 -0.65732017925E+02 -0.19379785464E+02  0.71773212315E+02  0.00000000000E+00 0.  1.
         11    1    3    3    0    0 -0.26200763596E+02  0.20131974707E+02 -0.97124902082E+01  0.34439931543E+02  0.00000000000E+00 0. -1.
         -3    1    1    2    0  502 -0.55808596886E+02  0.66037004034E+02 -0.17378415901E+02  0.88190105609E+02  0.00000000000E+00 0.  1.
<scales pt_clust_5="13000.00000" pt_clust_6="13000.00000" pt_clust_7="13000.00000" pt_clust_8="13000.00000" pt_clust_9="86.46093"></scales>
<clustering>
<clus scale="   79.984">  5  6 -1 -1</clus>
<clus scale="   86.461">  1  9  2 -1</clus>
<clus scale="   86.755">  1  5  2 -1</clus>
<clus scale="   91.279">  7  8 -1 -1</clus>
<clus scale="   86.461">  1  5  2 -1</clus>
</clustering>
</event>
<event>
 9    1  0.7586638E-005  0.9048819E+02  0.7546771E-02  0.1305067E+00
         21   -1    0    0  501  502  0.00000000000E+00  0.00000000000E+00  0.49344631014E+03  0.49344631014E+03  0.00000000000E+00 0. -1.
          1   -1    0    0  502    0 -0.00000000000E+00 -0.00000000000E+00 -0.72150739396E+02  0.72150739396E+02  0.00000000000E+00 0. -1.
        -24    2    1    2    0    0  0.25474717159E+02  0.15898525844E+02 -0.13751413868E+02  0.88347923955E+02  0.81942235419E+02 0.  0.
         23    2    1    2    0    0  0.78153993604E+00  0.66320764136E+02  0.23920304436E+03  0.26322984697E+03  0.87594528067E+02 0.  0.
         11    1    3    3    0    0  0.14724845083E+02  0.43190110968E+02 -0.30198719801E+02  0.54719004247E+02  0.00000000000E+00 0. -1.
        -12    1    3    3    0    0  0.10749872076E+02 -0.27291585125E+02  0.16447305933E+02  0.33628919708E+02  0.00000000000E+00 0.  1.
        -13    1    4    4    0    0 -0.23716318020E+02 -0.75818428476E+01  0.10651313981E+03  0.10938462887E+03  0.00000000000E+00 0.  1.
         13    1    4    4    0    0  0.24497857956E+02  0.73902606984E+02  0.13268990454E+03  0.15384521810E+03  0.00000000000E+00 0. -1.
          2    1    1    2  501    0 -0.26256257095E+02 -0.82219289980E+02  0.19584394025E+03  0.21401927861E+03  0.00000000000E+00 0. -1.
<scales pt_clust_5="13000.00000" pt_clust_6="13000.00000" pt_clust_7="13000.00000" pt_clust_8="13000.00000" pt_clust_9="86.30992"></scales>
<clustering>
<clus scale="   81.942">  5  6 -1 -1</clus>
<clus scale="   86.310">  1  9  2 -1</clus>
<clus scale="   85.028">  2  5  1 -1</clus>
<clus scale="   87.595">  7  8 -1 -1</clus>
<clus scale="   86.310">  1  5  2 -1</clus>
</clustering>
</event>
<event>
 9    1  0.7586638E-005  0.1037388E+03  0.7546771E-02  0.1280478E+00
          1   -1    0    0  502    0 -0.00000000000E+00  0.00000000000E+00  0.19881381329E+03  0.19881381329E+03  0.00000000000E+00 0. -1.
         21   -1    0    0  501  502  0.00000000000E+00 -0.00000000000E+00 -0.86991585276E+02  0.86991585276E+02  0.00000000000E+00 0. -1.
         23    2    1    2    0    0  0.26522357491E+02  0.30237172364E+02  0.13497559074E+03  0.17058460873E+03  0.96244358795E+02 0.  0.
        -24    2    1    2    0    0 -0.36047804322E+02 -0.11512839802E+02 -0.28851558615E+02  0.93453745856E+02  0.80431340304E+02 0.  0.
         13    1    4    4    0    0  0.45867958260E+01  0.26766239696E+02 -0.25936776956E+02  0.37552452413E+02  0.00000000000E+00 0. -1.
        -14    1    4    4    0    0 -0.40634600148E+02 -0.38279079498E+02 -0.29147816597E+01  0.55901293443E+02  0.00000000000E+00 0.  1.
        -11    1    3    3    0    0  0.55513590819E+02  0.35492506326E+01  0.11178832660E+03  0.12486386951E+03  0.00000000000E+00 0. -1.
         11    1    3    3    0    0 -0.28991233328E+02  0.26687921731E+02  0.23187264144E+02  0.45720739219E+02  0.00000000000E+00 0.  1.
          2    1    1    2  501    0  0.95254468316E+01 -0.18724332562E+02  0.56981958857E+01  0.21767043979E+02  0.00000000000E+00 0. -1.
<scales pt_clust_5="13000.00000" pt_clust_6="13000.00000" pt_clust_7="13000.00000" pt_clust_8="13000.00000" pt_clust_9="21.00797"></scales>
<clustering>
<clus scale="   21.008">  2  9  1 -1</clus>
<clus scale="   80.431">  5  6 -1 -1</clus>
<clus scale="   89.263">  2  5  1 -1</clus>
<clus scale="   96.244">  7  8 -1 -1</clus>
<clus scale="   21.008">  2  5  1 -1</clus>
</clustering>
</event>
<event>
 9    1  0.7586638E-005  0.1327255E+03  0.7546771E-02  0.1242266E+00
         21   -1    0    0  501  502  0.00000000000E+00  0.00000000000E+00  0.65154635564E+03  0.65154635564E+03  0.00000000000E+00 0. -1.
          1   -1    0    0  502    0 -0.00000000000E+00 -0.00000000000E+00 -0.68445357589E+02  0.68445357589E+02  0.00000000000E+00 0. -1.
         23    2    1    2    0    0  0.87303036357E+01 -0.13092666015E+01  0.17588644162E+02  0.91890164262E+02  0.89758060942E+02 0.  0.
        -24    2    1    2    0    0 -0.46191636275E+02 -0.96378571890E+02  0.46227647881E+03  0.48111885904E+03  0.79707699062E+02 0.  0.
         11    1    4    4    0    0 -0.27293921782E+02 -0.10629120747E+03  0.34888924699E+03  0.36574100894E+03  0.00000000000E+00 0. -1.
        -12    1    4    4    0    0 -0.18897714493E+02  0.99126355777E+01  0.11338723181E+03  0.11537785011E+03  0.00000000000E+00 0.  1.
        -11    1    3    3    0    0 -0.10812061442E+02  0.38373288253E+02 -0.81801609300E+01  0.40697972392E+02  0.00000000000E+00 0.  1.
         11    1    3    3    0    0  0.19542365078E+02 -0.39682554855E+02  0.25768805092E+02  0.51192191870E+02  0.00000000000E+00 0. -1.
          2    1    1    2  501    0  0.37461332639E+02  0.97687838491E+02  0.10323587508E+03  0.14698268992E+03  0.00000000000E+00 0. -1.
<scales pt_clust_5="13000.00000" pt_clust_6="13000.00000" pt_clust_7="13000.00000" pt_clust_8="13000.00000" pt_clust_9="106.12606"></scales>
<clustering>
<clus scale="   79.708">  5  6 -1 -1</clus>
<clus scale="   89.758">  7  8 -1 -1</clus>
<clus scale="   90.191">  2  7  1 -1</clus>
<clus scale="  106.126">  1  9  2 -1</clus>
<clus scale="  106.126">  1  5  2 -1</clus>
</clustering>
</event>
<event>
 9    1  0.7586638E-005  0.1131430E+03  0.7546771E-02  0.1260784E+00
          3   -1    0    0  502    0 -0.00000000000E+00  0.00000000000E+00  0.43254361415E+03  0.43254361415E+03  0.00000000000E+00 0. -1.
         21   -1    0    0  501  502  0.00000000000E+00 -0.00000000000E+00 -0.54151179398E+02  0.54151179398E+02  0.00000000000E+00 0. -1.
         23    2    1    2    0    0 -0.77911552521E+02  0.12058009930E+02  0.11817975411E+03  0.17078750472E+03  0.94796159560E+02 0.  0.
        -24    2    1    2    0    0  0.45816606531E+02  0.10617684429E+02  0.56127929570E+02  0.10807356131E+03  0.79483668261E+02 0.  0.
         13    1    4    4    0    0  0.38300044903E+02  0.43885059521E+02  0.35736073056E+02  0.68336365181E+02  0.00000000000E+00 0. -1.
        -14    1    4    4    0    0  0.75165616284E+01 -0.33267375093E+02  0.20391856515E+02  0.39737196131E+02  0.00000000000E+00 0.  1.
        -13    1    3    3    0    0 -0.67134726211E+02 -0.31064848818E+02  0.95759631133E+02  0.12100414559E+03  0.00000000000E+00 0. -1.
         13    1    3    3    0    0 -0.10776826310E+02  0.43122858748E+02  0.22420122979E+02  0.49783359130E+02  0.00000000000E+00 0.  1.
          4    1    1    2  501    0  0.32094945990E+02 -0.22675694359E+02  0.20408475107E+03  0.20783372751E+03  0.00000000000E+00 0. -1.
<scales pt_clust_5="13000.00000" pt_clust_6="13000.00000" pt_clust_7="13000.00000" pt_clust_8="13000.00000" pt_clust_9="39.29725"></scales>
<clustering>
<clus scale="   39.297">  2  9  1 -1</clus>
<clus scale="   79.484">  5  6 -1 -1</clus>
<clus scale="   94.796">  7  8 -1 -1</clus>
<clus scale="  100.661">  2  5  1 -1</clus>
<clus scale="   39.297">  2  5  1 -1</clus>
</clustering>
</event>
<event>
 9    1  0.7586638E-005  0.9277811E+02  0.7546771E-02  0.1302388E+00
         21   -1    0    0  501  502  0.00000000000E+00  0.00000000000E+00  0.97160232468E+02  0.97160232468E+02  0.00000000000E+00 0.  1.
          1   -1    0    0  502    0 -0.00000000000E+00 -0.00000000000E+00 -0.27435677215E+03  0.27435677215E+03  0.00000000000E+00 0. -1.
        -24    2    1    2    0    0 -0.11281213425E+01 -0.17143601949E+02 -0.18711007311E+03  0.20468147375E+03  0.81173582486E+02 0.  0.
         23    2    1    2    0    0 -0.41605182285E+02  0.89061170727E+01  0.45605006287E+02  0.11055167323E+03  0.91277301342E+02 0.  0.
         13    1    3    3    0    0 -0.36600989450E+02  0.79178358903E+01 -0.10975074396E+03  0.11596357339E+03  0.00000000000E+00 0. -1.
        -14    1    3    3    0    0  0.35472868107E+02 -0.25061437839E+02 -0.77359329146E+02  0.88717900360E+02  0.00000000000E+00 0.  1.
        -11    1    4    4    0    0 -0.56466942302E+02 -0.12428105830E+02  0.57869571951E+02  0.81803794198E+02  0.00000000000E+00 0.  1.
         11    1    4    4    0    0  0.14861760017E+02  0.21334222903E+02 -0.12264565664E+02  0.28747879027E+02  0.00000000000E+00 0. -1.
          2    1    1    2  501    0  0.42733303627E+02  0.82374848765E+01 -0.35691472864E+02  0.56283857643E+02  0.00000000000E+00 0. -1.
<scales pt_clust_5="13000.00000" pt_clust_6="13000.00000" pt_clust_7="13000.00000" pt_clust_8="13000.00000" pt_clust_9="43.52003"></scales>
<clustering>
<clus scale="   43.520">  1  9  2 -1</clus>
<clus scale="   81.174">  5  6 -1 -1</clus>
<clus scale="   82.858">  2  5  1 -1</clus>
<clus scale="   91.277">  7  8 -1 -1</clus>
<clus scale="   43.520">  1  5  2 -1</clus>
</clustering>
</event>
<event>
 9    1  0.7586638E-005  0.9698032E+02  0.7546771E-02  0.1292873E+00
         21   -1    0    0  501  502  0.00000000000E+00  0.00000000000E+00  0.19166103605E+03  0.19166103605E+03  0.00000000000E+00 0. -1.
         -2   -1    0    0    0  501 -0.00000000000E+00 -0.00000000000E+00 -0.22594446823E+03  0.22594446823E+03  0.00000000000E+00 0.  1.
         23    2    1    2    0    0 -0.14508157261E+02 -0.28219299895E+02 -0.15979740120E+03  0.18710913301E+03  0.92020664573E+02 0.  0.
        -24    2    1    2    0    0  0.69843965018E+02 -0.23598490633E+02  0.40815986089E+02  0.11682630773E+03  0.80915840518E+02 0.  0.
         13    1    4    4    0    0  0.68887092203E+02  0.12860073224E+02  0.39252534710E+02  0.80321693437E+02  0.00000000000E+00 0. -1.
        -14    1    4    4    0    0  0.95687281563E+00 -0.36458563857E+02  0.15634513785E+01  0.36504614288E+02  0.00000000000E+00 0.  1.
        -11    1    3    3    0    0 -0.37631894713E+02 -0.51974491808E+02 -0.10362787778E+03  0.12188619426E+03  0.00000000000E+00 0.  1.
         11    1    3    3    0    0  0.23123737452E+02  0.23755191913E+02 -0.56169523429E+02  0.65222938747E+02  0.00000000000E+00 0. -1.
         -1    1    1    2    0  502 -0.55335807757E+02  0.51817790528E+02  0.84697982937E+02  0.11367006356E+03  0.00000000000E+00 0.  1.
<scales pt_clust_5="13000.00000" pt_clust_6="13000.00000" pt_clust_7="13000.00000" pt_clust_8="13000.00000" pt_clust_9="75.80986"></scales>
<clustering>
<clus scale="   75.810">  1  9  2 -1</clus>
<clus scale="   80.916">  5  6 -1 -1</clus>
<clus scale="   86.514">  1  5  2 -1</clus>
<clus scale="   92.021">  7  8 -1 -1</clus>
<clus scale="   75.810">  1  5  2 -1</clus>
</clustering>
</event>
<event>
 9    1  0.7586638E-005  0.1590960E+03  0.7546771E-02  0.1191102E+00
         -4   -1    0    0    0  501 -0.00000000000E+00  0.00000000000E+00  0.68292280696E+02  0.68292280696E+02  0.00000000000E+00 0.  1.
         21   -1    0    0  501  502  0.00000000000E+00 -0.00000000000E+00 -0.53853097532E+03  0.53853097532E+03  0.00000000000E+00 0.  1.
         23    2    1    2    0    0  0.10839582129E+03  0.57292161018E+02 -0.11099295588E+03  0.18763112149E+03  0.88622546296E+02 0.  0.
        -24    2    1    2    0    0 -0.11701878064E+03 -0.98354622014E+02 -0.26662113779E+03  0.31750733805E+03  0.79731122545E+02 0.  0.
         13    1    4    4    0    0  0.70904958680E+01 -0.25823483545E+02 -0.26682891871E+02  0.37803493921E+02  0.00000000000E+00 0. -1.
        -14    1    4    4    0    0 -0.12410927651E+03 -0.72531138470E+02 -0.23993824592E+03  0.27970384413E+03  0.00000000000E+00 0.  1.
        -13    1    3    3    0    0  0.36146530554E+02  0.64058589241E+02 -0.31547778427E+02  0.80033348364E+02  0.00000000000E+00 0. -1.
         13    1    3    3    0    0  0.72249290737E+02 -0.67664282233E+01 -0.79445177449E+02  0.10759777313E+03  0.00000000000E+00 0.  1.
         -3    1    1    2    0  502  0.86229593535E+01  0.41062460997E+02 -0.92624600954E+02  0.10168479647E+03  0.00000000000E+00 0.  1.
<scales pt_clust_5="13000.00000" pt_clust_6="13000.00000" pt_clust_7="13000.00000" pt_clust_8="13000.00000" pt_clust_9="41.95809"></scales>
<clustering>
<clus scale="   41.958">  2  9  1 -1</clus>
<clus scale="   79.731">  5  6 -1 -1</clus>
<clus scale="   88.623">  7  8 -1 -1</clus>
<clus scale="  154.320">  2  5  1 -1</clus>
<clus scale="   41.958">  2  5  1 -1</clus>
</clustering>
</event>
<event>
 9    1  0.7586638E-005  0.1037616E+03  0.7546771E-02  0.1276461E+00
          3   -1    0    0  502    0 -0.00000000000E+00  0.00000000000E+00  0.75192249498E+02  0.75192249498E+02  0.00000000000E+00 0. -1.
         21   -1    0    0  501  502  0.00000000000E+00 -0.00000000000E+00 -0.26390713704E+03  0.26390713704E+03  0.00000000000E+00 0. -1.
         23    2    1    2    0    0 -0.29687291708E+02  0.46166674684E+02 -0.38802811510E+02  0.11297861270E+03  0.90806451343E+02 0.  0.
        -24    2    1    2    0    0  0.45625286263E+02 -0.14080259002E+02 -0.16240732247E+03  0.18817754092E+03  0.82187152718E+02 0.  0.
         11    1    4    4    0    0  0.17538664449E+01 -0.34122163368E+02 -0.11717149313E+03  0.12205145178E+03  0.00000000000E+00 0. -1.
        -12    1    4    4    0    0  0.43871419818E+02  0.20041904366E+02 -0.45235829346E+02  0.66126089134E+02  0.00000000000E+00 0.  1.
        -11    1    3    3    0    0 -0.23750427871E+01 -0.20282606514E+02 -0.35627521634E+02  0.41065134275E+02  0.00000000000E+00 0.  1.
         11    1    3    3    0    0 -0.27312248921E+02  0.66449281198E+02 -0.31752898756E+01  0.71913478421E+02  0.00000000000E+00 0. -1.
          4    1    1    2  501    0 -0.15937994555E+02 -0.32086415681E+02  0.12495246437E+02  0.37943232931E+02  0.00000000000E+00 0. -1.
<scales pt_clust_5="13000.00000" pt_clust_6="13000.00000" pt_clust_7="13000.00000" pt_clust_8="13000.00000" pt_clust_9="35.82679"></scales>
<clustering>
<clus scale="   35.827">  2  9  1 -1</clus>
<clus scale="   82.187">  5  6 -1 -1</clus>
<clus scale="   90.806">  7  8 -1 -1</clus>
<clus scale="   96.309">  2  5  1 -1</clus>
<clus scale="   35.827">  2  5  1 -1</clus>
</clustering>
</event>
<event>
 9    1  0.7586638E-005  0.1006173E+03  0.7546771E-02  0.1287265E+00
          1   -1    0    0  502    0 -0.00000000000E+00  0.00000000000E+00  0.22890994267E+03  0.22890994267E+03  0.00000000000E+00 0. -1.
         21   -1    0    0  501  502  0.00000000000E+00 -0.00000000000E+00 -0.12384821702E+03  0.12384821702E+03  0.00000000000E+00 0.  1.
         23    2    1    2    0    0 -0.41694783147E+02 -0.11872410436E+02  0.16836270538E+03  0.19749445874E+03  0.93694458753E+02 0.  0.
        -24    2    1    2    0    0 -0.87912834443E+01  0.34833898113E+02 -0.45250266950E+02  0.96937882760E+02  0.77837518797E+02 0.  0.
         13    1    4    4    0    0  0.29163865981E+02 -0.42895353415E+01 -0.25450154783E+02  0.38944082617E+02  0.00000000000E+00 0. -1.
        -14    1    4    4    0    0 -0.37955149425E+02  0.39123433455E+02 -0.19800112168E+02  0.57993800143E+02  0.00000000000E+00 0.  1.
        -13    1    3    3    0    0 -0.23038960754E+02  0.29437261566E+02  0.13791331612E+03  0.14288956870E+03  0.00000000000E+00 0.  1.
         13    1    3    3    0    0 -0.18655822393E+02 -0.41309672002E+02  0.30449389259E+02  0.54604890040E+02  0.00000000000E+00 0. -1.
          2    1    1    2  501    0  0.50486066591E+02 -0.22961487677E+02 -0.18050712779E+02  0.58325818194E+02  0.00000000000E+00 0. -1.
<scales pt_clust_5="13000.00000" pt_clust_6="13000.00000" pt_clust_7="13000.00000" pt_clust_8="13000.00000" pt_clust_9="55.46236"></scales>
<clustering>
<clus scale="   55.462">  2  9  1 -1</clus>
<clus scale="   77.838">  5  6 -1 -1</clus>
<clus scale="   86.046">  2  5  1 -1</clus>
<clus scale="   93.694">  7  8 -1 -1</clus>
<clus scale="   55.462">  2  5  1 -1</clus>
</clustering>
</event>
<event>
 9    1  0.7586638E-005  0.1537653E+03  0.7546771E-02  0.1200275E+00
         21   -1    0    0  501  502  0.00000000000E+00  0.00000000000E+00  0.29911160753E+03  0.29911160753E+03  0.00000000000E+00 0. -1.
          1   -1    0    0  502    0 -0.00000000000E+00 -0.00000000000E+00 -0.16318832674E+03  0.16318832674E+03  0.00000000000E+00 0. -1.
        -24    2    1    2    0    0 -0.65711265773E+02 -0.12481038939E+03 -0.59181431660E+02  0.17275445011E+03  0.80287324233E+02 0.  0.
         23    2    1    2    0    0  0.56830268998E+01  0.66895113652E+02  0.76472587387E+02  0.14452427976E+03  0.10262532725E+03 0.  0.
         13    1    3    3    0    0 -0.64399810581E+02 -0.92092479992E+02 -0.76275124872E+02  0.13581699138E+03  0.00000000000E+00 0. -1.
        -14    1    3    3    0    0 -0.13114551919E+01 -0.32717909394E+02  0.17093693212E+02  0.36937458731E+02  0.00000000000E+00 0.  1.
        -13    1    4    4    0    0  0.34530315143E+02  0.10350011174E+02  0.72445060877E+02  0.80918182386E+02  0.00000000000E+00 0. -1.
         13    1    4    4    0    0 -0.28847288243E+02  0.56545102478E+02  0.40275265093E+01  0.63606097373E+02  0.00000000000E+00 0.  1.
          2    1    1    2  501    0  0.60028238873E+02  0.57915275734E+02  0.11863212507E+03  0.14502120439E+03  0.00000000000E+00 0. -1.
<scales pt_clust_5="13000.00000" pt_clust_6="13000.00000" pt_clust_7="13000.00000" pt_clust_8="13000.00000" pt_clust_9="83.41204"></scales>
<clustering>
<clus scale="   80.287">  5  6 -1 -1</clus>
<clus scale="   83.412">  1  9  2 -1</clus>
<clus scale="  102.625">  7  8 -1 -1</clus>
<clus scale="  139.849">  2  5  1 -1</clus>
<clus scale="   83.412">  1  5  2 -1</clus>
</clustering>
</event>
<event>
 9    1  0.7586638E-005  0.1582924E+03  0.7546771E-02  0.1207923E+00
          1   -1    0    0  502    0 -0.00000000000E+00  0.00000000000E+00  0.13556688334E+04  0.13556688334E+04  0.00000000000E+00 0. -1.
         21   -1    0    0  501  502  0.00000000000E+00 -0.00000000000E+00 -0.40744073902E+02  0.40744073902E+02  0.00000000000E+00 0. -1.
         23    2    1    2    0    0  0.26879595921E+01  0.57360588241E+02  0.51580196682E+03  0.52713037125E+03  0.92289203607E+02 0.  0.
        -24    2    1    2    0    0 -0.90304133947E+02  0.86620933108E+02  0.21524610266E+03  0.26156610412E+03  0.80174306704E+02 0.  0.
         13    1    4    4    0    0 -0.19438331924E+02  0.62559908037E+02  0.14416227565E+03  0.15834883190E+03  0.00000000000E+00 0. -1.
        -14    1    4    4    0    0 -0.70865802023E+02  0.24061025072E+02  0.71083827003E+02  0.10321727222E+03  0.00000000000E+00 0.  1.
        -13    1    3    3    0    0  0.32168189038E+02  0.68721909235E+02  0.39780908222E+03  0.40498093670E+03  0.00000000000E+00 0.  1.
         13    1    3    3    0    0 -0.29480229446E+02 -0.11361320994E+02  0.11799288461E+03  0.12214943455E+03  0.00000000000E+00 0. -1.
          2    1    1    2  501    0  0.87616174354E+02 -0.14398152135E+03  0.58387669005E+03  0.60771643197E+03  0.00000000000E+00 0. -1.
<scales pt_clust_5="13000.00000" pt_clust_6="13000.00000" pt_clust_7="13000.00000" pt_clust_8="13000.00000" pt_clust_9="136.48656"></scales>
<clustering>
<clus scale="   80.174">  5  6 -1 -1</clus>
<clus scale="   92.289">  7  8 -1 -1</clus>
<clus scale="  108.696">  1  7  2 -1</clus>
<clus scale="  136.487">  2  9  1 -1</clus>
<clus scale="  136.487">  2  5  1 -1</clus>
</clustering>
</event>
<event>
 9    1  0.7586638E-005  0.2372343E+03  0.7546771E-02  0.1144912E+00
         21   -1    0    0  501  502  0.00000000000E+00  0.00000000000E+00  0.14289670233E+04  0.14289670233E+04  0.00000000000E+00 0. -1.
          3   -1    0    0  502    0 -0.00000000000E+00 -0.00000000000E+00 -0.76687650561E+02  0.76687650561E+02  0.00000000000E+00 0. -1.
        -24    2    1    2    0    0  0.57797688702E+02  0.90555023461E+02  0.15070571307E+03  0.20194953801E+03  0.80812244480E+02 0.  0.
         23    2    1    2    0    0 -0.71504124859E+02  0.18309135123E+03  0.69186118748E+03  0.72501954843E+03  0.91357320995E+02 0.  0.
         13    1    3    3    0    0  0.72077004515E+02  0.95206019670E+02  0.13389944382E+03  0.17941109725E+03  0.00000000000E+00 0. -1.
        -14    1    3    3    0    0 -0.14279315813E+02 -0.46509962092E+01  0.16806269253E+02  0.22538440763E+02  0.00000000000E+00 0.  1.
        -13    1    4    4    0    0 -0.27024065780E+02  0.12335780949E+03  0.28980840273E+03  0.31612712567E+03  0.00000000000E+00 0.  1.
         13    1    4    4    0    0 -0.44480059079E+02  0.59733541746E+02  0.40205278475E+03  0.40889242276E+03  0.00000000000E+00 0. -1.
          4    1    1    2  501    0  0.13706436158E+02 -0.27364637470E+03  0.50971247217E+03  0.57868558740E+03  0.00000000000E+00 0. -1.
<scales pt_clust_5="13000.00000" pt_clust_6="13000.00000" pt_clust_7="13000.00000" pt_clust_8="13000.00000" pt_clust_9="218.93839"></scales>
<clustering>
<clus scale="   80.812">  5  6 -1 -1</clus>
<clus scale="   91.357">  7  8 -1 -1</clus>
<clus scale="  134.430">  2  5  1 -1</clus>
<clus scale="  218.938">  1  9  2 -1</clus>
<clus scale="  218.938">  1  5  2 -1</clus>
</clustering>
</event>
<event>
 9    1  0.7586638E-005  0.2593388E+03  0.7546771E-02  0.1122896E+00
         21   -1    0    0  501  502  0.00000000000E+00  0.00000000000E+00  0.25672660599E+03  0.25672660599E+03  0.00000000000E+00 0.  1.
          3   -1    0    0  502    0 -0.00000000000E+00 -0.00000000000E+00 -0.48458901076E+03  0.48458901076E+03  0.00000000000E+00 0. -1.
         23    2    1    2    0    0 -0.14486953078E+03  0.39187257006E+02 -0.75135790987E+02  0.19140753841E+03  0.92025195530E+02 0.  0.
        -24    2    1    2    0    0  0.22865894484E+03 -0.21587505815E+03 -0.47857088086E+02  0.32801426950E+03  0.80100601288E+02 0.  0.
         11    1    4    4    0    0  0.82245986072E+02 -0.29248088030E+02 -0.11904984197E+02  0.88099838406E+02  0.00000000000E+00 0. -1.
        -12    1    4    4    0    0  0.14641295877E+03 -0.18662697013E+03 -0.35952103889E+02  0.23991443110E+03  0.00000000000E+00 0.  1.
        -11    1    3    3    0    0 -0.12336851978E+03 -0.74685080027E+01 -0.43242721236E+02  0.13094083864E+03  0.00000000000E+00 0. -1.
         11    1    3    3    0    0 -0.21501011000E+02  0.46655765008E+02 -0.31893069751E+02  0.60466699766E+02  0.00000000000E+00 0.  1.
          4    1    1    2  501    0 -0.83789414065E+02  0.17668780115E+03 -0.10486952569E+03  0.22189380884E+03  0.00000000000E+00 0. -1.
<scales pt_clust_5="13000.00000" pt_clust_6="13000.00000" pt_clust_7="13000.00000" pt_clust_8="13000.00000" pt_clust_9="246.65872"></scales>
<clustering>
<clus scale="   80.101">  5  6 -1 -1</clus>
<clus scale="   92.025">  7  8 -1 -1</clus>
<clus scale="  176.044">  2  7  1 -1</clus>
<clus scale="  246.659">  1  9  2 -1</clus>
<clus scale="  246.659">  1  5  2 -1</clus>
</clustering>
</event>
<event>
 9    1  0.7586638E-005  0.1331657E+03  0.7546771E-02  0.1225369E+00
          1   -1    0    0  502    0 -0.00000000000E+00  0.00000000000E+00  0.61555943290E+03  0.61555943290E+03  0.00000000000E+00 0. -1.
         21   -1    0    0  501  502  0.00000000000E+00 -0.00000000000E+00 -0.97833401169E+02  0.97833401169E+02  0.00000000000E+00 0. -1.
        -24    2    1    2    0    0  0.78693543024E+02  0.10462458237E+01  0.25053964136E+03  0.27494836863E+03  0.81441544524E+02 0.  0.
         23    2    1    2    0    0 -0.12084184452E+03  0.22943967331E+01  0.32972235639E+03  0.36295680911E+03  0.91721302484E+02 0.  0.
         13    1    3    3    0    0  0.64777499460E+02  0.21728064000E+02  0.23685215749E+03  0.24650999515E+03  0.00000000000E+00 0. -1.
        -14    1    3    3    0    0  0.13916043563E+02 -0.20681818177E+02  0.13687483878E+02  0.28438373485E+02  0.00000000000E+00 0.  1.
        -11    1    4    4    0    0 -0.46570757891E+02  0.40979255076E+02  0.19200724983E+03  0.20177938157E+03  0.00000000000E+00 0. -1.
         11    1    4    4    0    0 -0.74271086628E+02 -0.38684858343E+02  0.13771510656E+03  0.16117742754E+03  0.00000000000E+00 0.  1.
          2    1    1    2  501    0  0.42148301495E+02 -0.33406425567E+01 -0.62535966025E+02  0.75487656330E+02  0.00000000000E+00 0. -1.
<scales pt_clust_5="13000.00000" pt_clust_6="13000.00000" pt_clust_7="13000.00000" pt_clust_8="13000.00000" pt_clust_9="42.28048"></scales>
<clustering>
<clus scale="   42.280">  2  9  1 -1</clus>
<clus scale="   81.442">  5  6 -1 -1</clus>
<clus scale="   91.721">  7  8 -1 -1</clus>
<clus scale="  126.305">  1  5  2 -1</clus>
<clus scale="   42.280">  2  5  1 -1</clus>
</clustering>
</event>
<event>
 9    1  0.7586638E-005  0.2750338E+03  0.7546771E-02  0.1099179E+00
          1   -1    0    0  502    0 -0.00000000000E+00  0.00000000000E+00  0.54754172886E+03  0.54754172886E+03  0.00000000000E+00 0. -1.
         21   -1    0    0  501  502  0.00000000000E+00 -0.00000000000E+00 -0.18744438041E+03  0.18744438041E+03  0.00000000000E+00 0. -1.
         23    2    1    2    0    0  0.21031342464E+03 -0.21566828179E+03  0.23176418725E+03  0.39059798630E+03  0.90042234838E+02 0.  0.
        -24    2    1    2    0    0 -0.14824753005E+03  0.15520983282E+03  0.60706977859E+02  0.23447588526E+03  0.72292331819E+02 0.  0.
         11    1    4    4    0    0 -0.43627547088E+02  0.79781623005E+02  0.53046071874E+02  0.10527276939E+03  0.00000000000E+00 0. -1.
        -12    1    4    4    0    0 -0.10461998296E+03  0.75428209817E+02  0.76609059853E+01  0.12920311587E+03  0.00000000000E+00 0.  1.
        -13    1    3    3    0    0  0.88853207164E+02 -0.15494552492E+03  0.13183330145E+03  0.22199780964E+03  0.00000000000E+00 0.  1.
         13    1    3    3    0    0  0.12146021748E+03 -0.60722756875E+02  0.99930885793E+02  0.16860017665E+03  0.00000000000E+00 0. -1.
          2    1    1    2  501    0 -0.62065894595E+02  0.60458448968E+02  0.67626183344E+02  0.10991223770E+03  0.00000000000E+00 0. -1.
<scales pt_clust_5="13000.00000" pt_clust_6="13000.00000" pt_clust_7="13000.00000" pt_clust_8="13000.00000" pt_clust_9="86.64529"></scales>
<clustering>
<clus scale="   72.292">  5  6 -1 -1</clus>
<clus scale="   86.645">  2  9  1 -1</clus>
<clus scale="   90.042">  7  8 -1 -1</clus>
<clus scale="  269.745">  2  5  1 -1</clus>
<clus scale="   86.645">  2  5  1 -1</clus>
</clustering>
</event>
<event>
 9    1  0.7586638E-005  0.1060543E+03  0.7546771E-02  0.1273732E+00
         -4   -1    0    0    0  501 -0.00000000000E+00  0.00000000000E+00  0.57231717228E+02  0.57231717228E+02  0.00000000000E+00 0.  1.
         21   -1    0    0  501  502  0.00000000000E+00 -0.00000000000E+00 -0.37366041400E+03  0.37366041400E+03  0.00000000000E+00 0.  1.
        -24    2    1    2    0    0  0.41306973586E+02  0.16427050447E+02 -0.54593974493E+02  0.10895421210E+03  0.83152896701E+02 0.  0.
         23    2    1    2    0    0 -0.31873797209E+02 -0.50448577372E+02 -0.26352569652E+03  0.28659236065E+03  0.95542611165E+02 0.  0.
         11    1    3    3    0    0 -0.37752874363E+00 -0.30187910568E+02 -0.27372849545E+02  0.40751998290E+02  0.00000000000E+00 0. -1.
        -12    1    3    3    0    0  0.41684502330E+02  0.46614961015E+02 -0.27221124948E+02  0.68202213808E+02  0.00000000000E+00 0.  1.
        -13    1    4    4    0    0 -0.40512831121E+02 -0.71870734289E+02 -0.15451749921E+03  0.17516377906E+03  0.00000000000E+00 0.  1.
         13    1    4    4    0    0  0.86390339115E+01  0.21422156917E+02 -0.10900819731E+03  0.11142858159E+03  0.00000000000E+00 0. -1.
         -3    1    1    2    0  502 -0.94331763769E+01  0.34021526924E+02  0.16909742372E+01  0.35345558486E+02  0.00000000000E+00 0.  1.
<scales pt_clust_5="13000.00000" pt_clust_6="13000.00000" pt_clust_7="13000.00000" pt_clust_8="13000.00000" pt_clust_9="35.30510"></scales>
<clustering>
<clus scale="   35.305">  2  9  1 -1</clus>
<clus scale="   83.153">  5  6 -1 -1</clus>
<clus scale="   95.045">  1  5  2 -1</clus>
<clus scale="   95.543">  7  8 -1 -1</clus>
<clus scale="   35.305">  2  5  1 -1</clus>
</clustering>
</event>
<event>
 9    1  0.7586638E-005  0.1336721E+03  0.7546771E-02  0.1224900E+00
         21   -1    0    0  501  502  0.00000000000E+00  0.00000000000E+00  0.14593506480E+03  0.14593506480E+03  0.00000000000E+00 0. -1.
         -2   -1    0    0    0  501 -0.00000000000E+00 -0.00000000000E+00 -0.30459846642E+03  0.30459846642E+03  0.00000000000E+00 0.  1.
         23    2    1    2    0    0  0.46283674254E+02 -0.66748651253E+02 -0.83658434796E+02  0.14910996831E+03  0.92938086873E+02 0.  0.
        -24    2    1    2    0    0 -0.47353845312E+02  0.13826392798E+03  0.34202633705E+02  0.17087901080E+03  0.81673225308E+02 0.  0.
         13    1    4    4    0    0 -0.70815940417E+02  0.10353649980E+03  0.23445703716E+02  0.12761036490E+03  0.00000000000E+00 0. -1.
        -14    1    4    4    0    0  0.23462095105E+02  0.34727428180E+02  0.10756929989E+02  0.43268645894E+02  0.00000000000E+00 0.  1.
        -11    1    3    3    0    0  0.66072775108E+02 -0.52139949148E+02 -0.90489223839E+02  0.12358189810E+03  0.00000000000E+00 0.  1.
         11    1    3    3    0    0 -0.19789100854E+02 -0.14608702104E+02  0.68307890431E+01  0.25528070212E+02  0.00000000000E+00 0. -1.
         -1    1    1    2    0  502  0.10701710576E+01 -0.71515276728E+02 -0.10920760053E+03  0.13054455211E+03  0.00000000000E+00 0.  1.
<scales pt_clust_5="13000.00000" pt_clust_6="13000.00000" pt_clust_7="13000.00000" pt_clust_8="13000.00000" pt_clust_9="71.52332"></scales>
<clustering>
<clus scale="   71.523">  1  9  2 -1</clus>
<clus scale="   81.673">  5  6 -1 -1</clus>
<clus scale="   92.938">  7  8 -1 -1</clus>
<clus scale="  126.100">  1  5  2 -1</clus>
<clus scale="   71.523">  1  5  2 -1</clus>
</clustering>
</event>
<event>
 9    1  0.7586638E-005  0.1713767E+03  0.7546771E-02  0.1205267E+00
         21   -1    0    0  501  502  0.00000000000E+00  0.00000000000E+00  0.69568340023E+02  0.69568340023E+02  0.00000000000E+00 0.  1.
         -2   -1    0    0    0  501 -0.00000000000E+00 -0.00000000000E+00 -0.79338768609E+03  0.79338768609E+03  0.00000000000E+00 0.  1.
        -24    2    1    2    0    0 -0.42931287189E+02  0.30221101393E+01 -0.49841815709E+02  0.10347533730E+03  0.79816729235E+02 0.  0.
         23    2    1    2    0    0 -0.11297001758E+03  0.34667701242E+02 -0.50879214990E+03  0.52923745085E+03  0.85198316896E+02 0.  0.
         11    1    3    3    0    0  0.22617550322E+02  0.64017236092E+01 -0.21942567372E+02  0.32156055583E+02  0.00000000000E+00 0. -1.
        -12    1    3    3    0    0 -0.65548837511E+02 -0.33796134700E+01 -0.27899248336E+02  0.71319281713E+02  0.00000000000E+00 0.  1.
        -11    1    4    4    0    0 -0.32847323004E+02  0.25272617934E+02 -0.58010715200E+02  0.71294424213E+02  0.00000000000E+00 0. -1.
         11    1    4    4    0    0 -0.80122694579E+02  0.93950833074E+01 -0.45078143470E+03  0.45794302664E+03  0.00000000000E+00 0.  1.
         -1    1    1    2    0  502  0.15590130477E+03 -0.37689811381E+02 -0.16518538046E+03  0.23024323796E+03  0.00000000000E+00 0.  1.
<scales pt_clust_5="13000.00000" pt_clust_6="13000.00000" pt_clust_7="13000.00000" pt_clust_8="13000.00000" pt_clust_9="148.69838"></scales>
<clustering>
<clus scale="   79.817">  5  6 -1 -1</clus>
<clus scale="   85.198">  7  8 -1 -1</clus>
<clus scale="   90.680">  2  5  1 -1</clus>
<clus scale="  148.698">  1  9  2 -1</clus>
<clus scale="  148.698">  1  5  2 -1</clus>
</clustering>
</event>
<event>
 9    1  0.7586638E-005  0.1343859E+03  0.7546771E-02  0.1234678E+00
         21   -1    0    0  501  502  0.00000000000E+00  0.00000000000E+00  0.44874163700E+03  0.44874163700E+03  0.00000000000E+00 0. -1.
          3   -1    0    0  502    0 -0.00000000000E+00 -0.00000000000E+00 -0.17742289266E+03  0.17742289266E+03  0.00000000000E+00 0. -1.
         23    2    1    2    0    0  0.39986653245E+02  0.70731754939E+01  0.35460097982E+02  0.10742593001E+03  0.92919048858E+02 0.  0.
        -24    2    1    2    0    0  0.60512958429E+02  0.21465494254E+02 -0.11185592003E+03  0.15566829338E+03  0.87168142898E+02 0.  0.
         11    1    4    4    0    0  0.25724292666E+02 -0.31802165650E+02 -0.64421191006E+02  0.76309939220E+02  0.00000000000E+00 0. -1.
        -12    1    4    4    0    0  0.34788665763E+02  0.53267659904E+02 -0.47434729028E+02  0.79358354161E+02  0.00000000000E+00 0.  1.
        -13    1    3    3    0    0  0.20073190427E+02 -0.10502371504E+02 -0.29529398723E+02  0.37218519181E+02  0.00000000000E+00 0. -1.
         13    1    3    3    0    0  0.19913462818E+02  0.17575546998E+02  0.64989496704E+02  0.70207410831E+02  0.00000000000E+00 0.  1.
          4    1    1    2  501    0 -0.10049961167E+03 -0.28538669748E+02  0.34771456639E+03  0.36307030627E+03  0.00000000000E+00 0. -1.
<scales pt_clust_5="13000.00000" pt_clust_6="13000.00000" pt_clust_7="13000.00000" pt_clust_8="13000.00000" pt_clust_9="102.28039"></scales>
<clustering>
<clus scale="   87.168">  5  6 -1 -1</clus>
<clus scale="   92.919">  7  8 -1 -1</clus>
<clus scale="  101.405">  2  7  1 -1</clus>
<clus scale="  102.280">  1  9  2 -1</clus>
<clus scale="  102.280">  1  5  2 -1</clus>
</clustering>
</event>
<event>
 9    1  0.7586638E-005  0.9027984E+02  0.7546771E-02  0.1307149E+00
         21   -1    0    0  501  502  0.00000000000E+00  0.00000000000E+00  0.73480470541E+02  0.73480470541E+02  0.00000000000E+00 0.  1.
          1   -1    0    0  502    0 -0.00000000000E+00 -0.00000000000E+00 -0.21791875520E+03  0.21791875520E+03  0.00000000000E+00 0. -1.
         23    2    1    2    0    0  0.85035248966E+01 -0.99522653650E+00 -0.12352552542E+03  0.15203984397E+03  0.88228443893E+02 0.  0.
        -24    2    1    2    0    0 -0.49030463121E+02 -0.13061855218E+02 -0.13823539087E+02  0.95881901260E+02  0.80172628625E+02 0.  0.
         11    1    4    4    0    0 -0.58662732658E+02 -0.35515275727E+02 -0.18452200056E+02  0.71015031506E+02  0.00000000000E+00 0. -1.
        -12    1    4    4    0    0  0.96322695374E+01  0.22453420509E+02  0.46286609692E+01  0.24866869754E+02  0.00000000000E+00 0.  1.
        -13    1    3    3    0    0  0.23093830341E+02  0.33816511494E+02 -0.98711351264E+02  0.10686820069E+03  0.00000000000E+00 0. -1.
         13    1    3    3    0    0 -0.14590305444E+02 -0.34811738031E+02 -0.24814174154E+02  0.45171643280E+02  0.00000000000E+00 0.  1.
          2    1    1    2  501    0  0.40526938224E+02  0.14057081754E+02 -0.70892201501E+01  0.43477480511E+02  0.00000000000E+00 0. -1.
<scales pt_clust_5="13000.00000" pt_clust_6="13000.00000" pt_clust_7="13000.00000" pt_clust_8="13000.00000" pt_clust_9="42.89562"></scales>
<clustering>
<clus scale="   42.896">  1  9  2 -1</clus>
<clus scale="   80.173">  5  6 -1 -1</clus>
<clus scale="   82.425">  1  5  2 -1</clus>
<clus scale="   88.228">  7  8 -1 -1</clus>
<clus scale="   42.896">  1  5  2 -1</clus>
</clustering>
</event>
<event>
 9    1  0.7586638E-005  0.1384583E+03  0.7546771E-02  0.1217834E+00
         21   -1    0    0  501  502  0.00000000000E+00  0.00000000000E+00  0.17584229403E+03  0.17584229403E+03  0.00000000000E+00 0.  1.
         -2   -1    0    0    0  501 -0.00000000000E+00 -0.00000000000E+00 -0.33467798467E+03  0.33467798467E+03  0.00000000000E+00 0.  1.
        -24    2    1    2    0    0 -0.84434042931E+02  0.35221098217E+02  0.19010443420E+02  0.12493711146E+03  0.82935224697E+02 0.  0.
         23    2    1    2    0    0  0.76744114977E+02 -0.98832649601E+02  0.37734426461E+02  0.16068198331E+03  0.93473317101E+02 0.  0.
         13    1    3    3    0    0 -0.18774941342E+02  0.29331258519E+02 -0.27403224981E+02  0.44314307938E+02  0.00000000000E+00 0. -1.
        -14    1    3    3    0    0 -0.65659101589E+02  0.58898396981E+01  0.46413668401E+02  0.80622803521E+02  0.00000000000E+00 0.  1.
        -13    1    4    4    0    0  0.47391375234E+02 -0.11181328131E+03  0.41567800159E+02  0.12835900566E+03  0.00000000000E+00 0.  1.
         13    1    4    4    0    0  0.29352739743E+02  0.12980631714E+02 -0.38333736987E+01  0.32322977648E+02  0.00000000000E+00 0. -1.
         -1    1    1    2    0  502  0.76899279542E+01  0.63611551384E+02 -0.21558056052E+03  0.22490118394E+03  0.00000000000E+00 0.  1.
<scales pt_clust_5="13000.00000" pt_clust_6="13000.00000" pt_clust_7="13000.00000" pt_clust_8="13000.00000" pt_clust_9="64.07471"></scales>
<clustering>
<clus scale="   64.075">  1  9  2 -1</clus>
<clus scale="   82.935">  5  6 -1 -1</clus>
<clus scale="   93.473">  7  8 -1 -1</clus>
<clus scale="  131.574">  2  5  1 -1</clus>
<clus scale="   64.075">  1  5  2 -1</clus>
</clustering>
</event>
<event>
 9    1  0.7586638E-005  0.1303420E+03  0.7546771E-02  0.1230420E+00
         -2   -1    0    0    0  501 -0.00000000000E+00  0.00000000000E+00  0.89222479370E+02  0.89222479370E+02  0.00000000000E+00 0.  1.
         21   -1    0    0  501  502  0.00000000000E+00 -0.00000000000E+00 -0.52722743502E+03  0.52722743502E+03  0.00000000000E+00 0.  1.
         23    2    1    2    0    0  0.19529547593E+02 -0.86843548093E+02 -0.16669703533E+02  0.13101877245E+03  0.94682810714E+02 0.  0.
        -24    2    1    2    0    0 -0.86128853828E+02  0.65000184379E+02 -0.13715039391E+03  0.19273055470E+03  0.81802400560E+02 0.  0.
         11    1    4    4    0    0 -0.31768785195E+02  0.73208021843E+02 -0.71992129724E+02  0.10747807645E+03  0.00000000000E+00 0. -1.
        -12    1    4    4    0    0 -0.54360068633E+02 -0.82078374646E+01 -0.65158264181E+02  0.85252478255E+02  0.00000000000E+00 0.  1.
        -13    1    3    3    0    0 -0.31372690751E+01 -0.44465097544E+02  0.37752033185E+02  0.58414068224E+02  0.00000000000E+00 0.  1.
         13    1    3    3    0    0  0.22666816668E+02 -0.42378450549E+02 -0.54421736718E+02  0.72604704230E+02  0.00000000000E+00 0. -1.
         -1    1    1    2    0  502  0.66599306235E+02  0.21843363714E+02 -0.28418485821E+03  0.29270058723E+03  0.00000000000E+00 0.  1.
<scales pt_clust_5="13000.00000" pt_clust_6="13000.00000" pt_clust_7="13000.00000" pt_clust_8="13000.00000" pt_clust_9="70.08994"></scales>
<clustering>
<clus scale="   70.090">  2  9  1 -1</clus>
<clus scale="   81.802">  5  6 -1 -1</clus>
<clus scale="   94.683">  7  8 -1 -1</clus>
<clus scale="  121.309">  2  5  1 -1</clus>
<clus scale="   70.090">  2  5  1 -1</clus>
</clustering>
</event>
<event>
 9    1  0.7586638E-005  0.1282556E+03  0.7546771E-02  0.1235819E+00
         -2   -1    0    0    0  501 -0.00000000000E+00  0.00000000000E+00  0.23687248485E+03  0.23687248485E+03  0.00000000000E+00 0.  1.
         21   -1    0    0  501  502  0.00000000000E+00 -0.00000000000E+00 -0.23352678630E+03  0.23352678630E+03  0.00000000000E+00 0.  1.
         23    2    1    2    0    0 -0.39822419592E+02  0.76118871509E+02  0.29678048565E+02  0.12890727384E+03  0.91413297613E+02 0.  0.
        -24    2    1    2    0    0 -0.19524313619E+02 -0.12022534431E+03 -0.14486997775E+03  0.20178306820E+03  0.69955442382E+02 0.  0.
         11    1    4    4    0    0  0.37213705293E+01 -0.32848376227E+02 -0.90333890817E+02  0.96192911638E+02  0.00000000000E+00 0. -1.
        -12    1    4    4    0    0 -0.23245684148E+02 -0.87376968087E+02 -0.54536086936E+02  0.10559015656E+03  0.00000000000E+00 0.  1.
        -13    1    3    3    0    0 -0.56612346251E+02  0.10332368762E+02  0.13286233590E+02  0.59061320636E+02  0.00000000000E+00 0. -1.
         13    1    3    3    0    0  0.16789926658E+02  0.65786502748E+02  0.16391814975E+02  0.69845953205E+02  0.00000000000E+00 0.  1.
         -1    1    1    2    0  502  0.59346733211E+02  0.44106472804E+02  0.11853762773E+03  0.13970892911E+03  0.00000000000E+00 0.  1.
<scales pt_clust_5="13000.00000" pt_clust_6="13000.00000" pt_clust_7="13000.00000" pt_clust_8="13000.00000" pt_clust_9="73.94201"></scales>
<clustering>
<clus scale="   69.955">  5  6 -1 -1</clus>
<clus scale="   73.942">  2  9  1 -1</clus>
<clus scale="   91.413">  7  8 -1 -1</clus>
<clus scale="  113.960">  2  5  1 -1</clus>
<clus scale="   73.942">  2  5  1 -1</clus>
</clustering>
</event>
<event>
 9    1  0.7586638E-005  0.1027636E+03  0.7546771E-02  0.1278582E+00
         21   -1    0    0  501  502  0.00000000000E+00  0.00000000000E+00  0.19439033786E+03  0.19439033786E+03  0.00000000000E+00 0. -1.
          1   -1    0    0  502    0 -0.00000000000E+00 -0.00000000000E+00 -0.18064433296E+03  0.18064433296E+03  0.00000000000E+00 0. -1.
         23    2    1    2    0    0 -0.23215834654E+02  0.38592593963E+02 -0.11727727097E+03  0.15395171008E+03  0.88987681523E+02 0.  0.
        -24    2    1    2    0    0  0.50626255857E+02 -0.82533253597E+02  0.10084516430E+03  0.16114273070E+03  0.80140356634E+02 0.  0.
         13    1    4    4    0    0  0.63764043397E+02 -0.36176948270E+02  0.39946353841E+02  0.83488538145E+02  0.00000000000E+00 0. -1.
        -14    1    4    4    0    0 -0.13137787540E+02 -0.46356305327E+02  0.60898810462E+02  0.77654192551E+02  0.00000000000E+00 0.  1.
        -13    1    3    3    0    0 -0.54921992364E+02  0.16866781488E+02 -0.48606305425E+02  0.75256139218E+02  0.00000000000E+00 0.  1.
         13    1    3    3    0    0  0.31706157710E+02  0.21725812475E+02 -0.68670965543E+02  0.78695570860E+02  0.00000000000E+00 0. -1.
          2    1    1    2  501    0 -0.27410421203E+02  0.43940659634E+02  0.30178111567E+02  0.59940230041E+02  0.00000000000E+00 0. -1.
<scales pt_clust_5="13000.00000" pt_clust_6="13000.00000" pt_clust_7="13000.00000" pt_clust_8="13000.00000" pt_clust_9="51.78912"></scales>
<clustering>
<clus scale="   51.789">  1  9  2 -1</clus>
<clus scale="   80.140">  5  6 -1 -1</clus>
<clus scale="   88.988">  7  8 -1 -1</clus>
<clus scale="   95.205">  1  5  2 -1</clus>
<clus scale="   51.789">  1  5  2 -1</clus>
</clustering>
</event>
<event>
 9    1  0.7586638E-005  0.9630673E+02  0.7546771E-02  0.1292468E+00
         -2   -1    0    0    0  501 -0.00000000000E+00  0.00000000000E+00  0.50374919904E+03  0.50374919904E+03  0.00000000000E+00 0.  1.
         21   -1    0    0  501  502  0.00000000000E+00 -0.00000000000E+00 -0.69258221502E+02  0.69258221502E+02  0.00000000000E+00 0. -1.
         23    2    1    2    0    0  0.31002245141E+02  0.15572424147E+02  0.42556008862E+03  0.43659437296E+03  0.91157105440E+02 0.  0.
        -24    2    1    2    0    0 -0.99814522565E+01 -0.11397460412E+02  0.43845862278E+02  0.95445262430E+02  0.83413470066E+02 0.  0.
         13    1    4    4    0    0 -0.23592648399E+02  0.25963587326E+02 -0.15264743933E+01  0.35114826632E+02  0.00000000000E+00 0. -1.
        -14    1    4    4    0    0  0.13611196143E+02 -0.37361047738E+02  0.45372336671E+02  0.60330435798E+02  0.00000000000E+00 0.  1.
        -13    1    3    3    0    0  0.61035507671E+02  0.68247793286E+01  0.33984060635E+03  0.34534554946E+03  0.00000000000E+00 0.  1.
         13    1    3    3    0    0 -0.30033262530E+02  0.87476448181E+01  0.85719482273E+02  0.91248823495E+02  0.00000000000E+00 0. -1.
         -1    1    1    2    0  502 -0.21020792884E+02 -0.41749637348E+01 -0.34914973362E+02  0.40967785155E+02  0.00000000000E+00 0.  1.
<scales pt_clust_5="13000.00000" pt_clust_6="13000.00000" pt_clust_7="13000.00000" pt_clust_8="13000.00000" pt_clust_9="21.43138"></scales>
<clustering>
<clus scale="   21.431">  2  9  1 -1</clus>
<clus scale="   83.413">  5  6 -1 -1</clus>
<clus scale="   89.012">  2  5  1 -1</clus>
<clus scale="   91.157">  7  8 -1 -1</clus>
<clus scale="   21.431">  2  5  1 -1</clus>
</clustering>
</event>
<event>
 9    1  0.7586638E-005  0.1670673E+03  0.7546771E-02  0.1203311E+00
         -4   -1    0    0    0  501 -0.00000000000E+00  0.00000000000E+00  0.59794083081E+02  0.59794083081E+02  0.00000000000E+00 0.  1.
         21   -1    0    0  501  502  0.00000000000E+00 -0.00000000000E+00 -0.11773770714E+04  0.11773770714E+04  0.00000000000E+00 0.  1.
        -24    2    1    2    0    0 -0.50929337908E+02  0.19460621263E+02 -0.46614842008E+02  0.11223449376E+03  0.86319898363E+02 0.  0.
         23    2    1    2    0    0 -0.79613375800E+02  0.56068622593E+02 -0.20411368675E+03  0.24506012346E+03  0.94393256874E+02 0.  0.
         13    1    3    3    0    0 -0.61416956484E+02  0.10639164852E+02  0.13540874872E+01  0.62346354548E+02  0.00000000000E+00 0. -1.
        -14    1    3    3    0    0  0.10487618576E+02  0.88214564117E+01 -0.47968929495E+02  0.49888139207E+02  0.00000000000E+00 0.  1.
        -11    1    4    4    0    0 -0.38719210939E+02 -0.22892942558E+02 -0.51036041051E+02  0.68028976186E+02  0.00000000000E+00 0. -1.
         11    1    4    4    0    0 -0.40894164861E+02  0.78961565150E+02 -0.15307764570E+03  0.17703114727E+03  0.00000000000E+00 0.  1.
         -3    1    1    2    0  502  0.13054271371E+03 -0.75529243856E+02 -0.86685445953E+03  0.87987653724E+03  0.00000000000E+00 0.  1.
<scales pt_clust_5="13000.00000" pt_clust_6="13000.00000" pt_clust_7="13000.00000" pt_clust_8="13000.00000" pt_clust_9="137.84555"></scales>
<clustering>
<clus scale="   86.320">  5  6 -1 -1</clus>
<clus scale="   94.393">  7  8 -1 -1</clus>
<clus scale="  102.096">  1  5  2 -1</clus>
<clus scale="  137.846">  2  9  1 -1</clus>
<clus scale="  137.846">  2  5  1 -1</clus>
</clustering>
</event>
<event>
 9    1  0.7586638E-005  0.1301914E+03  0.7546771E-02  0.1228479E+00
         -4   -1    0    0    0  501 -0.00000000000E+00  0.00000000000E+00  0.30741289026E+03  0.30741289026E+03  0.00000000000E+00 0.  1.
         21   -1    0    0  501  502  0.00000000000E+00 -0.00000000000E+00 -0.10897368076E+03  0.10897368076E+03  0.00000000000E+00 0.  1.
         23    2    1    2    0    0  0.85328032997E+02 -0.38399082647E+02  0.21041377682E+03  0.24661549146E+03  0.88260299059E+02 0.  0.
        -24    2    1    2    0    0 -0.82834672927E+02  0.65098939919E+02  0.10810293320E+02  0.13458231577E+03  0.83042653252E+02 0.  0.
         11    1    4    4    0    0 -0.20799716730E+02 -0.17866934435E+02  0.14309940802E+02  0.30929435299E+02  0.00000000000E+00 0. -1.
        -12    1    4    4    0    0 -0.62034956197E+02  0.82965874354E+02 -0.34996474817E+01  0.10365288047E+03  0.00000000000E+00 0.  1.
        -11    1    3    3    0    0  0.54858447577E+02 -0.63982787657E+02  0.10977148062E+03  0.13839445200E+03  0.00000000000E+00 0. -1.
         11    1    3    3    0    0  0.30469585420E+02  0.25583705010E+02  0.10064229620E+03  0.10822103946E+03  0.00000000000E+00 0.  1.
         -3    1    1    2    0  502 -0.24933600694E+01 -0.26699857271E+02 -0.22784860634E+02  0.35188763787E+02  0.00000000000E+00 0.  1.
<scales pt_clust_5="13000.00000" pt_clust_6="13000.00000" pt_clust_7="13000.00000" pt_clust_8="13000.00000" pt_clust_9="26.81603"></scales>
<clustering>
<clus scale="   26.816">  2  9  1 -1</clus>
<clus scale="   83.043">  5  6 -1 -1</clus>
<clus scale="   88.260">  7  8 -1 -1</clus>
<clus scale="  126.712">  2  5  1 -1</clus>
<clus scale="   26.816">  2  5  1 -1</clus>
</clustering>
</event>
<event>
 9    1  0.7586638E-005  0.1638755E+03  0.7546771E-02  0.1185751E+00
          1   -1    0    0  502    0 -0.00000000000E+00  0.00000000000E+00  0.55904218615E+03  0.55904218615E+03  0.00000000000E+00 0. -1.
         21   -1    0    0  501  502  0.00000000000E+00 -0.00000000000E+00 -0.67130874453E+02  0.67130874453E+02  0.00000000000E+00 0. -1.
        -24    2    1    2    0    0 -0.15093746045E+03 -0.48179139115E+02  0.29875443884E+03  0.34753300768E+03  0.80135075239E+02 0.  0.
         23    2    1    2    0    0  0.96645666146E+02  0.60190142645E+02  0.14750412584E+03  0.20669537665E+03  0.89455427629E+02 0.  0.
         11    1    3    3    0    0 -0.65075351838E+02 -0.41821304142E+02  0.21038750297E+03  0.22415781115E+03  0.00000000000E+00 0. -1.
        -12    1    3    3    0    0 -0.85862108613E+02 -0.63578349735E+01  0.88366935878E+02  0.12337519652E+03  0.00000000000E+00 0.  1.
        -11    1    4    4    0    0  0.56409801581E+02  0.64806779001E+02  0.46104642124E+02  0.97507037409E+02  0.00000000000E+00 0. -1.
         11    1    4    4    0    0  0.40235864565E+02 -0.46166363562E+01  0.10139948371E+03  0.10918833924E+03  0.00000000000E+00 0.  1.
          2    1    1    2  501    0  0.54291794305E+02 -0.12011003530E+02  0.45652747018E+02  0.71944676279E+02  0.00000000000E+00 0. -1.
<scales pt_clust_5="13000.00000" pt_clust_6="13000.00000" pt_clust_7="13000.00000" pt_clust_8="13000.00000" pt_clust_9="55.60452"></scales>
<clustering>
<clus scale="   55.605">  2  9  1 -1</clus>
<clus scale="   80.135">  5  6 -1 -1</clus>
<clus scale="   89.455">  7  8 -1 -1</clus>
<clus scale="  158.980">  1  5  2 -1</clus>
<clus scale="   55.605">  2  5  1 -1</clus>
</clustering>
</event>
<event>
 9    1  0.7586638E-005  0.1085056E+03  0.7546771E-02  0.1266473E+00
         21   -1    0    0  501  502  0.00000000000E+00  0.00000000000E+00  0.30896120765E+02  0.30896120765E+02  0.00000000000E+00 0.  1.
         -4   -1    0    0    0  501 -0.00000000000E+00 -0.00000000000E+00 -0.83240458568E+03  0.83240458568E+03  0.00000000000E+00 0.  1.
        -24    2    1    2    0    0 -0.43714658536E+02 -0.61192163579E+02 -0.54294860646E+03  0.55426263107E+03  0.82209626460E+02 0.  0.
         23    2    1    2    0    0  0.41049080316E+02  0.94584673208E+01 -0.22841968129E+03  0.24910552233E+03  0.90019558174E+02 0.  0.
         13    1    3    3    0    0 -0.39074391296E+02 -0.11255101602E+02 -0.92660218501E+02  0.10118992766E+03  0.00000000000E+00 0. -1.
        -14    1    3    3    0    0 -0.46402672402E+01 -0.49937061977E+02 -0.45028838796E+03  0.45307270341E+03  0.00000000000E+00 0.  1.
        -13    1    4    4    0    0 -0.42587633924E+01  0.42873705456E+02 -0.97644538738E+02  0.10672744554E+03  0.00000000000E+00 0. -1.
         13    1    4    4    0    0  0.45307843709E+02 -0.33415238135E+02 -0.13077514255E+03  0.14237807679E+03  0.00000000000E+00 0.  1.
         -3    1    1    2    0  502  0.26655782198E+01  0.51733696258E+02 -0.30140177159E+02  0.59932553049E+02  0.00000000000E+00 0.  1.
<scales pt_clust_5="13000.00000" pt_clust_6="13000.00000" pt_clust_7="13000.00000" pt_clust_8="13000.00000" pt_clust_9="51.80232"></scales>
<clustering>
<clus scale="   51.802">  1  9  2 -1</clus>
<clus scale="   82.210">  5  6 -1 -1</clus>
<clus scale="   90.020">  7  8 -1 -1</clus>
<clus scale="  102.119">  2  5  1 -1</clus>
<clus scale="   51.802">  1  5  2 -1</clus>
</clustering>
</event>
<event>
 9    1  0.7586638E-005  0.1126671E+03  0.7546771E-02  0.1257873E+00
         21   -1    0    0  501  502  0.00000000000E+00  0.00000000000E+00  0.31007738800E+02  0.31007738800E+02  0.00000000000E+00 0. -1.
          3   -1    0    0  502    0 -0.00000000000E+00 -0.00000000000E+00 -0.58167396404E+03  0.58167396404E+03  0.00000000000E+00 0. -1.
        -24    2    1    2    0    0  0.18407062099E+02 -0.60218529757E+02 -0.24922586307E+03  0.27064968796E+03  0.84691389801E+02 0.  0.
         23    2    1    2    0    0  0.20937011966E+01  0.76351793123E+02 -0.16520740586E+03  0.20332375317E+03  0.90626054502E+02 0.  0.
         11    1    3    3    0    0 -0.24840524131E+02 -0.47646812174E+02 -0.86715802154E+02  0.10201421809E+03  0.00000000000E+00 0. -1.
        -12    1    3    3    0    0  0.43247586230E+02 -0.12571717584E+02 -0.16251006092E+03  0.16863546987E+03  0.00000000000E+00 0.  1.
        -13    1    4    4    0    0 -0.19652203917E+02 -0.55526267969E+01 -0.82206849847E+02  0.84705412725E+02  0.00000000000E+00 0.  1.
         13    1    4    4    0    0  0.21745905114E+02  0.81904419920E+02 -0.83000556014E+02  0.11861834045E+03  0.00000000000E+00 0. -1.
          4    1    1    2  501    0 -0.20500763296E+02 -0.16133263365E+02 -0.13623295630E+03  0.13870826170E+03  0.00000000000E+00 0. -1.
<scales pt_clust_5="13000.00000" pt_clust_6="13000.00000" pt_clust_7="13000.00000" pt_clust_8="13000.00000" pt_clust_9="26.08762"></scales>
<clustering>
<clus scale="   26.088">  1  9  2 -1</clus>
<clus scale="   84.691">  5  6 -1 -1</clus>
<clus scale="   90.626">  7  8 -1 -1</clus>
<clus scale="  107.951">  2  5  1 -1</clus>
<clus scale="   26.088">  1  5  2 -1</clus>
</clustering>
</event>
<event>
 9    1  0.7586638E-005  0.2040910E+03  0.7546771E-02  0.1177900E+00
         21   -1    0    0  501  502  0.00000000000E+00  0.00000000000E+00  0.11788420677E+03  0.11788420677E+03  0.00000000000E+00 0.  1.
          1   -1    0    0  502    0 -0.00000000000E+00 -0.00000000000E+00 -0.64139200259E+03  0.64139200259E+03  0.00000000000E+00 0. -1.
         23    2    1    2    0    0  0.22916644158E+02 -0.42148502373E+02 -0.14105749283E+03  0.17183484551E+03  0.85605659947E+02 0.  0.
        -24    2    1    2    0    0 -0.16384682391E+03  0.11393084621E+03 -0.52422545267E+02  0.22147368589E+03  0.80476399440E+02 0.  0.
         13    1    4    4    0    0 -0.21537192208E+02  0.13770920652E+01 -0.32404145564E+02  0.38932963931E+02  0.00000000000E+00 0. -1.
        -14    1    4    4    0    0 -0.14230963170E+03  0.11255375414E+03 -0.20018399703E+02  0.18254072196E+03  0.00000000000E+00 0.  1.
        -11    1    3    3    0    0  0.13221024870E+02  0.21512685538E+02 -0.12778148433E+02  0.28299685777E+02  0.00000000000E+00 0. -1.
         11    1    3    3    0    0  0.96956192882E+01 -0.63661187912E+02 -0.12827934440E+03  0.14353515973E+03  0.00000000000E+00 0.  1.
          2    1    1    2  501    0  0.14093017975E+03 -0.71782343837E+02 -0.33002775771E+03  0.36596767796E+03  0.00000000000E+00 0. -1.
<scales pt_clust_5="13000.00000" pt_clust_6="13000.00000" pt_clust_7="13000.00000" pt_clust_8="13000.00000" pt_clust_9="187.55461"></scales>
<clustering>
<clus scale="   80.476">  5  6 -1 -1</clus>
<clus scale="   85.606">  7  8 -1 -1</clus>
<clus scale="   98.133">  2  7  1 -1</clus>
<clus scale="  187.555">  1  9  2 -1</clus>
<clus scale="  187.555">  1  5  2 -1</clus>
</clustering>
</event>
<event>
 9    1  0.7586638E-005  0.1673177E+03  0.7546771E-02  0.1208175E+00
         -2   -1    0    0    0  501 -0.00000000000E+00  0.00000000000E+00  0.19470322112E+03  0.19470322112E+03  0.00000000000E+00 0.  1.
         21   -1    0    0  501  502  0.00000000000E+00 -0.00000000000E+00 -0.22185724674E+03  0.22185724674E+03  0.00000000000E+00 0.  1.
        -24    2    1    2    0    0 -0.31451506400E+01 -0.44088078143E+02 -0.36119288273E+02  0.98409581657E+02  0.80163533915E+02 0.  0.
         23    2    1    2    0    0 -0.11801344206E+03  0.92855479862E+02 -0.37290389173E+02  0.17959674739E+03  0.91187202511E+02 0.  0.
         13    1    3    3    0    0  0.15466815457E+02 -0.36751995327E+02 -0.56954285356E+02  0.69524975090E+02  0.00000000000E+00 0. -1.
        -14    1    3    3    0    0 -0.18611966097E+02 -0.73360828161E+01  0.20834997083E+02  0.28884606567E+02  0.00000000000E+00 0.  1.
        -11    1    4    4    0    0 -0.82568652270E+01  0.60664060702E+02 -0.10435130473E+02  0.62106328439E+02  0.00000000000E+00 0.  1.
         11    1    4    4    0    0 -0.10975657684E+03  0.32191419160E+02 -0.26855258701E+02  0.11749041895E+03  0.00000000000E+00 0. -1.
         -1    1    1    2    0  502  0.12115859270E+03 -0.48767401719E+02  0.46255651825E+02  0.13855413881E+03  0.00000000000E+00 0.  1.
<scales pt_clust_5="13000.00000" pt_clust_6="13000.00000" pt_clust_7="13000.00000" pt_clust_8="13000.00000" pt_clust_9="140.28584"></scales>
<clustering>
<clus scale="   80.164">  5  6 -1 -1</clus>
<clus scale="   91.187">  7  8 -1 -1</clus>
<clus scale="   91.542">  1  5  2 -1</clus>
<clus scale="  140.286">  2  9  1 -1</clus>
<clus scale="  140.286">  2  5  1 -1</clus>
</clustering>
</event>
<event>
 9    1  0.7586638E-005  0.1408260E+03  0.7546771E-02  0.1216164E+00
          1   -1    0    0  502    0 -0.00000000000E+00  0.00000000000E+00  0.88815890621E+03  0.88815890621E+03  0.00000000000E+00 0. -1.
         21   -1    0    0  501  502  0.00000000000E+00 -0.00000000000E+00 -0.39786879295E+02  0.39786879295E+02  0.00000000000E+00 0. -1.
        -24    2    1    2    0    0  0.76223982723E+02 -0.64329004629E+02  0.45234524742E+03  0.47205813478E+03  0.90963417783E+02 0.  0.
         23    2    1    2    0    0 -0.10099219647E+03  0.59617196188E+02  0.40603235177E+03  0.42876244054E+03  0.72258742764E+02 0.  0.
         13    1    3    3    0    0  0.53467765026E+02 -0.69676699496E+02  0.43269948945E+03  0.44152292412E+03  0.00000000000E+00 0. -1.
        -14    1    3    3    0    0  0.22756217697E+02  0.53476948673E+01  0.19645757963E+02  0.30535210663E+02  0.00000000000E+00 0.  1.
        -13    1    4    4    0    0 -0.23372672421E+02  0.80667066071E+01  0.20466380039E+02  0.32097138244E+02  0.00000000000E+00 0.  1.
         13    1    4    4    0    0 -0.77619524048E+02  0.51550489581E+02  0.38556597173E+03  0.39666530229E+03  0.00000000000E+00 0. -1.
          2    1    1    2  501    0  0.24768213745E+02  0.47118084406E+01 -0.10005572272E+02  0.27125210182E+02  0.00000000000E+00 0. -1.
<scales pt_clust_5="13000.00000" pt_clust_6="13000.00000" pt_clust_7="13000.00000" pt_clust_8="13000.00000" pt_clust_9="25.21241"></scales>
<clustering>
<clus scale="   25.212">  2  9  1 -1</clus>
<clus scale="   72.259">  7  8 -1 -1</clus>
<clus scale="   90.963">  5  6 -1 -1</clus>
<clus scale="  129.534">  2  7  1 -1</clus>
<clus scale="   25.212">  2  5  1 -1</clus>
</clustering>
</event>
<event>
 9    1  0.7586638E-005  0.1535303E+03  0.7546771E-02  0.1200332E+00
          1   -1    0    0  502    0 -0.00000000000E+00  0.00000000000E+00  0.12153644798E+03  0.12153644798E+03  0.00000000000E+00 0. -1.
         21   -1    0    0  501  502  0.00000000000E+00 -0.00000000000E+00 -0.23168331642E+03  0.23168331642E+03  0.00000000000E+00 0. -1.
         23    2    1    2    0    0  0.37736972725E+02  0.12394211994E+03  0.15331310854E+01  0.16182561062E+03  0.96950758410E+02 0.  0.
        -24    2    1    2    0    0 -0.22858079986E+02 -0.99777231932E+02 -0.97367200596E+02  0.15961083307E+03  0.74278250174E+02 0.  0.
         13    1    4    4    0    0 -0.19243884344E+01 -0.83529356765E+02 -0.10289080725E+03  0.13254197421E+03  0.00000000000E+00 0. -1.
        -14    1    4    4    0    0 -0.20933691551E+02 -0.16247875166E+02  0.55236066508E+01  0.27068858857E+02  0.00000000000E+00 0.  1.
        -11    1    3    3    0    0 -0.27164274999E+02  0.11201497928E+02 -0.10454142711E+02  0.31187505381E+02  0.00000000000E+00 0.  1.
         11    1    3    3    0    0  0.64901247724E+02  0.11274062202E+03  0.11987273797E+02  0.13063810524E+03  0.00000000000E+00 0. -1.
          2    1    1    2  501    0 -0.14878892740E+02 -0.24164888011E+02 -0.14312798938E+02  0.31783320707E+02  0.00000000000E+00 0. -1.
<scales pt_clust_5="13000.00000" pt_clust_6="13000.00000" pt_clust_7="13000.00000" pt_clust_8="13000.00000" pt_clust_9="28.37822"></scales>
<clustering>
<clus scale="   28.378">  2  9  1 -1</clus>
<clus scale="   74.278">  5  6 -1 -1</clus>
<clus scale="   96.951">  7  8 -1 -1</clus>
<clus scale="  140.319">  2  5  1 -1</clus>
<clus scale="   28.378">  2  5  1 -1</clus>
</clustering>
</event>
<event>
 9    1  0.7586638E-005  0.1034912E+03  0.7546771E-02  0.1279350E+00
         -2   -1    0    0    0  501 -0.00000000000E+00  0.00000000000E+00  0.47253651578E+03  0.47253651578E+03  0.00000000000E+00 0.  1.
         21   -1    0    0  501  502  0.00000000000E+00 -0.00000000000E+00 -0.15247198382E+03  0.15247198382E+03  0.00000000000E+00 0.  1.
        -24    2    1    2    0    0  0.14578258727E+02 -0.40593921818E+02  0.30746428529E+03  0.32071697391E+03  0.80403348862E+02 0.  0.
         23    2    1    2    0    0 -0.63747555800E+02  0.20731038087E+02  0.13113534076E+03  0.17443498001E+03  0.93474904888E+02 0.  0.
         11    1    3    3    0    0  0.56775159734E+01 -0.26916426783E+02  0.23202799483E+02  0.35987471740E+02  0.00000000000E+00 0. -1.
        -12    1    3    3    0    0  0.89007427538E+01 -0.13677495035E+02  0.28426148580E+03  0.28472950217E+03  0.00000000000E+00 0.  1.
        -11    1    4    4    0    0  0.70358383433E+01 -0.20356345011E+02  0.67233371625E+02  0.70598938118E+02  0.00000000000E+00 0. -1.
         11    1    4    4    0    0 -0.70783394143E+02  0.41087383098E+02  0.63901969137E+02  0.10383604189E+03  0.00000000000E+00 0.  1.
         -1    1    1    2    0  502  0.49169297072E+02  0.19862883731E+02 -0.11853509410E+03  0.12985654568E+03  0.00000000000E+00 0.  1.
<scales pt_clust_5="13000.00000" pt_clust_6="13000.00000" pt_clust_7="13000.00000" pt_clust_8="13000.00000" pt_clust_9="53.02975"></scales>
<clustering>
<clus scale="   53.030">  2  9  1 -1</clus>
<clus scale="   80.403">  5  6 -1 -1</clus>
<clus scale="   91.856">  1  5  2 -1</clus>
<clus scale="   93.475">  7  8 -1 -1</clus>
<clus scale="   53.030">  2  5  1 -1</clus>
</clustering>
</event>
<event>
 9    1  0.7586638E-005  0.1552684E+03  0.7546771E-02  0.1216670E+00
         21   -1    0    0  501  502  0.00000000000E+00  0.00000000000E+00  0.11467919020E+03  0.11467919020E+03  0.00000000000E+00 0. -1.
          1   -1    0    0  502    0 -0.00000000000E+00 -0.00000000000E+00 -0.98666291645E+03  0.98666291645E+03  0.00000000000E+00 0. -1.
         23    2    1    2    0    0 -0.28508767510E+02  0.46085318581E+01 -0.55736474075E+03  0.56550704379E+03  0.91152476442E+02 0.  0.
        -24    2    1    2    0    0 -0.17752990994E+02 -0.13013204897E+03 -0.36251566317E+03  0.39374215177E+03  0.79785695337E+02 0.  0.
         13    1    4    4    0    0 -0.33556006621E+02 -0.10508626265E+03 -0.19867289697E+03  0.22724446785E+03  0.00000000000E+00 0. -1.
        -14    1    4    4    0    0  0.15803015628E+02 -0.25045786317E+02 -0.16384276620E+03  0.16649768392E+03  0.00000000000E+00 0.  1.
        -13    1    3    3    0    0  0.33209237669E+02 -0.33147352141E+01 -0.18923679777E+03  0.19215724438E+03  0.00000000000E+00 0.  1.
         13    1    3    3    0    0 -0.61718005179E+02  0.79232670722E+01 -0.36812794298E+03  0.37334979942E+03  0.00000000000E+00 0. -1.
          2    1    1    2  501    0  0.46261758504E+02  0.12552351711E+03  0.47896677672E+02  0.14209291108E+03  0.00000000000E+00 0. -1.
<scales pt_clust_5="13000.00000" pt_clust_6="13000.00000" pt_clust_7="13000.00000" pt_clust_8="13000.00000" pt_clust_9="133.20107"></scales>
<clustering>
<clus scale="   79.786">  5  6 -1 -1</clus>
<clus scale="   91.152">  7  8 -1 -1</clus>
<clus scale="   95.618">  2  7  1 -1</clus>
<clus scale="  133.201">  1  9  2 -1</clus>
<clus scale="  133.201">  1  5  2 -1</clus>
</clustering>
</event>
<event>
 9    1  0.7586638E-005  0.1161261E+03  0.7546771E-02  0.1255580E+00
          3   -1    0    0  502    0 -0.00000000000E+00  0.00000000000E+00  0.43200959362E+03  0.43200959362E+03  0.00000000000E+00 0. -1.
         21   -1    0    0  501  502  0.00000000000E+00 -0.00000000000E+00 -0.52432807677E+02  0.52432807677E+02  0.00000000000E+00 0.  1.
        -24    2    1    2    0    0 -0.75784147160E+02  0.20957426931E+02  0.32192986325E+03  0.33931723030E+03  0.72903327941E+02 0.  0.
         23    2    1    2    0    0  0.50063267004E+02 -0.67468010803E+01  0.40711582183E+02  0.11120893121E+03  0.90322441447E+02 0.  0.
         13    1    3    3    0    0 -0.43252771762E+02  0.48136788900E+02  0.18658509193E+03  0.19748911170E+03  0.00000000000E+00 0. -1.
        -14    1    3    3    0    0 -0.32531375398E+02 -0.27179361969E+02  0.13534477132E+03  0.14182811860E+03  0.00000000000E+00 0.  1.
        -13    1    4    4    0    0 -0.15936243857E+01  0.27384541793E+02 -0.11956650067E+02  0.29923473206E+02  0.00000000000E+00 0.  1.
         13    1    4    4    0    0  0.51656891390E+02 -0.34131342874E+02  0.52668232250E+02  0.81285458003E+02  0.00000000000E+00 0. -1.
          4    1    1    2  501    0  0.25720880155E+02 -0.14210625850E+02  0.16935340515E+02  0.33916239788E+02  0.00000000000E+00 0. -1.
<scales pt_clust_5="13000.00000" pt_clust_6="13000.00000" pt_clust_7="13000.00000" pt_clust_8="13000.00000" pt_clust_9="29.38547"></scales>
<clustering>
<clus scale="   29.385">  2  9  1 -1</clus>
<clus scale="   72.903">  5  6 -1 -1</clus>
<clus scale="   90.322">  7  8 -1 -1</clus>
<clus scale="  103.160">  1  5  2 -1</clus>
<clus scale="   29.385">  2  5  1 -1</clus>
</clustering>
</event>
<event>
 9    1  0.7586638E-005  0.1284290E+03  0.7546771E-02  0.1242294E+00
         21   -1    0    0  501  502  0.00000000000E+00  0.00000000000E+00  0.15043400194E+03  0.15043400194E+03  0.00000000000E+00 0.  1.
         -2   -1    0    0    0  501 -0.00000000000E+00 -0.00000000000E+00 -0.30903974712E+03  0.30903974712E+03  0.00000000000E+00 0.  1.
         23    2    1    2    0    0 -0.27067320512E+02 -0.95992574648E+01  0.79815096529E+02  0.12755050367E+03  0.95256998534E+02 0.  0.
        -24    2    1    2    0    0  0.51144909402E+02 -0.88472966529E+02 -0.12704310969E+03  0.18158066794E+03  0.79926964696E+02 0.  0.
         13    1    4    4    0    0  0.42054954008E+02 -0.10731032675E+02 -0.77857599692E+02  0.89137983198E+02  0.00000000000E+00 0. -1.
        -14    1    4    4    0    0  0.90899553935E+01 -0.77741933854E+02 -0.49185509999E+02  0.92442684742E+02  0.00000000000E+00 0.  1.
        -11    1    3    3    0    0 -0.45142007166E+02 -0.32674953590E+02  0.17047156336E+02  0.58275714858E+02  0.00000000000E+00 0. -1.
         11    1    3    3    0    0  0.18074686654E+02  0.23075696125E+02  0.62767940193E+02  0.69274788815E+02  0.00000000000E+00 0.  1.
         -1    1    1    2    0  502 -0.24077588890E+02  0.98072223994E+02 -0.11137773202E+03  0.15034257745E+03  0.00000000000E+00 0.  1.
<scales pt_clust_5="13000.00000" pt_clust_6="13000.00000" pt_clust_7="13000.00000" pt_clust_8="13000.00000" pt_clust_9="100.52710"></scales>
<clustering>
<clus scale="   79.927">  5  6 -1 -1</clus>
<clus scale="   95.257">  7  8 -1 -1</clus>
<clus scale="   99.492">  2  7  1 -1</clus>
<clus scale="  100.527">  1  9  2 -1</clus>
<clus scale="  100.527">  1  5  2 -1</clus>
</clustering>
</event>
<event>
 9    1  0.7586638E-005  0.2362055E+03  0.7546771E-02  0.1123344E+00
          1   -1    0    0  502    0 -0.00000000000E+00  0.00000000000E+00  0.33663841044E+03  0.33663841044E+03  0.00000000000E+00 0. -1.
         21   -1    0    0  501  502  0.00000000000E+00 -0.00000000000E+00 -0.56433926456E+03  0.56433926456E+03  0.00000000000E+00 0.  1.
         23    2    1    2    0    0 -0.20432061200E+03 -0.92030557667E+02  0.24641118276E+03  0.34491924857E+03  0.89634150916E+02 0.  0.
        -24    2    1    2    0    0  0.18487253127E+03  0.46359107036E+02 -0.23242512908E+03  0.30932644502E+03  0.73036903927E+02 0.  0.
         13    1    4    4    0    0  0.61454611857E+02 -0.32801101285E+01 -0.12119292467E+03  0.13592333659E+03  0.00000000000E+00 0. -1.
        -14    1    4    4    0    0  0.12341791941E+03  0.49639217165E+02 -0.11123220442E+03  0.17340310843E+03  0.00000000000E+00 0.  1.
        -11    1    3    3    0    0 -0.73796767892E+02 -0.28785956312E+02  0.30640256213E+02  0.84931852287E+02  0.00000000000E+00 0.  1.
         11    1    3    3    0    0 -0.13052384410E+03 -0.63244601355E+02  0.21577092655E+03  0.25998739628E+03  0.00000000000E+00 0. -1.
          2    1    1    2  501    0  0.19448080726E+02  0.45671450631E+02 -0.24168690780E+03  0.24673198141E+03  0.00000000000E+00 0. -1.
<scales pt_clust_5="13000.00000" pt_clust_6="13000.00000" pt_clust_7="13000.00000" pt_clust_8="13000.00000" pt_clust_9="49.63979"></scales>
<clustering>
<clus scale="   49.640">  2  9  1 -1</clus>
<clus scale="   73.037">  5  6 -1 -1</clus>
<clus scale="   89.634">  7  8 -1 -1</clus>
<clus scale="  230.419">  2  5  1 -1</clus>
<clus scale="   49.640">  2  5  1 -1</clus>
</clustering>
</event>
<event>
 9    1  0.7586638E-005  0.1208053E+03  0.7546771E-02  0.1243770E+00
          1   -1    0    0  502    0 -0.00000000000E+00  0.00000000000E+00  0.11902062817E+04  0.11902062817E+04  0.00000000000E+00 0. -1.
         21   -1    0    0  501  502  0.00000000000E+00 -0.00000000000E+00 -0.38379580044E+02  0.38379580044E+02  0.00000000000E+00 0.  1.
        -24    2    1    2    0    0  0.39997499093E+01 -0.81605367838E+02  0.10107852088E+04  0.10176655566E+04  0.85328850993E+02 0.  0.
         23    2    1    2    0    0  0.95511070650E+01  0.50669682718E+02  0.55510800186E+02  0.11896302301E+03  0.91717563826E+02 0.  0.
         11    1    3    3    0    0  0.36646142489E+02 -0.48559689090E+02  0.34985178247E+03  0.35510175001E+03  0.00000000000E+00 0. -1.
        -12    1    3    3    0    0 -0.32646392580E+02 -0.33045678748E+02  0.66093342630E+03  0.66256380661E+03  0.00000000000E+00 0.  1.
        -11    1    4    4    0    0  0.28595296319E+02  0.63990691899E+02  0.63309348853E+02  0.94448786511E+02  0.00000000000E+00 0.  1.
         11    1    4    4    0    0 -0.19044189254E+02 -0.13321009181E+02 -0.77985486667E+01  0.24514236502E+02  0.00000000000E+00 0. -1.
          2    1    1    2  501    0 -0.13550856974E+02  0.30935685120E+02  0.85530692685E+02  0.91957282092E+02  0.00000000000E+00 0. -1.
<scales pt_clust_5="13000.00000" pt_clust_6="13000.00000" pt_clust_7="13000.00000" pt_clust_8="13000.00000" pt_clust_9="33.77340"></scales>
<clustering>
<clus scale="   33.773">  2  9  1 -1</clus>
<clus scale="   85.329">  5  6 -1 -1</clus>
<clus scale="   91.718">  7  8 -1 -1</clus>
<clus scale="  116.029">  1  5  2 -1</clus>
<clus scale="   33.773">  2  5  1 -1</clus>
</clustering>
</event>
<event>
 9    1  0.7586638E-005  0.1219598E+03  0.7546771E-02  0.1246883E+00
          1   -1    0    0  502    0 -0.00000000000E+00  0.00000000000E+00  0.38483726729E+03  0.38483726729E+03  0.00000000000E+00 0. -1.
         21   -1    0    0  501  502  0.00000000000E+00 -0.00000000000E+00 -0.79424633364E+02  0.79424633364E+02  0.00000000000E+00 0. -1.
        -24    2    1    2    0    0 -0.41087550672E+02 -0.47525309403E+02  0.24363167930E+03  0.26439195800E+03  0.81239586657E+02 0.  0.
         23    2    1    2    0    0  0.73620641198E+02  0.66444706243E+02  0.19193516227E+02  0.14303654169E+03  0.10127271792E+03 0.  0.
         11    1    3    3    0    0 -0.60136832202E+02 -0.37934125962E+02  0.12455432905E+03  0.14341972454E+03  0.00000000000E+00 0. -1.
        -12    1    3    3    0    0  0.19049281530E+02 -0.95911834412E+01  0.11907735025E+03  0.12097223346E+03  0.00000000000E+00 0.  1.
        -13    1    4    4    0    0  0.31060747220E+02  0.45805601524E+02 -0.39251009884E+02  0.67849575723E+02  0.00000000000E+00 0.  1.
         13    1    4    4    0    0  0.42559893978E+02  0.20639104719E+02  0.58444526111E+02  0.75186965968E+02  0.00000000000E+00 0. -1.
          2    1    1    2  501    0 -0.32533090526E+02 -0.18919396841E+02  0.42587438395E+02  0.56833400963E+02  0.00000000000E+00 0. -1.
<scales pt_clust_5="13000.00000" pt_clust_6="13000.00000" pt_clust_7="13000.00000" pt_clust_8="13000.00000" pt_clust_9="37.63439"></scales>
<clustering>
<clus scale="   37.634">  2  9  1 -1</clus>
<clus scale="   81.240">  5  6 -1 -1</clus>
<clus scale="  101.273">  7  8 -1 -1</clus>
<clus scale="  105.915">  1  5  2 -1</clus>
<clus scale="   37.634">  2  5  1 -1</clus>
</clustering>
</event>
<event>
 9    1  0.7586638E-005  0.1458586E+03  0.7546771E-02  0.1212950E+00
         -4   -1    0    0    0  501 -0.00000000000E+00  0.00000000000E+00  0.46317297878E+03  0.46317297878E+03  0.00000000000E+00 0.  1.
         21   -1    0    0  501  502  0.00000000000E+00 -0.00000000000E+00 -0.12377969152E+03  0.12377969152E+03  0.00000000000E+00 0.  1.
         23    2    1    2    0    0  0.11059673070E+02  0.94862048961E+02  0.31667323715E+03  0.34868998930E+03  0.11037048883E+03 0.  0.
        -24    2    1    2    0    0  0.40781998502E+02 -0.97873591136E+02 -0.55611747369E+02  0.14428130629E+03  0.80510978475E+02 0.  0.
         13    1    4    4    0    0  0.64119919533E+02 -0.56348567767E+02 -0.38827713977E+02  0.93776951022E+02  0.00000000000E+00 0. -1.
        -14    1    4    4    0    0 -0.23337921031E+02 -0.41525023369E+02 -0.16784033392E+02  0.50504355265E+02  0.00000000000E+00 0.  1.
        -13    1    3    3    0    0  0.59065690749E+02  0.45807575809E+02  0.13229344681E+03  0.15194948467E+03  0.00000000000E+00 0.  1.
         13    1    3    3    0    0 -0.48006017679E+02  0.49054473153E+02  0.18437979035E+03  0.19674050462E+03  0.00000000000E+00 0. -1.
         -3    1    1    2    0  502 -0.51841671572E+02  0.30115421743E+01  0.78331797471E+02  0.93981374712E+02  0.00000000000E+00 0.  1.
<scales pt_clust_5="13000.00000" pt_clust_6="13000.00000" pt_clust_7="13000.00000" pt_clust_8="13000.00000" pt_clust_9="51.92910"></scales>
<clustering>
<clus scale="   51.929">  2  9  1 -1</clus>
<clus scale="   80.511">  5  6 -1 -1</clus>
<clus scale="  110.370">  7  8 -1 -1</clus>
<clus scale="  124.800">  2  5  1 -1</clus>
<clus scale="   51.929">  2  5  1 -1</clus>
</clustering>
</event>
<event>
 9    1  0.7586638E-005  0.2801594E+03  0.7546771E-02  0.1095700E+00
         -2   -1    0    0    0  501 -0.00000000000E+00  0.00000000000E+00  0.61366859369E+03  0.61366859369E+03  0.00000000000E+00 0.  1.
         21   -1    0    0  501  502  0.00000000000E+00 -0.00000000000E+00 -0.18114857877E+03  0.18114857877E+03  0.00000000000E+00 0. -1.
         23    2    1    2    0    0 -0.39810785980E+02  0.26783302728E+03  0.42003946537E+03  0.50797949150E+03  0.91052633851E+02 0.  0.
        -24    2    1    2    0    0  0.38699023957E+02 -0.24500525122E+03  0.82260916333E+01  0.26359023408E+03  0.88808531898E+02 0.  0.
         13    1    4    4    0    0  0.26891812586E+02 -0.23574309089E+03 -0.12962494365E+02  0.23762575775E+03  0.00000000000E+00 0. -1.
        -14    1    4    4    0    0  0.11807211371E+02 -0.92621603272E+01  0.21188585998E+02  0.25964476326E+02  0.00000000000E+00 0.  1.
        -13    1    3    3    0    0 -0.44493540579E+02  0.48940751200E+02  0.11169709463E+03  0.12981183779E+03  0.00000000000E+00 0. -1.
         13    1    3    3    0    0  0.46827545990E+01  0.21889227608E+03  0.30834237074E+03  0.37816765370E+03  0.00000000000E+00 0.  1.
         -1    1    1    2    0  502  0.11117620228E+01 -0.22827776060E+02  0.42544579153E+01  0.23247446888E+02  0.00000000000E+00 0.  1.
<scales pt_clust_5="13000.00000" pt_clust_6="13000.00000" pt_clust_7="13000.00000" pt_clust_8="13000.00000" pt_clust_9="22.85483"></scales>
<clustering>
<clus scale="   22.855">  2  9  1 -1</clus>
<clus scale="   88.809">  5  6 -1 -1</clus>
<clus scale="   91.053">  7  8 -1 -1</clus>
<clus scale="  279.438">  2  5  1 -1</clus>
<clus scale="   22.855">  2  5  1 -1</clus>
</clustering>
</event>
<event>
 9    1  0.7586638E-005  0.1928169E+03  0.7546771E-02  0.1156784E+00
          1   -1    0    0  502    0 -0.00000000000E+00  0.00000000000E+00  0.13066636575E+03  0.13066636575E+03  0.00000000000E+00 0. -1.
         21   -1    0    0  501  502  0.00000000000E+00 -0.00000000000E+00 -0.49658893468E+03  0.49658893468E+03  0.00000000000E+00 0.  1.
         23    2    1    2    0    0 -0.18590678241E+03 -0.62331931536E+02 -0.35681802148E+02  0.21803826832E+03  0.88435818619E+02 0.  0.
        -24    2    1    2    0    0  0.11717045534E+03  0.69758984680E+02 -0.15740510596E+03  0.22306653002E+03  0.79919195962E+02 0.  0.
         13    1    4    4    0    0  0.95222739525E+02  0.87600536856E+02 -0.13490558835E+03  0.18692442844E+03  0.00000000000E+00 0. -1.
        -14    1    4    4    0    0  0.21947715816E+02 -0.17841552177E+02 -0.22499517611E+02  0.36142101576E+02  0.00000000000E+00 0.  1.
        -13    1    3    3    0    0 -0.50106080616E+02 -0.59350607291E+02 -0.25799818834E+02  0.81845858492E+02  0.00000000000E+00 0.  1.
         13    1    3    3    0    0 -0.13580070179E+03 -0.29813242455E+01 -0.98819833137E+01  0.13619240983E+03  0.00000000000E+00 0. -1.
          2    1    1    2  501    0  0.68736327068E+02 -0.74270531433E+01 -0.17283566082E+03  0.18615050209E+03  0.00000000000E+00 0. -1.
<scales pt_clust_5="13000.00000" pt_clust_6="13000.00000" pt_clust_7="13000.00000" pt_clust_8="13000.00000" pt_clust_9="69.13641"></scales>
<clustering>
<clus scale="   69.136">  2  9  1 -1</clus>
<clus scale="   79.919">  5  6 -1 -1</clus>
<clus scale="   88.436">  7  8 -1 -1</clus>
<clus scale="  189.062">  2  5  1 -1</clus>
<clus scale="   69.136">  2  5  1 -1</clus>
</clustering>
</event>
<event>
 9    1  0.7586638E-005  0.1015751E+03  0.7546771E-02  0.1297382E+00
          1   -1    0    0  502    0 -0.00000000000E+00  0.00000000000E+00  0.31185573579E+03  0.31185573579E+03  0.00000000000E+00 0. -1.
         21   -1    0    0  501  502  0.00000000000E+00 -0.00000000000E+00 -0.46106765038E+02  0.46106765038E+02  0.00000000000E+00 0. -1.
        -24    2    1    2    0    0  0.32414445471E+02 -0.11005059166E+02  0.10689992267E+03  0.12656295803E+03  0.58470345279E+02 0.  0.
         23    2    1    2    0    0 -0.36394414359E+02  0.35430236693E+02  0.47576424294E+02  0.11740819990E+03  0.94558522552E+02 0.  0.
         11    1    3    3    0    0  0.34848118359E+02 -0.31440151863E+02  0.69269306025E+02  0.83672643436E+02  0.00000000000E+00 0. -1.
        -12    1    3    3    0    0 -0.24336728885E+01  0.20435092697E+02  0.37630616645E+02  0.42890314598E+02  0.00000000000E+00 0.  1.
        -11    1    4    4    0    0  0.27705894835E+02  0.11192752178E+02 -0.59302839044E+01  0.30464119503E+02  0.00000000000E+00 0.  1.
         11    1    4    4    0    0 -0.64100309193E+02  0.24237484515E+02  0.53506708198E+02  0.86944080399E+02  0.00000000000E+00 0. -1.
          2    1    1    2  501    0  0.39799688879E+01 -0.24425177526E+02  0.11127262379E+03  0.11399134290E+03  0.00000000000E+00 0. -1.
<scales pt_clust_5="13000.00000" pt_clust_6="13000.00000" pt_clust_7="13000.00000" pt_clust_8="13000.00000" pt_clust_9="24.74732"></scales>
<clustering>
<clus scale="   24.747">  2  9  1 -1</clus>
<clus scale="   58.470">  5  6 -1 -1</clus>
<clus scale="   69.246">  1  5  2 -1</clus>
<clus scale="   94.559">  7  8 -1 -1</clus>
<clus scale="   24.747">  2  5  1 -1</clus>
</clustering>
</event>
<event>
 9    1  0.7586638E-005  0.1010573E+03  0.7546771E-02  0.1283764E+00
         21   -1    0    0  501  502  0.00000000000E+00  0.00000000000E+00  0.34686017531E+03  0.34686017531E+03  0.00000000000E+00 0. -1.
          1   -1    0    0  502    0 -0.00000000000E+00 -0.00000000000E+00 -0.13616139642E+03  0.13616139642E+03  0.00000000000E+00 0. -1.
        -24    2    1    2    0    0  0.21962999712E+02  0.35077865575E+02 -0.99623284881E+02  0.13448735210E+03  0.80307029430E+02 0.  0.
         23    2    1    2    0    0 -0.46966310586E+02 -0.28376108049E+02  0.13964051756E+03  0.17590088182E+03  0.91818343708E+02 0.  0.
         13    1    3    3    0    0  0.18804767326E+02  0.58662764293E+02 -0.49586721186E+02  0.79080858029E+02  0.00000000000E+00 0. -1.
        -14    1    3    3    0    0  0.31582323864E+01 -0.23584898717E+02 -0.50036563695E+02  0.55406494076E+02  0.00000000000E+00 0.  1.
        -11    1    4    4    0    0 -0.54664410436E+02  0.96804063908E+01  0.38486083039E+02  0.67550622675E+02  0.00000000000E+00 0. -1.
         11    1    4    4    0    0  0.76980998492E+01 -0.38056514439E+02  0.10115443452E+03  0.10835025914E+03  0.00000000000E+00 0.  1.
          2    1    1    2  501    0  0.25003310874E+02 -0.67017575263E+01  0.17068154620E+03  0.17263333781E+03  0.00000000000E+00 0. -1.
<scales pt_clust_5="13000.00000" pt_clust_6="13000.00000" pt_clust_7="13000.00000" pt_clust_8="13000.00000" pt_clust_9="25.88589"></scales>
<clustering>
<clus scale="   25.886">  1  9  2 -1</clus>
<clus scale="   80.307">  5  6 -1 -1</clus>
<clus scale="   90.726">  2  5  1 -1</clus>
<clus scale="   91.818">  7  8 -1 -1</clus>
<clus scale="   25.886">  1  5  2 -1</clus>
</clustering>
</event>
<event>
 9    1  0.8219513E-005  0.1024480E+03  0.7546771E-02  0.1277458E+00
         21   -1    0    0  501  502  0.00000000000E+00  0.00000000000E+00  0.32305454775E+03  0.32305454775E+03  0.00000000000E+00 0.  1.
          3   -1    0    0  502    0 -0.00000000000E+00 -0.00000000000E+00 -0.17072408819E+03  0.17072408819E+03  0.00000000000E+00 0. -1.
         23    2    1    2    0    0  0.45607522750E+02 -0.25884552701E+02 -0.13982138698E+03  0.17347499147E+03  0.88280780522E+02 0.  0.
        -24    2    1    2    0    0 -0.26469334102E+02  0.42717996960E+02  0.26833272922E+03  0.28541832578E+03  0.83280935422E+02 0.  0.
         11    1    4    4    0    0  0.23041786545E+02  0.24094318560E+02  0.17491206455E+03  0.17806091777E+03  0.00000000000E+00 0. -1.
        -12    1    4    4    0    0 -0.49511120647E+02  0.18623678400E+02  0.93420664678E+02  0.10735740801E+03  0.00000000000E+00 0.  1.
        -11    1    3    3    0    0 -0.24329104914E+01  0.29342309351E+02 -0.42354973075E+02  0.51583271666E+02  0.00000000000E+00 0.  1.
         11    1    3    3    0    0  0.48040433242E+02 -0.55226862052E+02 -0.97466413907E+02  0.12189171981E+03  0.00000000000E+00 0. -1.
          4    1    1    2  501    0 -0.19138188649E+02 -0.16833444259E+02  0.23819117321E+02  0.34885318693E+02  0.00000000000E+00 0. -1.
<scales pt_clust_5="13000.00000" pt_clust_6="13000.00000" pt_clust_7="13000.00000" pt_clust_8="13000.00000" pt_clust_9="25.48794"></scales>
<clustering>
<clus scale="   25.488">  1  9  2 -1</clus>
<clus scale="   83.281">  5  6 -1 -1</clus>
<clus scale="   88.281">  7  8 -1 -1</clus>
<clus scale="   98.172">  1  5  2 -1</clus>
<clus scale="   25.488">  1  5  2 -1</clus>
</clustering>
</event>
<event>
 9    1  0.7586638E-005  0.1080516E+03  0.7546771E-02  0.1265066E+00
         -4   -1    0    0    0  501 -0.00000000000E+00  0.00000000000E+00  0.17322250251E+03  0.17322250251E+03  0.00000000000E+00 0.  1.
         21   -1    0    0  501  502  0.00000000000E+00 -0.00000000000E+00 -0.18558796788E+03  0.18558796788E+03  0.00000000000E+00 0.  1.
         23    2    1    2    0    0 -0.36609953403E+02 -0.55909152673E+02  0.32867861564E+02  0.11310667944E+03  0.85127566453E+02 0.  0.
        -24    2    1    2    0    0 -0.65040890543E+02  0.86952039166E+02 -0.18409824048E+02  0.13608602239E+03  0.79934406296E+02 0.  0.
         11    1    4    4    0    0 -0.68581615517E+02  0.85219194614E+02  0.77203533232E+01  0.10966017040E+03  0.00000000000E+00 0. -1.
        -12    1    4    4    0    0  0.35407249746E+01  0.17328445521E+01 -0.26130177371E+02  0.26425851983E+02  0.00000000000E+00 0.  1.
        -11    1    3    3    0    0 -0.56282991695E+02 -0.28982849381E+02  0.44945550420E+02  0.77639443680E+02  0.00000000000E+00 0.  1.
         11    1    3    3    0    0  0.19673038292E+02 -0.26926303292E+02 -0.12077688856E+02  0.35467235764E+02  0.00000000000E+00 0. -1.
         -3    1    1    2    0  502  0.10165084395E+03 -0.31042886493E+02 -0.26823502881E+02  0.10961776856E+03  0.00000000000E+00 0.  1.
<scales pt_clust_5="13000.00000" pt_clust_6="13000.00000" pt_clust_7="13000.00000" pt_clust_8="13000.00000" pt_clust_9="106.28525"></scales>
<clustering>
<clus scale="   79.934">  5  6 -1 -1</clus>
<clus scale="   85.128">  7  8 -1 -1</clus>
<clus scale="  106.285">  2  9  1 -1</clus>
<clus scale="  106.285">  2  5  1 -1</clus>
<clus scale="  106.285">  2  5  1 -1</clus>
</clustering>
</event>
<event>
 9    1  0.7586638E-005  0.9670041E+02  0.7546771E-02  0.1293651E+00
         21   -1    0    0  501  502  0.00000000000E+00  0.00000000000E+00  0.76486990385E+03  0.76486990385E+03  0.00000000000E+00 0.  1.
          1   -1    0    0  502    0 -0.00000000000E+00 -0.00000000000E+00 -0.25188437868E+02  0.25188437868E+02  0.00000000000E+00 0. -1.
        -24    2    1    2    0    0  0.22265591026E+02 -0.40960429619E+02  0.30171449130E+03  0.31646238834E+03  0.83326440196E+02 0.  0.
         23    2    1    2    0    0 -0.12188646313E+02 -0.22251326233E+02  0.35843675932E+03  0.37150615933E+03  0.94319835519E+02 0.  0.
         13    1    3    3    0    0  0.27391954300E+02 -0.22314266963E+02  0.37428233577E+02  0.51469586546E+02  0.00000000000E+00 0. -1.
        -14    1    3    3    0    0 -0.51263632741E+01 -0.18646162656E+02  0.26428625772E+03  0.26499280179E+03  0.00000000000E+00 0.  1.
        -13    1    4    4    0    0  0.53615315018E+00 -0.56901899096E+02  0.26502905170E+03  0.27106920118E+03  0.00000000000E+00 0.  1.
         13    1    4    4    0    0 -0.12724799463E+02  0.34650572863E+02  0.93407707616E+02  0.10043695815E+03  0.00000000000E+00 0. -1.
          2    1    1    2  501    0 -0.10076944714E+02  0.63211755852E+02  0.79530215371E+02  0.10208979405E+03  0.00000000000E+00 0. -1.
<scales pt_clust_5="13000.00000" pt_clust_6="13000.00000" pt_clust_7="13000.00000" pt_clust_8="13000.00000" pt_clust_9="64.00996"></scales>
<clustering>
<clus scale="   64.010">  1  9  2 -1</clus>
<clus scale="   83.326">  5  6 -1 -1</clus>
<clus scale="   86.012">  2  5  1 -1</clus>
<clus scale="   94.320">  7  8 -1 -1</clus>
<clus scale="   64.010">  1  5  2 -1</clus>
</clustering>
</event>
<event>
 9    1  0.7586638E-005  0.1454224E+03  0.7546771E-02  0.1207819E+00
         -2   -1    0    0    0  501 -0.00000000000E+00  0.00000000000E+00  0.96444280515E+02  0.96444280515E+02  0.00000000000E+00 0.  1.
         21   -1    0    0  501  502  0.00000000000E+00 -0.00000000000E+00 -0.32940770680E+03  0.32940770680E+03  0.00000000000E+00 0.  1.
         23    2    1    2    0    0 -0.76771209331E+02 -0.81451596413E+02 -0.45163851272E+02  0.15242669493E+03  0.93091045357E+02 0.  0.
        -24    2    1    2    0    0  0.96616347225E+02  0.60220060870E+02 -0.19698637898E+03  0.24294570960E+03  0.85192781541E+02 0.  0.
         11    1    4    4    0    0  0.41554532176E+02  0.60971817912E+01 -0.14220473680E+03  0.14827724687E+03  0.00000000000E+00 0. -1.
        -12    1    4    4    0    0  0.55061815049E+02  0.54122879079E+02 -0.54781642184E+02  0.94668462735E+02  0.00000000000E+00 0.  1.
        -13    1    3    3    0    0 -0.97298434587E+02 -0.59471404394E+02 -0.44307581266E+02  0.12233967088E+03  0.00000000000E+00 0.  1.
         13    1    3    3    0    0  0.20527225256E+02 -0.21980192019E+02 -0.85627000555E+00  0.30087024051E+02  0.00000000000E+00 0. -1.
         -1    1    1    2    0  502 -0.19845137893E+02  0.21231535542E+02  0.91868039688E+01  0.30479582783E+02  0.00000000000E+00 0.  1.
<scales pt_clust_5="13000.00000" pt_clust_6="13000.00000" pt_clust_7="13000.00000" pt_clust_8="13000.00000" pt_clust_9="29.06215"></scales>
<clustering>
<clus scale="   29.062">  2  9  1 -1</clus>
<clus scale="   85.193">  5  6 -1 -1</clus>
<clus scale="   93.091">  7  8 -1 -1</clus>
<clus scale="  140.498">  2  5  1 -1</clus>
<clus scale="   29.062">  2  5  1 -1</clus>
</clustering>
</event>
<event>
 9    1  0.7586638E-005  0.1491805E+03  0.7546771E-02  0.1202816E+00
          1   -1    0    0  502    0 -0.00000000000E+00  0.00000000000E+00  0.52651216823E+03  0.52651216823E+03  0.00000000000E+00 0. -1.
         21   -1    0    0  501  502  0.00000000000E+00 -0.00000000000E+00 -0.60972601720E+02  0.60972601720E+02  0.00000000000E+00 0.  1.
         23    2    1    2    0    0 -0.10818046886E+03 -0.44843889764E+02  0.19611919590E+03  0.24570350798E+03  0.90517879675E+02 0.  0.
        -24    2    1    2    0    0  0.94322723815E+02  0.80467861462E+02  0.13269925262E+03  0.19981729273E+03  0.83342701376E+02 0.  0.
         11    1    4    4    0    0  0.73871550653E+02  0.78083280593E+02  0.14127081252E+03  0.17751463932E+03  0.00000000000E+00 0. -1.
        -12    1    4    4    0    0  0.20451173162E+02  0.23845808696E+01 -0.85715599066E+01  0.22302653404E+02  0.00000000000E+00 0.  1.
        -11    1    3    3    0    0 -0.58266262889E+02  0.16996452479E+02  0.12542802721E+03  0.13934140374E+03  0.00000000000E+00 0.  1.
         11    1    3    3    0    0 -0.49914205969E+02 -0.61840342243E+02  0.70691168691E+02  0.10636210423E+03  0.00000000000E+00 0. -1.
          2    1    1    2  501    0  0.13857745043E+02 -0.35623971699E+02  0.13672111800E+03  0.14196396925E+03  0.00000000000E+00 0. -1.
<scales pt_clust_5="13000.00000" pt_clust_6="13000.00000" pt_clust_7="13000.00000" pt_clust_8="13000.00000" pt_clust_9="38.22442"></scales>
<clustering>
<clus scale="   38.224">  2  9  1 -1</clus>
<clus scale="   83.343">  5  6 -1 -1</clus>
<clus scale="   90.518">  7  8 -1 -1</clus>
<clus scale="  144.939">  2  5  1 -1</clus>
<clus scale="   38.224">  2  5  1 -1</clus>
</clustering>
</event>
<event>
 9    1  0.7586638E-005  0.1720538E+03  0.7546771E-02  0.1198219E+00
         21   -1    0    0  501  502  0.00000000000E+00  0.00000000000E+00  0.14642385086E+03  0.14642385086E+03  0.00000000000E+00 0. -1.
          1   -1    0    0  502    0 -0.00000000000E+00 -0.00000000000E+00 -0.37829812184E+03  0.37829812184E+03  0.00000000000E+00 0. -1.
        -24    2    1    2    0    0  0.20489666872E+02 -0.61205347144E+02 -0.77429270917E+02  0.12997112144E+03  0.82044374854E+02 0.  0.
         23    2    1    2    0    0 -0.89440102006E+02 -0.79364944709E+02 -0.18170925865E+03  0.23582473870E+03  0.91086367845E+02 0.  0.
         13    1    3    3    0    0  0.36790009976E+02  0.43278112876E+00 -0.12211051840E+02  0.38765989225E+02  0.00000000000E+00 0. -1.
        -14    1    3    3    0    0 -0.16300343104E+02 -0.61638128272E+02 -0.65218219077E+02  0.91205132212E+02  0.00000000000E+00 0.  1.
        -13    1    4    4    0    0 -0.72637153866E+02 -0.41132442868E+02 -0.49210829039E+02  0.96900669104E+02  0.00000000000E+00 0.  1.
         13    1    4    4    0    0 -0.16802948140E+02 -0.38232501841E+02 -0.13249842961E+03  0.13892406959E+03  0.00000000000E+00 0. -1.
          2    1    1    2  501    0  0.68950435134E+02  0.14057029185E+03  0.27264258588E+02  0.15892611256E+03  0.00000000000E+00 0. -1.
<scales pt_clust_5="13000.00000" pt_clust_6="13000.00000" pt_clust_7="13000.00000" pt_clust_8="13000.00000" pt_clust_9="145.96498"></scales>
<clustering>
<clus scale="   82.044">  5  6 -1 -1</clus>
<clus scale="   91.086">  7  8 -1 -1</clus>
<clus scale="  104.390">  2  5  1 -1</clus>
<clus scale="  145.965">  1  9  2 -1</clus>
<clus scale="  145.965">  1  5  2 -1</clus>
</clustering>
</event>
<event>
 9    1  0.7586638E-005  0.1479467E+03  0.7546771E-02  0.1205491E+00
         -2   -1    0    0    0  501 -0.00000000000E+00  0.00000000000E+00  0.16461119239E+03  0.16461119239E+03  0.00000000000E+00 0.  1.
         21   -1    0    0  501  502  0.00000000000E+00 -0.00000000000E+00 -0.18291474616E+03  0.18291474616E+03  0.00000000000E+00 0. -1.
        -24    2    1    2    0    0 -0.10165747648E+03  0.69960551359E+02  0.45088085500E+02  0.15379964374E+03  0.79954197440E+02 0.  0.
         23    2    1    2    0    0  0.88383264598E+02 -0.42557665316E+02 -0.82075054640E+02  0.15800245299E+03  0.92766934947E+02 0.  0.
         11    1    3    3    0    0  0.25705734471E+00  0.33294244364E+02 -0.63511559075E+01  0.33895574454E+02  0.00000000000E+00 0. -1.
        -12    1    3    3    0    0 -0.10191453383E+03  0.36666306995E+02  0.51439241408E+02  0.11990406928E+03  0.00000000000E+00 0.  1.
        -11    1    4    4    0    0  0.51474881092E+02 -0.21106647044E+02 -0.97793760972E+02  0.11251121552E+03  0.00000000000E+00 0. -1.
         11    1    4    4    0    0  0.36908383506E+02 -0.21451018273E+02  0.15718706333E+02  0.45491237472E+02  0.00000000000E+00 0.  1.
         -1    1    1    2    0  502  0.13274211885E+02 -0.27402886043E+02  0.18683415364E+02  0.35723841819E+02  0.00000000000E+00 0.  1.
<scales pt_clust_5="13000.00000" pt_clust_6="13000.00000" pt_clust_7="13000.00000" pt_clust_8="13000.00000" pt_clust_9="30.44871"></scales>
<clustering>
<clus scale="   30.449">  2  9  1 -1</clus>
<clus scale="   79.954">  5  6 -1 -1</clus>
<clus scale="   92.767">  7  8 -1 -1</clus>
<clus scale="  140.268">  1  5  2 -1</clus>
<clus scale="   30.449">  2  5  1 -1</clus>
</clustering>
</event>
<event>
 9    1  0.7586638E-005  0.1043667E+03  0.7546771E-02  0.1277044E+00
          1   -1    0    0  502    0 -0.00000000000E+00  0.00000000000E+00  0.11932887953E+03  0.11932887953E+03  0.00000000000E+00 0. -1.
         21   -1    0    0  501  502  0.00000000000E+00 -0.00000000000E+00 -0.24161416398E+03  0.24161416398E+03  0.00000000000E+00 0.  1.
         23    2    1    2    0    0 -0.47746617951E+02 -0.18672188002E+02  0.36992772894E+02  0.11211205925E+03  0.92586491742E+02 0.  0.
        -24    2    1    2    0    0  0.33434182345E+02  0.76863526119E+00 -0.19090661980E+03  0.20977014739E+03  0.80248002504E+02 0.  0.
         11    1    4    4    0    0  0.33377463461E+02  0.30689109518E+02 -0.58442695769E+02  0.73969082722E+02  0.00000000000E+00 0. -1.
        -12    1    4    4    0    0  0.56718884268E-01 -0.29920474257E+02 -0.13246392403E+03  0.13580106467E+03  0.00000000000E+00 0.  1.
        -13    1    3    3    0    0 -0.53666306322E+02  0.10866616866E+02  0.54510640474E+02  0.77262964745E+02  0.00000000000E+00 0. -1.
         13    1    3    3    0    0  0.59196883712E+01 -0.29538804868E+02 -0.17517867580E+02  0.34849094508E+02  0.00000000000E+00 0.  1.
          2    1    1    2  501    0  0.14312435606E+02  0.17903552741E+02  0.31628562451E+02  0.39060836863E+02  0.00000000000E+00 0. -1.
<scales pt_clust_5="13000.00000" pt_clust_6="13000.00000" pt_clust_7="13000.00000" pt_clust_8="13000.00000" pt_clust_9="22.92125"></scales>
<clustering>
<clus scale="   22.921">  2  9  1 -1</clus>
<clus scale="   80.248">  5  6 -1 -1</clus>
<clus scale="   92.586">  7  8 -1 -1</clus>
<clus scale="   93.594">  2  5  1 -1</clus>
<clus scale="   22.921">  2  5  1 -1</clus>
</clustering>
</event>
<event>
 9    1  0.7586638E-005  0.2291052E+03  0.7546771E-02  0.1128319E+00
          1   -1    0    0  502    0 -0.00000000000E+00  0.00000000000E+00  0.25402141031E+03  0.25402141031E+03  0.00000000000E+00 0. -1.
         21   -1    0    0  501  502  0.00000000000E+00 -0.00000000000E+00 -0.42221226643E+03  0.42221226643E+03  0.00000000000E+00 0. -1.
         23    2    1    2    0    0 -0.19207288236E+03  0.13967209225E+03  0.12660353062E+03  0.28402076009E+03  0.90769227747E+02 0.  0.
        -24    2    1    2    0    0  0.11291085166E+03 -0.72579357404E+02 -0.19473981632E+03  0.24806376044E+03  0.74802470825E+02 0.  0.
         11    1    4    4    0    0  0.84976279383E+02 -0.14432827557E+02 -0.13483197534E+03  0.16002792302E+03  0.00000000000E+00 0. -1.
        -12    1    4    4    0    0  0.27934572273E+02 -0.58146529847E+02 -0.59907840978E+02  0.88035837430E+02  0.00000000000E+00 0.  1.
        -13    1    3    3    0    0 -0.30382794991E+02  0.11340345071E+02 -0.12870529511E+02  0.34890803769E+02  0.00000000000E+00 0.  1.
         13    1    3    3    0    0 -0.16169008737E+03  0.12833174718E+03  0.13947406013E+03  0.24912995632E+03  0.00000000000E+00 0. -1.
          2    1    1    2  501    0  0.79162030704E+02 -0.67092734846E+02 -0.10005457042E+03  0.14414915621E+03  0.00000000000E+00 0. -1.
<scales pt_clust_5="13000.00000" pt_clust_6="13000.00000" pt_clust_7="13000.00000" pt_clust_8="13000.00000" pt_clust_9="103.76927"></scales>
<clustering>
<clus scale="   74.802">  5  6 -1 -1</clus>
<clus scale="   90.769">  7  8 -1 -1</clus>
<clus scale="  103.769">  2  9  1 -1</clus>
<clus scale="  223.261">  2  5  1 -1</clus>
<clus scale="  103.769">  2  5  1 -1</clus>
</clustering>
</event>
<event>
 9    1  0.7586638E-005  0.1762254E+03  0.7546771E-02  0.1196408E+00
         21   -1    0    0  501  502  0.00000000000E+00  0.00000000000E+00  0.58389513965E+03  0.58389513965E+03  0.00000000000E+00 0. -1.
          1   -1    0    0  502    0 -0.00000000000E+00 -0.00000000000E+00 -0.12213306965E+03  0.12213306965E+03  0.00000000000E+00 0. -1.
        -24    2    1    2    0    0 -0.58817421244E+02  0.21686155537E+02  0.10379028332E+03  0.14486840589E+03  0.79275807966E+02 0.  0.
         23    2    1    2    0    0  0.16166150707E+03 -0.99916129905E+02  0.47908941597E+02  0.22524939455E+03  0.11101507634E+03 0.  0.
         13    1    3    3    0    0 -0.38770410088E+02  0.51468342345E+02  0.58112996319E+02  0.86771281559E+02  0.00000000000E+00 0. -1.
        -14    1    3    3    0    0 -0.20047011156E+02 -0.29782186809E+02  0.45677286999E+02  0.58097124326E+02  0.00000000000E+00 0.  1.
        -13    1    4    4    0    0  0.15665777876E+03 -0.67899268916E+02  0.41397041707E+01  0.17078965869E+03  0.00000000000E+00 0. -1.
         13    1    4    4    0    0  0.50037283095E+01 -0.32016860988E+02  0.43769237426E+02  0.54459735855E+02  0.00000000000E+00 0.  1.
          2    1    1    2  501    0 -0.10284408583E+03  0.78229974368E+02  0.31006284509E+03  0.33591040887E+03  0.00000000000E+00 0. -1.
<scales pt_clust_5="13000.00000" pt_clust_6="13000.00000" pt_clust_7="13000.00000" pt_clust_8="13000.00000" pt_clust_9="136.86142"></scales>
<clustering>
<clus scale="   79.276">  5  6 -1 -1</clus>
<clus scale="  101.067">  2  5  1 -1</clus>
<clus scale="  111.015">  7  8 -1 -1</clus>
<clus scale="  136.861">  1  9  2 -1</clus>
<clus scale="  136.861">  1  5  2 -1</clus>
</clustering>
</event>
<event>
 9    1  0.7586638E-005  0.1482194E+03  0.7546771E-02  0.1214697E+00
          1   -1    0    0  502    0 -0.00000000000E+00  0.00000000000E+00  0.43845013709E+02  0.43845013709E+02  0.00000000000E+00 0. -1.
         21   -1    0    0  501  502  0.00000000000E+00 -0.00000000000E+00 -0.12471100578E+04  0.12471100578E+04  0.00000000000E+00 0. -1.
         23    2    1    2    0    0  0.36383404539E+02 -0.63121307444E+02 -0.16210931406E+03  0.19852737241E+03  0.88462626637E+02 0.  0.
        -24    2    1    2    0    0 -0.11627863380E+03 -0.40227653643E+02 -0.24168111760E+03  0.28235121423E+03  0.78571373770E+02 0.  0.
         11    1    4    4    0    0 -0.94304576580E+02  0.59614766666E+01 -0.16589900874E+03  0.19092242788E+03  0.00000000000E+00 0. -1.
        -12    1    4    4    0    0 -0.21974057225E+02 -0.46189130309E+02 -0.75782108857E+02  0.91428786345E+02  0.00000000000E+00 0.  1.
        -11    1    3    3    0    0  0.25060537689E+02  0.16708732058E+02 -0.23621266584E+02  0.38277624159E+02  0.00000000000E+00 0.  1.
         11    1    3    3    0    0  0.11322866850E+02 -0.79830039501E+02 -0.13848804748E+03  0.16024974825E+03  0.00000000000E+00 0. -1.
          2    1    1    2  501    0  0.79895229265E+02  0.10334896109E+03 -0.79947461246E+03  0.81007648490E+03  0.00000000000E+00 0. -1.
<scales pt_clust_5="13000.00000" pt_clust_6="13000.00000" pt_clust_7="13000.00000" pt_clust_8="13000.00000" pt_clust_9="125.68025"></scales>
<clustering>
<clus scale="   78.571">  5  6 -1 -1</clus>
<clus scale="   88.463">  7  8 -1 -1</clus>
<clus scale="  114.602">  1  7  2 -1</clus>
<clus scale="  125.680">  2  9  1 -1</clus>
<clus scale="  125.680">  2  5  1 -1</clus>
</clustering>
</event>
<event>
 9    1  0.7586638E-005  0.1083751E+03  0.7546771E-02  0.1267723E+00
         21   -1    0    0  501  502  0.00000000000E+00  0.00000000000E+00  0.28000585079E+03  0.28000585079E+03  0.00000000000E+00 0. -1.
         -2   -1    0    0    0  501 -0.00000000000E+00 -0.00000000000E+00 -0.61763947682E+02  0.61763947682E+02  0.00000000000E+00 0.  1.
        -24    2    1    2    0    0  0.26857402151E+02  0.69212563939E+02  0.48081890990E+02  0.11904107995E+03  0.79669388209E+02 0.  0.
         23    2    1    2    0    0 -0.32560718691E+01 -0.35147204937E+02  0.14504245928E+03  0.17426880792E+03  0.89924270363E+02 0.  0.
         13    1    3    3    0    0  0.37277392841E+02  0.12108030321E+02 -0.60635810114E+01  0.39660754279E+02  0.00000000000E+00 0. -1.
        -14    1    3    3    0    0 -0.10419990690E+02  0.57104533618E+02  0.54145472001E+02  0.79380325673E+02  0.00000000000E+00 0.  1.
        -13    1    4    4    0    0  0.14676822617E+02 -0.44268400075E+02  0.25715750853E+02  0.53257865234E+02  0.00000000000E+00 0.  1.
         13    1    4    4    0    0 -0.17932894487E+02  0.91211951377E+01  0.11932670843E+03  0.12101094268E+03  0.00000000000E+00 0. -1.
         -1    1    1    2    0  502 -0.23601330282E+02 -0.34065359002E+02  0.25117552840E+02  0.48459910603E+02  0.00000000000E+00 0.  1.
<scales pt_clust_5="13000.00000" pt_clust_6="13000.00000" pt_clust_7="13000.00000" pt_clust_8="13000.00000" pt_clust_9="41.44241"></scales>
<clustering>
<clus scale="   41.442">  1  9  2 -1</clus>
<clus scale="   79.669">  5  6 -1 -1</clus>
<clus scale="   89.924">  7  8 -1 -1</clus>
<clus scale="  100.030">  2  5  1 -1</clus>
<clus scale="   41.442">  1  5  2 -1</clus>
</clustering>
</event>
<event>
 9    1  0.7586638E-005  0.1328701E+03  0.7546771E-02  0.1224013E+00
          1   -1    0    0  502    0 -0.00000000000E+00  0.00000000000E+00  0.75860088578E+03  0.75860088578E+03  0.00000000000E+00 0. -1.
         21   -1    0    0  501  502  0.00000000000E+00 -0.00000000000E+00 -0.43771664549E+02  0.43771664549E+02  0.00000000000E+00 0. -1.
         23    2    1    2    0    0  0.87568940789E+02  0.18312438604E+02  0.36652735339E+03  0.38654025896E+03  0.84067866737E+02 0.  0.
        -24    2    1    2    0    0 -0.11160298568E+03 -0.72817195173E+02  0.30397192562E+03  0.34157902491E+03  0.80744834915E+02 0.  0.
         11    1    4    4    0    0 -0.55692271804E+02 -0.81344901603E+02  0.17755274919E+03  0.20308520601E+03  0.00000000000E+00 0. -1.
        -12    1    4    4    0    0 -0.55910713880E+02  0.85277064293E+01  0.12641917643E+03  0.13849381890E+03  0.00000000000E+00 0.  1.
        -11    1    3    3    0    0  0.18273103455E+02 -0.25566153561E+02  0.18076891590E+03  0.18348006833E+03  0.00000000000E+00 0. -1.
         11    1    3    3    0    0  0.69295837334E+02  0.43878592165E+02  0.18575843748E+03  0.20306019063E+03  0.00000000000E+00 0.  1.
          2    1    1    2  501    0  0.24034044894E+02  0.54504756569E+02  0.44329942224E+02  0.74253266461E+02  0.00000000000E+00 0. -1.
<scales pt_clust_5="13000.00000" pt_clust_6="13000.00000" pt_clust_7="13000.00000" pt_clust_8="13000.00000" pt_clust_9="59.56848"></scales>
<clustering>
<clus scale="   59.568">  2  9  1 -1</clus>
<clus scale="   80.745">  5  6 -1 -1</clus>
<clus scale="   84.068">  7  8 -1 -1</clus>
<clus scale="  130.793">  2  5  1 -1</clus>
<clus scale="   59.568">  2  5  1 -1</clus>
</clustering>
</event>
<event>
 9    1  0.7586638E-005  0.1383863E+03  0.7546771E-02  0.1217782E+00
         -2   -1    0    0    0  501 -0.00000000000E+00  0.00000000000E+00  0.51436049312E+03  0.51436049312E+03  0.00000000000E+00 0.  1.
         21   -1    0    0  501  502  0.00000000000E+00 -0.00000000000E+00 -0.10143266446E+03  0.10143266446E+03  0.00000000000E+00 0.  1.
        -24    2    1    2    0    0  0.32725175654E+02  0.10207042460E+03  0.30388451440E+03  0.33197977058E+03  0.79846485700E+02 0.  0.
         23    2    1    2    0    0  0.21880432769E+02 -0.10199159457E+03 -0.24065863714E+02  0.13993902534E+03  0.90126168868E+02 0.  0.
         11    1    3    3    0    0  0.32932478319E+02  0.60342555846E+01  0.11926814362E+03  0.12387836959E+03  0.00000000000E+00 0. -1.
        -12    1    3    3    0    0 -0.20730266498E+00  0.96036169012E+02  0.18461637078E+03  0.20810140099E+03  0.00000000000E+00 0.  1.
        -13    1    4    4    0    0 -0.19243514155E+02  0.70728325528E+01 -0.90684424156E+01  0.22418172209E+02  0.00000000000E+00 0. -1.
         13    1    4    4    0    0  0.41123946924E+02 -0.10906442713E+03 -0.14997421299E+02  0.11752085313E+03  0.00000000000E+00 0.  1.
         -1    1    1    2    0  502 -0.54605608423E+02 -0.78830023597E-01  0.13310917797E+03  0.14387436167E+03  0.00000000000E+00 0.  1.
<scales pt_clust_5="13000.00000" pt_clust_6="13000.00000" pt_clust_7="13000.00000" pt_clust_8="13000.00000" pt_clust_9="54.60569"></scales>
<clustering>
<clus scale="   54.606">  2  9  1 -1</clus>
<clus scale="   79.846">  5  6 -1 -1</clus>
<clus scale="   90.126">  7  8 -1 -1</clus>
<clus scale="  131.922">  1  5  2 -1</clus>
<clus scale="   54.606">  2  5  1 -1</clus>
</clustering>
</event>
<event>
 9    1  0.7586638E-005  0.1416916E+03  0.7546771E-02  0.1213762E+00
          1   -1    0    0  502    0 -0.00000000000E+00  0.00000000000E+00  0.32167899900E+02  0.32167899900E+02  0.00000000000E+00 0. -1.
         21   -1    0    0  501  502  0.00000000000E+00 -0.00000000000E+00 -0.16827228918E+04  0.16827228918E+04  0.00000000000E+00 0. -1.
         23    2    1    2    0    0  0.46603951828E+02 -0.10987227779E+03 -0.21936390178E+03  0.26658405742E+03  0.93288222789E+02 0.  0.
        -24    2    1    2    0    0  0.44352184507E+02  0.86062550691E+02 -0.72555049229E+03  0.73642993656E+03  0.80818659296E+02 0.  0.
         13    1    4    4    0    0  0.48836106178E+02  0.10861556433E+02 -0.25105426312E+03  0.25599058910E+03  0.00000000000E+00 0. -1.
        -14    1    4    4    0    0 -0.44839216709E+01  0.75200994258E+02 -0.47449622917E+03  0.48043934746E+03  0.00000000000E+00 0.  1.
        -13    1    3    3    0    0  0.52679208266E+02 -0.30845723793E+02 -0.47583251066E+02  0.77399763835E+02  0.00000000000E+00 0. -1.
         13    1    3    3    0    0 -0.60752564375E+01 -0.79026553997E+02 -0.17178065072E+03  0.18918429358E+03  0.00000000000E+00 0.  1.
          2    1    1    2  501    0 -0.90956136335E+02  0.23809727099E+02 -0.70564059787E+03  0.71187679777E+03  0.00000000000E+00 0. -1.
<scales pt_clust_5="13000.00000" pt_clust_6="13000.00000" pt_clust_7="13000.00000" pt_clust_8="13000.00000" pt_clust_9="94.02086"></scales>
<clustering>
<clus scale="   80.819">  5  6 -1 -1</clus>
<clus scale="   93.288">  7  8 -1 -1</clus>
<clus scale="   94.021">  2  9  1 -1</clus>
<clus scale="  133.811">  2  5  1 -1</clus>
<clus scale="   94.021">  2  5  1 -1</clus>
</clustering>
</event>
<event>
 9    1  0.7586638E-005  0.9476475E+02  0.7546771E-02  0.1296933E+00
         21   -1    0    0  501  502  0.00000000000E+00  0.00000000000E+00  0.10305136611E+03  0.10305136611E+03  0.00000000000E+00 0.  1.
         -2   -1    0    0    0  501 -0.00000000000E+00 -0.00000000000E+00 -0.16540813841E+03  0.16540813841E+03  0.00000000000E+00 0.  1.
        -24    2    1    2    0    0  0.29597096310E+02 -0.30104923355E+01 -0.31716789152E+02  0.93147300485E+02  0.82373622595E+02 0.  0.
         23    2    1    2    0    0 -0.13078230398E+02 -0.13300187461E+02  0.39528131927E+02  0.10140364174E+03  0.91500219930E+02 0.  0.
         11    1    3    3    0    0 -0.13804402340E+02  0.24553869185E+02 -0.30780416580E+02  0.41723950685E+02  0.00000000000E+00 0. -1.
        -12    1    3    3    0    0  0.43401498649E+02 -0.27564361521E+02 -0.93637257222E+00  0.51423349800E+02  0.00000000000E+00 0.  1.
        -13    1    4    4    0    0 -0.17832951323E+02  0.17223816022E+02  0.59608445558E+02  0.64558816385E+02  0.00000000000E+00 0.  1.
         13    1    4    4    0    0  0.47547209253E+01 -0.30524003483E+02 -0.20080313631E+02  0.36844825352E+02  0.00000000000E+00 0. -1.
         -1    1    1    2    0  502 -0.16518865912E+02  0.16310679797E+02 -0.70168115082E+02  0.73908562295E+02  0.00000000000E+00 0.  1.
<scales pt_clust_5="13000.00000" pt_clust_6="13000.00000" pt_clust_7="13000.00000" pt_clust_8="13000.00000" pt_clust_9="23.21447"></scales>
<clustering>
<clus scale="   23.214">  1  9  2 -1</clus>
<clus scale="   82.374">  5  6 -1 -1</clus>
<clus scale="   85.985">  2  5  1 -1</clus>
<clus scale="   91.500">  7  8 -1 -1</clus>
<clus scale="   23.214">  1  5  2 -1</clus>
</clustering>
</event>
<event>
 9    1  0.7586638E-005  0.9336533E+02  0.7546771E-02  0.1301857E+00
          1   -1    0    0  502    0 -0.00000000000E+00  0.00000000000E+00  0.34062671128E+03  0.34062671128E+03  0.00000000000E+00 0. -1.
         21   -1    0    0  501  502  0.00000000000E+00 -0.00000000000E+00 -0.12693788731E+03  0.12693788731E+03  0.00000000000E+00 0. -1.
        -24    2    1    2    0    0 -0.72092935042E+01 -0.86250855190E+01  0.26134589622E+03  0.27413164005E+03  0.81976292864E+02 0.  0.
         23    2    1    2    0    0 -0.47401413719E+02 -0.33584548190E+02 -0.55626554573E+00  0.10987179225E+03  0.93256020724E+02 0.  0.
         13    1    3    3    0    0 -0.38263544992E+02 -0.54860619653E+01  0.21373086895E+03  0.21719825067E+03  0.00000000000E+00 0. -1.
        -14    1    3    3    0    0  0.31054251488E+02 -0.31390235537E+01  0.47615027265E+02  0.56933389376E+02  0.00000000000E+00 0.  1.
        -11    1    4    4    0    0 -0.73534781333E+02 -0.34614942634E+02  0.95492980170E+01  0.81833656962E+02  0.00000000000E+00 0. -1.
         11    1    4    4    0    0  0.26133367613E+02  0.10303944433E+01 -0.10105563563E+02  0.28038135288E+02  0.00000000000E+00 0.  1.
          2    1    1    2  501    0  0.54610707223E+02  0.42209633709E+02 -0.47100806703E+02  0.83561166300E+02  0.00000000000E+00 0. -1.
<scales pt_clust_5="13000.00000" pt_clust_6="13000.00000" pt_clust_7="13000.00000" pt_clust_8="13000.00000" pt_clust_9="69.02161"></scales>
<clustering>
<clus scale="   69.022">  2  9  1 -1</clus>
<clus scale="   81.976">  5  6 -1 -1</clus>
<clus scale="   82.101">  1  5  2 -1</clus>
<clus scale="   93.256">  7  8 -1 -1</clus>
<clus scale="   69.022">  2  5  1 -1</clus>
</clustering>
</event>
<event>
 9    1  0.7586638E-005  0.1153187E+03  0.7546771E-02  0.1255250E+00
         21   -1    0    0  501  502  0.00000000000E+00  0.00000000000E+00  0.14181313222E+03  0.14181313222E+03  0.00000000000E+00 0.  1.
         -2   -1    0    0    0  501 -0.00000000000E+00 -0.00000000000E+00 -0.25537817100E+03  0.25537817100E+03  0.00000000000E+00 0.  1.
         23    2    1    2    0    0 -0.59122243352E+02  0.48286052176E+02 -0.19588653405E+03  0.22953837269E+03  0.92137656909E+02 0.  0.
        -24    2    1    2    0    0  0.63839139546E+01 -0.42107218250E+02  0.65433861526E+02  0.11193308174E+03  0.80210051536E+02 0.  0.
         11    1    4    4    0    0  0.17378473281E+02 -0.34034419740E+02 -0.64599982046E+01  0.38756736671E+02  0.00000000000E+00 0. -1.
        -12    1    4    4    0    0 -0.10994559327E+02 -0.80727985100E+01  0.71893859730E+02  0.73176345068E+02  0.00000000000E+00 0.  1.
        -11    1    3    3    0    0 -0.72266943590E+02  0.28227562341E+01 -0.11755729721E+03  0.13802245186E+03  0.00000000000E+00 0.  1.
         11    1    3    3    0    0  0.13144700238E+02  0.45463295942E+02 -0.78329236832E+02  0.91515920828E+02  0.00000000000E+00 0. -1.
         -1    1    1    2    0  502  0.52738329397E+02 -0.61788339268E+01  0.16887633742E+02  0.55719848795E+02  0.00000000000E+00 0.  1.
<scales pt_clust_5="13000.00000" pt_clust_6="13000.00000" pt_clust_7="13000.00000" pt_clust_8="13000.00000" pt_clust_9="53.09905"></scales>
<clustering>
<clus scale="   53.099">  1  9  2 -1</clus>
<clus scale="   80.210">  5  6 -1 -1</clus>
<clus scale="   92.138">  7  8 -1 -1</clus>
<clus scale="  106.032">  1  5  2 -1</clus>
<clus scale="   53.099">  1  5  2 -1</clus>
</clustering>
</event>
<event>
 9    1  0.7586638E-005  0.8511105E+02  0.7546771E-02  0.1321105E+00
          1   -1    0    0  502    0 -0.00000000000E+00  0.00000000000E+00  0.49986543836E+03  0.49986543836E+03  0.00000000000E+00 0. -1.
         21   -1    0    0  501  502  0.00000000000E+00 -0.00000000000E+00 -0.28044485363E+02  0.28044485363E+02  0.00000000000E+00 0. -1.
        -24    2    1    2    0    0  0.85021703221E+01  0.75869280180E+01  0.30424210719E+03  0.31367752045E+03  0.75501514352E+02 0.  0.
         23    2    1    2    0    0  0.22602660961E+02 -0.24790935344E+02  0.14823970814E+03  0.17376648375E+03  0.84227721373E+02 0.  0.
         11    1    3    3    0    0  0.11068512032E+02  0.21174581026E+02  0.26852433498E+02  0.35943400298E+02  0.00000000000E+00 0. -1.
        -12    1    3    3    0    0 -0.25663417094E+01 -0.13587653008E+02  0.27738967369E+03  0.27773412015E+03  0.00000000000E+00 0.  1.
        -11    1    4    4    0    0  0.46147023456E+02 -0.37662183154E+02  0.75061796745E+02  0.95824115672E+02  0.00000000000E+00 0. -1.
         11    1    4    4    0    0 -0.23544362495E+02  0.12871247810E+02  0.73177911397E+02  0.77942368080E+02  0.00000000000E+00 0.  1.
          2    1    1    2  501    0 -0.31104831283E+02  0.17204007326E+02  0.19339137662E+02  0.40465919521E+02  0.00000000000E+00 0. -1.
<scales pt_clust_5="13000.00000" pt_clust_6="13000.00000" pt_clust_7="13000.00000" pt_clust_8="13000.00000" pt_clust_9="35.54558"></scales>
<clustering>
<clus scale="   35.546">  2  9  1 -1</clus>
<clus scale="   75.502">  5  6 -1 -1</clus>
<clus scale="   76.486">  1  5  2 -1</clus>
<clus scale="   84.228">  7  8 -1 -1</clus>
<clus scale="   35.546">  2  5  1 -1</clus>
</clustering>
</event>
<event>
 9    1  0.7586638E-005  0.1207165E+03  0.7546771E-02  0.1255553E+00
          1   -1    0    0  502    0 -0.00000000000E+00  0.00000000000E+00  0.40792429481E+02  0.40792429481E+02  0.00000000000E+00 0. -1.
         21   -1    0    0  501  502  0.00000000000E+00 -0.00000000000E+00 -0.85773338415E+03  0.85773338415E+03  0.00000000000E+00 0. -1.
         23    2    1    2    0    0 -0.51094703056E+01  0.25915319933E+02 -0.79480786242E+02  0.12148857279E+03  0.88003224045E+02 0.  0.
        -24    2    1    2    0    0 -0.80962398129E+02  0.23085650145E+02 -0.57346341922E+03  0.58545332880E+03  0.82507271576E+02 0.  0.
         13    1    4    4    0    0 -0.76667820073E+02  0.45047098192E+02 -0.35997584612E+03  0.37079617781E+03  0.00000000000E+00 0. -1.
        -14    1    4    4    0    0 -0.42945780569E+01 -0.21961448047E+02 -0.21348757310E+03  0.21465715099E+03  0.00000000000E+00 0.  1.
        -11    1    3    3    0    0 -0.36271646589E+02  0.41750791569E+02 -0.37309870166E+02  0.66714221533E+02  0.00000000000E+00 0. -1.
         11    1    3    3    0    0  0.31162176283E+02 -0.15835471637E+02 -0.42170916076E+02  0.54774351255E+02  0.00000000000E+00 0.  1.
          2    1    1    2  501    0  0.86071868435E+02 -0.49000970077E+02 -0.16399674921E+03  0.19158391205E+03  0.00000000000E+00 0. -1.
<scales pt_clust_5="13000.00000" pt_clust_6="13000.00000" pt_clust_7="13000.00000" pt_clust_8="13000.00000" pt_clust_9="88.11947"></scales>
<clustering>
<clus scale="   82.507">  5  6 -1 -1</clus>
<clus scale="   88.003">  7  8 -1 -1</clus>
<clus scale="   91.882">  1  7  2 -1</clus>
<clus scale="   88.119">  2  9  1 -1</clus>
<clus scale="   88.119">  2  5  1 -1</clus>
</clustering>
</event>
<event>
 9    1  0.7586638E-005  0.1116744E+03  0.7546771E-02  0.1262595E+00
          1   -1    0    0  502    0 -0.00000000000E+00  0.00000000000E+00  0.49059811302E+03  0.49059811302E+03  0.00000000000E+00 0. -1.
         21   -1    0    0  501  502  0.00000000000E+00 -0.00000000000E+00 -0.10102904468E+03  0.10102904468E+03  0.00000000000E+00 0.  1.
        -24    2    1    2    0    0  0.46694479090E+02  0.47635994166E+02  0.40620998773E+03  0.41935635841E+03  0.80022739838E+02 0.  0.
         23    2    1    2    0    0 -0.45182223592E+02  0.36039367437E+01  0.24661458665E+02  0.10643992607E+03  0.93095910920E+02 0.  0.
         11    1    3    3    0    0  0.54421634248E+02 -0.11315804574E+01  0.23054952928E+03  0.23688832854E+03  0.00000000000E+00 0. -1.
        -12    1    3    3    0    0 -0.77271551579E+01  0.48767574623E+02  0.17566045845E+03  0.18246802987E+03  0.00000000000E+00 0.  1.
        -11    1    4    4    0    0 -0.37743139181E+02 -0.38679741401E+02  0.32114113921E+02  0.62864801463E+02  0.00000000000E+00 0.  1.
         11    1    4    4    0    0 -0.74390844111E+01  0.42283678145E+02 -0.74526552563E+01  0.43575124609E+02  0.00000000000E+00 0. -1.
          2    1    1    2  501    0 -0.15122554984E+01 -0.51239930909E+02 -0.41302378049E+02  0.65830873219E+02  0.00000000000E+00 0. -1.
<scales pt_clust_5="13000.00000" pt_clust_6="13000.00000" pt_clust_7="13000.00000" pt_clust_8="13000.00000" pt_clust_9="51.26224"></scales>
<clustering>
<clus scale="   51.262">  2  9  1 -1</clus>
<clus scale="   80.023">  5  6 -1 -1</clus>
<clus scale="   93.096">  7  8 -1 -1</clus>
<clus scale="  101.034">  1  5  2 -1</clus>
<clus scale="   51.262">  2  5  1 -1</clus>
</clustering>
</event>
<event>
 9    1  0.7586638E-005  0.2329406E+03  0.7546771E-02  0.1125015E+00
         21   -1    0    0  501  502  0.00000000000E+00  0.00000000000E+00  0.27433426113E+03  0.27433426113E+03  0.00000000000E+00 0.  1.
          1   -1    0    0  502    0 -0.00000000000E+00 -0.00000000000E+00 -0.21367758183E+03  0.21367758183E+03  0.00000000000E+00 0. -1.
        -24    2    1    2    0    0  0.21118234946E+03 -0.21004484659E+02  0.29789127784E+02  0.22963476376E+03  0.82495814995E+02 0.  0.
         23    2    1    2    0    0 -0.21483477228E+03  0.41015204005E+02  0.28710055943E+02  0.23792166749E+03  0.89141607619E+02 0.  0.
         13    1    3    3    0    0  0.18112574968E+03 -0.11710285033E+02 -0.64830336845E+01  0.18161965119E+03  0.00000000000E+00 0. -1.
        -14    1    3    3    0    0  0.30056599779E+02 -0.92941996265E+01  0.36272161468E+02  0.48015112564E+02  0.00000000000E+00 0.  1.
        -11    1    4    4    0    0 -0.81561697770E+02  0.60404090676E+02  0.11085495851E+02  0.10209727191E+03  0.00000000000E+00 0.  1.
         11    1    4    4    0    0 -0.13327307451E+03 -0.19388886672E+02  0.17624560092E+02  0.13582439558E+03  0.00000000000E+00 0. -1.
          2    1    1    2  501    0  0.36524228223E+01 -0.20010719345E+02  0.21574955693E+01  0.20455411712E+02  0.00000000000E+00 0. -1.
<scales pt_clust_5="13000.00000" pt_clust_6="13000.00000" pt_clust_7="13000.00000" pt_clust_8="13000.00000" pt_clust_9="20.34132"></scales>
<clustering>
<clus scale="   20.341">  1  9  2 -1</clus>
<clus scale="   82.496">  5  6 -1 -1</clus>
<clus scale="   89.142">  7  8 -1 -1</clus>
<clus scale="  230.479">  2  5  1 -1</clus>
<clus scale="   20.341">  1  5  2 -1</clus>
</clustering>
</event>
<event>
 9    1  0.7586638E-005  0.1747296E+03  0.7546771E-02  0.1188950E+00
         21   -1    0    0  501  502  0.00000000000E+00  0.00000000000E+00  0.63230287055E+02  0.63230287055E+02  0.00000000000E+00 0. -1.
          1   -1    0    0  502    0 -0.00000000000E+00 -0.00000000000E+00 -0.10343153843E+04  0.10343153843E+04  0.00000000000E+00 0. -1.
         23    2    1    2    0    0 -0.67886865800E+02 -0.38783881765E+02 -0.46826611991E+03  0.48393957317E+03  0.93869778908E+02 0.  0.
        -24    2    1    2    0    0 -0.11864391929E+03 -0.39509395443E+02 -0.19316636187E+03  0.24373001987E+03  0.80334969442E+02 0.  0.
         13    1    4    4    0    0 -0.36443803961E+02 -0.52591861033E+02 -0.10080528722E+03  0.11939749003E+03  0.00000000000E+00 0. -1.
        -14    1    4    4    0    0 -0.82200115330E+02  0.13082465590E+02 -0.92361074650E+02  0.12433252984E+03  0.00000000000E+00 0.  1.
        -11    1    3    3    0    0 -0.28178864391E+02  0.28035880152E+02 -0.10104488201E+03  0.10858235195E+03  0.00000000000E+00 0.  1.
         11    1    3    3    0    0 -0.39708001409E+02 -0.66819761917E+02 -0.36722123791E+03  0.37535722123E+03  0.00000000000E+00 0. -1.
          2    1    1    2  501    0  0.18653078509E+03  0.78293277208E+02 -0.30965261546E+03  0.36987607830E+03  0.00000000000E+00 0. -1.
<scales pt_clust_5="13000.00000" pt_clust_6="13000.00000" pt_clust_7="13000.00000" pt_clust_8="13000.00000" pt_clust_9="155.16685"></scales>
<clustering>
<clus scale="   80.335">  5  6 -1 -1</clus>
<clus scale="   93.870">  7  8 -1 -1</clus>
<clus scale="  122.165">  2  7  1 -1</clus>
<clus scale="  155.167">  1  9  2 -1</clus>
<clus scale="  155.167">  1  5  2 -1</clus>
</clustering>
</event>
<event>
 9    1  0.7586638E-005  0.1291385E+03  0.7546771E-02  0.1229853E+00
         21   -1    0    0  501  502  0.00000000000E+00  0.00000000000E+00  0.12672292453E+03  0.12672292453E+03  0.00000000000E+00 0. -1.
          1   -1    0    0  502    0 -0.00000000000E+00 -0.00000000000E+00 -0.29928903747E+03  0.29928903747E+03  0.00000000000E+00 0. -1.
        -24    2    1    2    0    0 -0.46870089779E+02 -0.89588918021E+02 -0.18280201376E+03  0.22427783049E+03  0.81614885074E+02 0.  0.
         23    2    1    2    0    0  0.92412748319E+02  0.36424733156E+02  0.52326782201E+01  0.13155153726E+03  0.86090352513E+02 0.  0.
         11    1    3    3    0    0  0.91169337684E+01 -0.61239501516E+02 -0.12244103910E+03  0.13720496742E+03  0.00000000000E+00 0. -1.
        -12    1    3    3    0    0 -0.55987023547E+02 -0.28349416505E+02 -0.60360974656E+02  0.87072863071E+02  0.00000000000E+00 0.  1.
        -11    1    4    4    0    0  0.29467673217E+02  0.57744967708E+02 -0.66483287106E+00  0.64832608024E+02  0.00000000000E+00 0.  1.
         11    1    4    4    0    0  0.62945075102E+02 -0.21320234551E+02  0.58975110911E+01  0.66718929233E+02  0.00000000000E+00 0. -1.
          2    1    1    2  501    0 -0.45542658540E+02  0.53164184865E+02  0.50032226013E+01  0.70182594250E+02  0.00000000000E+00 0. -1.
<scales pt_clust_5="13000.00000" pt_clust_6="13000.00000" pt_clust_7="13000.00000" pt_clust_8="13000.00000" pt_clust_9="70.00403"></scales>
<clustering>
<clus scale="   70.004">  1  9  2 -1</clus>
<clus scale="   81.615">  5  6 -1 -1</clus>
<clus scale="   86.090">  7  8 -1 -1</clus>
<clus scale="  126.199">  2  5  1 -1</clus>
<clus scale="   70.004">  1  5  2 -1</clus>
</clustering>
</event>
<event>
 9    1  0.1008325E-004  0.1031921E+03  0.7546771E-02  0.1280013E+00
         21   -1    0    0  501  502  0.00000000000E+00  0.00000000000E+00  0.80770245632E+02  0.80770245632E+02  0.00000000000E+00 0.  1.
          1   -1    0    0  502    0 -0.00000000000E+00 -0.00000000000E+00 -0.59496394210E+03  0.59496394210E+03  0.00000000000E+00 0. -1.
         23    2    1    2    0    0 -0.35502826074E+00  0.48572590798E+02 -0.42814473737E+03  0.44073081019E+03  0.92608359708E+02 0.  0.
        -24    2    1    2    0    0  0.12354532637E+02 -0.10585713406E+02  0.48673869557E+02  0.94514119878E+02  0.79366752949E+02 0.  0.
         13    1    4    4    0    0 -0.22229006347E+02  0.89267143025E+01 -0.80517305566E+01  0.25271432812E+02  0.00000000000E+00 0. -1.
        -14    1    4    4    0    0  0.34583538984E+02 -0.19512427709E+02  0.56725600114E+02  0.69242687065E+02  0.00000000000E+00 0.  1.
        -13    1    3    3    0    0 -0.82245166164E+00 -0.24254388517E+02 -0.49300957928E+02  0.54950307020E+02  0.00000000000E+00 0.  1.
         13    1    3    3    0    0  0.46742340090E+00  0.72826979314E+02 -0.37884377944E+03  0.38578050317E+03  0.00000000000E+00 0. -1.
          2    1    1    2  501    0 -0.11999504376E+02 -0.37986877391E+02 -0.13472282865E+03  0.14048925767E+03  0.00000000000E+00 0. -1.
<scales pt_clust_5="13000.00000" pt_clust_6="13000.00000" pt_clust_7="13000.00000" pt_clust_8="13000.00000" pt_clust_9="39.83708"></scales>
<clustering>
<clus scale="   39.837">  1  9  2 -1</clus>
<clus scale="   79.367">  5  6 -1 -1</clus>
<clus scale="   91.495">  1  5  2 -1</clus>
<clus scale="   92.608">  7  8 -1 -1</clus>
<clus scale="   39.837">  1  5  2 -1</clus>
</clustering>
</event>
<event>
 9    1  0.1334674E-004  0.1272798E+03  0.7546771E-02  0.1249339E+00
         21   -1    0    0  501  502  0.00000000000E+00  0.00000000000E+00  0.36052139397E+03  0.36052139397E+03  0.00000000000E+00 0. -1.
         -2   -1    0    0    0  501 -0.00000000000E+00 -0.00000000000E+00 -0.43842511664E+03  0.43842511664E+03  0.00000000000E+00 0.  1.
        -24    2    1    2    0    0  0.15629984823E+02 -0.33127190052E+02 -0.25473977931E+03  0.26974233551E+03  0.80789016918E+02 0.  0.
         23    2    1    2    0    0  0.44347831351E+02 -0.56814659220E+02  0.32342566717E+03  0.34706305235E+03  0.10321804334E+03 0.  0.
         13    1    3    3    0    0 -0.18537858857E+02 -0.40645788668E+02 -0.80880532350E+02  0.92398013294E+02  0.00000000000E+00 0. -1.
        -14    1    3    3    0    0  0.34167843680E+02  0.75185986162E+01 -0.17385924696E+03  0.17734432222E+03  0.00000000000E+00 0.  1.
        -13    1    4    4    0    0 -0.28619775411E+02 -0.24976513156E+02  0.53304374453E+02  0.65454366469E+02  0.00000000000E+00 0.  1.
         13    1    4    4    0    0  0.72967606762E+02 -0.31838146064E+02  0.27012129272E+03  0.28160868588E+03  0.00000000000E+00 0. -1.
         -1    1    1    2    0  502 -0.59977816174E+02  0.89941849272E+02 -0.14658961053E+03  0.18214112276E+03  0.00000000000E+00 0.  1.
<scales pt_clust_5="13000.00000" pt_clust_6="13000.00000" pt_clust_7="13000.00000" pt_clust_8="13000.00000" pt_clust_9="74.47271"></scales>
<clustering>
<clus scale="   80.789">  5  6 -1 -1</clus>
<clus scale="   88.705">  2  5  1 -1</clus>
<clus scale="   74.473">  1  9  2 -1</clus>
<clus scale="  103.218">  7  8 -1 -1</clus>
<clus scale="   74.473">  1  5  2 -1</clus>
</clustering>
</event>
<event>
 9    1  0.7586638E-005  0.1381579E+03  0.7546771E-02  0.1217895E+00
          1   -1    0    0  502    0 -0.00000000000E+00  0.00000000000E+00  0.30976957322E+03  0.30976957322E+03  0.00000000000E+00 0. -1.
         21   -1    0    0  501  502  0.00000000000E+00 -0.00000000000E+00 -0.27556095491E+03  0.27556095491E+03  0.00000000000E+00 0. -1.
         23    2    1    2    0    0  0.96449878090E+02 -0.58767008593E+02  0.26130616901E+03  0.29855230351E+03  0.89980129400E+02 0.  0.
        -24    2    1    2    0    0 -0.37261721996E+02  0.29491182901E+01 -0.15190271739E+03  0.17599403055E+03  0.80637026324E+02 0.  0.
         11    1    4    4    0    0  0.17439018449E+01  0.34149433935E+02 -0.35312408743E+02  0.49154768262E+02  0.00000000000E+00 0. -1.
        -12    1    4    4    0    0 -0.39005623841E+02 -0.31200315644E+02 -0.11659030865E+03  0.12683926229E+03  0.00000000000E+00 0.  1.
        -11    1    3    3    0    0  0.33695474688E+02 -0.25030806654E+02  0.19159149505E+02  0.46141080459E+02  0.00000000000E+00 0.  1.
         11    1    3    3    0    0  0.62754403402E+02 -0.33736201939E+02  0.24214701951E+03  0.25241122305E+03  0.00000000000E+00 0. -1.
          2    1    1    2  501    0 -0.59188156094E+02  0.55817890303E+02 -0.75194833307E+02  0.11078419407E+03  0.00000000000E+00 0. -1.
<scales pt_clust_5="13000.00000" pt_clust_6="13000.00000" pt_clust_7="13000.00000" pt_clust_8="13000.00000" pt_clust_9="81.35647"></scales>
<clustering>
<clus scale="   80.637">  5  6 -1 -1</clus>
<clus scale="   81.356">  2  9  1 -1</clus>
<clus scale="   89.980">  7  8 -1 -1</clus>
<clus scale="  132.263">  2  5  1 -1</clus>
<clus scale="   81.356">  2  5  1 -1</clus>
</clustering>
</event>
<event>
 9    1  0.7586638E-005  0.1099896E+03  0.7546771E-02  0.1265127E+00
          1   -1    0    0  502    0 -0.00000000000E+00  0.00000000000E+00  0.47736127685E+03  0.47736127685E+03  0.00000000000E+00 0. -1.
         21   -1    0    0  501  502  0.00000000000E+00 -0.00000000000E+00 -0.44772150198E+02  0.44772150198E+02  0.00000000000E+00 0. -1.
         23    2    1    2    0    0 -0.51896392120E+02 -0.46530547331E+02  0.27227882444E+03  0.29589745591E+03  0.92526854601E+02 0.  0.
        -24    2    1    2    0    0 -0.37533558925E+01  0.58784773006E+02  0.12016154297E+03  0.15652956276E+03  0.81197108268E+02 0.  0.
         11    1    4    4    0    0 -0.33331302206E+02  0.40700478226E+02  0.31466099878E+02  0.61299429655E+02  0.00000000000E+00 0. -1.
        -12    1    4    4    0    0  0.29577946314E+02  0.18084294781E+02  0.88695443093E+02  0.95230133106E+02  0.00000000000E+00 0.  1.
        -11    1    3    3    0    0 -0.17683439970E+01 -0.63040744620E+02  0.14854306128E+03  0.16137627948E+03  0.00000000000E+00 0. -1.
         11    1    3    3    0    0 -0.50128048123E+02  0.16510197290E+02  0.12373576316E+03  0.13452117643E+03  0.00000000000E+00 0.  1.
          2    1    1    2  501    0  0.55649748012E+02 -0.12254225676E+02  0.40148759238E+02  0.69706408379E+02  0.00000000000E+00 0. -1.
<scales pt_clust_5="13000.00000" pt_clust_6="13000.00000" pt_clust_7="13000.00000" pt_clust_8="13000.00000" pt_clust_9="56.98298"></scales>
<clustering>
<clus scale="   56.983">  2  9  1 -1</clus>
<clus scale="   81.197">  5  6 -1 -1</clus>
<clus scale="   92.527">  7  8 -1 -1</clus>
<clus scale="  100.645">  2  5  1 -1</clus>
<clus scale="   56.983">  2  5  1 -1</clus>
</clustering>
</event>
<event>
 9    1  0.7586638E-005  0.2329948E+03  0.7546771E-02  0.1124549E+00
         21   -1    0    0  501  502  0.00000000000E+00  0.00000000000E+00  0.11667222266E+03  0.11667222266E+03  0.00000000000E+00 0. -1.
         -2   -1    0    0    0  501 -0.00000000000E+00 -0.00000000000E+00 -0.30200646815E+03  0.30200646815E+03  0.00000000000E+00 0.  1.
        -24    2    1    2    0    0 -0.76129872964E+02 -0.67739521227E+02 -0.46756504261E+02  0.13876641737E+03  0.81765198006E+02 0.  0.
         23    2    1    2    0    0 -0.36599888218E+02 -0.17651968795E+02 -0.83325564212E+02  0.12808174722E+03  0.88377828105E+02 0.  0.
         13    1    3    3    0    0 -0.67962108390E+02 -0.84192985117E+02 -0.26454076531E+02  0.11138727524E+03  0.00000000000E+00 0. -1.
        -14    1    3    3    0    0 -0.81677645744E+01  0.16453463890E+02 -0.20302427730E+02  0.27379142131E+02  0.00000000000E+00 0.  1.
        -11    1    4    4    0    0  0.23923055280E+02 -0.25917939049E+02 -0.39163159040E+02  0.52704887482E+02  0.00000000000E+00 0. -1.
         11    1    4    4    0    0 -0.60522943498E+02  0.82659702538E+01 -0.44162405173E+02  0.75376859741E+02  0.00000000000E+00 0.  1.
         -1    1    1    2    0  502  0.11272976118E+03  0.85391490022E+02 -0.55252177019E+02  0.15183052621E+03  0.00000000000E+00 0.  1.
<scales pt_clust_5="13000.00000" pt_clust_6="13000.00000" pt_clust_7="13000.00000" pt_clust_8="13000.00000" pt_clust_9="141.42032"></scales>
<clustering>
<clus scale="   81.765">  5  6 -1 -1</clus>
<clus scale="   88.378">  7  8 -1 -1</clus>
<clus scale="   95.734">  5  7 -1 -1</clus>
<clus scale="  141.420">  1  9  2 -1</clus>
<clus scale="  141.420">  1  5  2 -1</clus>
</clustering>
</event>
<event>
 9    1  0.7586638E-005  0.1238570E+03  0.7546771E-02  0.1251767E+00
          1   -1    0    0  502    0 -0.00000000000E+00  0.00000000000E+00  0.23022598111E+03  0.23022598111E+03  0.00000000000E+00 0. -1.
         21   -1    0    0  501  502  0.00000000000E+00 -0.00000000000E+00 -0.13193863152E+03  0.13193863152E+03  0.00000000000E+00 0. -1.
         23    2    1    2    0    0 -0.87290537765E+01  0.65241489544E+01  0.29825172941E+01  0.91760353345E+02  0.91062100444E+02 0.  0.
        -24    2    1    2    0    0 -0.64274590296E+02 -0.67933479234E+02 -0.15151236302E+02  0.12445501816E+03  0.80705086744E+02 0.  0.
         11    1    4    4    0    0 -0.22511051681E+02  0.56436521940E+01 -0.30648322843E+02  0.38443698456E+02  0.00000000000E+00 0. -1.
        -12    1    4    4    0    0 -0.41763538615E+02 -0.73577131428E+02  0.15497086541E+02  0.86011319709E+02  0.00000000000E+00 0.  1.
        -11    1    3    3    0    0  0.87043674953E+01 -0.38873125732E+02 -0.10690220061E+02  0.41245202420E+02  0.00000000000E+00 0.  1.
         11    1    3    3    0    0 -0.17433421272E+02  0.45397274687E+02  0.13672737355E+02  0.50515150925E+02  0.00000000000E+00 0. -1.
          2    1    1    2  501    0  0.73003644072E+02  0.61409330280E+02  0.11045606860E+03  0.14594924112E+03  0.00000000000E+00 0. -1.
<scales pt_clust_5="13000.00000" pt_clust_6="13000.00000" pt_clust_7="13000.00000" pt_clust_8="13000.00000" pt_clust_9="93.95341"></scales>
<clustering>
<clus scale="   80.705">  5  6 -1 -1</clus>
<clus scale="   91.062">  7  8 -1 -1</clus>
<clus scale="   91.712">  1  7  2 -1</clus>
<clus scale="   93.953">  2  9  1 -1</clus>
<clus scale="   93.953">  2  5  1 -1</clus>
</clustering>
</event>
<event>
 9    1  0.7586638E-005  0.1135097E+03  0.7546771E-02  0.1258349E+00
          1   -1    0    0  502    0 -0.00000000000E+00  0.00000000000E+00  0.40878720478E+03  0.40878720478E+03  0.00000000000E+00 0. -1.
         21   -1    0    0  501  502  0.00000000000E+00 -0.00000000000E+00 -0.81686201888E+02  0.81686201888E+02  0.00000000000E+00 0. -1.
         23    2    1    2    0    0  0.30689138107E+02  0.44997517439E+02  0.89804590857E+02  0.13976040775E+03  0.92203618481E+02 0.  0.
        -24    2    1    2    0    0 -0.29857344273E+02 -0.88934014457E+02  0.15820561402E+02  0.12491959764E+03  0.80956134887E+02 0.  0.
         13    1    4    4    0    0 -0.41968731984E+01 -0.89744405354E+02  0.31064821748E+02  0.95061533689E+02  0.00000000000E+00 0. -1.
        -14    1    4    4    0    0 -0.25660471074E+02  0.81039089755E+00 -0.15244260345E+02  0.29858063947E+02  0.00000000000E+00 0.  1.
        -11    1    3    3    0    0  0.39051603890E+02 -0.13524121240E+02  0.61804051504E+02  0.74348304648E+02  0.00000000000E+00 0.  1.
         11    1    3    3    0    0 -0.83624657835E+01  0.58521638679E+02  0.28000539353E+02  0.65412103098E+02  0.00000000000E+00 0. -1.
          2    1    1    2  501    0 -0.83179383385E+00  0.43936497018E+02  0.22147585063E+03  0.22579340128E+03  0.00000000000E+00 0. -1.
<scales pt_clust_5="13000.00000" pt_clust_6="13000.00000" pt_clust_7="13000.00000" pt_clust_8="13000.00000" pt_clust_9="43.94439"></scales>
<clustering>
<clus scale="   43.944">  2  9  1 -1</clus>
<clus scale="   80.956">  5  6 -1 -1</clus>
<clus scale="   92.204">  7  8 -1 -1</clus>
<clus scale="  104.579">  2  5  1 -1</clus>
<clus scale="   43.944">  2  5  1 -1</clus>
</clustering>
</event>
<event>
 9    1  0.7586638E-005  0.1263795E+03  0.7546771E-02  0.1235619E+00
          3   -1    0    0  502    0 -0.00000000000E+00  0.00000000000E+00  0.77725999713E+02  0.77725999713E+02  0.00000000000E+00 0. -1.
         21   -1    0    0  501  502  0.00000000000E+00 -0.00000000000E+00 -0.41415871207E+03  0.41415871207E+03  0.00000000000E+00 0. -1.
        -24    2    1    2    0    0  0.59472378716E+02  0.22837976002E+02 -0.62113498107E+02  0.12009459034E+03  0.80660318639E+02 0.  0.
         23    2    1    2    0    0 -0.13901718107E+03 -0.25414654350E+02 -0.15529513710E+03  0.22860930641E+03  0.90409922476E+02 0.  0.
         11    1    3    3    0    0  0.26981185838E+01  0.27455369864E+02  0.89651324307E+01  0.29007770990E+02  0.00000000000E+00 0. -1.
        -12    1    3    3    0    0  0.56774260132E+02 -0.46173938620E+01 -0.71078630538E+02  0.91086819347E+02  0.00000000000E+00 0.  1.
        -11    1    4    4    0    0 -0.88365971167E+02 -0.25338151990E+02 -0.15227080440E+03  0.17786782924E+03  0.00000000000E+00 0. -1.
         11    1    4    4    0    0 -0.50651209903E+02 -0.76502360352E-01 -0.30243327041E+01  0.50741477172E+02  0.00000000000E+00 0.  1.
          4    1    1    2  501    0  0.79544802354E+02  0.25766783479E+01 -0.11902407715E+03  0.14318081503E+03  0.00000000000E+00 0. -1.
<scales pt_clust_5="13000.00000" pt_clust_6="13000.00000" pt_clust_7="13000.00000" pt_clust_8="13000.00000" pt_clust_9="79.58652"></scales>
<clustering>
<clus scale="   79.587">  2  9  1 -1</clus>
<clus scale="   80.660">  5  6 -1 -1</clus>
<clus scale="   90.410">  7  8 -1 -1</clus>
<clus scale="  119.599">  1  5  2 -1</clus>
<clus scale="   79.587">  2  5  1 -1</clus>
</clustering>
</event>
<event>
 9    1  0.7586638E-005  0.2044692E+03  0.7546771E-02  0.1146782E+00
          1   -1    0    0  502    0 -0.00000000000E+00  0.00000000000E+00  0.14718008707E+04  0.14718008707E+04  0.00000000000E+00 0. -1.
         21   -1    0    0  501  502  0.00000000000E+00 -0.00000000000E+00 -0.45197448368E+02  0.45197448368E+02  0.00000000000E+00 0. -1.
         23    2    1    2    0    0  0.97889765780E+02 -0.17934985349E+03  0.10123725778E+04  0.10367578026E+04  0.90662720093E+02 0.  0.
        -24    2    1    2    0    0 -0.10121252906E+03  0.11098994383E+03  0.32967509259E+03  0.37145727697E+03  0.82049364810E+02 0.  0.
         13    1    4    4    0    0 -0.10860010778E+03  0.11824743946E+03  0.30445353136E+03  0.34419237805E+03  0.00000000000E+00 0. -1.
        -14    1    4    4    0    0  0.73875787153E+01 -0.72574956315E+01  0.25221561232E+02  0.27264898920E+02  0.00000000000E+00 0.  1.
        -13    1    3    3    0    0  0.59459245290E+02 -0.17158042443E+03  0.88700502593E+03  0.90540220893E+03  0.00000000000E+00 0. -1.
         13    1    3    3    0    0  0.38430520490E+02 -0.77694290661E+01  0.12536755188E+03  0.13135559371E+03  0.00000000000E+00 0.  1.
          2    1    1    2  501    0  0.33227632802E+01  0.68359909664E+02  0.84555751912E+02  0.10878323946E+03  0.00000000000E+00 0. -1.
<scales pt_clust_5="13000.00000" pt_clust_6="13000.00000" pt_clust_7="13000.00000" pt_clust_8="13000.00000" pt_clust_9="68.44062"></scales>
<clustering>
<clus scale="   68.441">  2  9  1 -1</clus>
<clus scale="   82.049">  5  6 -1 -1</clus>
<clus scale="   90.663">  7  8 -1 -1</clus>
<clus scale="  200.798">  2  5  1 -1</clus>
<clus scale="   68.441">  2  5  1 -1</clus>
</clustering>
</event>
<event>
 9    1  0.7586638E-005  0.1103478E+03  0.7546771E-02  0.1263064E+00
         21   -1    0    0  501  502  0.00000000000E+00  0.00000000000E+00  0.65424144583E+02  0.65424144583E+02  0.00000000000E+00 0.  1.
          1   -1    0    0  502    0 -0.00000000000E+00 -0.00000000000E+00 -0.32025248810E+03  0.32025248810E+03  0.00000000000E+00 0. -1.
         23    2    1    2    0    0 -0.50239908068E+02  0.62716978226E+02 -0.97485163077E+02  0.15506720020E+03  0.89916693879E+02 0.  0.
        -24    2    1    2    0    0  0.42824132001E+02 -0.21593239762E+02 -0.34456120069E+02  0.10081195482E+03  0.81704661677E+02 0.  0.
         13    1    4    4    0    0  0.16103577563E+02  0.25830376593E+02 -0.34988594021E+02  0.46376020494E+02  0.00000000000E+00 0. -1.
        -14    1    4    4    0    0  0.26720554438E+02 -0.47423616355E+02  0.53247395160E+00  0.54435934328E+02  0.00000000000E+00 0.  1.
        -11    1    3    3    0    0 -0.45835643590E+01  0.63701390336E+02 -0.23360425619E+02  0.68004306320E+02  0.00000000000E+00 0.  1.
         11    1    3    3    0    0 -0.45656343709E+02 -0.98441210979E+00 -0.74124737458E+02  0.87062893883E+02  0.00000000000E+00 0. -1.
          2    1    1    2  501    0  0.74157760668E+01 -0.41123738464E+02 -0.12288706037E+03  0.12979747766E+03  0.00000000000E+00 0. -1.
<scales pt_clust_5="13000.00000" pt_clust_6="13000.00000" pt_clust_7="13000.00000" pt_clust_8="13000.00000" pt_clust_9="41.78705"></scales>
<clustering>
<clus scale="   41.787">  1  9  2 -1</clus>
<clus scale="   81.705">  5  6 -1 -1</clus>
<clus scale="   89.917">  7  8 -1 -1</clus>
<clus scale="  103.765">  1  5  2 -1</clus>
<clus scale="   41.787">  1  5  2 -1</clus>
</clustering>
</event>
<event>
 9    1  0.7586638E-005  0.1007006E+03  0.7546771E-02  0.1281566E+00
         -2   -1    0    0    0  501 -0.00000000000E+00  0.00000000000E+00  0.51626928458E+02  0.51626928458E+02  0.00000000000E+00 0.  1.
         21   -1    0    0  501  502  0.00000000000E+00 -0.00000000000E+00 -0.47686421686E+03  0.47686421686E+03  0.00000000000E+00 0.  1.
        -24    2    1    2    0    0  0.61859507372E+02  0.48129783694E+01 -0.49687474988E+02  0.11386551409E+03  0.81527582539E+02 0.  0.
         23    2    1    2    0    0 -0.34414372551E+01 -0.50413153564E+02 -0.23335062780E+03  0.25427396992E+03  0.87460886937E+02 0.  0.
         13    1    3    3    0    0  0.34973373326E+02 -0.35572668950E+02 -0.41011211734E+02  0.64579184772E+02  0.00000000000E+00 0. -1.
        -14    1    3    3    0    0  0.26886134047E+02  0.40385647319E+02 -0.86762632540E+01  0.49286329316E+02  0.00000000000E+00 0.  1.
        -13    1    4    4    0    0 -0.40351384943E+02 -0.24005363365E+01 -0.90619748672E+02  0.99226688400E+02  0.00000000000E+00 0. -1.
         13    1    4    4    0    0  0.36909947688E+02 -0.48012617227E+02 -0.14273087912E+03  0.15504728152E+03  0.00000000000E+00 0.  1.
         -1    1    1    2    0  502 -0.58418070117E+02  0.45600175194E+02 -0.14219918562E+03  0.16035166131E+03  0.00000000000E+00 0.  1.
<scales pt_clust_5="13000.00000" pt_clust_6="13000.00000" pt_clust_7="13000.00000" pt_clust_8="13000.00000" pt_clust_9="74.10835"></scales>
<clustering>
<clus scale="   74.108">  2  9  1 -1</clus>
<clus scale="   81.528">  5  6 -1 -1</clus>
<clus scale="   87.461">  7  8 -1 -1</clus>
<clus scale="   95.593">  1  5  2 -1</clus>
<clus scale="   74.108">  2  5  1 -1</clus>
</clustering>
</event>
<event>
 9    1  0.7586638E-005  0.9083579E+02  0.7546771E-02  0.1308525E+00
         21   -1    0    0  501  502  0.00000000000E+00  0.00000000000E+00  0.37864046017E+02  0.37864046017E+02  0.00000000000E+00 0. -1.
         -2   -1    0    0    0  501 -0.00000000000E+00 -0.00000000000E+00 -0.37308200548E+03  0.37308200548E+03  0.00000000000E+00 0.  1.
        -24    2    1    2    0    0  0.23955070511E+02 -0.10073963812E+02 -0.16453700736E+03  0.18310847638E+03  0.76032606025E+02 0.  0.
         23    2    1    2    0    0 -0.11798214529E+02 -0.40879711791E+02 -0.11980335806E+03  0.15481295064E+03  0.88339438427E+02 0.  0.
         11    1    3    3    0    0  0.86199803583E+01 -0.42501610883E+02 -0.10495834881E+03  0.11356472152E+03  0.00000000000E+00 0. -1.
        -12    1    3    3    0    0  0.15335090153E+02  0.32427647071E+02 -0.59578658555E+02  0.69543754858E+02  0.00000000000E+00 0.  1.
        -11    1    4    4    0    0 -0.36583336114E+02 -0.28762559161E+02 -0.11836776939E+03  0.12718708315E+03  0.00000000000E+00 0.  1.
         11    1    4    4    0    0  0.24785121586E+02 -0.12117152630E+02 -0.14355886758E+01  0.27625867493E+02  0.00000000000E+00 0. -1.
         -1    1    1    2    0  502 -0.12156855983E+02  0.50953675602E+02 -0.50877594034E+02  0.73024624474E+02  0.00000000000E+00 0.  1.
<scales pt_clust_5="13000.00000" pt_clust_6="13000.00000" pt_clust_7="13000.00000" pt_clust_8="13000.00000" pt_clust_9="52.38384"></scales>
<clustering>
<clus scale="   52.384">  1  9  2 -1</clus>
<clus scale="   76.033">  5  6 -1 -1</clus>
<clus scale="   78.919">  2  5  1 -1</clus>
<clus scale="   88.339">  7  8 -1 -1</clus>
<clus scale="   52.384">  1  5  2 -1</clus>
</clustering>
</event>
<event>
 9    1  0.7586638E-005  0.1093924E+03  0.7546771E-02  0.1265026E+00
          1   -1    0    0  502    0 -0.00000000000E+00  0.00000000000E+00  0.10343812043E+03  0.10343812043E+03  0.00000000000E+00 0. -1.
         21   -1    0    0  501  502  0.00000000000E+00 -0.00000000000E+00 -0.36552352884E+03  0.36552352884E+03  0.00000000000E+00 0. -1.
        -24    2    1    2    0    0  0.23892081968E+02  0.18977640210E+02 -0.26415286087E+02  0.90514030856E+02  0.81018763469E+02 0.  0.
         23    2    1    2    0    0 -0.52999324227E+02 -0.91218403008E+02 -0.89061867950E+01  0.13868139516E+03  0.89573901248E+02 0.  0.
         11    1    3    3    0    0  0.20088923855E+02 -0.16680412332E+02 -0.43544087331E+02  0.50772911663E+02  0.00000000000E+00 0. -1.
        -12    1    3    3    0    0  0.38031581129E+01  0.35658052542E+02  0.17128801244E+02  0.39741119194E+02  0.00000000000E+00 0.  1.
        -11    1    4    4    0    0 -0.23301614401E+02 -0.59281049839E+02 -0.48279666350E+02  0.79925804886E+02  0.00000000000E+00 0.  1.
         11    1    4    4    0    0 -0.29697709826E+02 -0.31937353168E+02  0.39373479555E+02  0.58755590275E+02  0.00000000000E+00 0. -1.
          2    1    1    2  501    0  0.29107242259E+02  0.72240762797E+02 -0.22676393552E+03  0.23976622326E+03  0.00000000000E+00 0. -1.
<scales pt_clust_5="13000.00000" pt_clust_6="13000.00000" pt_clust_7="13000.00000" pt_clust_8="13000.00000" pt_clust_9="77.88427"></scales>
<clustering>
<clus scale="   77.884">  2  9  1 -1</clus>
<clus scale="   81.019">  5  6 -1 -1</clus>
<clus scale="   89.574">  7  8 -1 -1</clus>
<clus scale="  102.505">  1  5  2 -1</clus>
<clus scale="   77.884">  2  5  1 -1</clus>
</clustering>
</event>
<event>
 9    1  0.7586638E-005  0.9554723E+02  0.7546771E-02  0.1293972E+00
          1   -1    0    0  502    0 -0.00000000000E+00  0.00000000000E+00  0.13831936351E+03  0.13831936351E+03  0.00000000000E+00 0. -1.
         21   -1    0    0  501  502  0.00000000000E+00 -0.00000000000E+00 -0.11148488368E+03  0.11148488368E+03  0.00000000000E+00 0.  1.
         23    2    1    2    0    0  0.24427781855E+02 -0.24506094785E+02  0.58234958536E+02  0.11363319228E+03  0.91235556581E+02 0.  0.
        -24    2    1    2    0    0  0.14894365214E+02  0.29801491438E+02 -0.94523504882E+01  0.90827998025E+02  0.83966703451E+02 0.  0.
         11    1    4    4    0    0  0.48213564962E+02  0.24979801232E+02  0.42797497008E+01  0.54468840390E+02  0.00000000000E+00 0. -1.
        -12    1    4    4    0    0 -0.33319199748E+02  0.48216902058E+01 -0.13732100189E+02  0.36359157635E+02  0.00000000000E+00 0.  1.
        -11    1    3    3    0    0 -0.22056041221E+02 -0.42317667753E+02  0.26254391780E+02  0.54466017351E+02  0.00000000000E+00 0.  1.
         11    1    3    3    0    0  0.46483823075E+02  0.17811572968E+02  0.31980566755E+02  0.59167174931E+02  0.00000000000E+00 0. -1.
          2    1    1    2  501    0 -0.39322147069E+02 -0.52953966532E+01 -0.21948128215E+02  0.45343056888E+02  0.00000000000E+00 0. -1.
<scales pt_clust_5="13000.00000" pt_clust_6="13000.00000" pt_clust_7="13000.00000" pt_clust_8="13000.00000" pt_clust_9="39.67710"></scales>
<clustering>
<clus scale="   39.677">  2  9  1 -1</clus>
<clus scale="   83.967">  5  6 -1 -1</clus>
<clus scale="   88.633">  2  5  1 -1</clus>
<clus scale="   91.236">  7  8 -1 -1</clus>
<clus scale="   39.677">  2  5  1 -1</clus>
</clustering>
</event>
<event>
 9    1  0.7586638E-005  0.1007178E+03  0.7546771E-02  0.1284075E+00
         21   -1    0    0  501  502  0.00000000000E+00  0.00000000000E+00  0.11242212641E+03  0.11242212641E+03  0.00000000000E+00 0.  1.
         -2   -1    0    0    0  501 -0.00000000000E+00 -0.00000000000E+00 -0.25702092176E+03  0.25702092176E+03  0.00000000000E+00 0.  1.
        -24    2    1    2    0    0 -0.23970906184E+02  0.48528836880E+02 -0.11219067162E+03  0.14729127788E+03  0.78602298876E+02 0.  0.
         23    2    1    2    0    0  0.66078106300E+02  0.18741329641E+02 -0.71576039639E+02  0.13365082542E+03  0.89564837500E+02 0.  0.
         13    1    3    3    0    0 -0.39850335917E+02  0.30958695716E+02 -0.23819852412E+02  0.55802110014E+02  0.00000000000E+00 0. -1.
        -14    1    3    3    0    0  0.15879429732E+02  0.17570141164E+02 -0.88370819210E+02  0.91489167867E+02  0.00000000000E+00 0.  1.
        -13    1    4    4    0    0  0.68223023068E+02 -0.24681312494E+01 -0.84569661940E+02  0.10868532683E+03  0.00000000000E+00 0. -1.
         13    1    4    4    0    0 -0.21449167673E+01  0.21209460890E+02  0.12993622301E+02  0.24965498587E+02  0.00000000000E+00 0.  1.
         -1    1    1    2    0  502 -0.42107200116E+02 -0.67270166521E+02  0.39167915917E+02  0.88500944869E+02  0.00000000000E+00 0.  1.
<scales pt_clust_5="13000.00000" pt_clust_6="13000.00000" pt_clust_7="13000.00000" pt_clust_8="13000.00000" pt_clust_9="79.36178"></scales>
<clustering>
<clus scale="   78.602">  5  6 -1 -1</clus>
<clus scale="   79.362">  1  9  2 -1</clus>
<clus scale="   89.565">  7  8 -1 -1</clus>
<clus scale="   91.107">  2  5  1 -1</clus>
<clus scale="   79.362">  1  5  2 -1</clus>
</clustering>
</event>
<event>
 9    1  0.7586638E-005  0.2392625E+03  0.7546771E-02  0.1163364E+00
         21   -1    0    0  501  502  0.00000000000E+00  0.00000000000E+00  0.10168301123E+03  0.10168301123E+03  0.00000000000E+00 0. -1.
          1   -1    0    0  502    0 -0.00000000000E+00 -0.00000000000E+00 -0.95074839793E+03  0.95074839793E+03  0.00000000000E+00 0. -1.
        -24    2    1    2    0    0 -0.19786196011E+02 -0.17099328763E+02 -0.72933831819E+02  0.11192556579E+03  0.80771949695E+02 0.  0.
         23    2    1    2    0    0  0.22006836314E+03  0.92613598778E+02 -0.63274856967E+03  0.68287426166E+03  0.94547034248E+02 0.  0.
         11    1    3    3    0    0  0.22732684423E+02 -0.25968284573E+01  0.36186152415E+01  0.23164905253E+02  0.00000000000E+00 0. -1.
        -12    1    3    3    0    0 -0.42518880434E+02 -0.14502500305E+02 -0.76552447060E+02  0.88760660539E+02  0.00000000000E+00 0.  1.
        -13    1    4    4    0    0  0.95915496017E+02  0.59979125572E+02 -0.18280455223E+03  0.21497623635E+03  0.00000000000E+00 0. -1.
         13    1    4    4    0    0  0.12415286712E+03  0.32634473206E+02 -0.44994401744E+03  0.46789802531E+03  0.00000000000E+00 0.  1.
          2    1    1    2  501    0 -0.20028216713E+03 -0.75514270016E+02 -0.14338298521E+03  0.25763158171E+03  0.00000000000E+00 0. -1.
<scales pt_clust_5="13000.00000" pt_clust_6="13000.00000" pt_clust_7="13000.00000" pt_clust_8="13000.00000" pt_clust_9="219.78949"></scales>
<clustering>
<clus scale="   80.772">  5  6 -1 -1</clus>
<clus scale="   84.900">  2  5  1 -1</clus>
<clus scale="   94.547">  7  8 -1 -1</clus>
<clus scale="  219.789">  1  9  2 -1</clus>
<clus scale="  219.789">  1  5  2 -1</clus>
</clustering>
</event>
<event>
 9    1  0.7586638E-005  0.1546800E+03  0.7546771E-02  0.1196080E+00
         -2   -1    0    0    0  501 -0.00000000000E+00  0.00000000000E+00  0.23266462777E+03  0.23266462777E+03  0.00000000000E+00 0.  1.
         21   -1    0    0  501  502  0.00000000000E+00 -0.00000000000E+00 -0.30515129349E+03  0.30515129349E+03  0.00000000000E+00 0. -1.
        -24    2    1    2    0    0  0.11833298911E+03  0.49341564299E+02  0.16714947231E+03  0.22643013659E+03  0.83032369485E+02 0.  0.
         23    2    1    2    0    0 -0.10899036980E+03 -0.66815841245E+01 -0.22386840211E+03  0.26495540734E+03  0.90336936739E+02 0.  0.
         11    1    3    3    0    0  0.42890466486E+02  0.16973583092E+01  0.75517642077E+01  0.43583279859E+02  0.00000000000E+00 0. -1.
        -12    1    3    3    0    0  0.75442522628E+02  0.47644205990E+02  0.15959770810E+03  0.18284685673E+03  0.00000000000E+00 0.  1.
        -11    1    4    4    0    0 -0.66881921137E+01 -0.33517970209E+02 -0.38054828987E+02  0.51150329910E+02  0.00000000000E+00 0.  1.
         11    1    4    4    0    0 -0.10230217769E+03  0.26836386085E+02 -0.18581357312E+03  0.21380507743E+03  0.00000000000E+00 0. -1.
         -1    1    1    2    0  502 -0.93426193125E+01 -0.42659980174E+02 -0.15767735916E+02  0.46430377341E+02  0.00000000000E+00 0.  1.
<scales pt_clust_5="13000.00000" pt_clust_6="13000.00000" pt_clust_7="13000.00000" pt_clust_8="13000.00000" pt_clust_9="43.67103"></scales>
<clustering>
<clus scale="   43.671">  2  9  1 -1</clus>
<clus scale="   83.032">  5  6 -1 -1</clus>
<clus scale="   90.337">  7  8 -1 -1</clus>
<clus scale="  150.531">  1  5  2 -1</clus>
<clus scale="   43.671">  2  5  1 -1</clus>
</clustering>
</event>
<event>
 9    1  0.7586638E-005  0.1135095E+03  0.7546771E-02  0.1258933E+00
         21   -1    0    0  501  502  0.00000000000E+00  0.00000000000E+00  0.59922220935E+02  0.59922220935E+02  0.00000000000E+00 0. -1.
          1   -1    0    0  502    0 -0.00000000000E+00 -0.00000000000E+00 -0.77718213258E+03  0.77718213258E+03  0.00000000000E+00 0. -1.
         23    2    1    2    0    0 -0.46358624091E+02  0.17399329082E+01 -0.42521371913E+03  0.43788290214E+03  0.93715418479E+02 0.  0.
        -24    2    1    2    0    0  0.98058756418E+02 -0.16421622753E+02 -0.31548284103E+03  0.34058927426E+03  0.81156893462E+02 0.  0.
         11    1    4    4    0    0  0.77797239554E+02 -0.18216936714E+02 -0.30911529302E+03  0.31927500943E+03  0.00000000000E+00 0. -1.
        -12    1    4    4    0    0  0.20261516864E+02  0.17953139612E+01 -0.63675480053E+01  0.21314264835E+02  0.00000000000E+00 0.  1.
        -11    1    3    3    0    0 -0.65487099471E+02 -0.26260567400E+02 -0.29611694764E+03  0.30440667581E+03  0.00000000000E+00 0.  1.
         11    1    3    3    0    0  0.19128475380E+02  0.28000500308E+02 -0.12909677149E+03  0.13347622634E+03  0.00000000000E+00 0. -1.
          2    1    1    2  501    0 -0.51700132327E+02  0.14681689844E+02  0.23436648509E+02  0.58632177110E+02  0.00000000000E+00 0. -1.
<scales pt_clust_5="13000.00000" pt_clust_6="13000.00000" pt_clust_7="13000.00000" pt_clust_8="13000.00000" pt_clust_9="53.74436"></scales>
<clustering>
<clus scale="   53.744">  1  9  2 -1</clus>
<clus scale="   81.157">  5  6 -1 -1</clus>
<clus scale="   93.715">  7  8 -1 -1</clus>
<clus scale="  103.384">  1  5  2 -1</clus>
<clus scale="   53.744">  1  5  2 -1</clus>
</clustering>
</event>
<event>
 9    1  0.7586638E-005  0.1081304E+03  0.7546771E-02  0.1267197E+00
         21   -1    0    0  501  502  0.00000000000E+00  0.00000000000E+00  0.40761464316E+02  0.40761464316E+02  0.00000000000E+00 0. -1.
          1   -1    0    0  502    0 -0.00000000000E+00 -0.00000000000E+00 -0.52928986483E+03  0.52928986483E+03  0.00000000000E+00 0. -1.
        -24    2    1    2    0    0 -0.61698298168E+02  0.13200691856E+02 -0.28718144729E+03  0.30548830074E+03  0.82879309589E+02 0.  0.
         23    2    1    2    0    0  0.39025338364E+02 -0.30865782271E+02 -0.58335540578E+02  0.11869191176E+03  0.90603868971E+02 0.  0.
         13    1    3    3    0    0 -0.64383667768E+02  0.29169950364E+02 -0.13442275248E+03  0.15187369445E+03  0.00000000000E+00 0. -1.
        -14    1    3    3    0    0  0.26853696001E+01 -0.15969258508E+02 -0.15275869481E+03  0.15361460629E+03  0.00000000000E+00 0.  1.
        -13    1    4    4    0    0  0.44469498932E+02 -0.59375760484E+02 -0.38925580997E+02  0.83774806023E+02  0.00000000000E+00 0. -1.
         13    1    4    4    0    0 -0.54441605676E+01  0.28509978212E+02 -0.19409959581E+02  0.34917105735E+02  0.00000000000E+00 0.  1.
          2    1    1    2  501    0  0.22672959804E+02  0.17665090415E+02 -0.14301141264E+03  0.14587111665E+03  0.00000000000E+00 0. -1.
<scales pt_clust_5="13000.00000" pt_clust_6="13000.00000" pt_clust_7="13000.00000" pt_clust_8="13000.00000" pt_clust_9="28.74229"></scales>
<clustering>
<clus scale="   28.742">  1  9  2 -1</clus>
<clus scale="   82.879">  5  6 -1 -1</clus>
<clus scale="   90.604">  7  8 -1 -1</clus>
<clus scale="  101.745">  2  5  1 -1</clus>
<clus scale="   28.742">  1  5  2 -1</clus>
</clustering>
</event>
<event>
 9    1  0.7586638E-005  0.9354282E+02  0.7546771E-02  0.1298978E+00
          1   -1    0    0  502    0 -0.00000000000E+00  0.00000000000E+00  0.18848713266E+03  0.18848713266E+03  0.00000000000E+00 0. -1.
         21   -1    0    0  501  502  0.00000000000E+00 -0.00000000000E+00 -0.25815229387E+03  0.25815229387E+03  0.00000000000E+00 0. -1.
         23    2    1    2    0    0  0.86173059967E+01 -0.28472926012E+02  0.14533037038E+03  0.17235421628E+03  0.87750178557E+02 0.  0.
        -24    2    1    2    0    0  0.14050252067E+02  0.53644827068E+02 -0.56839600121E+02  0.11254238521E+03  0.79748801070E+02 0.  0.
         13    1    4    4    0    0  0.28509447046E+02  0.69662036839E+01  0.88650989917E+01  0.30657895309E+02  0.00000000000E+00 0. -1.
        -14    1    4    4    0    0 -0.14459194979E+02  0.46678623384E+02 -0.65704699113E+02  0.81884489899E+02  0.00000000000E+00 0.  1.
        -11    1    3    3    0    0 -0.39666273015E+02 -0.96309356981E+01  0.65090194472E+02  0.76830342663E+02  0.00000000000E+00 0.  1.
         11    1    3    3    0    0  0.48283579012E+02 -0.18841990314E+02  0.80240175910E+02  0.95523873620E+02  0.00000000000E+00 0. -1.
          2    1    1    2  501    0 -0.22667558064E+02 -0.25171901056E+02 -0.15815593147E+03  0.16174282503E+03  0.00000000000E+00 0. -1.
<scales pt_clust_5="13000.00000" pt_clust_6="13000.00000" pt_clust_7="13000.00000" pt_clust_8="13000.00000" pt_clust_9="33.87392"></scales>
<clustering>
<clus scale="   33.874">  2  9  1 -1</clus>
<clus scale="   79.749">  5  6 -1 -1</clus>
<clus scale="   86.082">  2  5  1 -1</clus>
<clus scale="   87.750">  7  8 -1 -1</clus>
<clus scale="   33.874">  2  5  1 -1</clus>
</clustering>
</event>
<event>
 9    1  0.7586638E-005  0.9393741E+02  0.7546771E-02  0.1299557E+00
         -2   -1    0    0    0  501 -0.00000000000E+00  0.00000000000E+00  0.15924871871E+03  0.15924871871E+03  0.00000000000E+00 0.  1.
         21   -1    0    0  501  502  0.00000000000E+00 -0.00000000000E+00 -0.63723685692E+02  0.63723685692E+02  0.00000000000E+00 0. -1.
        -24    2    1    2    0    0  0.93332648018E+01  0.11846251799E+02  0.37839904894E+02  0.90144500709E+02  0.80415975354E+02 0.  0.
         23    2    1    2    0    0 -0.19755407223E+02 -0.30534530967E+02  0.42149008670E+02  0.10638468455E+03  0.90656100067E+02 0.  0.
         11    1    3    3    0    0 -0.28427624586E+02 -0.12161685323E+02 -0.93657258117E+00  0.30934020070E+02  0.00000000000E+00 0. -1.
        -12    1    3    3    0    0  0.37760889387E+02  0.24007937122E+02  0.38776477475E+02  0.59210480640E+02  0.00000000000E+00 0.  1.
        -13    1    4    4    0    0  0.17718155081E+02 -0.13088847307E+02 -0.21310921245E+02  0.30649735849E+02  0.00000000000E+00 0. -1.
         13    1    4    4    0    0 -0.37473562304E+02 -0.17445683660E+02  0.63459929916E+02  0.75734948703E+02  0.00000000000E+00 0.  1.
         -1    1    1    2    0  502  0.10422142422E+02  0.18688279167E+02  0.15536119454E+02  0.26443219142E+02  0.00000000000E+00 0.  1.
<scales pt_clust_5="13000.00000" pt_clust_6="13000.00000" pt_clust_7="13000.00000" pt_clust_8="13000.00000" pt_clust_9="21.39797"></scales>
<clustering>
<clus scale="   21.398">  2  9  1 -1</clus>
<clus scale="   80.416">  5  6 -1 -1</clus>
<clus scale="   84.098">  1  5  2 -1</clus>
<clus scale="   90.656">  7  8 -1 -1</clus>
<clus scale="   21.398">  2  5  1 -1</clus>
</clustering>
</event>
<event>
 9    1  0.7586638E-005  0.1021461E+03  0.7546771E-02  0.1282565E+00
         21   -1    0    0  501  502  0.00000000000E+00  0.00000000000E+00  0.88044907892E+02  0.88044907892E+02  0.00000000000E+00 0. -1.
         -2   -1    0    0    0  501 -0.00000000000E+00 -0.00000000000E+00 -0.48142152696E+03  0.48142152696E+03  0.00000000000E+00 0.  1.
         23    2    1    2    0    0 -0.81851285603E+00 -0.44987370108E+02 -0.40274062362E+03  0.41592373904E+03  0.93637670555E+02 0.  0.
        -24    2    1    2    0    0  0.44164761272E+02  0.11874525370E+02 -0.15659110749E+02  0.93530080165E+02  0.80069580086E+02 0.  0.
         13    1    4    4    0    0  0.15190535983E+02  0.18310500143E+02  0.30481821222E+02  0.38667405188E+02  0.00000000000E+00 0. -1.
        -14    1    4    4    0    0  0.28974225289E+02 -0.64359747726E+01 -0.46140931972E+02  0.54862674977E+02  0.00000000000E+00 0.  1.
        -11    1    3    3    0    0  0.11843806951E+02  0.27528042749E+02 -0.13151276729E+03  0.13488393848E+03  0.00000000000E+00 0. -1.
         11    1    3    3    0    0 -0.12662319807E+02 -0.72515412857E+02 -0.27122785633E+03  0.28103980055E+03  0.00000000000E+00 0.  1.
         -1    1    1    2    0  502 -0.43346248416E+02  0.33112844738E+02  0.25023115299E+02  0.60012615654E+02  0.00000000000E+00 0.  1.
<scales pt_clust_5="13000.00000" pt_clust_6="13000.00000" pt_clust_7="13000.00000" pt_clust_8="13000.00000" pt_clust_9="54.54684"></scales>
<clustering>
<clus scale="   54.547">  1  9  2 -1</clus>
<clus scale="   80.070">  5  6 -1 -1</clus>
<clus scale="   89.872">  1  5  2 -1</clus>
<clus scale="   93.638">  7  8 -1 -1</clus>
<clus scale="   54.547">  1  5  2 -1</clus>
</clustering>
</event>
<event>
 9    1  0.7586638E-005  0.2077581E+03  0.7546771E-02  0.1160859E+00
         -2   -1    0    0    0  501 -0.00000000000E+00  0.00000000000E+00  0.40821953464E+03  0.40821953464E+03  0.00000000000E+00 0.  1.
         21   -1    0    0  501  502  0.00000000000E+00 -0.00000000000E+00 -0.24354534587E+03  0.24354534587E+03  0.00000000000E+00 0.  1.
        -24    2    1    2    0    0  0.75791953383E+02  0.80804660405E+02 -0.60944580182E+02  0.15033809479E+03  0.81323351820E+02 0.  0.
         23    2    1    2    0    0 -0.19986472205E+03 -0.17754456513E+03  0.18976245751E+03  0.34006279915E+03  0.90360042934E+02 0.  0.
         13    1    3    3    0    0  0.95339227825E+01  0.30715220387E+02  0.17047941727E+02  0.36399900606E+02  0.00000000000E+00 0. -1.
        -14    1    3    3    0    0  0.66258030600E+02  0.50089440018E+02 -0.77992521909E+02  0.11393819419E+03  0.00000000000E+00 0.  1.
        -13    1    4    4    0    0 -0.16556713634E+03 -0.17478791851E+03  0.18825879309E+03  0.30562176995E+03  0.00000000000E+00 0.  1.
         13    1    4    4    0    0 -0.34297585705E+02 -0.27566466242E+01  0.15036644257E+01  0.34441029202E+02  0.00000000000E+00 0. -1.
         -1    1    1    2    0  502  0.12407276867E+03  0.96739904726E+02  0.35856311433E+02  0.16136398656E+03  0.00000000000E+00 0.  1.
<scales pt_clust_5="13000.00000" pt_clust_6="13000.00000" pt_clust_7="13000.00000" pt_clust_8="13000.00000" pt_clust_9="187.07887"></scales>
<clustering>
<clus scale="   81.323">  5  6 -1 -1</clus>
<clus scale="   90.360">  7  8 -1 -1</clus>
<clus scale="  137.431">  1  5  2 -1</clus>
<clus scale="  187.079">  2  9  1 -1</clus>
<clus scale="  187.079">  2  5  1 -1</clus>
</clustering>
</event>
<event>
 9    1  0.7586638E-005  0.1816508E+03  0.7546771E-02  0.1168570E+00
          1   -1    0    0  502    0 -0.00000000000E+00  0.00000000000E+00  0.26478628521E+03  0.26478628521E+03  0.00000000000E+00 0. -1.
         21   -1    0    0  501  502  0.00000000000E+00 -0.00000000000E+00 -0.24412861491E+03  0.24412861491E+03  0.00000000000E+00 0. -1.
         23    2    1    2    0    0 -0.12263383876E+03  0.99688289740E+02  0.18175829415E+03  0.26104576035E+03  0.10065782624E+03 0.  0.
        -24    2    1    2    0    0  0.84117781903E+02 -0.91525426736E+02 -0.12839760091E+03  0.19668704644E+03  0.82141008916E+02 0.  0.
         13    1    4    4    0    0  0.51141520381E+02 -0.96213288149E+02 -0.12049498408E+03  0.16245458785E+03  0.00000000000E+00 0. -1.
        -14    1    4    4    0    0  0.32976261521E+02  0.46878614132E+01 -0.79026168294E+01  0.34232458593E+02  0.00000000000E+00 0.  1.
        -11    1    3    3    0    0 -0.52452540526E+02  0.10127121949E+03  0.13487339172E+03  0.17662944460E+03  0.00000000000E+00 0. -1.
         11    1    3    3    0    0 -0.70181298236E+02 -0.15829297543E+01  0.46884902428E+02  0.84416315748E+02  0.00000000000E+00 0.  1.
          2    1    1    2  501    0  0.38516056859E+02 -0.81628630042E+01 -0.32703022935E+02  0.51182093329E+02  0.00000000000E+00 0. -1.
<scales pt_clust_5="13000.00000" pt_clust_6="13000.00000" pt_clust_7="13000.00000" pt_clust_8="13000.00000" pt_clust_9="39.37155"></scales>
<clustering>
<clus scale="   39.372">  2  9  1 -1</clus>
<clus scale="   82.141">  5  6 -1 -1</clus>
<clus scale="  100.658">  7  8 -1 -1</clus>
<clus scale="  172.082">  2  5  1 -1</clus>
<clus scale="   39.372">  2  5  1 -1</clus>
</clustering>
</event>
<event>
 9    1  0.7586638E-005  0.1608226E+03  0.7546771E-02  0.1195126E+00
         21   -1    0    0  501  502  0.00000000000E+00  0.00000000000E+00  0.66650720311E+02  0.66650720311E+02  0.00000000000E+00 0. -1.
          1   -1    0    0  502    0 -0.00000000000E+00 -0.00000000000E+00 -0.17704756548E+04  0.17704756548E+04  0.00000000000E+00 0. -1.
         23    2    1    2    0    0 -0.75182034945E+02  0.52611527283E+02 -0.48212257288E+02  0.14500596686E+03  0.10140018486E+03 0.  0.
        -24    2    1    2    0    0 -0.10534366518E+03  0.38809979655E+02 -0.49297297065E+03  0.51200240246E+03  0.80750281900E+02 0.  0.
         11    1    4    4    0    0 -0.20373287852E+02 -0.24608081835E+02 -0.12933579121E+03  0.13322302893E+03  0.00000000000E+00 0. -1.
        -12    1    4    4    0    0 -0.84970377324E+02  0.63418061489E+02 -0.36363717944E+03  0.37877937354E+03  0.00000000000E+00 0.  1.
        -11    1    3    3    0    0  0.14404577141E+02 -0.16672967984E+02 -0.29985929857E+00  0.22035644297E+02  0.00000000000E+00 0.  1.
         11    1    3    3    0    0 -0.89586612086E+02  0.69284495267E+02 -0.47912397990E+02  0.12297032256E+03  0.00000000000E+00 0. -1.
          2    1    1    2  501    0  0.18052570012E+03 -0.91421506937E+02 -0.11626397065E+04  0.11801180058E+04  0.00000000000E+00 0. -1.
<scales pt_clust_5="13000.00000" pt_clust_6="13000.00000" pt_clust_7="13000.00000" pt_clust_8="13000.00000" pt_clust_9="139.08027"></scales>
<clustering>
<clus scale="   80.750">  5  6 -1 -1</clus>
<clus scale="  101.400">  7  8 -1 -1</clus>
<clus scale="  136.756">  2  7  1 -1</clus>
<clus scale="  139.080">  1  9  2 -1</clus>
<clus scale="  139.080">  1  5  2 -1</clus>
</clustering>
</event>
<event>
 9    1  0.7586638E-005  0.2282674E+03  0.7546771E-02  0.1145005E+00
          1   -1    0    0  502    0 -0.00000000000E+00  0.00000000000E+00  0.16559116609E+04  0.16559116609E+04  0.00000000000E+00 0. -1.
         21   -1    0    0  501  502  0.00000000000E+00 -0.00000000000E+00 -0.64797672536E+02  0.64797672536E+02  0.00000000000E+00 0. -1.
        -24    2    1    2    0    0  0.36402146491E+02 -0.12171134623E+03  0.32901962454E+03  0.36183452209E+03  0.80817943382E+02 0.  0.
         23    2    1    2    0    0 -0.92165670765E+02  0.28934988688E+03  0.93602460027E+03  0.98801939254E+03  0.88444331753E+02 0.  0.
         11    1    3    3    0    0  0.12726470189E+02 -0.12533025970E+03  0.28777330799E+03  0.31413868567E+03  0.00000000000E+00 0. -1.
        -12    1    3    3    0    0  0.23675676303E+02  0.36189134726E+01  0.41246316550E+02  0.47695836422E+02  0.00000000000E+00 0.  1.
        -11    1    4    4    0    0 -0.15946353716E+02  0.10692108371E+03  0.46074081576E+03  0.47325310738E+03  0.00000000000E+00 0.  1.
         11    1    4    4    0    0 -0.76219317050E+02  0.18242880317E+03  0.47528378450E+03  0.51476628515E+03  0.00000000000E+00 0. -1.
          2    1    1    2  501    0  0.55763524274E+02 -0.16763854065E+03  0.32606976352E+03  0.37085541877E+03  0.00000000000E+00 0. -1.
<scales pt_clust_5="13000.00000" pt_clust_6="13000.00000" pt_clust_7="13000.00000" pt_clust_8="13000.00000" pt_clust_9="210.43668"></scales>
<clustering>
<clus scale="   80.818">  5  6 -1 -1</clus>
<clus scale="   88.444">  7  8 -1 -1</clus>
<clus scale="  150.567">  1  5  2 -1</clus>
<clus scale="  210.437">  2  9  1 -1</clus>
<clus scale="  210.437">  2  5  1 -1</clus>
</clustering>
</event>
<event>
 9    1  0.7586638E-005  0.1233333E+03  0.7546771E-02  0.1240804E+00
          1   -1    0    0  502    0 -0.00000000000E+00  0.00000000000E+00  0.62633998222E+02  0.62633998222E+02  0.00000000000E+00 0. -1.
         21   -1    0    0  501  502  0.00000000000E+00 -0.00000000000E+00 -0.51110973665E+03  0.51110973665E+03  0.00000000000E+00 0. -1.
         23    2    1    2    0    0 -0.70572957108E+02  0.61450029287E+02 -0.43256397575E+02  0.13719194882E+03  0.90519978539E+02 0.  0.
        -24    2    1    2    0    0  0.11998396945E+02 -0.60882358732E+02 -0.29271253148E+03  0.30970903497E+03  0.79927699338E+02 0.  0.
         11    1    4    4    0    0 -0.31812084471E+02 -0.22692114460E+02 -0.16220119932E+03  0.16684175088E+03  0.00000000000E+00 0. -1.
        -12    1    4    4    0    0  0.43810481417E+02 -0.38190244273E+02 -0.13051133216E+03  0.14286728409E+03  0.00000000000E+00 0.  1.
        -13    1    3    3    0    0 -0.42537236661E+02 -0.17811896726E+02 -0.14802018880E+02  0.48433252324E+02  0.00000000000E+00 0.  1.
         13    1    3    3    0    0 -0.28035720448E+02  0.79261926013E+02 -0.28454378695E+02  0.88758696493E+02  0.00000000000E+00 0. -1.
          2    1    1    2  501    0  0.58574560163E+02 -0.56767055445E+00 -0.11250680938E+03  0.12684275109E+03  0.00000000000E+00 0. -1.
<scales pt_clust_5="13000.00000" pt_clust_6="13000.00000" pt_clust_7="13000.00000" pt_clust_8="13000.00000" pt_clust_9="58.57731"></scales>
<clustering>
<clus scale="   58.577">  2  9  1 -1</clus>
<clus scale="   79.928">  5  6 -1 -1</clus>
<clus scale="   90.520">  7  8 -1 -1</clus>
<clus scale="  115.783">  2  5  1 -1</clus>
<clus scale="   58.577">  2  5  1 -1</clus>
</clustering>
</event>
<event>
 9    1  0.7586638E-005  0.2309224E+03  0.7546771E-02  0.1126966E+00
          1   -1    0    0  502    0 -0.00000000000E+00  0.00000000000E+00  0.22319181844E+03  0.22319181844E+03  0.00000000000E+00 0. -1.
         21   -1    0    0  501  502  0.00000000000E+00 -0.00000000000E+00 -0.35395168260E+03  0.35395168260E+03  0.00000000000E+00 0. -1.
        -24    2    1    2    0    0 -0.22683627797E+03  0.15951616889E+02  0.20806146973E+02  0.24111315901E+03  0.77417753871E+02 0.  0.
         23    2    1    2    0    0  0.17488276537E+03 -0.73183088949E+02 -0.14998956013E+03  0.25871867367E+03  0.92188599228E+02 0.  0.
         11    1    3    3    0    0 -0.13540261949E+03  0.28410158049E+02  0.45406766950E+02  0.14561174723E+03  0.00000000000E+00 0. -1.
        -12    1    3    3    0    0 -0.91433658475E+02 -0.12458541160E+02 -0.24600619977E+02  0.95501411787E+02  0.00000000000E+00 0.  1.
        -11    1    4    4    0    0  0.14155459531E+03 -0.65595423378E+02 -0.15962526812E+03  0.22320548659E+03  0.00000000000E+00 0. -1.
         11    1    4    4    0    0  0.33328170055E+02 -0.75876655709E+01  0.96357079913E+01  0.35513187079E+02  0.00000000000E+00 0.  1.
          2    1    1    2  501    0  0.51953512600E+02  0.57231472060E+02 -0.15764510100E+01  0.77311668352E+02  0.00000000000E+00 0. -1.
<scales pt_clust_5="13000.00000" pt_clust_6="13000.00000" pt_clust_7="13000.00000" pt_clust_8="13000.00000" pt_clust_9="77.29563"></scales>
<clustering>
<clus scale="   77.296">  2  9  1 -1</clus>
<clus scale="   77.418">  5  6 -1 -1</clus>
<clus scale="   92.189">  7  8 -1 -1</clus>
<clus scale="  225.433">  1  5  2 -1</clus>
<clus scale="   77.296">  2  5  1 -1</clus>
</clustering>
</event>
<event>
 9    1  0.7586638E-005  0.2180419E+03  0.7546771E-02  0.1172775E+00
         21   -1    0    0  501  502  0.00000000000E+00  0.00000000000E+00  0.21585394009E+03  0.21585394009E+03  0.00000000000E+00 0. -1.
          3   -1    0    0  502    0 -0.00000000000E+00 -0.00000000000E+00 -0.40843162104E+03  0.40843162104E+03  0.00000000000E+00 0. -1.
        -24    2    1    2    0    0 -0.33014051455E+02  0.11200022920E+02 -0.15014283055E+03  0.17524982407E+03  0.83392224841E+02 0.  0.
         23    2    1    2    0    0  0.10074843367E+03  0.17216562750E+03  0.60564904570E+02  0.22808357525E+03  0.92535179549E+02 0.  0.
         13    1    3    3    0    0  0.50210501505E+01  0.37540284037E+02 -0.10045399262E+03  0.10735682793E+03  0.00000000000E+00 0. -1.
        -14    1    3    3    0    0 -0.38035101606E+02 -0.26340261116E+02 -0.49688837930E+02  0.67892996139E+02  0.00000000000E+00 0.  1.
        -13    1    4    4    0    0  0.54567552473E+02  0.15739891937E+02  0.16159999046E+02  0.59046655708E+02  0.00000000000E+00 0.  1.
         13    1    4    4    0    0  0.46180881200E+02  0.15642573556E+03  0.44404905524E+02  0.16903691954E+03  0.00000000000E+00 0. -1.
          4    1    1    2  501    0 -0.67734382218E+02 -0.18336565042E+03 -0.10299975497E+03  0.22095216182E+03  0.00000000000E+00 0. -1.
<scales pt_clust_5="13000.00000" pt_clust_6="13000.00000" pt_clust_7="13000.00000" pt_clust_8="13000.00000" pt_clust_9="197.43244"></scales>
<clustering>
<clus scale="   83.392">  5  6 -1 -1</clus>
<clus scale="   90.386">  2  5  1 -1</clus>
<clus scale="   92.535">  7  8 -1 -1</clus>
<clus scale="  197.432">  1  9  2 -1</clus>
<clus scale="  197.432">  1  5  2 -1</clus>
</clustering>
</event>
<event>
 9    1  0.7586638E-005  0.9178142E+02  0.7546771E-02  0.1304796E+00
         21   -1    0    0  501  502  0.00000000000E+00  0.00000000000E+00  0.81002291736E+02  0.81002291736E+02  0.00000000000E+00 0. -1.
         -2   -1    0    0    0  501 -0.00000000000E+00 -0.00000000000E+00 -0.27362226347E+03  0.27362226347E+03  0.00000000000E+00 0.  1.
         23    2    1    2    0    0  0.13877952753E+02 -0.16888423027E+02 -0.21436892530E+03  0.23342147443E+03  0.89742588481E+02 0.  0.
        -24    2    1    2    0    0 -0.23491518128E+02 -0.15777110260E+02  0.94802621148E+01  0.85009455726E+02  0.79598766077E+02 0.  0.
         11    1    4    4    0    0 -0.28950297277E+02  0.23813078883E+02  0.21579418948E+02  0.43253367042E+02  0.00000000000E+00 0. -1.
        -12    1    4    4    0    0  0.54587791490E+01 -0.39590189143E+02 -0.12099156833E+02  0.41756088684E+02  0.00000000000E+00 0.  1.
        -11    1    3    3    0    0  0.22517834707E+02 -0.51380363930E+02 -0.14492541887E+03  0.15540389864E+03  0.00000000000E+00 0.  1.
         11    1    3    3    0    0 -0.86398819542E+01  0.34491940904E+02 -0.69443506426E+02  0.78017575790E+02  0.00000000000E+00 0. -1.
         -1    1    1    2    0  502  0.96135653749E+01  0.32665533286E+02  0.12268691451E+02  0.36193625047E+02  0.00000000000E+00 0.  1.
<scales pt_clust_5="13000.00000" pt_clust_6="13000.00000" pt_clust_7="13000.00000" pt_clust_8="13000.00000" pt_clust_9="34.05081"></scales>
<clustering>
<clus scale="   34.051">  1  9  2 -1</clus>
<clus scale="   79.599">  5  6 -1 -1</clus>
<clus scale="   81.891">  1  5  2 -1</clus>
<clus scale="   89.743">  7  8 -1 -1</clus>
<clus scale="   34.051">  1  5  2 -1</clus>
</clustering>
</event>
<event>
 9    1  0.7586638E-005  0.1076427E+03  0.7546771E-02  0.1269373E+00
          3   -1    0    0  502    0 -0.00000000000E+00  0.00000000000E+00  0.29757228588E+03  0.29757228588E+03  0.00000000000E+00 0. -1.
         21   -1    0    0  501  502  0.00000000000E+00 -0.00000000000E+00 -0.10001506081E+03  0.10001506081E+03  0.00000000000E+00 0. -1.
         23    2    1    2    0    0  0.82593027522E+00 -0.67906084478E+02  0.21157969394E+03  0.24012789827E+03  0.91013857008E+02 0.  0.
        -24    2    1    2    0    0  0.18697523365E+02  0.34163174717E+02  0.33978519714E+02  0.95622209582E+02  0.80450899787E+02 0.  0.
         11    1    4    4    0    0  0.28949789145E+02  0.50931101666E+02  0.26557720276E+01  0.58644015326E+02  0.00000000000E+00 0. -1.
        -12    1    4    4    0    0 -0.10252265781E+02 -0.16767926949E+02  0.31322747687E+02  0.36978194256E+02  0.00000000000E+00 0.  1.
        -11    1    3    3    0    0 -0.26332946886E+02 -0.40509280766E+01  0.12747855809E+02  0.29535435289E+02  0.00000000000E+00 0.  1.
         11    1    3    3    0    0  0.27158877161E+02 -0.63855156402E+02  0.19883183813E+03  0.21059246298E+03  0.00000000000E+00 0. -1.
          4    1    1    2  501    0 -0.19523453640E+02  0.33742909761E+02 -0.48000988588E+02  0.61837238834E+02  0.00000000000E+00 0. -1.
<scales pt_clust_5="13000.00000" pt_clust_6="13000.00000" pt_clust_7="13000.00000" pt_clust_8="13000.00000" pt_clust_9="38.98396"></scales>
<clustering>
<clus scale="   38.984">  2  9  1 -1</clus>
<clus scale="   80.451">  5  6 -1 -1</clus>
<clus scale="   91.014">  7  8 -1 -1</clus>
<clus scale="   98.873">  2  5  1 -1</clus>
<clus scale="   38.984">  2  5  1 -1</clus>
</clustering>
</event>
<event>
 9    1  0.7586638E-005  0.2122101E+03  0.7546771E-02  0.1172565E+00
          1   -1    0    0  502    0 -0.00000000000E+00  0.00000000000E+00  0.96394462637E+02  0.96394462637E+02  0.00000000000E+00 0. -1.
         21   -1    0    0  501  502  0.00000000000E+00 -0.00000000000E+00 -0.11446859527E+04  0.11446859527E+04  0.00000000000E+00 0. -1.
         23    2    1    2    0    0 -0.20038787023E+02  0.23165163230E+02  0.84668540562E+01  0.98878732772E+02  0.93632998479E+02 0.  0.
        -24    2    1    2    0    0 -0.40340770522E+02  0.17308540461E+03 -0.29800307322E+03  0.35615490440E+03  0.80340209265E+02 0.  0.
         13    1    4    4    0    0  0.34295040367E+00  0.10599437253E+03 -0.11161318503E+03  0.15392344752E+03  0.00000000000E+00 0. -1.
        -14    1    4    4    0    0 -0.40683720926E+02  0.67091032077E+02 -0.18638988818E+03  0.20223145688E+03  0.00000000000E+00 0.  1.
        -11    1    3    3    0    0  0.24011980748E+02  0.38659590846E+02  0.21593054611E+02  0.50372603578E+02  0.00000000000E+00 0. -1.
         11    1    3    3    0    0 -0.44050767771E+02 -0.15494427617E+02 -0.13126200555E+02  0.48506129194E+02  0.00000000000E+00 0.  1.
          2    1    1    2  501    0  0.60379557545E+02 -0.19625056784E+03 -0.75875527085E+03  0.78604677812E+03  0.00000000000E+00 0. -1.
<scales pt_clust_5="13000.00000" pt_clust_6="13000.00000" pt_clust_7="13000.00000" pt_clust_8="13000.00000" pt_clust_9="196.41428"></scales>
<clustering>
<clus scale="   80.340">  5  6 -1 -1</clus>
<clus scale="   93.633">  7  8 -1 -1</clus>
<clus scale="   98.516">  1  7  2 -1</clus>
<clus scale="  196.414">  2  9  1 -1</clus>
<clus scale="  196.414">  2  5  1 -1</clus>
</clustering>
</event>
<event>
 9    1  0.7586638E-005  0.9453432E+02  0.7546771E-02  0.1299462E+00
         -2   -1    0    0    0  501 -0.00000000000E+00  0.00000000000E+00  0.86631526439E+03  0.86631526439E+03  0.00000000000E+00 0.  1.
         21   -1    0    0  501  502  0.00000000000E+00 -0.00000000000E+00 -0.23859685277E+02  0.23859685277E+02  0.00000000000E+00 0. -1.
        -24    2    1    2    0    0 -0.40104707957E+02  0.21467657165E-01  0.36483078706E+03  0.37545974636E+03  0.79120982598E+02 0.  0.
         23    2    1    2    0    0 -0.25606076077E+02  0.30606920846E+02  0.15723181158E+03  0.18622217864E+03  0.91457107480E+02 0.  0.
         11    1    3    3    0    0 -0.47838728822E+02 -0.25859877092E+02  0.16306436831E+03  0.17189318029E+03  0.00000000000E+00 0. -1.
        -12    1    3    3    0    0  0.77340208648E+01  0.25881344749E+02  0.20176641875E+03  0.20356656607E+03  0.00000000000E+00 0.  1.
        -11    1    4    4    0    0 -0.25510950194E+02 -0.27737613006E+02  0.38200085072E+02  0.53660322908E+02  0.00000000000E+00 0. -1.
         11    1    4    4    0    0 -0.95125882937E-01  0.58344533852E+02  0.11903172651E+03  0.13256185573E+03  0.00000000000E+00 0.  1.
         -1    1    1    2    0  502  0.65710784034E+02 -0.30628388503E+02  0.32039298047E+03  0.32849302466E+03  0.00000000000E+00 0.  1.
<scales pt_clust_5="13000.00000" pt_clust_6="13000.00000" pt_clust_7="13000.00000" pt_clust_8="13000.00000" pt_clust_9="72.49835"></scales>
<clustering>
<clus scale="   72.498">  2  9  1 -1</clus>
<clus scale="   79.121">  5  6 -1 -1</clus>
<clus scale="   82.659">  1  5  2 -1</clus>
<clus scale="   91.457">  7  8 -1 -1</clus>
<clus scale="   72.498">  2  5  1 -1</clus>
</clustering>
</event>
<event>
 9    1  0.7586638E-005  0.2559520E+03  0.7546771E-02  0.1136242E+00
          1   -1    0    0  502    0 -0.00000000000E+00  0.00000000000E+00  0.28146063178E+03  0.28146063178E+03  0.00000000000E+00 0. -1.
         21   -1    0    0  501  502  0.00000000000E+00 -0.00000000000E+00 -0.59499418266E+03  0.59499418266E+03  0.00000000000E+00 0. -1.
        -24    2    1    2    0    0 -0.91274284033E+02  0.52117731904E+02 -0.24599870892E+03  0.27913383109E+03  0.79706197746E+02 0.  0.
         23    2    1    2    0    0  0.18096397985E+03 -0.25262137135E+03  0.78668069451E+02  0.33346260795E+03  0.91886486943E+02 0.  0.
         13    1    3    3    0    0  0.13709281415E+02  0.15462124666E+02 -0.41319442050E+02  0.46198679499E+02  0.00000000000E+00 0. -1.
        -14    1    3    3    0    0 -0.10498356545E+03  0.36655607239E+02 -0.20467926687E+03  0.23293515159E+03  0.00000000000E+00 0.  1.
        -11    1    4    4    0    0  0.13681637241E+03 -0.24223580161E+03  0.61150406681E+02  0.28484430058E+03  0.00000000000E+00 0. -1.
         11    1    4    4    0    0  0.44147607445E+02 -0.10385569743E+02  0.17517662771E+02  0.48618307364E+02  0.00000000000E+00 0.  1.
          2    1    1    2  501    0 -0.89689695817E+02  0.20050363945E+03 -0.14620291141E+03  0.26385837540E+03  0.00000000000E+00 0. -1.
<scales pt_clust_5="13000.00000" pt_clust_6="13000.00000" pt_clust_7="13000.00000" pt_clust_8="13000.00000" pt_clust_9="238.88967"></scales>
<clustering>
<clus scale="   79.706">  5  6 -1 -1</clus>
<clus scale="   91.886">  7  8 -1 -1</clus>
<clus scale="  131.910">  1  5  2 -1</clus>
<clus scale="  238.890">  2  9  1 -1</clus>
<clus scale="  238.890">  2  5  1 -1</clus>
</clustering>
</event>
<event>
 9    1  0.7586638E-005  0.1708332E+03  0.7546771E-02  0.1204227E+00
         21   -1    0    0  501  502  0.00000000000E+00  0.00000000000E+00  0.12537022763E+03  0.12537022763E+03  0.00000000000E+00 0.  1.
         -2   -1    0    0    0  501 -0.00000000000E+00 -0.00000000000E+00 -0.44074694622E+03  0.44074694622E+03  0.00000000000E+00 0.  1.
         23    2    1    2    0    0 -0.74278730842E+01 -0.81631339478E+01 -0.40031043914E+02  0.10182092061E+03  0.92968840708E+02 0.  0.
        -24    2    1    2    0    0 -0.43593029727E+02  0.14758119947E+03 -0.26069410800E+02  0.17415975906E+03  0.77275124186E+02 0.  0.
         11    1    4    4    0    0  0.21892806367E+02  0.30471139749E+02 -0.24466001571E+00  0.37521263128E+02  0.00000000000E+00 0. -1.
        -12    1    4    4    0    0 -0.65485836095E+02  0.11711005972E+03 -0.25824750784E+02  0.13663849593E+03  0.00000000000E+00 0.  1.
        -13    1    3    3    0    0  0.40825543447E+02 -0.72603216819E+01 -0.41318527480E+01  0.41671446769E+02  0.00000000000E+00 0.  1.
         13    1    3    3    0    0 -0.48253416531E+02 -0.90281226590E+00 -0.35899191166E+02  0.60149473840E+02  0.00000000000E+00 0. -1.
         -1    1    1    2    0  502  0.51020902812E+02 -0.13941806553E+03 -0.24927626388E+03  0.29013649418E+03  0.00000000000E+00 0.  1.
<scales pt_clust_5="13000.00000" pt_clust_6="13000.00000" pt_clust_7="13000.00000" pt_clust_8="13000.00000" pt_clust_9="152.35669"></scales>
<clustering>
<clus scale="   77.275">  5  6 -1 -1</clus>
<clus scale="   92.969">  7  8 -1 -1</clus>
<clus scale="   93.622">  2  7  1 -1</clus>
<clus scale="  152.357">  1  9  2 -1</clus>
<clus scale="  152.357">  1  5  2 -1</clus>
</clustering>
</event>
<event>
 9    1  0.7586638E-005  0.1250861E+03  0.7546771E-02  0.1239698E+00
          1   -1    0    0  502    0 -0.00000000000E+00  0.00000000000E+00  0.39067692309E+03  0.39067692309E+03  0.00000000000E+00 0. -1.
         21   -1    0    0  501  502  0.00000000000E+00 -0.00000000000E+00 -0.15105964079E+03  0.15105964079E+03  0.00000000000E+00 0.  1.
         23    2    1    2    0    0 -0.78113812833E+02  0.43191421016E+02  0.25374864097E+03  0.28482450700E+03  0.93644863118E+02 0.  0.
        -24    2    1    2    0    0  0.85648726894E+02  0.29666178237E+02  0.75510060973E+02  0.14115114458E+03  0.77498966182E+02 0.  0.
         13    1    4    4    0    0  0.39260974860E+02  0.28739920415E+02  0.80938630965E+02  0.94437646915E+02  0.00000000000E+00 0. -1.
        -14    1    4    4    0    0  0.46387752033E+02  0.92625782220E+00 -0.54285699912E+01  0.46713497668E+02  0.00000000000E+00 0.  1.
        -11    1    3    3    0    0 -0.64183173982E+02  0.68737107910E+02  0.22525907424E+03  0.24410227437E+03  0.00000000000E+00 0.  1.
         11    1    3    3    0    0 -0.13930638851E+02 -0.25545686894E+02  0.28489566734E+02  0.40722232631E+02  0.00000000000E+00 0. -1.
          2    1    1    2  501    0 -0.75349140604E+01 -0.72857599253E+02 -0.89641419652E+02  0.11576091230E+03  0.00000000000E+00 0. -1.
<scales pt_clust_5="13000.00000" pt_clust_6="13000.00000" pt_clust_7="13000.00000" pt_clust_8="13000.00000" pt_clust_9="73.24619"></scales>
<clustering>
<clus scale="   73.246">  2  9  1 -1</clus>
<clus scale="   77.499">  5  6 -1 -1</clus>
<clus scale="   93.645">  7  8 -1 -1</clus>
<clus scale="  113.504">  2  5  1 -1</clus>
<clus scale="   73.246">  2  5  1 -1</clus>
</clustering>
</event>
<event>
 9    1  0.7586638E-005  0.1305930E+03  0.7546771E-02  0.1239696E+00
         21   -1    0    0  501  502  0.00000000000E+00  0.00000000000E+00  0.33502803336E+03  0.33502803336E+03  0.00000000000E+00 0. -1.
          1   -1    0    0  502    0 -0.00000000000E+00 -0.00000000000E+00 -0.21352241691E+03  0.21352241691E+03  0.00000000000E+00 0. -1.
         23    2    1    2    0    0 -0.23259451038E+02  0.44827967124E+02 -0.15298857719E+03  0.18263235948E+03  0.86014680591E+02 0.  0.
        -24    2    1    2    0    0 -0.65862510098E+02  0.35005703156E+02  0.73768574939E+02  0.13223687018E+03  0.80507873508E+02 0.  0.
         11    1    4    4    0    0 -0.59718192785E+02 -0.95061221593E+01  0.23664853840E+02  0.64935769921E+02  0.00000000000E+00 0. -1.
        -12    1    4    4    0    0 -0.61443173131E+01  0.44511825316E+02  0.50103721099E+02  0.67301100259E+02  0.00000000000E+00 0.  1.
        -13    1    3    3    0    0  0.62657806795E+01 -0.24013240615E+02 -0.39755502134E+02  0.46865719693E+02  0.00000000000E+00 0.  1.
         13    1    3    3    0    0 -0.29525231717E+02  0.68841207739E+02 -0.11323307506E+03  0.13576663978E+03  0.00000000000E+00 0. -1.
          2    1    1    2  501    0  0.89121961135E+02 -0.79833670281E+02  0.20072561870E+03  0.23368122062E+03  0.00000000000E+00 0. -1.
<scales pt_clust_5="13000.00000" pt_clust_6="13000.00000" pt_clust_7="13000.00000" pt_clust_8="13000.00000" pt_clust_9="102.82513"></scales>
<clustering>
<clus scale="   80.508">  5  6 -1 -1</clus>
<clus scale="   86.015">  7  8 -1 -1</clus>
<clus scale="   99.745">  2  7  1 -1</clus>
<clus scale="  102.825">  1  9  2 -1</clus>
<clus scale="  102.825">  1  5  2 -1</clus>
</clustering>
</event>
<event>
 9    1  0.7586638E-005  0.9559384E+02  0.7546771E-02  0.1297344E+00
          1   -1    0    0  502    0 -0.00000000000E+00  0.00000000000E+00  0.83185383648E+02  0.83185383648E+02  0.00000000000E+00 0. -1.
         21   -1    0    0  501  502  0.00000000000E+00 -0.00000000000E+00 -0.20480595645E+03  0.20480595645E+03  0.00000000000E+00 0.  1.
        -24    2    1    2    0    0 -0.11459030430E+02 -0.21254162545E+02  0.25821936507E+02  0.86166864521E+02  0.78580578596E+02 0.  0.
         23    2    1    2    0    0  0.31532912653E+02  0.23173217878E+02 -0.69983077827E+02  0.12178319219E+03  0.91663472060E+02 0.  0.
         13    1    3    3    0    0  0.24976824382E+02 -0.32613828834E+02  0.18985462971E+01  0.41123084338E+02  0.00000000000E+00 0. -1.
        -14    1    3    3    0    0 -0.36435854812E+02  0.11359666288E+02  0.23923390210E+02  0.45043780184E+02  0.00000000000E+00 0.  1.
        -11    1    4    4    0    0  0.36355064865E+02  0.53021581266E+02 -0.64476394246E+02  0.91050448852E+02  0.00000000000E+00 0.  1.
         11    1    4    4    0    0 -0.48221522113E+01 -0.29848363388E+02 -0.55066835815E+01  0.30732743336E+02  0.00000000000E+00 0. -1.
          2    1    1    2  501    0 -0.20073882223E+02 -0.19190553322E+01 -0.77459431481E+02  0.80041283387E+02  0.00000000000E+00 0. -1.
<scales pt_clust_5="13000.00000" pt_clust_6="13000.00000" pt_clust_7="13000.00000" pt_clust_8="13000.00000" pt_clust_9="20.16540"></scales>
<clustering>
<clus scale="   20.165">  2  9  1 -1</clus>
<clus scale="   78.581">  5  6 -1 -1</clus>
<clus scale="   83.132">  1  5  2 -1</clus>
<clus scale="   91.663">  7  8 -1 -1</clus>
<clus scale="   20.165">  2  5  1 -1</clus>
</clustering>
</event>
<event>
 9    1  0.7586638E-005  0.1013127E+03  0.7546771E-02  0.1282222E+00
         21   -1    0    0  501  502  0.00000000000E+00  0.00000000000E+00  0.32007953928E+02  0.32007953928E+02  0.00000000000E+00 0.  1.
          1   -1    0    0  502    0 -0.00000000000E+00 -0.00000000000E+00 -0.57113244281E+03  0.57113244281E+03  0.00000000000E+00 0. -1.
         23    2    1    2    0    0 -0.10944779607E+02 -0.48206915989E+02 -0.34691385518E+03  0.36190945473E+03  0.90473949570E+02 0.  0.
        -24    2    1    2    0    0  0.38201814589E+02  0.23712148975E+02 -0.76827582332E+02  0.12016819750E+03  0.80723439197E+02 0.  0.
         13    1    4    4    0    0 -0.10488133645E+02  0.32531065863E+02 -0.75001065551E+01  0.34993182078E+02  0.00000000000E+00 0. -1.
        -14    1    4    4    0    0  0.48689948234E+02 -0.88189168887E+01 -0.69327475777E+02  0.85175015420E+02  0.00000000000E+00 0.  1.
        -13    1    3    3    0    0  0.37110031507E+02 -0.17452558713E+02 -0.20296313630E+03  0.20706467815E+03  0.00000000000E+00 0. -1.
         13    1    3    3    0    0 -0.48054811115E+02 -0.30754357275E+02 -0.14395071889E+03  0.15484477657E+03  0.00000000000E+00 0.  1.
          2    1    1    2  501    0 -0.27257034981E+02  0.24494767014E+02 -0.11538305136E+03  0.12106274451E+03  0.00000000000E+00 0. -1.
<scales pt_clust_5="13000.00000" pt_clust_6="13000.00000" pt_clust_7="13000.00000" pt_clust_8="13000.00000" pt_clust_9="36.64616"></scales>
<clustering>
<clus scale="   36.646">  1  9  2 -1</clus>
<clus scale="   80.723">  5  6 -1 -1</clus>
<clus scale="   90.474">  7  8 -1 -1</clus>
<clus scale="   92.709">  1  5  2 -1</clus>
<clus scale="   36.646">  1  5  2 -1</clus>
</clustering>
</event>
<event>
 9    1  0.7586638E-005  0.1084511E+03  0.7546771E-02  0.1267808E+00
          1   -1    0    0  502    0 -0.00000000000E+00  0.00000000000E+00  0.47427504538E+03  0.47427504538E+03  0.00000000000E+00 0. -1.
         21   -1    0    0  501  502  0.00000000000E+00 -0.00000000000E+00 -0.39026239304E+02  0.39026239304E+02  0.00000000000E+00 0. -1.
        -24    2    1    2    0    0  0.37669186673E+02  0.55670791353E+02  0.29751434341E+03  0.31535705359E+03  0.80106691839E+02 0.  0.
         23    2    1    2    0    0 -0.87613696129E+01 -0.45758690168E+02  0.13198649257E+03  0.16684839862E+03  0.90814836773E+02 0.  0.
         11    1    3    3    0    0  0.32088806037E+02  0.70902680048E+02  0.28327747443E+03  0.29377373782E+03  0.00000000000E+00 0. -1.
        -12    1    3    3    0    0  0.55803806365E+01 -0.15231888695E+02  0.14236868980E+02  0.21583315770E+02  0.00000000000E+00 0.  1.
        -13    1    4    4    0    0 -0.17074080906E+02 -0.67838532916E+02  0.12319513297E+03  0.14167085648E+03  0.00000000000E+00 0.  1.
         13    1    4    4    0    0  0.83127112932E+01  0.22079842747E+02  0.87913595964E+01  0.25177542143E+02  0.00000000000E+00 0. -1.
          2    1    1    2  501    0 -0.28907817060E+02 -0.99121011846E+01  0.57479700936E+01  0.31095832475E+02  0.00000000000E+00 0. -1.
<scales pt_clust_5="13000.00000" pt_clust_6="13000.00000" pt_clust_7="13000.00000" pt_clust_8="13000.00000" pt_clust_9="30.55997"></scales>
<clustering>
<clus scale="   30.560">  2  9  1 -1</clus>
<clus scale="   80.107">  5  6 -1 -1</clus>
<clus scale="   90.815">  7  8 -1 -1</clus>
<clus scale="   99.656">  1  5  2 -1</clus>
<clus scale="   30.560">  2  5  1 -1</clus>
</clustering>
</event>
<event>
 9    1  0.7586638E-005  0.1207171E+03  0.7546771E-02  0.1244186E+00
         21   -1    0    0  501  502  0.00000000000E+00  0.00000000000E+00  0.13937481313E+03  0.13937481313E+03  0.00000000000E+00 0.  1.
          1   -1    0    0  502    0 -0.00000000000E+00 -0.00000000000E+00 -0.14386431358E+03  0.14386431358E+03  0.00000000000E+00 0. -1.
         23    2    1    2    0    0 -0.37716412035E+02 -0.63392288414E+02 -0.10525808771E+02  0.11756455069E+03  0.90936906483E+02 0.  0.
        -24    2    1    2    0    0  0.25131819516E+02  0.85871011513E+02  0.34546151107E+02  0.12724963495E+03  0.83627711119E+02 0.  0.
         11    1    4    4    0    0  0.17353182679E+02 -0.13501068400E+02  0.74815749612E+00  0.21999353097E+02  0.00000000000E+00 0. -1.
        -12    1    4    4    0    0  0.77786368372E+01  0.99372079912E+02  0.33797993610E+02  0.10525028185E+03  0.00000000000E+00 0.  1.
        -11    1    3    3    0    0  0.64734848705E+01 -0.36640121911E+02 -0.42755173289E+02  0.56678120849E+02  0.00000000000E+00 0.  1.
         11    1    3    3    0    0 -0.44189896905E+02 -0.26752166503E+02  0.32229364518E+02  0.60886429837E+02  0.00000000000E+00 0. -1.
          2    1    1    2  501    0  0.12584592518E+02 -0.22478723098E+02 -0.28509842791E+02  0.38424941079E+02  0.00000000000E+00 0. -1.
<scales pt_clust_5="13000.00000" pt_clust_6="13000.00000" pt_clust_7="13000.00000" pt_clust_8="13000.00000" pt_clust_9="25.76171"></scales>
<clustering>
<clus scale="   25.762">  1  9  2 -1</clus>
<clus scale="   83.628">  5  6 -1 -1</clus>
<clus scale="   90.937">  7  8 -1 -1</clus>
<clus scale="  115.311">  1  5  2 -1</clus>
<clus scale="   25.762">  1  5  2 -1</clus>
</clustering>
</event>
<event>
 9    1  0.7586638E-005  0.1308652E+03  0.7546771E-02  0.1229380E+00
          1   -1    0    0  502    0 -0.00000000000E+00  0.00000000000E+00  0.50749932522E+03  0.50749932522E+03  0.00000000000E+00 0. -1.
         21   -1    0    0  501  502  0.00000000000E+00 -0.00000000000E+00 -0.84063705710E+02  0.84063705710E+02  0.00000000000E+00 0. -1.
        -24    2    1    2    0    0  0.91208101311E+02 -0.15457718250E+02  0.37499136870E+03  0.39467904226E+03  0.81210596619E+02 0.  0.
         23    2    1    2    0    0 -0.91684244550E+02 -0.35066721363E+02  0.15078224684E+02  0.13633452616E+03  0.93402754337E+02 0.  0.
         13    1    3    3    0    0  0.97140865821E+02 -0.15147188650E+02  0.37601073926E+03  0.38865133625E+03  0.00000000000E+00 0. -1.
        -14    1    3    3    0    0 -0.59327645098E+01 -0.31052960021E+00 -0.10193705578E+01  0.60277060060E+01  0.00000000000E+00 0.  1.
        -13    1    4    4    0    0 -0.18035986072E+02  0.29159161505E+02 -0.94876776428E+01  0.35574843925E+02  0.00000000000E+00 0.  1.
         13    1    4    4    0    0 -0.73648258478E+02 -0.64225882868E+02  0.24565902327E+02  0.10075968224E+03  0.00000000000E+00 0. -1.
          2    1    1    2  501    0  0.47614323877E+00  0.50524439614E+02  0.33366026127E+02  0.60549462509E+02  0.00000000000E+00 0. -1.
<scales pt_clust_5="13000.00000" pt_clust_6="13000.00000" pt_clust_7="13000.00000" pt_clust_8="13000.00000" pt_clust_9="50.52668"></scales>
<clustering>
<clus scale="   50.527">  2  9  1 -1</clus>
<clus scale="   81.211">  5  6 -1 -1</clus>
<clus scale="   93.403">  7  8 -1 -1</clus>
<clus scale="  122.461">  1  5  2 -1</clus>
<clus scale="   50.527">  2  5  1 -1</clus>
</clustering>
</event>
<event>
 9    1  0.7586638E-005  0.9380617E+02  0.7546771E-02  0.1299830E+00
         21   -1    0    0  501  502  0.00000000000E+00  0.00000000000E+00  0.61765606380E+02  0.61765606380E+02  0.00000000000E+00 0.  1.
          1   -1    0    0  502    0 -0.00000000000E+00 -0.00000000000E+00 -0.37070417361E+03  0.37070417361E+03  0.00000000000E+00 0. -1.
        -24    2    1    2    0    0  0.16142290105E+02  0.76765992258E+01 -0.15869624109E+03  0.17878812591E+03  0.80381548410E+02 0.  0.
         23    2    1    2    0    0 -0.58112198740E+02  0.47346838592E+02 -0.41261295998E+02  0.12458511319E+03  0.90554983921E+02 0.  0.
         11    1    3    3    0    0  0.19016212202E+02  0.41291876588E+02 -0.11443953815E+03  0.12313830960E+03  0.00000000000E+00 0. -1.
        -12    1    3    3    0    0 -0.28739220968E+01 -0.33615277362E+02 -0.44256702933E+02  0.55649816306E+02  0.00000000000E+00 0.  1.
        -11    1    4    4    0    0 -0.31018534470E+02  0.99407968683E+01  0.26903202672E+02  0.42246316255E+02  0.00000000000E+00 0.  1.
         11    1    4    4    0    0 -0.27093664269E+02  0.37406041724E+02 -0.68164498671E+02  0.82338796931E+02  0.00000000000E+00 0. -1.
          2    1    1    2  501    0  0.41969908635E+02 -0.55023437818E+02 -0.10898103015E+03  0.12909654090E+03  0.00000000000E+00 0. -1.
<scales pt_clust_5="13000.00000" pt_clust_6="13000.00000" pt_clust_7="13000.00000" pt_clust_8="13000.00000" pt_clust_9="69.20301"></scales>
<clustering>
<clus scale="   69.203">  1  9  2 -1</clus>
<clus scale="   80.382">  5  6 -1 -1</clus>
<clus scale="   84.027">  2  5  1 -1</clus>
<clus scale="   90.555">  7  8 -1 -1</clus>
<clus scale="   69.203">  1  5  2 -1</clus>
</clustering>
</event>
<event>
 9    1  0.7586638E-005  0.1300287E+03  0.7546771E-02  0.1229013E+00
         21   -1    0    0  501  502  0.00000000000E+00  0.00000000000E+00  0.24046071305E+03  0.24046071305E+03  0.00000000000E+00 0.  1.
          1   -1    0    0  502    0 -0.00000000000E+00 -0.00000000000E+00 -0.40934934703E+03  0.40934934703E+03  0.00000000000E+00 0. -1.
        -24    2    1    2    0    0 -0.22631929668E+02  0.91041248694E+02 -0.29471842064E+03  0.32118052764E+03  0.86586781141E+02 0.  0.
         23    2    1    2    0    0 -0.86550984504E+02 -0.74656168244E+02  0.15573900419E+03  0.21424447703E+03  0.92636073623E+02 0.  0.
         13    1    3    3    0    0 -0.38243720659E+02  0.64145951944E+02 -0.27355117616E+03  0.28356221768E+03  0.00000000000E+00 0. -1.
        -14    1    3    3    0    0  0.15611790990E+02  0.26895296750E+02 -0.21167244482E+02  0.37618309959E+02  0.00000000000E+00 0.  1.
        -11    1    4    4    0    0  0.18618584435E+02 -0.24039680715E+02  0.32767694453E+02  0.44702122266E+02  0.00000000000E+00 0. -1.
         11    1    4    4    0    0 -0.10516956894E+03 -0.50616487529E+02  0.12297130973E+03  0.16954235476E+03  0.00000000000E+00 0.  1.
          2    1    1    2  501    0  0.10918291417E+03 -0.16385080450E+02 -0.29909217524E+02  0.11438505541E+03  0.00000000000E+00 0. -1.
<scales pt_clust_5="13000.00000" pt_clust_6="13000.00000" pt_clust_7="13000.00000" pt_clust_8="13000.00000" pt_clust_9="110.40558"></scales>
<clustering>
<clus scale="   86.587">  5  6 -1 -1</clus>
<clus scale="   92.636">  7  8 -1 -1</clus>
<clus scale="  110.406">  1  9  2 -1</clus>
<clus scale="  125.791">  2  5  1 -1</clus>
<clus scale="  110.406">  1  5  2 -1</clus>
</clustering>
</event>
<event>
 9    1  0.7586638E-005  0.1543739E+03  0.7546771E-02  0.1197261E+00
          1   -1    0    0  502    0 -0.00000000000E+00  0.00000000000E+00  0.67441552268E+03  0.67441552268E+03  0.00000000000E+00 0. -1.
         21   -1    0    0  501  502  0.00000000000E+00 -0.00000000000E+00 -0.43114069195E+02  0.43114069195E+02  0.00000000000E+00 0. -1.
        -24    2    1    2    0    0 -0.11081502214E+03  0.27871506171E+02  0.24571175169E+03  0.28299420384E+03  0.81576127013E+02 0.  0.
         23    2    1    2    0    0  0.12699527113E+03 -0.43307358943E+02  0.26096203790E+03  0.30791737741E+03  0.93319879221E+02 0.  0.
         11    1    3    3    0    0 -0.55644085565E+02  0.53430006804E+02  0.11075890466E+03  0.13497616400E+03  0.00000000000E+00 0. -1.
        -12    1    3    3    0    0 -0.55170936579E+02 -0.25558500632E+02  0.13495284703E+03  0.14801803984E+03  0.00000000000E+00 0.  1.
        -13    1    4    4    0    0  0.59277113197E+02  0.86394823292E+00  0.37179751701E+02  0.69977542769E+02  0.00000000000E+00 0.  1.
         13    1    4    4    0    0  0.67718157928E+02 -0.44171307176E+02  0.22378228620E+03  0.23793983464E+03  0.00000000000E+00 0. -1.
          2    1    1    2  501    0 -0.16180248982E+02  0.15435852772E+02  0.12462766389E+03  0.12661801062E+03  0.00000000000E+00 0. -1.
<scales pt_clust_5="13000.00000" pt_clust_6="13000.00000" pt_clust_7="13000.00000" pt_clust_8="13000.00000" pt_clust_9="22.36217"></scales>
<clustering>
<clus scale="   22.362">  2  9  1 -1</clus>
<clus scale="   81.576">  5  6 -1 -1</clus>
<clus scale="   93.320">  7  8 -1 -1</clus>
<clus scale="  147.572">  1  5  2 -1</clus>
<clus scale="   22.362">  2  5  1 -1</clus>
</clustering>
</event>
<event>
 9    1  0.7586638E-005  0.2207662E+03  0.7546771E-02  0.1133767E+00
         21   -1    0    0  501  502  0.00000000000E+00  0.00000000000E+00  0.39719303122E+03  0.39719303122E+03  0.00000000000E+00 0.  1.
          1   -1    0    0  502    0 -0.00000000000E+00 -0.00000000000E+00 -0.18294159014E+03  0.18294159014E+03  0.00000000000E+00 0. -1.
         23    2    1    2    0    0  0.95920683340E+02 -0.13257865531E+03  0.87267524285E+02  0.20658589783E+03  0.91017773267E+02 0.  0.
        -24    2    1    2    0    0 -0.17215448867E+03  0.17703763982E+03  0.77635027336E+02  0.27243736279E+03  0.84943659515E+02 0.  0.
         13    1    4    4    0    0 -0.16009329288E+03  0.18649354965E+03  0.72071762273E+02  0.25613286670E+03  0.00000000000E+00 0. -1.
        -14    1    4    4    0    0 -0.12061195784E+02 -0.94559098303E+01  0.55632650633E+01  0.16304496086E+02  0.00000000000E+00 0.  1.
        -11    1    3    3    0    0  0.16842067011E+02 -0.19312713117E+02 -0.19330884766E+02  0.32098585872E+02  0.00000000000E+00 0. -1.
         11    1    3    3    0    0  0.79078616329E+02 -0.11326594220E+03  0.10659840905E+03  0.17448731196E+03  0.00000000000E+00 0.  1.
          2    1    1    2  501    0  0.76233805328E+02 -0.44458984512E+02  0.49348889463E+02  0.10111136074E+03  0.00000000000E+00 0. -1.
<scales pt_clust_5="13000.00000" pt_clust_6="13000.00000" pt_clust_7="13000.00000" pt_clust_8="13000.00000" pt_clust_9="88.25075"></scales>
<clustering>
<clus scale="   84.944">  5  6 -1 -1</clus>
<clus scale="   88.251">  1  9  2 -1</clus>
<clus scale="   91.018">  7  8 -1 -1</clus>
<clus scale="  218.332">  1  5  2 -1</clus>
<clus scale="   88.251">  1  5  2 -1</clus>
</clustering>
</event>
<event>
 9    1  0.7586638E-005  0.1852435E+03  0.7546771E-02  0.1164805E+00
          1   -1    0    0  502    0 -0.00000000000E+00  0.00000000000E+00  0.45904760715E+03  0.45904760715E+03  0.00000000000E+00 0. -1.
         21   -1    0    0  501  502  0.00000000000E+00 -0.00000000000E+00 -0.16784581527E+03  0.16784581527E+03  0.00000000000E+00 0. -1.
         23    2    1    2    0    0  0.12222309206E+03  0.63355969402E+02  0.18940248145E+03  0.25317257975E+03  0.96283913848E+02 0.  0.
        -24    2    1    2    0    0 -0.19247080852E+03 -0.13054379888E+03  0.19648698497E+02  0.24645077887E+03  0.79153139507E+02 0.  0.
         13    1    4    4    0    0 -0.74226395385E+02 -0.72999413394E+01  0.11462164578E+02  0.75460109543E+02  0.00000000000E+00 0. -1.
        -14    1    4    4    0    0 -0.11824441314E+03 -0.12324385754E+03  0.81865339189E+01  0.17099066933E+03  0.00000000000E+00 0.  1.
        -11    1    3    3    0    0  0.62336121896E+02  0.43726374046E+02  0.17152151663E+03  0.18766304524E+03  0.00000000000E+00 0.  1.
         11    1    3    3    0    0  0.59886970161E+02  0.19629595356E+02  0.17880964820E+02  0.65509534511E+02  0.00000000000E+00 0. -1.
          2    1    1    2  501    0  0.70247716468E+02  0.67187829475E+02  0.82150611928E+02  0.12727006380E+03  0.00000000000E+00 0. -1.
<scales pt_clust_5="13000.00000" pt_clust_6="13000.00000" pt_clust_7="13000.00000" pt_clust_8="13000.00000" pt_clust_9="97.20574"></scales>
<clustering>
<clus scale="   79.153">  5  6 -1 -1</clus>
<clus scale="   96.284">  7  8 -1 -1</clus>
<clus scale="   97.206">  2  9  1 -1</clus>
<clus scale="  176.946">  2  5  1 -1</clus>
<clus scale="   97.206">  2  5  1 -1</clus>
</clustering>
</event>
<event>
 9    1  0.7586638E-005  0.2269900E+03  0.7546771E-02  0.1142616E+00
         21   -1    0    0  501  502  0.00000000000E+00  0.00000000000E+00  0.35889503961E+03  0.35889503961E+03  0.00000000000E+00 0.  1.
          1   -1    0    0  502    0 -0.00000000000E+00 -0.00000000000E+00 -0.44620072977E+03  0.44620072977E+03  0.00000000000E+00 0. -1.
         23    2    1    2    0    0  0.10710028368E+03 -0.71589639696E+02 -0.25680973112E+02  0.16416274999E+03  0.98459884364E+02 0.  0.
        -24    2    1    2    0    0 -0.13147543078E+03 -0.16770075886E+03  0.18735816890E+03  0.29474445787E+03  0.79761385222E+02 0.  0.
         13    1    4    4    0    0 -0.52247684722E+02 -0.42756704847E+02  0.18009733703E+02  0.69873506254E+02  0.00000000000E+00 0. -1.
        -14    1    4    4    0    0 -0.79227746059E+02 -0.12494405401E+03  0.16934843520E+03  0.22487095162E+03  0.00000000000E+00 0.  1.
        -13    1    3    3    0    0  0.83456395571E+02 -0.96316294783E+02 -0.25400308804E+02  0.12994989146E+03  0.00000000000E+00 0. -1.
         13    1    3    3    0    0  0.23643888107E+02  0.24726655087E+02 -0.28066430810E+00  0.34212858534E+02  0.00000000000E+00 0.  1.
          2    1    1    2  501    0  0.24375147103E+02  0.23929039855E+03 -0.24898288595E+03  0.34618856153E+03  0.00000000000E+00 0. -1.
<scales pt_clust_5="13000.00000" pt_clust_6="13000.00000" pt_clust_7="13000.00000" pt_clust_8="13000.00000" pt_clust_9="212.51505"></scales>
<clustering>
<clus scale="   79.761">  5  6 -1 -1</clus>
<clus scale="   98.460">  7  8 -1 -1</clus>
<clus scale="  162.142">  2  7  1 -1</clus>
<clus scale="  212.515">  1  9  2 -1</clus>
<clus scale="  212.515">  1  5  2 -1</clus>
</clustering>
</event>
<event>
 9    1  0.7586638E-005  0.9217787E+02  0.7546771E-02  0.1304420E+00
          3   -1    0    0  502    0 -0.00000000000E+00  0.00000000000E+00  0.15452004009E+03  0.15452004009E+03  0.00000000000E+00 0. -1.
         21   -1    0    0  501  502  0.00000000000E+00 -0.00000000000E+00 -0.12418179915E+03  0.12418179915E+03  0.00000000000E+00 0.  1.
         23    2    1    2    0    0 -0.14718448367E+02 -0.58030404102E+01  0.79631104430E+02  0.12213078023E+03  0.91238734577E+02 0.  0.
        -24    2    1    2    0    0  0.20519718985E+01 -0.45462130173E+02 -0.47274224320E+02  0.10372569738E+03  0.80331514015E+02 0.  0.
         13    1    4    4    0    0  0.32530720249E+02 -0.36278112061E+01  0.12792437031E+01  0.32757369225E+02  0.00000000000E+00 0. -1.
        -14    1    4    4    0    0 -0.30478748351E+02 -0.41834318966E+02 -0.48553468023E+02  0.70968328158E+02  0.00000000000E+00 0.  1.
        -11    1    3    3    0    0  0.31595335003E+02 -0.10851790639E+02  0.65365239133E+02  0.73407363670E+02  0.00000000000E+00 0. -1.
         11    1    3    3    0    0 -0.46313783370E+02  0.50487502286E+01  0.14265865297E+02  0.48723416563E+02  0.00000000000E+00 0.  1.
          4    1    1    2  501    0  0.12666476468E+02  0.51265170583E+02 -0.20186391668E+01  0.52845361623E+02  0.00000000000E+00 0. -1.
<scales pt_clust_5="13000.00000" pt_clust_6="13000.00000" pt_clust_7="13000.00000" pt_clust_8="13000.00000" pt_clust_9="52.80679"></scales>
<clustering>
<clus scale="   52.807">  2  9  1 -1</clus>
<clus scale="   80.332">  5  6 -1 -1</clus>
<clus scale="   81.397">  2  5  1 -1</clus>
<clus scale="   91.239">  7  8 -1 -1</clus>
<clus scale="   52.807">  2  5  1 -1</clus>
</clustering>
</event>
<event>
 9    1  0.7586638E-005  0.1624073E+03  0.7546771E-02  0.1187194E+00
         -2   -1    0    0    0  501 -0.00000000000E+00  0.00000000000E+00  0.22729630600E+03  0.22729630600E+03  0.00000000000E+00 0.  1.
         21   -1    0    0  501  502  0.00000000000E+00 -0.00000000000E+00 -0.41668957738E+03  0.41668957738E+03  0.00000000000E+00 0.  1.
        -24    2    1    2    0    0 -0.17966005631E+01 -0.14566976058E+03  0.16393949569E+03  0.23334917201E+03  0.79704271588E+02 0.  0.
         23    2    1    2    0    0 -0.33503201579E+02  0.66903163689E+02 -0.25446091189E+03  0.27938924829E+03  0.87803750234E+02 0.  0.
         13    1    3    3    0    0  0.19209893577E+02 -0.13336161946E+02  0.58001675072E+02  0.62538528428E+02  0.00000000000E+00 0. -1.
        -14    1    3    3    0    0 -0.21006494140E+02 -0.13233359864E+03  0.10593782062E+03  0.17081064358E+03  0.00000000000E+00 0.  1.
        -13    1    4    4    0    0 -0.22507330771E+02  0.26662508268E+02 -0.17971019744E+02  0.39248271761E+02  0.00000000000E+00 0. -1.
         13    1    4    4    0    0 -0.10995870808E+02  0.40240655421E+02 -0.23648989215E+03  0.24014097653E+03  0.00000000000E+00 0.  1.
         -1    1    1    2    0  502  0.35299802142E+02  0.78766596894E+02 -0.98871855174E+02  0.13124746307E+03  0.00000000000E+00 0.  1.
<scales pt_clust_5="13000.00000" pt_clust_6="13000.00000" pt_clust_7="13000.00000" pt_clust_8="13000.00000" pt_clust_9="86.31485"></scales>
<clustering>
<clus scale="   79.704">  5  6 -1 -1</clus>
<clus scale="   86.315">  2  9  1 -1</clus>
<clus scale="   87.804">  7  8 -1 -1</clus>
<clus scale="  158.175">  1  5  2 -1</clus>
<clus scale="   86.315">  2  5  1 -1</clus>
</clustering>
</event>
<event>
 9    1  0.7586638E-005  0.1690216E+03  0.7546771E-02  0.1200959E+00
         21   -1    0    0  501  502  0.00000000000E+00  0.00000000000E+00  0.63407318028E+03  0.63407318028E+03  0.00000000000E+00 0. -1.
          1   -1    0    0  502    0 -0.00000000000E+00 -0.00000000000E+00 -0.73750565661E+02  0.73750565661E+02  0.00000000000E+00 0. -1.
        -24    2    1    2    0    0  0.24907743309E+02  0.59213051517E+02  0.12714729975E+03  0.16410056913E+03  0.81461523487E+02 0.  0.
         23    2    1    2    0    0 -0.15722346454E+03 -0.23050376694E+02  0.18928428248E+03  0.26390533461E+03  0.92557810962E+02 0.  0.
         11    1    3    3    0    0  0.14199240630E+02  0.68910462475E+02  0.13139113147E+03  0.14904328131E+03  0.00000000000E+00 0. -1.
        -12    1    3    3    0    0  0.10708502679E+02 -0.96974109574E+01 -0.42438317242E+01  0.15057287824E+02  0.00000000000E+00 0.  1.
        -11    1    4    4    0    0 -0.44921609890E+02 -0.32776235638E+02  0.11823816161E+03  0.13066175997E+03  0.00000000000E+00 0.  1.
         11    1    4    4    0    0 -0.11230185465E+03  0.97258589441E+01  0.71046120872E+02  0.13324357464E+03  0.00000000000E+00 0. -1.
          2    1    1    2  501    0  0.13231572123E+03 -0.36162674824E+02  0.24389103239E+03  0.27981784220E+03  0.00000000000E+00 0. -1.
<scales pt_clust_5="13000.00000" pt_clust_6="13000.00000" pt_clust_7="13000.00000" pt_clust_8="13000.00000" pt_clust_9="141.42614"></scales>
<clustering>
<clus scale="   81.462">  5  6 -1 -1</clus>
<clus scale="   92.558">  7  8 -1 -1</clus>
<clus scale="  103.743">  2  5  1 -1</clus>
<clus scale="  141.426">  1  9  2 -1</clus>
<clus scale="  141.426">  1  5  2 -1</clus>
</clustering>
</event>
<event>
 9    1  0.7586638E-005  0.1827845E+03  0.7546771E-02  0.1166539E+00
          1   -1    0    0  502    0 -0.00000000000E+00  0.00000000000E+00  0.16075671262E+04  0.16075671262E+04  0.00000000000E+00 0. -1.
         21   -1    0    0  501  502  0.00000000000E+00 -0.00000000000E+00 -0.31481383331E+02  0.31481383331E+02  0.00000000000E+00 0. -1.
         23    2    1    2    0    0 -0.16866706464E+03  0.14566130508E+02  0.90056812141E+03  0.92093156372E+03  0.91821854129E+02 0.  0.
        -24    2    1    2    0    0  0.14378304024E+03  0.45526695633E+02  0.56178010415E+03  0.58709562973E+03  0.79612501255E+02 0.  0.
         13    1    4    4    0    0  0.14619773051E+03  0.31617860262E+02  0.54506837405E+03  0.56521942454E+03  0.00000000000E+00 0. -1.
        -14    1    4    4    0    0 -0.24146902671E+01  0.13908835371E+02  0.16711730098E+02  0.21876205186E+02  0.00000000000E+00 0.  1.
        -13    1    3    3    0    0 -0.13300533701E+03  0.47170141624E+02  0.73639706095E+03  0.74979735483E+03  0.00000000000E+00 0. -1.
         13    1    3    3    0    0 -0.35661727632E+02 -0.32604011116E+02  0.16417106046E+03  0.17113420888E+03  0.00000000000E+00 0.  1.
          2    1    1    2  501    0  0.24884024401E+02 -0.60092826141E+02  0.11373751731E+03  0.13102131608E+03  0.00000000000E+00 0. -1.
<scales pt_clust_5="13000.00000" pt_clust_6="13000.00000" pt_clust_7="13000.00000" pt_clust_8="13000.00000" pt_clust_9="65.04124"></scales>
<clustering>
<clus scale="   65.041">  2  9  1 -1</clus>
<clus scale="   79.613">  5  6 -1 -1</clus>
<clus scale="   91.822">  7  8 -1 -1</clus>
<clus scale="  176.966">  2  5  1 -1</clus>
<clus scale="   65.041">  2  5  1 -1</clus>
</clustering>
</event>
<event>
 9    1  0.7586638E-005  0.1014312E+03  0.7546771E-02  0.1282377E+00
         21   -1    0    0  501  502  0.00000000000E+00  0.00000000000E+00  0.14614395240E+03  0.14614395240E+03  0.00000000000E+00 0. -1.
         -4   -1    0    0    0  501 -0.00000000000E+00 -0.00000000000E+00 -0.24832242262E+03  0.24832242262E+03  0.00000000000E+00 0.  1.
        -24    2    1    2    0    0 -0.22660356472E+02  0.47228696554E+02 -0.13987225232E+03  0.17022497220E+03  0.81659369695E+02 0.  0.
         23    2    1    2    0    0 -0.56519624534E+02 -0.21446972258E+00  0.67600132347E+02  0.12742096746E+03  0.92042441848E+02 0.  0.
         13    1    3    3    0    0 -0.36023917228E+02  0.35674595582E+02 -0.14349797759E+03  0.15219089643E+03  0.00000000000E+00 0. -1.
        -14    1    3    3    0    0  0.13363560756E+02  0.11554100971E+02  0.36257252723E+01  0.18034075776E+02  0.00000000000E+00 0.  1.
        -11    1    4    4    0    0 -0.21404370721E+02  0.12641832221E+02  0.83250950927E+02  0.86883161994E+02  0.00000000000E+00 0. -1.
         11    1    4    4    0    0 -0.35115253814E+02 -0.12856301944E+02 -0.15650818580E+02  0.40537805470E+02  0.00000000000E+00 0.  1.
         -3    1    1    2    0  502  0.79179981006E+02 -0.47014226831E+02 -0.29906350242E+02  0.96820435351E+02  0.00000000000E+00 0.  1.
<scales pt_clust_5="13000.00000" pt_clust_6="13000.00000" pt_clust_7="13000.00000" pt_clust_8="13000.00000" pt_clust_9="92.08591"></scales>
<clustering>
<clus scale="   81.659">  5  6 -1 -1</clus>
<clus scale="   92.042">  7  8 -1 -1</clus>
<clus scale="   92.086">  1  9  2 -1</clus>
<clus scale="   92.113">  2  5  1 -1</clus>
<clus scale="   92.086">  1  5  2 -1</clus>
</clustering>
</event>
<event>
 9    1  0.1022610E-004  0.1100015E+03  0.7546771E-02  0.1266298E+00
          1   -1    0    0  502    0 -0.00000000000E+00  0.00000000000E+00  0.80539683603E+03  0.80539683603E+03  0.00000000000E+00 0. -1.
         21   -1    0    0  501  502  0.00000000000E+00 -0.00000000000E+00 -0.74089925770E+02  0.74089925770E+02  0.00000000000E+00 0.  1.
        -24    2    1    2    0    0 -0.47486579146E+02  0.38440821840E+02  0.66796379365E+03  0.67531135164E+03  0.78339773136E+02 0.  0.
         23    2    1    2    0    0  0.46076363518E+02  0.90873637247E+01 -0.22358462464E+02  0.10616685039E+03  0.92552081679E+02 0.  0.
         11    1    3    3    0    0 -0.65339179075E+02  0.36398443677E+02  0.41319867702E+03  0.41991332644E+03  0.00000000000E+00 0. -1.
        -12    1    3    3    0    0  0.17852599929E+02  0.20423781627E+01  0.25476511662E+03  0.25539802521E+03  0.00000000000E+00 0.  1.
        -13    1    4    4    0    0  0.39712765949E+02 -0.23455904259E+02 -0.46234122407E+02  0.65306028042E+02  0.00000000000E+00 0.  1.
         13    1    4    4    0    0  0.63635975689E+01  0.32543267983E+02  0.23875659943E+02  0.40860822346E+02  0.00000000000E+00 0. -1.
          2    1    1    2  501    0  0.14102156286E+01 -0.47528185565E+02  0.85701579080E+02  0.98008559769E+02  0.00000000000E+00 0. -1.
<scales pt_clust_5="13000.00000" pt_clust_6="13000.00000" pt_clust_7="13000.00000" pt_clust_8="13000.00000" pt_clust_9="47.54913"></scales>
<clustering>
<clus scale="   47.549">  2  9  1 -1</clus>
<clus scale="   78.340">  5  6 -1 -1</clus>
<clus scale="   92.552">  7  8 -1 -1</clus>
<clus scale="   98.344">  1  5  2 -1</clus>
<clus scale="   47.549">  2  5  1 -1</clus>
</clustering>
</event>
<event>
 9    1  0.7586638E-005  0.9721294E+02  0.7546771E-02  0.1293174E+00
         21   -1    0    0  501  502  0.00000000000E+00  0.00000000000E+00  0.12000932106E+03  0.12000932106E+03  0.00000000000E+00 0.  1.
         -4   -1    0    0    0  501 -0.00000000000E+00 -0.00000000000E+00 -0.40828121561E+03  0.40828121561E+03  0.00000000000E+00 0.  1.
        -24    2    1    2    0    0  0.26591930100E+02 -0.33535674082E+02 -0.27184959617E+03  0.28673732659E+03  0.80525271429E+02 0.  0.
         23    2    1    2    0    0  0.37180676524E+02  0.61325125756E+01 -0.93997278391E+02  0.13745827196E+03  0.92947715241E+02 0.  0.
         11    1    3    3    0    0 -0.27544271570E+02 -0.88321819792E+01 -0.58741126642E+02  0.65476822572E+02  0.00000000000E+00 0. -1.
        -12    1    3    3    0    0  0.54136201670E+02 -0.24703492102E+02 -0.21310846953E+03  0.22126050402E+03  0.00000000000E+00 0.  1.
        -11    1    4    4    0    0 -0.22307270769E+02  0.28855325461E+02 -0.37804805684E+02  0.52530443263E+02  0.00000000000E+00 0. -1.
         11    1    4    4    0    0  0.59487947293E+02 -0.22722812885E+02 -0.56192472707E+02  0.84927828699E+02  0.00000000000E+00 0.  1.
         -3    1    1    2    0  502 -0.63772606624E+02  0.27403161506E+02  0.77574980019E+02  0.10409493812E+03  0.00000000000E+00 0.  1.
<scales pt_clust_5="13000.00000" pt_clust_6="13000.00000" pt_clust_7="13000.00000" pt_clust_8="13000.00000" pt_clust_9="69.41094"></scales>
<clustering>
<clus scale="   69.411">  1  9  2 -1</clus>
<clus scale="   80.525">  5  6 -1 -1</clus>
<clus scale="   85.413">  2  5  1 -1</clus>
<clus scale="   92.948">  7  8 -1 -1</clus>
<clus scale="   69.411">  1  5  2 -1</clus>
</clustering>
</event>
<event>
 9    1  0.7586638E-005  0.9510113E+02  0.7546771E-02  0.1295256E+00
          1   -1    0    0  502    0 -0.00000000000E+00  0.00000000000E+00  0.48095632458E+03  0.48095632458E+03  0.00000000000E+00 0. -1.
         21   -1    0    0  501  502  0.00000000000E+00 -0.00000000000E+00 -0.36480904410E+02  0.36480904410E+02  0.00000000000E+00 0.  1.
         23    2    1    2    0    0 -0.15159470510E+02 -0.22470650631E+02  0.28505551066E+03  0.29957359119E+03  0.88050852911E+02 0.  0.
        -24    2    1    2    0    0  0.52027463117E+02  0.40984098793E+02  0.91815554999E+02  0.13866549772E+03  0.80071660700E+02 0.  0.
         11    1    4    4    0    0 -0.15273634407E+02  0.32665839635E+02  0.30051431389E+02  0.46940702120E+02  0.00000000000E+00 0. -1.
        -12    1    4    4    0    0  0.67301097524E+02  0.83182591580E+01  0.61764123610E+02  0.91724795604E+02  0.00000000000E+00 0.  1.
        -11    1    3    3    0    0 -0.19968692753E+02  0.29138605696E+02  0.16612034111E+03  0.16983455115E+03  0.00000000000E+00 0.  1.
         11    1    3    3    0    0  0.48092222432E+01 -0.51609256327E+02  0.11893516954E+03  0.12973904004E+03  0.00000000000E+00 0. -1.
          2    1    1    2  501    0 -0.36867992607E+02 -0.18513448161E+02  0.67604354509E+02  0.79198140069E+02  0.00000000000E+00 0. -1.
<scales pt_clust_5="13000.00000" pt_clust_6="13000.00000" pt_clust_7="13000.00000" pt_clust_8="13000.00000" pt_clust_9="41.25526"></scales>
<clustering>
<clus scale="   41.255">  2  9  1 -1</clus>
<clus scale="   80.072">  5  6 -1 -1</clus>
<clus scale="   87.765">  2  5  1 -1</clus>
<clus scale="   88.051">  7  8 -1 -1</clus>
<clus scale="   41.255">  2  5  1 -1</clus>
</clustering>
</event>
<event>
 9    1  0.7586638E-005  0.1524679E+03  0.7546771E-02  0.1198823E+00
         21   -1    0    0  501  502  0.00000000000E+00  0.00000000000E+00  0.14870930229E+03  0.14870930229E+03  0.00000000000E+00 0. -1.
          1   -1    0    0  502    0 -0.00000000000E+00 -0.00000000000E+00 -0.68099889663E+03  0.68099889663E+03  0.00000000000E+00 0. -1.
        -24    2    1    2    0    0  0.14081031824E+03 -0.22554256504E+02 -0.50323681711E+03  0.52898583255E+03  0.79009345841E+02 0.  0.
         23    2    1    2    0    0 -0.81112775905E+02  0.48312987577E+02 -0.12866795441E+03  0.18176652452E+03  0.87006894890E+02 0.  0.
         13    1    3    3    0    0  0.90439219760E+02 -0.47408305134E+02 -0.38126548788E+03  0.39470263758E+03  0.00000000000E+00 0. -1.
        -14    1    3    3    0    0  0.50371098482E+02  0.24854048630E+02 -0.12197132923E+03  0.13428319497E+03  0.00000000000E+00 0.  1.
        -13    1    4    4    0    0 -0.14651777486E+02  0.58238438338E+02 -0.72836813818E+02  0.94401227379E+02  0.00000000000E+00 0. -1.
         13    1    4    4    0    0 -0.66460998419E+02 -0.99254507616E+01 -0.55831140594E+02  0.87365297137E+02  0.00000000000E+00 0.  1.
          2    1    1    2  501    0 -0.59697542336E+02 -0.25758731073E+02  0.99615177186E+02  0.11895584186E+03  0.00000000000E+00 0. -1.
<scales pt_clust_5="13000.00000" pt_clust_6="13000.00000" pt_clust_7="13000.00000" pt_clust_8="13000.00000" pt_clust_9="65.01776"></scales>
<clustering>
<clus scale="   65.018">  1  9  2 -1</clus>
<clus scale="   79.009">  5  6 -1 -1</clus>
<clus scale="   87.007">  7  8 -1 -1</clus>
<clus scale="  148.050">  2  5  1 -1</clus>
<clus scale="   65.018">  1  5  2 -1</clus>
</clustering>
</event>
<event>
 9    1  0.7586638E-005  0.9282692E+02  0.7546771E-02  0.1303197E+00
         21   -1    0    0  501  502  0.00000000000E+00  0.00000000000E+00  0.76138664258E+02  0.76138664258E+02  0.00000000000E+00 0.  1.
          1   -1    0    0  502    0 -0.00000000000E+00 -0.00000000000E+00 -0.33332524160E+03  0.33332524160E+03  0.00000000000E+00 0. -1.
        -24    2    1    2    0    0 -0.15449759129E+02  0.36010209530E+01 -0.19732627800E+03  0.21316418689E+03  0.79054716316E+02 0.  0.
         23    2    1    2    0    0  0.36903413470E+00 -0.72280086189E+02 -0.45266334887E+02  0.12448588975E+03  0.90681578216E+02 0.  0.
         11    1    3    3    0    0 -0.14510409107E+02  0.31162304056E+02 -0.37080871569E+02  0.50563150642E+02  0.00000000000E+00 0. -1.
        -12    1    3    3    0    0 -0.93935002215E+00 -0.27561283103E+02 -0.16024540643E+03  0.16260103625E+03  0.00000000000E+00 0.  1.
        -11    1    4    4    0    0  0.21031464914E+02 -0.22199355540E+02  0.22325314684E+02  0.37862297587E+02  0.00000000000E+00 0.  1.
         11    1    4    4    0    0 -0.20662430779E+02 -0.50080730649E+02 -0.67591649571E+02  0.86623592166E+02  0.00000000000E+00 0. -1.
          2    1    1    2  501    0  0.15080724994E+02  0.68679065236E+02 -0.14593964446E+02  0.71813829213E+02  0.00000000000E+00 0. -1.
<scales pt_clust_5="13000.00000" pt_clust_6="13000.00000" pt_clust_7="13000.00000" pt_clust_8="13000.00000" pt_clust_9="70.31531"></scales>
<clustering>
<clus scale="   70.315">  1  9  2 -1</clus>
<clus scale="   79.055">  5  6 -1 -1</clus>
<clus scale="   81.507">  2  5  1 -1</clus>
<clus scale="   90.682">  7  8 -1 -1</clus>
<clus scale="   70.315">  1  5  2 -1</clus>
</clustering>
</event>
<event>
 9    1  0.7586638E-005  0.1350442E+03  0.7546771E-02  0.1220283E+00
          3   -1    0    0  502    0 -0.00000000000E+00  0.00000000000E+00  0.37941692119E+03  0.37941692119E+03  0.00000000000E+00 0. -1.
         21   -1    0    0  501  502  0.00000000000E+00 -0.00000000000E+00 -0.86711409369E+02  0.86711409369E+02  0.00000000000E+00 0. -1.
        -24    2    1    2    0    0  0.45877213237E+02 -0.82955962803E+02  0.18673527386E+03  0.22544328235E+03  0.83475748543E+02 0.  0.
         23    2    1    2    0    0 -0.81668114919E+02  0.99609279632E+02  0.12419861905E+03  0.19720406982E+03  0.82900293113E+02 0.  0.
         11    1    3    3    0    0  0.31945779854E+02  0.65899819691E+01  0.73475840371E+02  0.80390670050E+02  0.00000000000E+00 0. -1.
        -12    1    3    3    0    0  0.13931433383E+02 -0.89545944772E+02  0.11325943349E+03  0.14505261230E+03  0.00000000000E+00 0.  1.
        -11    1    4    4    0    0 -0.75741370053E+02  0.32259719200E+02  0.47843726149E+02  0.95217995947E+02  0.00000000000E+00 0. -1.
         11    1    4    4    0    0 -0.59267448660E+01  0.67349560431E+02  0.76354892898E+02  0.10198607388E+03  0.00000000000E+00 0.  1.
          4    1    1    2  501    0  0.35790901682E+02 -0.16653316828E+02 -0.18228381083E+02  0.43480978387E+02  0.00000000000E+00 0. -1.
<scales pt_clust_5="13000.00000" pt_clust_6="13000.00000" pt_clust_7="13000.00000" pt_clust_8="13000.00000" pt_clust_9="39.47558"></scales>
<clustering>
<clus scale="   39.476">  2  9  1 -1</clus>
<clus scale="   82.900">  7  8 -1 -1</clus>
<clus scale="   83.476">  5  6 -1 -1</clus>
<clus scale="  134.689">  2  7  1 -1</clus>
<clus scale="   39.476">  2  5  1 -1</clus>
</clustering>
</event>
<event>
 9    1  0.7586638E-005  0.4154117E+03  0.7546771E-02  0.1081715E+00
          1   -1    0    0  502    0 -0.00000000000E+00  0.00000000000E+00  0.18156192888E+04  0.18156192888E+04  0.00000000000E+00 0. -1.
         21   -1    0    0  501  502  0.00000000000E+00 -0.00000000000E+00 -0.23220664343E+03  0.23220664343E+03  0.00000000000E+00 0. -1.
         23    2    1    2    0    0  0.75625108328E+02 -0.35095694741E+02  0.62515107046E+03  0.63736393341E+03  0.92022051206E+02 0.  0.
        -24    2    1    2    0    0  0.26985014986E+03 -0.21102080568E+03  0.91976488669E+03  0.98454125410E+03  0.77492905614E+02 0.  0.
         13    1    4    4    0    0  0.27369766276E+03 -0.20800438532E+03  0.91596354226E+03  0.97834832532E+03  0.00000000000E+00 0. -1.
        -14    1    4    4    0    0 -0.38475129029E+01 -0.30164203606E+01  0.38013444352E+01  0.61929287776E+01  0.00000000000E+00 0.  1.
        -13    1    3    3    0    0 -0.15309594981E+02 -0.26562978324E+02  0.11065228746E+03  0.11482118374E+03  0.00000000000E+00 0.  1.
         13    1    3    3    0    0  0.90934703309E+02 -0.85327164174E+01  0.51449878301E+03  0.52254274967E+03  0.00000000000E+00 0. -1.
          2    1    1    2  501    0 -0.34547525819E+03  0.24611650042E+03  0.38496688231E+02  0.42592074474E+03  0.00000000000E+00 0. -1.
<scales pt_clust_5="13000.00000" pt_clust_6="13000.00000" pt_clust_7="13000.00000" pt_clust_8="13000.00000" pt_clust_9="408.11980"></scales>
<clustering>
<clus scale="   77.493">  5  6 -1 -1</clus>
<clus scale="   92.022">  7  8 -1 -1</clus>
<clus scale="  124.173">  1  7  2 -1</clus>
<clus scale="  408.120">  2  9  1 -1</clus>
<clus scale="  408.120">  2  5  1 -1</clus>
</clustering>
</event>
<event>
 9    1  0.7586638E-005  0.1069753E+03  0.7546771E-02  0.1271819E+00
         21   -1    0    0  501  502  0.00000000000E+00  0.00000000000E+00  0.77658801093E+03  0.77658801093E+03  0.00000000000E+00 0.  1.
         -2   -1    0    0    0  501 -0.00000000000E+00 -0.00000000000E+00 -0.19436412734E+02  0.19436412734E+02  0.00000000000E+00 0.  1.
         23    2    1    2    0    0 -0.60379438930E+02  0.10765117402E+02  0.22586496950E+03  0.25177549203E+03  0.92813520266E+02 0.  0.
        -24    2    1    2    0    0  0.36216587944E+02 -0.21474387660E+02  0.37528508911E+03  0.38602436909E+03  0.80019527965E+02 0.  0.
         13    1    4    4    0    0  0.18080094574E+02 -0.16071709580E+02  0.23484456244E+02  0.33715120550E+02  0.00000000000E+00 0. -1.
        -14    1    4    4    0    0  0.18136493369E+02 -0.54026780805E+01  0.35180063287E+03  0.35230924854E+03  0.00000000000E+00 0.  1.
        -11    1    3    3    0    0  0.22601316540E+02  0.46267039269E+01  0.23310137463E+02  0.32796164518E+02  0.00000000000E+00 0. -1.
         11    1    3    3    0    0 -0.82980755470E+02  0.61384134756E+01  0.20255483203E+03  0.21897932751E+03  0.00000000000E+00 0.  1.
         -1    1    1    2    0  502  0.24162850986E+02  0.10709270258E+02  0.15600153959E+03  0.15822456254E+03  0.00000000000E+00 0.  1.
<scales pt_clust_5="13000.00000" pt_clust_6="13000.00000" pt_clust_7="13000.00000" pt_clust_8="13000.00000" pt_clust_9="26.42975"></scales>
<clustering>
<clus scale="   26.430">  1  9  2 -1</clus>
<clus scale="   80.020">  5  6 -1 -1</clus>
<clus scale="   92.814">  7  8 -1 -1</clus>
<clus scale="   96.086">  1  5  2 -1</clus>
<clus scale="   26.430">  1  5  2 -1</clus>
</clustering>
</event>
<event>
 9    1  0.7586638E-005  0.1045547E+03  0.7546771E-02  0.1276183E+00
          1   -1    0    0  502    0 -0.00000000000E+00  0.00000000000E+00  0.15348137384E+03  0.15348137384E+03  0.00000000000E+00 0. -1.
         21   -1    0    0  501  502  0.00000000000E+00 -0.00000000000E+00 -0.36633837615E+03  0.36633837615E+03  0.00000000000E+00 0. -1.
         23    2    1    2    0    0 -0.67170959255E+02  0.17440754354E+02  0.96126646524E+02  0.14992584260E+03  0.91767687274E+02 0.  0.
        -24    2    1    2    0    0  0.14586451561E+01 -0.13546086230E+02 -0.35912064761E+02  0.89000036520E+02  0.80285154339E+02 0.  0.
         13    1    4    4    0    0 -0.16671666756E+02  0.28954367249E+02 -0.24426673860E+02  0.41387948138E+02  0.00000000000E+00 0. -1.
        -14    1    4    4    0    0  0.18130311912E+02 -0.42500453479E+02 -0.11485390902E+02  0.47612088382E+02  0.00000000000E+00 0.  1.
        -11    1    3    3    0    0 -0.38708729562E+02  0.55191320339E+02  0.62310580016E+02  0.91798997636E+02  0.00000000000E+00 0.  1.
         11    1    3    3    0    0 -0.28462229693E+02 -0.37750565985E+02  0.33816066508E+02  0.58126844963E+02  0.00000000000E+00 0. -1.
          2    1    1    2  501    0  0.65712314098E+02 -0.38946681237E+01 -0.27307158407E+03  0.28089387087E+03  0.00000000000E+00 0. -1.
<scales pt_clust_5="13000.00000" pt_clust_6="13000.00000" pt_clust_7="13000.00000" pt_clust_8="13000.00000" pt_clust_9="65.82763"></scales>
<clustering>
<clus scale="   65.828">  2  9  1 -1</clus>
<clus scale="   80.285">  5  6 -1 -1</clus>
<clus scale="   91.768">  7  8 -1 -1</clus>
<clus scale="   94.637">  2  5  1 -1</clus>
<clus scale="   65.828">  2  5  1 -1</clus>
</clustering>
</event>
<event>
 9    1  0.7586638E-005  0.1840484E+03  0.7546771E-02  0.1189424E+00
         21   -1    0    0  501  502  0.00000000000E+00  0.00000000000E+00  0.20752946235E+03  0.20752946235E+03  0.00000000000E+00 0. -1.
          1   -1    0    0  502    0 -0.00000000000E+00 -0.00000000000E+00 -0.10660500612E+04  0.10660500612E+04  0.00000000000E+00 0. -1.
         23    2    1    2    0    0 -0.17317392098E+02 -0.41970569991E+02 -0.12580338919E+03  0.16287053164E+03  0.92945664403E+02 0.  0.
        -24    2    1    2    0    0  0.17770588851E+03  0.16385339684E+01 -0.87259234293E+03  0.89410752426E+03  0.80179800404E+02 0.  0.
         11    1    4    4    0    0  0.14072427676E+03  0.18909673536E+02 -0.78142751812E+03  0.79422280494E+03  0.00000000000E+00 0. -1.
        -12    1    4    4    0    0  0.36981611748E+02 -0.17271139568E+02 -0.91164824812E+02  0.99884719314E+02  0.00000000000E+00 0.  1.
        -11    1    3    3    0    0  0.26749702998E+02 -0.51303887363E+02 -0.78891227468E+02  0.97833845066E+02  0.00000000000E+00 0. -1.
         11    1    3    3    0    0 -0.44067095096E+02  0.93333173719E+01 -0.46912161718E+02  0.65036686573E+02  0.00000000000E+00 0.  1.
          2    1    1    2  501    0 -0.16038849641E+03  0.40332036022E+02  0.13987513323E+03  0.21660146769E+03  0.00000000000E+00 0. -1.
<scales pt_clust_5="13000.00000" pt_clust_6="13000.00000" pt_clust_7="13000.00000" pt_clust_8="13000.00000" pt_clust_9="165.66536"></scales>
<clustering>
<clus scale="   80.180">  5  6 -1 -1</clus>
<clus scale="   92.946">  7  8 -1 -1</clus>
<clus scale="  103.442">  2  7  1 -1</clus>
<clus scale="  165.665">  1  9  2 -1</clus>
<clus scale="  165.665">  1  5  2 -1</clus>
</clustering>
</event>
<event>
 9    1  0.7586638E-005  0.1245311E+03  0.7546771E-02  0.1240019E+00
         -2   -1    0    0    0  501 -0.00000000000E+00  0.00000000000E+00  0.28541760419E+03  0.28541760419E+03  0.00000000000E+00 0.  1.
         21   -1    0    0  501  502  0.00000000000E+00 -0.00000000000E+00 -0.29955271687E+03  0.29955271687E+03  0.00000000000E+00 0.  1.
        -24    2    1    2    0    0 -0.76858972210E+02  0.10994165756E+02  0.19841021938E+03  0.22780130962E+03  0.80614193674E+02 0.  0.
         23    2    1    2    0    0  0.86231755038E+02 -0.78063459502E+02 -0.17786688915E+02  0.15097233761E+03  0.94585734310E+02 0.  0.
         11    1    3    3    0    0 -0.46762546357E+01  0.34521490916E+02  0.78424969853E+02  0.85814198061E+02  0.00000000000E+00 0. -1.
        -12    1    3    3    0    0 -0.72182717574E+02 -0.23527325160E+02  0.11998524952E+03  0.14198711156E+03  0.00000000000E+00 0.  1.
        -11    1    4    4    0    0  0.85522676996E+02 -0.26923598766E+02  0.14011145779E+02  0.90748667523E+02  0.00000000000E+00 0.  1.
         11    1    4    4    0    0  0.70907804187E+00 -0.51139860736E+02 -0.31797834694E+02  0.60223670089E+02  0.00000000000E+00 0. -1.
         -1    1    1    2    0  502 -0.93727828279E+01  0.67069293747E+02 -0.19475864314E+03  0.20619667383E+03  0.00000000000E+00 0.  1.
<scales pt_clust_5="13000.00000" pt_clust_6="13000.00000" pt_clust_7="13000.00000" pt_clust_8="13000.00000" pt_clust_9="67.72104"></scales>
<clustering>
<clus scale="   67.721">  2  9  1 -1</clus>
<clus scale="   80.614">  5  6 -1 -1</clus>
<clus scale="   94.586">  7  8 -1 -1</clus>
<clus scale="  114.281">  1  5  2 -1</clus>
<clus scale="   67.721">  2  5  1 -1</clus>
</clustering>
</event>
<event>
 9    1  0.7586638E-005  0.1251105E+03  0.7546771E-02  0.1237831E+00
         21   -1    0    0  501  502  0.00000000000E+00  0.00000000000E+00  0.70539135615E+02  0.70539135615E+02  0.00000000000E+00 0.  1.
         -2   -1    0    0    0  501 -0.00000000000E+00 -0.00000000000E+00 -0.44039994685E+03  0.44039994685E+03  0.00000000000E+00 0.  1.
        -24    2    1    2    0    0  0.39799360624E+02 -0.92091085729E+02 -0.30949808679E+03  0.33497285640E+03  0.79705656150E+02 0.  0.
         23    2    1    2    0    0 -0.17014848332E+02  0.36912391425E+02 -0.12902188599E+02  0.99701392959E+02  0.90121426880E+02 0.  0.
         13    1    3    3    0    0 -0.46298374170E+01 -0.36937635302E+02 -0.33660028080E+02  0.50187864933E+02  0.00000000000E+00 0. -1.
        -14    1    3    3    0    0  0.44429198041E+02 -0.55153450427E+02 -0.27583805871E+03  0.28478499147E+03  0.00000000000E+00 0.  1.
        -13    1    4    4    0    0 -0.54457828493E+01 -0.24573166253E+02  0.16985576581E+02  0.30364565900E+02  0.00000000000E+00 0. -1.
         13    1    4    4    0    0 -0.11569065483E+02  0.61485557678E+02 -0.29887765180E+02  0.69336827059E+02  0.00000000000E+00 0.  1.
         -1    1    1    2    0  502 -0.22784512291E+02  0.55178694304E+02 -0.47460535842E+02  0.76264833100E+02  0.00000000000E+00 0.  1.
<scales pt_clust_5="13000.00000" pt_clust_6="13000.00000" pt_clust_7="13000.00000" pt_clust_8="13000.00000" pt_clust_9="59.69776"></scales>
<clustering>
<clus scale="   59.698">  1  9  2 -1</clus>
<clus scale="   79.706">  5  6 -1 -1</clus>
<clus scale="   90.121">  7  8 -1 -1</clus>
<clus scale="  117.829">  2  5  1 -1</clus>
<clus scale="   59.698">  1  5  2 -1</clus>
</clustering>
</event>
<event>
 9    1  0.7586638E-005  0.1040030E+03  0.7546771E-02  0.1276178E+00
         21   -1    0    0  501  502  0.00000000000E+00  0.00000000000E+00  0.58547271214E+02  0.58547271214E+02  0.00000000000E+00 0.  1.
          1   -1    0    0  502    0 -0.00000000000E+00 -0.00000000000E+00 -0.50336428479E+03  0.50336428479E+03  0.00000000000E+00 0. -1.
        -24    2    1    2    0    0 -0.53967332029E+02  0.28183328954E+02 -0.34865649271E+03  0.36333236043E+03  0.82111395463E+02 0.  0.
         23    2    1    2    0    0 -0.51541013572E+00  0.13779013805E+02 -0.17074729194E+02  0.93775713538E+02  0.91171328846E+02 0.  0.
         11    1    3    3    0    0 -0.58313475562E+02  0.48848469604E+02 -0.31090652289E+03  0.32007733501E+03  0.00000000000E+00 0. -1.
        -12    1    3    3    0    0  0.43461435336E+01 -0.20665140650E+02 -0.37749969825E+02  0.43255025414E+02  0.00000000000E+00 0.  1.
        -13    1    4    4    0    0 -0.12835765258E+02 -0.28273436912E+02  0.19526959502E+02  0.36680325134E+02  0.00000000000E+00 0.  1.
         13    1    4    4    0    0  0.12320355122E+02  0.42052450717E+02 -0.36601688696E+02  0.57095388404E+02  0.00000000000E+00 0. -1.
          2    1    1    2  501    0  0.54482742164E+02 -0.41962342759E+02 -0.79085791665E+02  0.10480348204E+03  0.00000000000E+00 0. -1.
<scales pt_clust_5="13000.00000" pt_clust_6="13000.00000" pt_clust_7="13000.00000" pt_clust_8="13000.00000" pt_clust_9="68.76923"></scales>
<clustering>
<clus scale="   68.769">  1  9  2 -1</clus>
<clus scale="   82.111">  5  6 -1 -1</clus>
<clus scale="   91.171">  7  8 -1 -1</clus>
<clus scale="   96.160">  2  5  1 -1</clus>
<clus scale="   68.769">  1  5  2 -1</clus>
</clustering>
</event>
<event>
 9    1  0.7586638E-005  0.2129755E+03  0.7546771E-02  0.1162200E+00
          1   -1    0    0  502    0 -0.00000000000E+00  0.00000000000E+00  0.37820137311E+03  0.37820137311E+03  0.00000000000E+00 0. -1.
         21   -1    0    0  501  502  0.00000000000E+00 -0.00000000000E+00 -0.22157440666E+03  0.22157440666E+03  0.00000000000E+00 0.  1.
        -24    2    1    2    0    0 -0.31546910695E+02  0.81979239528E+02  0.13105534832E+03  0.18019175947E+03  0.87050345029E+02 0.  0.
         23    2    1    2    0    0 -0.13475677305E+03  0.66920607781E+02  0.74276223646E+02  0.19111034928E+03  0.91479246688E+02 0.  0.
         11    1    3    3    0    0 -0.20974133343E+02 -0.12988451904E+02  0.46312017252E+02  0.52473013009E+02  0.00000000000E+00 0. -1.
        -12    1    3    3    0    0 -0.10572777351E+02  0.94967691432E+02  0.84743331067E+02  0.12771874646E+03  0.00000000000E+00 0.  1.
        -11    1    4    4    0    0 -0.11198052323E+03  0.44357593958E+02  0.11969658180E+02  0.12103927644E+03  0.00000000000E+00 0.  1.
         11    1    4    4    0    0 -0.22776249817E+02  0.22563013823E+02  0.62306565466E+02  0.70071072838E+02  0.00000000000E+00 0. -1.
          2    1    1    2  501    0  0.16630368374E+03 -0.14889984731E+03 -0.48704605514E+02  0.22847367103E+03  0.00000000000E+00 0. -1.
<scales pt_clust_5="13000.00000" pt_clust_6="13000.00000" pt_clust_7="13000.00000" pt_clust_8="13000.00000" pt_clust_9="192.32811"></scales>
<clustering>
<clus scale="   87.050">  5  6 -1 -1</clus>
<clus scale="   91.479">  7  8 -1 -1</clus>
<clus scale="  123.667">  1  5  2 -1</clus>
<clus scale="  192.328">  2  9  1 -1</clus>
<clus scale="  192.328">  2  5  1 -1</clus>
</clustering>
</event>
<event>
 9    1  0.7586638E-005  0.1493909E+03  0.7546771E-02  0.1205311E+00
          1   -1    0    0  502    0 -0.00000000000E+00  0.00000000000E+00  0.11899914129E+03  0.11899914129E+03  0.00000000000E+00 0. -1.
         21   -1    0    0  501  502  0.00000000000E+00 -0.00000000000E+00 -0.45251528519E+03  0.45251528519E+03  0.00000000000E+00 0. -1.
         23    2    1    2    0    0  0.97357328974E+02  0.29363460742E+02 -0.28423910672E+02  0.14312034725E+03  0.96617041813E+02 0.  0.
        -24    2    1    2    0    0 -0.15723148106E+03  0.67261413287E+02 -0.18551167304E+03  0.26340683504E+03  0.75648817282E+02 0.  0.
         13    1    4    4    0    0 -0.62311463290E+02 -0.43512396954E+01 -0.96185365753E+02  0.11468773400E+03  0.00000000000E+00 0. -1.
        -14    1    4    4    0    0 -0.94920017770E+02  0.71612652983E+02 -0.89326307288E+02  0.14871910104E+03  0.00000000000E+00 0.  1.
        -11    1    3    3    0    0  0.69572296982E+02 -0.22298470972E+02 -0.40055575040E+02  0.83318517791E+02  0.00000000000E+00 0.  1.
         11    1    3    3    0    0  0.27785031992E+02  0.51661931714E+02  0.11631664368E+02  0.59801829464E+02  0.00000000000E+00 0. -1.
          2    1    1    2  501    0  0.59874152086E+02 -0.96624874029E+02 -0.11958056019E+03  0.16498724418E+03  0.00000000000E+00 0. -1.
<scales pt_clust_5="13000.00000" pt_clust_6="13000.00000" pt_clust_7="13000.00000" pt_clust_8="13000.00000" pt_clust_9="113.67181"></scales>
<clustering>
<clus scale="   75.649">  5  6 -1 -1</clus>
<clus scale="   96.617">  7  8 -1 -1</clus>
<clus scale="  113.672">  2  9  1 -1</clus>
<clus scale="  136.768">  2  5  1 -1</clus>
<clus scale="  113.672">  2  5  1 -1</clus>
</clustering>
</event>
<event>
 9    1  0.8229491E-005  0.1360913E+03  0.7546771E-02  0.1221658E+00
         21   -1    0    0  501  502  0.00000000000E+00  0.00000000000E+00  0.98835862543E+02  0.98835862543E+02  0.00000000000E+00 0.  1.
          1   -1    0    0  502    0 -0.00000000000E+00 -0.00000000000E+00 -0.63394983233E+03  0.63394983233E+03  0.00000000000E+00 0. -1.
         23    2    1    2    0    0 -0.57616286402E+02  0.84809773930E+02 -0.51209978007E+03  0.53024464805E+03  0.91656248127E+02 0.  0.
        -24    2    1    2    0    0  0.37291270339E+02 -0.73575121865E+02  0.50949335997E+02  0.12501732903E+03  0.78927563744E+02 0.  0.
         13    1    4    4    0    0 -0.13108469227E+02 -0.40779117653E+02  0.48682152513E+02  0.64843815243E+02  0.00000000000E+00 0. -1.
        -14    1    4    4    0    0  0.50399739565E+02 -0.32796004212E+02  0.22671834836E+01  0.60173513787E+02  0.00000000000E+00 0.  1.
        -11    1    3    3    0    0 -0.29158209644E+02  0.82060141951E+01 -0.35398190844E+02  0.46589395507E+02  0.00000000000E+00 0.  1.
         11    1    3    3    0    0 -0.28458076758E+02  0.76603759735E+02 -0.47670158923E+03  0.48365525254E+03  0.00000000000E+00 0. -1.
          2    1    1    2  501    0  0.20325016064E+02 -0.11234652065E+02 -0.73963525714E+02  0.77523717797E+02  0.00000000000E+00 0. -1.
<scales pt_clust_5="13000.00000" pt_clust_6="13000.00000" pt_clust_7="13000.00000" pt_clust_8="13000.00000" pt_clust_9="23.22336"></scales>
<clustering>
<clus scale="   23.223">  1  9  2 -1</clus>
<clus scale="   78.928">  5  6 -1 -1</clus>
<clus scale="   91.656">  7  8 -1 -1</clus>
<clus scale="  127.865">  1  5  2 -1</clus>
<clus scale="   23.223">  1  5  2 -1</clus>
</clustering>
</event>
<event>
 9    1  0.7586638E-005  0.1758548E+03  0.7546771E-02  0.1181912E+00
         21   -1    0    0  501  502  0.00000000000E+00  0.00000000000E+00  0.43418087703E+02  0.43418087703E+02  0.00000000000E+00 0. -1.
          3   -1    0    0  502    0 -0.00000000000E+00 -0.00000000000E+00 -0.16013672051E+04  0.16013672051E+04  0.00000000000E+00 0. -1.
         23    2    1    2    0    0 -0.82672757231E+02  0.65422074105E+02 -0.50282939727E+03  0.52200041714E+03  0.92369909434E+02 0.  0.
        -24    2    1    2    0    0  0.16609707260E+03  0.62486527070E+02 -0.81136812344E+03  0.83514783435E+03  0.87526395398E+02 0.  0.
         11    1    4    4    0    0  0.14808156299E+03  0.69032683031E+02 -0.78877904347E+03  0.80552221574E+03  0.00000000000E+00 0. -1.
        -12    1    4    4    0    0  0.18015509611E+02 -0.65461559606E+01 -0.22589079969E+02  0.29625618614E+02  0.00000000000E+00 0.  1.
        -13    1    3    3    0    0 -0.39462265600E+02 -0.20027063610E+02 -0.17078712773E+03  0.17642731274E+03  0.00000000000E+00 0.  1.
         13    1    3    3    0    0 -0.43210491631E+02  0.85449137715E+02 -0.33204226954E+03  0.34557310440E+03  0.00000000000E+00 0. -1.
          4    1    1    2  501    0 -0.83424315373E+02 -0.12790860117E+03 -0.24375159672E+03  0.28763704135E+03  0.00000000000E+00 0. -1.
<scales pt_clust_5="13000.00000" pt_clust_6="13000.00000" pt_clust_7="13000.00000" pt_clust_8="13000.00000" pt_clust_9="152.52549"></scales>
<clustering>
<clus scale="   87.526">  5  6 -1 -1</clus>
<clus scale="   92.370">  7  8 -1 -1</clus>
<clus scale="  140.168">  2  7  1 -1</clus>
<clus scale="  152.525">  1  9  2 -1</clus>
<clus scale="  152.525">  1  5  2 -1</clus>
</clustering>
</event>
<event>
 9    1  0.7586638E-005  0.1193421E+03  0.7546771E-02  0.1260260E+00
         21   -1    0    0  501  502  0.00000000000E+00  0.00000000000E+00  0.96918962422E+02  0.96918962422E+02  0.00000000000E+00 0.  1.
          1   -1    0    0  502    0 -0.00000000000E+00 -0.00000000000E+00 -0.19934865884E+03  0.19934865884E+03  0.00000000000E+00 0. -1.
         23    2    1    2    0    0 -0.21075773750E+02 -0.36420859992E+02 -0.13401740192E+03  0.17983708051E+03  0.11229445323E+03 0.  0.
        -24    2    1    2    0    0 -0.15696258593E+01  0.40425495203E+02  0.34399214367E+02  0.93262549714E+02  0.76667547518E+02 0.  0.
         13    1    4    4    0    0 -0.22038662117E+02  0.18871894599E+02 -0.17188681530E+02  0.33723905563E+02  0.00000000000E+00 0. -1.
        -14    1    4    4    0    0  0.20469036257E+02  0.21553600604E+02  0.51587895897E+02  0.59538644151E+02  0.00000000000E+00 0.  1.
        -13    1    3    3    0    0  0.20107413833E+02  0.25662235642E+02 -0.82002987046E+01  0.33617009505E+02  0.00000000000E+00 0.  1.
         13    1    3    3    0    0 -0.41183187583E+02 -0.62083095634E+02 -0.12581710322E+03  0.14622007101E+03  0.00000000000E+00 0. -1.
          2    1    1    2  501    0  0.22645399609E+02 -0.40046352112E+01 -0.28115088640E+01  0.23167991038E+02  0.00000000000E+00 0. -1.
<scales pt_clust_5="13000.00000" pt_clust_6="13000.00000" pt_clust_7="13000.00000" pt_clust_8="13000.00000" pt_clust_9="22.99677"></scales>
<clustering>
<clus scale="   22.997">  1  9  2 -1</clus>
<clus scale="   76.668">  5  6 -1 -1</clus>
<clus scale="   86.663">  1  5  2 -1</clus>
<clus scale="  112.294">  7  8 -1 -1</clus>
<clus scale="   22.997">  1  5  2 -1</clus>
</clustering>
</event>
<event>
 9    1  0.7586638E-005  0.1465159E+03  0.7546771E-02  0.1217445E+00
          1   -1    0    0  502    0 -0.00000000000E+00  0.00000000000E+00  0.48002384231E+03  0.48002384231E+03  0.00000000000E+00 0. -1.
         21   -1    0    0  501  502  0.00000000000E+00 -0.00000000000E+00 -0.11288800825E+03  0.11288800825E+03  0.00000000000E+00 0. -1.
         23    2    1    2    0    0 -0.25781277648E+01  0.66902130725E+02  0.10270849850E+02  0.11242105645E+03  0.89724365352E+02 0.  0.
        -24    2    1    2    0    0  0.11661809381E+03 -0.57704558969E+02  0.63592072006E+02  0.16569131791E+03  0.80498852663E+02 0.  0.
         11    1    4    4    0    0  0.92580979793E+02 -0.77511058697E+02  0.42199971537E+02  0.12790637059E+03  0.00000000000E+00 0. -1.
        -12    1    4    4    0    0  0.24037114015E+02  0.19806499728E+02  0.21392100469E+02  0.37784947322E+02  0.00000000000E+00 0.  1.
        -13    1    3    3    0    0 -0.40304194575E+02  0.76421525168E+01 -0.21643579879E+01  0.41079374885E+02  0.00000000000E+00 0.  1.
         13    1    3    3    0    0  0.37726066810E+02  0.59259978208E+02  0.12435207838E+02  0.71341681563E+02  0.00000000000E+00 0. -1.
          2    1    1    2  501    0 -0.11403996604E+03 -0.91975717563E+01  0.29327291220E+03  0.31479947620E+03  0.00000000000E+00 0. -1.
<scales pt_clust_5="13000.00000" pt_clust_6="13000.00000" pt_clust_7="13000.00000" pt_clust_8="13000.00000" pt_clust_9="122.42084"></scales>
<clustering>
<clus scale="   80.499">  5  6 -1 -1</clus>
<clus scale="   89.724">  7  8 -1 -1</clus>
<clus scale="  111.951">  1  7  2 -1</clus>
<clus scale="  122.421">  2  9  1 -1</clus>
<clus scale="  122.421">  2  5  1 -1</clus>
</clustering>
</event>
<event>
 9    1  0.8884647E-005  0.1626892E+03  0.7546771E-02  0.1186339E+00
         21   -1    0    0  501  502  0.00000000000E+00  0.00000000000E+00  0.39292390173E+03  0.39292390173E+03  0.00000000000E+00 0.  1.
         -2   -1    0    0    0  501 -0.00000000000E+00 -0.00000000000E+00 -0.80538887892E+03  0.80538887892E+03  0.00000000000E+00 0.  1.
         23    2    1    2    0    0 -0.20147784817E+02 -0.13730695280E+03 -0.77785434460E+03  0.79489899848E+03  0.86878673179E+02 0.  0.
        -24    2    1    2    0    0  0.14563379306E+02  0.98426513243E+02  0.24832570798E+03  0.27993595208E+03  0.82453680918E+02 0.  0.
         11    1    4    4    0    0 -0.21962607403E+02  0.83719079572E+02  0.19757369822E+03  0.21570027036E+03  0.00000000000E+00 0. -1.
        -12    1    4    4    0    0  0.36525986710E+02  0.14707433671E+02  0.50752009759E+02  0.64235681711E+02  0.00000000000E+00 0.  1.
        -11    1    3    3    0    0 -0.34581396852E+02 -0.27202297080E+02 -0.12158713354E+03  0.12930301240E+03  0.00000000000E+00 0. -1.
         11    1    3    3    0    0  0.14433612035E+02 -0.11010465572E+03 -0.65626721107E+03  0.66559598608E+03  0.00000000000E+00 0.  1.
         -1    1    1    2    0  502  0.55844055102E+01  0.38880439556E+02  0.11706365943E+03  0.12347783009E+03  0.00000000000E+00 0.  1.
<scales pt_clust_5="13000.00000" pt_clust_6="13000.00000" pt_clust_7="13000.00000" pt_clust_8="13000.00000" pt_clust_9="39.27944"></scales>
<clustering>
<clus scale="   39.279">  1  9  2 -1</clus>
<clus scale="   82.454">  5  6 -1 -1</clus>
<clus scale="   86.879">  7  8 -1 -1</clus>
<clus scale="  160.370">  1  5  2 -1</clus>
<clus scale="   39.279">  1  5  2 -1</clus>
</clustering>
</event>
<event>
 9    1  0.7586638E-005  0.1094514E+03  0.7546771E-02  0.1264444E+00
         21   -1    0    0  501  502  0.00000000000E+00  0.00000000000E+00  0.51886847637E+03  0.51886847637E+03  0.00000000000E+00 0. -1.
          1   -1    0    0  502    0 -0.00000000000E+00 -0.00000000000E+00 -0.57098714894E+02  0.57098714894E+02  0.00000000000E+00 0. -1.
         23    2    1    2    0    0 -0.53503633433E+02 -0.59913317046E+02  0.12644195850E+03  0.17505169332E+03  0.90571972021E+02 0.  0.
        -24    2    1    2    0    0 -0.49963470418E+02  0.62807599544E+02  0.14852947973E+03  0.18735653180E+03  0.81242357939E+02 0.  0.
         13    1    4    4    0    0  0.63818912338E+01  0.38067420582E+02  0.17066115970E+02  0.42203191346E+02  0.00000000000E+00 0. -1.
        -14    1    4    4    0    0 -0.56345361652E+02  0.24740178963E+02  0.13146336376E+03  0.14515334045E+03  0.00000000000E+00 0.  1.
        -13    1    3    3    0    0 -0.65298153917E+02 -0.34300148699E+02  0.39538373011E+02  0.83687705466E+02  0.00000000000E+00 0.  1.
         13    1    3    3    0    0  0.11794520484E+02 -0.25613168347E+02  0.86903585491E+02  0.91363987859E+02  0.00000000000E+00 0. -1.
          2    1    1    2  501    0  0.10346710385E+03 -0.28942824985E+01  0.18679832325E+03  0.21355896614E+03  0.00000000000E+00 0. -1.
<scales pt_clust_5="13000.00000" pt_clust_6="13000.00000" pt_clust_7="13000.00000" pt_clust_8="13000.00000" pt_clust_9="103.50758"></scales>
<clustering>
<clus scale="   81.242">  5  6 -1 -1</clus>
<clus scale="   90.572">  7  8 -1 -1</clus>
<clus scale="  103.508">  1  9  2 -1</clus>
<clus scale="  103.508">  1  5  2 -1</clus>
<clus scale="  103.508">  1  5  2 -1</clus>
</clustering>
</event>
<event>
 9    1  0.7586638E-005  0.1455844E+03  0.7546771E-02  0.1210896E+00
         21   -1    0    0  501  502  0.00000000000E+00  0.00000000000E+00  0.76025312873E+03  0.76025312873E+03  0.00000000000E+00 0.  1.
          3   -1    0    0  502    0 -0.00000000000E+00 -0.00000000000E+00 -0.10363361890E+03  0.10363361890E+03  0.00000000000E+00 0. -1.
        -24    2    1    2    0    0  0.10345722629E+03  0.16824834522E+02 -0.80204308029E+01  0.12485971997E+03  0.67373211533E+02 0.  0.
         23    2    1    2    0    0 -0.12736837123E+03 -0.91551629227E+02  0.21117123342E+03  0.27882087262E+03  0.92430440774E+02 0.  0.
         13    1    3    3    0    0  0.91934912595E+02  0.92237289283E+00 -0.28725812986E+02  0.96322641457E+02  0.00000000000E+00 0. -1.
        -14    1    3    3    0    0  0.11522313700E+02  0.15902461629E+02  0.20705382183E+02  0.28537078516E+02  0.00000000000E+00 0.  1.
        -11    1    4    4    0    0 -0.79398982720E+02 -0.10494880961E+03  0.16344964291E+03  0.20984336269E+03  0.00000000000E+00 0.  1.
         11    1    4    4    0    0 -0.47969388515E+02  0.13397180381E+02  0.47721590503E+02  0.68977509935E+02  0.00000000000E+00 0. -1.
          4    1    1    2  501    0  0.23911144940E+02  0.74726794705E+02  0.45346870721E+03  0.46020615502E+03  0.00000000000E+00 0. -1.
<scales pt_clust_5="13000.00000" pt_clust_6="13000.00000" pt_clust_7="13000.00000" pt_clust_8="13000.00000" pt_clust_9="78.45914"></scales>
<clustering>
<clus scale="   67.373">  5  6 -1 -1</clus>
<clus scale="   78.459">  1  9  2 -1</clus>
<clus scale="   92.430">  7  8 -1 -1</clus>
<clus scale="  131.113">  2  5  1 -1</clus>
<clus scale="   78.459">  1  5  2 -1</clus>
</clustering>
</event>
<event>
 9    1  0.7586638E-005  0.1100468E+03  0.7546771E-02  0.1271315E+00
         21   -1    0    0  501  502  0.00000000000E+00  0.00000000000E+00  0.96726597668E+02  0.96726597668E+02  0.00000000000E+00 0.  1.
         -4   -1    0    0    0  501 -0.00000000000E+00 -0.00000000000E+00 -0.26195941141E+03  0.26195941141E+03  0.00000000000E+00 0.  1.
        -24    2    1    2    0    0  0.26894645212E+02 -0.28762857564E+02 -0.10702989085E+03  0.13927844956E+03  0.79952892759E+02 0.  0.
         23    2    1    2    0    0  0.34788852176E+02 -0.35673479778E+02  0.14480700346E+02  0.10434321010E+03  0.90525981996E+02 0.  0.
         11    1    3    3    0    0 -0.26221827573E+02 -0.24185339263E+02 -0.46740512588E+02  0.58797877458E+02  0.00000000000E+00 0. -1.
        -12    1    3    3    0    0  0.53116472785E+02 -0.45775183014E+01 -0.60289378260E+02  0.80480572102E+02  0.00000000000E+00 0.  1.
        -13    1    4    4    0    0  0.40711044195E+02 -0.13738201385E+02  0.47635468218E+02  0.64150332260E+02  0.00000000000E+00 0.  1.
         13    1    4    4    0    0 -0.59221920192E+01 -0.21935278393E+02 -0.33154767872E+02  0.40192877840E+02  0.00000000000E+00 0. -1.
         -3    1    1    2    0  502 -0.61683497387E+02  0.64436337342E+02 -0.72683623240E+02  0.11506434942E+03  0.00000000000E+00 0.  1.
<scales pt_clust_5="13000.00000" pt_clust_6="13000.00000" pt_clust_7="13000.00000" pt_clust_8="13000.00000" pt_clust_9="62.57276"></scales>
<clustering>
<clus scale="   79.953">  5  6 -1 -1</clus>
<clus scale="   89.124">  2  5  1 -1</clus>
<clus scale="   62.573">  1  9  2 -1</clus>
<clus scale="   90.526">  7  8 -1 -1</clus>
<clus scale="   62.573">  1  5  2 -1</clus>
</clustering>
</event>
<event>
 9    1  0.7586638E-005  0.8658368E+02  0.7546771E-02  0.1316805E+00
         21   -1    0    0  501  502  0.00000000000E+00  0.00000000000E+00  0.10028986775E+03  0.10028986775E+03  0.00000000000E+00 0. -1.
          1   -1    0    0  502    0 -0.00000000000E+00 -0.00000000000E+00 -0.62331193136E+03  0.62331193136E+03  0.00000000000E+00 0. -1.
        -24    2    1    2    0    0  0.17396945445E+02 -0.66736594236E+00 -0.52360026992E+03  0.53055964509E+03  0.83864147574E+02 0.  0.
         23    2    1    2    0    0 -0.51690744405E+02  0.44264812822E+02 -0.54136745378E+02  0.11512856112E+03  0.75448602861E+02 0.  0.
         11    1    3    3    0    0  0.42097552504E+02  0.20230110958E+02 -0.20168186729E+03  0.20701941191E+03  0.00000000000E+00 0. -1.
        -12    1    3    3    0    0 -0.24700607060E+02 -0.20897476901E+02 -0.32191840263E+03  0.32354023317E+03  0.00000000000E+00 0.  1.
        -13    1    4    4    0    0 -0.60178602017E+02  0.97457586225E+01 -0.16070050337E+02  0.63045146282E+02  0.00000000000E+00 0. -1.
         13    1    4    4    0    0  0.84878576120E+01  0.34519054199E+02 -0.38066695041E+02  0.52083414836E+02  0.00000000000E+00 0.  1.
          2    1    1    2  501    0  0.34293798960E+02 -0.43597446879E+02  0.54714951689E+02  0.77913592908E+02  0.00000000000E+00 0. -1.
<scales pt_clust_5="13000.00000" pt_clust_6="13000.00000" pt_clust_7="13000.00000" pt_clust_8="13000.00000" pt_clust_9="55.46893"></scales>
<clustering>
<clus scale="   55.469">  1  9  2 -1</clus>
<clus scale="   75.449">  7  8 -1 -1</clus>
<clus scale="   78.460">  1  7  2 -1</clus>
<clus scale="   83.864">  5  6 -1 -1</clus>
<clus scale="   55.469">  1  5  2 -1</clus>
</clustering>
</event>
<event>
 9    1  0.7586638E-005  0.1174539E+03  0.7546771E-02  0.1254531E+00
         21   -1    0    0  501  502  0.00000000000E+00  0.00000000000E+00  0.41372275380E+02  0.41372275380E+02  0.00000000000E+00 0.  1.
          1   -1    0    0  502    0 -0.00000000000E+00 -0.00000000000E+00 -0.77112406053E+03  0.77112406053E+03  0.00000000000E+00 0. -1.
        -24    2    1    2    0    0  0.21565771991E+02 -0.58759304964E+02 -0.30280833596E+03  0.31946013421E+03  0.80275466874E+02 0.  0.
         23    2    1    2    0    0  0.62060252638E+02 -0.57501047948E+01 -0.10272625675E+03  0.15205003803E+03  0.93177205233E+02 0.  0.
         13    1    3    3    0    0 -0.20864887953E+02 -0.15287979158E+01 -0.24689706111E+02  0.32361433222E+02  0.00000000000E+00 0. -1.
        -14    1    3    3    0    0  0.42430659944E+02 -0.57230507048E+02 -0.27811862985E+03  0.28709870099E+03  0.00000000000E+00 0.  1.
        -11    1    4    4    0    0  0.10158247802E+02  0.30258210494E+02 -0.77885082206E+02  0.84171463875E+02  0.00000000000E+00 0. -1.
         11    1    4    4    0    0  0.51902004837E+02 -0.36008315289E+02 -0.24841174545E+02  0.67878574151E+02  0.00000000000E+00 0.  1.
          2    1    1    2  501    0 -0.83626024629E+02  0.64509409759E+02 -0.32421719244E+03  0.34098616367E+03  0.00000000000E+00 0. -1.
<scales pt_clust_5="13000.00000" pt_clust_6="13000.00000" pt_clust_7="13000.00000" pt_clust_8="13000.00000" pt_clust_9="71.50833"></scales>
<clustering>
<clus scale="   80.275">  5  6 -1 -1</clus>
<clus scale="   93.177">  7  8 -1 -1</clus>
<clus scale="  101.793">  2  5  1 -1</clus>
<clus scale="   71.508">  1  9  2 -1</clus>
<clus scale="   71.508">  1  5  2 -1</clus>
</clustering>
</event>
<event>
 9    1  0.7586638E-005  0.1221784E+03  0.7546771E-02  0.1248737E+00
          3   -1    0    0  502    0 -0.00000000000E+00  0.00000000000E+00  0.23544916385E+03  0.23544916385E+03  0.00000000000E+00 0. -1.
         21   -1    0    0  501  502  0.00000000000E+00 -0.00000000000E+00 -0.17212147037E+03  0.17212147037E+03  0.00000000000E+00 0.  1.
         23    2    1    2    0    0 -0.22538398733E+02 -0.39416942853E+02  0.12835463936E+03  0.16363954565E+03  0.90781675763E+02 0.  0.
        -24    2    1    2    0    0  0.15079896226E+02 -0.77361448998E+02 -0.59053544768E+02  0.12676239145E+03  0.79807178090E+02 0.  0.
         11    1    4    4    0    0  0.14078480939E+02  0.14305657041E+02 -0.14982196930E+02  0.25046390434E+02  0.00000000000E+00 0. -1.
        -12    1    4    4    0    0  0.10014152869E+01 -0.91667106039E+02 -0.44071347838E+02  0.10171600101E+03  0.00000000000E+00 0.  1.
        -13    1    3    3    0    0 -0.43249166754E+02  0.10168389748E+02  0.79209276217E+02  0.90818478372E+02  0.00000000000E+00 0.  1.
         13    1    3    3    0    0  0.20710768021E+02 -0.49585332602E+02  0.49145363144E+02  0.72821067280E+02  0.00000000000E+00 0. -1.
          4    1    1    2  501    0  0.74585025068E+01  0.11677839185E+03 -0.59734011171E+01  0.11716869712E+03  0.00000000000E+00 0. -1.
<scales pt_clust_5="13000.00000" pt_clust_6="13000.00000" pt_clust_7="13000.00000" pt_clust_8="13000.00000" pt_clust_9="92.51157"></scales>
<clustering>
<clus scale="   79.807">  5  6 -1 -1</clus>
<clus scale="   90.782">  7  8 -1 -1</clus>
<clus scale="  101.504">  1  7  2 -1</clus>
<clus scale="   92.512">  2  9  1 -1</clus>
<clus scale="   92.512">  2  5  1 -1</clus>
</clustering>
</event>
<event>
 9    1  0.7586638E-005  0.1485902E+03  0.7546771E-02  0.1217693E+00
         21   -1    0    0  501  502  0.00000000000E+00  0.00000000000E+00  0.14765539937E+03  0.14765539937E+03  0.00000000000E+00 0. -1.
          3   -1    0    0  502    0 -0.00000000000E+00 -0.00000000000E+00 -0.35239129481E+03  0.35239129481E+03  0.00000000000E+00 0. -1.
        -24    2    1    2    0    0  0.61379407934E+02  0.35002530451E+02  0.48617077893E+02  0.11731740261E+03  0.80044636518E+02 0.  0.
         23    2    1    2    0    0  0.86384007823E+02  0.21965223557E+02 -0.98407276551E+02  0.16117225380E+03  0.91366489821E+02 0.  0.
         11    1    3    3    0    0  0.22063260722E+02  0.56745887142E+02  0.35658357689E+02  0.70557789466E+02  0.00000000000E+00 0. -1.
        -12    1    3    3    0    0  0.39316147212E+02 -0.21743356691E+02  0.12958720204E+02  0.46759613141E+02  0.00000000000E+00 0.  1.
        -11    1    4    4    0    0  0.59417100923E+02  0.20657082424E+02 -0.11384735065E+03  0.13007046624E+03  0.00000000000E+00 0. -1.
         11    1    4    4    0    0  0.26966906900E+02  0.13081411328E+01  0.15440074104E+02  0.31101787558E+02  0.00000000000E+00 0.  1.
          4    1    1    2  501    0 -0.14776341576E+03 -0.56967754008E+02 -0.15494569678E+03  0.22155703777E+03  0.00000000000E+00 0. -1.
<scales pt_clust_5="13000.00000" pt_clust_6="13000.00000" pt_clust_7="13000.00000" pt_clust_8="13000.00000" pt_clust_9="117.18027"></scales>
<clustering>
<clus scale="   80.045">  5  6 -1 -1</clus>
<clus scale="   91.366">  7  8 -1 -1</clus>
<clus scale="  106.770">  2  5  1 -1</clus>
<clus scale="  117.180">  1  9  2 -1</clus>
<clus scale="  117.180">  1  5  2 -1</clus>
</clustering>
</event>
<event>
 9    1  0.7586638E-005  0.1628644E+03  0.7546771E-02  0.1187008E+00
         21   -1    0    0  501  502  0.00000000000E+00  0.00000000000E+00  0.35286445100E+02  0.35286445100E+02  0.00000000000E+00 0.  1.
         -4   -1    0    0    0  501 -0.00000000000E+00 -0.00000000000E+00 -0.10841959884E+04  0.10841959884E+04  0.00000000000E+00 0.  1.
        -24    2    1    2    0    0 -0.12892667856E+03  0.25383080425E+02 -0.66572848155E+03  0.68344821855E+03  0.81490288298E+02 0.  0.
         23    2    1    2    0    0  0.14606797593E+03  0.37140228288E+01 -0.29582544900E+03  0.34237809623E+03  0.91435315626E+02 0.  0.
         13    1    3    3    0    0 -0.13091918298E+03  0.42288641681E+02 -0.59552911342E+03  0.61121443587E+03  0.00000000000E+00 0. -1.
        -14    1    3    3    0    0  0.19925044224E+01 -0.16905561256E+02 -0.70199368131E+02  0.72233782687E+02  0.00000000000E+00 0.  1.
        -13    1    4    4    0    0  0.44158387057E+02  0.31489137415E+02 -0.16811163253E+03  0.17664385049E+03  0.00000000000E+00 0. -1.
         13    1    4    4    0    0  0.10190958887E+03 -0.27775114586E+02 -0.12771381646E+03  0.16573424574E+03  0.00000000000E+00 0.  1.
         -3    1    1    2    0  502 -0.17141297373E+02 -0.29097103254E+02 -0.87355612750E+02  0.93656118713E+02  0.00000000000E+00 0.  1.
<scales pt_clust_5="13000.00000" pt_clust_6="13000.00000" pt_clust_7="13000.00000" pt_clust_8="13000.00000" pt_clust_9="33.77078"></scales>
<clustering>
<clus scale="   33.771">  1  9  2 -1</clus>
<clus scale="   81.490">  5  6 -1 -1</clus>
<clus scale="   91.435">  7  8 -1 -1</clus>
<clus scale="  157.496">  2  5  1 -1</clus>
<clus scale="   33.771">  1  5  2 -1</clus>
</clustering>
</event>
<event>
 9    1  0.7586638E-005  0.1237368E+03  0.7546771E-02  0.1251707E+00
         21   -1    0    0  501  502  0.00000000000E+00  0.00000000000E+00  0.30261298924E+03  0.30261298924E+03  0.00000000000E+00 0.  1.
         -2   -1    0    0    0  501 -0.00000000000E+00 -0.00000000000E+00 -0.12021519348E+03  0.12021519348E+03  0.00000000000E+00 0.  1.
        -24    2    1    2    0    0  0.29004868368E+02  0.31703287585E+02  0.54880867383E+02  0.10720166348E+03  0.81448795053E+02 0.  0.
         23    2    1    2    0    0  0.76322789524E+02 -0.23717550375E+02  0.16412380621E+03  0.20383317856E+03  0.90684345501E+02 0.  0.
         13    1    3    3    0    0 -0.39160381371E+01 -0.24063931044E+02  0.27886471159E+02  0.37041374241E+02  0.00000000000E+00 0. -1.
        -14    1    3    3    0    0  0.32920906505E+02  0.55767218628E+02  0.26994396225E+02  0.70160289240E+02  0.00000000000E+00 0.  1.
        -11    1    4    4    0    0  0.42474654002E+02 -0.47971490929E+02  0.14394419388E+03  0.15756043642E+03  0.00000000000E+00 0.  1.
         11    1    4    4    0    0  0.33848135522E+02  0.24253940555E+02  0.20179612333E+02  0.46272742135E+02  0.00000000000E+00 0. -1.
         -1    1    1    2    0  502 -0.10532765789E+03 -0.79857372101E+01 -0.36606877829E+02  0.11179334068E+03  0.00000000000E+00 0.  1.
<scales pt_clust_5="13000.00000" pt_clust_6="13000.00000" pt_clust_7="13000.00000" pt_clust_8="13000.00000" pt_clust_9="84.18517"></scales>
<clustering>
<clus scale="   81.449">  5  6 -1 -1</clus>
<clus scale="   90.684">  7  8 -1 -1</clus>
<clus scale="   92.089">  2  5  1 -1</clus>
<clus scale="   84.185">  1  9  2 -1</clus>
<clus scale="   84.185">  1  5  2 -1</clus>
</clustering>
</event>
<event>
 9    1  0.7586638E-005  0.1465731E+03  0.7546771E-02  0.1207159E+00
          1   -1    0    0  502    0 -0.00000000000E+00  0.00000000000E+00  0.69059527653E+02  0.69059527653E+02  0.00000000000E+00 0. -1.
         21   -1    0    0  501  502  0.00000000000E+00 -0.00000000000E+00 -0.38973059798E+03  0.38973059798E+03  0.00000000000E+00 0.  1.
         23    2    1    2    0    0 -0.11908470825E+03 -0.51064705884E+02 -0.11109295519E+03  0.19388192563E+03  0.91977086636E+02 0.  0.
        -24    2    1    2    0    0  0.93376894632E+02  0.25486638672E+02 -0.15438545443E+03  0.19886761401E+03  0.79653287180E+02 0.  0.
         13    1    4    4    0    0  0.23275838538E+02 -0.19098609635E+02 -0.90095246462E+01  0.31427584762E+02  0.00000000000E+00 0. -1.
        -14    1    4    4    0    0  0.70101056094E+02  0.44585248308E+02 -0.14537592979E+03  0.16744002924E+03  0.00000000000E+00 0.  1.
        -13    1    3    3    0    0 -0.50367745285E+02  0.71857253829E+01 -0.86746478110E+02  0.10056587830E+03  0.00000000000E+00 0. -1.
         13    1    3    3    0    0 -0.68716962967E+02 -0.58250431267E+02 -0.24346477079E+02  0.93316047325E+02  0.00000000000E+00 0.  1.
          2    1    1    2  501    0  0.25707813620E+02  0.25578067212E+02 -0.55192660705E+02  0.66040585999E+02  0.00000000000E+00 0. -1.
<scales pt_clust_5="13000.00000" pt_clust_6="13000.00000" pt_clust_7="13000.00000" pt_clust_8="13000.00000" pt_clust_9="36.26471"></scales>
<clustering>
<clus scale="   36.265">  2  9  1 -1</clus>
<clus scale="   79.653">  5  6 -1 -1</clus>
<clus scale="   91.977">  7  8 -1 -1</clus>
<clus scale="  139.171">  2  5  1 -1</clus>
<clus scale="   36.265">  2  5  1 -1</clus>
</clustering>
</event>
<event>
 9    1  0.1206290E-004  0.3698968E+03  0.7546771E-02  0.1096332E+00
          1   -1    0    0  502    0 -0.00000000000E+00  0.00000000000E+00  0.12957851508E+04  0.12957851508E+04  0.00000000000E+00 0. -1.
         21   -1    0    0  501  502  0.00000000000E+00 -0.00000000000E+00 -0.14588189760E+03  0.14588189760E+03  0.00000000000E+00 0.  1.
        -24    2    1    2    0    0  0.71885607058E+02  0.49305921869E+02  0.20787950334E+03  0.23974162749E+03  0.81630543359E+02 0.  0.
         23    2    1    2    0    0 -0.38706264863E+03 -0.45922095924E+02  0.35303880897E+03  0.53390500325E+03  0.92151066176E+02 0.  0.
         13    1    3    3    0    0  0.27368309750E+02  0.65166301241E+02  0.14255592786E+03  0.15911588156E+03  0.00000000000E+00 0. -1.
        -14    1    3    3    0    0  0.44517297308E+02 -0.15860379373E+02  0.65323575478E+02  0.80625745930E+02  0.00000000000E+00 0.  1.
        -11    1    4    4    0    0 -0.65813465025E+02 -0.42269640690E+02  0.84913395263E+02  0.11544877391E+03  0.00000000000E+00 0. -1.
         11    1    4    4    0    0 -0.32124918361E+03 -0.36524552347E+01  0.26812541371E+03  0.41845622934E+03  0.00000000000E+00 0.  1.
          2    1    1    2  501    0  0.31517704157E+03 -0.33838259442E+01  0.58898494085E+03  0.66802041762E+03  0.00000000000E+00 0. -1.
<scales pt_clust_5="13000.00000" pt_clust_6="13000.00000" pt_clust_7="13000.00000" pt_clust_8="13000.00000" pt_clust_9="358.23449"></scales>
<clustering>
<clus scale="   81.631">  5  6 -1 -1</clus>
<clus scale="   92.151">  7  8 -1 -1</clus>
<clus scale="  119.424">  1  5  2 -1</clus>
<clus scale="  358.234">  2  9  1 -1</clus>
<clus scale="  358.234">  2  5  1 -1</clus>
</clustering>
</event>
<event>
 9    1  0.7586638E-005  0.1409933E+03  0.7546771E-02  0.1218699E+00
          1   -1    0    0  502    0 -0.00000000000E+00  0.00000000000E+00  0.17775596830E+04  0.17775596830E+04  0.00000000000E+00 0. -1.
         21   -1    0    0  501  502  0.00000000000E+00 -0.00000000000E+00 -0.25279917277E+02  0.25279917277E+02  0.00000000000E+00 0. -1.
        -24    2    1    2    0    0  0.59979723903E+02 -0.69619359971E+02  0.38985582673E+03  0.40860497371E+03  0.80783886657E+02 0.  0.
         23    2    1    2    0    0 -0.11012651854E+03 -0.42032718764E+02  0.43848449622E+03  0.46222337041E+03  0.86528557090E+02 0.  0.
         13    1    3    3    0    0  0.79648059257E+02 -0.52124641294E+02  0.28410186425E+03  0.29962419936E+03  0.00000000000E+00 0. -1.
        -14    1    3    3    0    0 -0.19668335354E+02 -0.17494718677E+02  0.10575396249E+03  0.10898077435E+03  0.00000000000E+00 0.  1.
        -11    1    4    4    0    0 -0.11493269364E+02  0.24436352641E+02  0.92803526047E+02  0.96652599643E+02  0.00000000000E+00 0.  1.
         11    1    4    4    0    0 -0.98633249177E+02 -0.66469071405E+02  0.34568097018E+03  0.36557077077E+03  0.00000000000E+00 0. -1.
          2    1    1    2  501    0  0.50146794638E+02  0.11165207873E+03  0.92393944278E+03  0.93201125617E+03  0.00000000000E+00 0. -1.
<scales pt_clust_5="13000.00000" pt_clust_6="13000.00000" pt_clust_7="13000.00000" pt_clust_8="13000.00000" pt_clust_9="111.31907"></scales>
<clustering>
<clus scale="   80.784">  5  6 -1 -1</clus>
<clus scale="   86.529">  7  8 -1 -1</clus>
<clus scale="  122.354">  1  5  2 -1</clus>
<clus scale="  111.319">  2  9  1 -1</clus>
<clus scale="  111.319">  2  5  1 -1</clus>
</clustering>
</event>
<event>
 9    1  0.7586638E-005  0.1694142E+03  0.7546771E-02  0.1179980E+00
          1   -1    0    0  502    0 -0.00000000000E+00  0.00000000000E+00  0.33896085680E+03  0.33896085680E+03  0.00000000000E+00 0. -1.
         21   -1    0    0  501  502  0.00000000000E+00 -0.00000000000E+00 -0.33074231484E+03  0.33074231484E+03  0.00000000000E+00 0.  1.
         23    2    1    2    0    0 -0.10280364513E+03  0.94660791031E+02  0.26031586815E+03  0.30942363233E+03  0.91920499463E+02 0.  0.
        -24    2    1    2    0    0  0.82521961779E+02 -0.15509197624E+03 -0.19585959122E+03  0.27527390621E+03  0.80940402115E+02 0.  0.
         13    1    4    4    0    0  0.24415794261E+02 -0.10738602934E+03 -0.76065544694E+02  0.13384265910E+03  0.00000000000E+00 0. -1.
        -14    1    4    4    0    0  0.58106167517E+02 -0.47705946903E+02 -0.11979404653E+03  0.14143124710E+03  0.00000000000E+00 0.  1.
        -13    1    3    3    0    0 -0.81012761578E+02  0.67746625277E+02  0.25282249500E+03  0.27399249397E+03  0.00000000000E+00 0. -1.
         13    1    3    3    0    0 -0.21790883550E+02  0.26914165755E+02  0.74933731532E+01  0.35431138358E+02  0.00000000000E+00 0.  1.
          2    1    1    2  501    0  0.20281683349E+02  0.60431185210E+02 -0.56237734971E+02  0.85005633107E+02  0.00000000000E+00 0. -1.
<scales pt_clust_5="13000.00000" pt_clust_6="13000.00000" pt_clust_7="13000.00000" pt_clust_8="13000.00000" pt_clust_9="63.74382"></scales>
<clustering>
<clus scale="   63.744">  2  9  1 -1</clus>
<clus scale="   80.940">  5  6 -1 -1</clus>
<clus scale="   91.920">  7  8 -1 -1</clus>
<clus scale="  163.717">  2  5  1 -1</clus>
<clus scale="   63.744">  2  5  1 -1</clus>
</clustering>
</event>
<event>
 9    1  0.7586638E-005  0.1071083E+03  0.7546771E-02  0.1269285E+00
          1   -1    0    0  502    0 -0.00000000000E+00  0.00000000000E+00  0.87977349341E+03  0.87977349341E+03  0.00000000000E+00 0. -1.
         21   -1    0    0  501  502  0.00000000000E+00 -0.00000000000E+00 -0.60888158503E+02  0.60888158503E+02  0.00000000000E+00 0. -1.
        -24    2    1    2    0    0 -0.56359535787E+02  0.30293680649E+02  0.27686198563E+03  0.29494061062E+03  0.79014557806E+02 0.  0.
         23    2    1    2    0    0  0.73638884663E+02  0.39802362607E+02  0.24712310478E+02  0.12339667651E+03  0.87230316299E+02 0.  0.
         11    1    3    3    0    0 -0.73626901312E+02  0.36628243256E+02  0.20804145971E+03  0.22370471108E+03  0.00000000000E+00 0. -1.
        -12    1    3    3    0    0  0.17267365526E+02 -0.63345626070E+01  0.68820525914E+02  0.71235899536E+02  0.00000000000E+00 0.  1.
        -11    1    4    4    0    0  0.12862955428E+02 -0.23750857589E+02 -0.10077332483E+02  0.28829004293E+02  0.00000000000E+00 0. -1.
         11    1    4    4    0    0  0.60775929235E+02  0.63553220196E+02  0.34789642961E+02  0.94567672220E+02  0.00000000000E+00 0.  1.
          2    1    1    2  501    0 -0.17279348876E+02 -0.70096043256E+02  0.51731103880E+03  0.52232436478E+03  0.00000000000E+00 0. -1.
<scales pt_clust_5="13000.00000" pt_clust_6="13000.00000" pt_clust_7="13000.00000" pt_clust_8="13000.00000" pt_clust_9="72.19443"></scales>
<clustering>
<clus scale="   72.194">  2  9  1 -1</clus>
<clus scale="   79.015">  5  6 -1 -1</clus>
<clus scale="   87.230">  7  8 -1 -1</clus>
<clus scale="  100.530">  1  5  2 -1</clus>
<clus scale="   72.194">  2  5  1 -1</clus>
</clustering>
</event>
<event>
 9    1  0.7586638E-005  0.9297813E+02  0.7546771E-02  0.1300910E+00
         -2   -1    0    0    0  501 -0.00000000000E+00  0.00000000000E+00  0.65239949380E+03  0.65239949380E+03  0.00000000000E+00 0.  1.
         21   -1    0    0  501  502  0.00000000000E+00 -0.00000000000E+00 -0.26362320082E+02  0.26362320082E+02  0.00000000000E+00 0.  1.
        -24    2    1    2    0    0  0.31094672912E+01  0.23521429592E+02  0.48471038047E+03  0.49207018131E+03  0.81400147159E+02 0.  0.
         23    2    1    2    0    0  0.21543735065E+02 -0.20551734839E+02  0.12517780734E+03  0.15707087601E+03  0.90084795144E+02 0.  0.
         11    1    3    3    0    0 -0.35455366561E+02  0.25253910613E+02  0.19502303404E+03  0.19982198784E+03  0.00000000000E+00 0. -1.
        -12    1    3    3    0    0  0.38564833852E+02 -0.17324810207E+01  0.28968734643E+03  0.29224819347E+03  0.00000000000E+00 0.  1.
        -13    1    4    4    0    0  0.41782142012E+02 -0.83423864513E-01  0.16964818415E+02  0.45095004319E+02  0.00000000000E+00 0.  1.
         13    1    4    4    0    0 -0.20238406948E+02 -0.20468310975E+02  0.10821298892E+03  0.11197587169E+03  0.00000000000E+00 0. -1.
         -1    1    1    2    0  502 -0.24653202356E+02 -0.29696947532E+01  0.16148985906E+02  0.29620756559E+02  0.00000000000E+00 0.  1.
<scales pt_clust_5="13000.00000" pt_clust_6="13000.00000" pt_clust_7="13000.00000" pt_clust_8="13000.00000" pt_clust_9="24.83142"></scales>
<clustering>
<clus scale="   24.831">  2  9  1 -1</clus>
<clus scale="   81.400">  5  6 -1 -1</clus>
<clus scale="   84.591">  1  5  2 -1</clus>
<clus scale="   90.085">  7  8 -1 -1</clus>
<clus scale="   24.831">  2  5  1 -1</clus>
</clustering>
</event>
<event>
 9    1  0.7586638E-005  0.9381215E+02  0.7546771E-02  0.1298613E+00
         21   -1    0    0  501  502  0.00000000000E+00  0.00000000000E+00  0.44239740296E+02  0.44239740296E+02  0.00000000000E+00 0. -1.
          1   -1    0    0  502    0 -0.00000000000E+00 -0.00000000000E+00 -0.40532878505E+03  0.40532878505E+03  0.00000000000E+00 0. -1.
        -24    2    1    2    0    0  0.22061199618E+02 -0.25443533585E+02 -0.28031219862E+03  0.29263842554E+03  0.76995126306E+02 0.  0.
         23    2    1    2    0    0 -0.32909504294E+02  0.51761800175E+02 -0.56914156206E+02  0.11978491383E+03  0.85713971876E+02 0.  0.
         11    1    3    3    0    0 -0.18300042188E+02  0.17332206218E+02 -0.81124142325E+02  0.84949534340E+02  0.00000000000E+00 0. -1.
        -12    1    3    3    0    0  0.40361241806E+02 -0.42775739802E+02 -0.19918805630E+03  0.20768889120E+03  0.00000000000E+00 0.  1.
        -11    1    4    4    0    0 -0.10264648174E+02  0.45278880150E+02 -0.76275404751E+02  0.89294329941E+02  0.00000000000E+00 0. -1.
         11    1    4    4    0    0 -0.22644856120E+02  0.64829200255E+01  0.19361248545E+02  0.30490583890E+02  0.00000000000E+00 0.  1.
          2    1    1    2  501    0  0.10848304677E+02 -0.26318266591E+02 -0.23862689925E+02  0.37145185975E+02  0.00000000000E+00 0. -1.
<scales pt_clust_5="13000.00000" pt_clust_6="13000.00000" pt_clust_7="13000.00000" pt_clust_8="13000.00000" pt_clust_9="28.46642"></scales>
<clustering>
<clus scale="   28.466">  1  9  2 -1</clus>
<clus scale="   76.995">  5  6 -1 -1</clus>
<clus scale="   85.714">  7  8 -1 -1</clus>
<clus scale="   85.919">  2  5  1 -1</clus>
<clus scale="   28.466">  1  5  2 -1</clus>
</clustering>
</event>
<event>
 9    1  0.7586638E-005  0.9565089E+02  0.7546771E-02  0.1296216E+00
          1   -1    0    0  502    0 -0.00000000000E+00  0.00000000000E+00  0.31679588215E+03  0.31679588215E+03  0.00000000000E+00 0. -1.
         21   -1    0    0  501  502  0.00000000000E+00 -0.00000000000E+00 -0.45212205036E+02  0.45212205036E+02  0.00000000000E+00 0.  1.
         23    2    1    2    0    0  0.15562380836E+02  0.63968480521E+01  0.12486141889E+03  0.15619460282E+03  0.92321572026E+02 0.  0.
        -24    2    1    2    0    0  0.12114060523E+02 -0.43333423369E+02  0.12283769161E+03  0.15384456553E+03  0.80959964301E+02 0.  0.
         13    1    4    4    0    0 -0.18469749798E+02  0.10574032431E+02  0.67433047115E+02  0.70711792953E+02  0.00000000000E+00 0. -1.
        -14    1    4    4    0    0  0.30583810321E+02 -0.53907455800E+02  0.55404644496E+02  0.83132772577E+02  0.00000000000E+00 0.  1.
        -11    1    3    3    0    0  0.51242816390E+02  0.66103159589E+01  0.44200627729E+02  0.67994249760E+02  0.00000000000E+00 0.  1.
         11    1    3    3    0    0 -0.35680435554E+02 -0.21346790685E+00  0.80660791157E+02  0.88200353060E+02  0.00000000000E+00 0. -1.
          2    1    1    2  501    0 -0.27676441359E+02  0.36936575317E+02  0.23884566617E+02  0.51968918835E+02  0.00000000000E+00 0. -1.
<scales pt_clust_5="13000.00000" pt_clust_6="13000.00000" pt_clust_7="13000.00000" pt_clust_8="13000.00000" pt_clust_9="46.15513"></scales>
<clustering>
<clus scale="   46.155">  2  9  1 -1</clus>
<clus scale="   80.960">  5  6 -1 -1</clus>
<clus scale="   84.737">  2  5  1 -1</clus>
<clus scale="   92.322">  7  8 -1 -1</clus>
<clus scale="   46.155">  2  5  1 -1</clus>
</clustering>
</event>
<event>
 9    1  0.7586638E-005  0.2960988E+03  0.7546771E-02  0.1125060E+00
         21   -1    0    0  501  502  0.00000000000E+00  0.00000000000E+00  0.13994400238E+04  0.13994400238E+04  0.00000000000E+00 0. -1.
          1   -1    0    0  502    0 -0.00000000000E+00 -0.00000000000E+00 -0.88669446850E+02  0.88669446850E+02  0.00000000000E+00 0. -1.
        -24    2    1    2    0    0  0.60829668347E+02  0.48707149482E+02  0.21420218625E+03  0.24175893806E+03  0.80574019246E+02 0.  0.
         23    2    1    2    0    0 -0.30307908512E+03  0.18603709689E+02  0.49522797367E+03  0.59456388893E+03  0.12669823308E+03 0.  0.
         13    1    3    3    0    0  0.26449648278E+02  0.45636371688E+02  0.19552086609E+03  0.20251091673E+03  0.00000000000E+00 0. -1.
        -14    1    3    3    0    0  0.34380020069E+02  0.30707777941E+01  0.18681320157E+02  0.39248021339E+02  0.00000000000E+00 0.  1.
        -13    1    4    4    0    0 -0.81795500956E+02 -0.62232065913E+01  0.48192436331E+02  0.95140649548E+02  0.00000000000E+00 0.  1.
         13    1    4    4    0    0 -0.22128358417E+03  0.24826916281E+02  0.44703553734E+03  0.49942323938E+03  0.00000000000E+00 0. -1.
          2    1    1    2  501    0  0.24224941678E+03 -0.67310859171E+02  0.60134041703E+03  0.65178664366E+03  0.00000000000E+00 0. -1.
<scales pt_clust_5="13000.00000" pt_clust_6="13000.00000" pt_clust_7="13000.00000" pt_clust_8="13000.00000" pt_clust_9="267.62293"></scales>
<clustering>
<clus scale="   80.574">  5  6 -1 -1</clus>
<clus scale="  112.093">  2  5  1 -1</clus>
<clus scale="  126.698">  7  8 -1 -1</clus>
<clus scale="  267.623">  1  9  2 -1</clus>
<clus scale="  267.623">  1  5  2 -1</clus>
</clustering>
</event>
<event>
 9    1  0.7586638E-005  0.1268840E+03  0.7546771E-02  0.1242562E+00
         21   -1    0    0  501  502  0.00000000000E+00  0.00000000000E+00  0.14988981166E+03  0.14988981166E+03  0.00000000000E+00 0. -1.
          1   -1    0    0  502    0 -0.00000000000E+00 -0.00000000000E+00 -0.38266309792E+03  0.38266309792E+03  0.00000000000E+00 0. -1.
         23    2    1    2    0    0 -0.33167825004E+02  0.33221943755E+02 -0.26775818631E+03  0.28674667303E+03  0.91243662773E+02 0.  0.
        -24    2    1    2    0    0 -0.38997145139E+02  0.55038657977E+02 -0.38807044963E+02  0.11000134753E+03  0.77744958152E+02 0.  0.
         11    1    4    4    0    0  0.20988340713E+02  0.30721626823E+02 -0.21617636353E+02  0.43030814564E+02  0.00000000000E+00 0. -1.
        -12    1    4    4    0    0 -0.59985485852E+02  0.24317031155E+02 -0.17189408610E+02  0.66970532964E+02  0.00000000000E+00 0.  1.
        -11    1    3    3    0    0  0.29947082477E+02  0.55266167998E+01 -0.11837969588E+03  0.12223388907E+03  0.00000000000E+00 0.  1.
         11    1    3    3    0    0 -0.63114907481E+02  0.27695326955E+02 -0.14937849043E+03  0.16451278396E+03  0.00000000000E+00 0. -1.
          2    1    1    2  501    0  0.72164970143E+02 -0.88260601732E+02  0.73791945015E+02  0.13580488903E+03  0.00000000000E+00 0. -1.
<scales pt_clust_5="13000.00000" pt_clust_6="13000.00000" pt_clust_7="13000.00000" pt_clust_8="13000.00000" pt_clust_9="100.27597"></scales>
<clustering>
<clus scale="   77.745">  5  6 -1 -1</clus>
<clus scale="   91.244">  7  8 -1 -1</clus>
<clus scale="  102.612">  2  7  1 -1</clus>
<clus scale="  100.276">  1  9  2 -1</clus>
<clus scale="  100.276">  1  5  2 -1</clus>
</clustering>
</event>
<event>
 9    1  0.7586638E-005  0.2198190E+03  0.7546771E-02  0.1162016E+00
          1   -1    0    0  502    0 -0.00000000000E+00  0.00000000000E+00  0.51881804370E+03  0.51881804370E+03  0.00000000000E+00 0. -1.
         21   -1    0    0  501  502  0.00000000000E+00 -0.00000000000E+00 -0.31039397054E+03  0.31039397054E+03  0.00000000000E+00 0. -1.
         23    2    1    2    0    0 -0.40364863902E+02  0.51512794354E+02  0.35694056308E+03  0.37438593131E+03  0.92061771496E+02 0.  0.
        -24    2    1    2    0    0 -0.18130973611E+03  0.67536129429E+01 -0.43392213041E+02  0.20266399995E+03  0.79189525999E+02 0.  0.
         13    1    4    4    0    0 -0.13716691499E+03  0.31492216237E+02 -0.80968342294E+01  0.14096836870E+03  0.00000000000E+00 0. -1.
        -14    1    4    4    0    0 -0.44142821124E+02 -0.24738603294E+02 -0.35295378811E+02  0.61695631248E+02  0.00000000000E+00 0.  1.
        -13    1    3    3    0    0 -0.18442270953E+02 -0.93205104174E+01  0.12985010191E+02  0.24404912662E+02  0.00000000000E+00 0.  1.
         13    1    3    3    0    0 -0.21922592949E+02  0.60833304772E+02  0.34395555288E+03  0.34998101864E+03  0.00000000000E+00 0. -1.
          2    1    1    2  501    0  0.22167460001E+03 -0.58266407297E+02 -0.10512427687E+03  0.25216208299E+03  0.00000000000E+00 0. -1.
<scales pt_clust_5="13000.00000" pt_clust_6="13000.00000" pt_clust_7="13000.00000" pt_clust_8="13000.00000" pt_clust_9="205.05957"></scales>
<clustering>
<clus scale="   79.190">  5  6 -1 -1</clus>
<clus scale="   92.062">  7  8 -1 -1</clus>
<clus scale="  112.952">  1  7  2 -1</clus>
<clus scale="  205.060">  2  9  1 -1</clus>
<clus scale="  205.060">  2  5  1 -1</clus>
</clustering>
</event>
<event>
 9    1  0.7586638E-005  0.1364502E+03  0.7546771E-02  0.1220791E+00
         21   -1    0    0  501  502  0.00000000000E+00  0.00000000000E+00  0.30851156003E+03  0.30851156003E+03  0.00000000000E+00 0. -1.
          1   -1    0    0  502    0 -0.00000000000E+00 -0.00000000000E+00 -0.20801307799E+03  0.20801307799E+03  0.00000000000E+00 0. -1.
         23    2    1    2    0    0  0.80065383383E+02 -0.35176923067E+02 -0.10790718980E+03  0.16704088677E+03  0.92794475638E+02 0.  0.
        -24    2    1    2    0    0 -0.13436627408E+03  0.54049445552E+02  0.39310668109E+02  0.17088397766E+03  0.81733512226E+02 0.  0.
         13    1    4    4    0    0 -0.91097194246E+02  0.16309926883E+02 -0.12701172599E+02  0.93413234072E+02  0.00000000000E+00 0. -1.
        -14    1    4    4    0    0 -0.43269079833E+02  0.37739518669E+02  0.52011840707E+02  0.77470743592E+02  0.00000000000E+00 0.  1.
        -13    1    3    3    0    0  0.65705186556E+02 -0.66232028273E+02 -0.78723467894E+02  0.12207062508E+03  0.00000000000E+00 0.  1.
         13    1    3    3    0    0  0.14360196827E+02  0.31055105206E+02 -0.29183721910E+02  0.44970261693E+02  0.00000000000E+00 0. -1.
          2    1    1    2  501    0  0.54300890696E+02 -0.18872522485E+02  0.16909500374E+03  0.17859977358E+03  0.00000000000E+00 0. -1.
<scales pt_clust_5="13000.00000" pt_clust_6="13000.00000" pt_clust_7="13000.00000" pt_clust_8="13000.00000" pt_clust_9="57.48703"></scales>
<clustering>
<clus scale="   57.487">  1  9  2 -1</clus>
<clus scale="   81.734">  5  6 -1 -1</clus>
<clus scale="   92.794">  7  8 -1 -1</clus>
<clus scale="  129.183">  1  5  2 -1</clus>
<clus scale="   57.487">  1  5  2 -1</clus>
</clustering>
</event>
<event>
 9    1  0.7586638E-005  0.1064050E+03  0.7546771E-02  0.1271806E+00
          1   -1    0    0  502    0 -0.00000000000E+00  0.00000000000E+00  0.21407722078E+03  0.21407722078E+03  0.00000000000E+00 0. -1.
         21   -1    0    0  501  502  0.00000000000E+00 -0.00000000000E+00 -0.11686247464E+03  0.11686247464E+03  0.00000000000E+00 0.  1.
        -24    2    1    2    0    0  0.32370575097E+00  0.65734354961E+02  0.13180623450E+03  0.16852196392E+03  0.81888086213E+02 0.  0.
         23    2    1    2    0    0  0.27672679566E+02 -0.10516226086E+02 -0.21557632199E+02  0.99150672513E+02  0.92139872739E+02 0.  0.
         13    1    3    3    0    0  0.52984545470E+01  0.84252778658E+02  0.95499685745E+02  0.12746291347E+03  0.00000000000E+00 0. -1.
        -14    1    3    3    0    0 -0.49747487960E+01 -0.18518423697E+02  0.36306548751E+02  0.41059050452E+02  0.00000000000E+00 0.  1.
        -11    1    4    4    0    0  0.37386819278E+02 -0.43426382842E+02 -0.28719928922E+02  0.64097264370E+02  0.00000000000E+00 0.  1.
         11    1    4    4    0    0 -0.97141397112E+01  0.32910156757E+02  0.71622967230E+01  0.35053408143E+02  0.00000000000E+00 0. -1.
          2    1    1    2  501    0 -0.27996385317E+02 -0.55218128875E+02 -0.13033856157E+02  0.63267058993E+02  0.00000000000E+00 0. -1.
<scales pt_clust_5="13000.00000" pt_clust_6="13000.00000" pt_clust_7="13000.00000" pt_clust_8="13000.00000" pt_clust_9="61.90993"></scales>
<clustering>
<clus scale="   61.910">  2  9  1 -1</clus>
<clus scale="   81.888">  5  6 -1 -1</clus>
<clus scale="   92.140">  7  8 -1 -1</clus>
<clus scale="   97.662">  1  5  2 -1</clus>
<clus scale="   61.910">  2  5  1 -1</clus>
</clustering>
</event>
<event>
 9    1  0.7586638E-005  0.2144678E+03  0.7546771E-02  0.1139007E+00
         21   -1    0    0  501  502  0.00000000000E+00  0.00000000000E+00  0.20234335677E+04  0.20234335677E+04  0.00000000000E+00 0.  1.
         -2   -1    0    0    0  501 -0.00000000000E+00 -0.00000000000E+00 -0.48532954582E+02  0.48532954582E+02  0.00000000000E+00 0.  1.
         23    2    1    2    0    0  0.33480760695E+02  0.21580020351E+03  0.37311300670E+03  0.44202871972E+03  0.92116144724E+02 0.  0.
        -24    2    1    2    0    0  0.26782093835E+02 -0.11968595497E+03  0.12871031282E+04  0.12954293853E+04  0.80379233776E+02 0.  0.
         11    1    4    4    0    0 -0.16119563612E+02 -0.35100568895E+02  0.17120206535E+03  0.17550509237E+03  0.00000000000E+00 0. -1.
        -12    1    4    4    0    0  0.42901657447E+02 -0.84585386077E+02  0.11159010629E+04  0.11199242929E+04  0.00000000000E+00 0.  1.
        -13    1    3    3    0    0  0.65427986295E+02  0.15681610945E+03  0.26512476111E+03  0.31490197288E+03  0.00000000000E+00 0.  1.
         13    1    3    3    0    0 -0.31947225600E+02  0.58984094062E+02  0.10798824559E+03  0.12712674684E+03  0.00000000000E+00 0. -1.
         -1    1    1    2    0  502 -0.60262854531E+02 -0.96114248541E+02  0.31468447824E+03  0.33450841731E+03  0.00000000000E+00 0.  1.
<scales pt_clust_5="13000.00000" pt_clust_6="13000.00000" pt_clust_7="13000.00000" pt_clust_8="13000.00000" pt_clust_9="113.44414"></scales>
<clustering>
<clus scale="   80.379">  5  6 -1 -1</clus>
<clus scale="   92.116">  7  8 -1 -1</clus>
<clus scale="  113.444">  1  9  2 -1</clus>
<clus scale="  209.695">  1  5  2 -1</clus>
<clus scale="  113.444">  1  5  2 -1</clus>
</clustering>
</event>
<event>
 9    1  0.7586638E-005  0.2421992E+03  0.7546771E-02  0.1130490E+00
         21   -1    0    0  501  502  0.00000000000E+00  0.00000000000E+00  0.58746519345E+03  0.58746519345E+03  0.00000000000E+00 0. -1.
         -4   -1    0    0    0  501 -0.00000000000E+00 -0.00000000000E+00 -0.42156841271E+03  0.42156841271E+03  0.00000000000E+00 0.  1.
        -24    2    1    2    0    0  0.78482969559E+02  0.14364338441E+03  0.30956284265E+03  0.35766439321E+03  0.72812541655E+02 0.  0.
         23    2    1    2    0    0  0.15954111110E+03 -0.98809677481E+02 -0.29898922589E+03  0.36363529156E+03  0.87288885771E+02 0.  0.
         11    1    3    3    0    0  0.39252643306E+02  0.12015825168E+03  0.26601775660E+03  0.29452372108E+03  0.00000000000E+00 0. -1.
        -12    1    3    3    0    0  0.39230326254E+02  0.23485132730E+02  0.43545086054E+02  0.63140672128E+02  0.00000000000E+00 0.  1.
        -11    1    4    4    0    0  0.16537040644E+03 -0.74389749416E+02 -0.27058472298E+03  0.32572580256E+03  0.00000000000E+00 0.  1.
         11    1    4    4    0    0 -0.58292953437E+01 -0.24419928065E+02 -0.28404502914E+02  0.37909489006E+02  0.00000000000E+00 0. -1.
         -3    1    1    2    0  502 -0.23802408065E+03 -0.44833706928E+02  0.15532316398E+03  0.28773392139E+03  0.00000000000E+00 0.  1.
<scales pt_clust_5="13000.00000" pt_clust_6="13000.00000" pt_clust_7="13000.00000" pt_clust_8="13000.00000" pt_clust_9="225.92274"></scales>
<clustering>
<clus scale="   72.813">  5  6 -1 -1</clus>
<clus scale="   87.289">  7  8 -1 -1</clus>
<clus scale="  179.150">  2  5  1 -1</clus>
<clus scale="  225.923">  1  9  2 -1</clus>
<clus scale="  225.923">  1  5  2 -1</clus>
</clustering>
</event>
<event>
 9    1  0.7586638E-005  0.1368713E+03  0.7546771E-02  0.1221435E+00
         21   -1    0    0  501  502  0.00000000000E+00  0.00000000000E+00  0.80233284280E+02  0.80233284280E+02  0.00000000000E+00 0. -1.
          1   -1    0    0  502    0 -0.00000000000E+00 -0.00000000000E+00 -0.62883942944E+03  0.62883942944E+03  0.00000000000E+00 0. -1.
        -24    2    1    2    0    0  0.52800980016E+02  0.52693091264E+02 -0.11617975166E+03  0.15688402676E+03  0.74500723476E+02 0.  0.
         23    2    1    2    0    0 -0.13047073387E+03 -0.11252131075E+03 -0.13021622162E+03  0.23447341428E+03  0.91311882363E+02 0.  0.
         13    1    3    3    0    0  0.14478504797E+02 -0.16478621811E+02 -0.46796115920E+02  0.51682187872E+02  0.00000000000E+00 0. -1.
        -14    1    3    3    0    0  0.38322475219E+02  0.69171713075E+02 -0.69383635741E+02  0.10520183889E+03  0.00000000000E+00 0.  1.
        -11    1    4    4    0    0 -0.66045465265E+02 -0.47676209355E+02 -0.79890896754E+01  0.81846502518E+02  0.00000000000E+00 0. -1.
         11    1    4    4    0    0 -0.64425268606E+02 -0.64845101392E+02 -0.12222713195E+03  0.15262691176E+03  0.00000000000E+00 0.  1.
          2    1    1    2  501    0  0.77669753855E+02  0.59828219484E+02 -0.30221017188E+03  0.31771527269E+03  0.00000000000E+00 0. -1.
<scales pt_clust_5="13000.00000" pt_clust_6="13000.00000" pt_clust_7="13000.00000" pt_clust_8="13000.00000" pt_clust_9="98.04089"></scales>
<clustering>
<clus scale="   74.501">  5  6 -1 -1</clus>
<clus scale="   91.312">  7  8 -1 -1</clus>
<clus scale="   98.041">  1  9  2 -1</clus>
<clus scale="  126.278">  2  5  1 -1</clus>
<clus scale="   98.041">  1  5  2 -1</clus>
</clustering>
</event>
<event>
 9    1  0.7586638E-005  0.2445264E+03  0.7546771E-02  0.1139196E+00
         21   -1    0    0  501  502  0.00000000000E+00  0.00000000000E+00  0.11555927572E+03  0.11555927572E+03  0.00000000000E+00 0.  1.
          3   -1    0    0  502    0 -0.00000000000E+00 -0.00000000000E+00 -0.88288002369E+03  0.88288002369E+03  0.00000000000E+00 0. -1.
         23    2    1    2    0    0  0.50316817216E+02  0.95102053165E+02 -0.15958893879E+03  0.21284562954E+03  0.90876014548E+02 0.  0.
        -24    2    1    2    0    0  0.19832131487E+03 -0.37119115787E+02 -0.40431260849E+03  0.45915483493E+03  0.81518736262E+02 0.  0.
         11    1    4    4    0    0  0.35283261828E+02  0.16655378119E+01 -0.15345325044E+03  0.15746613176E+03  0.00000000000E+00 0. -1.
        -12    1    4    4    0    0  0.16303805304E+03 -0.38784653599E+02 -0.25085935805E+03  0.30168870316E+03  0.00000000000E+00 0.  1.
        -11    1    3    3    0    0  0.16364115038E+02  0.39216302888E+02 -0.23580419460E+01  0.42558936018E+02  0.00000000000E+00 0.  1.
         11    1    3    3    0    0  0.33952702177E+02  0.55885750277E+02 -0.15723089684E+03  0.17028669352E+03  0.00000000000E+00 0. -1.
          4    1    1    2  501    0 -0.24863813209E+03 -0.57982937378E+02 -0.20341920069E+03  0.32643883495E+03  0.00000000000E+00 0. -1.
<scales pt_clust_5="13000.00000" pt_clust_6="13000.00000" pt_clust_7="13000.00000" pt_clust_8="13000.00000" pt_clust_9="230.53817"></scales>
<clustering>
<clus scale="   81.519">  5  6 -1 -1</clus>
<clus scale="   90.876">  7  8 -1 -1</clus>
<clus scale="  140.836">  2  7  1 -1</clus>
<clus scale="  230.538">  1  9  2 -1</clus>
<clus scale="  230.538">  1  5  2 -1</clus>
</clustering>
</event>
<event>
 9    1  0.7586638E-005  0.1028190E+03  0.7546771E-02  0.1280183E+00
         21   -1    0    0  501  502  0.00000000000E+00  0.00000000000E+00  0.14197606475E+03  0.14197606475E+03  0.00000000000E+00 0.  1.
          1   -1    0    0  502    0 -0.00000000000E+00 -0.00000000000E+00 -0.27617221876E+03  0.27617221876E+03  0.00000000000E+00 0. -1.
        -24    2    1    2    0    0  0.35790700563E+02  0.72937363150E+01 -0.23788467845E+03  0.25907645546E+03  0.95902641772E+02 0.  0.
         23    2    1    2    0    0 -0.36231456756E+02 -0.29772376394E+02  0.73117457028E+02  0.12112352521E+03  0.84413464457E+02 0.  0.
         11    1    3    3    0    0  0.22468081052E+02  0.41307572025E+02 -0.20366298238E+03  0.20902090939E+03  0.00000000000E+00 0. -1.
        -12    1    3    3    0    0  0.13322619511E+02 -0.34013835710E+02 -0.34221696068E+02  0.50055546067E+02  0.00000000000E+00 0.  1.
        -11    1    4    4    0    0 -0.22251366997E+00 -0.35305841699E+02 -0.42949848164E+01  0.35566822532E+02  0.00000000000E+00 0. -1.
         11    1    4    4    0    0 -0.36008943086E+02  0.55334653051E+01  0.77412441844E+02  0.85556702676E+02  0.00000000000E+00 0.  1.
          2    1    1    2  501    0  0.44075619352E+00  0.22478640079E+02  0.30571067408E+02  0.37948302838E+02  0.00000000000E+00 0. -1.
<scales pt_clust_5="13000.00000" pt_clust_6="13000.00000" pt_clust_7="13000.00000" pt_clust_8="13000.00000" pt_clust_9="22.48296"></scales>
<clustering>
<clus scale="   22.483">  1  9  2 -1</clus>
<clus scale="   84.413">  7  8 -1 -1</clus>
<clus scale="   92.196">  1  7  2 -1</clus>
<clus scale="   95.903">  5  6 -1 -1</clus>
<clus scale="   22.483">  1  5  2 -1</clus>
</clustering>
</event>
<event>
 9    1  0.7586638E-005  0.1990902E+03  0.7546771E-02  0.1152032E+00
         21   -1    0    0  501  502  0.00000000000E+00  0.00000000000E+00  0.13778967386E+04  0.13778967386E+04  0.00000000000E+00 0. -1.
          1   -1    0    0  502    0 -0.00000000000E+00 -0.00000000000E+00 -0.39444969965E+02  0.39444969965E+02  0.00000000000E+00 0. -1.
         23    2    1    2    0    0  0.20268550784E+02 -0.18027828911E+03  0.44822213597E+03  0.49284007654E+03  0.95274247288E+02 0.  0.
        -24    2    1    2    0    0 -0.10650961969E+02  0.16204010761E+03  0.88492874352E+03  0.90321246330E+03  0.79520018157E+02 0.  0.
         13    1    4    4    0    0 -0.41574257835E+02  0.12909611993E+03  0.66684209146E+03  0.68049438060E+03  0.00000000000E+00 0. -1.
        -14    1    4    4    0    0  0.30923295867E+02  0.32943987677E+02  0.21808665207E+03  0.22271808270E+03  0.00000000000E+00 0.  1.
        -11    1    3    3    0    0 -0.60988146219E+01 -0.16347912815E+03  0.30352977920E+03  0.34480856681E+03  0.00000000000E+00 0. -1.
         11    1    3    3    0    0  0.26367365406E+02 -0.16799160959E+02  0.14469235676E+03  0.14803150973E+03  0.00000000000E+00 0.  1.
          2    1    1    2  501    0 -0.96175888157E+01  0.18238181497E+02  0.53008891353E+01  0.21289168715E+02  0.00000000000E+00 0. -1.
<scales pt_clust_5="13000.00000" pt_clust_6="13000.00000" pt_clust_7="13000.00000" pt_clust_8="13000.00000" pt_clust_9="20.61867"></scales>
<clustering>
<clus scale="   20.619">  1  9  2 -1</clus>
<clus scale="   79.520">  5  6 -1 -1</clus>
<clus scale="   95.274">  7  8 -1 -1</clus>
<clus scale="  192.050">  1  5  2 -1</clus>
<clus scale="   20.619">  1  5  2 -1</clus>
</clustering>
</event>
<event>
 9    1  0.7586638E-005  0.9835701E+02  0.7546771E-02  0.1288708E+00
         21   -1    0    0  501  502  0.00000000000E+00  0.00000000000E+00  0.85866569611E+02  0.85866569611E+02  0.00000000000E+00 0. -1.
          1   -1    0    0  502    0 -0.00000000000E+00 -0.00000000000E+00 -0.19150094523E+03  0.19150094523E+03  0.00000000000E+00 0. -1.
        -24    2    1    2    0    0 -0.83578905581E+01 -0.44296787984E+02 -0.11655184162E+03  0.14886882347E+03  0.80904481059E+02 0.  0.
         23    2    1    2    0    0 -0.87414647960E+01  0.23187025398E+02 -0.98493427504E+01  0.94304095664E+02  0.90455522512E+02 0.  0.
         13    1    3    3    0    0 -0.21467079045E+02  0.27264215581E+01 -0.91452737388E+02  0.93978040164E+02  0.00000000000E+00 0. -1.
        -14    1    3    3    0    0  0.13109188487E+02 -0.47023209542E+02 -0.25099104230E+02  0.54890783302E+02  0.00000000000E+00 0.  1.
        -11    1    4    4    0    0  0.97175223015E+01  0.48939068811E+02 -0.28577074282E+02  0.57498798859E+02  0.00000000000E+00 0.  1.
         11    1    4    4    0    0 -0.18458987097E+02 -0.25752043413E+02  0.18727731532E+02  0.36805296805E+02  0.00000000000E+00 0. -1.
          2    1    1    2  501    0  0.17099355354E+02  0.21109762586E+02  0.20766808751E+02  0.34194595708E+02  0.00000000000E+00 0. -1.
<scales pt_clust_5="13000.00000" pt_clust_6="13000.00000" pt_clust_7="13000.00000" pt_clust_8="13000.00000" pt_clust_9="27.16634"></scales>
<clustering>
<clus scale="   27.166">  1  9  2 -1</clus>
<clus scale="   80.904">  5  6 -1 -1</clus>
<clus scale="   89.652">  2  5  1 -1</clus>
<clus scale="   90.456">  7  8 -1 -1</clus>
<clus scale="   27.166">  1  5  2 -1</clus>
</clustering>
</event>
<event>
 9    1  0.7586638E-005  0.1269099E+03  0.7546771E-02  0.1233871E+00
         -4   -1    0    0    0  501 -0.00000000000E+00  0.00000000000E+00  0.28922880777E+03  0.28922880777E+03  0.00000000000E+00 0.  1.
         21   -1    0    0  501  502  0.00000000000E+00 -0.00000000000E+00 -0.84390650500E+02  0.84390650500E+02  0.00000000000E+00 0. -1.
        -24    2    1    2    0    0 -0.67590444683E+02 -0.65305667266E+02  0.19823058812E+03  0.23512399537E+03  0.84585038527E+02 0.  0.
         23    2    1    2    0    0  0.51629473318E+02  0.50997264994E+02  0.99677791649E+01  0.11679813602E+03  0.90973207066E+02 0.  0.
         13    1    3    3    0    0 -0.79760210584E+02 -0.74936391204E+02  0.18389574137E+03  0.21399719067E+03  0.00000000000E+00 0. -1.
        -14    1    3    3    0    0  0.12169765901E+02  0.96307239376E+01  0.14334846755E+02  0.21126804708E+02  0.00000000000E+00 0.  1.
        -13    1    4    4    0    0  0.37655922448E+01 -0.25691846306E+02  0.27027190030E+01  0.26106614901E+02  0.00000000000E+00 0. -1.
         13    1    4    4    0    0  0.47863881073E+02  0.76689111301E+02  0.72650601619E+01  0.90691521117E+02  0.00000000000E+00 0.  1.
         -3    1    1    2    0  502  0.15960971365E+02  0.14308402272E+02 -0.33602100148E+01  0.21697326882E+02  0.00000000000E+00 0.  1.
<scales pt_clust_5="13000.00000" pt_clust_6="13000.00000" pt_clust_7="13000.00000" pt_clust_8="13000.00000" pt_clust_9="21.43555"></scales>
<clustering>
<clus scale="   21.436">  2  9  1 -1</clus>
<clus scale="   84.585">  5  6 -1 -1</clus>
<clus scale="   90.973">  7  8 -1 -1</clus>
<clus scale="  122.412">  1  5  2 -1</clus>
<clus scale="   21.436">  2  5  1 -1</clus>
</clustering>
</event>
<event>
 9    1  0.7586638E-005  0.1298220E+03  0.7546771E-02  0.1230562E+00
          1   -1    0    0  502    0 -0.00000000000E+00  0.00000000000E+00  0.16039585026E+03  0.16039585026E+03  0.00000000000E+00 0. -1.
         21   -1    0    0  501  502  0.00000000000E+00 -0.00000000000E+00 -0.17263501766E+03  0.17263501766E+03  0.00000000000E+00 0. -1.
         23    2    1    2    0    0  0.39548644285E+02  0.91645116414E+02  0.88707878382E+02  0.16192814928E+03  0.91589929656E+02 0.  0.
        -24    2    1    2    0    0 -0.34532683625E+02 -0.60623098326E+02 -0.78963432648E+02  0.13275164677E+03  0.80747196455E+02 0.  0.
         13    1    4    4    0    0 -0.36769677370E+02 -0.47530259529E+02 -0.94701018261E+02  0.11215800285E+03  0.00000000000E+00 0. -1.
        -14    1    4    4    0    0  0.22369937452E+01 -0.13092838797E+02  0.15737585612E+02  0.20593643915E+02  0.00000000000E+00 0.  1.
        -13    1    3    3    0    0 -0.16929224581E+02  0.53018129779E+02  0.72874768196E+02  0.91696524306E+02  0.00000000000E+00 0. -1.
         13    1    3    3    0    0  0.56477868866E+02  0.38626986636E+02  0.15833110186E+02  0.70231624973E+02  0.00000000000E+00 0.  1.
          2    1    1    2  501    0 -0.50159606595E+01 -0.31022018088E+02 -0.21983613133E+02  0.38351071875E+02  0.00000000000E+00 0. -1.
<scales pt_clust_5="13000.00000" pt_clust_6="13000.00000" pt_clust_7="13000.00000" pt_clust_8="13000.00000" pt_clust_9="31.42492"></scales>
<clustering>
<clus scale="   31.425">  2  9  1 -1</clus>
<clus scale="   80.747">  5  6 -1 -1</clus>
<clus scale="   91.590">  7  8 -1 -1</clus>
<clus scale="  122.414">  2  5  1 -1</clus>
<clus scale="   31.425">  2  5  1 -1</clus>
</clustering>
</event>
<event>
 9    1  0.7586638E-005  0.9827469E+02  0.7546771E-02  0.1289458E+00
          1   -1    0    0  502    0 -0.00000000000E+00  0.00000000000E+00  0.54585210733E+03  0.54585210733E+03  0.00000000000E+00 0. -1.
         21   -1    0    0  501  502  0.00000000000E+00 -0.00000000000E+00 -0.70034706523E+02  0.70034706523E+02  0.00000000000E+00 0. -1.
         23    2    1    2    0    0 -0.54924318747E+02  0.35255214511E+01  0.38102723664E+03  0.39561242646E+03  0.91095152529E+02 0.  0.
        -24    2    1    2    0    0 -0.40468145358E+01  0.36481712098E+02  0.11598865493E+03  0.14592689714E+03  0.80585353570E+02 0.  0.
         11    1    4    4    0    0 -0.16062006764E+02 -0.22889635689E+02  0.35465899584E+02  0.45163630463E+02  0.00000000000E+00 0. -1.
        -12    1    4    4    0    0  0.12015192228E+02  0.59371347787E+02  0.80522755349E+02  0.10076326668E+03  0.00000000000E+00 0.  1.
        -11    1    3    3    0    0 -0.67041520475E+02 -0.15258192353E+02  0.35363626715E+03  0.36025822315E+03  0.00000000000E+00 0. -1.
         11    1    3    3    0    0  0.12117201728E+02  0.18783713804E+02  0.27390969487E+02  0.35354203306E+02  0.00000000000E+00 0.  1.
          2    1    1    2  501    0  0.58971133283E+02 -0.40007233550E+02 -0.21198490764E+02  0.74347490258E+02  0.00000000000E+00 0. -1.
<scales pt_clust_5="13000.00000" pt_clust_6="13000.00000" pt_clust_7="13000.00000" pt_clust_8="13000.00000" pt_clust_9="71.26130"></scales>
<clustering>
<clus scale="   71.261">  2  9  1 -1</clus>
<clus scale="   80.585">  5  6 -1 -1</clus>
<clus scale="   88.620">  2  5  1 -1</clus>
<clus scale="   91.095">  7  8 -1 -1</clus>
<clus scale="   71.261">  2  5  1 -1</clus>
</clustering>
</event>
<event>
 9    1  0.7586638E-005  0.2041663E+03  0.7546771E-02  0.1155554E+00
         21   -1    0    0  501  502  0.00000000000E+00  0.00000000000E+00  0.39100315169E+03  0.39100315169E+03  0.00000000000E+00 0.  1.
         -2   -1    0    0    0  501 -0.00000000000E+00 -0.00000000000E+00 -0.21975026384E+03  0.21975026384E+03  0.00000000000E+00 0.  1.
         23    2    1    2    0    0 -0.59441444798E+02 -0.12318666077E+03  0.48336356690E+02  0.17089008159E+03  0.90325953406E+02 0.  0.
        -24    2    1    2    0    0  0.11182296521E+03 -0.96638900658E+02 -0.25228558182E+02  0.16965217830E+03  0.79384688608E+02 0.  0.
         11    1    4    4    0    0  0.69190236802E+02 -0.37999005337E+02 -0.49527460150E+02  0.93188961708E+02  0.00000000000E+00 0. -1.
        -12    1    4    4    0    0  0.42632728409E+02 -0.58639895321E+02  0.24298901968E+02  0.76463216593E+02  0.00000000000E+00 0.  1.
        -13    1    3    3    0    0 -0.15934779575E+02  0.12956692465E+02  0.10371185980E+02  0.23007706934E+02  0.00000000000E+00 0. -1.
         13    1    3    3    0    0 -0.43506665223E+02 -0.13614335323E+03  0.37965170710E+02  0.14788237466E+03  0.00000000000E+00 0.  1.
         -1    1    1    2    0  502 -0.52381520413E+02  0.21982556143E+03  0.14814508934E+03  0.27021115564E+03  0.00000000000E+00 0.  1.
<scales pt_clust_5="13000.00000" pt_clust_6="13000.00000" pt_clust_7="13000.00000" pt_clust_8="13000.00000" pt_clust_9="188.10093"></scales>
<clustering>
<clus scale="   79.385">  5  6 -1 -1</clus>
<clus scale="   90.326">  7  8 -1 -1</clus>
<clus scale="  163.912">  2  7  1 -1</clus>
<clus scale="  188.101">  1  9  2 -1</clus>
<clus scale="  188.101">  1  5  2 -1</clus>
</clustering>
</event>
<event>
 9    1  0.7586638E-005  0.1278037E+03  0.7546771E-02  0.1233340E+00
         -2   -1    0    0    0  501 -0.00000000000E+00  0.00000000000E+00  0.53126130295E+03  0.53126130295E+03  0.00000000000E+00 0.  1.
         21   -1    0    0  501  502  0.00000000000E+00 -0.00000000000E+00 -0.71651963773E+02  0.71651963773E+02  0.00000000000E+00 0. -1.
        -24    2    1    2    0    0  0.86064383598E+02  0.40102592764E+02  0.42341823204E+03  0.44123708017E+03  0.79949143966E+02 0.  0.
         23    2    1    2    0    0 -0.57612569939E+02 -0.50522301258E+02  0.50320602736E+02  0.12824388673E+03  0.89680657246E+02 0.  0.
         13    1    3    3    0    0  0.14951881307E+02  0.28470037570E+02  0.41088764839E+02  0.52176511859E+02  0.00000000000E+00 0. -1.
        -14    1    3    3    0    0  0.71112502291E+02  0.11632555195E+02  0.38232946720E+03  0.38906056831E+03  0.00000000000E+00 0.  1.
        -11    1    4    4    0    0 -0.67293984360E+02 -0.69423292593E+02  0.40007828315E+02  0.10463603687E+03  0.00000000000E+00 0. -1.
         11    1    4    4    0    0  0.96814144204E+01  0.18900991336E+02  0.10312774421E+02  0.23607849858E+02  0.00000000000E+00 0.  1.
         -1    1    1    2    0  502 -0.28451813658E+02  0.10419708493E+02 -0.14129495602E+02  0.33432299824E+02  0.00000000000E+00 0.  1.
<scales pt_clust_5="13000.00000" pt_clust_6="13000.00000" pt_clust_7="13000.00000" pt_clust_8="13000.00000" pt_clust_9="30.29977"></scales>
<clustering>
<clus scale="   30.300">  2  9  1 -1</clus>
<clus scale="   79.949">  5  6 -1 -1</clus>
<clus scale="   89.681">  7  8 -1 -1</clus>
<clus scale="  121.174">  1  5  2 -1</clus>
<clus scale="   30.300">  2  5  1 -1</clus>
</clustering>
</event>
<event>
 9    1  0.7586638E-005  0.2419361E+03  0.7546771E-02  0.1158868E+00
         21   -1    0    0  501  502  0.00000000000E+00  0.00000000000E+00  0.43832217729E+03  0.43832217729E+03  0.00000000000E+00 0. -1.
          1   -1    0    0  502    0 -0.00000000000E+00 -0.00000000000E+00 -0.40805125497E+03  0.40805125497E+03  0.00000000000E+00 0. -1.
        -24    2    1    2    0    0 -0.72863130843E+01 -0.37594425350E+02 -0.19266066185E+03  0.21313821764E+03  0.82724470488E+02 0.  0.
         23    2    1    2    0    0 -0.12934975581E+03 -0.14757980649E+03 -0.98496969208E+02  0.23791859925E+03  0.91610306809E+02 0.  0.
         11    1    3    3    0    0 -0.24062370531E+02 -0.25654852752E+02 -0.18897433061E+03  0.19221983971E+03  0.00000000000E+00 0. -1.
        -12    1    3    3    0    0  0.16776057447E+02 -0.11939572598E+02 -0.36863312336E+01  0.20918377930E+02  0.00000000000E+00 0.  1.
        -13    1    4    4    0    0 -0.64923698516E+02 -0.12252383677E+03 -0.32660131231E+02  0.14245652452E+03  0.00000000000E+00 0. -1.
         13    1    4    4    0    0 -0.64426057289E+02 -0.25055969721E+02 -0.65836837977E+02  0.95462074727E+02  0.00000000000E+00 0.  1.
          2    1    1    2  501    0  0.13663606889E+03  0.18517423184E+03  0.32142855338E+03  0.39531661537E+03  0.00000000000E+00 0. -1.
<scales pt_clust_5="13000.00000" pt_clust_6="13000.00000" pt_clust_7="13000.00000" pt_clust_8="13000.00000" pt_clust_9="223.92101"></scales>
<clustering>
<clus scale="   82.724">  5  6 -1 -1</clus>
<clus scale="   91.158">  2  5  1 -1</clus>
<clus scale="   91.610">  7  8 -1 -1</clus>
<clus scale="  223.921">  1  9  2 -1</clus>
<clus scale="  223.921">  1  5  2 -1</clus>
</clustering>
</event>
<event>
 9    1  0.7586638E-005  0.1164776E+03  0.7546771E-02  0.1252483E+00
         21   -1    0    0  501  502  0.00000000000E+00  0.00000000000E+00  0.76282642463E+02  0.76282642463E+02  0.00000000000E+00 0.  1.
          1   -1    0    0  502    0 -0.00000000000E+00 -0.00000000000E+00 -0.35903244611E+03  0.35903244611E+03  0.00000000000E+00 0. -1.
         23    2    1    2    0    0 -0.48371955432E+02 -0.95241563124E+02 -0.18589560502E+03  0.23229332599E+03  0.89399171787E+02 0.  0.
        -24    2    1    2    0    0 -0.20012103765E+02  0.43777198508E+02 -0.44193558597E+02  0.10253244282E+03  0.79012048469E+02 0.  0.
         11    1    4    4    0    0  0.28173618071E+02  0.24841041406E+01 -0.19902204952E+02  0.34583540747E+02  0.00000000000E+00 0. -1.
        -12    1    4    4    0    0 -0.48185721836E+02  0.41293094367E+02 -0.24291353645E+02  0.67948902075E+02  0.00000000000E+00 0.  1.
        -11    1    3    3    0    0 -0.39423886489E+02  0.35829611584E+01 -0.44585069425E+02  0.59623056381E+02  0.00000000000E+00 0.  1.
         11    1    3    3    0    0 -0.89480689428E+01 -0.98824524282E+02 -0.14131053559E+03  0.17267026961E+03  0.00000000000E+00 0. -1.
          2    1    1    2  501    0  0.68384059197E+02  0.51464364616E+02 -0.52660640034E+02  0.10048931976E+03  0.00000000000E+00 0. -1.
<scales pt_clust_5="13000.00000" pt_clust_6="13000.00000" pt_clust_7="13000.00000" pt_clust_8="13000.00000" pt_clust_9="85.58598"></scales>
<clustering>
<clus scale="   79.012">  5  6 -1 -1</clus>
<clus scale="   85.586">  1  9  2 -1</clus>
<clus scale="   89.399">  7  8 -1 -1</clus>
<clus scale="  108.709">  1  5  2 -1</clus>
<clus scale="   85.586">  1  5  2 -1</clus>
</clustering>
</event>
<event>
 9    1  0.7586638E-005  0.9156752E+02  0.7546771E-02  0.1304286E+00
         21   -1    0    0  501  502  0.00000000000E+00  0.00000000000E+00  0.17267411944E+03  0.17267411944E+03  0.00000000000E+00 0. -1.
         -2   -1    0    0    0  501 -0.00000000000E+00 -0.00000000000E+00 -0.28709596173E+03  0.28709596173E+03  0.00000000000E+00 0.  1.
        -24    2    1    2    0    0  0.20227527248E+02 -0.11954560363E+02 -0.17756962133E+03  0.19650794538E+03  0.80822879230E+02 0.  0.
         23    2    1    2    0    0  0.59148622729E+02  0.24856002086E+02  0.12149499465E+03  0.16390712609E+03  0.89376349496E+02 0.  0.
         11    1    3    3    0    0 -0.29569643078E+01 -0.44285023555E+02 -0.94137029008E+02  0.10407539181E+03  0.00000000000E+00 0. -1.
        -12    1    3    3    0    0  0.23184491556E+02  0.32330463192E+02 -0.83432592319E+02  0.92432553573E+02  0.00000000000E+00 0.  1.
        -11    1    4    4    0    0 -0.21055775322E+02  0.13105292824E+02  0.11677399957E+02  0.27412698593E+02  0.00000000000E+00 0.  1.
         11    1    4    4    0    0  0.80204398051E+02  0.11750709262E+02  0.10981759469E+03  0.13649442750E+03  0.00000000000E+00 0. -1.
         -1    1    1    2    0  502 -0.79376149977E+02 -0.12901441722E+02 -0.58347215604E+02  0.99355009700E+02  0.00000000000E+00 0.  1.
<scales pt_clust_5="13000.00000" pt_clust_6="13000.00000" pt_clust_7="13000.00000" pt_clust_8="13000.00000" pt_clust_9="80.41783"></scales>
<clustering>
<clus scale="   80.418">  1  9  2 -1</clus>
<clus scale="   80.823">  5  6 -1 -1</clus>
<clus scale="   83.240">  2  5  1 -1</clus>
<clus scale="   89.376">  7  8 -1 -1</clus>
<clus scale="   80.418">  1  5  2 -1</clus>
</clustering>
</event>
<event>
 9    1  0.7586638E-005  0.1110463E+03  0.7546771E-02  0.1261479E+00
          1   -1    0    0  502    0 -0.00000000000E+00  0.00000000000E+00  0.37045464053E+03  0.37045464053E+03  0.00000000000E+00 0. -1.
         21   -1    0    0  501  502  0.00000000000E+00 -0.00000000000E+00 -0.16816247745E+03  0.16816247745E+03  0.00000000000E+00 0. -1.
         23    2    1    2    0    0  0.68822166605E+02  0.25196837477E+02  0.28320613959E+03  0.30616869999E+03  0.90344806795E+02 0.  0.
        -24    2    1    2    0    0 -0.44439403567E+02  0.22622080719E+01  0.42861548032E+02  0.10334032841E+03  0.82837992501E+02 0.  0.
         13    1    4    4    0    0  0.21108807821E+02  0.13244298938E+02  0.13008108877E+01  0.24953663678E+02  0.00000000000E+00 0. -1.
        -14    1    4    4    0    0 -0.65548211388E+02 -0.10982090866E+02  0.41560737145E+02  0.78386664733E+02  0.00000000000E+00 0.  1.
        -11    1    3    3    0    0  0.67546112837E+01 -0.24062325205E+02  0.22299211390E+02  0.33494403958E+02  0.00000000000E+00 0.  1.
         11    1    3    3    0    0  0.62067555321E+02  0.49259162683E+02  0.26090692820E+03  0.27267429603E+03  0.00000000000E+00 0. -1.
          2    1    1    2  501    0 -0.24382763037E+02 -0.27459045549E+02 -0.12377552455E+03  0.12910808957E+03  0.00000000000E+00 0. -1.
<scales pt_clust_5="13000.00000" pt_clust_6="13000.00000" pt_clust_7="13000.00000" pt_clust_8="13000.00000" pt_clust_9="36.72218"></scales>
<clustering>
<clus scale="   36.722">  2  9  1 -1</clus>
<clus scale="   82.838">  5  6 -1 -1</clus>
<clus scale="   90.345">  7  8 -1 -1</clus>
<clus scale="  105.030">  2  5  1 -1</clus>
<clus scale="   36.722">  2  5  1 -1</clus>
</clustering>
</event>
<event>
 9    1  0.7586638E-005  0.9445608E+02  0.7546771E-02  0.1294614E+00
          1   -1    0    0  502    0 -0.00000000000E+00  0.00000000000E+00  0.33222507827E+03  0.33222507827E+03  0.00000000000E+00 0. -1.
         21   -1    0    0  501  502  0.00000000000E+00 -0.00000000000E+00 -0.38339934957E+02  0.38339934957E+02  0.00000000000E+00 0. -1.
        -24    2    1    2    0    0  0.12864690352E+02  0.37489646296E+02  0.16100321579E+03  0.18372823474E+03  0.79139464913E+02 0.  0.
         23    2    1    2    0    0 -0.38663482057E+02 -0.41494877204E+02  0.83517671073E+02  0.13099370065E+03  0.83471303748E+02 0.  0.
         11    1    3    3    0    0  0.42238703159E+02  0.36375702378E+02  0.79577239585E+02  0.97158822698E+02  0.00000000000E+00 0. -1.
        -12    1    3    3    0    0 -0.29374012807E+02  0.11139439178E+01  0.81425976208E+02  0.86569412040E+02  0.00000000000E+00 0.  1.
        -11    1    4    4    0    0  0.21322276188E+02 -0.15455021345E+02  0.52245239476E+02  0.58506941422E+02  0.00000000000E+00 0.  1.
         11    1    4    4    0    0 -0.59985758245E+02 -0.26039855858E+02  0.31272431597E+02  0.72486759227E+02  0.00000000000E+00 0. -1.
          2    1    1    2  501    0  0.25798791704E+02  0.40052309080E+01  0.49364256444E+02  0.55843077836E+02  0.00000000000E+00 0. -1.
<scales pt_clust_5="13000.00000" pt_clust_6="13000.00000" pt_clust_7="13000.00000" pt_clust_8="13000.00000" pt_clust_9="26.10786"></scales>
<clustering>
<clus scale="   26.108">  2  9  1 -1</clus>
<clus scale="   79.139">  5  6 -1 -1</clus>
<clus scale="   83.471">  7  8 -1 -1</clus>
<clus scale="   90.651">  1  5  2 -1</clus>
<clus scale="   26.108">  2  5  1 -1</clus>
</clustering>
</event>
<event>
 9    1  0.9951956E-005  0.4354978E+03  0.7546771E-02  0.1083812E+00
         21   -1    0    0  501  502  0.00000000000E+00  0.00000000000E+00  0.99687987084E+03  0.99687987084E+03  0.00000000000E+00 0. -1.
          1   -1    0    0  502    0 -0.00000000000E+00 -0.00000000000E+00 -0.49224506815E+03  0.49224506815E+03  0.00000000000E+00 0. -1.
        -24    2    1    2    0    0  0.65924915453E+01  0.64054914412E+02  0.13322582542E+02  0.10274851169E+03  0.78951076274E+02 0.  0.
         23    2    1    2    0    0  0.41085718537E+03  0.10082584369E+03  0.75180568914E+03  0.86742869916E+03  0.90836536584E+02 0.  0.
         11    1    3    3    0    0  0.38857851308E+02  0.55124436868E+02  0.15491496973E+02  0.69199874471E+02  0.00000000000E+00 0. -1.
        -12    1    3    3    0    0 -0.32265359763E+02  0.89304775436E+01 -0.21689144312E+01  0.33548637224E+02  0.00000000000E+00 0.  1.
        -11    1    4    4    0    0  0.23198095449E+03  0.29437098695E+02  0.48435319239E+03  0.53784730269E+03  0.00000000000E+00 0. -1.
         11    1    4    4    0    0  0.17887623088E+03  0.71388744997E+02  0.26745249675E+03  0.32958139647E+03  0.00000000000E+00 0.  1.
          2    1    1    2  501    0 -0.41744967691E+03 -0.16488075810E+03 -0.26049346899E+03  0.51894772813E+03  0.00000000000E+00 0. -1.
<scales pt_clust_5="13000.00000" pt_clust_6="13000.00000" pt_clust_7="13000.00000" pt_clust_8="13000.00000" pt_clust_9="425.91924"></scales>
<clustering>
<clus scale="   78.951">  5  6 -1 -1</clus>
<clus scale="   90.837">  7  8 -1 -1</clus>
<clus scale="  101.881">  2  5  1 -1</clus>
<clus scale="  425.919">  1  9  2 -1</clus>
<clus scale="  425.919">  1  5  2 -1</clus>
</clustering>
</event>
<event>
 9    1  0.7586638E-005  0.1337028E+03  0.7546771E-02  0.1222283E+00
          1   -1    0    0  502    0 -0.00000000000E+00  0.00000000000E+00  0.45992943796E+03  0.45992943796E+03  0.00000000000E+00 0. -1.
         21   -1    0    0  501  502  0.00000000000E+00 -0.00000000000E+00 -0.33566821689E+03  0.33566821689E+03  0.00000000000E+00 0. -1.
        -24    2    1    2    0    0  0.10423872279E+03 -0.28283422909E+02 -0.10777295694E+03  0.17125227752E+03  0.77760330304E+02 0.  0.
         23    2    1    2    0    0 -0.32177218111E+02 -0.93059405883E+02 -0.15945308092E+03  0.20819730697E+03  0.90694030832E+02 0.  0.
         13    1    3    3    0    0  0.11649036509E+03 -0.20194292024E+02 -0.92968938164E+02  0.15040291903E+03  0.00000000000E+00 0. -1.
        -14    1    3    3    0    0 -0.12251642303E+02 -0.80891308856E+01 -0.14804018779E+02  0.20849358494E+02  0.00000000000E+00 0.  1.
        -13    1    4    4    0    0 -0.92246934431E+01 -0.40012193896E+02 -0.14200323738E+03  0.14782080386E+03  0.00000000000E+00 0. -1.
         13    1    4    4    0    0 -0.22952524668E+02 -0.53047211987E+02 -0.17449843541E+02  0.60376503110E+02  0.00000000000E+00 0.  1.
          2    1    1    2  501    0 -0.72061504677E+02  0.12134282879E+03  0.39148725892E+03  0.41614807035E+03  0.00000000000E+00 0. -1.
<scales pt_clust_5="13000.00000" pt_clust_6="13000.00000" pt_clust_7="13000.00000" pt_clust_8="13000.00000" pt_clust_9="98.23966"></scales>
<clustering>
<clus scale="   77.760">  5  6 -1 -1</clus>
<clus scale="   90.694">  7  8 -1 -1</clus>
<clus scale="  133.088">  1  5  2 -1</clus>
<clus scale="   98.240">  2  9  1 -1</clus>
<clus scale="   98.240">  2  5  1 -1</clus>
</clustering>
</event>
<event>
 9    1  0.7586638E-005  0.1804622E+03  0.7546771E-02  0.1169712E+00
          1   -1    0    0  502    0 -0.00000000000E+00  0.00000000000E+00  0.59544526507E+03  0.59544526507E+03  0.00000000000E+00 0. -1.
         21   -1    0    0  501  502  0.00000000000E+00 -0.00000000000E+00 -0.96661959709E+02  0.96661959709E+02  0.00000000000E+00 0. -1.
         23    2    1    2    0    0  0.55040386530E+02 -0.12007602827E+03  0.24133747269E+03  0.29186598676E+03  0.97438605219E+02 0.  0.
        -24    2    1    2    0    0 -0.12934005021E+03  0.13158919102E+03  0.25582272659E+03  0.32503733245E+03  0.78482076057E+02 0.  0.
         11    1    4    4    0    0 -0.12068088296E+03  0.11000477450E+03  0.25366609292E+03  0.30168097822E+03  0.00000000000E+00 0. -1.
        -12    1    4    4    0    0 -0.86591672565E+01  0.21584416521E+02  0.21566336763E+01  0.23356354230E+02  0.00000000000E+00 0.  1.
        -13    1    3    3    0    0  0.11445445395E+02 -0.10022226093E+03  0.97618818101E+02  0.14037426207E+03  0.00000000000E+00 0.  1.
         13    1    3    3    0    0  0.43594941135E+02 -0.19853767341E+02  0.14371865459E+03  0.15149172469E+03  0.00000000000E+00 0. -1.
          2    1    1    2  501    0  0.74299663682E+02 -0.11513162750E+02  0.16231060728E+01  0.75203905571E+02  0.00000000000E+00 0. -1.
<scales pt_clust_5="13000.00000" pt_clust_6="13000.00000" pt_clust_7="13000.00000" pt_clust_8="13000.00000" pt_clust_9="75.18639"></scales>
<clustering>
<clus scale="   75.186">  2  9  1 -1</clus>
<clus scale="   78.482">  5  6 -1 -1</clus>
<clus scale="   97.439">  7  8 -1 -1</clus>
<clus scale="  170.973">  2  5  1 -1</clus>
<clus scale="   75.186">  2  5  1 -1</clus>
</clustering>
</event>
<event>
 9    1  0.7586638E-005  0.9147941E+02  0.7546771E-02  0.1305860E+00
         21   -1    0    0  501  502  0.00000000000E+00  0.00000000000E+00  0.24444974550E+02  0.24444974550E+02  0.00000000000E+00 0.  1.
         -2   -1    0    0    0  501 -0.00000000000E+00 -0.00000000000E+00 -0.72045028313E+03  0.72045028313E+03  0.00000000000E+00 0.  1.
        -24    2    1    2    0    0 -0.12832017849E+02 -0.72559756464E+01 -0.32283118069E+03  0.33311373909E+03  0.80792834354E+02 0.  0.
         23    2    1    2    0    0 -0.27505504536E+02  0.21341254350E+01 -0.11018208738E+03  0.14566469756E+03  0.91197612164E+02 0.  0.
         13    1    3    3    0    0 -0.39412546216E+02 -0.27688509676E+02 -0.17321182934E+03  0.17978414889E+03  0.00000000000E+00 0. -1.
        -14    1    3    3    0    0  0.26580528366E+02  0.20432534030E+02 -0.14961935135E+03  0.15332959021E+03  0.00000000000E+00 0.  1.
        -13    1    4    4    0    0  0.29771530305E+02 -0.78720957412E+01 -0.65353774243E+02  0.72245620738E+02  0.00000000000E+00 0. -1.
         13    1    4    4    0    0 -0.57277034841E+02  0.10006221176E+02 -0.44828313135E+02  0.73419076819E+02  0.00000000000E+00 0.  1.
         -1    1    1    2    0  502  0.40337522386E+02  0.51218502114E+01 -0.26299204051E+03  0.26611682103E+03  0.00000000000E+00 0.  1.
<scales pt_clust_5="13000.00000" pt_clust_6="13000.00000" pt_clust_7="13000.00000" pt_clust_8="13000.00000" pt_clust_9="40.66142"></scales>
<clustering>
<clus scale="   40.661">  1  9  2 -1</clus>
<clus scale="   80.793">  5  6 -1 -1</clus>
<clus scale="   81.111">  2  5  1 -1</clus>
<clus scale="   91.198">  7  8 -1 -1</clus>
<clus scale="   40.661">  1  5  2 -1</clus>
</clustering>
</event>
<event>
 9    1  0.7586638E-005  0.1183123E+03  0.7546771E-02  0.1249576E+00
         21   -1    0    0  501  502  0.00000000000E+00  0.00000000000E+00  0.13247178329E+03  0.13247178329E+03  0.00000000000E+00 0.  1.
          1   -1    0    0  502    0 -0.00000000000E+00 -0.00000000000E+00 -0.26958138979E+03  0.26958138979E+03  0.00000000000E+00 0. -1.
        -24    2    1    2    0    0  0.76562310199E+02 -0.14146168198E+02 -0.20194954964E+03  0.23054218469E+03  0.79398846989E+02 0.  0.
         23    2    1    2    0    0 -0.70201888021E+02 -0.14417348647E+02  0.18987063108E+02  0.11711598795E+03  0.90661353638E+02 0.  0.
         13    1    3    3    0    0  0.25433149388E+02  0.11361558881E+02 -0.15235968324E+03  0.15488512900E+03  0.00000000000E+00 0. -1.
        -14    1    3    3    0    0  0.51129160811E+02 -0.25507727079E+02 -0.49589866402E+02  0.75657055691E+02  0.00000000000E+00 0.  1.
        -13    1    4    4    0    0 -0.13179694335E+02 -0.25280095129E+02  0.45187452681E+02  0.53429331199E+02  0.00000000000E+00 0. -1.
         13    1    4    4    0    0 -0.57022193686E+02  0.10862746482E+02 -0.26200389573E+02  0.63686656748E+02  0.00000000000E+00 0.  1.
          2    1    1    2  501    0 -0.63604221781E+01  0.28563516846E+02  0.45852880036E+02  0.54395000436E+02  0.00000000000E+00 0. -1.
<scales pt_clust_5="13000.00000" pt_clust_6="13000.00000" pt_clust_7="13000.00000" pt_clust_8="13000.00000" pt_clust_9="29.26311"></scales>
<clustering>
<clus scale="   29.263">  1  9  2 -1</clus>
<clus scale="   79.399">  5  6 -1 -1</clus>
<clus scale="   90.661">  7  8 -1 -1</clus>
<clus scale="  109.920">  2  5  1 -1</clus>
<clus scale="   29.263">  1  5  2 -1</clus>
</clustering>
</event>
<event>
 9    1  0.7586638E-005  0.9978658E+02  0.7546771E-02  0.1286684E+00
         21   -1    0    0  501  502  0.00000000000E+00  0.00000000000E+00  0.38176732561E+02  0.38176732561E+02  0.00000000000E+00 0.  1.
          1   -1    0    0  502    0 -0.00000000000E+00 -0.00000000000E+00 -0.42014478080E+03  0.42014478080E+03  0.00000000000E+00 0. -1.
         23    2    1    2    0    0 -0.29274957513E+02  0.47939726276E+02 -0.22659092339E+03  0.25107916094E+03  0.92423254649E+02 0.  0.
        -24    2    1    2    0    0  0.52174032378E+01 -0.55522104621E+01 -0.62966103863E+02  0.10276621058E+03  0.80858614042E+02 0.  0.
         13    1    4    4    0    0 -0.20380488748E+02 -0.10310172943E+02  0.10267748513E+02  0.25041778037E+02  0.00000000000E+00 0. -1.
        -14    1    4    4    0    0  0.25597891986E+02  0.47579624809E+01 -0.73233852376E+02  0.77724432548E+02  0.00000000000E+00 0.  1.
        -13    1    3    3    0    0  0.31185208607E+02  0.27526093927E+02 -0.63107649114E+02  0.75582924390E+02  0.00000000000E+00 0.  1.
         13    1    3    3    0    0 -0.60460166120E+02  0.20413632348E+02 -0.16348327428E+03  0.17549623655E+03  0.00000000000E+00 0. -1.
          2    1    1    2  501    0  0.24057554275E+02 -0.42387515813E+02 -0.92411020985E+02  0.10447614184E+03  0.00000000000E+00 0. -1.
<scales pt_clust_5="13000.00000" pt_clust_6="13000.00000" pt_clust_7="13000.00000" pt_clust_8="13000.00000" pt_clust_9="48.73879"></scales>
<clustering>
<clus scale="   48.739">  1  9  2 -1</clus>
<clus scale="   80.859">  5  6 -1 -1</clus>
<clus scale="   89.182">  1  5  2 -1</clus>
<clus scale="   92.423">  7  8 -1 -1</clus>
<clus scale="   48.739">  1  5  2 -1</clus>
</clustering>
</event>
<event>
 9    1  0.7586638E-005  0.1037680E+03  0.7546771E-02  0.1279743E+00
          3   -1    0    0  502    0 -0.00000000000E+00  0.00000000000E+00  0.35406747233E+03  0.35406747233E+03  0.00000000000E+00 0. -1.
         21   -1    0    0  501  502  0.00000000000E+00 -0.00000000000E+00 -0.14599002216E+03  0.14599002216E+03  0.00000000000E+00 0. -1.
        -24    2    1    2    0    0 -0.38658274623E+02  0.45930298580E+01  0.12279016656E+02  0.86670748440E+02  0.76455779801E+02 0.  0.
         23    2    1    2    0    0  0.75681736721E+02 -0.11637746787E+01 -0.74592905299E+02  0.14045090626E+03  0.91832869412E+02 0.  0.
         13    1    3    3    0    0 -0.51177436845E+02 -0.21473484985E+02  0.65191246495E+00  0.55503743921E+02  0.00000000000E+00 0. -1.
        -14    1    3    3    0    0  0.12519162222E+02  0.26066514843E+02  0.11627104191E+02  0.31167004519E+02  0.00000000000E+00 0.  1.
        -11    1    4    4    0    0  0.18150305947E+02 -0.31293040355E+02  0.62936424264E+01  0.36719176402E+02  0.00000000000E+00 0.  1.
         11    1    4    4    0    0  0.57531430774E+02  0.30129265676E+02 -0.80886547725E+02  0.10373172986E+03  0.00000000000E+00 0. -1.
          4    1    1    2  501    0 -0.37023462098E+02 -0.34292551793E+01  0.27039133881E+03  0.27293583978E+03  0.00000000000E+00 0. -1.
<scales pt_clust_5="13000.00000" pt_clust_6="13000.00000" pt_clust_7="13000.00000" pt_clust_8="13000.00000" pt_clust_9="37.18196"></scales>
<clustering>
<clus scale="   37.182">  2  9  1 -1</clus>
<clus scale="   76.456">  5  6 -1 -1</clus>
<clus scale="   90.443">  1  5  2 -1</clus>
<clus scale="   91.833">  7  8 -1 -1</clus>
<clus scale="   37.182">  2  5  1 -1</clus>
</clustering>
</event>
<event>
 9    1  0.7586638E-005  0.1103432E+03  0.7546771E-02  0.1262881E+00
         -2   -1    0    0    0  501 -0.00000000000E+00  0.00000000000E+00  0.53285995506E+03  0.53285995506E+03  0.00000000000E+00 0.  1.
         21   -1    0    0  501  502  0.00000000000E+00 -0.00000000000E+00 -0.57178563764E+02  0.57178563764E+02  0.00000000000E+00 0. -1.
        -24    2    1    2    0    0 -0.15691778272E+02 -0.67967665462E+02  0.29289469442E+03  0.31195227496E+03  0.81615466545E+02 0.  0.
         23    2    1    2    0    0 -0.68009677925E+02  0.54181678126E+02  0.11155142351E+03  0.16731417434E+03  0.89383120947E+02 0.  0.
         13    1    3    3    0    0  0.27499269757E+02 -0.12962011675E+02  0.44450652145E+02  0.53852428543E+02  0.00000000000E+00 0. -1.
        -14    1    3    3    0    0 -0.43191048030E+02 -0.55005653787E+02  0.24844404228E+03  0.25809984642E+03  0.00000000000E+00 0.  1.
        -13    1    4    4    0    0  0.16960068735E+02  0.14289148589E+02  0.87871665553E+00  0.22194500262E+02  0.00000000000E+00 0.  1.
         13    1    4    4    0    0 -0.84969746661E+02  0.39892529537E+02  0.11067270686E+03  0.14511967407E+03  0.00000000000E+00 0. -1.
         -1    1    1    2    0  502  0.83701456198E+02  0.13785987336E+02  0.71235273364E+02  0.11077206953E+03  0.00000000000E+00 0.  1.
<scales pt_clust_5="13000.00000" pt_clust_6="13000.00000" pt_clust_7="13000.00000" pt_clust_8="13000.00000" pt_clust_9="84.82916"></scales>
<clustering>
<clus scale="   81.615">  5  6 -1 -1</clus>
<clus scale="   84.829">  2  9  1 -1</clus>
<clus scale="   89.383">  7  8 -1 -1</clus>
<clus scale="  104.151">  1  5  2 -1</clus>
<clus scale="   84.829">  2  5  1 -1</clus>
</clustering>
</event>
<event>
 9    1  0.7586638E-005  0.1390761E+03  0.7546771E-02  0.1216940E+00
          1   -1    0    0  502    0 -0.00000000000E+00  0.00000000000E+00  0.47063066526E+03  0.47063066526E+03  0.00000000000E+00 0. -1.
         21   -1    0    0  501  502  0.00000000000E+00 -0.00000000000E+00 -0.11127768341E+03  0.11127768341E+03  0.00000000000E+00 0. -1.
        -24    2    1    2    0    0 -0.80798821444E+01  0.10330040466E+03  0.66062407112E+02  0.14729952479E+03  0.81219765276E+02 0.  0.
         23    2    1    2    0    0  0.45806435552E+02 -0.10001639272E+03  0.45349601510E+01  0.14338059289E+03  0.91847265625E+02 0.  0.
         11    1    3    3    0    0  0.13151743213E+02  0.78255114048E+02  0.69192494848E+01  0.79653670585E+02  0.00000000000E+00 0. -1.
        -12    1    3    3    0    0 -0.21231625358E+02  0.25045290617E+02  0.59143157627E+02  0.67645854208E+02  0.00000000000E+00 0.  1.
        -11    1    4    4    0    0 -0.15618461068E+02 -0.66818324244E+02  0.20773693417E+02  0.71694986708E+02  0.00000000000E+00 0.  1.
         11    1    4    4    0    0  0.61424896620E+02 -0.33198068473E+02 -0.16238733266E+02  0.71685606178E+02  0.00000000000E+00 0. -1.
          2    1    1    2  501    0 -0.37726553408E+02 -0.32840119482E+01  0.28875561459E+03  0.29122823099E+03  0.00000000000E+00 0. -1.
<scales pt_clust_5="13000.00000" pt_clust_6="13000.00000" pt_clust_7="13000.00000" pt_clust_8="13000.00000" pt_clust_9="37.86924"></scales>
<clustering>
<clus scale="   37.869">  2  9  1 -1</clus>
<clus scale="   81.220">  5  6 -1 -1</clus>
<clus scale="   91.847">  7  8 -1 -1</clus>
<clus scale="  132.299">  1  5  2 -1</clus>
<clus scale="   37.869">  2  5  1 -1</clus>
</clustering>
</event>
<event>
 9    1  0.7586638E-005  0.1553072E+03  0.7546771E-02  0.1196931E+00
         21   -1    0    0  501  502  0.00000000000E+00  0.00000000000E+00  0.17182347164E+03  0.17182347164E+03  0.00000000000E+00 0.  1.
         -4   -1    0    0    0  501 -0.00000000000E+00 -0.00000000000E+00 -0.51315654724E+03  0.51315654724E+03  0.00000000000E+00 0.  1.
         23    2    1    2    0    0  0.10896324460E+03  0.52901225663E+02 -0.39623291093E+03  0.42528396143E+03  0.95887432932E+02 0.  0.
        -24    2    1    2    0    0 -0.10215688677E+03 -0.77440972736E+02 -0.44194598451E+02  0.15738167675E+03  0.79891776003E+02 0.  0.
         11    1    4    4    0    0 -0.19141515261E+02 -0.61780866605E+02 -0.31543366754E+02  0.71960107498E+02  0.00000000000E+00 0. -1.
        -12    1    4    4    0    0 -0.83015371506E+02 -0.15660106130E+02 -0.12651231697E+02  0.85421569254E+02  0.00000000000E+00 0.  1.
        -11    1    3    3    0    0  0.71129674542E+02  0.13448872737E+02 -0.96643572585E+02  0.12074884223E+03  0.00000000000E+00 0. -1.
         11    1    3    3    0    0  0.37833570062E+02  0.39452352926E+02 -0.29958933834E+03  0.30453511920E+03  0.00000000000E+00 0.  1.
         -3    1    1    2    0  502 -0.68063578376E+01  0.24539747073E+02  0.99094433779E+02  0.10231438071E+03  0.00000000000E+00 0.  1.
<scales pt_clust_5="13000.00000" pt_clust_6="13000.00000" pt_clust_7="13000.00000" pt_clust_8="13000.00000" pt_clust_9="25.46617"></scales>
<clustering>
<clus scale="   25.466">  1  9  2 -1</clus>
<clus scale="   79.892">  5  6 -1 -1</clus>
<clus scale="   95.887">  7  8 -1 -1</clus>
<clus scale="  145.975">  1  5  2 -1</clus>
<clus scale="   25.466">  1  5  2 -1</clus>
</clustering>
</event>
<event>
 9    1  0.7586638E-005  0.1542231E+03  0.7546771E-02  0.1196553E+00
          1   -1    0    0  502    0 -0.00000000000E+00  0.00000000000E+00  0.58034599737E+02  0.58034599737E+02  0.00000000000E+00 0. -1.
         21   -1    0    0  501  502  0.00000000000E+00 -0.00000000000E+00 -0.86804786052E+03  0.86804786052E+03  0.00000000000E+00 0. -1.
         23    2    1    2    0    0 -0.13592283227E+03  0.37992922050E+02 -0.99821851777E+02  0.19377917003E+03  0.87564183248E+02 0.  0.
        -24    2    1    2    0    0  0.77746396262E+02 -0.10776774410E+02 -0.50190651797E+03  0.51434042129E+03  0.80469094654E+02 0.  0.
         11    1    4    4    0    0  0.71066412374E+02  0.20387805393E+02 -0.41987688681E+03  0.42633636680E+03  0.00000000000E+00 0. -1.
        -12    1    4    4    0    0  0.66799838880E+01 -0.31164579803E+02 -0.82029631157E+02  0.88004054491E+02  0.00000000000E+00 0.  1.
        -11    1    3    3    0    0 -0.41751193144E+02  0.10872396819E+02 -0.84108453788E+02  0.94528319250E+02  0.00000000000E+00 0.  1.
         11    1    3    3    0    0 -0.94171639129E+02  0.27120525231E+02 -0.15713397989E+02  0.99250850785E+02  0.00000000000E+00 0. -1.
          2    1    1    2  501    0  0.58176436012E+02 -0.27216147640E+02 -0.20828489104E+03  0.21796286893E+03  0.00000000000E+00 0. -1.
<scales pt_clust_5="13000.00000" pt_clust_6="13000.00000" pt_clust_7="13000.00000" pt_clust_8="13000.00000" pt_clust_9="64.22785"></scales>
<clustering>
<clus scale="   64.228">  2  9  1 -1</clus>
<clus scale="   80.469">  5  6 -1 -1</clus>
<clus scale="   87.564">  7  8 -1 -1</clus>
<clus scale="  150.308">  2  5  1 -1</clus>
<clus scale="   64.228">  2  5  1 -1</clus>
</clustering>
</event>
<event>
 9    1  0.7586638E-005  0.9842079E+02  0.7546771E-02  0.1291327E+00
         -4   -1    0    0    0  501 -0.00000000000E+00  0.00000000000E+00  0.35289498861E+02  0.35289498861E+02  0.00000000000E+00 0.  1.
         21   -1    0    0  501  502  0.00000000000E+00 -0.00000000000E+00 -0.77585249662E+03  0.77585249662E+03  0.00000000000E+00 0.  1.
        -24    2    1    2    0    0 -0.14868239552E+02  0.53184783531E+02 -0.73146643625E+02  0.12009897796E+03  0.77612159393E+02 0.  0.
         23    2    1    2    0    0 -0.41883371379E+01  0.14369055226E+02 -0.23192048729E+03  0.24992701885E+03  0.91936882765E+02 0.  0.
         11    1    3    3    0    0 -0.10674767110E+02 -0.18965937687E+02 -0.25543486982E+02  0.33557818350E+02  0.00000000000E+00 0. -1.
        -12    1    3    3    0    0 -0.41934724426E+01  0.72150721218E+02 -0.47603156642E+02  0.86541159605E+02  0.00000000000E+00 0.  1.
        -11    1    4    4    0    0  0.13188630427E+02  0.42309871592E+02 -0.58386063352E+02  0.73300733969E+02  0.00000000000E+00 0.  1.
         11    1    4    4    0    0 -0.17376967565E+02 -0.27940816366E+02 -0.17353442394E+03  0.17662628488E+03  0.00000000000E+00 0. -1.
         -3    1    1    2    0  502  0.19056576690E+02 -0.67553838757E+02 -0.43549586684E+03  0.44111599867E+03  0.00000000000E+00 0.  1.
<scales pt_clust_5="13000.00000" pt_clust_6="13000.00000" pt_clust_7="13000.00000" pt_clust_8="13000.00000" pt_clust_9="70.19027"></scales>
<clustering>
<clus scale="   70.190">  2  9  1 -1</clus>
<clus scale="   77.612">  5  6 -1 -1</clus>
<clus scale="   85.193">  1  5  2 -1</clus>
<clus scale="   91.937">  7  8 -1 -1</clus>
<clus scale="   70.190">  2  5  1 -1</clus>
</clustering>
</event>
<event>
 9    1  0.7586638E-005  0.8727070E+02  0.7546771E-02  0.1310672E+00
          3   -1    0    0  502    0 -0.00000000000E+00  0.00000000000E+00  0.22017724408E+03  0.22017724408E+03  0.00000000000E+00 0. -1.
         21   -1    0    0  501  502  0.00000000000E+00 -0.00000000000E+00 -0.10438188527E+03  0.10438188527E+03  0.00000000000E+00 0.  1.
         23    2    1    2    0    0  0.31174541536E+02  0.11775767602E+02  0.10410136152E+03  0.13707991694E+03  0.82724176738E+02 0.  0.
        -24    2    1    2    0    0 -0.20107070722E+01  0.42566628926E+02  0.57452619310E+02  0.11068418138E+03  0.84464333905E+02 0.  0.
         13    1    4    4    0    0 -0.45354051530E+01  0.32817514223E+02  0.79673962756E+02  0.86287307763E+02  0.00000000000E+00 0. -1.
        -14    1    4    4    0    0  0.25246980808E+01  0.97491147032E+01 -0.22221343447E+02  0.24396873621E+02  0.00000000000E+00 0.  1.
        -11    1    3    3    0    0 -0.15143686761E+02  0.33063887514E+02  0.57368104736E+02  0.67923864343E+02  0.00000000000E+00 0. -1.
         11    1    3    3    0    0  0.46318228297E+02 -0.21288119912E+02  0.46733256780E+02  0.69156052600E+02  0.00000000000E+00 0.  1.
          4    1    1    2  501    0 -0.29163834464E+02 -0.54342396528E+02 -0.45758622013E+02  0.76795031021E+02  0.00000000000E+00 0. -1.
<scales pt_clust_5="13000.00000" pt_clust_6="13000.00000" pt_clust_7="13000.00000" pt_clust_8="13000.00000" pt_clust_9="61.67354"></scales>
<clustering>
<clus scale="   61.674">  2  9  1 -1</clus>
<clus scale="   82.724">  7  8 -1 -1</clus>
<clus scale="   84.464">  5  6 -1 -1</clus>
<clus scale="   85.588">  1  7  2 -1</clus>
<clus scale="   61.674">  2  5  1 -1</clus>
</clustering>
</event>
<event>
 9    1  0.7586638E-005  0.1091866E+03  0.7546771E-02  0.1267978E+00
          3   -1    0    0  502    0 -0.00000000000E+00  0.00000000000E+00  0.10030677745E+03  0.10030677745E+03  0.00000000000E+00 0. -1.
         21   -1    0    0  501  502  0.00000000000E+00 -0.00000000000E+00 -0.34151580680E+03  0.34151580680E+03  0.00000000000E+00 0. -1.
        -24    2    1    2    0    0 -0.49465443847E+02  0.28752166987E+02  0.59864546156E+02  0.11526812136E+03  0.80183905330E+02 0.  0.
         23    2    1    2    0    0  0.25602773424E+02 -0.26076798925E+02 -0.26039250681E+03  0.27931534790E+03  0.94219448754E+02 0.  0.
         13    1    3    3    0    0 -0.97400401507E+01  0.51365434646E+02  0.37775308693E+02  0.64500001592E+02  0.00000000000E+00 0. -1.
        -14    1    3    3    0    0 -0.39725403696E+02 -0.22613267659E+02  0.22089237463E+02  0.50768119768E+02  0.00000000000E+00 0.  1.
        -11    1    4    4    0    0  0.40737173340E+02 -0.48048561300E+02 -0.23180655850E+03  0.24021336786E+03  0.00000000000E+00 0.  1.
         11    1    4    4    0    0 -0.15134399916E+02  0.21971762375E+02 -0.28585948307E+02  0.39101980043E+02  0.00000000000E+00 0. -1.
          4    1    1    2  501    0  0.23862670423E+02 -0.26753680623E+01 -0.40681068702E+02  0.47239114986E+02  0.00000000000E+00 0. -1.
<scales pt_clust_5="13000.00000" pt_clust_6="13000.00000" pt_clust_7="13000.00000" pt_clust_8="13000.00000" pt_clust_9="24.01218"></scales>
<clustering>
<clus scale="   24.012">  2  9  1 -1</clus>
<clus scale="   80.184">  5  6 -1 -1</clus>
<clus scale="   94.219">  7  8 -1 -1</clus>
<clus scale="   97.334">  1  5  2 -1</clus>
<clus scale="   24.012">  2  5  1 -1</clus>
</clustering>
</event>
<event>
 9    1  0.7586638E-005  0.2518093E+03  0.7546771E-02  0.1121461E+00
         21   -1    0    0  501  502  0.00000000000E+00  0.00000000000E+00  0.32788706170E+03  0.32788706170E+03  0.00000000000E+00 0.  1.
         -2   -1    0    0    0  501 -0.00000000000E+00 -0.00000000000E+00 -0.57838561404E+03  0.57838561404E+03  0.00000000000E+00 0.  1.
         23    2    1    2    0    0  0.13509396103E+03  0.11464352360E+03 -0.20522788001E+03  0.28608380978E+03  0.91279503046E+02 0.  0.
        -24    2    1    2    0    0 -0.82209165372E+01  0.21147672801E+03  0.92087138993E+02  0.24426552767E+03  0.79972600814E+02 0.  0.
         11    1    4    4    0    0  0.99794644153E+01  0.38204157654E+02  0.52339050877E+02  0.65563126976E+02  0.00000000000E+00 0. -1.
        -12    1    4    4    0    0 -0.18200380952E+02  0.17327257036E+03  0.39748088116E+02  0.17870240070E+03  0.00000000000E+00 0.  1.
        -13    1    3    3    0    0  0.32221267536E+02  0.32819640131E+02 -0.45884897151E+01  0.46221132589E+02  0.00000000000E+00 0. -1.
         13    1    3    3    0    0  0.10287269349E+03  0.81823883469E+02 -0.20063939030E+03  0.23986267719E+03  0.00000000000E+00 0.  1.
         -1    1    1    2    0  502 -0.12687304449E+03 -0.32612025161E+03 -0.13735781133E+03  0.37592333828E+03  0.00000000000E+00 0.  1.
<scales pt_clust_5="13000.00000" pt_clust_6="13000.00000" pt_clust_7="13000.00000" pt_clust_8="13000.00000" pt_clust_9="238.77259"></scales>
<clustering>
<clus scale="   79.973">  5  6 -1 -1</clus>
<clus scale="   91.280">  7  8 -1 -1</clus>
<clus scale="  199.312">  2  7  1 -1</clus>
<clus scale="  238.773">  1  9  2 -1</clus>
<clus scale="  238.773">  1  5  2 -1</clus>
</clustering>
</event>
<event>
 9    1  0.7586638E-005  0.1006717E+03  0.7546771E-02  0.1287355E+00
         21   -1    0    0  501  502  0.00000000000E+00  0.00000000000E+00  0.18908134337E+02  0.18908134337E+02  0.00000000000E+00 0. -1.
          1   -1    0    0  502    0 -0.00000000000E+00 -0.00000000000E+00 -0.82751303443E+03  0.82751303443E+03  0.00000000000E+00 0. -1.
        -24    2    1    2    0    0  0.15374932932E+02 -0.15195031297E+02 -0.28861261308E+03  0.30035196507E+03  0.80291873517E+02 0.  0.
         23    2    1    2    0    0 -0.54898553340E+02 -0.17968190012E+02 -0.30413516131E+03  0.32413179240E+03  0.96054752547E+02 0.  0.
         13    1    3    3    0    0 -0.13164380138E+02  0.28092710901E+02 -0.96415336741E+02  0.10128385098E+03  0.00000000000E+00 0. -1.
        -14    1    3    3    0    0  0.28539313070E+02 -0.43287742198E+02 -0.19219727634E+03  0.19906811409E+03  0.00000000000E+00 0.  1.
        -11    1    4    4    0    0 -0.50973426382E+02 -0.51336358211E+02 -0.15209918578E+03  0.16842765267E+03  0.00000000000E+00 0. -1.
         11    1    4    4    0    0 -0.39251269577E+01  0.33368168199E+02 -0.15203597554E+03  0.15570413973E+03  0.00000000000E+00 0.  1.
          2    1    1    2  501    0  0.39523620408E+02  0.33163221309E+02 -0.21585712571E+03  0.22193741130E+03  0.00000000000E+00 0. -1.
<scales pt_clust_5="13000.00000" pt_clust_6="13000.00000" pt_clust_7="13000.00000" pt_clust_8="13000.00000" pt_clust_9="51.59378"></scales>
<clustering>
<clus scale="   51.594">  1  9  2 -1</clus>
<clus scale="   80.292">  5  6 -1 -1</clus>
<clus scale="   85.762">  2  5  1 -1</clus>
<clus scale="   96.055">  7  8 -1 -1</clus>
<clus scale="   51.594">  1  5  2 -1</clus>
</clustering>
</event>
<event>
 9    1  0.7586638E-005  0.1126463E+03  0.7546771E-02  0.1259395E+00
         21   -1    0    0  501  502  0.00000000000E+00  0.00000000000E+00  0.22490738834E+03  0.22490738834E+03  0.00000000000E+00 0.  1.
         -4   -1    0    0    0  501 -0.00000000000E+00 -0.00000000000E+00 -0.79788553602E+02  0.79788553602E+02  0.00000000000E+00 0.  1.
         23    2    1    2    0    0  0.72678428184E+02 -0.23566462845E+02  0.62878678650E+02  0.13368477280E+03  0.89890812408E+02 0.  0.
        -24    2    1    2    0    0 -0.44789976058E+02  0.42233927660E+02  0.91535071678E+02  0.13618825341E+03  0.79866916923E+02 0.  0.
         13    1    4    4    0    0 -0.68681999507E+01 -0.23428752675E+02  0.28943008364E+02  0.37865239411E+02  0.00000000000E+00 0. -1.
        -14    1    4    4    0    0 -0.37921776108E+02  0.65662680335E+02  0.62592063314E+02  0.98323013999E+02  0.00000000000E+00 0.  1.
        -13    1    3    3    0    0  0.67969362777E+02 -0.46962318844E+02  0.70526227979E+02  0.10862431818E+03  0.00000000000E+00 0.  1.
         13    1    3    3    0    0  0.47090654070E+01  0.23395855999E+02 -0.76475493286E+01  0.25060454618E+02  0.00000000000E+00 0. -1.
         -3    1    1    2    0  502 -0.27888452126E+02 -0.18667464814E+02 -0.92949155872E+01  0.34822915736E+02  0.00000000000E+00 0.  1.
<scales pt_clust_5="13000.00000" pt_clust_6="13000.00000" pt_clust_7="13000.00000" pt_clust_8="13000.00000" pt_clust_9="33.55952"></scales>
<clustering>
<clus scale="   33.560">  1  9  2 -1</clus>
<clus scale="   79.867">  5  6 -1 -1</clus>
<clus scale="   89.891">  7  8 -1 -1</clus>
<clus scale="  104.822">  1  5  2 -1</clus>
<clus scale="   33.560">  1  5  2 -1</clus>
</clustering>
</event>
<event>
 9    1  0.7586638E-005  0.1388884E+03  0.7546771E-02  0.1217965E+00
          1   -1    0    0  502    0 -0.00000000000E+00  0.00000000000E+00  0.35951726737E+03  0.35951726737E+03  0.00000000000E+00 0. -1.
         21   -1    0    0  501  502  0.00000000000E+00 -0.00000000000E+00 -0.26888217651E+03  0.26888217651E+03  0.00000000000E+00 0.  1.
        -24    2    1    2    0    0 -0.72815665862E+02  0.70352420844E+02  0.30812194703E+03  0.33393517814E+03  0.79510908929E+02 0.  0.
         23    2    1    2    0    0  0.97667881482E+02 -0.75835633198E+02 -0.12658804563E+03  0.20006992271E+03  0.93345499834E+02 0.  0.
         13    1    3    3    0    0 -0.44423088516E+02 -0.59027381968E+01  0.14292244854E+03  0.14978344170E+03  0.00000000000E+00 0. -1.
        -14    1    3    3    0    0 -0.28392577346E+02  0.76255159041E+02  0.16519949850E+03  0.18415173644E+03  0.00000000000E+00 0.  1.
        -11    1    4    4    0    0  0.14161939111E+02 -0.52874270265E+02 -0.11326638581E+02  0.55897600280E+02  0.00000000000E+00 0. -1.
         11    1    4    4    0    0  0.83505942371E+02 -0.22961362933E+02 -0.11526140705E+03  0.14417232243E+03  0.00000000000E+00 0.  1.
          2    1    1    2  501    0 -0.24852215621E+02  0.54832123536E+01 -0.90898810548E+02  0.94394343040E+02  0.00000000000E+00 0. -1.
<scales pt_clust_5="13000.00000" pt_clust_6="13000.00000" pt_clust_7="13000.00000" pt_clust_8="13000.00000" pt_clust_9="25.44992"></scales>
<clustering>
<clus scale="   25.450">  2  9  1 -1</clus>
<clus scale="   79.511">  5  6 -1 -1</clus>
<clus scale="   93.345">  7  8 -1 -1</clus>
<clus scale="  129.995">  1  5  2 -1</clus>
<clus scale="   25.450">  2  5  1 -1</clus>
</clustering>
</event>
<event>
 9    1  0.7586638E-005  0.1517025E+03  0.7546771E-02  0.1200029E+00
          1   -1    0    0  502    0 -0.00000000000E+00  0.00000000000E+00  0.12377145838E+03  0.12377145838E+03  0.00000000000E+00 0. -1.
         21   -1    0    0  501  502  0.00000000000E+00 -0.00000000000E+00 -0.40409041285E+03  0.40409041285E+03  0.00000000000E+00 0.  1.
         23    2    1    2    0    0  0.91450651869E+02 -0.10124096025E+03  0.35009797373E+02  0.16733671680E+03  0.90348974095E+02 0.  0.
        -24    2    1    2    0    0 -0.40238374207E+02  0.66650201588E+02 -0.18997399409E+03  0.22076452600E+03  0.81150978904E+02 0.  0.
         13    1    4    4    0    0 -0.32498612386E+02  0.87026448374E+00 -0.19582004892E+02  0.37952234227E+02  0.00000000000E+00 0. -1.
        -14    1    4    4    0    0 -0.77397618211E+01  0.65779937105E+02 -0.17039198920E+03  0.18281229177E+03  0.00000000000E+00 0.  1.
        -13    1    3    3    0    0  0.55750719298E+02 -0.40007410090E+01  0.30449460812E+02  0.63649966965E+02  0.00000000000E+00 0. -1.
         13    1    3    3    0    0  0.35699932571E+02 -0.97240219236E+02  0.45603365612E+01  0.10368674984E+03  0.00000000000E+00 0.  1.
          2    1    1    2  501    0 -0.51212277662E+02  0.34590758657E+02 -0.12535475775E+03  0.13976062842E+03  0.00000000000E+00 0. -1.
<scales pt_clust_5="13000.00000" pt_clust_6="13000.00000" pt_clust_7="13000.00000" pt_clust_8="13000.00000" pt_clust_9="61.79982"></scales>
<clustering>
<clus scale="   61.800">  2  9  1 -1</clus>
<clus scale="   81.151">  5  6 -1 -1</clus>
<clus scale="   90.349">  7  8 -1 -1</clus>
<clus scale="  146.411">  2  5  1 -1</clus>
<clus scale="   61.800">  2  5  1 -1</clus>
</clustering>
</event>
<event>
 9    1  0.7586638E-005  0.1571693E+03  0.7546771E-02  0.1203721E+00
          1   -1    0    0  502    0 -0.00000000000E+00  0.00000000000E+00  0.63794623805E+03  0.63794623805E+03  0.00000000000E+00 0. -1.
         21   -1    0    0  501  502  0.00000000000E+00 -0.00000000000E+00 -0.72739508242E+02  0.72739508242E+02  0.00000000000E+00 0. -1.
         23    2    1    2    0    0 -0.64738216210E+02 -0.43117451173E+02  0.17309974122E+03  0.21150954061E+03  0.93394936296E+02 0.  0.
        -24    2    1    2    0    0  0.12262988886E+03 -0.79366871947E+02  0.26483182050E+03  0.31329230755E+03  0.81725068468E+02 0.  0.
         11    1    4    4    0    0  0.66555569766E+02 -0.35498403275E+02  0.59824366331E+02  0.96274271271E+02  0.00000000000E+00 0. -1.
        -12    1    4    4    0    0  0.56074319095E+02 -0.43868468672E+02  0.20500745417E+03  0.21701803628E+03  0.00000000000E+00 0.  1.
        -13    1    3    3    0    0 -0.61894921113E+02 -0.11686369966E+02  0.16815488072E+03  0.17956507570E+03  0.00000000000E+00 0. -1.
         13    1    3    3    0    0 -0.28432950972E+01 -0.31431081207E+02  0.49448604986E+01  0.31944464907E+02  0.00000000000E+00 0.  1.
          2    1    1    2  501    0 -0.57891672650E+02  0.12248432312E+03  0.12727516809E+03  0.18588389813E+03  0.00000000000E+00 0. -1.
<scales pt_clust_5="13000.00000" pt_clust_6="13000.00000" pt_clust_7="13000.00000" pt_clust_8="13000.00000" pt_clust_9="134.25055"></scales>
<clustering>
<clus scale="   81.725">  5  6 -1 -1</clus>
<clus scale="   93.395">  7  8 -1 -1</clus>
<clus scale="  121.543">  1  7  2 -1</clus>
<clus scale="  134.251">  2  9  1 -1</clus>
<clus scale="  134.251">  2  5  1 -1</clus>
</clustering>
</event>
<event>
 9    1  0.7586638E-005  0.1966216E+03  0.7546771E-02  0.1153920E+00
         21   -1    0    0  501  502  0.00000000000E+00  0.00000000000E+00  0.42981587447E+03  0.42981587447E+03  0.00000000000E+00 0. -1.
          1   -1    0    0  502    0 -0.00000000000E+00 -0.00000000000E+00 -0.21596596995E+03  0.21596596995E+03  0.00000000000E+00 0. -1.
         23    2    1    2    0    0  0.12652996267E+03  0.15053295743E+03 -0.56554867539E+02  0.22460204417E+03  0.92615454850E+02 0.  0.
        -24    2    1    2    0    0  0.54315244619E+01 -0.16060366074E+03  0.99270812426E+02  0.20484190414E+03  0.79262060213E+02 0.  0.
         13    1    4    4    0    0 -0.54329490928E+01 -0.16426901720E+03  0.10148241254E+03  0.19316445585E+03  0.00000000000E+00 0. -1.
        -14    1    4    4    0    0  0.10864473555E+02  0.36653564561E+01 -0.22116001128E+01  0.11677448293E+02  0.00000000000E+00 0.  1.
        -13    1    3    3    0    0  0.67882412762E+02  0.51566759087E+02 -0.67929516592E+02  0.10900262304E+03  0.00000000000E+00 0. -1.
         13    1    3    3    0    0  0.58647549910E+02  0.98966198339E+02  0.11374649053E+02  0.11559942113E+03  0.00000000000E+00 0.  1.
          2    1    1    2  501    0 -0.13196148713E+03  0.10070703317E+02  0.17113395964E+03  0.21633789611E+03  0.00000000000E+00 0. -1.
<scales pt_clust_5="13000.00000" pt_clust_6="13000.00000" pt_clust_7="13000.00000" pt_clust_8="13000.00000" pt_clust_9="132.34520"></scales>
<clustering>
<clus scale="   79.262">  5  6 -1 -1</clus>
<clus scale="   92.615">  7  8 -1 -1</clus>
<clus scale="  132.345">  1  9  2 -1</clus>
<clus scale="  190.696">  1  5  2 -1</clus>
<clus scale="  132.345">  1  5  2 -1</clus>
</clustering>
</event>
<event>
 9    1  0.7586638E-005  0.9780988E+02  0.7546771E-02  0.1293979E+00
         -2   -1    0    0    0  501 -0.00000000000E+00  0.00000000000E+00  0.11938853893E+03  0.11938853893E+03  0.00000000000E+00 0.  1.
         21   -1    0    0  501  502  0.00000000000E+00 -0.00000000000E+00 -0.11340849277E+03  0.11340849277E+03  0.00000000000E+00 0.  1.
         23    2    1    2    0    0  0.27283431918E+02 -0.13157758099E+02  0.29249057750E+02  0.10265484601E+03  0.93621566828E+02 0.  0.
        -24    2    1    2    0    0  0.25001048331E+01  0.39822347043E+02 -0.22676388472E+02  0.90162058537E+02  0.77607398857E+02 0.  0.
         11    1    4    4    0    0 -0.24144776429E+02 -0.66700274609E+01  0.10473860496E+02  0.27150713597E+02  0.00000000000E+00 0. -1.
        -12    1    4    4    0    0  0.26644881262E+02  0.46492374504E+02 -0.33150248968E+02  0.63011344940E+02  0.00000000000E+00 0.  1.
        -11    1    3    3    0    0  0.40356000219E+02  0.68878595056E+01  0.54303935553E+02  0.68007108297E+02  0.00000000000E+00 0.  1.
         11    1    3    3    0    0 -0.13072568302E+02 -0.20045617605E+02 -0.25054877803E+02  0.34647737717E+02  0.00000000000E+00 0. -1.
         -1    1    1    2    0  502 -0.29783536751E+02 -0.26664588944E+02 -0.59262311511E+00  0.39980127152E+02  0.00000000000E+00 0.  1.
<scales pt_clust_5="13000.00000" pt_clust_6="13000.00000" pt_clust_7="13000.00000" pt_clust_8="13000.00000" pt_clust_9="39.97573"></scales>
<clustering>
<clus scale="   39.976">  2  9  1 -1</clus>
<clus scale="   77.607">  5  6 -1 -1</clus>
<clus scale="   82.612">  2  5  1 -1</clus>
<clus scale="   93.622">  7  8 -1 -1</clus>
<clus scale="   39.976">  2  5  1 -1</clus>
</clustering>
</event>
<event>
 9    1  0.7586638E-005  0.1055302E+03  0.7546771E-02  0.1279630E+00
         21   -1    0    0  501  502  0.00000000000E+00  0.00000000000E+00  0.98478071052E+02  0.98478071052E+02  0.00000000000E+00 0. -1.
          3   -1    0    0  502    0 -0.00000000000E+00 -0.00000000000E+00 -0.24969297568E+03  0.24969297568E+03  0.00000000000E+00 0. -1.
         23    2    1    2    0    0 -0.26252244468E+02 -0.60512097579E+01 -0.14762617587E+03  0.17981801433E+03  0.99071857737E+02 0.  0.
        -24    2    1    2    0    0  0.63465604715E+02 -0.37980232427E+02 -0.17617931972E+02  0.10901989980E+03  0.78131722040E+02 0.  0.
         11    1    4    4    0    0  0.27821606420E+02 -0.50073398264E+02 -0.35454781050E+02  0.67367859523E+02  0.00000000000E+00 0. -1.
        -12    1    4    4    0    0  0.35643998295E+02  0.12093165837E+02  0.17836849078E+02  0.41652040279E+02  0.00000000000E+00 0.  1.
        -11    1    3    3    0    0 -0.11284874048E+02 -0.34714747067E+02 -0.91715386697E+01  0.37637470263E+02  0.00000000000E+00 0.  1.
         11    1    3    3    0    0 -0.14967370420E+02  0.28663537309E+02 -0.13845463720E+03  0.14218054406E+03  0.00000000000E+00 0. -1.
          4    1    1    2  501    0 -0.37213360247E+02  0.44031442185E+02  0.14029203211E+02  0.59333132603E+02  0.00000000000E+00 0. -1.
<scales pt_clust_5="13000.00000" pt_clust_6="13000.00000" pt_clust_7="13000.00000" pt_clust_8="13000.00000" pt_clust_9="57.65069"></scales>
<clustering>
<clus scale="   57.651">  1  9  2 -1</clus>
<clus scale="   78.132">  5  6 -1 -1</clus>
<clus scale="   86.174">  1  5  2 -1</clus>
<clus scale="   99.072">  7  8 -1 -1</clus>
<clus scale="   57.651">  1  5  2 -1</clus>
</clustering>
</event>
<event>
 9    1  0.7586638E-005  0.2319045E+03  0.7546771E-02  0.1126096E+00
          1   -1    0    0  502    0 -0.00000000000E+00  0.00000000000E+00  0.80962883340E+02  0.80962883340E+02  0.00000000000E+00 0. -1.
         21   -1    0    0  501  502  0.00000000000E+00 -0.00000000000E+00 -0.16045965136E+04  0.16045965136E+04  0.00000000000E+00 0. -1.
        -24    2    1    2    0    0 -0.20740072552E+03 -0.24918148098E+02 -0.34674402079E+03  0.41247824027E+03  0.79189062930E+02 0.  0.
         23    2    1    2    0    0  0.23078433973E+03 -0.54167542932E+02 -0.11617939095E+04  0.11892407124E+04  0.91284444042E+02 0.  0.
         13    1    3    3    0    0 -0.15419568242E+03 -0.50999678037E+02 -0.23006033424E+03  0.28161149307E+03  0.00000000000E+00 0. -1.
        -14    1    3    3    0    0 -0.53205043097E+02  0.26081529939E+02 -0.11668368655E+03  0.13086674720E+03  0.00000000000E+00 0.  1.
        -13    1    4    4    0    0  0.19473267477E+03 -0.77314623128E+01 -0.91805028556E+03  0.93850781400E+03  0.00000000000E+00 0. -1.
         13    1    4    4    0    0  0.36051664961E+02 -0.46436080619E+02 -0.24374362393E+03  0.25073289839E+03  0.00000000000E+00 0.  1.
          2    1    1    2  501    0 -0.23383614211E+02  0.79085691030E+02 -0.15095699980E+02  0.83840444280E+02  0.00000000000E+00 0. -1.
<scales pt_clust_5="13000.00000" pt_clust_6="13000.00000" pt_clust_7="13000.00000" pt_clust_8="13000.00000" pt_clust_9="82.47028"></scales>
<clustering>
<clus scale="   79.189">  5  6 -1 -1</clus>
<clus scale="   82.470">  2  9  1 -1</clus>
<clus scale="   91.284">  7  8 -1 -1</clus>
<clus scale="  227.415">  1  5  2 -1</clus>
<clus scale="   82.470">  2  5  1 -1</clus>
</clustering>
</event>
<event>
 9    1  0.7586638E-005  0.1023687E+03  0.7546771E-02  0.1280263E+00
         21   -1    0    0  501  502  0.00000000000E+00  0.00000000000E+00  0.33695609777E+02  0.33695609777E+02  0.00000000000E+00 0.  1.
          1   -1    0    0  502    0 -0.00000000000E+00 -0.00000000000E+00 -0.50588687635E+03  0.50588687635E+03  0.00000000000E+00 0. -1.
         23    2    1    2    0    0 -0.28987385717E+02 -0.44494773960E+02 -0.37295684695E+03  0.38779548031E+03  0.92024297969E+02 0.  0.
        -24    2    1    2    0    0  0.12386127896E+02  0.19741191314E+02 -0.74125810718E+02  0.11281542828E+03  0.81789695221E+02 0.  0.
         13    1    4    4    0    0  0.33456410982E+02  0.27975921135E+02 -0.78474665385E+02  0.89778932420E+02  0.00000000000E+00 0. -1.
        -14    1    4    4    0    0 -0.21070283086E+02 -0.82347298207E+01  0.43488546667E+01  0.23036495859E+02  0.00000000000E+00 0.  1.
        -11    1    3    3    0    0  0.27028076702E+02 -0.22615953710E+02 -0.64201248677E+02  0.73237958902E+02  0.00000000000E+00 0.  1.
         11    1    3    3    0    0 -0.56015462419E+02 -0.21878820251E+02 -0.30875559828E+03  0.31455752141E+03  0.00000000000E+00 0. -1.
          2    1    1    2  501    0  0.16601257821E+02  0.24753582646E+02 -0.25108608900E+02  0.38971577540E+02  0.00000000000E+00 0. -1.
<scales pt_clust_5="13000.00000" pt_clust_6="13000.00000" pt_clust_7="13000.00000" pt_clust_8="13000.00000" pt_clust_9="29.80506"></scales>
<clustering>
<clus scale="   29.805">  1  9  2 -1</clus>
<clus scale="   81.790">  5  6 -1 -1</clus>
<clus scale="   92.024">  7  8 -1 -1</clus>
<clus scale="   93.276">  1  5  2 -1</clus>
<clus scale="   29.805">  1  5  2 -1</clus>
</clustering>
</event>
<event>
 9    1  0.7586638E-005  0.1817248E+03  0.7546771E-02  0.1196286E+00
          3   -1    0    0  502    0 -0.00000000000E+00  0.00000000000E+00  0.51010966181E+03  0.51010966181E+03  0.00000000000E+00 0. -1.
         21   -1    0    0  501  502  0.00000000000E+00 -0.00000000000E+00 -0.11962209955E+03  0.11962209955E+03  0.00000000000E+00 0. -1.
        -24    2    1    2    0    0 -0.17667486445E+02  0.42897557498E+02  0.21111114644E+03  0.23045158008E+03  0.79922925977E+02 0.  0.
         23    2    1    2    0    0 -0.89143586763E+01  0.12101380481E+03  0.17284371017E+03  0.23309893857E+03  0.98672996667E+02 0.  0.
         13    1    3    3    0    0  0.14397636426E+02  0.14882846620E+02  0.68668096202E+01  0.21816143851E+02  0.00000000000E+00 0. -1.
        -14    1    3    3    0    0 -0.32065122871E+02  0.28014710877E+02  0.20424433682E+03  0.20863543623E+03  0.00000000000E+00 0.  1.
        -11    1    4    4    0    0 -0.17049555293E+02  0.93658722283E+02  0.51081455547E+02  0.10803683953E+03  0.00000000000E+00 0.  1.
         11    1    4    4    0    0  0.81351966168E+01  0.27355082525E+02  0.12176225463E+03  0.12506209904E+03  0.00000000000E+00 0. -1.
          4    1    1    2  501    0  0.26581845121E+02 -0.16391136231E+03  0.65327056496E+01  0.16618124270E+03  0.00000000000E+00 0. -1.
<scales pt_clust_5="13000.00000" pt_clust_6="13000.00000" pt_clust_7="13000.00000" pt_clust_8="13000.00000" pt_clust_9="152.60258"></scales>
<clustering>
<clus scale="   79.923">  5  6 -1 -1</clus>
<clus scale="   92.412">  1  5  2 -1</clus>
<clus scale="   98.673">  7  8 -1 -1</clus>
<clus scale="  152.603">  2  9  1 -1</clus>
<clus scale="  152.603">  2  5  1 -1</clus>
</clustering>
</event>
<event>
 9    1  0.7586638E-005  0.1024938E+03  0.7546771E-02  0.1277051E+00
         21   -1    0    0  501  502  0.00000000000E+00  0.00000000000E+00  0.34687694402E+02  0.34687694402E+02  0.00000000000E+00 0. -1.
         -2   -1    0    0    0  501 -0.00000000000E+00 -0.00000000000E+00 -0.44049042600E+03  0.44049042600E+03  0.00000000000E+00 0.  1.
        -24    2    1    2    0    0  0.46238960124E+02  0.48192383660E+02 -0.24972442611E+03  0.27175875028E+03  0.83844988406E+02 0.  0.
         23    2    1    2    0    0 -0.14595007792E+02 -0.45855883900E+02 -0.85982316790E+02  0.12647623149E+03  0.79293770196E+02 0.  0.
         13    1    3    3    0    0 -0.74924827928E+01  0.39202212879E+02 -0.17372315097E+03  0.17824893822E+03  0.00000000000E+00 0. -1.
        -14    1    3    3    0    0  0.53731442917E+02  0.89901707804E+01 -0.76001275138E+02  0.93509812059E+02  0.00000000000E+00 0.  1.
        -13    1    4    4    0    0  0.18942623022E+02 -0.24286266070E+02 -0.80543855035E+02  0.86232002589E+02  0.00000000000E+00 0.  1.
         13    1    4    4    0    0 -0.33537630814E+02 -0.21569617830E+02 -0.54384617549E+01  0.40244228906E+02  0.00000000000E+00 0. -1.
         -1    1    1    2    0  502 -0.31643952332E+02 -0.23364997599E+01 -0.70095988695E+02  0.76943138625E+02  0.00000000000E+00 0.  1.
<scales pt_clust_5="13000.00000" pt_clust_6="13000.00000" pt_clust_7="13000.00000" pt_clust_8="13000.00000" pt_clust_9="31.73011"></scales>
<clustering>
<clus scale="   31.730">  1  9  2 -1</clus>
<clus scale="   79.294">  7  8 -1 -1</clus>
<clus scale="   83.845">  5  6 -1 -1</clus>
<clus scale="   98.805">  1  7  2 -1</clus>
<clus scale="   31.730">  1  5  2 -1</clus>
</clustering>
</event>
<event>
 9    1  0.7586638E-005  0.1040945E+03  0.7546771E-02  0.1276980E+00
          3   -1    0    0  502    0 -0.00000000000E+00  0.00000000000E+00  0.12106365395E+03  0.12106365395E+03  0.00000000000E+00 0. -1.
         21   -1    0    0  501  502  0.00000000000E+00 -0.00000000000E+00 -0.13892735884E+03  0.13892735884E+03  0.00000000000E+00 0.  1.
         23    2    1    2    0    0  0.87605446035E+01  0.51551725326E+02  0.52551695019E+02  0.11802301606E+03  0.91833676531E+02 0.  0.
        -24    2    1    2    0    0  0.18363424055E+02 -0.43283646124E+02 -0.44217421032E+02  0.10336223412E+03  0.80733399251E+02 0.  0.
         13    1    4    4    0    0 -0.27930204893E+01 -0.39967910676E+02  0.13117933007E+02  0.42158214071E+02  0.00000000000E+00 0. -1.
        -14    1    4    4    0    0  0.21156444545E+02 -0.33157354477E+01 -0.57335354039E+02  0.61204020048E+02  0.00000000000E+00 0.  1.
        -13    1    3    3    0    0  0.21899146183E+02  0.51263208193E+01 -0.20529181108E+02  0.30451585273E+02  0.00000000000E+00 0.  1.
         13    1    3    3    0    0 -0.13138601579E+02  0.46425404507E+02  0.73080876127E+02  0.87571430790E+02  0.00000000000E+00 0. -1.
          4    1    1    2  501    0 -0.27123968659E+02 -0.82680792023E+01 -0.26197978871E+02  0.38605762606E+02  0.00000000000E+00 0. -1.
<scales pt_clust_5="13000.00000" pt_clust_6="13000.00000" pt_clust_7="13000.00000" pt_clust_8="13000.00000" pt_clust_9="28.35614"></scales>
<clustering>
<clus scale="   28.356">  2  9  1 -1</clus>
<clus scale="   80.733">  5  6 -1 -1</clus>
<clus scale="   91.834">  7  8 -1 -1</clus>
<clus scale="   94.446">  2  5  1 -1</clus>
<clus scale="   28.356">  2  5  1 -1</clus>
</clustering>
</event>
<event>
 9    1  0.7586638E-005  0.1106095E+03  0.7546771E-02  0.1261000E+00
          1   -1    0    0  502    0 -0.00000000000E+00  0.00000000000E+00  0.15670350172E+03  0.15670350172E+03  0.00000000000E+00 0. -1.
         21   -1    0    0  501  502  0.00000000000E+00 -0.00000000000E+00 -0.13308738800E+03  0.13308738800E+03  0.00000000000E+00 0. -1.
         23    2    1    2    0    0 -0.32996187794E+01  0.35669220525E+02  0.38326379658E+02  0.10723826314E+03  0.93530491959E+02 0.  0.
        -24    2    1    2    0    0  0.21331088237E+02 -0.76531174966E+02  0.18368399857E+02  0.12697357169E+03  0.97328586381E+02 0.  0.
         11    1    4    4    0    0  0.16459195960E+02 -0.82571359031E+02  0.47606719600E+02  0.96722976665E+02  0.00000000000E+00 0. -1.
        -12    1    4    4    0    0  0.48718922772E+01  0.60401840651E+01 -0.29238319743E+02  0.30250595023E+02  0.00000000000E+00 0.  1.
        -13    1    3    3    0    0  0.14090691031E+02 -0.18043018637E+02  0.44900058526E+02  0.50399537210E+02  0.00000000000E+00 0.  1.
         13    1    3    3    0    0 -0.17390309811E+02  0.53712239163E+02 -0.65736788686E+01  0.56838725927E+02  0.00000000000E+00 0. -1.
          2    1    1    2  501    0 -0.18031469458E+02  0.40861954441E+02 -0.33078665796E+02  0.55579054889E+02  0.00000000000E+00 0. -1.
<scales pt_clust_5="13000.00000" pt_clust_6="13000.00000" pt_clust_7="13000.00000" pt_clust_8="13000.00000" pt_clust_9="44.66356"></scales>
<clustering>
<clus scale="   44.664">  2  9  1 -1</clus>
<clus scale="   93.530">  7  8 -1 -1</clus>
<clus scale="   97.329">  5  6 -1 -1</clus>
<clus scale="  107.283">  1  7  2 -1</clus>
<clus scale="   44.664">  2  5  1 -1</clus>
</clustering>
</event>
<event>
 9    1  0.7586638E-005  0.1783499E+03  0.7546771E-02  0.1171278E+00
          1   -1    0    0  502    0 -0.00000000000E+00  0.00000000000E+00  0.22635837510E+03  0.22635837510E+03  0.00000000000E+00 0. -1.
         21   -1    0    0  501  502  0.00000000000E+00 -0.00000000000E+00 -0.17815225680E+03  0.17815225680E+03  0.00000000000E+00 0.  1.
        -24    2    1    2    0    0  0.88444036008E+02 -0.12243173586E+03  0.62219580444E+02  0.18085983752E+03  0.77634574684E+02 0.  0.
         23    2    1    2    0    0 -0.56386117385E+02  0.14696521432E+03 -0.94822854502E+01  0.18302896189E+03  0.92905966981E+02 0.  0.
         13    1    3    3    0    0  0.13144220735E+02 -0.69020365733E+02  0.53143657423E+02  0.88095571677E+02  0.00000000000E+00 0. -1.
        -14    1    3    3    0    0  0.75299815273E+02 -0.53411370130E+02  0.90759230206E+01  0.92764265846E+02  0.00000000000E+00 0.  1.
        -13    1    4    4    0    0 -0.22909421530E+02  0.11014405373E+03 -0.45753201199E+02  0.12144920579E+03  0.00000000000E+00 0.  1.
         13    1    4    4    0    0 -0.33476695855E+02  0.36821160587E+02  0.36270915748E+02  0.61579756101E+02  0.00000000000E+00 0. -1.
          2    1    1    2  501    0 -0.32057918623E+02 -0.24533478457E+02 -0.45311766903E+01  0.40621832478E+02  0.00000000000E+00 0. -1.
<scales pt_clust_5="13000.00000" pt_clust_6="13000.00000" pt_clust_7="13000.00000" pt_clust_8="13000.00000" pt_clust_9="40.36833"></scales>
<clustering>
<clus scale="   40.368">  2  9  1 -1</clus>
<clus scale="   77.635">  5  6 -1 -1</clus>
<clus scale="   92.906">  7  8 -1 -1</clus>
<clus scale="  170.893">  1  5  2 -1</clus>
<clus scale="   40.368">  2  5  1 -1</clus>
</clustering>
</event>
<event>
 9    1  0.7586638E-005  0.1075809E+03  0.7546771E-02  0.1269716E+00
          1   -1    0    0  502    0 -0.00000000000E+00  0.00000000000E+00  0.30903376022E+03  0.30903376022E+03  0.00000000000E+00 0. -1.
         21   -1    0    0  501  502  0.00000000000E+00 -0.00000000000E+00 -0.36768109240E+03  0.36768109240E+03  0.00000000000E+00 0.  1.
        -24    2    1    2    0    0  0.45366280810E+01 -0.56485776374E+02  0.28059558987E+03  0.29720288419E+03  0.79902724536E+02 0.  0.
         23    2    1    2    0    0 -0.40243451816E+02  0.73869144095E+02 -0.20521076598E+03  0.23972006024E+03  0.90983860917E+02 0.  0.
         11    1    3    3    0    0  0.28030354812E+02 -0.63920673553E+02  0.23767421568E+03  0.24771069032E+03  0.00000000000E+00 0. -1.
        -12    1    3    3    0    0 -0.23493726731E+02  0.74348971798E+01  0.42921374191E+02  0.49492193871E+02  0.00000000000E+00 0.  1.
        -13    1    4    4    0    0 -0.45476543674E+02  0.79629619945E+00 -0.11394967205E+03  0.12269180034E+03  0.00000000000E+00 0.  1.
         13    1    4    4    0    0  0.52330918576E+01  0.73072847895E+02 -0.91261093931E+02  0.11702825990E+03  0.00000000000E+00 0. -1.
          2    1    1    2  501    0  0.35706823735E+02 -0.17383367721E+02 -0.13403215607E+03  0.13979190819E+03  0.00000000000E+00 0. -1.
<scales pt_clust_5="13000.00000" pt_clust_6="13000.00000" pt_clust_7="13000.00000" pt_clust_8="13000.00000" pt_clust_9="39.71346"></scales>
<clustering>
<clus scale="   39.713">  2  9  1 -1</clus>
<clus scale="   79.903">  5  6 -1 -1</clus>
<clus scale="   90.984">  7  8 -1 -1</clus>
<clus scale="   98.387">  1  5  2 -1</clus>
<clus scale="   39.713">  2  5  1 -1</clus>
</clustering>
</event>
<event>
 9    1  0.7586638E-005  0.1549130E+03  0.7546771E-02  0.1219028E+00
         21   -1    0    0  501  502  0.00000000000E+00  0.00000000000E+00  0.29324305575E+03  0.29324305575E+03  0.00000000000E+00 0.  1.
         -4   -1    0    0    0  501 -0.00000000000E+00 -0.00000000000E+00 -0.37870551410E+03  0.37870551410E+03  0.00000000000E+00 0.  1.
        -24    2    1    2    0    0 -0.11688229846E+01  0.39461258883E+02 -0.82762741559E+01  0.91983370759E+02  0.82667325362E+02 0.  0.
         23    2    1    2    0    0 -0.60893738676E+02 -0.14580663503E+03 -0.28493160769E+03  0.33847138639E+03  0.91701887199E+02 0.  0.
         13    1    3    3    0    0  0.30002777001E+02  0.43609254283E+02 -0.22441351887E+02  0.57493894993E+02  0.00000000000E+00 0. -1.
        -14    1    3    3    0    0 -0.31171599986E+02 -0.41479953999E+01  0.14165077731E+02  0.34489475766E+02  0.00000000000E+00 0.  1.
        -13    1    4    4    0    0 -0.67691650044E+02 -0.67708117896E+02 -0.10440340253E+03  0.14165669477E+03  0.00000000000E+00 0. -1.
         13    1    4    4    0    0  0.67979113681E+01 -0.78098517138E+02 -0.18052820516E+03  0.19681469162E+03  0.00000000000E+00 0.  1.
         -3    1    1    2    0  502  0.62062561661E+02  0.10634537615E+03  0.20774542350E+03  0.24149381270E+03  0.00000000000E+00 0.  1.
<scales pt_clust_5="13000.00000" pt_clust_6="13000.00000" pt_clust_7="13000.00000" pt_clust_8="13000.00000" pt_clust_9="124.85508"></scales>
<clustering>
<clus scale="   82.667">  5  6 -1 -1</clus>
<clus scale="   91.610">  2  5  1 -1</clus>
<clus scale="   91.702">  7  8 -1 -1</clus>
<clus scale="  124.855">  1  9  2 -1</clus>
<clus scale="  124.855">  1  5  2 -1</clus>
</clustering>
</event>
<event>
 9    1  0.7586638E-005  0.1100056E+03  0.7546771E-02  0.1263744E+00
         -4   -1    0    0    0  501 -0.00000000000E+00  0.00000000000E+00  0.35348583506E+02  0.35348583506E+02  0.00000000000E+00 0.  1.
         21   -1    0    0  501  502  0.00000000000E+00 -0.00000000000E+00 -0.73625318475E+03  0.73625318475E+03  0.00000000000E+00 0. -1.
        -24    2    1    2    0    0 -0.36991584409E+02  0.72987471625E+02 -0.24355262525E+03  0.26896138071E+03  0.79541151083E+02 0.  0.
         23    2    1    2    0    0 -0.28702256697E+02 -0.52360749008E+02 -0.39725932434E+03  0.41124963731E+03  0.88010373492E+02 0.  0.
         13    1    3    3    0    0 -0.30324698339E+02  0.54439315234E+02 -0.24119029151E+03  0.24911038335E+03  0.00000000000E+00 0. -1.
        -14    1    3    3    0    0 -0.66668860700E+01  0.18548156391E+02 -0.23623337339E+01  0.19850997357E+02  0.00000000000E+00 0.  1.
        -11    1    4    4    0    0  0.21798244443E+02 -0.51243761781E+02 -0.21933931601E+03  0.22629808248E+03  0.00000000000E+00 0. -1.
         11    1    4    4    0    0 -0.50500501140E+02 -0.11169872270E+01 -0.17792000832E+03  0.18495155484E+03  0.00000000000E+00 0.  1.
         -3    1    1    2    0  502  0.65693841105E+02 -0.20626722617E+02 -0.60092651659E+02  0.91390750235E+02  0.00000000000E+00 0.  1.
<scales pt_clust_5="13000.00000" pt_clust_6="13000.00000" pt_clust_7="13000.00000" pt_clust_8="13000.00000" pt_clust_9="68.85599"></scales>
<clustering>
<clus scale="   68.856">  2  9  1 -1</clus>
<clus scale="   79.541">  5  6 -1 -1</clus>
<clus scale="   88.010">  7  8 -1 -1</clus>
<clus scale="  103.355">  1  5  2 -1</clus>
<clus scale="   68.856">  2  5  1 -1</clus>
</clustering>
</event>
<event>
 9    1  0.7586638E-005  0.1305662E+03  0.7546771E-02  0.1229212E+00
         21   -1    0    0  501  502  0.00000000000E+00  0.00000000000E+00  0.23712925757E+03  0.23712925757E+03  0.00000000000E+00 0.  1.
         -4   -1    0    0    0  501 -0.00000000000E+00 -0.00000000000E+00 -0.16110438128E+03  0.16110438128E+03  0.00000000000E+00 0.  1.
         23    2    1    2    0    0  0.78568441253E+02 -0.15468036863E+02 -0.37051728983E+02  0.12646389459E+03  0.90598156104E+02 0.  0.
        -24    2    1    2    0    0 -0.13953191627E+03 -0.38483200989E+02  0.79919701586E+02  0.18386831302E+03  0.80438084361E+02 0.  0.
         11    1    4    4    0    0 -0.16566641869E+02 -0.33277690066E+02  0.39702062705E+02  0.54388528772E+02  0.00000000000E+00 0. -1.
        -12    1    4    4    0    0 -0.12296527440E+03 -0.52055109226E+01  0.40217638881E+02  0.12947978425E+03  0.00000000000E+00 0.  1.
        -13    1    3    3    0    0  0.12166565445E+02  0.23713347307E+02 -0.41404727284E+02  0.49241238781E+02  0.00000000000E+00 0.  1.
         13    1    3    3    0    0  0.66401875807E+02 -0.39181384170E+02  0.43529983009E+01  0.77222655811E+02  0.00000000000E+00 0. -1.
         -3    1    1    2    0  502  0.60963475014E+02  0.53951237852E+02  0.33156903683E+02  0.87901431236E+02  0.00000000000E+00 0.  1.
<scales pt_clust_5="13000.00000" pt_clust_6="13000.00000" pt_clust_7="13000.00000" pt_clust_8="13000.00000" pt_clust_9="81.40812"></scales>
<clustering>
<clus scale="   80.438">  5  6 -1 -1</clus>
<clus scale="   81.408">  1  9  2 -1</clus>
<clus scale="   90.598">  7  8 -1 -1</clus>
<clus scale="  123.733">  1  5  2 -1</clus>
<clus scale="   81.408">  1  5  2 -1</clus>
</clustering>
</event>
<event>
 9    1  0.7586638E-005  0.1429066E+03  0.7546771E-02  0.1212285E+00
         -4   -1    0    0    0  501 -0.00000000000E+00  0.00000000000E+00  0.21061553997E+03  0.21061553997E+03  0.00000000000E+00 0.  1.
         21   -1    0    0  501  502  0.00000000000E+00 -0.00000000000E+00 -0.35559789083E+03  0.35559789083E+03  0.00000000000E+00 0.  1.
         23    2    1    2    0    0  0.76393981378E+02 -0.73274659957E+02 -0.72590364959E+02  0.15579849722E+03  0.88309651052E+02 0.  0.
        -24    2    1    2    0    0 -0.14131596796E+03  0.18144541359E+02 -0.20031156561E+03  0.25673470326E+03  0.74084798459E+02 0.  0.
         11    1    4    4    0    0 -0.29903188435E+02 -0.20767444733E+02 -0.81557262239E+02  0.89314469507E+02  0.00000000000E+00 0. -1.
        -12    1    4    4    0    0 -0.11141277952E+03  0.38911986092E+02 -0.11875430337E+03  0.16742023376E+03  0.00000000000E+00 0.  1.
        -11    1    3    3    0    0  0.46717076462E+02 -0.58658252844E+01 -0.67060250260E+02  0.81938820496E+02  0.00000000000E+00 0.  1.
         11    1    3    3    0    0  0.29676904916E+02 -0.67408834673E+02 -0.55301146991E+01  0.73859676725E+02  0.00000000000E+00 0. -1.
         -3    1    1    2    0  502  0.64921986580E+02  0.55130118599E+02  0.12791957971E+03  0.15368023032E+03  0.00000000000E+00 0.  1.
<scales pt_clust_5="13000.00000" pt_clust_6="13000.00000" pt_clust_7="13000.00000" pt_clust_8="13000.00000" pt_clust_9="85.17160"></scales>
<clustering>
<clus scale="   74.085">  5  6 -1 -1</clus>
<clus scale="   85.172">  2  9  1 -1</clus>
<clus scale="   88.310">  7  8 -1 -1</clus>
<clus scale="  134.582">  2  5  1 -1</clus>
<clus scale="   85.172">  2  5  1 -1</clus>
</clustering>
</event>
<event>
 9    1  0.7586638E-005  0.9827145E+02  0.7546771E-02  0.1288874E+00
         21   -1    0    0  501  502  0.00000000000E+00  0.00000000000E+00  0.55650649194E+02  0.55650649194E+02  0.00000000000E+00 0.  1.
         -4   -1    0    0    0  501 -0.00000000000E+00 -0.00000000000E+00 -0.26943205634E+03  0.26943205634E+03  0.00000000000E+00 0.  1.
         23    2    1    2    0    0  0.24137569152E+02 -0.25772797868E+02 -0.17788432420E+03  0.20273211793E+03  0.90612468739E+02 0.  0.
        -24    2    1    2    0    0 -0.43254356671E+02  0.19239041339E+02 -0.39369999994E+02  0.10185174149E+03  0.81133841657E+02 0.  0.
         13    1    4    4    0    0 -0.29238166249E+02  0.34380940282E+02  0.11824611546E+02  0.46655555494E+02  0.00000000000E+00 0. -1.
        -14    1    4    4    0    0 -0.14016190423E+02 -0.15141898942E+02 -0.51194611540E+02  0.55196185994E+02  0.00000000000E+00 0.  1.
        -11    1    3    3    0    0 -0.27311171305E+02 -0.35283921467E+02 -0.89983760612E+02  0.10043869954E+03  0.00000000000E+00 0. -1.
         11    1    3    3    0    0  0.51448740457E+02  0.95111235987E+01 -0.87900563586E+02  0.10229341839E+03  0.00000000000E+00 0.  1.
         -3    1    1    2    0  502  0.19116787519E+02  0.65337565286E+01  0.34729170426E+01  0.20498846119E+02  0.00000000000E+00 0.  1.
<scales pt_clust_5="13000.00000" pt_clust_6="13000.00000" pt_clust_7="13000.00000" pt_clust_8="13000.00000" pt_clust_9="20.20251"></scales>
<clustering>
<clus scale="   20.203">  1  9  2 -1</clus>
<clus scale="   81.134">  5  6 -1 -1</clus>
<clus scale="   89.607">  1  5  2 -1</clus>
<clus scale="   90.612">  7  8 -1 -1</clus>
<clus scale="   20.203">  1  5  2 -1</clus>
</clustering>
</event>
<event>
 9    1  0.7586638E-005  0.2429558E+03  0.7546771E-02  0.1118130E+00
         21   -1    0    0  501  502  0.00000000000E+00  0.00000000000E+00  0.79595891807E+02  0.79595891807E+02  0.00000000000E+00 0.  1.
          1   -1    0    0  502    0 -0.00000000000E+00 -0.00000000000E+00 -0.18066362515E+04  0.18066362515E+04  0.00000000000E+00 0. -1.
        -24    2    1    2    0    0  0.13186805757E+03 -0.20382158963E+03 -0.56402949979E+03  0.61923053302E+03  0.79904639311E+02 0.  0.
         23    2    1    2    0    0  0.87201008627E+01  0.22916663199E+03 -0.27697625884E+03  0.36952474944E+03  0.85084117874E+02 0.  0.
         11    1    3    3    0    0  0.89487033489E+02 -0.69242727225E+02 -0.28269189489E+03  0.30449497840E+03  0.00000000000E+00 0. -1.
        -12    1    3    3    0    0  0.42381024077E+02 -0.13457886241E+03 -0.28133760490E+03  0.31473555462E+03  0.00000000000E+00 0.  1.
        -11    1    4    4    0    0  0.31725577607E+02  0.10210098521E+03 -0.78102486874E+02  0.13240514307E+03  0.00000000000E+00 0.  1.
         11    1    4    4    0    0 -0.23005476745E+02  0.12706564678E+03 -0.19887377196E+03  0.23711960638E+03  0.00000000000E+00 0. -1.
          2    1    1    2  501    0 -0.14058815843E+03 -0.25345042360E+02 -0.88603460102E+03  0.89747686080E+03  0.00000000000E+00 0. -1.
<scales pt_clust_5="13000.00000" pt_clust_6="13000.00000" pt_clust_7="13000.00000" pt_clust_8="13000.00000" pt_clust_9="142.85455"></scales>
<clustering>
<clus scale="   79.905">  5  6 -1 -1</clus>
<clus scale="   85.084">  7  8 -1 -1</clus>
<clus scale="  142.855">  1  9  2 -1</clus>
<clus scale="  241.191">  2  5  1 -1</clus>
<clus scale="  142.855">  1  5  2 -1</clus>
</clustering>
</event>
<event>
 9    1  0.7586638E-005  0.1371670E+03  0.7546771E-02  0.1220224E+00
         21   -1    0    0  501  502  0.00000000000E+00  0.00000000000E+00  0.45354105905E+02  0.45354105905E+02  0.00000000000E+00 0.  1.
          1   -1    0    0  502    0 -0.00000000000E+00 -0.00000000000E+00 -0.72819460432E+03  0.72819460432E+03  0.00000000000E+00 0. -1.
        -24    2    1    2    0    0  0.54192686274E+02 -0.80468639504E+02 -0.32611763143E+03  0.34916935811E+03  0.78450506200E+02 0.  0.
         23    2    1    2    0    0 -0.11780132114E+03  0.47008858669E+02 -0.22107141322E+03  0.27086410117E+03  0.91694097442E+02 0.  0.
         11    1    3    3    0    0  0.35112824115E+02  0.24299289545E+01 -0.57629501651E+02  0.67527582754E+02  0.00000000000E+00 0. -1.
        -12    1    3    3    0    0  0.19079862159E+02 -0.82898568458E+02 -0.26848812978E+03  0.28164177536E+03  0.00000000000E+00 0.  1.
        -13    1    4    4    0    0 -0.70415268143E+02 -0.10591924458E+02 -0.59077977797E+02  0.92524085037E+02  0.00000000000E+00 0.  1.
         13    1    4    4    0    0 -0.47386052999E+02  0.57600783126E+02 -0.16199343542E+03  0.17834001614E+03  0.00000000000E+00 0. -1.
          2    1    1    2  501    0  0.63608634869E+02  0.33459780835E+02 -0.13565145376E+03  0.15351525094E+03  0.00000000000E+00 0. -1.
<scales pt_clust_5="13000.00000" pt_clust_6="13000.00000" pt_clust_7="13000.00000" pt_clust_8="13000.00000" pt_clust_9="71.87225"></scales>
<clustering>
<clus scale="   71.872">  1  9  2 -1</clus>
<clus scale="   78.451">  5  6 -1 -1</clus>
<clus scale="   91.694">  7  8 -1 -1</clus>
<clus scale="  128.691">  2  5  1 -1</clus>
<clus scale="   71.872">  1  5  2 -1</clus>
</clustering>
</event>
<event>
 9    1  0.7586638E-005  0.1757744E+03  0.7546771E-02  0.1173239E+00
          1   -1    0    0  502    0 -0.00000000000E+00  0.00000000000E+00  0.17291185100E+04  0.17291185100E+04  0.00000000000E+00 0. -1.
         21   -1    0    0  501  502  0.00000000000E+00 -0.00000000000E+00 -0.55749520681E+02  0.55749520681E+02  0.00000000000E+00 0. -1.
        -24    2    1    2    0    0  0.79498461368E+02 -0.10718477992E+03  0.64828139032E+03  0.66692767919E+03  0.81946237383E+02 0.  0.
         23    2    1    2    0    0 -0.21781073840E+03  0.99152334562E+02  0.38181580543E+03  0.45991800647E+03  0.92024780294E+02 0.  0.
         13    1    3    3    0    0  0.77204764157E+02 -0.11711062219E+03  0.53133179667E+03  0.54953521415E+03  0.00000000000E+00 0. -1.
        -14    1    3    3    0    0  0.22936972109E+01  0.99258422765E+01  0.11694959365E+03  0.11739246503E+03  0.00000000000E+00 0.  1.
        -13    1    4    4    0    0 -0.35789556291E+01  0.30235201161E+02  0.33924972603E+02  0.45583769905E+02  0.00000000000E+00 0.  1.
         13    1    4    4    0    0 -0.21423178277E+03  0.68917133401E+02  0.34789083283E+03  0.41433423657E+03  0.00000000000E+00 0. -1.
          2    1    1    2  501    0  0.13831227703E+03  0.80324453537E+01  0.64327179360E+03  0.65802234506E+03  0.00000000000E+00 0. -1.
<scales pt_clust_5="13000.00000" pt_clust_6="13000.00000" pt_clust_7="13000.00000" pt_clust_8="13000.00000" pt_clust_9="138.54539"></scales>
<clustering>
<clus scale="   81.946">  5  6 -1 -1</clus>
<clus scale="   92.025">  7  8 -1 -1</clus>
<clus scale="  138.545">  2  9  1 -1</clus>
<clus scale="  170.714">  1  5  2 -1</clus>
<clus scale="  138.545">  2  5  1 -1</clus>
</clustering>
</event>
<event>
 9    1  0.7586638E-005  0.1092201E+03  0.7546771E-02  0.1265635E+00
         -2   -1    0    0    0  501 -0.00000000000E+00  0.00000000000E+00  0.97844770947E+03  0.97844770947E+03  0.00000000000E+00 0.  1.
         21   -1    0    0  501  502  0.00000000000E+00 -0.00000000000E+00 -0.34008092336E+02  0.34008092336E+02  0.00000000000E+00 0. -1.
        -24    2    1    2    0    0 -0.39357324223E+02 -0.56703546884E+02  0.78840805367E+03  0.79540195172E+03  0.79452592868E+02 0.  0.
         23    2    1    2    0    0  0.55421123833E+01  0.25659407959E+02  0.59209081884E+02  0.10990068843E+03  0.88788094434E+02 0.  0.
         11    1    3    3    0    0 -0.28116388250E+02  0.72423202888E-01  0.83192361850E+02  0.87815178662E+02  0.00000000000E+00 0. -1.
        -12    1    3    3    0    0 -0.11240935974E+02 -0.56775970087E+02  0.70521569182E+03  0.70758677306E+03  0.00000000000E+00 0.  1.
        -11    1    4    4    0    0  0.12801415368E+02 -0.22634478281E+02  0.55055878133E+02  0.60887975492E+02  0.00000000000E+00 0.  1.
         11    1    4    4    0    0 -0.72593029851E+01  0.48293886241E+02  0.41532037509E+01  0.49012712937E+02  0.00000000000E+00 0. -1.
         -1    1    1    2    0  502  0.33815211840E+02  0.31044138924E+02  0.96822481589E+02  0.10715316166E+03  0.00000000000E+00 0.  1.
<scales pt_clust_5="13000.00000" pt_clust_6="13000.00000" pt_clust_7="13000.00000" pt_clust_8="13000.00000" pt_clust_9="45.90433"></scales>
<clustering>
<clus scale="   45.904">  2  9  1 -1</clus>
<clus scale="   79.453">  5  6 -1 -1</clus>
<clus scale="   88.788">  7  8 -1 -1</clus>
<clus scale="  101.776">  1  5  2 -1</clus>
<clus scale="   45.904">  2  5  1 -1</clus>
</clustering>
</event>
<event>
 9    1  0.7586638E-005  0.9899135E+02  0.7546771E-02  0.1288912E+00
         21   -1    0    0  501  502  0.00000000000E+00  0.00000000000E+00  0.11324304574E+03  0.11324304574E+03  0.00000000000E+00 0.  1.
         -2   -1    0    0    0  501 -0.00000000000E+00 -0.00000000000E+00 -0.15642244160E+03  0.15642244160E+03  0.00000000000E+00 0.  1.
         23    2    1    2    0    0 -0.72585969190E+01  0.24344351686E+02 -0.45990391413E+02  0.10620210734E+03  0.92295378067E+02 0.  0.
        -24    2    1    2    0    0 -0.27914606407E+02 -0.60696999473E+02  0.26641384443E+02  0.10754775903E+03  0.79958777580E+02 0.  0.
         11    1    4    4    0    0  0.26599277125E+02 -0.34072291854E+02  0.70636855904E+01  0.43798838682E+02  0.00000000000E+00 0. -1.
        -12    1    4    4    0    0 -0.54513883532E+02 -0.26624707619E+02  0.19577698852E+02  0.63748920351E+02  0.00000000000E+00 0.  1.
        -13    1    3    3    0    0 -0.44603042343E+02  0.24587494520E+02 -0.46336502475E+02  0.68855266571E+02  0.00000000000E+00 0.  1.
         13    1    3    3    0    0  0.37344445424E+02 -0.24314283374E+00  0.34611106140E+00  0.37346840767E+02  0.00000000000E+00 0. -1.
         -1    1    1    2    0  502  0.35173203326E+02  0.36352647787E+02 -0.23830388898E+02  0.55915620969E+02  0.00000000000E+00 0.  1.
<scales pt_clust_5="13000.00000" pt_clust_6="13000.00000" pt_clust_7="13000.00000" pt_clust_8="13000.00000" pt_clust_9="50.58332"></scales>
<clustering>
<clus scale="   50.583">  1  9  2 -1</clus>
<clus scale="   79.959">  5  6 -1 -1</clus>
<clus scale="   87.603">  1  5  2 -1</clus>
<clus scale="   92.295">  7  8 -1 -1</clus>
<clus scale="   50.583">  1  5  2 -1</clus>
</clustering>
</event>
<event>
 9    1  0.7586638E-005  0.1678239E+03  0.7546771E-02  0.1180818E+00
         21   -1    0    0  501  502  0.00000000000E+00  0.00000000000E+00  0.72467516258E+02  0.72467516258E+02  0.00000000000E+00 0. -1.
          1   -1    0    0  502    0 -0.00000000000E+00 -0.00000000000E+00 -0.88680309292E+03  0.88680309292E+03  0.00000000000E+00 0. -1.
        -24    2    1    2    0    0  0.71374696588E+02 -0.12939786164E+03 -0.58289526002E+03  0.60683559843E+03  0.81513222617E+02 0.  0.
         23    2    1    2    0    0 -0.85711491683E+02  0.93963055139E+02 -0.42419209927E+02  0.15958753737E+03  0.86563717423E+02 0.  0.
         13    1    3    3    0    0  0.50073564298E+02 -0.97564220969E+02 -0.53173464217E+03  0.54292528836E+03  0.00000000000E+00 0. -1.
        -14    1    3    3    0    0  0.21301132290E+02 -0.31833640669E+02 -0.51160617853E+02  0.63910310078E+02  0.00000000000E+00 0.  1.
        -13    1    4    4    0    0 -0.40153902763E+02  0.99801500693E+02 -0.34547963993E+02  0.11298777484E+03  0.00000000000E+00 0. -1.
         13    1    4    4    0    0 -0.45557588920E+02 -0.58384455541E+01 -0.78712459338E+01  0.46599762524E+02  0.00000000000E+00 0.  1.
          2    1    1    2  501    0  0.14336795095E+02  0.35434806499E+02 -0.18902110671E+03  0.19284747337E+03  0.00000000000E+00 0. -1.
<scales pt_clust_5="13000.00000" pt_clust_6="13000.00000" pt_clust_7="13000.00000" pt_clust_8="13000.00000" pt_clust_9="38.22526"></scales>
<clustering>
<clus scale="   38.225">  1  9  2 -1</clus>
<clus scale="   81.513">  5  6 -1 -1</clus>
<clus scale="   86.564">  7  8 -1 -1</clus>
<clus scale="  165.276">  2  5  1 -1</clus>
<clus scale="   38.225">  1  5  2 -1</clus>
</clustering>
</event>
<event>
 9    1  0.7586638E-005  0.1346500E+03  0.7546771E-02  0.1223956E+00
         21   -1    0    0  501  502  0.00000000000E+00  0.00000000000E+00  0.12973316953E+03  0.12973316953E+03  0.00000000000E+00 0.  1.
          1   -1    0    0  502    0 -0.00000000000E+00 -0.00000000000E+00 -0.59482478498E+03  0.59482478498E+03  0.00000000000E+00 0. -1.
        -24    2    1    2    0    0 -0.12942414244E+03  0.41655187814E+02 -0.42436309950E+02  0.16130703737E+03  0.75718931498E+02 0.  0.
         23    2    1    2    0    0  0.51585548909E+02 -0.35044534898E+02  0.22341937004E+02  0.11144886623E+03  0.89624211860E+02 0.  0.
         13    1    3    3    0    0 -0.75335844928E+02  0.60115573644E+02 -0.39248450669E+02  0.10406638557E+03  0.00000000000E+00 0. -1.
        -14    1    3    3    0    0 -0.54088297507E+02 -0.18460385830E+02 -0.31878592810E+01  0.57240651805E+02  0.00000000000E+00 0.  1.
        -11    1    4    4    0    0  0.28746575246E+02 -0.36238878306E+02  0.54819252744E+02  0.71727068535E+02  0.00000000000E+00 0.  1.
         11    1    4    4    0    0  0.22838973663E+02  0.11943434076E+01 -0.32477315740E+02  0.39721797691E+02  0.00000000000E+00 0. -1.
          2    1    1    2  501    0  0.77838593527E+02 -0.66106529151E+01 -0.44499724251E+03  0.45180205092E+03  0.00000000000E+00 0. -1.
<scales pt_clust_5="13000.00000" pt_clust_6="13000.00000" pt_clust_7="13000.00000" pt_clust_8="13000.00000" pt_clust_9="78.11884"></scales>
<clustering>
<clus scale="   75.719">  5  6 -1 -1</clus>
<clus scale="   78.119">  1  9  2 -1</clus>
<clus scale="   89.624">  7  8 -1 -1</clus>
<clus scale="  125.823">  2  5  1 -1</clus>
<clus scale="   78.119">  1  5  2 -1</clus>
</clustering>
</event>
<event>
 9    1  0.7586638E-005  0.1494454E+03  0.7546771E-02  0.1201482E+00
         21   -1    0    0  501  502  0.00000000000E+00  0.00000000000E+00  0.13044952348E+03  0.13044952348E+03  0.00000000000E+00 0.  1.
         -2   -1    0    0    0  501 -0.00000000000E+00 -0.00000000000E+00 -0.29167018868E+03  0.29167018868E+03  0.00000000000E+00 0.  1.
        -24    2    1    2    0    0  0.58897442488E+02 -0.12834568291E+03 -0.17116948417E+03  0.23674492951E+03  0.82508461883E+02 0.  0.
         23    2    1    2    0    0 -0.20253388624E+02  0.84266623050E+02  0.32240326573E+02  0.12265925246E+03  0.80590260236E+02 0.  0.
         11    1    3    3    0    0  0.78541695685E+02 -0.84345621652E+02 -0.11662836168E+03  0.16396693752E+03  0.00000000000E+00 0. -1.
        -12    1    3    3    0    0 -0.19644253196E+02 -0.44000061255E+02 -0.54541122499E+02  0.72777991986E+02  0.00000000000E+00 0.  1.
        -11    1    4    4    0    0 -0.12083301546E+02  0.35888457469E+02  0.56428959420E+02  0.67957450048E+02  0.00000000000E+00 0.  1.
         11    1    4    4    0    0 -0.81700870785E+01  0.48378165581E+02 -0.24188632847E+02  0.54701802410E+02  0.00000000000E+00 0. -1.
         -1    1    1    2    0  502 -0.38644053864E+02  0.44079059856E+02 -0.22291507597E+02  0.62715530197E+02  0.00000000000E+00 0.  1.
<scales pt_clust_5="13000.00000" pt_clust_6="13000.00000" pt_clust_7="13000.00000" pt_clust_8="13000.00000" pt_clust_9="58.62019"></scales>
<clustering>
<clus scale="   58.620">  1  9  2 -1</clus>
<clus scale="   80.590">  7  8 -1 -1</clus>
<clus scale="   82.508">  5  6 -1 -1</clus>
<clus scale="  148.395">  1  7  2 -1</clus>
<clus scale="   58.620">  1  5  2 -1</clus>
</clustering>
</event>
<event>
 9    1  0.7586638E-005  0.1505227E+03  0.7546771E-02  0.1201815E+00
         21   -1    0    0  501  502  0.00000000000E+00  0.00000000000E+00  0.15757181769E+03  0.15757181769E+03  0.00000000000E+00 0.  1.
          1   -1    0    0  502    0 -0.00000000000E+00 -0.00000000000E+00 -0.32466612721E+03  0.32466612721E+03  0.00000000000E+00 0. -1.
        -24    2    1    2    0    0  0.13551005807E+03 -0.63579345787E+02 -0.16037697416E+03  0.23373251350E+03  0.80652371203E+02 0.  0.
         23    2    1    2    0    0 -0.25414461562E+02  0.93092089981E+02 -0.16981831964E+02  0.13406154851E+03  0.91499093428E+02 0.  0.
         11    1    3    3    0    0  0.70783363486E+02 -0.57944829519E+02 -0.13689977779E+03  0.16464943660E+03  0.00000000000E+00 0. -1.
        -12    1    3    3    0    0  0.64726694579E+02 -0.56345162673E+01 -0.23477196368E+02  0.69083076900E+02  0.00000000000E+00 0.  1.
        -13    1    4    4    0    0  0.12032790902E+02  0.69454709190E+02  0.23256991824E+02  0.74226897781E+02  0.00000000000E+00 0.  1.
         13    1    4    4    0    0 -0.37447252464E+02  0.23637380791E+02 -0.40238823788E+02  0.59834650727E+02  0.00000000000E+00 0. -1.
          2    1    1    2  501    0 -0.11009559650E+03 -0.29512744194E+02  0.10264496605E+02  0.11444388288E+03  0.00000000000E+00 0. -1.
<scales pt_clust_5="13000.00000" pt_clust_6="13000.00000" pt_clust_7="13000.00000" pt_clust_8="13000.00000" pt_clust_9="113.98264"></scales>
<clustering>
<clus scale="   80.652">  5  6 -1 -1</clus>
<clus scale="   91.499">  7  8 -1 -1</clus>
<clus scale="  113.983">  1  9  2 -1</clus>
<clus scale="  144.187">  2  5  1 -1</clus>
<clus scale="  113.983">  1  5  2 -1</clus>
</clustering>
</event>
<event>
 9    1  0.7586638E-005  0.2435860E+03  0.7546771E-02  0.1149050E+00
          1   -1    0    0  502    0 -0.00000000000E+00  0.00000000000E+00  0.11607684770E+04  0.11607684770E+04  0.00000000000E+00 0. -1.
         21   -1    0    0  501  502  0.00000000000E+00 -0.00000000000E+00 -0.10766878389E+03  0.10766878389E+03  0.00000000000E+00 0. -1.
        -24    2    1    2    0    0 -0.35282045508E+02 -0.74130487774E+02  0.58177955669E+03  0.59256210758E+03  0.76956135594E+02 0.  0.
         23    2    1    2    0    0  0.24174488850E+03 -0.11261280678E+02  0.29438290112E+03  0.39087437279E+03  0.86914183353E+02 0.  0.
         13    1    3    3    0    0 -0.27905224032E+02 -0.89598982630E+02  0.45064631958E+03  0.46031378925E+03  0.00000000000E+00 0. -1.
        -14    1    3    3    0    0 -0.73768214758E+01  0.15468494856E+02  0.13113323711E+03  0.13224831833E+03  0.00000000000E+00 0.  1.
        -11    1    4    4    0    0  0.84649944385E+02  0.27838558508E+02  0.65799379206E+02  0.11077073949E+03  0.00000000000E+00 0.  1.
         11    1    4    4    0    0  0.15709494412E+03 -0.39099839185E+02  0.22858352192E+03  0.28010363329E+03  0.00000000000E+00 0. -1.
          2    1    1    2  501    0 -0.20646284299E+03  0.85391768452E+02  0.17693723525E+03  0.28500078048E+03  0.00000000000E+00 0. -1.
<scales pt_clust_5="13000.00000" pt_clust_6="13000.00000" pt_clust_7="13000.00000" pt_clust_8="13000.00000" pt_clust_9="227.55229"></scales>
<clustering>
<clus scale="   76.956">  5  6 -1 -1</clus>
<clus scale="   86.914">  7  8 -1 -1</clus>
<clus scale="  112.527">  1  5  2 -1</clus>
<clus scale="  227.552">  2  9  1 -1</clus>
<clus scale="  227.552">  2  5  1 -1</clus>
</clustering>
</event>
<event>
 9    1  0.7586638E-005  0.1568040E+03  0.7546771E-02  0.1215638E+00
         21   -1    0    0  501  502  0.00000000000E+00  0.00000000000E+00  0.60158575515E+03  0.60158575515E+03  0.00000000000E+00 0.  1.
         -2   -1    0    0    0  501 -0.00000000000E+00 -0.00000000000E+00 -0.64252101735E+02  0.64252101735E+02  0.00000000000E+00 0.  1.
        -24    2    1    2    0    0  0.71742894895E+02  0.15139797734E+02  0.10104885904E+03  0.13861302935E+03  0.60219959722E+02 0.  0.
         23    2    1    2    0    0 -0.10295369261E+03 -0.12253574901E+03  0.27602285277E+03  0.33179736229E+03  0.91029675184E+02 0.  0.
         13    1    3    3    0    0  0.76971586131E+02  0.18014795635E+02  0.10501869864E+03  0.13144612964E+03  0.00000000000E+00 0. -1.
        -14    1    3    3    0    0 -0.52286912352E+01 -0.28749979010E+01 -0.39698396023E+01  0.71668997085E+01  0.00000000000E+00 0.  1.
        -13    1    4    4    0    0 -0.15736795223E+02 -0.28484768708E+02  0.63251573007E+01  0.33151717710E+02  0.00000000000E+00 0. -1.
         13    1    4    4    0    0 -0.87216897383E+02 -0.94050980305E+02  0.26969769547E+03  0.29864564458E+03  0.00000000000E+00 0.  1.
         -1    1    1    2    0  502  0.31210797710E+02  0.10739595128E+03  0.16026194161E+03  0.19542746525E+03  0.00000000000E+00 0.  1.
<scales pt_clust_5="13000.00000" pt_clust_6="13000.00000" pt_clust_7="13000.00000" pt_clust_8="13000.00000" pt_clust_9="127.67575"></scales>
<clustering>
<clus scale="   60.220">  5  6 -1 -1</clus>
<clus scale="   91.030">  7  8 -1 -1</clus>
<clus scale="   94.883">  2  5  1 -1</clus>
<clus scale="  127.676">  1  9  2 -1</clus>
<clus scale="  127.676">  1  5  2 -1</clus>
</clustering>
</event>
<event>
 9    1  0.7586638E-005  0.9499368E+02  0.7546771E-02  0.1295525E+00
         -4   -1    0    0    0  501 -0.00000000000E+00  0.00000000000E+00  0.14305636296E+04  0.14305636296E+04  0.00000000000E+00 0.  1.
         21   -1    0    0  501  502  0.00000000000E+00 -0.00000000000E+00 -0.41484993918E+02  0.41484993918E+02  0.00000000000E+00 0.  1.
        -24    2    1    2    0    0  0.21807704769E+02  0.83918265632E+01  0.10500878361E+04  0.10535483198E+04  0.82058516060E+02 0.  0.
         23    2    1    2    0    0 -0.55487930839E+02 -0.51980044289E+02  0.34361338732E+03  0.36322229115E+03  0.89885690569E+02 0.  0.
         13    1    3    3    0    0 -0.19865433303E+02  0.40317941350E+01  0.79071866440E+02  0.81628737995E+02  0.00000000000E+00 0. -1.
        -14    1    3    3    0    0  0.41673138072E+02  0.43600324282E+01  0.97101596962E+03  0.97191958185E+03  0.00000000000E+00 0.  1.
        -11    1    4    4    0    0  0.21247141016E+02  0.26295999909E+01  0.94610817916E+02  0.97002900288E+02  0.00000000000E+00 0.  1.
         11    1    4    4    0    0 -0.76735071855E+02 -0.54609644280E+02  0.24900256941E+03  0.26621939087E+03  0.00000000000E+00 0. -1.
         -3    1    1    2    0  502  0.33680226070E+02  0.43588217725E+02 -0.46225876934E+01  0.55278012533E+02  0.00000000000E+00 0.  1.
<scales pt_clust_5="13000.00000" pt_clust_6="13000.00000" pt_clust_7="13000.00000" pt_clust_8="13000.00000" pt_clust_9="55.08439"></scales>
<clustering>
<clus scale="   55.084">  2  9  1 -1</clus>
<clus scale="   82.059">  5  6 -1 -1</clus>
<clus scale="   87.624">  1  5  2 -1</clus>
<clus scale="   89.886">  7  8 -1 -1</clus>
<clus scale="   55.084">  2  5  1 -1</clus>
</clustering>
</event>
<event>
 9    1  0.7586638E-005  0.2133796E+03  0.7546771E-02  0.1139829E+00
         21   -1    0    0  501  502  0.00000000000E+00  0.00000000000E+00  0.48583460097E+02  0.48583460097E+02  0.00000000000E+00 0. -1.
          1   -1    0    0  502    0 -0.00000000000E+00 -0.00000000000E+00 -0.14361846154E+04  0.14361846154E+04  0.00000000000E+00 0. -1.
        -24    2    1    2    0    0  0.16449760119E+03  0.13698543967E+03 -0.10082565087E+04  0.10339028750E+04  0.80928956628E+02 0.  0.
         23    2    1    2    0    0 -0.10309282557E+03 -0.10907203773E+03 -0.27849087145E+03  0.32953429584E+03  0.92254249501E+02 0.  0.
         11    1    3    3    0    0  0.12523432041E+03  0.13362955886E+03 -0.71824059797E+03  0.74122199818E+03  0.00000000000E+00 0. -1.
        -12    1    3    3    0    0  0.39263280775E+02  0.33558808135E+01 -0.29001591075E+03  0.29268087679E+03  0.00000000000E+00 0.  1.
        -13    1    4    4    0    0 -0.86996545151E+02 -0.63529876319E+02 -0.10881952571E+03  0.15312130233E+03  0.00000000000E+00 0.  1.
         13    1    4    4    0    0 -0.16096280422E+02 -0.45542161412E+02 -0.16967134575E+03  0.17641299351E+03  0.00000000000E+00 0. -1.
          2    1    1    2  501    0 -0.61404775613E+02 -0.27913401939E+02 -0.10085377516E+03  0.12133090472E+03  0.00000000000E+00 0. -1.
<scales pt_clust_5="13000.00000" pt_clust_6="13000.00000" pt_clust_7="13000.00000" pt_clust_8="13000.00000" pt_clust_9="67.45150"></scales>
<clustering>
<clus scale="   67.451">  1  9  2 -1</clus>
<clus scale="   80.929">  5  6 -1 -1</clus>
<clus scale="   92.254">  7  8 -1 -1</clus>
<clus scale="  208.733">  2  5  1 -1</clus>
<clus scale="   67.451">  1  5  2 -1</clus>
</clustering>
</event>
<event>
 9    1  0.7586638E-005  0.1067252E+03  0.7546771E-02  0.1270504E+00
          1   -1    0    0  502    0 -0.00000000000E+00  0.00000000000E+00  0.60321011881E+02  0.60321011881E+02  0.00000000000E+00 0. -1.
         21   -1    0    0  501  502  0.00000000000E+00 -0.00000000000E+00 -0.57594021643E+03  0.57594021643E+03  0.00000000000E+00 0.  1.
         23    2    1    2    0    0 -0.27226574132E+02  0.46691063120E+02 -0.12856622058E+02  0.10547038660E+03  0.89651369228E+02 0.  0.
        -24    2    1    2    0    0  0.24390239614E+02 -0.86231090205E+02 -0.44277875324E+03  0.45889147936E+03  0.80608193133E+02 0.  0.
         11    1    4    4    0    0 -0.98117379518E+01 -0.65453494051E+02 -0.15781607890E+03  0.17113253590E+03  0.00000000000E+00 0. -1.
        -12    1    4    4    0    0  0.34201977566E+02 -0.20777596154E+02 -0.28496267434E+03  0.28775894346E+03  0.00000000000E+00 0.  1.
        -13    1    3    3    0    0 -0.59011254434E+02  0.41140315360E+02 -0.41769827754E+01  0.72057621963E+02  0.00000000000E+00 0.  1.
         13    1    3    3    0    0  0.31784680302E+02  0.55507477599E+01 -0.86796392824E+01  0.33412764636E+02  0.00000000000E+00 0. -1.
          2    1    1    2  501    0  0.28363345182E+01  0.39540027085E+02 -0.59983829252E+02  0.71899362355E+02  0.00000000000E+00 0. -1.
<scales pt_clust_5="13000.00000" pt_clust_6="13000.00000" pt_clust_7="13000.00000" pt_clust_8="13000.00000" pt_clust_9="39.64163"></scales>
<clustering>
<clus scale="   39.642">  2  9  1 -1</clus>
<clus scale="   80.608">  5  6 -1 -1</clus>
<clus scale="   89.651">  7  8 -1 -1</clus>
<clus scale="   99.250">  2  5  1 -1</clus>
<clus scale="   39.642">  2  5  1 -1</clus>
</clustering>
</event>
<event>
 9    1  0.7586638E-005  0.1350324E+03  0.7546771E-02  0.1223060E+00
          3   -1    0    0  502    0 -0.00000000000E+00  0.00000000000E+00  0.19974407572E+03  0.19974407572E+03  0.00000000000E+00 0. -1.
         21   -1    0    0  501  502  0.00000000000E+00 -0.00000000000E+00 -0.13964395507E+03  0.13964395507E+03  0.00000000000E+00 0. -1.
        -24    2    1    2    0    0  0.13915622266E+02 -0.93372844540E+02  0.48786999560E+02  0.13183568780E+03  0.78027845095E+02 0.  0.
         23    2    1    2    0    0 -0.44946087940E+02  0.99649801360E+02  0.56258816837E+02  0.15257593393E+03  0.90355561039E+02 0.  0.
         11    1    3    3    0    0 -0.18687143667E+02 -0.45534893095E+02 -0.90026564755E+01  0.50036822953E+02  0.00000000000E+00 0. -1.
        -12    1    3    3    0    0  0.32602765933E+02 -0.47837951444E+02  0.57789656036E+02  0.81798864843E+02  0.00000000000E+00 0.  1.
        -11    1    4    4    0    0 -0.17375209079E+02  0.25858825911E+02 -0.24595262738E+02  0.39692615399E+02  0.00000000000E+00 0.  1.
         11    1    4    4    0    0 -0.27570878861E+02  0.73790975449E+02  0.80854079575E+02  0.11288331853E+03  0.00000000000E+00 0. -1.
          4    1    1    2  501    0  0.31030465674E+02 -0.62769568202E+01 -0.44945695746E+02  0.54976409059E+02  0.00000000000E+00 0. -1.
<scales pt_clust_5="13000.00000" pt_clust_6="13000.00000" pt_clust_7="13000.00000" pt_clust_8="13000.00000" pt_clust_9="31.65896"></scales>
<clustering>
<clus scale="   31.659">  2  9  1 -1</clus>
<clus scale="   78.028">  5  6 -1 -1</clus>
<clus scale="   90.356">  7  8 -1 -1</clus>
<clus scale="  127.114">  1  5  2 -1</clus>
<clus scale="   31.659">  2  5  1 -1</clus>
</clustering>
</event>
<event>
 9    1  0.7586638E-005  0.1178281E+03  0.7546771E-02  0.1252877E+00
          1   -1    0    0  502    0 -0.00000000000E+00  0.00000000000E+00  0.12430222794E+03  0.12430222794E+03  0.00000000000E+00 0. -1.
         21   -1    0    0  501  502  0.00000000000E+00 -0.00000000000E+00 -0.36997319970E+03  0.36997319970E+03  0.00000000000E+00 0.  1.
         23    2    1    2    0    0 -0.28357093980E+02  0.40259498509E+02  0.32966769065E+02  0.10928539643E+03  0.91823406659E+02 0.  0.
        -24    2    1    2    0    0 -0.20427774512E+02  0.72147163907E+02 -0.22658399614E+03  0.25185546212E+03  0.80426110582E+02 0.  0.
         11    1    4    4    0    0 -0.14692993157E+02 -0.15916545530E+02 -0.47635269370E+02  0.52329144437E+02  0.00000000000E+00 0. -1.
        -12    1    4    4    0    0 -0.57347813542E+01  0.88063709437E+02 -0.17894872677E+03  0.19952631768E+03  0.00000000000E+00 0.  1.
        -13    1    3    3    0    0  0.28134868766E+02  0.73829902164E+01 -0.10348584867E+02  0.30873493385E+02  0.00000000000E+00 0.  1.
         13    1    3    3    0    0 -0.56491962746E+02  0.32876508292E+02  0.43315353932E+02  0.78411903042E+02  0.00000000000E+00 0. -1.
          2    1    1    2  501    0  0.48784868491E+02 -0.11240666242E+03 -0.52053744688E+02  0.13313456908E+03  0.00000000000E+00 0. -1.
<scales pt_clust_5="13000.00000" pt_clust_6="13000.00000" pt_clust_7="13000.00000" pt_clust_8="13000.00000" pt_clust_9="86.11108"></scales>
<clustering>
<clus scale="   80.426">  5  6 -1 -1</clus>
<clus scale="   91.823">  7  8 -1 -1</clus>
<clus scale="  104.194">  1  7  2 -1</clus>
<clus scale="   86.111">  2  9  1 -1</clus>
<clus scale="   86.111">  2  5  1 -1</clus>
</clustering>
</event>
<event>
 9    1  0.7586638E-005  0.1205953E+03  0.7546771E-02  0.1245629E+00
          1   -1    0    0  502    0 -0.00000000000E+00  0.00000000000E+00  0.83911968877E+02  0.83911968877E+02  0.00000000000E+00 0. -1.
         21   -1    0    0  501  502  0.00000000000E+00 -0.00000000000E+00 -0.61498416718E+03  0.61498416718E+03  0.00000000000E+00 0.  1.
         23    2    1    2    0    0 -0.22559481362E+02  0.73321218824E+02  0.21074814075E+02  0.12115538185E+03  0.91375858046E+02 0.  0.
        -24    2    1    2    0    0 -0.29350953144E+01 -0.10199972361E+03 -0.45918733007E+03  0.47717270455E+03  0.80176227595E+02 0.  0.
         11    1    4    4    0    0 -0.20692314670E+02 -0.26484680707E+02 -0.47187816697E+02  0.57933584760E+02  0.00000000000E+00 0. -1.
        -12    1    4    4    0    0  0.17757219356E+02 -0.75515042904E+02 -0.41199951337E+03  0.41923911979E+03  0.00000000000E+00 0.  1.
        -11    1    3    3    0    0 -0.92434201828E+01  0.94102069229E+02  0.14997199020E+02  0.95736911525E+02  0.00000000000E+00 0. -1.
         11    1    3    3    0    0 -0.13316061180E+02 -0.20780850405E+02  0.60776150551E+01  0.25418470325E+02  0.00000000000E+00 0.  1.
          2    1    1    2  501    0  0.25494576677E+02  0.28678504787E+02 -0.92959682308E+02  0.10056804966E+03  0.00000000000E+00 0. -1.
<scales pt_clust_5="13000.00000" pt_clust_6="13000.00000" pt_clust_7="13000.00000" pt_clust_8="13000.00000" pt_clust_9="38.37226"></scales>
<clustering>
<clus scale="   38.372">  2  9  1 -1</clus>
<clus scale="   80.176">  5  6 -1 -1</clus>
<clus scale="   91.376">  7  8 -1 -1</clus>
<clus scale="  112.347">  2  5  1 -1</clus>
<clus scale="   38.372">  2  5  1 -1</clus>
</clustering>
</event>
<event>
 9    1  0.7586638E-005  0.9219589E+02  0.7546771E-02  0.1306085E+00
         21   -1    0    0  501  502  0.00000000000E+00  0.00000000000E+00  0.14606175007E+03  0.14606175007E+03  0.00000000000E+00 0.  1.
         -2   -1    0    0    0  501 -0.00000000000E+00 -0.00000000000E+00 -0.10746085152E+03  0.10746085152E+03  0.00000000000E+00 0.  1.
        -24    2    1    2    0    0 -0.27258632766E+02 -0.15387225684E+02  0.15377388590E+02  0.84877719632E+02  0.77381932229E+02 0.  0.
         23    2    1    2    0    0 -0.37572873081E+01 -0.25162463676E+02  0.54288960290E+02  0.10888430290E+03  0.90891327542E+02 0.  0.
         11    1    3    3    0    0 -0.26266206945E+02 -0.45069897552E+02  0.17325648350E+01  0.52193975453E+02  0.00000000000E+00 0. -1.
        -12    1    3    3    0    0 -0.99242582103E+00  0.29682671868E+02  0.13644823755E+02  0.32683744179E+02  0.00000000000E+00 0.  1.
        -13    1    4    4    0    0  0.28418440106E+02 -0.47380226464E+02  0.33231637372E+02  0.64473524181E+02  0.00000000000E+00 0.  1.
         13    1    4    4    0    0 -0.32175727414E+02  0.22217762789E+02  0.21057322918E+02  0.44410778719E+02  0.00000000000E+00 0. -1.
         -1    1    1    2    0  502  0.31015920075E+02  0.40549689359E+02 -0.31065450325E+02  0.59760579056E+02  0.00000000000E+00 0.  1.
<scales pt_clust_5="13000.00000" pt_clust_6="13000.00000" pt_clust_7="13000.00000" pt_clust_8="13000.00000" pt_clust_9="51.05161"></scales>
<clustering>
<clus scale="   51.052">  1  9  2 -1</clus>
<clus scale="   77.382">  5  6 -1 -1</clus>
<clus scale="   78.910">  2  5  1 -1</clus>
<clus scale="   90.891">  7  8 -1 -1</clus>
<clus scale="   51.052">  1  5  2 -1</clus>
</clustering>
</event>
<event>
 9    1  0.7586638E-005  0.1652944E+03  0.7546771E-02  0.1202417E+00
         -2   -1    0    0    0  501 -0.00000000000E+00  0.00000000000E+00  0.89141720791E+02  0.89141720791E+02  0.00000000000E+00 0.  1.
         21   -1    0    0  501  502  0.00000000000E+00 -0.00000000000E+00 -0.56231806005E+03  0.56231806005E+03  0.00000000000E+00 0.  1.
         23    2    1    2    0    0 -0.19251099273E+02  0.51039163646E+02 -0.56049118066E+02  0.12120978170E+03  0.92599711088E+02 0.  0.
        -24    2    1    2    0    0 -0.12432247608E+03 -0.82083479720E+02 -0.29349119913E+03  0.33825263705E+03  0.77999915391E+02 0.  0.
         11    1    4    4    0    0 -0.26331827106E+02  0.13924205945E+02 -0.69131937931E+02  0.75275982040E+02  0.00000000000E+00 0. -1.
        -12    1    4    4    0    0 -0.97990648977E+02 -0.96007685666E+02 -0.22435926120E+03  0.26297665501E+03  0.00000000000E+00 0.  1.
        -11    1    3    3    0    0 -0.56330035697E+02  0.22491028304E+02 -0.32867148887E+02  0.68986728809E+02  0.00000000000E+00 0.  1.
         11    1    3    3    0    0  0.37078936423E+02  0.28548135341E+02 -0.23181969180E+02  0.52223052886E+02  0.00000000000E+00 0. -1.
         -1    1    1    2    0  502  0.14357357536E+03  0.31044316075E+02 -0.12363602207E+03  0.19199736210E+03  0.00000000000E+00 0.  1.
<scales pt_clust_5="13000.00000" pt_clust_6="13000.00000" pt_clust_7="13000.00000" pt_clust_8="13000.00000" pt_clust_9="145.73356"></scales>
<clustering>
<clus scale="   78.000">  5  6 -1 -1</clus>
<clus scale="   92.600">  7  8 -1 -1</clus>
<clus scale="  107.472">  1  7  2 -1</clus>
<clus scale="  145.734">  2  9  1 -1</clus>
<clus scale="  145.734">  2  5  1 -1</clus>
</clustering>
</event>
<event>
 9    1  0.7586638E-005  0.1111383E+03  0.7546771E-02  0.1266751E+00
         -2   -1    0    0    0  501 -0.00000000000E+00  0.00000000000E+00  0.14799798906E+03  0.14799798906E+03  0.00000000000E+00 0.  1.
         21   -1    0    0  501  502  0.00000000000E+00 -0.00000000000E+00 -0.15607712589E+03  0.15607712589E+03  0.00000000000E+00 0. -1.
         23    2    1    2    0    0 -0.58993129399E+02  0.35637630525E+02  0.77226458249E+02  0.13807737604E+03  0.91384932534E+02 0.  0.
        -24    2    1    2    0    0  0.57375001343E+02 -0.30763850292E+01 -0.19880988400E+02  0.92900323049E+02  0.70241450718E+02 0.  0.
         13    1    4    4    0    0  0.70436362273E+02 -0.19350613402E+01 -0.29754157193E+02  0.76487485662E+02  0.00000000000E+00 0. -1.
        -14    1    4    4    0    0 -0.13061360930E+02 -0.11413236890E+01  0.98731687931E+01  0.16412837388E+02  0.00000000000E+00 0.  1.
        -11    1    3    3    0    0 -0.43628075436E+02  0.65336561303E+02  0.66591126585E+02  0.10298860786E+03  0.00000000000E+00 0.  1.
         11    1    3    3    0    0 -0.15365053963E+02 -0.29698930778E+02  0.10635331664E+02  0.35088768178E+02  0.00000000000E+00 0. -1.
         -1    1    1    2    0  502  0.16181280560E+01 -0.32561245496E+02 -0.65424606679E+02  0.73097415863E+02  0.00000000000E+00 0.  1.
<scales pt_clust_5="13000.00000" pt_clust_6="13000.00000" pt_clust_7="13000.00000" pt_clust_8="13000.00000" pt_clust_9="32.60143"></scales>
<clustering>
<clus scale="   32.601">  2  9  1 -1</clus>
<clus scale="   70.241">  5  6 -1 -1</clus>
<clus scale="   91.385">  7  8 -1 -1</clus>
<clus scale="   94.522">  2  5  1 -1</clus>
<clus scale="   32.601">  2  5  1 -1</clus>
</clustering>
</event>
<event>
 9    1  0.7586638E-005  0.1106703E+03  0.7546771E-02  0.1260669E+00
         21   -1    0    0  501  502  0.00000000000E+00  0.00000000000E+00  0.19710389611E+03  0.19710389611E+03  0.00000000000E+00 0. -1.
          1   -1    0    0  502    0 -0.00000000000E+00 -0.00000000000E+00 -0.45633120737E+03  0.45633120737E+03  0.00000000000E+00 0. -1.
         23    2    1    2    0    0  0.65846942940E+02 -0.23683181731E+02 -0.35027009515E+03  0.36831691484E+03  0.89841511632E+02 0.  0.
        -24    2    1    2    0    0 -0.47084622469E+02  0.15070536778E+02 -0.70730812581E+02  0.12203263184E+03  0.86284602524E+02 0.  0.
         13    1    4    4    0    0 -0.92189904913E+01  0.45845275519E+02 -0.51559422060E+02  0.69607133802E+02  0.00000000000E+00 0. -1.
        -14    1    4    4    0    0 -0.37865631977E+02 -0.30774738741E+02 -0.19171390521E+02  0.52425498034E+02  0.00000000000E+00 0.  1.
        -13    1    3    3    0    0  0.32760922564E+02  0.25563116222E+02 -0.66533739397E+02  0.78444180386E+02  0.00000000000E+00 0.  1.
         13    1    3    3    0    0  0.33086020376E+02 -0.49246297953E+02 -0.28373635575E+03  0.28987273445E+03  0.00000000000E+00 0. -1.
          2    1    1    2  501    0 -0.18762320471E+02  0.86126449531E+01  0.16177359646E+03  0.16308555680E+03  0.00000000000E+00 0. -1.
<scales pt_clust_5="13000.00000" pt_clust_6="13000.00000" pt_clust_7="13000.00000" pt_clust_8="13000.00000" pt_clust_9="20.64467"></scales>
<clustering>
<clus scale="   20.645">  1  9  2 -1</clus>
<clus scale="   86.285">  5  6 -1 -1</clus>
<clus scale="   89.842">  7  8 -1 -1</clus>
<clus scale="  107.803">  1  5  2 -1</clus>
<clus scale="   20.645">  1  5  2 -1</clus>
</clustering>
</event>
<event>
 9    1  0.7586638E-005  0.5061406E+03  0.7546771E-02  0.1053249E+00
          1   -1    0    0  502    0 -0.00000000000E+00  0.00000000000E+00  0.11217771198E+04  0.11217771198E+04  0.00000000000E+00 0. -1.
         21   -1    0    0  501  502  0.00000000000E+00 -0.00000000000E+00 -0.41408341475E+03  0.41408341475E+03  0.00000000000E+00 0.  1.
         23    2    1    2    0    0 -0.11869559812E+03  0.12075709302E+02  0.27305508817E+03  0.31181911067E+03  0.91856457766E+02 0.  0.
        -24    2    1    2    0    0 -0.42736792530E+03 -0.20028966081E+03 -0.34419136379E+02  0.47998158823E+03  0.80239368696E+02 0.  0.
         13    1    4    4    0    0 -0.12311076213E+03 -0.29346286643E+02  0.15246706571E+02  0.12747519897E+03  0.00000000000E+00 0. -1.
        -14    1    4    4    0    0 -0.30425716318E+03 -0.17094337417E+03 -0.49665842950E+02  0.35250638926E+03  0.00000000000E+00 0.  1.
        -11    1    3    3    0    0 -0.69597488526E+02 -0.29099810697E+02  0.20454703232E+03  0.21801398538E+03  0.00000000000E+00 0.  1.
         11    1    3    3    0    0 -0.49098109598E+02  0.41175520000E+02  0.68508055849E+02  0.93805125284E+02  0.00000000000E+00 0. -1.
          2    1    1    2  501    0  0.54606352343E+03  0.18821395151E+03  0.46905775329E+03  0.74405983569E+03  0.00000000000E+00 0. -1.
<scales pt_clust_5="13000.00000" pt_clust_6="13000.00000" pt_clust_7="13000.00000" pt_clust_8="13000.00000" pt_clust_9="499.74010"></scales>
<clustering>
<clus scale="   80.239">  5  6 -1 -1</clus>
<clus scale="   91.856">  7  8 -1 -1</clus>
<clus scale="  150.572">  1  7  2 -1</clus>
<clus scale="  499.740">  2  9  1 -1</clus>
<clus scale="  499.740">  2  5  1 -1</clus>
</clustering>
</event>
<event>
 9    1  0.7586638E-005  0.1323439E+03  0.7546771E-02  0.1227593E+00
         21   -1    0    0  501  502  0.00000000000E+00  0.00000000000E+00  0.16447885607E+03  0.16447885607E+03  0.00000000000E+00 0.  1.
          1   -1    0    0  502    0 -0.00000000000E+00 -0.00000000000E+00 -0.16511764721E+03  0.16511764721E+03  0.00000000000E+00 0. -1.
        -24    2    1    2    0    0 -0.32944271894E+02  0.83334256413E+02 -0.52148189459E+02  0.12933422921E+03  0.77317435544E+02 0.  0.
         23    2    1    2    0    0  0.43983006878E+02 -0.10508530975E+03  0.76783269500E+02  0.16513777327E+03  0.91637254796E+02 0.  0.
         13    1    3    3    0    0  0.23318001375E+02  0.14732881068E+02 -0.25755582944E+01  0.27702355012E+02  0.00000000000E+00 0. -1.
        -14    1    3    3    0    0 -0.56262273269E+02  0.68601375345E+02 -0.49572631164E+02  0.10163187420E+03  0.00000000000E+00 0.  1.
        -11    1    4    4    0    0  0.64676489096E+02 -0.36375807456E+02  0.43752984647E+02  0.86142737799E+02  0.00000000000E+00 0.  1.
         11    1    4    4    0    0 -0.20693482219E+02 -0.68709502295E+02  0.33030284852E+02  0.78995035473E+02  0.00000000000E+00 0. -1.
          2    1    1    2  501    0 -0.11038734984E+02  0.21751053338E+02 -0.25273871185E+02  0.35124500794E+02  0.00000000000E+00 0. -1.
<scales pt_clust_5="13000.00000" pt_clust_6="13000.00000" pt_clust_7="13000.00000" pt_clust_8="13000.00000" pt_clust_9="24.39185"></scales>
<clustering>
<clus scale="   24.392">  1  9  2 -1</clus>
<clus scale="   77.317">  5  6 -1 -1</clus>
<clus scale="   91.637">  7  8 -1 -1</clus>
<clus scale="  122.864">  2  5  1 -1</clus>
<clus scale="   24.392">  1  5  2 -1</clus>
</clustering>
</event>
<event>
 9    1  0.7586638E-005  0.2506863E+03  0.7546771E-02  0.1145850E+00
          1   -1    0    0  502    0 -0.00000000000E+00  0.00000000000E+00  0.12381781015E+04  0.12381781015E+04  0.00000000000E+00 0. -1.
         21   -1    0    0  501  502  0.00000000000E+00 -0.00000000000E+00 -0.84272389709E+02  0.84272389709E+02  0.00000000000E+00 0.  1.
        -24    2    1    2    0    0 -0.51533589027E+02 -0.34511068177E+02  0.46458671969E+03  0.47775731445E+03  0.92544620450E+02 0.  0.
         23    2    1    2    0    0  0.25975543865E+03  0.37063281124E+02  0.35387409406E+03  0.44986899808E+03  0.91151885731E+02 0.  0.
         13    1    3    3    0    0 -0.43926786706E+02  0.22480722261E+02  0.14850461160E+03  0.15648822681E+03  0.00000000000E+00 0. -1.
        -14    1    3    3    0    0 -0.76068023207E+01 -0.56991790438E+02  0.31608210809E+03  0.32126908764E+03  0.00000000000E+00 0.  1.
        -13    1    4    4    0    0  0.91748566508E+02  0.32296910285E+02  0.69522079123E+02  0.11955839308E+03  0.00000000000E+00 0. -1.
         13    1    4    4    0    0  0.16800687214E+03  0.47663708391E+01  0.28435201494E+03  0.33031060500E+03  0.00000000000E+00 0.  1.
          2    1    1    2  501    0 -0.20822184962E+03 -0.25522129473E+01  0.33544489807E+03  0.39482417871E+03  0.00000000000E+00 0. -1.
<scales pt_clust_5="13000.00000" pt_clust_6="13000.00000" pt_clust_7="13000.00000" pt_clust_8="13000.00000" pt_clust_9="233.52719"></scales>
<clustering>
<clus scale="   91.152">  7  8 -1 -1</clus>
<clus scale="   92.545">  5  6 -1 -1</clus>
<clus scale="  111.406">  1  5  2 -1</clus>
<clus scale="  233.527">  2  9  1 -1</clus>
<clus scale="  233.527">  2  5  1 -1</clus>
</clustering>
</event>
<event>
 9    1  0.7586638E-005  0.1722382E+03  0.7546771E-02  0.1184131E+00
         21   -1    0    0  501  502  0.00000000000E+00  0.00000000000E+00  0.12183404670E+03  0.12183404670E+03  0.00000000000E+00 0. -1.
          1   -1    0    0  502    0 -0.00000000000E+00 -0.00000000000E+00 -0.11264848362E+04  0.11264848362E+04  0.00000000000E+00 0. -1.
        -24    2    1    2    0    0  0.11556989307E+03 -0.27748272878E+00 -0.18878256352E+03  0.23620349148E+03  0.82442440019E+02 0.  0.
         23    2    1    2    0    0  0.11695479993E+03  0.11405752822E+02 -0.99835085608E+00  0.16464593201E+03  0.11532029223E+03 0.  0.
         13    1    3    3    0    0  0.12810052402E+03 -0.13483999098E+00 -0.16114716713E+03  0.20585959271E+03  0.00000000000E+00 0. -1.
        -14    1    3    3    0    0 -0.12530630949E+02 -0.14264273780E+00 -0.27635396386E+02  0.30343898766E+02  0.00000000000E+00 0.  1.
        -11    1    4    4    0    0  0.13266953103E+03  0.33980736477E+02 -0.37428847265E+01  0.13700329960E+03  0.00000000000E+00 0. -1.
         11    1    4    4    0    0 -0.15714731098E+02 -0.22574983655E+02  0.27445338705E+01  0.27642632412E+02  0.00000000000E+00 0.  1.
          2    1    1    2  501    0 -0.23252469300E+03 -0.11128270094E+02 -0.81486987512E+03  0.84746945940E+03  0.00000000000E+00 0. -1.
<scales pt_clust_5="13000.00000" pt_clust_6="13000.00000" pt_clust_7="13000.00000" pt_clust_8="13000.00000" pt_clust_9="127.93452"></scales>
<clustering>
<clus scale="   82.442">  5  6 -1 -1</clus>
<clus scale="  115.320">  7  8 -1 -1</clus>
<clus scale="  141.962">  2  5  1 -1</clus>
<clus scale="  127.935">  1  9  2 -1</clus>
<clus scale="  127.935">  1  5  2 -1</clus>
</clustering>
</event>
<event>
 9    1  0.7586638E-005  0.9157189E+02  0.7546771E-02  0.1301667E+00
         21   -1    0    0  501  502  0.00000000000E+00  0.00000000000E+00  0.19333933684E+03  0.19333933684E+03  0.00000000000E+00 0. -1.
          1   -1    0    0  502    0 -0.00000000000E+00 -0.00000000000E+00 -0.65826833551E+02  0.65826833551E+02  0.00000000000E+00 0. -1.
        -24    2    1    2    0    0  0.83391167286E+01 -0.38114048769E+02  0.92721942416E+01  0.89950989656E+02  0.80516988100E+02 0.  0.
         23    2    1    2    0    0 -0.16525041542E+02  0.16232940106E+02  0.11603120812E+03  0.14574877052E+03  0.85105096836E+02 0.  0.
         13    1    3    3    0    0  0.68386633328E+01 -0.60502117033E+02  0.21283504035E+02  0.64500085470E+02  0.00000000000E+00 0. -1.
        -14    1    3    3    0    0  0.15004533957E+01  0.22388068263E+02 -0.12011309793E+02  0.25450904186E+02  0.00000000000E+00 0.  1.
        -13    1    4    4    0    0  0.32595039272E+01  0.32930941439E+02  0.71808810434E+01  0.33862018878E+02  0.00000000000E+00 0.  1.
         13    1    4    4    0    0 -0.19784545470E+02 -0.16698001334E+02  0.10885032708E+03  0.11188675164E+03  0.00000000000E+00 0. -1.
          2    1    1    2  501    0  0.81859248139E+01  0.21881108664E+02  0.22091009250E+01  0.23466410213E+02  0.00000000000E+00 0. -1.
<scales pt_clust_5="13000.00000" pt_clust_6="13000.00000" pt_clust_7="13000.00000" pt_clust_8="13000.00000" pt_clust_9="23.36221"></scales>
<clustering>
<clus scale="   23.362">  1  9  2 -1</clus>
<clus scale="   80.517">  5  6 -1 -1</clus>
<clus scale="   85.105">  7  8 -1 -1</clus>
<clus scale="   87.324">  2  5  1 -1</clus>
<clus scale="   23.362">  1  5  2 -1</clus>
</clustering>
</event>
<event>
 9    1  0.7586638E-005  0.1099538E+03  0.7546771E-02  0.1273225E+00
          1   -1    0    0  502    0 -0.00000000000E+00  0.00000000000E+00  0.95144828288E+03  0.95144828288E+03  0.00000000000E+00 0. -1.
         21   -1    0    0  501  502  0.00000000000E+00 -0.00000000000E+00 -0.31367366981E+02  0.31367366981E+02  0.00000000000E+00 0. -1.
        -24    2    1    2    0    0 -0.36053760198E+02 -0.41227492088E+02  0.68310130979E+03  0.68820397046E+03  0.63227571425E+02 0.  0.
         23    2    1    2    0    0  0.38976112818E+02  0.73805530857E+02  0.22904052855E+03  0.26095313357E+03  0.93115951627E+02 0.  0.
         11    1    3    3    0    0 -0.47602499622E+02 -0.20244203718E+02  0.30588932056E+03  0.31023233582E+03  0.00000000000E+00 0. -1.
        -12    1    3    3    0    0  0.11548739424E+02 -0.20983288371E+02  0.37721198923E+03  0.37797163464E+03  0.00000000000E+00 0.  1.
        -11    1    4    4    0    0  0.68687262947E+02  0.45156033470E+02  0.17102316002E+03  0.18975228250E+03  0.00000000000E+00 0.  1.
         11    1    4    4    0    0 -0.29711150129E+02  0.28649497388E+02  0.58017368523E+02  0.71200851069E+02  0.00000000000E+00 0. -1.
          2    1    1    2  501    0 -0.29223526201E+01 -0.32578038769E+02  0.79390775575E+01  0.33658545829E+02  0.00000000000E+00 0. -1.
<scales pt_clust_5="13000.00000" pt_clust_6="13000.00000" pt_clust_7="13000.00000" pt_clust_8="13000.00000" pt_clust_9="32.70885"></scales>
<clustering>
<clus scale="   32.709">  2  9  1 -1</clus>
<clus scale="   63.228">  5  6 -1 -1</clus>
<clus scale="   86.122">  1  5  2 -1</clus>
<clus scale="   93.116">  7  8 -1 -1</clus>
<clus scale="   32.709">  2  5  1 -1</clus>
</clustering>
</event>
<event>
 9    1  0.7586638E-005  0.9154180E+02  0.7546771E-02  0.1307471E+00
         21   -1    0    0  501  502  0.00000000000E+00  0.00000000000E+00  0.25762021279E+03  0.25762021279E+03  0.00000000000E+00 0. -1.
         -2   -1    0    0    0  501 -0.00000000000E+00 -0.00000000000E+00 -0.57609521115E+02  0.57609521115E+02  0.00000000000E+00 0.  1.
        -24    2    1    2    0    0  0.32337213172E+01 -0.41717258639E+01  0.19102638223E+01  0.78641976557E+02  0.78441386517E+02 0.  0.
         23    2    1    2    0    0  0.27428899380E+02  0.10903306495E+01  0.12509415611E+03  0.15734378585E+03  0.91405610942E+02 0.  0.
         11    1    3    3    0    0  0.27907185521E+02  0.17803204070E+02 -0.20299208789E+02  0.38830696057E+02  0.00000000000E+00 0. -1.
        -12    1    3    3    0    0 -0.24673464204E+02 -0.21974929934E+02  0.22209472611E+02  0.39811280500E+02  0.00000000000E+00 0.  1.
        -13    1    4    4    0    0  0.33182189784E+02 -0.38828217609E+02  0.91773236369E+02  0.10502863950E+03  0.00000000000E+00 0. -1.
         13    1    4    4    0    0 -0.57532904041E+01  0.39918548259E+02  0.33320919742E+02  0.52315146354E+02  0.00000000000E+00 0.  1.
         -1    1    1    2    0  502 -0.30662620697E+02  0.30813952144E+01  0.73006271745E+02  0.79243971496E+02  0.00000000000E+00 0.  1.
<scales pt_clust_5="13000.00000" pt_clust_6="13000.00000" pt_clust_7="13000.00000" pt_clust_8="13000.00000" pt_clust_9="30.81706"></scales>
<clustering>
<clus scale="   30.817">  1  9  2 -1</clus>
<clus scale="   78.441">  5  6 -1 -1</clus>
<clus scale="   78.600">  2  5  1 -1</clus>
<clus scale="   91.406">  7  8 -1 -1</clus>
<clus scale="   30.817">  1  5  2 -1</clus>
</clustering>
</event>
<event>
 9    1  0.7586638E-005  0.1231509E+03  0.7546771E-02  0.1241077E+00
         21   -1    0    0  501  502  0.00000000000E+00  0.00000000000E+00  0.32434329720E+03  0.32434329720E+03  0.00000000000E+00 0.  1.
         -2   -1    0    0    0  501 -0.00000000000E+00 -0.00000000000E+00 -0.16130989186E+03  0.16130989186E+03  0.00000000000E+00 0.  1.
        -24    2    1    2    0    0  0.42717424254E+02 -0.84369835855E+02 -0.89885917157E+02  0.15317583319E+03  0.80251543501E+02 0.  0.
         23    2    1    2    0    0  0.51124575627E+02  0.48064197852E+02  0.14593546616E+03  0.18561018523E+03  0.90719850252E+02 0.  0.
         13    1    3    3    0    0 -0.19662803100E+02 -0.45721285389E+02 -0.27521962173E+02  0.56872842071E+02  0.00000000000E+00 0. -1.
        -14    1    3    3    0    0  0.62380227355E+02 -0.38648550466E+02 -0.62363954983E+02  0.96302991123E+02  0.00000000000E+00 0.  1.
        -13    1    4    4    0    0  0.70875758095E+02  0.29753585455E+02  0.66186998608E+02  0.10143652063E+03  0.00000000000E+00 0.  1.
         13    1    4    4    0    0 -0.19751182469E+02  0.18310612397E+02  0.79748467547E+02  0.84173664595E+02  0.00000000000E+00 0. -1.
         -1    1    1    2    0  502 -0.93841999881E+02  0.36305638003E+02  0.10698385635E+03  0.14686717064E+03  0.00000000000E+00 0.  1.
<scales pt_clust_5="13000.00000" pt_clust_6="13000.00000" pt_clust_7="13000.00000" pt_clust_8="13000.00000" pt_clust_9="100.62018"></scales>
<clustering>
<clus scale="   80.252">  5  6 -1 -1</clus>
<clus scale="   90.720">  7  8 -1 -1</clus>
<clus scale="  100.620">  1  9  2 -1</clus>
<clus scale="  115.656">  2  5  1 -1</clus>
<clus scale="  100.620">  1  5  2 -1</clus>
</clustering>
</event>
<event>
 9    1  0.7586638E-005  0.1331916E+03  0.7546771E-02  0.1227749E+00
          1   -1    0    0  502    0 -0.00000000000E+00  0.00000000000E+00  0.63077360586E+03  0.63077360586E+03  0.00000000000E+00 0. -1.
         21   -1    0    0  501  502  0.00000000000E+00 -0.00000000000E+00 -0.75029085514E+02  0.75029085514E+02  0.00000000000E+00 0. -1.
         23    2    1    2    0    0 -0.38285213335E+02 -0.67627728372E+02  0.45183092984E+02  0.12836002351E+03  0.91627051344E+02 0.  0.
        -24    2    1    2    0    0 -0.93383797451E+02  0.37365560803E+02  0.18003077032E+03  0.22036698621E+03  0.77677613173E+02 0.  0.
         11    1    4    4    0    0 -0.10192363088E+03  0.24180056980E+02  0.12475142946E+03  0.16289880552E+03  0.00000000000E+00 0. -1.
        -12    1    4    4    0    0  0.85398334262E+01  0.13185503823E+02  0.55279340863E+02  0.57468180693E+02  0.00000000000E+00 0.  1.
        -13    1    3    3    0    0 -0.25443294471E+02 -0.90274806358E+02  0.31442835983E+02  0.98921958286E+02  0.00000000000E+00 0. -1.
         13    1    3    3    0    0 -0.12841918864E+02  0.22647077986E+02  0.13740257001E+02  0.29438065220E+02  0.00000000000E+00 0.  1.
          2    1    1    2  501    0  0.13166901079E+03  0.30262167569E+02  0.33053065704E+03  0.35707568166E+03  0.00000000000E+00 0. -1.
<scales pt_clust_5="13000.00000" pt_clust_6="13000.00000" pt_clust_7="13000.00000" pt_clust_8="13000.00000" pt_clust_9="108.19516"></scales>
<clustering>
<clus scale="   77.678">  5  6 -1 -1</clus>
<clus scale="   91.627">  7  8 -1 -1</clus>
<clus scale="  120.145">  1  7  2 -1</clus>
<clus scale="  108.195">  2  9  1 -1</clus>
<clus scale="  108.195">  2  5  1 -1</clus>
</clustering>
</event>
<event>
 9    1  0.7586638E-005  0.1345414E+03  0.7546771E-02  0.1245329E+00
         21   -1    0    0  501  502  0.00000000000E+00  0.00000000000E+00  0.69338368989E+02  0.69338368989E+02  0.00000000000E+00 0.  1.
         -2   -1    0    0    0  501 -0.00000000000E+00 -0.00000000000E+00 -0.44802471219E+03  0.44802471219E+03  0.00000000000E+00 0.  1.
        -24    2    1    2    0    0 -0.58541707402E+00 -0.18738833218E+02 -0.15594910566E+02  0.82877585844E+02  0.79208625896E+02 0.  0.
         23    2    1    2    0    0  0.38110583782E+02  0.10257499174E+03 -0.25509399471E+03  0.29271072250E+03  0.92911653764E+02 0.  0.
         11    1    3    3    0    0 -0.24314248404E+02 -0.80155573238E+00 -0.38357601358E+02  0.45421699098E+02  0.00000000000E+00 0. -1.
        -12    1    3    3    0    0  0.23728831330E+02 -0.17937277485E+02  0.22762690792E+02  0.37455886746E+02  0.00000000000E+00 0.  1.
        -11    1    4    4    0    0  0.47333213712E+02  0.73169483182E+02 -0.24538491934E+03  0.26039962563E+03  0.00000000000E+00 0.  1.
         11    1    4    4    0    0 -0.92226299298E+01  0.29405508558E+02 -0.97090753646E+01  0.32311096868E+02  0.00000000000E+00 0. -1.
         -1    1    1    2    0  502 -0.37525166708E+02 -0.83836158523E+02 -0.10799743793E+03  0.14177477283E+03  0.00000000000E+00 0.  1.
<scales pt_clust_5="13000.00000" pt_clust_6="13000.00000" pt_clust_7="13000.00000" pt_clust_8="13000.00000" pt_clust_9="97.30789"></scales>
<clustering>
<clus scale="   79.209">  5  6 -1 -1</clus>
<clus scale="   81.397">  2  5  1 -1</clus>
<clus scale="   92.912">  7  8 -1 -1</clus>
<clus scale="   97.308">  1  9  2 -1</clus>
<clus scale="   97.308">  1  5  2 -1</clus>
</clustering>
</event>
<event>
 9    1  0.7586638E-005  0.9390631E+02  0.7546771E-02  0.1301797E+00
         21   -1    0    0  501  502  0.00000000000E+00  0.00000000000E+00  0.10079761435E+03  0.10079761435E+03  0.00000000000E+00 0. -1.
          3   -1    0    0  502    0 -0.00000000000E+00 -0.00000000000E+00 -0.24848051961E+03  0.24848051961E+03  0.00000000000E+00 0. -1.
         23    2    1    2    0    0 -0.32779739021E+01 -0.29710822919E+02 -0.19619701127E+03  0.21836337232E+03  0.91081375868E+02 0.  0.
        -24    2    1    2    0    0 -0.69806627373E+00 -0.45479618709E+01  0.84839295377E+01  0.78076439770E+02  0.77477623435E+02 0.  0.
         13    1    4    4    0    0  0.64055100013E+00 -0.40142031766E+02  0.12936651946E+02  0.42179971354E+02  0.00000000000E+00 0. -1.
        -14    1    4    4    0    0 -0.13386172739E+01  0.35594069895E+02 -0.44527224081E+01  0.35896468416E+02  0.00000000000E+00 0.  1.
        -13    1    3    3    0    0 -0.42419051583E+02 -0.33589284536E+02 -0.13692568504E+03  0.14722859504E+03  0.00000000000E+00 0.  1.
         13    1    3    3    0    0  0.39141077681E+02  0.38784616169E+01 -0.59271326223E+02  0.71134777280E+02  0.00000000000E+00 0. -1.
          4    1    1    2  501    0  0.39760401758E+01  0.34258784790E+02  0.40030176460E+02  0.52838321871E+02  0.00000000000E+00 0. -1.
<scales pt_clust_5="13000.00000" pt_clust_6="13000.00000" pt_clust_7="13000.00000" pt_clust_8="13000.00000" pt_clust_9="34.48874"></scales>
<clustering>
<clus scale="   34.489">  1  9  2 -1</clus>
<clus scale="   77.478">  5  6 -1 -1</clus>
<clus scale="   80.780">  1  5  2 -1</clus>
<clus scale="   91.081">  7  8 -1 -1</clus>
<clus scale="   34.489">  1  5  2 -1</clus>
</clustering>
</event>
<event>
 9    1  0.9967248E-005  0.1290440E+03  0.7546771E-02  0.1232088E+00
          1   -1    0    0  502    0 -0.00000000000E+00  0.00000000000E+00  0.52283395924E+03  0.52283395924E+03  0.00000000000E+00 0. -1.
         21   -1    0    0  501  502  0.00000000000E+00 -0.00000000000E+00 -0.24520515585E+03  0.24520515585E+03  0.00000000000E+00 0.  1.
        -24    2    1    2    0    0 -0.23620309150E+02  0.74148308973E+02  0.40678037925E+01  0.11173431824E+03  0.80075714904E+02 0.  0.
         23    2    1    2    0    0  0.78965531509E+02 -0.11396597419E+03 -0.15195162640E+03  0.22536450517E+03  0.92065547205E+02 0.  0.
         13    1    3    3    0    0 -0.52179474324E+02  0.34405468203E+02 -0.11895375258E+01  0.62512788952E+02  0.00000000000E+00 0. -1.
        -14    1    3    3    0    0  0.28559165174E+02  0.39742840770E+02  0.52573413183E+01  0.49221529290E+02  0.00000000000E+00 0.  1.
        -11    1    4    4    0    0  0.99926333367E+02 -0.96400532895E+02 -0.12232394214E+03  0.18504453967E+03  0.00000000000E+00 0.  1.
         11    1    4    4    0    0 -0.20960801858E+02 -0.17565441299E+02 -0.29627684265E+02  0.40319965494E+02  0.00000000000E+00 0. -1.
          2    1    1    2  501    0 -0.55345222359E+02  0.39817665221E+02  0.42551262600E+03  0.43094029168E+03  0.00000000000E+00 0. -1.
<scales pt_clust_5="13000.00000" pt_clust_6="13000.00000" pt_clust_7="13000.00000" pt_clust_8="13000.00000" pt_clust_9="68.18024"></scales>
<clustering>
<clus scale="   68.180">  2  9  1 -1</clus>
<clus scale="   80.076">  5  6 -1 -1</clus>
<clus scale="   92.066">  7  8 -1 -1</clus>
<clus scale="  120.783">  1  5  2 -1</clus>
<clus scale="   68.180">  2  5  1 -1</clus>
</clustering>
</event>
<event>
 9    1  0.7586638E-005  0.9373753E+02  0.7546771E-02  0.1299914E+00
          1   -1    0    0  502    0 -0.00000000000E+00  0.00000000000E+00  0.10192917063E+03  0.10192917063E+03  0.00000000000E+00 0. -1.
         21   -1    0    0  501  502  0.00000000000E+00 -0.00000000000E+00 -0.25779634878E+03  0.25779634878E+03  0.00000000000E+00 0. -1.
        -24    2    1    2    0    0 -0.92509874778E+01  0.24379763062E+02  0.25739339471E+02  0.88777049273E+02  0.80863448263E+02 0.  0.
         23    2    1    2    0    0  0.11918833454E+02  0.31071991083E+01 -0.21133639801E+03  0.23037118242E+03  0.90863057883E+02 0.  0.
         11    1    3    3    0    0 -0.31899748482E+00  0.54001598601E+02  0.15388122729E+02  0.56152192584E+02  0.00000000000E+00 0. -1.
        -12    1    3    3    0    0 -0.89319899930E+01 -0.29621835539E+02  0.10351216742E+02  0.32624856689E+02  0.00000000000E+00 0.  1.
        -13    1    4    4    0    0  0.47194437639E+02 -0.58707633020E+01 -0.16340354004E+03  0.17018371751E+03  0.00000000000E+00 0. -1.
         13    1    4    4    0    0 -0.35275604184E+02  0.89779624103E+01 -0.47932857965E+02  0.60187464910E+02  0.00000000000E+00 0.  1.
          2    1    1    2  501    0 -0.26678459763E+01 -0.27486962170E+02  0.29729880386E+02  0.40577287727E+02  0.00000000000E+00 0. -1.
<scales pt_clust_5="13000.00000" pt_clust_6="13000.00000" pt_clust_7="13000.00000" pt_clust_8="13000.00000" pt_clust_9="27.61614"></scales>
<clustering>
<clus scale="   27.616">  2  9  1 -1</clus>
<clus scale="   80.863">  5  6 -1 -1</clus>
<clus scale="   84.080">  1  5  2 -1</clus>
<clus scale="   90.863">  7  8 -1 -1</clus>
<clus scale="   27.616">  2  5  1 -1</clus>
</clustering>
</event>
<event>
 9    1  0.7586638E-005  0.2034018E+03  0.7546771E-02  0.1174895E+00
         21   -1    0    0  501  502  0.00000000000E+00  0.00000000000E+00  0.13685159215E+03  0.13685159215E+03  0.00000000000E+00 0. -1.
          1   -1    0    0  502    0 -0.00000000000E+00 -0.00000000000E+00 -0.59709313486E+03  0.59709313486E+03  0.00000000000E+00 0. -1.
        -24    2    1    2    0    0 -0.58259780362E+02  0.26309413862E+02  0.27913191064E+02  0.10971706351E+03  0.84689435726E+02 0.  0.
         23    2    1    2    0    0  0.20059020317E+03  0.39099309986E+02 -0.22986184557E+03  0.32214908679E+03  0.95803864352E+02 0.  0.
         13    1    3    3    0    0 -0.41678957394E+02  0.38579834001E+02 -0.17839289584E+02  0.59529650880E+02  0.00000000000E+00 0. -1.
        -14    1    3    3    0    0 -0.16580822968E+02 -0.12270420140E+02  0.45752480648E+02  0.50187412627E+02  0.00000000000E+00 0.  1.
        -13    1    4    4    0    0  0.13463024905E+03  0.20275832240E+02 -0.21082116916E+03  0.25096210610E+03  0.00000000000E+00 0. -1.
         13    1    4    4    0    0  0.65959954118E+02  0.18823477745E+02 -0.19040676406E+02  0.71186980690E+02  0.00000000000E+00 0.  1.
          2    1    1    2  501    0 -0.14233042280E+03 -0.65408723847E+02 -0.25829288820E+03  0.30207857671E+03  0.00000000000E+00 0. -1.
<scales pt_clust_5="13000.00000" pt_clust_6="13000.00000" pt_clust_7="13000.00000" pt_clust_8="13000.00000" pt_clust_9="179.42674"></scales>
<clustering>
<clus scale="   84.689">  5  6 -1 -1</clus>
<clus scale="   95.804">  7  8 -1 -1</clus>
<clus scale="  106.107">  2  5  1 -1</clus>
<clus scale="  179.427">  1  9  2 -1</clus>
<clus scale="  179.427">  1  5  2 -1</clus>
</clustering>
</event>
<event>
 9    1  0.7586638E-005  0.1233516E+03  0.7546771E-02  0.1240462E+00
         21   -1    0    0  501  502  0.00000000000E+00  0.00000000000E+00  0.13392968094E+03  0.13392968094E+03  0.00000000000E+00 0. -1.
         -2   -1    0    0    0  501 -0.00000000000E+00 -0.00000000000E+00 -0.42102991048E+03  0.42102991048E+03  0.00000000000E+00 0.  1.
         23    2    1    2    0    0  0.85482492961E+02  0.20412728615E+02 -0.12817971594E+03  0.18003727771E+03  0.90881492594E+02 0.  0.
        -24    2    1    2    0    0 -0.38275210278E+02 -0.90625696735E+02  0.59369104847E+02  0.14080963580E+03  0.81391979301E+02 0.  0.
         11    1    4    4    0    0 -0.53155118635E+02 -0.53695453109E+02  0.66149417635E+02  0.10042118190E+03  0.00000000000E+00 0. -1.
        -12    1    4    4    0    0  0.14879908357E+02 -0.36930243625E+02 -0.67803127876E+01  0.40388453900E+02  0.00000000000E+00 0.  1.
        -11    1    3    3    0    0  0.96588142078E+02 -0.41526648219E+01 -0.82967087134E+02  0.12739721882E+03  0.00000000000E+00 0.  1.
         11    1    3    3    0    0 -0.11105649118E+02  0.24565393437E+02 -0.45212628803E+02  0.52640058894E+02  0.00000000000E+00 0. -1.
         -1    1    1    2    0  502 -0.47207282683E+02  0.70212968119E+02 -0.21828961845E+03  0.23411267790E+03  0.00000000000E+00 0.  1.
<scales pt_clust_5="13000.00000" pt_clust_6="13000.00000" pt_clust_7="13000.00000" pt_clust_8="13000.00000" pt_clust_9="84.60730"></scales>
<clustering>
<clus scale="   81.392">  5  6 -1 -1</clus>
<clus scale="   84.607">  1  9  2 -1</clus>
<clus scale="   90.881">  7  8 -1 -1</clus>
<clus scale="  116.537">  1  5  2 -1</clus>
<clus scale="   84.607">  1  5  2 -1</clus>
</clustering>
</event>
<event>
 9    1  0.7586638E-005  0.1146541E+03  0.7546771E-02  0.1256931E+00
          3   -1    0    0  502    0 -0.00000000000E+00  0.00000000000E+00  0.89572802684E+02  0.89572802684E+02  0.00000000000E+00 0. -1.
         21   -1    0    0  501  502  0.00000000000E+00 -0.00000000000E+00 -0.29458516358E+03  0.29458516358E+03  0.00000000000E+00 0.  1.
         23    2    1    2    0    0 -0.78428778279E+02 -0.32051156197E+02 -0.89172404775E+02  0.15340564594E+03  0.91669103609E+02 0.  0.
        -24    2    1    2    0    0  0.36660894679E+02  0.33441446965E+02 -0.15026559272E+03  0.17660794422E+03  0.78410879553E+02 0.  0.
         13    1    4    4    0    0  0.94906291553E+01 -0.17791482243E+02 -0.92803488042E+02  0.94968922680E+02  0.00000000000E+00 0. -1.
        -14    1    4    4    0    0  0.27170265524E+02  0.51232929209E+02 -0.57462104675E+02  0.81639021538E+02  0.00000000000E+00 0.  1.
        -13    1    3    3    0    0 -0.86617504115E+02 -0.51169216433E+02 -0.58586557872E+02  0.11641849292E+03  0.00000000000E+00 0.  1.
         13    1    3    3    0    0  0.81887258351E+01  0.19118060236E+02 -0.30585846903E+02  0.36987153023E+02  0.00000000000E+00 0. -1.
          4    1    1    2  501    0  0.41767883601E+02 -0.13902907679E+01  0.34425636598E+02  0.54144376107E+02  0.00000000000E+00 0. -1.
<scales pt_clust_5="13000.00000" pt_clust_6="13000.00000" pt_clust_7="13000.00000" pt_clust_8="13000.00000" pt_clust_9="41.79104"></scales>
<clustering>
<clus scale="   41.791">  2  9  1 -1</clus>
<clus scale="   78.411">  5  6 -1 -1</clus>
<clus scale="   91.669">  7  8 -1 -1</clus>
<clus scale="  104.358">  2  5  1 -1</clus>
<clus scale="   41.791">  2  5  1 -1</clus>
</clustering>
</event>
<event>
 9    1  0.7586638E-005  0.1604272E+03  0.7546771E-02  0.1190488E+00
         21   -1    0    0  501  502  0.00000000000E+00  0.00000000000E+00  0.48391813267E+03  0.48391813267E+03  0.00000000000E+00 0. -1.
          1   -1    0    0  502    0 -0.00000000000E+00 -0.00000000000E+00 -0.26604747959E+03  0.26604747959E+03  0.00000000000E+00 0. -1.
         23    2    1    2    0    0 -0.11733332586E+03  0.57608018302E+02 -0.21537267588E+03  0.26890670212E+03  0.94019316094E+02 0.  0.
        -24    2    1    2    0    0  0.94729575807E+02 -0.85439591265E+02  0.23128547127E+03  0.27594308372E+03  0.79862381277E+02 0.  0.
         13    1    4    4    0    0  0.23175464750E+01 -0.34140737358E+02  0.19847260032E+02  0.39558497188E+02  0.00000000000E+00 0. -1.
        -14    1    4    4    0    0  0.92412029332E+02 -0.51298853906E+02  0.21143821124E+03  0.23638458653E+03  0.00000000000E+00 0.  1.
        -13    1    3    3    0    0 -0.72501357115E+02  0.44468457254E+01 -0.46423897449E+02  0.86205565219E+02  0.00000000000E+00 0.  1.
         13    1    3    3    0    0 -0.44831968746E+02  0.53161172576E+02 -0.16894877843E+03  0.18270113690E+03  0.00000000000E+00 0. -1.
          2    1    1    2  501    0  0.22603750054E+02  0.27831572963E+02  0.20195785769E+03  0.20511582643E+03  0.00000000000E+00 0. -1.
<scales pt_clust_5="13000.00000" pt_clust_6="13000.00000" pt_clust_7="13000.00000" pt_clust_8="13000.00000" pt_clust_9="35.85423"></scales>
<clustering>
<clus scale="   35.854">  1  9  2 -1</clus>
<clus scale="   79.862">  5  6 -1 -1</clus>
<clus scale="   94.019">  7  8 -1 -1</clus>
<clus scale="  152.562">  1  5  2 -1</clus>
<clus scale="   35.854">  1  5  2 -1</clus>
</clustering>
</event>
<event>
 9    1  0.7586638E-005  0.1130649E+03  0.7546771E-02  0.1259344E+00
         21   -1    0    0  501  502  0.00000000000E+00  0.00000000000E+00  0.34676398997E+03  0.34676398997E+03  0.00000000000E+00 0.  1.
          1   -1    0    0  502    0 -0.00000000000E+00 -0.00000000000E+00 -0.86642734874E+02  0.86642734874E+02  0.00000000000E+00 0. -1.
        -24    2    1    2    0    0 -0.67694781048E+02 -0.71764531425E+01 -0.15126422424E+02  0.10702942557E+03  0.81193623038E+02 0.  0.
         23    2    1    2    0    0  0.40780859841E+02  0.20686124398E+02  0.27752676706E+03  0.29617689164E+03  0.92782813244E+02 0.  0.
         11    1    3    3    0    0 -0.42445624102E+02 -0.33557696580E+02 -0.35978309774E+02  0.64978371627E+02  0.00000000000E+00 0. -1.
        -12    1    3    3    0    0 -0.25249156946E+02  0.26381243437E+02  0.20851887350E+02  0.42051053945E+02  0.00000000000E+00 0.  1.
        -11    1    4    4    0    0  0.92037658654E+00  0.50875928647E+02  0.10722597104E+03  0.11868705099E+03  0.00000000000E+00 0.  1.
         11    1    4    4    0    0  0.39860483255E+02 -0.30189804249E+02  0.17030079602E+03  0.17748984064E+03  0.00000000000E+00 0. -1.
          2    1    1    2  501    0  0.26913921207E+02 -0.13509671255E+02 -0.22790895402E+01  0.30200407634E+02  0.00000000000E+00 0. -1.
<scales pt_clust_5="13000.00000" pt_clust_6="13000.00000" pt_clust_7="13000.00000" pt_clust_8="13000.00000" pt_clust_9="30.11430"></scales>
<clustering>
<clus scale="   30.114">  1  9  2 -1</clus>
<clus scale="   81.194">  5  6 -1 -1</clus>
<clus scale="   92.783">  7  8 -1 -1</clus>
<clus scale="  103.766">  2  5  1 -1</clus>
<clus scale="   30.114">  1  5  2 -1</clus>
</clustering>
</event>
<event>
 9    1  0.7586638E-005  0.1642193E+03  0.7546771E-02  0.1201966E+00
         21   -1    0    0  501  502  0.00000000000E+00  0.00000000000E+00  0.40641858715E+03  0.40641858715E+03  0.00000000000E+00 0. -1.
         -2   -1    0    0    0  501 -0.00000000000E+00 -0.00000000000E+00 -0.15073376388E+03  0.15073376388E+03  0.00000000000E+00 0.  1.
        -24    2    1    2    0    0 -0.76862821865E+02 -0.95980180225E+01  0.18003301760E+03  0.21133012897E+03  0.79047584725E+02 0.  0.
         23    2    1    2    0    0  0.11500415164E+03 -0.10340590526E+03  0.12429401362E+03  0.21701728384E+03  0.87913386496E+02 0.  0.
         11    1    3    3    0    0 -0.45900406703E+02  0.14830156609E+02  0.15996454999E+03  0.16707913734E+03  0.00000000000E+00 0. -1.
        -12    1    3    3    0    0 -0.30962415162E+02 -0.24428174631E+02  0.20068467611E+02  0.44250991636E+02  0.00000000000E+00 0.  1.
        -13    1    4    4    0    0  0.96750256096E+02 -0.92936367436E+02  0.13755549974E+03  0.19214394593E+03  0.00000000000E+00 0.  1.
         13    1    4    4    0    0  0.18253895542E+02 -0.10469537828E+02 -0.13261486120E+02  0.24873337912E+02  0.00000000000E+00 0. -1.
         -1    1    1    2    0  502 -0.38141329772E+02  0.11300392329E+03 -0.48642207955E+02  0.12880493822E+03  0.00000000000E+00 0.  1.
<scales pt_clust_5="13000.00000" pt_clust_6="13000.00000" pt_clust_7="13000.00000" pt_clust_8="13000.00000" pt_clust_9="138.70553"></scales>
<clustering>
<clus scale="   79.048">  5  6 -1 -1</clus>
<clus scale="   87.913">  7  8 -1 -1</clus>
<clus scale="  110.673">  2  5  1 -1</clus>
<clus scale="  138.706">  1  9  2 -1</clus>
<clus scale="  138.706">  1  5  2 -1</clus>
</clustering>
</event>
<event>
 9    1  0.7586638E-005  0.1465582E+03  0.7546771E-02  0.1208624E+00
         21   -1    0    0  501  502  0.00000000000E+00  0.00000000000E+00  0.18608270182E+03  0.18608270182E+03  0.00000000000E+00 0.  1.
         -2   -1    0    0    0  501 -0.00000000000E+00 -0.00000000000E+00 -0.16633422232E+03  0.16633422232E+03  0.00000000000E+00 0.  1.
        -24    2    1    2    0    0 -0.85812971466E+02  0.65788121647E+02 -0.34661417572E+02  0.13914164200E+03  0.80417906271E+02 0.  0.
         23    2    1    2    0    0  0.11302250910E+03 -0.25637233474E+02  0.61623061839E+02  0.16423975925E+03  0.98721534958E+02 0.  0.
         13    1    3    3    0    0 -0.12234845075E+02 -0.18411853684E+02 -0.11618576764E+02  0.24973568350E+02  0.00000000000E+00 0. -1.
        -14    1    3    3    0    0 -0.73578126391E+02  0.84199975330E+02 -0.23042840808E+02  0.11416807365E+03  0.00000000000E+00 0.  1.
        -11    1    4    4    0    0  0.83216043835E+02 -0.18870182438E+01 -0.92696812869E+01  0.83752001651E+02  0.00000000000E+00 0. -1.
         11    1    4    4    0    0  0.29806465262E+02 -0.23750215230E+02  0.70892743126E+02  0.80487757596E+02  0.00000000000E+00 0.  1.
         -1    1    1    2    0  502 -0.27209537631E+02 -0.40150888172E+02 -0.72131647658E+01  0.49035522890E+02  0.00000000000E+00 0.  1.
<scales pt_clust_5="13000.00000" pt_clust_6="13000.00000" pt_clust_7="13000.00000" pt_clust_8="13000.00000" pt_clust_9="48.50211"></scales>
<clustering>
<clus scale="   48.502">  1  9  2 -1</clus>
<clus scale="   80.418">  5  6 -1 -1</clus>
<clus scale="   98.722">  7  8 -1 -1</clus>
<clus scale="  134.909">  2  5  1 -1</clus>
<clus scale="   48.502">  1  5  2 -1</clus>
</clustering>
</event>
<event>
 9    1  0.7586638E-005  0.1109198E+03  0.7546771E-02  0.1267937E+00
         21   -1    0    0  501  502  0.00000000000E+00  0.00000000000E+00  0.30563035208E+03  0.30563035208E+03  0.00000000000E+00 0.  1.
          3   -1    0    0  502    0 -0.00000000000E+00 -0.00000000000E+00 -0.10653025757E+03  0.10653025757E+03  0.00000000000E+00 0. -1.
         23    2    1    2    0    0  0.14497504039E+01 -0.43623691569E+02 -0.54310754710E+02  0.12357792251E+03  0.10206231730E+03 0.  0.
        -24    2    1    2    0    0 -0.28120040094E+02  0.40016960991E+02  0.12491437961E+03  0.15729805147E+03  0.82140008166E+02 0.  0.
         11    1    4    4    0    0 -0.10987237206E+02 -0.17308518142E+02  0.20043809139E+01  0.20599070963E+02  0.00000000000E+00 0. -1.
        -12    1    4    4    0    0 -0.17132802888E+02  0.57325479133E+02  0.12290999869E+03  0.13669898051E+03  0.00000000000E+00 0.  1.
        -13    1    3    3    0    0  0.50852595545E+02 -0.15842629489E+02 -0.34851546005E+02  0.63652224170E+02  0.00000000000E+00 0.  1.
         13    1    3    3    0    0 -0.49402845142E+02 -0.27781062080E+02 -0.19459208705E+02  0.59925698342E+02  0.00000000000E+00 0. -1.
          4    1    1    2  501    0  0.26670289690E+02  0.36067305776E+01  0.12849646961E+03  0.13128463566E+03  0.00000000000E+00 0. -1.
<scales pt_clust_5="13000.00000" pt_clust_6="13000.00000" pt_clust_7="13000.00000" pt_clust_8="13000.00000" pt_clust_9="26.91306"></scales>
<clustering>
<clus scale="   26.913">  1  9  2 -1</clus>
<clus scale="   82.140">  5  6 -1 -1</clus>
<clus scale="   92.916">  1  5  2 -1</clus>
<clus scale="  102.062">  7  8 -1 -1</clus>
<clus scale="   26.913">  1  5  2 -1</clus>
</clustering>
</event>
<event>
 9    1  0.7586638E-005  0.9556113E+02  0.7546771E-02  0.1297498E+00
         -2   -1    0    0    0  501 -0.00000000000E+00  0.00000000000E+00  0.23824820341E+03  0.23824820341E+03  0.00000000000E+00 0.  1.
         21   -1    0    0  501  502  0.00000000000E+00 -0.00000000000E+00 -0.68331650387E+02  0.68331650387E+02  0.00000000000E+00 0.  1.
        -24    2    1    2    0    0 -0.16223524634E+02  0.22703235876E+02  0.11270136416E+03  0.13948837936E+03  0.77309577813E+02 0.  0.
         23    2    1    2    0    0 -0.66525623450E+01 -0.47419645526E+02  0.21803555021E+01  0.10256977929E+03  0.90680352373E+02 0.  0.
         11    1    3    3    0    0  0.80833431764E+01 -0.25817237211E+02  0.47438032695E+02  0.54609862846E+02  0.00000000000E+00 0. -1.
        -12    1    3    3    0    0 -0.24306867811E+02  0.48520473087E+02  0.65263331463E+02  0.84878516510E+02  0.00000000000E+00 0.  1.
        -11    1    4    4    0    0 -0.39996799013E+02 -0.34383388980E+02 -0.24266598836E+02  0.58058842463E+02  0.00000000000E+00 0.  1.
         11    1    4    4    0    0  0.33344236668E+02 -0.13036256546E+02  0.26446954338E+02  0.44510936830E+02  0.00000000000E+00 0. -1.
         -1    1    1    2    0  502  0.22876086979E+02  0.24716409650E+02  0.55034833363E+02  0.64521695148E+02  0.00000000000E+00 0.  1.
<scales pt_clust_5="13000.00000" pt_clust_6="13000.00000" pt_clust_7="13000.00000" pt_clust_8="13000.00000" pt_clust_9="33.67814"></scales>
<clustering>
<clus scale="   33.678">  2  9  1 -1</clus>
<clus scale="   77.310">  5  6 -1 -1</clus>
<clus scale="   82.981">  1  5  2 -1</clus>
<clus scale="   90.680">  7  8 -1 -1</clus>
<clus scale="   33.678">  2  5  1 -1</clus>
</clustering>
</event>
<event>
 9    1  0.7586638E-005  0.2784835E+03  0.7546771E-02  0.1096978E+00
         21   -1    0    0  501  502  0.00000000000E+00  0.00000000000E+00  0.13365902919E+03  0.13365902919E+03  0.00000000000E+00 0. -1.
          1   -1    0    0  502    0 -0.00000000000E+00 -0.00000000000E+00 -0.74169599242E+03  0.74169599242E+03  0.00000000000E+00 0. -1.
        -24    2    1    2    0    0  0.23271141032E+03  0.12499492656E+03 -0.42551725693E+03  0.50746740407E+03  0.81730643526E+02 0.  0.
         23    2    1    2    0    0 -0.20960518487E+03 -0.15697718636E+03 -0.14408082888E+03  0.31280304717E+03  0.92251235790E+02 0.  0.
         13    1    3    3    0    0  0.22488859767E+03  0.13332166401E+03 -0.42013922056E+03  0.49483988533E+03  0.00000000000E+00 0. -1.
        -14    1    3    3    0    0  0.78228126420E+01 -0.83267374559E+01 -0.53780363641E+01  0.12627518736E+02  0.00000000000E+00 0.  1.
        -11    1    4    4    0    0 -0.12340356651E+03 -0.90745859915E+02 -0.31650614582E+02  0.15641295574E+03  0.00000000000E+00 0. -1.
         11    1    4    4    0    0 -0.86201618366E+02 -0.66231326441E+02 -0.11243021430E+03  0.15639009143E+03  0.00000000000E+00 0.  1.
          2    1    1    2  501    0 -0.23106225442E+02  0.31982259799E+02 -0.38438877422E+02  0.55084570376E+02  0.00000000000E+00 0. -1.
<scales pt_clust_5="13000.00000" pt_clust_6="13000.00000" pt_clust_7="13000.00000" pt_clust_8="13000.00000" pt_clust_9="39.45585"></scales>
<clustering>
<clus scale="   39.456">  1  9  2 -1</clus>
<clus scale="   81.731">  5  6 -1 -1</clus>
<clus scale="   92.251">  7  8 -1 -1</clus>
<clus scale="  275.178">  2  5  1 -1</clus>
<clus scale="   39.456">  1  5  2 -1</clus>
</clustering>
</event>
<event>
 9    1  0.7586638E-005  0.2692872E+03  0.7546771E-02  0.1102253E+00
          1   -1    0    0  502    0 -0.00000000000E+00  0.00000000000E+00  0.36854074143E+03  0.36854074143E+03  0.00000000000E+00 0. -1.
         21   -1    0    0  501  502  0.00000000000E+00 -0.00000000000E+00 -0.33089822412E+03  0.33089822412E+03  0.00000000000E+00 0. -1.
         23    2    1    2    0    0 -0.16202291275E+03  0.27650658750E+03  0.11476442653E+03  0.35251183270E+03  0.91577297455E+02 0.  0.
        -24    2    1    2    0    0  0.87681427589E+02 -0.16440181841E+03 -0.31907609843E+02  0.20501706085E+03  0.79359366376E+02 0.  0.
         13    1    4    4    0    0  0.39810527811E+02 -0.37454876059E+02  0.22141378299E+02  0.58974456320E+02  0.00000000000E+00 0. -1.
        -14    1    4    4    0    0  0.47870899778E+02 -0.12694694235E+03 -0.54048988142E+02  0.14604260453E+03  0.00000000000E+00 0.  1.
        -11    1    3    3    0    0  0.17089046096E+01  0.56968148530E+02  0.41445175138E+01  0.57144267669E+02  0.00000000000E+00 0.  1.
         11    1    3    3    0    0 -0.16373181736E+03  0.21953843897E+03  0.11061990902E+03  0.29536756503E+03  0.00000000000E+00 0. -1.
          2    1    1    2  501    0  0.74341485161E+02 -0.11210476908E+03 -0.45214299385E+02  0.14191007200E+03  0.00000000000E+00 0. -1.
<scales pt_clust_5="13000.00000" pt_clust_6="13000.00000" pt_clust_7="13000.00000" pt_clust_8="13000.00000" pt_clust_9="134.51444"></scales>
<clustering>
<clus scale="   79.359">  5  6 -1 -1</clus>
<clus scale="   91.577">  7  8 -1 -1</clus>
<clus scale="  134.514">  2  9  1 -1</clus>
<clus scale="  265.381">  2  5  1 -1</clus>
<clus scale="  134.514">  2  5  1 -1</clus>
</clustering>
</event>
<event>
 9    1  0.7586638E-005  0.9814753E+02  0.7546771E-02  0.1286861E+00
         21   -1    0    0  501  502  0.00000000000E+00  0.00000000000E+00  0.18255859647E+02  0.18255859647E+02  0.00000000000E+00 0. -1.
          1   -1    0    0  502    0 -0.00000000000E+00 -0.00000000000E+00 -0.11922352534E+04  0.11922352534E+04  0.00000000000E+00 0. -1.
        -24    2    1    2    0    0  0.20287320100E+02 -0.15310622756E+01 -0.37556248512E+03  0.38596618232E+03  0.86653298619E+02 0.  0.
         23    2    1    2    0    0 -0.13908371176E+02 -0.80510118882E+02 -0.44405589702E+03  0.46073491856E+03  0.91737143357E+02 0.  0.
         13    1    3    3    0    0  0.50491874885E+02 -0.95713902327E+01 -0.29701536218E+03  0.30142854263E+03  0.00000000000E+00 0. -1.
        -14    1    3    3    0    0 -0.30204554785E+02  0.80403279571E+01 -0.78547122933E+02  0.84537639691E+02  0.00000000000E+00 0.  1.
        -13    1    4    4    0    0  0.19778537147E+02 -0.66260944034E+02 -0.38580131211E+03  0.39194942998E+03  0.00000000000E+00 0.  1.
         13    1    4    4    0    0 -0.33686908323E+02 -0.14249174848E+02 -0.58254584911E+02  0.68785488581E+02  0.00000000000E+00 0. -1.
          2    1    1    2  501    0 -0.63789489247E+01  0.82041181158E+02 -0.35436101157E+03  0.36379001212E+03  0.00000000000E+00 0. -1.
<scales pt_clust_5="13000.00000" pt_clust_6="13000.00000" pt_clust_7="13000.00000" pt_clust_8="13000.00000" pt_clust_9="82.28884"></scales>
<clustering>
<clus scale="   82.289">  1  9  2 -1</clus>
<clus scale="   86.653">  5  6 -1 -1</clus>
<clus scale="   91.737">  7  8 -1 -1</clus>
<clus scale="   93.413">  2  5  1 -1</clus>
<clus scale="   82.289">  1  5  2 -1</clus>
</clustering>
</event>
<event>
 9    1  0.7586638E-005  0.9543562E+02  0.7546771E-02  0.1298831E+00
         -4   -1    0    0    0  501 -0.00000000000E+00  0.00000000000E+00  0.85174177575E+02  0.85174177575E+02  0.00000000000E+00 0.  1.
         21   -1    0    0  501  502  0.00000000000E+00 -0.00000000000E+00 -0.20365975431E+03  0.20365975431E+03  0.00000000000E+00 0.  1.
         23    2    1    2    0    0 -0.16014005328E+02  0.16787614103E+02  0.30634385797E+02  0.10145456819E+03  0.93895108817E+02 0.  0.
        -24    2    1    2    0    0 -0.21234353014E+01  0.74597900646E+01 -0.12647094614E+03  0.14956559233E+03  0.79465770900E+02 0.  0.
         11    1    4    4    0    0 -0.17048581526E+02 -0.27964731972E+02 -0.25447871066E+02  0.41476192064E+02  0.00000000000E+00 0. -1.
        -12    1    4    4    0    0  0.14925146224E+02  0.35424522037E+02 -0.10102307508E+03  0.10808940026E+03  0.00000000000E+00 0.  1.
        -11    1    3    3    0    0  0.22458619524E+02 -0.28489450603E+02  0.45343616313E+01  0.36559524368E+02  0.00000000000E+00 0. -1.
         11    1    3    3    0    0 -0.38472624851E+02  0.45277064706E+02  0.26100024166E+02  0.64895043824E+02  0.00000000000E+00 0.  1.
         -3    1    1    2    0  502  0.18137440629E+02 -0.24247404168E+02 -0.22649016386E+02  0.37813771363E+02  0.00000000000E+00 0.  1.
<scales pt_clust_5="13000.00000" pt_clust_6="13000.00000" pt_clust_7="13000.00000" pt_clust_8="13000.00000" pt_clust_9="30.28041"></scales>
<clustering>
<clus scale="   30.280">  2  9  1 -1</clus>
<clus scale="   79.466">  5  6 -1 -1</clus>
<clus scale="   81.280">  2  5  1 -1</clus>
<clus scale="   93.895">  7  8 -1 -1</clus>
<clus scale="   30.280">  2  5  1 -1</clus>
</clustering>
</event>
<event>
 9    1  0.7586638E-005  0.1189052E+03  0.7546771E-02  0.1249028E+00
         21   -1    0    0  501  502  0.00000000000E+00  0.00000000000E+00  0.72387636462E+03  0.72387636462E+03  0.00000000000E+00 0.  1.
         -2   -1    0    0    0  501 -0.00000000000E+00 -0.00000000000E+00 -0.46527847519E+02  0.46527847519E+02  0.00000000000E+00 0.  1.
         23    2    1    2    0    0 -0.69729600075E+02 -0.34164315785E+02  0.66737624751E+02  0.13870827385E+03  0.93577011486E+02 0.  0.
        -24    2    1    2    0    0  0.30549675624E+02  0.50142503747E+02  0.54117703106E+03  0.55038523748E+03  0.81263628607E+02 0.  0.
         11    1    4    4    0    0  0.57475676180E+02  0.23093208896E+02  0.34920366309E+03  0.35465468834E+03  0.00000000000E+00 0. -1.
        -12    1    4    4    0    0 -0.26926000556E+02  0.27049294851E+02  0.19197336797E+03  0.19573054914E+03  0.00000000000E+00 0.  1.
        -11    1    3    3    0    0 -0.76516612600E+02 -0.79097485455E+01  0.12315159136E+02  0.77903910495E+02  0.00000000000E+00 0.  1.
         11    1    3    3    0    0  0.67870125248E+01 -0.26254567239E+02  0.54422465616E+02  0.60804363360E+02  0.00000000000E+00 0. -1.
         -1    1    1    2    0  502  0.39179924451E+02 -0.15978187963E+02  0.69433861295E+02  0.81310700802E+02  0.00000000000E+00 0.  1.
<scales pt_clust_5="13000.00000" pt_clust_6="13000.00000" pt_clust_7="13000.00000" pt_clust_8="13000.00000" pt_clust_9="42.31277"></scales>
<clustering>
<clus scale="   42.313">  1  9  2 -1</clus>
<clus scale="   81.264">  5  6 -1 -1</clus>
<clus scale="   93.577">  7  8 -1 -1</clus>
<clus scale="  109.479">  1  5  2 -1</clus>
<clus scale="   42.313">  1  5  2 -1</clus>
</clustering>
</event>
<event>
 9    1  0.7586638E-005  0.1183417E+03  0.7546771E-02  0.1249724E+00
          1   -1    0    0  502    0 -0.00000000000E+00  0.00000000000E+00  0.12886790513E+03  0.12886790513E+03  0.00000000000E+00 0. -1.
         21   -1    0    0  501  502  0.00000000000E+00 -0.00000000000E+00 -0.16181144959E+03  0.16181144959E+03  0.00000000000E+00 0.  1.
        -24    2    1    2    0    0 -0.68371454782E+02 -0.24819008033E+01  0.53913673969E+01  0.10535414939E+03  0.79935062961E+02 0.  0.
         23    2    1    2    0    0  0.88573722040E+02  0.83827835867E+01 -0.71244581622E+02  0.14626117605E+03  0.91656783229E+02 0.  0.
         13    1    3    3    0    0 -0.84168065196E+02  0.62676893296E+01  0.13649227379E+02  0.85497652228E+02  0.00000000000E+00 0. -1.
        -14    1    3    3    0    0  0.15796610414E+02 -0.87495901329E+01 -0.82578599823E+01  0.19856497162E+02  0.00000000000E+00 0.  1.
        -13    1    4    4    0    0  0.79751813883E+02  0.42684211398E+02 -0.39518831446E+02  0.98711862302E+02  0.00000000000E+00 0.  1.
         13    1    4    4    0    0  0.88219081563E+01 -0.34301427811E+02 -0.31725750176E+02  0.47549313746E+02  0.00000000000E+00 0. -1.
          2    1    1    2  501    0 -0.20202267258E+02 -0.59008827834E+01  0.32909669767E+02  0.39064029287E+02  0.00000000000E+00 0. -1.
<scales pt_clust_5="13000.00000" pt_clust_6="13000.00000" pt_clust_7="13000.00000" pt_clust_8="13000.00000" pt_clust_9="21.04644"></scales>
<clustering>
<clus scale="   21.046">  2  9  1 -1</clus>
<clus scale="   79.935">  5  6 -1 -1</clus>
<clus scale="   91.657">  7  8 -1 -1</clus>
<clus scale="  109.514">  1  5  2 -1</clus>
<clus scale="   21.046">  2  5  1 -1</clus>
</clustering>
</event>
<event>
 9    1  0.7586638E-005  0.1129877E+03  0.7546771E-02  0.1266630E+00
         21   -1    0    0  501  502  0.00000000000E+00  0.00000000000E+00  0.14970968907E+03  0.14970968907E+03  0.00000000000E+00 0.  1.
          1   -1    0    0  502    0 -0.00000000000E+00 -0.00000000000E+00 -0.19337110026E+03  0.19337110026E+03  0.00000000000E+00 0. -1.
        -24    2    1    2    0    0  0.26168923198E+02 -0.27673628577E+02 -0.13869045608E+03  0.16476479055E+03  0.80385019358E+02 0.  0.
         23    2    1    2    0    0 -0.37102010183E+02  0.50380724781E+02  0.63659795599E+02  0.13807703246E+03  0.10534666928E+03 0.  0.
         13    1    3    3    0    0 -0.18745864169E+02 -0.37278878771E+02 -0.80103786434E+02  0.90320201654E+02  0.00000000000E+00 0. -1.
        -14    1    3    3    0    0  0.44914787367E+02  0.96052501943E+01 -0.58586669647E+02  0.74444588896E+02  0.00000000000E+00 0.  1.
        -13    1    4    4    0    0 -0.65327866708E+02  0.58953492417E+02  0.29196616013E+02  0.92712926949E+02  0.00000000000E+00 0.  1.
         13    1    4    4    0    0  0.28225856525E+02 -0.85727676362E+01  0.34463179586E+02  0.45364105509E+02  0.00000000000E+00 0. -1.
          2    1    1    2  501    0  0.10933086985E+02 -0.22707096204E+02  0.31369249291E+02  0.40238966315E+02  0.00000000000E+00 0. -1.
<scales pt_clust_5="13000.00000" pt_clust_6="13000.00000" pt_clust_7="13000.00000" pt_clust_8="13000.00000" pt_clust_9="25.20208"></scales>
<clustering>
<clus scale="   25.202">  1  9  2 -1</clus>
<clus scale="   80.385">  5  6 -1 -1</clus>
<clus scale="   90.167">  2  5  1 -1</clus>
<clus scale="  105.347">  7  8 -1 -1</clus>
<clus scale="   25.202">  1  5  2 -1</clus>
</clustering>
</event>
<event>
 9    1  0.7586638E-005  0.1285298E+03  0.7546771E-02  0.1252345E+00
          3   -1    0    0  502    0 -0.00000000000E+00  0.00000000000E+00  0.16289144663E+03  0.16289144663E+03  0.00000000000E+00 0. -1.
         21   -1    0    0  501  502  0.00000000000E+00 -0.00000000000E+00 -0.20473487266E+03  0.20473487266E+03  0.00000000000E+00 0. -1.
        -24    2    1    2    0    0  0.15356265458E+02  0.17338523929E+01  0.78082644960E+02  0.11259989822E+03  0.79643056842E+02 0.  0.
         23    2    1    2    0    0  0.75864438515E+02 -0.30020224837E+02 -0.34236868704E+02  0.12671439868E+03  0.90706938674E+02 0.  0.
         13    1    3    3    0    0  0.26439806412E+02 -0.15102212533E+02  0.85779587688E+02  0.91023501638E+02  0.00000000000E+00 0. -1.
        -14    1    3    3    0    0 -0.11083540954E+02  0.16836064926E+02 -0.76969427279E+01  0.21576396586E+02  0.00000000000E+00 0.  1.
        -11    1    4    4    0    0  0.41771535758E+02 -0.55729195090E+02 -0.44692877323E+02  0.82752991899E+02  0.00000000000E+00 0. -1.
         11    1    4    4    0    0  0.34092902757E+02  0.25708970253E+02  0.10456008619E+02  0.43961406780E+02  0.00000000000E+00 0.  1.
          4    1    1    2  501    0 -0.91220703973E+02  0.28286372444E+02 -0.85689202283E+02  0.12831202238E+03  0.00000000000E+00 0. -1.
<scales pt_clust_5="13000.00000" pt_clust_6="13000.00000" pt_clust_7="13000.00000" pt_clust_8="13000.00000" pt_clust_9="91.06135"></scales>
<clustering>
<clus scale="   79.643">  5  6 -1 -1</clus>
<clus scale="   81.129">  1  5  2 -1</clus>
<clus scale="   90.707">  7  8 -1 -1</clus>
<clus scale="   91.061">  2  9  1 -1</clus>
<clus scale="   91.061">  2  5  1 -1</clus>
</clustering>
</event>
<event>
 9    1  0.7586638E-005  0.1516261E+03  0.7546771E-02  0.1200171E+00
          1   -1    0    0  502    0 -0.00000000000E+00  0.00000000000E+00  0.83753800467E+03  0.83753800467E+03  0.00000000000E+00 0. -1.
         21   -1    0    0  501  502  0.00000000000E+00 -0.00000000000E+00 -0.66638288062E+02  0.66638288062E+02  0.00000000000E+00 0. -1.
        -24    2    1    2    0    0  0.10777168044E+03  0.13594531109E+02  0.26595706319E+03  0.29757150994E+03  0.77563507462E+02 0.  0.
         23    2    1    2    0    0 -0.14760072445E+03 -0.10100449293E+03  0.18214859227E+03  0.26982167739E+03  0.87394201588E+02 0.  0.
         13    1    3    3    0    0  0.27492860853E+02 -0.21476960931E+02  0.13907566848E+03  0.14338465333E+03  0.00000000000E+00 0. -1.
        -14    1    3    3    0    0  0.80278819586E+02  0.35071492040E+02  0.12688139471E+03  0.15418685661E+03  0.00000000000E+00 0.  1.
        -13    1    4    4    0    0 -0.65902995315E+02 -0.48117152373E+02  0.14355679817E+03  0.16512728256E+03  0.00000000000E+00 0.  1.
         13    1    4    4    0    0 -0.81697729133E+02 -0.52887340557E+02  0.38591794104E+02  0.10469439483E+03  0.00000000000E+00 0. -1.
          2    1    1    2  501    0  0.39829044009E+02  0.87409961821E+02  0.32279406115E+03  0.33678310541E+03  0.00000000000E+00 0. -1.
<scales pt_clust_5="13000.00000" pt_clust_6="13000.00000" pt_clust_7="13000.00000" pt_clust_8="13000.00000" pt_clust_9="96.05656"></scales>
<clustering>
<clus scale="   77.564">  5  6 -1 -1</clus>
<clus scale="   87.394">  7  8 -1 -1</clus>
<clus scale="   96.057">  2  9  1 -1</clus>
<clus scale="  146.181">  1  5  2 -1</clus>
<clus scale="   96.057">  2  5  1 -1</clus>
</clustering>
</event>
<event>
 9    1  0.7586638E-005  0.1233388E+03  0.7546771E-02  0.1238160E+00
          1   -1    0    0  502    0 -0.00000000000E+00  0.00000000000E+00  0.50147849339E+03  0.50147849339E+03  0.00000000000E+00 0. -1.
         21   -1    0    0  501  502  0.00000000000E+00 -0.00000000000E+00 -0.98770189397E+02  0.98770189397E+02  0.00000000000E+00 0. -1.
         23    2    1    2    0    0  0.75730601532E+02  0.82218613792E+02  0.30816171212E+03  0.34011068880E+03  0.90645547934E+02 0.  0.
        -24    2    1    2    0    0  0.36314694408E+02 -0.64458841989E+02  0.89949962976E+02  0.14660083340E+03  0.89034314589E+02 0.  0.
         11    1    4    4    0    0  0.63887839006E+02 -0.34124319185E+02  0.42834401445E+02  0.84148149592E+02  0.00000000000E+00 0. -1.
        -12    1    4    4    0    0 -0.27573144597E+02 -0.30334522804E+02  0.47115561530E+02  0.62452683810E+02  0.00000000000E+00 0.  1.
        -13    1    3    3    0    0  0.68252589377E+02  0.94977547466E+01  0.17718555900E+03  0.19011403320E+03  0.00000000000E+00 0. -1.
         13    1    3    3    0    0  0.74780121548E+01  0.72720859045E+02  0.13097615311E+03  0.14999665560E+03  0.00000000000E+00 0.  1.
          2    1    1    2  501    0 -0.11204529594E+03 -0.17759771803E+02  0.45966289051E+01  0.11353716059E+03  0.00000000000E+00 0. -1.
<scales pt_clust_5="13000.00000" pt_clust_6="13000.00000" pt_clust_7="13000.00000" pt_clust_8="13000.00000" pt_clust_9="113.44407"></scales>
<clustering>
<clus scale="   89.034">  5  6 -1 -1</clus>
<clus scale="   90.646">  7  8 -1 -1</clus>
<clus scale="  113.444">  2  9  1 -1</clus>
<clus scale="  122.160">  2  5  1 -1</clus>
<clus scale="  113.444">  2  5  1 -1</clus>
</clustering>
</event>
<event>
 9    1  0.7586638E-005  0.9595241E+02  0.7546771E-02  0.1291719E+00
          1   -1    0    0  502    0 -0.00000000000E+00  0.00000000000E+00  0.24827061424E+03  0.24827061424E+03  0.00000000000E+00 0. -1.
         21   -1    0    0  501  502  0.00000000000E+00 -0.00000000000E+00 -0.10448471053E+03  0.10448471053E+03  0.00000000000E+00 0.  1.
         23    2    1    2    0    0  0.39097784471E+02 -0.31604489248E+02  0.73008601612E+02  0.12377292305E+03  0.86382869136E+02 0.  0.
        -24    2    1    2    0    0 -0.96091493216E+01  0.13561458291E+02 -0.54413194458E+02  0.99106341583E+02  0.81148150375E+02 0.  0.
         11    1    4    4    0    0  0.17738684340E+02 -0.16114567994E+02 -0.53632336974E+02  0.58743236147E+02  0.00000000000E+00 0. -1.
        -12    1    4    4    0    0 -0.27347833662E+02  0.29676026284E+02 -0.78085748367E+00  0.40363105436E+02  0.00000000000E+00 0.  1.
        -11    1    3    3    0    0  0.30319320792E+01 -0.52058874422E+02  0.18596410744E+02  0.55363756292E+02  0.00000000000E+00 0.  1.
         11    1    3    3    0    0  0.36065852391E+02  0.20454385174E+02  0.54412190868E+02  0.68409166759E+02  0.00000000000E+00 0. -1.
          2    1    1    2  501    0 -0.29488635149E+02  0.18043030957E+02  0.12519049656E+03  0.12987606014E+03  0.00000000000E+00 0. -1.
<scales pt_clust_5="13000.00000" pt_clust_6="13000.00000" pt_clust_7="13000.00000" pt_clust_8="13000.00000" pt_clust_9="34.57068"></scales>
<clustering>
<clus scale="   34.571">  2  9  1 -1</clus>
<clus scale="   81.148">  5  6 -1 -1</clus>
<clus scale="   86.383">  7  8 -1 -1</clus>
<clus scale="   91.268">  2  5  1 -1</clus>
<clus scale="   34.571">  2  5  1 -1</clus>
</clustering>
</event>
<event>
 9    1  0.7586638E-005  0.2005125E+03  0.7546771E-02  0.1150142E+00
         -2   -1    0    0    0  501 -0.00000000000E+00  0.00000000000E+00  0.16123481316E+04  0.16123481316E+04  0.00000000000E+00 0.  1.
         21   -1    0    0  501  502  0.00000000000E+00 -0.00000000000E+00 -0.34154893948E+02  0.34154893948E+02  0.00000000000E+00 0.  1.
        -24    2    1    2    0    0 -0.10449332605E+03 -0.12729117586E+03  0.76820593154E+03  0.79001967097E+03  0.82878396622E+02 0.  0.
         23    2    1    2    0    0  0.15726911081E+03  0.13109144953E+03  0.62404464831E+03  0.66315876346E+03  0.91811116561E+02 0.  0.
         13    1    3    3    0    0 -0.33387029755E+02  0.53992395187E+01  0.13916093995E+03  0.14321177589E+03  0.00000000000E+00 0. -1.
        -14    1    3    3    0    0 -0.71106296300E+02 -0.13269041538E+03  0.62904499159E+03  0.64680789509E+03  0.00000000000E+00 0.  1.
        -13    1    4    4    0    0  0.15728580404E+03  0.86591445113E+02  0.48502941912E+03  0.51719477949E+03  0.00000000000E+00 0.  1.
         13    1    4    4    0    0 -0.16693229929E-01  0.44500004421E+02  0.13901522919E+03  0.14596398398E+03  0.00000000000E+00 0. -1.
         -1    1    1    2    0  502 -0.52775784755E+02 -0.38002736765E+01  0.18594265779E+03  0.19332459110E+03  0.00000000000E+00 0.  1.
<scales pt_clust_5="13000.00000" pt_clust_6="13000.00000" pt_clust_7="13000.00000" pt_clust_8="13000.00000" pt_clust_9="52.91246"></scales>
<clustering>
<clus scale="   52.912">  2  9  1 -1</clus>
<clus scale="   82.878">  5  6 -1 -1</clus>
<clus scale="   91.811">  7  8 -1 -1</clus>
<clus scale="  196.583">  1  5  2 -1</clus>
<clus scale="   52.912">  2  5  1 -1</clus>
</clustering>
</event>
<event>
 9    1  0.7586638E-005  0.1034969E+03  0.7546771E-02  0.1278502E+00
         21   -1    0    0  501  502  0.00000000000E+00  0.00000000000E+00  0.31208099218E+02  0.31208099218E+02  0.00000000000E+00 0.  1.
          3   -1    0    0  502    0 -0.00000000000E+00 -0.00000000000E+00 -0.44897439682E+03  0.44897439682E+03  0.00000000000E+00 0. -1.
        -24    2    1    2    0    0 -0.45942337371E+02  0.28015641537E+02 -0.26111225813E+03  0.27895241684E+03  0.82093026390E+02 0.  0.
         23    2    1    2    0    0  0.25084388134E+02 -0.79796280127E+01 -0.11502657987E+03  0.15054140909E+03  0.93481018301E+02 0.  0.
         13    1    3    3    0    0 -0.51937911397E+02  0.16972899994E+01 -0.23740859674E+03  0.24302935880E+03  0.00000000000E+00 0. -1.
        -14    1    3    3    0    0  0.59955740266E+01  0.26318351538E+02 -0.23703661390E+02  0.35923058039E+02  0.00000000000E+00 0.  1.
        -13    1    4    4    0    0  0.19550563675E+02  0.33522794685E+02 -0.14125491893E+02  0.41298085001E+02  0.00000000000E+00 0.  1.
         13    1    4    4    0    0  0.55338244585E+01 -0.41502422698E+02 -0.10090108798E+03  0.10924332409E+03  0.00000000000E+00 0. -1.
          4    1    1    2  501    0  0.20857949237E+02 -0.20036013524E+02 -0.41627459599E+02  0.50688670105E+02  0.00000000000E+00 0. -1.
<scales pt_clust_5="13000.00000" pt_clust_6="13000.00000" pt_clust_7="13000.00000" pt_clust_8="13000.00000" pt_clust_9="28.92224"></scales>
<clustering>
<clus scale="   28.922">  1  9  2 -1</clus>
<clus scale="   82.093">  5  6 -1 -1</clus>
<clus scale="   93.339">  2  5  1 -1</clus>
<clus scale="   93.481">  7  8 -1 -1</clus>
<clus scale="   28.922">  1  5  2 -1</clus>
</clustering>
</event>
<event>
 9    1  0.7586638E-005  0.2386333E+03  0.7546771E-02  0.1149000E+00
          1   -1    0    0  502    0 -0.00000000000E+00  0.00000000000E+00  0.31689476480E+03  0.31689476480E+03  0.00000000000E+00 0. -1.
         21   -1    0    0  501  502  0.00000000000E+00 -0.00000000000E+00 -0.30727083165E+03  0.30727083165E+03  0.00000000000E+00 0. -1.
        -24    2    1    2    0    0 -0.74146189850E+02  0.49733465244E+02  0.20623026147E+02  0.12158374975E+03  0.79913853375E+02 0.  0.
         23    2    1    2    0    0  0.50318255478E+02 -0.25419322920E+03  0.64472602329E+02  0.28333873432E+03  0.94752294478E+02 0.  0.
         11    1    3    3    0    0 -0.54487635333E+02  0.68870493883E+02  0.94874324361E+00  0.87823387806E+02  0.00000000000E+00 0. -1.
        -12    1    3    3    0    0 -0.19658554517E+02 -0.19137028639E+02  0.19674282903E+02  0.33760361944E+02  0.00000000000E+00 0.  1.
        -11    1    4    4    0    0 -0.23483598662E+01 -0.14289183295E+03 -0.29768846561E+01  0.14294213011E+03  0.00000000000E+00 0.  1.
         11    1    4    4    0    0  0.52666615344E+02 -0.11130139625E+03  0.67449486985E+02  0.14039660421E+03  0.00000000000E+00 0. -1.
          2    1    1    2  501    0  0.23827934371E+02  0.20445976395E+03 -0.75471695328E+02  0.21924311238E+03  0.00000000000E+00 0. -1.
<scales pt_clust_5="13000.00000" pt_clust_6="13000.00000" pt_clust_7="13000.00000" pt_clust_8="13000.00000" pt_clust_9="219.01561"></scales>
<clustering>
<clus scale="   79.914">  5  6 -1 -1</clus>
<clus scale="   94.752">  7  8 -1 -1</clus>
<clus scale="  119.822">  1  5  2 -1</clus>
<clus scale="  219.016">  2  9  1 -1</clus>
<clus scale="  219.016">  2  5  1 -1</clus>
</clustering>
</event>
<event>
 9    1  0.7586638E-005  0.1533112E+03  0.7546771E-02  0.1197945E+00
         21   -1    0    0  501  502  0.00000000000E+00  0.00000000000E+00  0.42248276164E+03  0.42248276164E+03  0.00000000000E+00 0. -1.
          3   -1    0    0  502    0 -0.00000000000E+00 -0.00000000000E+00 -0.16219641705E+03  0.16219641705E+03  0.00000000000E+00 0. -1.
         23    2    1    2    0    0 -0.72683921674E+02 -0.92479482207E+02 -0.51333784722E+02  0.15605842160E+03  0.88790012945E+02 0.  0.
        -24    2    1    2    0    0  0.70405258970E+02  0.12362466005E+03  0.58247717363E+02  0.17333113030E+03  0.80068265190E+02 0.  0.
         11    1    4    4    0    0  0.83039484603E+02  0.10709551922E+03  0.66493869149E+02  0.15095178328E+03  0.00000000000E+00 0. -1.
        -12    1    4    4    0    0 -0.12634225633E+02  0.16529140828E+02 -0.82461517868E+01  0.22379347023E+02  0.00000000000E+00 0.  1.
        -13    1    3    3    0    0  0.34521378340E+01 -0.21231273849E+02  0.20278694307E+02  0.29561963529E+02  0.00000000000E+00 0. -1.
         13    1    3    3    0    0 -0.76136059508E+02 -0.71248208358E+02 -0.71612479029E+02  0.12649645807E+03  0.00000000000E+00 0.  1.
          4    1    1    2  501    0  0.22786627038E+01 -0.31145177842E+02  0.25337241195E+03  0.25528962679E+03  0.00000000000E+00 0. -1.
<scales pt_clust_5="13000.00000" pt_clust_6="13000.00000" pt_clust_7="13000.00000" pt_clust_8="13000.00000" pt_clust_9="31.22842"></scales>
<clustering>
<clus scale="   31.228">  1  9  2 -1</clus>
<clus scale="   80.068">  5  6 -1 -1</clus>
<clus scale="   88.790">  7  8 -1 -1</clus>
<clus scale="  148.430">  1  5  2 -1</clus>
<clus scale="   31.228">  1  5  2 -1</clus>
</clustering>
</event>
<event>
 9    1  0.7586638E-005  0.1671157E+03  0.7546771E-02  0.1213633E+00
         -2   -1    0    0    0  501 -0.00000000000E+00  0.00000000000E+00  0.21153652352E+03  0.21153652352E+03  0.00000000000E+00 0.  1.
         21   -1    0    0  501  502  0.00000000000E+00 -0.00000000000E+00 -0.19896916647E+03  0.19896916647E+03  0.00000000000E+00 0.  1.
        -24    2    1    2    0    0 -0.12618915274E+02 -0.21475792304E+01  0.56839377963E+02  0.99594575593E+02  0.80774472954E+02 0.  0.
         23    2    1    2    0    0  0.10426066651E+03 -0.98885031899E+02 -0.36915486589E+02  0.17430980518E+03  0.91502015917E+02 0.  0.
         13    1    3    3    0    0 -0.12429689202E+02  0.21053457449E+02 -0.11794480094E+02  0.27145073308E+02  0.00000000000E+00 0. -1.
        -14    1    3    3    0    0 -0.18922607152E+00 -0.23201036679E+02  0.68633858057E+02  0.72449502285E+02  0.00000000000E+00 0.  1.
        -13    1    4    4    0    0  0.20817130363E+02 -0.45521005771E+02 -0.54185728132E+02  0.73767255718E+02  0.00000000000E+00 0. -1.
         13    1    4    4    0    0  0.83443536150E+02 -0.53364026128E+02  0.17270241542E+02  0.10054254946E+03  0.00000000000E+00 0.  1.
         -1    1    1    2    0  502 -0.91641751240E+02  0.10103261113E+03 -0.73565343222E+01  0.13660130921E+03  0.00000000000E+00 0.  1.
<scales pt_clust_5="13000.00000" pt_clust_6="13000.00000" pt_clust_7="13000.00000" pt_clust_8="13000.00000" pt_clust_9="139.83936"></scales>
<clustering>
<clus scale="   80.774">  5  6 -1 -1</clus>
<clus scale="   81.782">  1  5  2 -1</clus>
<clus scale="   91.502">  7  8 -1 -1</clus>
<clus scale="  139.839">  2  9  1 -1</clus>
<clus scale="  139.839">  2  5  1 -1</clus>
</clustering>
</event>
<event>
 9    1  0.7586638E-005  0.2885944E+03  0.7546771E-02  0.1091735E+00
          1   -1    0    0  502    0 -0.00000000000E+00  0.00000000000E+00  0.33770669934E+03  0.33770669934E+03  0.00000000000E+00 0. -1.
         21   -1    0    0  501  502  0.00000000000E+00 -0.00000000000E+00 -0.67425783917E+03  0.67425783917E+03  0.00000000000E+00 0. -1.
         23    2    1    2    0    0 -0.17490468729E+03 -0.21405677228E+03  0.22557271944E+03  0.36948528213E+03  0.96043586784E+02 0.  0.
        -24    2    1    2    0    0  0.13089892698E+03  0.20154989910E+03 -0.52725623337E+03  0.58495812850E+03  0.80124812337E+02 0.  0.
         13    1    4    4    0    0  0.10150463966E+03  0.13170395878E+03 -0.43419845305E+03  0.46494883726E+03  0.00000000000E+00 0. -1.
        -14    1    4    4    0    0  0.29394287322E+02  0.69845940320E+02 -0.93057780315E+02  0.12000929124E+03  0.00000000000E+00 0.  1.
        -11    1    3    3    0    0 -0.78133259055E+02 -0.28495254785E+02  0.58199633025E+02  0.10150853659E+03  0.00000000000E+00 0.  1.
         11    1    3    3    0    0 -0.96771428239E+02 -0.18556151749E+03  0.16737308642E+03  0.26797674555E+03  0.00000000000E+00 0. -1.
          2    1    1    2  501    0  0.44005760310E+02  0.12506873174E+02 -0.34867625897E+02  0.57521127882E+02  0.00000000000E+00 0. -1.
<scales pt_clust_5="13000.00000" pt_clust_6="13000.00000" pt_clust_7="13000.00000" pt_clust_8="13000.00000" pt_clust_9="45.74854"></scales>
<clustering>
<clus scale="   45.749">  2  9  1 -1</clus>
<clus scale="   80.125">  5  6 -1 -1</clus>
<clus scale="   96.044">  7  8 -1 -1</clus>
<clus scale="  283.694">  2  5  1 -1</clus>
<clus scale="   45.749">  2  5  1 -1</clus>
</clustering>
</event>
<event>
 9    1  0.7586638E-005  0.1636571E+03  0.7546771E-02  0.1204699E+00
          1   -1    0    0  502    0 -0.00000000000E+00  0.00000000000E+00  0.24113830391E+03  0.24113830391E+03  0.00000000000E+00 0. -1.
         21   -1    0    0  501  502  0.00000000000E+00 -0.00000000000E+00 -0.30131623878E+03  0.30131623878E+03  0.00000000000E+00 0. -1.
        -24    2    1    2    0    0  0.65518832215E+02 -0.18491190784E+02  0.83567314793E+02  0.13451536719E+03  0.80475129060E+02 0.  0.
         23    2    1    2    0    0 -0.13313554078E+03 -0.95100872059E+02  0.29717911030E+02  0.18984597493E+03  0.91591985882E+02 0.  0.
         11    1    3    3    0    0  0.52590767837E+02  0.43899472924E+01  0.92719699025E+02  0.10668647096E+03  0.00000000000E+00 0. -1.
        -12    1    3    3    0    0  0.12928064378E+02 -0.22881138076E+02 -0.91523842314E+01  0.27828896229E+02  0.00000000000E+00 0.  1.
        -11    1    4    4    0    0 -0.13109645389E+03 -0.64073788872E+02 -0.13049286810E+01  0.14592269694E+03  0.00000000000E+00 0. -1.
         11    1    4    4    0    0 -0.20390868931E+01 -0.31027083187E+02  0.31022839711E+02  0.43923277999E+02  0.00000000000E+00 0.  1.
          2    1    1    2  501    0  0.67616708564E+02  0.11359206284E+03 -0.17346316069E+03  0.21809320057E+03  0.00000000000E+00 0. -1.
<scales pt_clust_5="13000.00000" pt_clust_6="13000.00000" pt_clust_7="13000.00000" pt_clust_8="13000.00000" pt_clust_9="135.62650"></scales>
<clustering>
<clus scale="   80.475">  5  6 -1 -1</clus>
<clus scale="   91.592">  7  8 -1 -1</clus>
<clus scale="  105.408">  1  5  2 -1</clus>
<clus scale="  135.627">  2  9  1 -1</clus>
<clus scale="  135.627">  2  5  1 -1</clus>
</clustering>
</event>
<event>
 9    1  0.7586638E-005  0.4229060E+03  0.7546771E-02  0.1070457E+00
          1   -1    0    0  502    0 -0.00000000000E+00  0.00000000000E+00  0.57479277564E+03  0.57479277564E+03  0.00000000000E+00 0. -1.
         21   -1    0    0  501  502  0.00000000000E+00 -0.00000000000E+00 -0.47003448483E+03  0.47003448483E+03  0.00000000000E+00 0.  1.
         23    2    1    2    0    0 -0.10012603941E+02 -0.12972234309E+03 -0.51639665276E+02  0.16788066384E+03  0.92677525476E+02 0.  0.
        -24    2    1    2    0    0  0.25562055203E+03  0.38424455549E+03 -0.44335764793E+02  0.47025402543E+03  0.78660303495E+02 0.  0.
         11    1    4    4    0    0  0.79742793021E+02  0.14314290228E+03 -0.51423036437E+02  0.17173564624E+03  0.00000000000E+00 0. -1.
        -12    1    4    4    0    0  0.17587775901E+03  0.24110165321E+03  0.70872716433E+01  0.29851837919E+03  0.00000000000E+00 0.  1.
        -13    1    3    3    0    0  0.18891428286E+02 -0.51620157218E+02  0.19528993674E+02  0.58334451980E+02  0.00000000000E+00 0. -1.
         13    1    3    3    0    0 -0.28904032227E+02 -0.78102185868E+02 -0.71168658950E+02  0.10954621186E+03  0.00000000000E+00 0.  1.
          2    1    1    2  501    0 -0.24560794809E+03 -0.25452221241E+03  0.20073372088E+03  0.40669257120E+03  0.00000000000E+00 0. -1.
<scales pt_clust_5="13000.00000" pt_clust_6="13000.00000" pt_clust_7="13000.00000" pt_clust_8="13000.00000" pt_clust_9="415.52639"></scales>
<clustering>
<clus scale="   78.660">  5  6 -1 -1</clus>
<clus scale="   92.678">  7  8 -1 -1</clus>
<clus scale="  159.741">  1  7  2 -1</clus>
<clus scale="  415.526">  2  9  1 -1</clus>
<clus scale="  415.526">  2  5  1 -1</clus>
</clustering>
</event>
<event>
 9    1  0.7586638E-005  0.1530948E+03  0.7546771E-02  0.1197546E+00
         21   -1    0    0  501  502  0.00000000000E+00  0.00000000000E+00  0.57219311525E+02  0.57219311525E+02  0.00000000000E+00 0. -1.
         -4   -1    0    0    0  501 -0.00000000000E+00 -0.00000000000E+00 -0.51260741340E+03  0.51260741340E+03  0.00000000000E+00 0.  1.
         23    2    1    2    0    0 -0.13539137201E+03 -0.21495256311E+02 -0.30130445576E+03  0.34183096749E+03  0.85271130028E+02 0.  0.
        -24    2    1    2    0    0  0.10959323804E+03  0.29705418574E+02 -0.14061840200E+03  0.19775897057E+03  0.80261981925E+02 0.  0.
         13    1    4    4    0    0  0.52427346834E+02 -0.13503861416E+02 -0.20500223206E+02  0.57889896534E+02  0.00000000000E+00 0. -1.
        -14    1    4    4    0    0  0.57165891205E+02  0.43209279990E+02 -0.12011817879E+03  0.13986907403E+03  0.00000000000E+00 0.  1.
        -13    1    3    3    0    0 -0.75155885545E+02  0.73948718090E+01 -0.23838331555E+03  0.25005938574E+03  0.00000000000E+00 0. -1.
         13    1    3    3    0    0 -0.60235486469E+02 -0.28890128120E+02 -0.62921140206E+02  0.91771581754E+02  0.00000000000E+00 0.  1.
         -3    1    1    2    0  502  0.25798133974E+02 -0.82101622633E+01 -0.13465244119E+02  0.30236786869E+02  0.00000000000E+00 0.  1.
<scales pt_clust_5="13000.00000" pt_clust_6="13000.00000" pt_clust_7="13000.00000" pt_clust_8="13000.00000" pt_clust_9="27.07306"></scales>
<clustering>
<clus scale="   27.073">  1  9  2 -1</clus>
<clus scale="   80.262">  5  6 -1 -1</clus>
<clus scale="   85.271">  7  8 -1 -1</clus>
<clus scale="  150.362">  1  5  2 -1</clus>
<clus scale="   27.073">  1  5  2 -1</clus>
</clustering>
</event>
<event>
 9    1  0.7586638E-005  0.1326765E+03  0.7546771E-02  0.1226117E+00
         21   -1    0    0  501  502  0.00000000000E+00  0.00000000000E+00  0.20211623299E+02  0.20211623299E+02  0.00000000000E+00 0.  1.
          1   -1    0    0  502    0 -0.00000000000E+00 -0.00000000000E+00 -0.10155821227E+04  0.10155821227E+04  0.00000000000E+00 0. -1.
        -24    2    1    2    0    0 -0.68200042070E+02 -0.65602531264E+02 -0.54568116601E+03  0.55987476025E+03  0.82078464830E+02 0.  0.
         23    2    1    2    0    0  0.54040960628E+02  0.81373274621E+02 -0.38005030443E+03  0.40312619566E+03  0.92360492001E+02 0.  0.
         13    1    3    3    0    0 -0.53885509237E+02  0.40917951422E+01 -0.24533109038E+03  0.25121252915E+03  0.00000000000E+00 0. -1.
        -14    1    3    3    0    0 -0.14314532833E+02 -0.69694326406E+02 -0.30035007562E+03  0.30866223110E+03  0.00000000000E+00 0.  1.
        -11    1    4    4    0    0  0.22873720242E+02  0.83495360313E+02 -0.34705018993E+03  0.35768494042E+03  0.00000000000E+00 0.  1.
         11    1    4    4    0    0  0.31167240386E+02 -0.21220856918E+01 -0.33000114496E+02  0.45441255239E+02  0.00000000000E+00 0. -1.
          2    1    1    2  501    0  0.14159081442E+02 -0.15770743357E+02 -0.69639029009E+02  0.72792790128E+02  0.00000000000E+00 0. -1.
<scales pt_clust_5="13000.00000" pt_clust_6="13000.00000" pt_clust_7="13000.00000" pt_clust_8="13000.00000" pt_clust_9="21.19424"></scales>
<clustering>
<clus scale="   21.194">  1  9  2 -1</clus>
<clus scale="   82.078">  5  6 -1 -1</clus>
<clus scale="   92.360">  7  8 -1 -1</clus>
<clus scale="  125.736">  2  5  1 -1</clus>
<clus scale="   21.194">  1  5  2 -1</clus>
</clustering>
</event>
<event>
 9    1  0.7586638E-005  0.9687953E+02  0.7546771E-02  0.1292619E+00
         21   -1    0    0  501  502  0.00000000000E+00  0.00000000000E+00  0.15733116321E+02  0.15733116321E+02  0.00000000000E+00 0. -1.
         -2   -1    0    0    0  501 -0.00000000000E+00 -0.00000000000E+00 -0.89578699829E+03  0.89578699829E+03  0.00000000000E+00 0.  1.
        -24    2    1    2    0    0  0.80000254035E+01  0.40452528959E+02 -0.50790740597E+03  0.51594015199E+03  0.80770662328E+02 0.  0.
         23    2    1    2    0    0 -0.13056656824E+02 -0.17342258395E+02 -0.35277422378E+03  0.36500320211E+03  0.91139751911E+02 0.  0.
         11    1    3    3    0    0  0.12859581969E+02 -0.20594083592E+02 -0.77957655448E+02  0.81650971644E+02  0.00000000000E+00 0. -1.
        -12    1    3    3    0    0 -0.48595565652E+01  0.61046612551E+02 -0.42994975052E+03  0.43428918034E+03  0.00000000000E+00 0.  1.
        -11    1    4    4    0    0 -0.19342151733E+02 -0.47730489150E+02 -0.29462217032E+03  0.29908952116E+03  0.00000000000E+00 0. -1.
         11    1    4    4    0    0  0.62854949089E+01  0.30388230755E+02 -0.58152053459E+02  0.65913680949E+02  0.00000000000E+00 0.  1.
         -1    1    1    2    0  502  0.50566314205E+01 -0.23110270564E+02 -0.19372252227E+02  0.30576760509E+02  0.00000000000E+00 0.  1.
<scales pt_clust_5="13000.00000" pt_clust_6="13000.00000" pt_clust_7="13000.00000" pt_clust_8="13000.00000" pt_clust_9="23.65701"></scales>
<clustering>
<clus scale="   23.657">  1  9  2 -1</clus>
<clus scale="   80.771">  5  6 -1 -1</clus>
<clus scale="   87.196">  2  5  1 -1</clus>
<clus scale="   91.140">  7  8 -1 -1</clus>
<clus scale="   23.657">  1  5  2 -1</clus>
</clustering>
</event>
<event>
 9    1  0.7586638E-005  0.1279800E+03  0.7546771E-02  0.1244376E+00
          3   -1    0    0  502    0 -0.00000000000E+00  0.00000000000E+00  0.45426189837E+02  0.45426189837E+02  0.00000000000E+00 0. -1.
         21   -1    0    0  501  502  0.00000000000E+00 -0.00000000000E+00 -0.12115553807E+04  0.12115553807E+04  0.00000000000E+00 0.  1.
        -24    2    1    2    0    0  0.27946212932E+02  0.45064826178E+02 -0.63776579202E+03  0.64501043087E+03  0.80507273499E+02 0.  0.
         23    2    1    2    0    0  0.30239012860E+01  0.47549116281E+02 -0.31939364320E+02  0.10603308776E+03  0.89178642451E+02 0.  0.
         13    1    3    3    0    0  0.16360479065E+01  0.20560004008E+02 -0.31328217167E+02  0.37507967266E+02  0.00000000000E+00 0. -1.
        -14    1    3    3    0    0  0.26310165026E+02  0.24504822170E+02 -0.60643757485E+03  0.60750246360E+03  0.00000000000E+00 0.  1.
        -11    1    4    4    0    0 -0.40260500466E+02  0.40489984617E+02 -0.20945080320E+02  0.60819759467E+02  0.00000000000E+00 0.  1.
         11    1    4    4    0    0  0.43284401752E+02  0.70591316638E+01 -0.10994284001E+02  0.45213328296E+02  0.00000000000E+00 0. -1.
          4    1    1    2  501    0 -0.30970114218E+02 -0.92613942459E+02 -0.49642403455E+03  0.50593805193E+03  0.00000000000E+00 0. -1.
<scales pt_clust_5="13000.00000" pt_clust_6="13000.00000" pt_clust_7="13000.00000" pt_clust_8="13000.00000" pt_clust_9="91.79358"></scales>
<clustering>
<clus scale="   80.507">  5  6 -1 -1</clus>
<clus scale="   89.179">  7  8 -1 -1</clus>
<clus scale="   96.402">  1  5  2 -1</clus>
<clus scale="   91.794">  2  9  1 -1</clus>
<clus scale="   91.794">  2  5  1 -1</clus>
</clustering>
</event>
<event>
 9    1  0.7586638E-005  0.2408148E+03  0.7546771E-02  0.1154373E+00
          1   -1    0    0  502    0 -0.00000000000E+00  0.00000000000E+00  0.12126404846E+04  0.12126404846E+04  0.00000000000E+00 0. -1.
         21   -1    0    0  501  502  0.00000000000E+00 -0.00000000000E+00 -0.77703059175E+02  0.77703059175E+02  0.00000000000E+00 0. -1.
        -24    2    1    2    0    0  0.32796780708E+02  0.43997588792E+02  0.11599091741E+03  0.15492125820E+03  0.86806029039E+02 0.  0.
         23    2    1    2    0    0 -0.14648126851E+03  0.15863281077E+03  0.31600835266E+03  0.39508095088E+03  0.98012999765E+02 0.  0.
         13    1    3    3    0    0  0.40348430893E+02  0.57044277095E+02  0.46775399494E+02  0.84083193461E+02  0.00000000000E+00 0. -1.
        -14    1    3    3    0    0 -0.75516501848E+01 -0.13046688303E+02  0.69215517911E+02  0.70838064739E+02  0.00000000000E+00 0.  1.
        -11    1    4    4    0    0 -0.94844628437E+02  0.15201128298E+03  0.27754135485E+03  0.33035153601E+03  0.00000000000E+00 0. -1.
         11    1    4    4    0    0 -0.51636640072E+02  0.66215277825E+01  0.38466997813E+02  0.64729414866E+02  0.00000000000E+00 0.  1.
          2    1    1    2  501    0  0.11368448780E+03 -0.20263039956E+03  0.70293815534E+03  0.74034133467E+03  0.00000000000E+00 0. -1.
<scales pt_clust_5="13000.00000" pt_clust_6="13000.00000" pt_clust_7="13000.00000" pt_clust_8="13000.00000" pt_clust_9="219.96656"></scales>
<clustering>
<clus scale="   86.806">  5  6 -1 -1</clus>
<clus scale="   98.013">  7  8 -1 -1</clus>
<clus scale="  102.697">  1  5  2 -1</clus>
<clus scale="  219.967">  2  9  1 -1</clus>
<clus scale="  219.967">  2  5  1 -1</clus>
</clustering>
</event>
<event>
 9    1  0.9028738E-005  0.1494534E+03  0.7546771E-02  0.1204911E+00
          1   -1    0    0  502    0 -0.00000000000E+00  0.00000000000E+00  0.38878877239E+03  0.38878877239E+03  0.00000000000E+00 0. -1.
         21   -1    0    0  501  502  0.00000000000E+00 -0.00000000000E+00 -0.25700907171E+03  0.25700907171E+03  0.00000000000E+00 0. -1.
         23    2    1    2    0    0 -0.84844739523E+02  0.60316420439E+02  0.32425638039E+03  0.35245356508E+03  0.90799861837E+02 0.  0.
        -24    2    1    2    0    0  0.10559845439E+03 -0.21392327055E+02 -0.79018897189E+02  0.17161314028E+03  0.10769595432E+03 0.  0.
         13    1    4    4    0    0  0.88766469953E+02  0.32932715472E+02 -0.40824726043E+02  0.10310532572E+03  0.00000000000E+00 0. -1.
        -14    1    4    4    0    0  0.16831984435E+02 -0.54325042527E+02 -0.38194171146E+02  0.68507814555E+02  0.00000000000E+00 0.  1.
        -11    1    3    3    0    0 -0.89693501074E+01 -0.23426154776E+02  0.62504633312E+02  0.67350301814E+02  0.00000000000E+00 0.  1.
         11    1    3    3    0    0 -0.75875389416E+02  0.83742575215E+02  0.26175174708E+03  0.28510326326E+03  0.00000000000E+00 0. -1.
          2    1    1    2  501    0 -0.20753714865E+02 -0.38924093385E+02 -0.11345778252E+03  0.12173113875E+03  0.00000000000E+00 0. -1.
<scales pt_clust_5="13000.00000" pt_clust_6="13000.00000" pt_clust_7="13000.00000" pt_clust_8="13000.00000" pt_clust_9="44.11124"></scales>
<clustering>
<clus scale="   44.111">  2  9  1 -1</clus>
<clus scale="   90.800">  7  8 -1 -1</clus>
<clus scale="  107.696">  5  6 -1 -1</clus>
<clus scale="  137.777">  1  7  2 -1</clus>
<clus scale="   44.111">  2  5  1 -1</clus>
</clustering>
</event>
<event>
 9    1  0.7586638E-005  0.1852997E+03  0.7546771E-02  0.1163834E+00
         21   -1    0    0  501  502  0.00000000000E+00  0.00000000000E+00  0.12013375298E+03  0.12013375298E+03  0.00000000000E+00 0. -1.
          1   -1    0    0  502    0 -0.00000000000E+00 -0.00000000000E+00 -0.41909028270E+03  0.41909028270E+03  0.00000000000E+00 0. -1.
        -24    2    1    2    0    0 -0.70840886536E+02  0.16043093865E+03 -0.26970616533E+03  0.33167646015E+03  0.80692882714E+02 0.  0.
         23    2    1    2    0    0  0.58331657799E+02 -0.11616720112E+03 -0.13264619429E+02  0.15885154586E+03  0.90335278687E+02 0.  0.
         11    1    3    3    0    0 -0.78129841193E+02  0.78421815088E+02 -0.15687607254E+03  0.19200092527E+03  0.00000000000E+00 0. -1.
        -12    1    3    3    0    0  0.72889546571E+01  0.82009123560E+02 -0.11283009279E+03  0.13967553488E+03  0.00000000000E+00 0.  1.
        -13    1    4    4    0    0  0.38636650351E+02 -0.99106635088E+02 -0.46943531599E+02  0.11626956191E+03  0.00000000000E+00 0.  1.
         13    1    4    4    0    0  0.19695007448E+02 -0.17060566036E+02  0.33678912171E+02  0.42581983947E+02  0.00000000000E+00 0. -1.
          2    1    1    2  501    0  0.12509228737E+02 -0.44263737524E+02 -0.15985744969E+02  0.48696029667E+02  0.00000000000E+00 0. -1.
<scales pt_clust_5="13000.00000" pt_clust_6="13000.00000" pt_clust_7="13000.00000" pt_clust_8="13000.00000" pt_clust_9="45.99738"></scales>
<clustering>
<clus scale="   45.997">  1  9  2 -1</clus>
<clus scale="   80.693">  5  6 -1 -1</clus>
<clus scale="   90.335">  7  8 -1 -1</clus>
<clus scale="  180.795">  2  5  1 -1</clus>
<clus scale="   45.997">  1  5  2 -1</clus>
</clustering>
</event>
<event>
 9    1  0.7586638E-005  0.1783856E+03  0.7546771E-02  0.1193263E+00
          1   -1    0    0  502    0 -0.00000000000E+00  0.00000000000E+00  0.77343281726E+03  0.77343281726E+03  0.00000000000E+00 0. -1.
         21   -1    0    0  501  502  0.00000000000E+00 -0.00000000000E+00 -0.14658348720E+03  0.14658348720E+03  0.00000000000E+00 0. -1.
        -24    2    1    2    0    0 -0.31084208629E+01 -0.66235224238E+02  0.50945275752E+03  0.52003793340E+03  0.80626129923E+02 0.  0.
         23    2    1    2    0    0  0.13278012964E+03  0.97699837938E+02 -0.41098923060E+02  0.19279343894E+03  0.91128302184E+02 0.  0.
         11    1    3    3    0    0 -0.39903318052E+02 -0.49148315474E+02  0.28478367095E+03  0.29173544685E+03  0.00000000000E+00 0. -1.
        -12    1    3    3    0    0  0.36794897189E+02 -0.17086908765E+02  0.22466908656E+03  0.22830248655E+03  0.00000000000E+00 0.  1.
        -11    1    4    4    0    0 -0.74439531737E+01  0.32087161389E+02 -0.13192528434E+02  0.35482970160E+02  0.00000000000E+00 0.  1.
         11    1    4    4    0    0  0.14022408282E+03  0.65612676549E+02 -0.27906394626E+02  0.15731046878E+03  0.00000000000E+00 0. -1.
          2    1    1    2  501    0 -0.12967170878E+03 -0.31464613700E+02  0.15849549560E+03  0.20718493212E+03  0.00000000000E+00 0. -1.
<scales pt_clust_5="13000.00000" pt_clust_6="13000.00000" pt_clust_7="13000.00000" pt_clust_8="13000.00000" pt_clust_9="153.35283"></scales>
<clustering>
<clus scale="   80.626">  5  6 -1 -1</clus>
<clus scale="   91.128">  7  8 -1 -1</clus>
<clus scale="  104.390">  1  5  2 -1</clus>
<clus scale="  153.353">  2  9  1 -1</clus>
<clus scale="  153.353">  2  5  1 -1</clus>
</clustering>
</event>
<event>
 9    1  0.7586638E-005  0.1331140E+03  0.7546771E-02  0.1224581E+00
         21   -1    0    0  501  502  0.00000000000E+00  0.00000000000E+00  0.28462207822E+03  0.28462207822E+03  0.00000000000E+00 0.  1.
          1   -1    0    0  502    0 -0.00000000000E+00 -0.00000000000E+00 -0.89998547120E+02  0.89998547120E+02  0.00000000000E+00 0. -1.
         23    2    1    2    0    0 -0.10454286352E+03 -0.17793005357E+02  0.26994944517E+02  0.14202468209E+03  0.90534424065E+02 0.  0.
        -24    2    1    2    0    0  0.76411428716E+02  0.20806864615E+02  0.16869859619E+03  0.20428329780E+03  0.83670887100E+02 0.  0.
         13    1    4    4    0    0  0.65443861705E+02  0.23072972698E+02  0.51160493852E+02  0.86212860034E+02  0.00000000000E+00 0. -1.
        -14    1    4    4    0    0  0.10967567011E+02 -0.22661080832E+01  0.11753810234E+03  0.11807043776E+03  0.00000000000E+00 0.  1.
        -11    1    3    3    0    0 -0.47192512745E+02 -0.23228444154E+02  0.56589856921E+02  0.77259988243E+02  0.00000000000E+00 0.  1.
         11    1    3    3    0    0 -0.57350350777E+02  0.54354387972E+01 -0.29594912404E+02  0.64764693849E+02  0.00000000000E+00 0. -1.
          2    1    1    2  501    0  0.28131434807E+02 -0.30138592584E+01 -0.10700096072E+01  0.28312645452E+02  0.00000000000E+00 0. -1.
<scales pt_clust_5="13000.00000" pt_clust_6="13000.00000" pt_clust_7="13000.00000" pt_clust_8="13000.00000" pt_clust_9="28.29243"></scales>
<clustering>
<clus scale="   28.292">  1  9  2 -1</clus>
<clus scale="   83.671">  5  6 -1 -1</clus>
<clus scale="   90.534">  7  8 -1 -1</clus>
<clus scale="  128.544">  1  5  2 -1</clus>
<clus scale="   28.292">  1  5  2 -1</clus>
</clustering>
</event>
<event>
 9    1  0.7586638E-005  0.1186744E+03  0.7546771E-02  0.1249234E+00
          1   -1    0    0  502    0 -0.00000000000E+00  0.00000000000E+00  0.48811715952E+03  0.48811715952E+03  0.00000000000E+00 0. -1.
         21   -1    0    0  501  502  0.00000000000E+00 -0.00000000000E+00 -0.70616309759E+02  0.70616309759E+02  0.00000000000E+00 0. -1.
        -24    2    1    2    0    0 -0.44579450226E+02 -0.33948966542E+02  0.22730473441E+03  0.24824485776E+03  0.82572437352E+02 0.  0.
         23    2    1    2    0    0  0.73808301760E+02  0.10949994362E+03  0.14582728188E+03  0.21812590647E+03  0.94209404386E+02 0.  0.
         13    1    3    3    0    0  0.22155610967E+02 -0.23265861267E+02  0.68716072991E+02  0.75855587039E+02  0.00000000000E+00 0. -1.
        -14    1    3    3    0    0 -0.66735061194E+02 -0.10683105276E+02  0.15858866142E+03  0.17238927072E+03  0.00000000000E+00 0.  1.
        -11    1    4    4    0    0 -0.15276712480E+02  0.34342298286E+02  0.95052763954E+01  0.38770113168E+02  0.00000000000E+00 0.  1.
         11    1    4    4    0    0  0.89085014240E+02  0.75157645331E+02  0.13632200548E+03  0.17935579331E+03  0.00000000000E+00 0. -1.
          2    1    1    2  501    0 -0.29228851534E+02 -0.75550977074E+02  0.44368833481E+02  0.92362705045E+02  0.00000000000E+00 0. -1.
<scales pt_clust_5="13000.00000" pt_clust_6="13000.00000" pt_clust_7="13000.00000" pt_clust_8="13000.00000" pt_clust_9="81.00788"></scales>
<clustering>
<clus scale="   81.008">  2  9  1 -1</clus>
<clus scale="   82.572">  5  6 -1 -1</clus>
<clus scale="   94.209">  7  8 -1 -1</clus>
<clus scale="  109.665">  1  5  2 -1</clus>
<clus scale="   81.008">  2  5  1 -1</clus>
</clustering>
</event>
<event>
 9    1  0.7586638E-005  0.1220076E+03  0.7546771E-02  0.1243847E+00
         21   -1    0    0  501  502  0.00000000000E+00  0.00000000000E+00  0.25292252822E+03  0.25292252822E+03  0.00000000000E+00 0.  1.
          1   -1    0    0  502    0 -0.00000000000E+00 -0.00000000000E+00 -0.67969690346E+02  0.67969690346E+02  0.00000000000E+00 0. -1.
        -24    2    1    2    0    0 -0.42634312001E+02 -0.77013169099E+02  0.70644512534E+02  0.13789103786E+03  0.79212236402E+02 0.  0.
         23    2    1    2    0    0  0.18942688930E+02  0.68278437669E+02  0.10280717784E+03  0.15525474075E+03  0.92271058272E+02 0.  0.
         13    1    3    3    0    0  0.10251575827E+02 -0.30144497585E+02  0.57912116100E+02  0.66087810773E+02  0.00000000000E+00 0. -1.
        -14    1    3    3    0    0 -0.52885887828E+02 -0.46868671514E+02  0.12732396434E+02  0.71803227084E+02  0.00000000000E+00 0.  1.
        -11    1    4    4    0    0  0.37232607690E+00  0.76809413118E+02  0.10949714709E+03  0.13375144781E+03  0.00000000000E+00 0.  1.
         11    1    4    4    0    0  0.18570362853E+02 -0.85309754488E+01 -0.66899692502E+01  0.21503292938E+02  0.00000000000E+00 0. -1.
          2    1    1    2  501    0  0.23691623071E+02  0.87347314300E+01  0.11501147505E+02  0.27746439967E+02  0.00000000000E+00 0. -1.
<scales pt_clust_5="13000.00000" pt_clust_6="13000.00000" pt_clust_7="13000.00000" pt_clust_8="13000.00000" pt_clust_9="25.25053"></scales>
<clustering>
<clus scale="   25.251">  1  9  2 -1</clus>
<clus scale="   79.212">  5  6 -1 -1</clus>
<clus scale="   92.271">  7  8 -1 -1</clus>
<clus scale="  112.457">  2  5  1 -1</clus>
<clus scale="   25.251">  1  5  2 -1</clus>
</clustering>
</event>
<event>
 9    1  0.7586638E-005  0.1050010E+03  0.7546771E-02  0.1275704E+00
         -4   -1    0    0    0  501 -0.00000000000E+00  0.00000000000E+00  0.95616773917E+02  0.95616773917E+02  0.00000000000E+00 0.  1.
         21   -1    0    0  501  502  0.00000000000E+00 -0.00000000000E+00 -0.47968851907E+03  0.47968851907E+03  0.00000000000E+00 0.  1.
         23    2    1    2    0    0 -0.39908410939E+02  0.31593970248E+02  0.46828845793E+02  0.11621468234E+03  0.93391923488E+02 0.  0.
        -24    2    1    2    0    0 -0.19526548294E+00 -0.22891864491E+02 -0.39700835519E+03  0.40586735303E+03  0.81170182805E+02 0.  0.
         13    1    4    4    0    0  0.23294054491E+01 -0.32880662494E+02 -0.58077494655E+02  0.66779933222E+02  0.00000000000E+00 0. -1.
        -14    1    4    4    0    0 -0.25246709320E+01  0.99887980029E+01 -0.33893086053E+03  0.33908741980E+03  0.00000000000E+00 0.  1.
        -13    1    3    3    0    0  0.19640023367E+02  0.40482832713E+02  0.11636923261E+02  0.46475888860E+02  0.00000000000E+00 0. -1.
         13    1    3    3    0    0 -0.59548434307E+02 -0.88888624650E+01  0.35191922532E+02  0.69738793478E+02  0.00000000000E+00 0.  1.
         -3    1    1    2    0  502  0.40103676422E+02 -0.87021057566E+01 -0.33892235757E+02  0.53223257621E+02  0.00000000000E+00 0.  1.
<scales pt_clust_5="13000.00000" pt_clust_6="13000.00000" pt_clust_7="13000.00000" pt_clust_8="13000.00000" pt_clust_9="41.03697"></scales>
<clustering>
<clus scale="   41.037">  2  9  1 -1</clus>
<clus scale="   81.170">  5  6 -1 -1</clus>
<clus scale="   93.392">  7  8 -1 -1</clus>
<clus scale="   94.296">  2  5  1 -1</clus>
<clus scale="   41.037">  2  5  1 -1</clus>
</clustering>
</event>
<event>
 9    1  0.7586638E-005  0.4245724E+03  0.7546771E-02  0.1035734E+00
          3   -1    0    0  502    0 -0.00000000000E+00  0.00000000000E+00  0.17403641921E+04  0.17403641921E+04  0.00000000000E+00 0. -1.
         21   -1    0    0  501  502  0.00000000000E+00 -0.00000000000E+00 -0.17921398665E+03  0.17921398665E+03  0.00000000000E+00 0. -1.
         23    2    1    2    0    0 -0.32500381102E+03 -0.23463496089E+02  0.44357882370E+03  0.55773313744E+03  0.90144699975E+02 0.  0.
        -24    2    1    2    0    0  0.53677220110E+03 -0.49560545907E+02  0.88122542268E+03  0.10362106234E+04  0.81200781751E+02 0.  0.
         11    1    4    4    0    0  0.38745791213E+03 -0.70253286520E+02  0.65893720119E+03  0.76763102663E+03  0.00000000000E+00 0. -1.
        -12    1    4    4    0    0  0.14931428896E+03  0.20692740613E+02  0.22228822150E+03  0.26857959681E+03  0.00000000000E+00 0.  1.
        -13    1    3    3    0    0 -0.22014599709E+03 -0.69135493292E+01  0.22565477276E+03  0.31532861219E+03  0.00000000000E+00 0. -1.
         13    1    3    3    0    0 -0.10485781393E+03 -0.16549946760E+02  0.21792405094E+03  0.24240452524E+03  0.00000000000E+00 0.  1.
          4    1    1    2  501    0 -0.21176839007E+03  0.73024041996E+02  0.23634595912E+03  0.32563441792E+03  0.00000000000E+00 0. -1.
<scales pt_clust_5="13000.00000" pt_clust_6="13000.00000" pt_clust_7="13000.00000" pt_clust_8="13000.00000" pt_clust_9="224.00527"></scales>
<clustering>
<clus scale="   81.201">  5  6 -1 -1</clus>
<clus scale="   90.145">  7  8 -1 -1</clus>
<clus scale="  224.005">  2  9  1 -1</clus>
<clus scale="  422.764">  2  5  1 -1</clus>
<clus scale="  224.005">  2  5  1 -1</clus>
</clustering>
</event>
<event>
 9    1  0.1102962E-004  0.9703719E+02  0.7546771E-02  0.1293614E+00
         21   -1    0    0  501  502  0.00000000000E+00  0.00000000000E+00  0.16591331741E+03  0.16591331741E+03  0.00000000000E+00 0.  1.
          1   -1    0    0  502    0 -0.00000000000E+00 -0.00000000000E+00 -0.29645169982E+03  0.29645169982E+03  0.00000000000E+00 0. -1.
        -24    2    1    2    0    0  0.16722396449E+02 -0.28640645319E+02 -0.26766568157E+03  0.28101389690E+03  0.78892129236E+02 0.  0.
         23    2    1    2    0    0  0.35770034313E+01  0.14664780988E+02  0.11817974239E+03  0.15026414031E+03  0.91569698022E+02 0.  0.
         13    1    3    3    0    0 -0.91415727348E-02 -0.43351153000E+02 -0.24650326747E+03  0.25028620302E+03  0.00000000000E+00 0. -1.
        -14    1    3    3    0    0  0.16731538022E+02  0.14710507682E+02 -0.21162414106E+02  0.30727693887E+02  0.00000000000E+00 0.  1.
        -11    1    4    4    0    0 -0.27541283844E+02 -0.26347099360E+02  0.31488290392E+02  0.49438895541E+02  0.00000000000E+00 0. -1.
         11    1    4    4    0    0  0.31118287275E+02  0.41011880348E+02  0.86691451997E+02  0.10082524477E+03  0.00000000000E+00 0.  1.
          2    1    1    2  501    0 -0.20299399880E+02  0.13975864331E+02  0.18947556773E+02  0.31086980023E+02  0.00000000000E+00 0. -1.
<scales pt_clust_5="13000.00000" pt_clust_6="13000.00000" pt_clust_7="13000.00000" pt_clust_8="13000.00000" pt_clust_9="24.64529"></scales>
<clustering>
<clus scale="   24.645">  1  9  2 -1</clus>
<clus scale="   78.892">  5  6 -1 -1</clus>
<clus scale="   85.177">  2  5  1 -1</clus>
<clus scale="   91.570">  7  8 -1 -1</clus>
<clus scale="   24.645">  1  5  2 -1</clus>
</clustering>
</event>
<event>
 9    1  0.7586638E-005  0.1089180E+03  0.7546771E-02  0.1270061E+00
          1   -1    0    0  502    0 -0.00000000000E+00  0.00000000000E+00  0.50670008643E+02  0.50670008643E+02  0.00000000000E+00 0. -1.
         21   -1    0    0  501  502  0.00000000000E+00 -0.00000000000E+00 -0.70222941525E+03  0.70222941525E+03  0.00000000000E+00 0. -1.
         23    2    1    2    0    0 -0.34156437155E+02 -0.36309764038E+01 -0.80845896524E+02  0.13240705545E+03  0.99074331479E+02 0.  0.
        -24    2    1    2    0    0  0.10011673506E+03 -0.81611684427E+01 -0.52119473569E+03  0.53717415557E+03  0.82596341245E+02 0.  0.
         13    1    4    4    0    0  0.28655661674E+02  0.35849662788E+02 -0.19963087979E+03  0.20483855456E+03  0.00000000000E+00 0. -1.
        -14    1    4    4    0    0  0.71461073391E+02 -0.44010831231E+02 -0.32156385590E+03  0.33233560100E+03  0.00000000000E+00 0.  1.
        -13    1    3    3    0    0 -0.67393181345E+02  0.31943877336E+01 -0.68906795560E+02  0.96437500378E+02  0.00000000000E+00 0. -1.
         13    1    3    3    0    0  0.33236744189E+02 -0.68253641375E+01 -0.11939100964E+02  0.35969555067E+02  0.00000000000E+00 0.  1.
          2    1    1    2  501    0 -0.65960297909E+02  0.11792144847E+02 -0.49518774389E+02  0.83318212879E+02  0.00000000000E+00 0. -1.
<scales pt_clust_5="13000.00000" pt_clust_6="13000.00000" pt_clust_7="13000.00000" pt_clust_8="13000.00000" pt_clust_9="67.00612"></scales>
<clustering>
<clus scale="   67.006">  2  9  1 -1</clus>
<clus scale="   82.596">  5  6 -1 -1</clus>
<clus scale="   94.178">  2  5  1 -1</clus>
<clus scale="   99.074">  7  8 -1 -1</clus>
<clus scale="   67.006">  2  5  1 -1</clus>
</clustering>
</event>
<event>
 9    1  0.7586638E-005  0.1112432E+03  0.7546771E-02  0.1263639E+00
         21   -1    0    0  501  502  0.00000000000E+00  0.00000000000E+00  0.27507470635E+03  0.27507470635E+03  0.00000000000E+00 0.  1.
          1   -1    0    0  502    0 -0.00000000000E+00 -0.00000000000E+00 -0.55488674555E+02  0.55488674555E+02  0.00000000000E+00 0. -1.
        -24    2    1    2    0    0  0.58351231330E+02 -0.20013648769E+02  0.44812131210E+02  0.11046220883E+03  0.79927217776E+02 0.  0.
         23    2    1    2    0    0 -0.60072061984E+02 -0.19338340383E+01  0.15342781070E+03  0.18943671687E+03  0.93454717682E+02 0.  0.
         13    1    3    3    0    0  0.47871325410E+02  0.78933876005E+01 -0.86195529644E+01  0.49277439641E+02  0.00000000000E+00 0. -1.
        -14    1    3    3    0    0  0.10479905920E+02 -0.27907036369E+02  0.53431684175E+02  0.61184769189E+02  0.00000000000E+00 0.  1.
        -11    1    4    4    0    0 -0.47717624145E+02  0.43116586960E+02  0.85137321164E+02  0.10669758751E+03  0.00000000000E+00 0. -1.
         11    1    4    4    0    0 -0.12354437840E+02 -0.45050420998E+02  0.68290489536E+02  0.82739129362E+02  0.00000000000E+00 0.  1.
          2    1    1    2  501    0  0.17208306545E+01  0.21947482807E+02  0.21346089890E+02  0.30664455210E+02  0.00000000000E+00 0. -1.
<scales pt_clust_5="13000.00000" pt_clust_6="13000.00000" pt_clust_7="13000.00000" pt_clust_8="13000.00000" pt_clust_9="22.01484"></scales>
<clustering>
<clus scale="   22.015">  1  9  2 -1</clus>
<clus scale="   79.927">  5  6 -1 -1</clus>
<clus scale="   93.455">  7  8 -1 -1</clus>
<clus scale="  100.148">  2  5  1 -1</clus>
<clus scale="   22.015">  1  5  2 -1</clus>
</clustering>
</event>
<event>
 9    1  0.7586638E-005  0.1269257E+03  0.7546771E-02  0.1247526E+00
          1   -1    0    0  502    0 -0.00000000000E+00  0.00000000000E+00  0.82524898875E+02  0.82524898875E+02  0.00000000000E+00 0. -1.
         21   -1    0    0  501  502  0.00000000000E+00 -0.00000000000E+00 -0.96272701526E+03  0.96272701526E+03  0.00000000000E+00 0. -1.
         23    2    1    2    0    0  0.21163868090E+00  0.15133715361E+02  0.35883043914E+02  0.99456743368E+02  0.91514899494E+02 0.  0.
        -24    2    1    2    0    0 -0.73528034828E+02  0.55129958544E+02 -0.34863371085E+03  0.36932884451E+03  0.80079003601E+02 0.  0.
         13    1    4    4    0    0 -0.47625918518E+02  0.75059551821E+02 -0.24265221896E+03  0.25842264568E+03  0.00000000000E+00 0. -1.
        -14    1    4    4    0    0 -0.25902116309E+02 -0.19929593277E+02 -0.10598149189E+03  0.11090619883E+03  0.00000000000E+00 0.  1.
        -13    1    3    3    0    0 -0.33839697638E+02 -0.37053507220E+01 -0.13467103613E+02  0.36608983050E+02  0.00000000000E+00 0. -1.
         13    1    3    3    0    0  0.34051336319E+02  0.18839066083E+02  0.49350147528E+02  0.62847760318E+02  0.00000000000E+00 0.  1.
          2    1    1    2  501    0  0.73316396147E+02 -0.70263673904E+02 -0.56745144945E+03  0.57646632625E+03  0.00000000000E+00 0. -1.
<scales pt_clust_5="13000.00000" pt_clust_6="13000.00000" pt_clust_7="13000.00000" pt_clust_8="13000.00000" pt_clust_9="98.47580"></scales>
<clustering>
<clus scale="   80.079">  5  6 -1 -1</clus>
<clus scale="   91.515">  7  8 -1 -1</clus>
<clus scale="   92.758">  1  7  2 -1</clus>
<clus scale="   98.476">  2  9  1 -1</clus>
<clus scale="   98.476">  2  5  1 -1</clus>
</clustering>
</event>
<event>
 9    1  0.7586638E-005  0.1130557E+03  0.7546771E-02  0.1261672E+00
          3   -1    0    0  502    0 -0.00000000000E+00  0.00000000000E+00  0.27387889474E+03  0.27387889474E+03  0.00000000000E+00 0. -1.
         21   -1    0    0  501  502  0.00000000000E+00 -0.00000000000E+00 -0.82827504313E+02  0.82827504313E+02  0.00000000000E+00 0. -1.
         23    2    1    2    0    0 -0.59479234286E+02 -0.19802279938E+02  0.17695007297E+03  0.21189157778E+03  0.98269032796E+02 0.  0.
        -24    2    1    2    0    0  0.25550715702E+02  0.44585920984E+02  0.27840825699E+02  0.10060908270E+03  0.81892200622E+02 0.  0.
         11    1    4    4    0    0  0.99700821104E+01  0.18940143898E+02 -0.29171653899E+02  0.36181721620E+02  0.00000000000E+00 0. -1.
        -12    1    4    4    0    0  0.15580633592E+02  0.25645777086E+02  0.57012479598E+02  0.64427361077E+02  0.00000000000E+00 0.  1.
        -13    1    3    3    0    0  0.14193589132E+02 -0.34489747605E+02  0.34302770199E+02  0.50672287353E+02  0.00000000000E+00 0.  1.
         13    1    3    3    0    0 -0.73672823418E+02  0.14687467667E+02  0.14264730277E+03  0.16121929042E+03  0.00000000000E+00 0. -1.
          4    1    1    2  501    0  0.33928518584E+02 -0.24783641046E+02 -0.13739508241E+02  0.44205738581E+02  0.00000000000E+00 0. -1.
<scales pt_clust_5="13000.00000" pt_clust_6="13000.00000" pt_clust_7="13000.00000" pt_clust_8="13000.00000" pt_clust_9="42.01634"></scales>
<clustering>
<clus scale="   42.016">  2  9  1 -1</clus>
<clus scale="   81.892">  5  6 -1 -1</clus>
<clus scale="   98.269">  7  8 -1 -1</clus>
<clus scale="   99.152">  2  5  1 -1</clus>
<clus scale="   42.016">  2  5  1 -1</clus>
</clustering>
</event>
<event>
 9    1  0.7586638E-005  0.1084675E+03  0.7546771E-02  0.1267284E+00
          1   -1    0    0  502    0 -0.00000000000E+00  0.00000000000E+00  0.57338488597E+03  0.57338488597E+03  0.00000000000E+00 0. -1.
         21   -1    0    0  501  502  0.00000000000E+00 -0.00000000000E+00 -0.72084833142E+02  0.72084833142E+02  0.00000000000E+00 0. -1.
         23    2    1    2    0    0  0.17128900513E+02  0.57517752832E+02  0.49043868069E+03  0.50232097974E+03  0.90523897625E+02 0.  0.
        -24    2    1    2    0    0  0.13395536380E+02 -0.63441489671E+02  0.28269955876E+02  0.10751321365E+03  0.80966892601E+02 0.  0.
         13    1    4    4    0    0  0.33108962360E+02 -0.13034315265E+02 -0.14606208582E+02  0.38463464381E+02  0.00000000000E+00 0. -1.
        -14    1    4    4    0    0 -0.19713425980E+02 -0.50407174405E+02  0.42876164458E+02  0.69049749268E+02  0.00000000000E+00 0.  1.
        -13    1    3    3    0    0 -0.36398912325E+02  0.21504814684E+02  0.24065519468E+03  0.24434046043E+03  0.00000000000E+00 0. -1.
         13    1    3    3    0    0  0.53527812839E+02  0.36012938148E+02  0.24978348601E+03  0.25798051931E+03  0.00000000000E+00 0.  1.
          2    1    1    2  501    0 -0.30524436893E+02  0.59237368386E+01 -0.17408583741E+02  0.35635525724E+02  0.00000000000E+00 0. -1.
<scales pt_clust_5="13000.00000" pt_clust_6="13000.00000" pt_clust_7="13000.00000" pt_clust_8="13000.00000" pt_clust_9="31.09392"></scales>
<clustering>
<clus scale="   31.094">  2  9  1 -1</clus>
<clus scale="   80.967">  5  6 -1 -1</clus>
<clus scale="   90.524">  7  8 -1 -1</clus>
<clus scale="  100.629">  2  5  1 -1</clus>
<clus scale="   31.094">  2  5  1 -1</clus>
</clustering>
</event>
<event>
 9    1  0.7586638E-005  0.1020539E+03  0.7546771E-02  0.1281303E+00
         -2   -1    0    0    0  501 -0.00000000000E+00  0.00000000000E+00  0.80045007722E+02  0.80045007722E+02  0.00000000000E+00 0.  1.
         21   -1    0    0  501  502  0.00000000000E+00 -0.00000000000E+00 -0.25528903326E+03  0.25528903326E+03  0.00000000000E+00 0. -1.
        -24    2    1    2    0    0 -0.49422653815E+02 -0.20676231011E+02 -0.61880068727E+00  0.97327747010E+02  0.81253936427E+02 0.  0.
         23    2    1    2    0    0  0.11106926288E+02 -0.61373919559E+01 -0.16621425764E+03  0.19048987868E+03  0.92185590226E+02 0.  0.
         13    1    3    3    0    0 -0.70352144739E+01  0.25746517046E+02 -0.17894642745E+02  0.32134025918E+02  0.00000000000E+00 0. -1.
        -14    1    3    3    0    0 -0.42387439341E+02 -0.46422748057E+02  0.17275842057E+02  0.65193721092E+02  0.00000000000E+00 0.  1.
        -13    1    4    4    0    0 -0.12612817984E+02 -0.45384168804E+02 -0.79964260421E+02  0.92806728744E+02  0.00000000000E+00 0.  1.
         13    1    4    4    0    0  0.23719744272E+02  0.39246776848E+02 -0.86249997224E+02  0.97683149941E+02  0.00000000000E+00 0. -1.
         -1    1    1    2    0  502  0.38315727527E+02  0.26813622967E+02 -0.84109672070E+01  0.47516415289E+02  0.00000000000E+00 0.  1.
<scales pt_clust_5="13000.00000" pt_clust_6="13000.00000" pt_clust_7="13000.00000" pt_clust_8="13000.00000" pt_clust_9="46.76609"></scales>
<clustering>
<clus scale="   46.766">  2  9  1 -1</clus>
<clus scale="   81.254">  5  6 -1 -1</clus>
<clus scale="   92.186">  7  8 -1 -1</clus>
<clus scale="   92.299">  1  5  2 -1</clus>
<clus scale="   46.766">  2  5  1 -1</clus>
</clustering>
</event>
<event>
 9    1  0.7586638E-005  0.9576102E+02  0.7546771E-02  0.1295435E+00
          3   -1    0    0  502    0 -0.00000000000E+00  0.00000000000E+00  0.15552995309E+03  0.15552995309E+03  0.00000000000E+00 0. -1.
         21   -1    0    0  501  502  0.00000000000E+00 -0.00000000000E+00 -0.40905364723E+03  0.40905364723E+03  0.00000000000E+00 0.  1.
         23    2    1    2    0    0 -0.91538009767E+01 -0.26845513430E+02  0.10636667617E+03  0.14296090839E+03  0.91211171814E+02 0.  0.
        -24    2    1    2    0    0 -0.66780496699E+02  0.60243858528E+02 -0.28634431211E+03  0.31076021092E+03  0.80559831063E+02 0.  0.
         13    1    4    4    0    0  0.11772440478E+02  0.28457466108E+02 -0.41586444208E+02  0.51747947534E+02  0.00000000000E+00 0. -1.
        -14    1    4    4    0    0 -0.78552937177E+02  0.31786392420E+02 -0.24475786791E+03  0.25901226339E+03  0.00000000000E+00 0.  1.
        -13    1    3    3    0    0 -0.50171017488E+02 -0.17635260958E+02  0.53739358527E+02  0.75604577109E+02  0.00000000000E+00 0.  1.
         13    1    3    3    0    0  0.41017216512E+02 -0.92102524717E+01  0.52627317647E+02  0.67356331282E+02  0.00000000000E+00 0. -1.
          4    1    1    2  501    0  0.75934297676E+02 -0.33398345098E+02 -0.73546058203E+02  0.11086248101E+03  0.00000000000E+00 0. -1.
<scales pt_clust_5="13000.00000" pt_clust_6="13000.00000" pt_clust_7="13000.00000" pt_clust_8="13000.00000" pt_clust_9="82.95461"></scales>
<clustering>
<clus scale="   80.560">  5  6 -1 -1</clus>
<clus scale="   82.955">  2  9  1 -1</clus>
<clus scale="   85.677">  2  5  1 -1</clus>
<clus scale="   91.211">  7  8 -1 -1</clus>
<clus scale="   82.955">  2  5  1 -1</clus>
</clustering>
</event>
<event>
 9    1  0.7586638E-005  0.2075388E+03  0.7546771E-02  0.1144444E+00
         21   -1    0    0  501  502  0.00000000000E+00  0.00000000000E+00  0.52309761601E+03  0.52309761601E+03  0.00000000000E+00 0.  1.
         -4   -1    0    0    0  501 -0.00000000000E+00 -0.00000000000E+00 -0.18868667108E+03  0.18868667108E+03  0.00000000000E+00 0.  1.
         23    2    1    2    0    0 -0.10054282651E+03  0.14236254532E+03  0.37248317597E+01  0.19676114024E+03  0.91242082740E+02 0.  0.
        -24    2    1    2    0    0  0.68551299107E+02 -0.18173406449E+03  0.43173888217E+02  0.22306963369E+03  0.10084406798E+03 0.  0.
         13    1    4    4    0    0  0.87697712900E+02 -0.96948237835E+02  0.37325366496E+02  0.13595231757E+03  0.00000000000E+00 0. -1.
        -14    1    4    4    0    0 -0.19146413794E+02 -0.84785826654E+02  0.58485217215E+01  0.87117316125E+02  0.00000000000E+00 0.  1.
        -11    1    3    3    0    0 -0.65898745156E+02  0.61809035422E+02  0.43733825456E+02  0.10037753216E+03  0.00000000000E+00 0. -1.
         11    1    3    3    0    0 -0.34644081355E+02  0.80553509898E+02 -0.40008993697E+02  0.96383608079E+02  0.00000000000E+00 0.  1.
         -3    1    1    2    0  502  0.31991527404E+02  0.39371519169E+02  0.28751222496E+03  0.29195351316E+03  0.00000000000E+00 0.  1.
<scales pt_clust_5="13000.00000" pt_clust_6="13000.00000" pt_clust_7="13000.00000" pt_clust_8="13000.00000" pt_clust_9="50.73041"></scales>
<clustering>
<clus scale="   50.730">  1  9  2 -1</clus>
<clus scale="   91.242">  7  8 -1 -1</clus>
<clus scale="  100.844">  5  6 -1 -1</clus>
<clus scale="  203.047">  2  7  1 -1</clus>
<clus scale="   50.730">  1  5  2 -1</clus>
</clustering>
</event>
<event>
 9    1  0.7586638E-005  0.3465520E+03  0.7546771E-02  0.1101050E+00
          3   -1    0    0  502    0 -0.00000000000E+00  0.00000000000E+00  0.71508301185E+03  0.71508301185E+03  0.00000000000E+00 0. -1.
         21   -1    0    0  501  502  0.00000000000E+00 -0.00000000000E+00 -0.23461892305E+03  0.23461892305E+03  0.00000000000E+00 0. -1.
         23    2    1    2    0    0 -0.42595605671E+02  0.21599884748E+02  0.84813481737E+02  0.15392261591E+03  0.11923885424E+03 0.  0.
        -24    2    1    2    0    0 -0.50184186778E+02 -0.34124464518E+03  0.24465568684E+03  0.43029289149E+03  0.79556312744E+02 0.  0.
         11    1    4    4    0    0 -0.42715128311E+02 -0.25551067374E+03  0.22234132721E+03  0.34138827215E+03  0.00000000000E+00 0. -1.
        -12    1    4    4    0    0 -0.74690584672E+01 -0.85733971444E+02  0.22314359638E+02  0.88904619340E+02  0.00000000000E+00 0.  1.
        -11    1    3    3    0    0  0.31662639145E+01 -0.30592339466E+02 -0.13488601167E+02  0.33583609435E+02  0.00000000000E+00 0. -1.
         11    1    3    3    0    0 -0.45761869586E+02  0.52192224214E+02  0.98302082904E+02  0.12033900648E+03  0.00000000000E+00 0.  1.
          4    1    1    2  501    0  0.92779792450E+02  0.31964476043E+03  0.15099492022E+03  0.36548642750E+03  0.00000000000E+00 0. -1.
<scales pt_clust_5="13000.00000" pt_clust_6="13000.00000" pt_clust_7="13000.00000" pt_clust_8="13000.00000" pt_clust_9="337.29676"></scales>
<clustering>
<clus scale="   79.556">  5  6 -1 -1</clus>
<clus scale="  119.239">  7  8 -1 -1</clus>
<clus scale="  128.448">  1  7  2 -1</clus>
<clus scale="  337.297">  2  9  1 -1</clus>
<clus scale="  337.297">  2  5  1 -1</clus>
</clustering>
</event>
<event>
 9    1  0.7586638E-005  0.9542978E+02  0.7546771E-02  0.1294604E+00
          3   -1    0    0  502    0 -0.00000000000E+00  0.00000000000E+00  0.49671771781E+02  0.49671771781E+02  0.00000000000E+00 0. -1.
         21   -1    0    0  501  502  0.00000000000E+00 -0.00000000000E+00 -0.32646947836E+03  0.32646947836E+03  0.00000000000E+00 0. -1.
        -24    2    1    2    0    0 -0.30349680402E+02  0.10789760298E+02 -0.67702383386E+02  0.10933538082E+03  0.79580718491E+02 0.  0.
         23    2    1    2    0    0  0.30208862808E+02 -0.48839991560E+02 -0.20266971699E+03  0.22821664357E+03  0.87806047902E+02 0.  0.
         13    1    3    3    0    0 -0.32791799772E+02 -0.28903530208E+02 -0.48111763083E+02  0.65003522502E+02  0.00000000000E+00 0. -1.
        -14    1    3    3    0    0  0.24421193707E+01  0.39693290506E+02 -0.19590620303E+02  0.44331858319E+02  0.00000000000E+00 0.  1.
        -13    1    4    4    0    0  0.42127733778E+02 -0.17047456297E+02 -0.35594570816E+02  0.57726382106E+02  0.00000000000E+00 0.  1.
         13    1    4    4    0    0 -0.11918870970E+02 -0.31792535263E+02 -0.16707514618E+03  0.17049026146E+03  0.00000000000E+00 0. -1.
          4    1    1    2  501    0  0.14081759331E+00  0.38050231263E+02 -0.64256061978E+01  0.38589225747E+02  0.00000000000E+00 0. -1.
<scales pt_clust_5="13000.00000" pt_clust_6="13000.00000" pt_clust_7="13000.00000" pt_clust_8="13000.00000" pt_clust_9="38.05051"></scales>
<clustering>
<clus scale="   38.051">  2  9  1 -1</clus>
<clus scale="   79.581">  5  6 -1 -1</clus>
<clus scale="   87.806">  7  8 -1 -1</clus>
<clus scale="   87.921">  1  5  2 -1</clus>
<clus scale="   38.051">  2  5  1 -1</clus>
</clustering>
</event>
<event>
 9    1  0.7586638E-005  0.1383866E+03  0.7546771E-02  0.1223357E+00
         21   -1    0    0  501  502  0.00000000000E+00  0.00000000000E+00  0.54743497272E+03  0.54743497272E+03  0.00000000000E+00 0. -1.
          1   -1    0    0  502    0 -0.00000000000E+00 -0.00000000000E+00 -0.76795704684E+02  0.76795704684E+02  0.00000000000E+00 0. -1.
        -24    2    1    2    0    0 -0.69461471025E+02 -0.50196645087E+02  0.43502701813E+02  0.12516578436E+03  0.80183473200E+02 0.  0.
         23    2    1    2    0    0 -0.47195320543E+02  0.74389761803E+02  0.15177597676E+03  0.19903561423E+03  0.93904172797E+02 0.  0.
         13    1    3    3    0    0 -0.35696601674E+02  0.40065799288E+01 -0.14652246873E+02  0.38794179876E+02  0.00000000000E+00 0. -1.
        -14    1    3    3    0    0 -0.33764869351E+02 -0.54203225016E+02  0.58154948686E+02  0.86371604484E+02  0.00000000000E+00 0.  1.
        -11    1    4    4    0    0 -0.59186466733E+02  0.27974717266E+02  0.38291153783E+02  0.75840853822E+02  0.00000000000E+00 0. -1.
         11    1    4    4    0    0  0.11991146190E+02  0.46415044537E+02  0.11348482297E+03  0.12319476041E+03  0.00000000000E+00 0.  1.
          2    1    1    2  501    0  0.11665679157E+03 -0.24193116716E+02  0.27536058947E+03  0.30002927882E+03  0.00000000000E+00 0. -1.
<scales pt_clust_5="13000.00000" pt_clust_6="13000.00000" pt_clust_7="13000.00000" pt_clust_8="13000.00000" pt_clust_9="101.65065"></scales>
<clustering>
<clus scale="   80.183">  5  6 -1 -1</clus>
<clus scale="   93.904">  7  8 -1 -1</clus>
<clus scale="  117.363">  2  5  1 -1</clus>
<clus scale="  101.651">  1  9  2 -1</clus>
<clus scale="  101.651">  1  5  2 -1</clus>
</clustering>
</event>
<event>
 9    1  0.7586638E-005  0.1816551E+03  0.7546771E-02  0.1167412E+00
         21   -1    0    0  501  502  0.00000000000E+00  0.00000000000E+00  0.19674783022E+03  0.19674783022E+03  0.00000000000E+00 0.  1.
         -2   -1    0    0    0  501 -0.00000000000E+00 -0.00000000000E+00 -0.28000105762E+03  0.28000105762E+03  0.00000000000E+00 0.  1.
        -24    2    1    2    0    0  0.14473580514E+03  0.59631050657E+02 -0.14238559361E+03  0.22691858288E+03  0.81939431888E+02 0.  0.
         23    2    1    2    0    0 -0.16065093135E+03 -0.15799694890E+02  0.16417046198E+02  0.18659204474E+03  0.92134247998E+02 0.  0.
         11    1    3    3    0    0  0.28531456818E+02  0.21597046097E+02  0.42038921105E+01  0.36029836763E+02  0.00000000000E+00 0. -1.
        -12    1    3    3    0    0  0.11620434832E+03  0.38034004560E+02 -0.14658948572E+03  0.19088874612E+03  0.00000000000E+00 0.  1.
        -11    1    4    4    0    0 -0.15193166415E+03  0.97471447433E+01  0.31790091074E+02  0.15552764157E+03  0.00000000000E+00 0.  1.
         11    1    4    4    0    0 -0.87192671980E+01 -0.25546839633E+02 -0.15373044876E+02  0.31064403173E+02  0.00000000000E+00 0. -1.
         -1    1    1    2    0  502  0.15915126210E+02 -0.43831355766E+02  0.42715320015E+02  0.63238260211E+02  0.00000000000E+00 0.  1.
<scales pt_clust_5="13000.00000" pt_clust_6="13000.00000" pt_clust_7="13000.00000" pt_clust_8="13000.00000" pt_clust_9="46.63131"></scales>
<clustering>
<clus scale="   46.631">  1  9  2 -1</clus>
<clus scale="   81.939">  5  6 -1 -1</clus>
<clus scale="   92.134">  7  8 -1 -1</clus>
<clus scale="  176.703">  2  5  1 -1</clus>
<clus scale="   46.631">  1  5  2 -1</clus>
</clustering>
</event>
<event>
 9    1  0.7586638E-005  0.1191854E+03  0.7546771E-02  0.1248493E+00
         21   -1    0    0  501  502  0.00000000000E+00  0.00000000000E+00  0.17970059451E+03  0.17970059451E+03  0.00000000000E+00 0. -1.
          1   -1    0    0  502    0 -0.00000000000E+00 -0.00000000000E+00 -0.16115174421E+03  0.16115174421E+03  0.00000000000E+00 0. -1.
         23    2    1    2    0    0  0.86600788878E+01 -0.42484741268E+02  0.24997286749E+02  0.10501792819E+03  0.92325244053E+02 0.  0.
        -24    2    1    2    0    0 -0.66252279988E+02  0.63910358745E+02  0.55081967225E+02  0.14887517130E+03  0.10322739441E+03 0.  0.
         11    1    4    4    0    0 -0.24909104887E+02  0.60496660334E+02 -0.15289052549E+02  0.67186788476E+02  0.00000000000E+00 0. -1.
        -12    1    4    4    0    0 -0.41343175101E+02  0.34136984115E+01  0.70371019774E+02  0.81688382823E+02  0.00000000000E+00 0.  1.
        -13    1    3    3    0    0 -0.19384972957E+02 -0.12491381062E+02 -0.29082083898E+02  0.37115756509E+02  0.00000000000E+00 0. -1.
         13    1    3    3    0    0  0.28045051845E+02 -0.29993360206E+02  0.54079370647E+02  0.67902171681E+02  0.00000000000E+00 0.  1.
          2    1    1    2  501    0  0.57592201100E+02 -0.21425617477E+02 -0.61530403667E+02  0.86959239229E+02  0.00000000000E+00 0. -1.
<scales pt_clust_5="13000.00000" pt_clust_6="13000.00000" pt_clust_7="13000.00000" pt_clust_8="13000.00000" pt_clust_9="61.44854"></scales>
<clustering>
<clus scale="   61.449">  1  9  2 -1</clus>
<clus scale="   92.325">  7  8 -1 -1</clus>
<clus scale="  103.227">  5  6 -1 -1</clus>
<clus scale="  109.878">  2  7  1 -1</clus>
<clus scale="   61.449">  1  5  2 -1</clus>
</clustering>
</event>
<event>
 9    1  0.7586638E-005  0.9786643E+02  0.7546771E-02  0.1291203E+00
         -2   -1    0    0    0  501 -0.00000000000E+00  0.00000000000E+00  0.17991951722E+03  0.17991951722E+03  0.00000000000E+00 0.  1.
         21   -1    0    0  501  502  0.00000000000E+00 -0.00000000000E+00 -0.89151421671E+02  0.89151421671E+02  0.00000000000E+00 0. -1.
         23    2    1    2    0    0  0.29059598509E+02  0.24899213101E+02  0.48209238226E+02  0.11203272375E+03  0.93609665429E+02 0.  0.
        -24    2    1    2    0    0  0.21283944742E+02 -0.30743138869E+02 -0.10894151069E+01  0.90151777789E+02  0.82024443443E+02 0.  0.
         13    1    4    4    0    0 -0.18094404504E+02 -0.43429038818E+02 -0.93397689683E+01  0.47965822951E+02  0.00000000000E+00 0. -1.
        -14    1    4    4    0    0  0.39378349245E+02  0.12685899949E+02  0.82503538615E+01  0.42185954839E+02  0.00000000000E+00 0.  1.
        -13    1    3    3    0    0  0.70256217701E+01 -0.27827179880E+02  0.46764625339E+02  0.54869312775E+02  0.00000000000E+00 0.  1.
         13    1    3    3    0    0  0.22033976739E+02  0.52726392981E+02  0.14446128863E+01  0.57163410973E+02  0.00000000000E+00 0. -1.
         -1    1    1    2    0  502 -0.50343543251E+02  0.58439257673E+01  0.43648272426E+02  0.66886437349E+02  0.00000000000E+00 0.  1.
<scales pt_clust_5="13000.00000" pt_clust_6="13000.00000" pt_clust_7="13000.00000" pt_clust_8="13000.00000" pt_clust_9="50.68162"></scales>
<clustering>
<clus scale="   50.682">  2  9  1 -1</clus>
<clus scale="   82.024">  5  6 -1 -1</clus>
<clus scale="   86.851">  2  5  1 -1</clus>
<clus scale="   93.610">  7  8 -1 -1</clus>
<clus scale="   50.682">  2  5  1 -1</clus>
</clustering>
</event>
<event>
 9    1  0.7586638E-005  0.1131535E+03  0.7546771E-02  0.1259283E+00
         21   -1    0    0  501  502  0.00000000000E+00  0.00000000000E+00  0.19250610511E+03  0.19250610511E+03  0.00000000000E+00 0. -1.
          3   -1    0    0  502    0 -0.00000000000E+00 -0.00000000000E+00 -0.22785289152E+03  0.22785289152E+03  0.00000000000E+00 0. -1.
        -24    2    1    2    0    0  0.53260657447E+02 -0.20484434312E+02 -0.14207176214E+03  0.17429737696E+03  0.83299942008E+02 0.  0.
         23    2    1    2    0    0 -0.60916418875E+02  0.56192716482E+02 -0.74470913352E+01  0.12619105198E+03  0.94869863265E+02 0.  0.
         11    1    3    3    0    0 -0.16271798861E+02  0.14188403305E+02 -0.45399176253E+02  0.50270940223E+02  0.00000000000E+00 0. -1.
        -12    1    3    3    0    0  0.69532456308E+02 -0.34672837617E+02 -0.96672585885E+02  0.12402643674E+03  0.00000000000E+00 0.  1.
        -11    1    4    4    0    0  0.10373685587E+02  0.38324639838E+02 -0.29494350301E+02  0.49460166508E+02  0.00000000000E+00 0.  1.
         11    1    4    4    0    0 -0.71290104462E+02  0.17868076644E+02  0.22047258966E+02  0.76730885470E+02  0.00000000000E+00 0. -1.
          4    1    1    2  501    0  0.76557614283E+01 -0.35708282170E+02  0.11417206707E+03  0.11987056769E+03  0.00000000000E+00 0. -1.
<scales pt_clust_5="13000.00000" pt_clust_6="13000.00000" pt_clust_7="13000.00000" pt_clust_8="13000.00000" pt_clust_9="36.51975"></scales>
<clustering>
<clus scale="   36.520">  1  9  2 -1</clus>
<clus scale="   83.300">  5  6 -1 -1</clus>
<clus scale="   94.870">  7  8 -1 -1</clus>
<clus scale="  103.645">  2  5  1 -1</clus>
<clus scale="   36.520">  1  5  2 -1</clus>
</clustering>
</event>
<event>
 9    1  0.7586638E-005  0.9361036E+02  0.7546771E-02  0.1297901E+00
          1   -1    0    0  502    0 -0.00000000000E+00  0.00000000000E+00  0.12701864648E+03  0.12701864648E+03  0.00000000000E+00 0. -1.
         21   -1    0    0  501  502  0.00000000000E+00 -0.00000000000E+00 -0.27371878555E+03  0.27371878555E+03  0.00000000000E+00 0.  1.
        -24    2    1    2    0    0 -0.42980845757E+02 -0.47592962099E+01  0.65473484746E+02  0.11313581870E+03  0.81504185567E+02 0.  0.
         23    2    1    2    0    0 -0.42291240133E+02 -0.18888226949E+02 -0.14811640108E+03  0.17835939727E+03  0.87910705943E+02 0.  0.
         11    1    3    3    0    0  0.22408978542E+02 -0.96408068128E+01  0.72607999814E+01  0.25452439798E+02  0.00000000000E+00 0. -1.
        -12    1    3    3    0    0 -0.65389824298E+02  0.48815106029E+01  0.58212684764E+02  0.87683378898E+02  0.00000000000E+00 0.  1.
        -13    1    4    4    0    0  0.43121482036E+01 -0.44706658537E+02 -0.54275592410E+02  0.70449413561E+02  0.00000000000E+00 0. -1.
         13    1    4    4    0    0 -0.46603388336E+02  0.25818431588E+02 -0.93840808665E+02  0.10790998371E+03  0.00000000000E+00 0.  1.
          2    1    1    2  501    0  0.85272085889E+02  0.23647523159E+02 -0.64057222746E+02  0.10924221606E+03  0.00000000000E+00 0. -1.
<scales pt_clust_5="13000.00000" pt_clust_6="13000.00000" pt_clust_7="13000.00000" pt_clust_8="13000.00000" pt_clust_9="88.49030"></scales>
<clustering>
<clus scale="   81.504">  5  6 -1 -1</clus>
<clus scale="   87.911">  7  8 -1 -1</clus>
<clus scale="   88.490">  2  9  1 -1</clus>
<clus scale="   87.622">  1  5  2 -1</clus>
<clus scale="   88.490">  2  5  1 -1</clus>
</clustering>
</event>
<event>
 9    1  0.7586638E-005  0.1433390E+03  0.7546771E-02  0.1215904E+00
         -4   -1    0    0    0  501 -0.00000000000E+00  0.00000000000E+00  0.45070057560E+03  0.45070057560E+03  0.00000000000E+00 0.  1.
         21   -1    0    0  501  502  0.00000000000E+00 -0.00000000000E+00 -0.10675624051E+03  0.10675624051E+03  0.00000000000E+00 0. -1.
         23    2    1    2    0    0 -0.71525287176E+02  0.88638356411E+02  0.34969778341E+03  0.38056812657E+03  0.97831152028E+02 0.  0.
        -24    2    1    2    0    0  0.82556268631E+02 -0.20336929530E+02 -0.87205731826E+01  0.10763862603E+03  0.65428565811E+02 0.  0.
         13    1    4    4    0    0  0.84336558887E+02 -0.12953972812E+02 -0.25638466568E+02  0.89094284578E+02  0.00000000000E+00 0. -1.
        -14    1    4    4    0    0 -0.17802902557E+01 -0.73829567180E+01  0.16917893386E+02  0.18544341452E+02  0.00000000000E+00 0.  1.
        -11    1    3    3    0    0 -0.15308898964E+02  0.79043508012E+02  0.12452670170E+03  0.14828734936E+03  0.00000000000E+00 0.  1.
         11    1    3    3    0    0 -0.56216388213E+02  0.95948483993E+01  0.22517108171E+03  0.23228077720E+03  0.00000000000E+00 0. -1.
         -3    1    1    2    0  502 -0.11030981455E+02 -0.68301426881E+02  0.29671248668E+01  0.69250063508E+02  0.00000000000E+00 0.  1.
<scales pt_clust_5="13000.00000" pt_clust_6="13000.00000" pt_clust_7="13000.00000" pt_clust_8="13000.00000" pt_clust_9="69.18647"></scales>
<clustering>
<clus scale="   65.429">  5  6 -1 -1</clus>
<clus scale="   69.186">  2  9  1 -1</clus>
<clus scale="   97.831">  7  8 -1 -1</clus>
<clus scale="  123.515">  2  5  1 -1</clus>
<clus scale="   69.186">  2  5  1 -1</clus>
</clustering>
</event>
<event>
 9    1  0.7586638E-005  0.1007652E+03  0.7546771E-02  0.1287228E+00
         -2   -1    0    0    0  501 -0.00000000000E+00  0.00000000000E+00  0.96694105927E+02  0.96694105927E+02  0.00000000000E+00 0.  1.
         21   -1    0    0  501  502  0.00000000000E+00 -0.00000000000E+00 -0.17108813310E+03  0.17108813310E+03  0.00000000000E+00 0.  1.
        -24    2    1    2    0    0 -0.29183588543E+02 -0.39445654421E+02 -0.19021946881E+02  0.90631949101E+02  0.73788035898E+02 0.  0.
         23    2    1    2    0    0 -0.30700052235E+02  0.48935081948E+02 -0.34831036374E+02  0.11313440008E+03  0.90824313563E+02 0.  0.
         11    1    3    3    0    0 -0.32003645452E+02  0.12051665897E+02  0.34563687260E+01  0.34371826514E+02  0.00000000000E+00 0. -1.
        -12    1    3    3    0    0  0.28200569088E+01 -0.51497320319E+02 -0.22478315607E+02  0.56260122587E+02  0.00000000000E+00 0.  1.
        -13    1    4    4    0    0  0.24373866438E+02 -0.74720979472E+00 -0.30202894721E+02  0.38818275814E+02  0.00000000000E+00 0. -1.
         13    1    4    4    0    0 -0.55073918673E+02  0.49682291743E+02 -0.46281416527E+01  0.74316124267E+02  0.00000000000E+00 0.  1.
         -1    1    1    2    0  502  0.59883640778E+02 -0.94894275270E+01 -0.20541043919E+02  0.64015889847E+02  0.00000000000E+00 0.  1.
<scales pt_clust_5="13000.00000" pt_clust_6="13000.00000" pt_clust_7="13000.00000" pt_clust_8="13000.00000" pt_clust_9="60.63085"></scales>
<clustering>
<clus scale="   60.631">  2  9  1 -1</clus>
<clus scale="   73.788">  5  6 -1 -1</clus>
<clus scale="   85.728">  1  5  2 -1</clus>
<clus scale="   90.824">  7  8 -1 -1</clus>
<clus scale="   60.631">  2  5  1 -1</clus>
</clustering>
</event>
<event>
 9    1  0.7586638E-005  0.1042157E+03  0.7546771E-02  0.1278659E+00
         21   -1    0    0  501  502  0.00000000000E+00  0.00000000000E+00  0.23463764407E+03  0.23463764407E+03  0.00000000000E+00 0. -1.
          1   -1    0    0  502    0 -0.00000000000E+00 -0.00000000000E+00 -0.88849373030E+02  0.88849373030E+02  0.00000000000E+00 0. -1.
         23    2    1    2    0    0 -0.46230937711E+02 -0.17302011817E+02 -0.34234656944E+02  0.11170978659E+03  0.94182830008E+02 0.  0.
        -24    2    1    2    0    0  0.29036999884E+02 -0.33274895363E+01  0.13622470466E+03  0.16040124206E+03  0.79480618665E+02 0.  0.
         13    1    4    4    0    0 -0.27011048524E+02 -0.32715864732E+01  0.31520121204E+02  0.41639140975E+02  0.00000000000E+00 0. -1.
        -14    1    4    4    0    0  0.56048048409E+02 -0.55903063067E-01  0.10470458346E+03  0.11876210108E+03  0.00000000000E+00 0.  1.
        -13    1    3    3    0    0 -0.21330863948E+02 -0.34138355068E+02  0.23505238537E+02  0.46614689554E+02  0.00000000000E+00 0.  1.
         13    1    3    3    0    0 -0.24900073764E+02  0.16836343251E+02 -0.57739895480E+02  0.65095097032E+02  0.00000000000E+00 0. -1.
          2    1    1    2  501    0  0.17193937827E+02  0.20629501354E+02  0.43798223318E+02  0.51375988457E+02  0.00000000000E+00 0. -1.
<scales pt_clust_5="13000.00000" pt_clust_6="13000.00000" pt_clust_7="13000.00000" pt_clust_8="13000.00000" pt_clust_9="26.85531"></scales>
<clustering>
<clus scale="   26.855">  1  9  2 -1</clus>
<clus scale="   79.481">  5  6 -1 -1</clus>
<clus scale="   91.146">  1  5  2 -1</clus>
<clus scale="   94.183">  7  8 -1 -1</clus>
<clus scale="   26.855">  1  5  2 -1</clus>
</clustering>
</event>
<event>
 9    1  0.7586638E-005  0.1337213E+03  0.7546771E-02  0.1224426E+00
         21   -1    0    0  501  502  0.00000000000E+00  0.00000000000E+00  0.36897293944E+03  0.36897293944E+03  0.00000000000E+00 0. -1.
          1   -1    0    0  502    0 -0.00000000000E+00 -0.00000000000E+00 -0.10260167587E+03  0.10260167587E+03  0.00000000000E+00 0. -1.
        -24    2    1    2    0    0  0.10174458567E+03 -0.17669292187E+02 -0.33854095577E+02  0.13547721253E+03  0.80893823786E+02 0.  0.
         23    2    1    2    0    0 -0.75239580314E+02  0.12786070021E+02  0.20204333923E+03  0.23428350292E+03  0.90789706364E+02 0.  0.
         11    1    3    3    0    0  0.77811919583E+02 -0.32292551052E+02 -0.54774504002E+02  0.10048756128E+03  0.00000000000E+00 0. -1.
        -12    1    3    3    0    0  0.23932666091E+02  0.14623258865E+02  0.20920408425E+02  0.34989651252E+02  0.00000000000E+00 0.  1.
        -13    1    4    4    0    0 -0.89752923886E+01 -0.34032129100E+02  0.83692789596E+02  0.90792206246E+02  0.00000000000E+00 0.  1.
         13    1    4    4    0    0 -0.66264287925E+02  0.46818199121E+02  0.11835054963E+03  0.14349129668E+03  0.00000000000E+00 0. -1.
          2    1    1    2  501    0 -0.26505005361E+02  0.48832221664E+01  0.98182019923E+02  0.10181389986E+03  0.00000000000E+00 0. -1.
<scales pt_clust_5="13000.00000" pt_clust_6="13000.00000" pt_clust_7="13000.00000" pt_clust_8="13000.00000" pt_clust_9="26.95109"></scales>
<clustering>
<clus scale="   26.951">  1  9  2 -1</clus>
<clus scale="   80.894">  5  6 -1 -1</clus>
<clus scale="   90.790">  7  8 -1 -1</clus>
<clus scale="  127.210">  2  5  1 -1</clus>
<clus scale="   26.951">  1  5  2 -1</clus>
</clustering>
</event>
<event>
 9    1  0.7586638E-005  0.1280319E+03  0.7546771E-02  0.1232101E+00
         -2   -1    0    0    0  501 -0.00000000000E+00  0.00000000000E+00  0.10307046575E+03  0.10307046575E+03  0.00000000000E+00 0.  1.
         21   -1    0    0  501  502  0.00000000000E+00 -0.00000000000E+00 -0.23452599765E+03  0.23452599765E+03  0.00000000000E+00 0. -1.
        -24    2    1    2    0    0  0.77843801010E+02 -0.63624914521E+02 -0.22184695199E+02  0.13021441121E+03  0.79723554129E+02 0.  0.
         23    2    1    2    0    0 -0.52716354608E+02  0.89236339412E+02 -0.11514206633E+03  0.17102541613E+03  0.72455912186E+02 0.  0.
         11    1    3    3    0    0  0.19008392846E+02  0.12150997340E+02  0.15253307653E+02  0.27232868548E+02  0.00000000000E+00 0. -1.
        -12    1    3    3    0    0  0.58835408164E+02 -0.75775911861E+02 -0.37438002853E+02  0.10298154267E+03  0.00000000000E+00 0.  1.
        -13    1    4    4    0    0  0.16905363448E+02  0.21819778651E+02 -0.14009712283E+02  0.30954258059E+02  0.00000000000E+00 0.  1.
         13    1    4    4    0    0 -0.69621718057E+02  0.67416560761E+02 -0.10113235404E+03  0.14007115807E+03  0.00000000000E+00 0. -1.
         -1    1    1    2    0  502 -0.25127446402E+02 -0.25611424891E+02  0.58712296289E+01  0.36356636052E+02  0.00000000000E+00 0.  1.
<scales pt_clust_5="13000.00000" pt_clust_6="13000.00000" pt_clust_7="13000.00000" pt_clust_8="13000.00000" pt_clust_9="35.87945"></scales>
<clustering>
<clus scale="   35.879">  2  9  1 -1</clus>
<clus scale="   72.456">  7  8 -1 -1</clus>
<clus scale="   79.724">  5  6 -1 -1</clus>
<clus scale="  123.637">  2  7  1 -1</clus>
<clus scale="   35.879">  2  5  1 -1</clus>
</clustering>
</event>
<event>
 9    1  0.7586638E-005  0.1519684E+03  0.7546771E-02  0.1221707E+00
         21   -1    0    0  501  502  0.00000000000E+00  0.00000000000E+00  0.50676652794E+02  0.50676652794E+02  0.00000000000E+00 0. -1.
          1   -1    0    0  502    0 -0.00000000000E+00 -0.00000000000E+00 -0.79364916042E+03  0.79364916042E+03  0.00000000000E+00 0. -1.
        -24    2    1    2    0    0 -0.44831677153E+02  0.11656598573E+02 -0.32086559113E+03  0.33372130776E+03  0.79179720384E+02 0.  0.
         23    2    1    2    0    0  0.35476877192E+01  0.10596248234E+03 -0.31603888968E+03  0.34693092087E+03  0.96124140095E+02 0.  0.
         13    1    3    3    0    0 -0.31216054149E+02  0.36607165404E+02 -0.27900626519E+03  0.28312368783E+03  0.00000000000E+00 0. -1.
        -14    1    3    3    0    0 -0.13615623004E+02 -0.24950566831E+02 -0.41859325932E+02  0.50597619929E+02  0.00000000000E+00 0.  1.
        -11    1    4    4    0    0  0.20309822687E+02 -0.66791227010E+01 -0.10471106434E+03  0.10687144882E+03  0.00000000000E+00 0.  1.
         11    1    4    4    0    0 -0.16762134968E+02  0.11264160504E+03 -0.21132782535E+03  0.24005947205E+03  0.00000000000E+00 0. -1.
          2    1    1    2  501    0  0.41283989434E+02 -0.11761908091E+03 -0.10606802682E+03  0.16367358459E+03  0.00000000000E+00 0. -1.
<scales pt_clust_5="13000.00000" pt_clust_6="13000.00000" pt_clust_7="13000.00000" pt_clust_8="13000.00000" pt_clust_9="117.70532"></scales>
<clustering>
<clus scale="   79.180">  5  6 -1 -1</clus>
<clus scale="   91.734">  2  5  1 -1</clus>
<clus scale="   96.124">  7  8 -1 -1</clus>
<clus scale="  117.705">  1  9  2 -1</clus>
<clus scale="  117.705">  1  5  2 -1</clus>
</clustering>
</event>
<event>
 9    1  0.7586638E-005  0.9737046E+02  0.7546771E-02  0.1288423E+00
         -2   -1    0    0    0  501 -0.00000000000E+00  0.00000000000E+00  0.11669280148E+03  0.11669280148E+03  0.00000000000E+00 0.  1.
         21   -1    0    0  501  502  0.00000000000E+00 -0.00000000000E+00 -0.39851265574E+03  0.39851265574E+03  0.00000000000E+00 0.  1.
        -24    2    1    2    0    0  0.67984752162E+01 -0.45455776916E+02  0.72095939289E+02  0.12077044904E+03  0.85294958694E+02 0.  0.
         23    2    1    2    0    0  0.10490946408E+02 -0.70433874773E+01 -0.10279746639E+03  0.13730566214E+03  0.90143532743E+02 0.  0.
         13    1    3    3    0    0  0.30197417748E+02 -0.56712755250E+02  0.29081369875E+02  0.70526213003E+02  0.00000000000E+00 0. -1.
        -14    1    3    3    0    0 -0.23398942532E+02  0.11256978335E+02  0.43014569414E+02  0.50244236035E+02  0.00000000000E+00 0.  1.
        -11    1    4    4    0    0  0.19642964503E+02 -0.41721502100E+02 -0.86256664290E+02  0.97809723067E+02  0.00000000000E+00 0.  1.
         11    1    4    4    0    0 -0.91520180952E+01  0.34678114623E+02 -0.16540802100E+02  0.39495939072E+02  0.00000000000E+00 0. -1.
         -1    1    1    2    0  502 -0.17289421624E+02  0.52499164393E+02 -0.25111832716E+03  0.25712934604E+03  0.00000000000E+00 0.  1.
<scales pt_clust_5="13000.00000" pt_clust_6="13000.00000" pt_clust_7="13000.00000" pt_clust_8="13000.00000" pt_clust_9="55.27284"></scales>
<clustering>
<clus scale="   55.273">  2  9  1 -1</clus>
<clus scale="   85.295">  5  6 -1 -1</clus>
<clus scale="   90.144">  7  8 -1 -1</clus>
<clus scale="   92.900">  1  5  2 -1</clus>
<clus scale="   55.273">  2  5  1 -1</clus>
</clustering>
</event>
<event>
 9    1  0.7586638E-005  0.1775097E+03  0.7546771E-02  0.1171191E+00
          1   -1    0    0  502    0 -0.00000000000E+00  0.00000000000E+00  0.20278156192E+03  0.20278156192E+03  0.00000000000E+00 0. -1.
         21   -1    0    0  501  502  0.00000000000E+00 -0.00000000000E+00 -0.32043603047E+03  0.32043603047E+03  0.00000000000E+00 0. -1.
        -24    2    1    2    0    0  0.18419687645E+03 -0.43964631571E+02  0.52674601560E+02  0.21282803937E+03  0.81607490884E+02 0.  0.
         23    2    1    2    0    0 -0.96650335866E+02  0.62627470437E+02 -0.38144970663E+02  0.15074828495E+03  0.89479154856E+02 0.  0.
         11    1    3    3    0    0  0.12944655549E+03 -0.66084712073E+02  0.50063573221E+02  0.15372039963E+03  0.00000000000E+00 0. -1.
        -12    1    3    3    0    0  0.54750320965E+02  0.22120080502E+02  0.26110283394E+01  0.59107639745E+02  0.00000000000E+00 0.  1.
        -13    1    4    4    0    0 -0.20691811050E+02 -0.22691077551E+02 -0.13577106106E+01  0.30738891051E+02  0.00000000000E+00 0.  1.
         13    1    4    4    0    0 -0.75958524816E+02  0.85318547988E+02 -0.36787260052E+02  0.12000939390E+03  0.00000000000E+00 0. -1.
          2    1    1    2  501    0 -0.87546540589E+02 -0.18662838865E+02 -0.13218409945E+03  0.15964126807E+03  0.00000000000E+00 0. -1.
<scales pt_clust_5="13000.00000" pt_clust_6="13000.00000" pt_clust_7="13000.00000" pt_clust_8="13000.00000" pt_clust_9="89.51368"></scales>
<clustering>
<clus scale="   81.607">  5  6 -1 -1</clus>
<clus scale="   89.479">  7  8 -1 -1</clus>
<clus scale="   89.514">  2  9  1 -1</clus>
<clus scale="  173.675">  1  5  2 -1</clus>
<clus scale="   89.514">  2  5  1 -1</clus>
</clustering>
</event>
<event>
 9    1  0.7586638E-005  0.1043105E+03  0.7546771E-02  0.1275347E+00
         -2   -1    0    0    0  501 -0.00000000000E+00  0.00000000000E+00  0.36091820194E+03  0.36091820194E+03  0.00000000000E+00 0.  1.
         21   -1    0    0  501  502  0.00000000000E+00 -0.00000000000E+00 -0.13113353190E+03  0.13113353190E+03  0.00000000000E+00 0. -1.
        -24    2    1    2    0    0  0.43911124878E+02 -0.17807546864E+02  0.24331069578E+03  0.26126576856E+03  0.82549448961E+02 0.  0.
         23    2    1    2    0    0 -0.30543328962E+02  0.10415148111E+03  0.33262899553E+01  0.14180296975E+03  0.91195351109E+02 0.  0.
         13    1    3    3    0    0  0.20867903312E+02  0.25769310315E+02  0.39473225882E+02  0.51552519863E+02  0.00000000000E+00 0. -1.
        -14    1    3    3    0    0  0.23043221566E+02 -0.43576857179E+02  0.20383746990E+03  0.20971324869E+03  0.00000000000E+00 0.  1.
        -11    1    4    4    0    0 -0.12916963814E+02 -0.15355287306E+02  0.60969601435E+01  0.20971545614E+02  0.00000000000E+00 0.  1.
         11    1    4    4    0    0 -0.17626365148E+02  0.11950676842E+03 -0.27706701882E+01  0.12083142414E+03  0.00000000000E+00 0. -1.
         -1    1    1    2    0  502 -0.13367795916E+02 -0.86343934248E+02 -0.16852315705E+02  0.88982995531E+02  0.00000000000E+00 0.  1.
<scales pt_clust_5="13000.00000" pt_clust_6="13000.00000" pt_clust_7="13000.00000" pt_clust_8="13000.00000" pt_clust_9="87.37261"></scales>
<clustering>
<clus scale="   82.549">  5  6 -1 -1</clus>
<clus scale="   87.373">  2  9  1 -1</clus>
<clus scale="   91.195">  7  8 -1 -1</clus>
<clus scale="   96.843">  1  5  2 -1</clus>
<clus scale="   87.373">  2  5  1 -1</clus>
</clustering>
</event>
<event>
 9    1  0.7586638E-005  0.9230972E+02  0.7546771E-02  0.1303988E+00
         21   -1    0    0  501  502  0.00000000000E+00  0.00000000000E+00  0.71271820940E+02  0.71271820940E+02  0.00000000000E+00 0.  1.
         -2   -1    0    0    0  501 -0.00000000000E+00 -0.00000000000E+00 -0.34541574167E+03  0.34541574167E+03  0.00000000000E+00 0.  1.
        -24    2    1    2    0    0 -0.20526677165E+02  0.69517892244E+00 -0.19136186172E+03  0.20847005106E+03  0.80115992904E+02 0.  0.
         23    2    1    2    0    0 -0.15803837204E+02  0.68662569753E+01  0.23642103385E+02  0.95509109339E+02  0.90918282865E+02 0.  0.
         11    1    3    3    0    0  0.17854387633E+02 -0.28210479206E+02 -0.61052939143E+02  0.69584996032E+02  0.00000000000E+00 0. -1.
        -12    1    3    3    0    0 -0.38381064799E+02  0.28905658129E+02 -0.13030892258E+03  0.13888505503E+03  0.00000000000E+00 0.  1.
        -11    1    4    4    0    0 -0.20676224160E+02 -0.21753422301E+02  0.48669505439E+02  0.57179003025E+02  0.00000000000E+00 0.  1.
         11    1    4    4    0    0  0.48723869561E+01  0.28619679276E+02 -0.25027402054E+02  0.38330106314E+02  0.00000000000E+00 0. -1.
         -1    1    1    2    0  502  0.36330514369E+02 -0.75614358977E+01 -0.10642416239E+03  0.11270840221E+03  0.00000000000E+00 0.  1.
<scales pt_clust_5="13000.00000" pt_clust_6="13000.00000" pt_clust_7="13000.00000" pt_clust_8="13000.00000" pt_clust_9="37.10907"></scales>
<clustering>
<clus scale="   37.109">  1  9  2 -1</clus>
<clus scale="   80.116">  5  6 -1 -1</clus>
<clus scale="   81.692">  2  5  1 -1</clus>
<clus scale="   90.918">  7  8 -1 -1</clus>
<clus scale="   37.109">  1  5  2 -1</clus>
</clustering>
</event>
<event>
 9    1  0.7586638E-005  0.1781194E+03  0.7546771E-02  0.1173064E+00
          1   -1    0    0  502    0 -0.00000000000E+00  0.00000000000E+00  0.21634589474E+03  0.21634589474E+03  0.00000000000E+00 0. -1.
         21   -1    0    0  501  502  0.00000000000E+00 -0.00000000000E+00 -0.19954090605E+03  0.19954090605E+03  0.00000000000E+00 0. -1.
        -24    2    1    2    0    0  0.78184712262E+01 -0.15065456329E+03  0.11170052185E+03  0.20318625526E+03  0.77779957651E+02 0.  0.
         23    2    1    2    0    0 -0.12650897618E+02  0.12909240696E+03 -0.71453587663E+02  0.18048558412E+03  0.10317236131E+03 0.  0.
         11    1    3    3    0    0 -0.15090976523E+02 -0.79764114197E+02  0.98305569745E+02  0.12749131943E+03  0.00000000000E+00 0. -1.
        -12    1    3    3    0    0  0.22909447749E+02 -0.70890449097E+02  0.13394952105E+02  0.75694935836E+02  0.00000000000E+00 0.  1.
        -11    1    4    4    0    0  0.23171140118E+02  0.10064433124E+03 -0.98364692442E+01  0.10374458672E+03  0.00000000000E+00 0.  1.
         11    1    4    4    0    0 -0.35822037736E+02  0.28448075722E+02 -0.61617118418E+02  0.76740997401E+02  0.00000000000E+00 0. -1.
          2    1    1    2  501    0  0.48324263922E+01  0.21562156331E+02 -0.23441945493E+02  0.32214961415E+02  0.00000000000E+00 0. -1.
<scales pt_clust_5="13000.00000" pt_clust_6="13000.00000" pt_clust_7="13000.00000" pt_clust_8="13000.00000" pt_clust_9="22.09703"></scales>
<clustering>
<clus scale="   22.097">  2  9  1 -1</clus>
<clus scale="   77.780">  5  6 -1 -1</clus>
<clus scale="  103.172">  7  8 -1 -1</clus>
<clus scale="  164.717">  1  5  2 -1</clus>
<clus scale="   22.097">  2  5  1 -1</clus>
</clustering>
</event>
<event>
 9    1  0.7586638E-005  0.1215516E+03  0.7546771E-02  0.1245144E+00
         -2   -1    0    0    0  501 -0.00000000000E+00  0.00000000000E+00  0.13784037718E+04  0.13784037718E+04  0.00000000000E+00 0.  1.
         21   -1    0    0  501  502  0.00000000000E+00 -0.00000000000E+00 -0.31952196995E+02  0.31952196995E+02  0.00000000000E+00 0. -1.
        -24    2    1    2    0    0 -0.66306850979E+02  0.44239020977E+02  0.70607314642E+03  0.71501607151E+03  0.79718284967E+02 0.  0.
         23    2    1    2    0    0  0.96089861980E+02  0.47176528805E+02  0.20633097038E+03  0.25077153776E+03  0.94101054028E+02 0.  0.
         13    1    3    3    0    0 -0.77570595364E+02  0.35414302745E+02  0.41913195053E+03  0.42771832093E+03  0.00000000000E+00 0. -1.
        -14    1    3    3    0    0  0.11263744384E+02  0.88247182315E+01  0.28694119590E+03  0.28729775059E+03  0.00000000000E+00 0.  1.
        -13    1    4    4    0    0  0.21059663001E+02 -0.23903862159E+02  0.88375533432E+02  0.93942210647E+02  0.00000000000E+00 0.  1.
         13    1    4    4    0    0  0.75030198978E+02  0.71080390964E+02  0.11795543695E+03  0.15682932712E+03  0.00000000000E+00 0. -1.
         -1    1    1    2    0  502 -0.29783011001E+02 -0.91415549782E+02  0.43404745798E+03  0.44456835949E+03  0.00000000000E+00 0.  1.
<scales pt_clust_5="13000.00000" pt_clust_6="13000.00000" pt_clust_7="13000.00000" pt_clust_8="13000.00000" pt_clust_9="96.14489"></scales>
<clustering>
<clus scale="   79.718">  5  6 -1 -1</clus>
<clus scale="   94.101">  7  8 -1 -1</clus>
<clus scale="   96.145">  2  9  1 -1</clus>
<clus scale="  110.792">  1  5  2 -1</clus>
<clus scale="   96.145">  2  5  1 -1</clus>
</clustering>
</event>
<event>
 9    1  0.7586638E-005  0.1849012E+03  0.7546771E-02  0.1199943E+00
         21   -1    0    0  501  502  0.00000000000E+00  0.00000000000E+00  0.11476676246E+03  0.11476676246E+03  0.00000000000E+00 0. -1.
          3   -1    0    0  502    0 -0.00000000000E+00 -0.00000000000E+00 -0.48986315030E+03  0.48986315030E+03  0.00000000000E+00 0. -1.
        -24    2    1    2    0    0 -0.11161132947E+02  0.28341694051E+01 -0.20234036393E+03  0.21795483173E+03  0.80187794527E+02 0.  0.
         23    2    1    2    0    0 -0.12139970887E+03 -0.99204887237E+02 -0.10109331099E+03  0.20780295782E+03  0.91557155848E+02 0.  0.
         13    1    3    3    0    0 -0.24687637297E+02  0.34495187117E+02 -0.76324132115E+02  0.87319931932E+02  0.00000000000E+00 0. -1.
        -14    1    3    3    0    0  0.13526504349E+02 -0.31661017712E+02 -0.12601623182E+03  0.13063489979E+03  0.00000000000E+00 0.  1.
        -11    1    4    4    0    0 -0.73267694318E+02 -0.87361323353E+02 -0.24581108961E+02  0.11663784449E+03  0.00000000000E+00 0. -1.
         11    1    4    4    0    0 -0.48132014554E+02 -0.11843563884E+02 -0.76512202025E+02  0.91165113334E+02  0.00000000000E+00 0.  1.
          4    1    1    2  501    0  0.13256084182E+03  0.96370717832E+02 -0.71662712917E+02  0.17887212321E+03  0.00000000000E+00 0. -1.
<scales pt_clust_5="13000.00000" pt_clust_6="13000.00000" pt_clust_7="13000.00000" pt_clust_8="13000.00000" pt_clust_9="160.64166"></scales>
<clustering>
<clus scale="   80.188">  5  6 -1 -1</clus>
<clus scale="   81.010">  2  5  1 -1</clus>
<clus scale="   91.557">  7  8 -1 -1</clus>
<clus scale="  160.642">  1  9  2 -1</clus>
<clus scale="  160.642">  1  5  2 -1</clus>
</clustering>
</event>
<event>
 9    1  0.7586638E-005  0.1008522E+03  0.7546771E-02  0.1283801E+00
         -2   -1    0    0    0  501 -0.00000000000E+00  0.00000000000E+00  0.34310214666E+03  0.34310214666E+03  0.00000000000E+00 0.  1.
         21   -1    0    0  501  502  0.00000000000E+00 -0.00000000000E+00 -0.48871520045E+02  0.48871520045E+02  0.00000000000E+00 0.  1.
         23    2    1    2    0    0 -0.30647474276E+02 -0.13777361374E+02  0.16255802976E+03  0.18955171918E+03  0.91518620183E+02 0.  0.
        -24    2    1    2    0    0  0.49055488050E+02  0.42036886410E+02  0.51711532245E+02  0.11563930191E+03  0.80776387956E+02 0.  0.
         13    1    4    4    0    0  0.30434876957E+02 -0.21457723074E+02  0.17390611705E+02  0.41099257784E+02  0.00000000000E+00 0. -1.
        -14    1    4    4    0    0  0.18620611093E+02  0.63494609484E+02  0.34320920540E+02  0.74540044122E+02  0.00000000000E+00 0.  1.
        -11    1    3    3    0    0 -0.55247324068E+02  0.38994924980E+01  0.55962314855E+02  0.78735338586E+02  0.00000000000E+00 0. -1.
         11    1    3    3    0    0  0.24599849791E+02 -0.17676853872E+02  0.10659571491E+03  0.11081638060E+03  0.00000000000E+00 0.  1.
         -1    1    1    2    0  502 -0.18408013774E+02 -0.28259525036E+02  0.79961064611E+02  0.86782645616E+02  0.00000000000E+00 0.  1.
<scales pt_clust_5="13000.00000" pt_clust_6="13000.00000" pt_clust_7="13000.00000" pt_clust_8="13000.00000" pt_clust_9="33.72620"></scales>
<clustering>
<clus scale="   33.726">  2  9  1 -1</clus>
<clus scale="   80.776">  5  6 -1 -1</clus>
<clus scale="   91.216">  2  5  1 -1</clus>
<clus scale="   91.519">  7  8 -1 -1</clus>
<clus scale="   33.726">  2  5  1 -1</clus>
</clustering>
</event>
<event>
 9    1  0.7586638E-005  0.1333410E+03  0.7546771E-02  0.1225023E+00
         21   -1    0    0  501  502  0.00000000000E+00  0.00000000000E+00  0.23255359575E+03  0.23255359575E+03  0.00000000000E+00 0.  1.
          1   -1    0    0  502    0 -0.00000000000E+00 -0.00000000000E+00 -0.30924870653E+03  0.30924870653E+03  0.00000000000E+00 0. -1.
         23    2    1    2    0    0  0.58416766256E+02 -0.77621476414E+02 -0.26345336475E+03  0.29543097539E+03  0.91837757168E+02 0.  0.
        -24    2    1    2    0    0 -0.81136328086E+02  0.52815447473E+02  0.15276851956E+03  0.19855062419E+03  0.81924078084E+02 0.  0.
         13    1    4    4    0    0 -0.15482433885E+02  0.33713601910E+02  0.72951259325E+01  0.37809146712E+02  0.00000000000E+00 0. -1.
        -14    1    4    4    0    0 -0.65653894201E+02  0.19101845564E+02  0.14547339363E+03  0.16074147748E+03  0.00000000000E+00 0.  1.
        -11    1    3    3    0    0  0.28944057571E+02  0.86163595799E+01 -0.13242680430E+03  0.13582657552E+03  0.00000000000E+00 0.  1.
         11    1    3    3    0    0  0.29472708685E+02 -0.86237835994E+02 -0.13102656046E+03  0.15960439987E+03  0.00000000000E+00 0. -1.
          2    1    1    2  501    0  0.22719561830E+02  0.24806028941E+02  0.33989734409E+02  0.47820702700E+02  0.00000000000E+00 0. -1.
<scales pt_clust_5="13000.00000" pt_clust_6="13000.00000" pt_clust_7="13000.00000" pt_clust_8="13000.00000" pt_clust_9="33.63804"></scales>
<clustering>
<clus scale="   33.638">  1  9  2 -1</clus>
<clus scale="   81.924">  5  6 -1 -1</clus>
<clus scale="   91.838">  7  8 -1 -1</clus>
<clus scale="  126.717">  1  5  2 -1</clus>
<clus scale="   33.638">  1  5  2 -1</clus>
</clustering>
</event>
<event>
 9    1  0.7586638E-005  0.2085402E+03  0.7546771E-02  0.1143826E+00
          1   -1    0    0  502    0 -0.00000000000E+00  0.00000000000E+00  0.73023641790E+02  0.73023641790E+02  0.00000000000E+00 0. -1.
         21   -1    0    0  501  502  0.00000000000E+00 -0.00000000000E+00 -0.76996784699E+03  0.76996784699E+03  0.00000000000E+00 0. -1.
         23    2    1    2    0    0 -0.17483758995E+03  0.56140135942E+02 -0.17291346743E+03  0.26828588389E+03  0.91424015182E+02 0.  0.
        -24    2    1    2    0    0  0.18005299750E+03 -0.77693090721E+02 -0.44378634647E+03  0.49145362191E+03  0.78262653406E+02 0.  0.
         11    1    4    4    0    0  0.17820040291E+03 -0.77277128174E+02 -0.37212198678E+03  0.41976411374E+03  0.00000000000E+00 0. -1.
        -12    1    4    4    0    0  0.18525945831E+01 -0.41596254653E+00 -0.71664359692E+02  0.71689508170E+02  0.00000000000E+00 0.  1.
        -11    1    3    3    0    0 -0.19385583740E+02 -0.80631885371E+01 -0.65357386512E+02  0.68646950683E+02  0.00000000000E+00 0.  1.
         11    1    3    3    0    0 -0.15545200621E+03  0.64203324479E+02 -0.10755608092E+03  0.19963893321E+03  0.00000000000E+00 0. -1.
          2    1    1    2  501    0 -0.52154075429E+01  0.21552954779E+02 -0.80244391296E+02  0.83251982979E+02  0.00000000000E+00 0. -1.
<scales pt_clust_5="13000.00000" pt_clust_6="13000.00000" pt_clust_7="13000.00000" pt_clust_8="13000.00000" pt_clust_9="22.17499"></scales>
<clustering>
<clus scale="   22.175">  2  9  1 -1</clus>
<clus scale="   78.263">  5  6 -1 -1</clus>
<clus scale="   91.424">  7  8 -1 -1</clus>
<clus scale="  203.115">  2  5  1 -1</clus>
<clus scale="   22.175">  2  5  1 -1</clus>
</clustering>
</event>
<event>
 9    1  0.7586638E-005  0.1133185E+03  0.7546771E-02  0.1259250E+00
          1   -1    0    0  502    0 -0.00000000000E+00  0.00000000000E+00  0.33854640387E+03  0.33854640387E+03  0.00000000000E+00 0. -1.
         21   -1    0    0  501  502  0.00000000000E+00 -0.00000000000E+00 -0.17443799572E+03  0.17443799572E+03  0.00000000000E+00 0. -1.
        -24    2    1    2    0    0 -0.41344590205E+02 -0.75534976840E+02  0.54662440883E+01  0.11769155376E+03  0.80040702994E+02 0.  0.
         23    2    1    2    0    0  0.60943982193E+02 -0.16868873025E+02 -0.80566270065E+02  0.13810948208E+03  0.92652994155E+02 0.  0.
         11    1    3    3    0    0 -0.18897891322E+02 -0.81058973046E+02  0.25553403847E+02  0.87067007850E+02  0.00000000000E+00 0. -1.
        -12    1    3    3    0    0 -0.22446698883E+02  0.55239962064E+01 -0.20087159759E+02  0.30624545907E+02  0.00000000000E+00 0.  1.
        -11    1    4    4    0    0  0.26021875169E+00  0.25569941599E+02 -0.53446002421E+02  0.59248331638E+02  0.00000000000E+00 0.  1.
         11    1    4    4    0    0  0.60683763441E+02 -0.42438814624E+02 -0.27120267644E+02  0.78861150443E+02  0.00000000000E+00 0. -1.
          2    1    1    2  501    0 -0.19599391988E+02  0.92403849865E+02  0.23920843412E+03  0.25718336375E+03  0.00000000000E+00 0. -1.
<scales pt_clust_5="13000.00000" pt_clust_6="13000.00000" pt_clust_7="13000.00000" pt_clust_8="13000.00000" pt_clust_9="94.45960"></scales>
<clustering>
<clus scale="   80.041">  5  6 -1 -1</clus>
<clus scale="   92.653">  7  8 -1 -1</clus>
<clus scale="   94.460">  2  9  1 -1</clus>
<clus scale="  103.262">  1  5  2 -1</clus>
<clus scale="   94.460">  2  5  1 -1</clus>
</clustering>
</event>
<event>
 9    1  0.7586638E-005  0.1028651E+03  0.7546771E-02  0.1280257E+00
          1   -1    0    0  502    0 -0.00000000000E+00  0.00000000000E+00  0.54124286789E+02  0.54124286789E+02  0.00000000000E+00 0. -1.
         21   -1    0    0  501  502  0.00000000000E+00 -0.00000000000E+00 -0.35433905432E+03  0.35433905432E+03  0.00000000000E+00 0. -1.
        -24    2    1    2    0    0  0.39059320388E+02 -0.32656984688E+02 -0.11975462709E+02  0.93702196837E+02  0.77746902362E+02 0.  0.
         23    2    1    2    0    0 -0.16113964450E+02  0.42303397348E+02 -0.24147135362E+03  0.26178205504E+03  0.90400179445E+02 0.  0.
         11    1    3    3    0    0  0.34091206109E+02  0.11791839130E+02  0.17544257633E+02  0.40113074924E+02  0.00000000000E+00 0. -1.
        -12    1    3    3    0    0  0.49681142791E+01 -0.44448823818E+02 -0.29519720342E+02  0.53589121912E+02  0.00000000000E+00 0.  1.
        -13    1    4    4    0    0  0.12751035959E+02  0.63266153402E+02 -0.13830493498E+03  0.15262191888E+03  0.00000000000E+00 0. -1.
         13    1    4    4    0    0 -0.28865000409E+02 -0.20962756055E+02 -0.10316641864E+03  0.10916013616E+03  0.00000000000E+00 0.  1.
          2    1    1    2  501    0 -0.22945355938E+02 -0.96464126596E+01 -0.46767951201E+02  0.52979089232E+02  0.00000000000E+00 0. -1.
<scales pt_clust_5="13000.00000" pt_clust_6="13000.00000" pt_clust_7="13000.00000" pt_clust_8="13000.00000" pt_clust_9="24.89061"></scales>
<clustering>
<clus scale="   24.891">  2  9  1 -1</clus>
<clus scale="   77.747">  5  6 -1 -1</clus>
<clus scale="   90.400">  7  8 -1 -1</clus>
<clus scale="   91.944">  1  5  2 -1</clus>
<clus scale="   24.891">  2  5  1 -1</clus>
</clustering>
</event>
<event>
 9    1  0.7586638E-005  0.1330164E+03  0.7546771E-02  0.1225451E+00
         -2   -1    0    0    0  501 -0.00000000000E+00  0.00000000000E+00  0.82744071837E+02  0.82744071837E+02  0.00000000000E+00 0.  1.
         21   -1    0    0  501  502  0.00000000000E+00 -0.00000000000E+00 -0.32217200174E+03  0.32217200174E+03  0.00000000000E+00 0.  1.
        -24    2    1    2    0    0 -0.49442024746E+02  0.74245611426E+02 -0.58853153294E+02  0.13424951510E+03  0.81254624633E+02 0.  0.
         23    2    1    2    0    0  0.20463114066E+02 -0.11570518950E+03 -0.15185362208E+03  0.21249802235E+03  0.91046455442E+02 0.  0.
         11    1    3    3    0    0 -0.39344495662E+02  0.86811827234E+02 -0.66688643615E+02  0.11632565441E+03  0.00000000000E+00 0. -1.
        -12    1    3    3    0    0 -0.10097529085E+02 -0.12566215808E+02  0.78354903218E+01  0.17923860687E+02  0.00000000000E+00 0.  1.
        -13    1    4    4    0    0 -0.32448493578E+02 -0.35322260093E+02 -0.76408675421E+02  0.90215588859E+02  0.00000000000E+00 0. -1.
         13    1    4    4    0    0  0.52911607644E+02 -0.80382929406E+02 -0.75444946656E+02  0.12228243349E+03  0.00000000000E+00 0.  1.
         -1    1    1    2    0  502  0.28978910681E+02  0.41459578073E+02 -0.28721154528E+02  0.58168536131E+02  0.00000000000E+00 0.  1.
<scales pt_clust_5="13000.00000" pt_clust_6="13000.00000" pt_clust_7="13000.00000" pt_clust_8="13000.00000" pt_clust_9="50.58336"></scales>
<clustering>
<clus scale="   50.583">  2  9  1 -1</clus>
<clus scale="   81.255">  5  6 -1 -1</clus>
<clus scale="   91.046">  7  8 -1 -1</clus>
<clus scale="  126.516">  1  5  2 -1</clus>
<clus scale="   50.583">  2  5  1 -1</clus>
</clustering>
</event>
<event>
 9    1  0.7586638E-005  0.1024529E+03  0.7546771E-02  0.1280547E+00
          1   -1    0    0  502    0 -0.00000000000E+00  0.00000000000E+00  0.45769482336E+03  0.45769482336E+03  0.00000000000E+00 0. -1.
         21   -1    0    0  501  502  0.00000000000E+00 -0.00000000000E+00 -0.56146789486E+02  0.56146789486E+02  0.00000000000E+00 0. -1.
         23    2    1    2    0    0 -0.23208541483E+02  0.45891961901E+02  0.35630525391E+03  0.37152807962E+03  0.91842100450E+02 0.  0.
        -24    2    1    2    0    0  0.25985828845E+02 -0.25723976004E+01  0.80381677103E+01  0.85142901353E+02  0.80640070564E+02 0.  0.
         13    1    4    4    0    0  0.46138289390E+02  0.34420339046E+01 -0.19739885194E+02  0.50301614415E+02  0.00000000000E+00 0. -1.
        -14    1    4    4    0    0 -0.20152460546E+02 -0.60144315050E+01  0.27778052904E+02  0.34841286938E+02  0.00000000000E+00 0.  1.
        -13    1    3    3    0    0 -0.28276408440E+02  0.72364993123E+02  0.24598929999E+03  0.25796701962E+03  0.00000000000E+00 0. -1.
         13    1    3    3    0    0  0.50678669568E+01 -0.26473031222E+02  0.11031595392E+03  0.11356105999E+03  0.00000000000E+00 0.  1.
          2    1    1    2  501    0 -0.27772873616E+01 -0.43319564301E+02  0.37204612258E+02  0.57170631880E+02  0.00000000000E+00 0. -1.
<scales pt_clust_5="13000.00000" pt_clust_6="13000.00000" pt_clust_7="13000.00000" pt_clust_8="13000.00000" pt_clust_9="43.40850"></scales>
<clustering>
<clus scale="   43.409">  2  9  1 -1</clus>
<clus scale="   80.640">  5  6 -1 -1</clus>
<clus scale="   91.842">  7  8 -1 -1</clus>
<clus scale="   92.544">  2  5  1 -1</clus>
<clus scale="   43.409">  2  5  1 -1</clus>
</clustering>
</event>
<event>
 9    1  0.7586638E-005  0.8966406E+02  0.7546771E-02  0.1318202E+00
         -2   -1    0    0    0  501 -0.00000000000E+00  0.00000000000E+00  0.25938325323E+03  0.25938325323E+03  0.00000000000E+00 0.  1.
         21   -1    0    0  501  502  0.00000000000E+00 -0.00000000000E+00 -0.60167693364E+02  0.60167693364E+02  0.00000000000E+00 0.  1.
         23    2    1    2    0    0  0.82220324526E+01  0.13148972619E+02  0.80528551295E+02  0.11945166561E+03  0.86852493025E+02 0.  0.
        -24    2    1    2    0    0 -0.37594890566E+02 -0.13035865512E+02 -0.14778566289E+01  0.76396522666E+02  0.65199195001E+02 0.  0.
         11    1    4    4    0    0 -0.43004508183E+02  0.16598799185E+02  0.15319588921E+01  0.46122172071E+02  0.00000000000E+00 0. -1.
        -12    1    4    4    0    0  0.54096176167E+01 -0.29634664697E+02 -0.30098155210E+01  0.30274350595E+02  0.00000000000E+00 0.  1.
        -13    1    3    3    0    0 -0.21002303200E+02  0.40628982358E+02  0.29024370958E+02  0.54168487671E+02  0.00000000000E+00 0.  1.
         13    1    3    3    0    0  0.29224335652E+02 -0.27480009738E+02  0.51504180337E+02  0.65283177938E+02  0.00000000000E+00 0. -1.
         -1    1    1    2    0  502  0.29372858114E+02 -0.11310710724E+00  0.12016486520E+03  0.12370275832E+03  0.00000000000E+00 0.  1.
<scales pt_clust_5="13000.00000" pt_clust_6="13000.00000" pt_clust_7="13000.00000" pt_clust_8="13000.00000" pt_clust_9="29.37309"></scales>
<clustering>
<clus scale="   29.373">  2  9  1 -1</clus>
<clus scale="   65.199">  5  6 -1 -1</clus>
<clus scale="   68.900">  2  5  1 -1</clus>
<clus scale="   86.852">  7  8 -1 -1</clus>
<clus scale="   29.373">  2  5  1 -1</clus>
</clustering>
</event>
<event>
 9    1  0.7586638E-005  0.1571640E+03  0.7546771E-02  0.1194071E+00
         21   -1    0    0  501  502  0.00000000000E+00  0.00000000000E+00  0.76905886442E+03  0.76905886442E+03  0.00000000000E+00 0.  1.
         -2   -1    0    0    0  501 -0.00000000000E+00 -0.00000000000E+00 -0.52514968329E+02  0.52514968329E+02  0.00000000000E+00 0.  1.
        -24    2    1    2    0    0 -0.20037078796E+02 -0.11751470411E+03  0.13330379914E+03  0.19560005235E+03  0.79235644783E+02 0.  0.
         23    2    1    2    0    0  0.25686479248E+02  0.15268450274E+03  0.54359505489E+03  0.57267687785E+03  0.92145917619E+02 0.  0.
         13    1    3    3    0    0 -0.48155866898E+02 -0.56539445812E+02  0.85056360263E+02  0.11291714162E+03  0.00000000000E+00 0. -1.
        -14    1    3    3    0    0  0.28118788102E+02 -0.60975258297E+02  0.48247438877E+02  0.82682910730E+02  0.00000000000E+00 0.  1.
        -11    1    4    4    0    0  0.47900755635E+02  0.10420005006E+03  0.45533606086E+03  0.46955623853E+03  0.00000000000E+00 0.  1.
         11    1    4    4    0    0 -0.22214276387E+02  0.48484452684E+02  0.88258994029E+02  0.10312063932E+03  0.00000000000E+00 0. -1.
         -1    1    1    2    0  502 -0.56494004526E+01 -0.35169798634E+02  0.39645042069E+02  0.53296902556E+02  0.00000000000E+00 0.  1.
<scales pt_clust_5="13000.00000" pt_clust_6="13000.00000" pt_clust_7="13000.00000" pt_clust_8="13000.00000" pt_clust_9="35.62066"></scales>
<clustering>
<clus scale="   35.621">  1  9  2 -1</clus>
<clus scale="   79.236">  5  6 -1 -1</clus>
<clus scale="   92.146">  7  8 -1 -1</clus>
<clus scale="  149.960">  2  5  1 -1</clus>
<clus scale="   35.621">  1  5  2 -1</clus>
</clustering>
</event>
<event>
 9    1  0.7586638E-005  0.1506976E+03  0.7546771E-02  0.1201366E+00
         21   -1    0    0  501  502  0.00000000000E+00  0.00000000000E+00  0.11298792780E+03  0.11298792780E+03  0.00000000000E+00 0. -1.
          1   -1    0    0  502    0 -0.00000000000E+00 -0.00000000000E+00 -0.42754627334E+03  0.42754627334E+03  0.00000000000E+00 0. -1.
         23    2    1    2    0    0  0.32885234987E+02  0.13331407554E+03 -0.69833020859E+02  0.17783477911E+03  0.88850866304E+02 0.  0.
        -24    2    1    2    0    0 -0.66752932142E+02 -0.88417775378E+02 -0.28137777040E+02  0.13892975367E+03  0.78968886316E+02 0.  0.
         13    1    4    4    0    0 -0.10643515497E+02 -0.34593370002E+02  0.25671983201E+02  0.44373825525E+02  0.00000000000E+00 0. -1.
        -14    1    4    4    0    0 -0.56109416645E+02 -0.53824405376E+02 -0.53809760241E+02  0.94555928146E+02  0.00000000000E+00 0.  1.
        -13    1    3    3    0    0  0.39471837794E+02  0.19898372700E+02  0.52266170913E+00  0.44206836464E+02  0.00000000000E+00 0.  1.
         13    1    3    3    0    0 -0.65866028062E+01  0.11341570284E+03 -0.70355682568E+02  0.13362794265E+03  0.00000000000E+00 0. -1.
          2    1    1    2  501    0  0.33867697154E+02 -0.44896300162E+02 -0.21658754764E+03  0.22376966835E+03  0.00000000000E+00 0. -1.
<scales pt_clust_5="13000.00000" pt_clust_6="13000.00000" pt_clust_7="13000.00000" pt_clust_8="13000.00000" pt_clust_9="56.23790"></scales>
<clustering>
<clus scale="   56.238">  1  9  2 -1</clus>
<clus scale="   78.969">  5  6 -1 -1</clus>
<clus scale="   88.851">  7  8 -1 -1</clus>
<clus scale="  145.091">  1  5  2 -1</clus>
<clus scale="   56.238">  1  5  2 -1</clus>
</clustering>
</event>
<event>
 9    1  0.7586638E-005  0.1316451E+03  0.7546771E-02  0.1227699E+00
          1   -1    0    0  502    0 -0.00000000000E+00  0.00000000000E+00  0.17505617360E+03  0.17505617360E+03  0.00000000000E+00 0. -1.
         21   -1    0    0  501  502  0.00000000000E+00 -0.00000000000E+00 -0.17241952140E+03  0.17241952140E+03  0.00000000000E+00 0. -1.
         23    2    1    2    0    0  0.24753915839E+02  0.69083180048E+02 -0.90464416026E+01  0.11926864382E+03  0.93583808312E+02 0.  0.
        -24    2    1    2    0    0 -0.65344507841E+02 -0.10413520288E+03 -0.39918054018E+02  0.15378313756E+03  0.83317208167E+02 0.  0.
         13    1    4    4    0    0 -0.83100728510E+02 -0.68415594686E+02 -0.36860417639E+02  0.11377660156E+03  0.00000000000E+00 0. -1.
        -14    1    4    4    0    0  0.17756220669E+02 -0.35719608192E+02 -0.30576363799E+01  0.40006535992E+02  0.00000000000E+00 0.  1.
        -11    1    3    3    0    0  0.99114826617E+01 -0.20608097475E+02 -0.16279168813E+02  0.28070313631E+02  0.00000000000E+00 0.  1.
         11    1    3    3    0    0  0.14842433178E+02  0.89691277523E+02  0.72327272107E+01  0.91198330189E+02  0.00000000000E+00 0. -1.
          2    1    1    2  501    0  0.40590592001E+02  0.35052022830E+02  0.51601147815E+02  0.74423913625E+02  0.00000000000E+00 0. -1.
<scales pt_clust_5="13000.00000" pt_clust_6="13000.00000" pt_clust_7="13000.00000" pt_clust_8="13000.00000" pt_clust_9="53.63062"></scales>
<clustering>
<clus scale="   53.631">  2  9  1 -1</clus>
<clus scale="   83.317">  5  6 -1 -1</clus>
<clus scale="   93.584">  7  8 -1 -1</clus>
<clus scale="  124.556">  2  5  1 -1</clus>
<clus scale="   53.631">  2  5  1 -1</clus>
</clustering>
</event>
<event>
 9    1  0.7586638E-005  0.2529553E+03  0.7546771E-02  0.1153498E+00
         -4   -1    0    0    0  501 -0.00000000000E+00  0.00000000000E+00  0.12232336332E+03  0.12232336332E+03  0.00000000000E+00 0.  1.
         21   -1    0    0  501  502  0.00000000000E+00 -0.00000000000E+00 -0.92198234355E+03  0.92198234355E+03  0.00000000000E+00 0.  1.
        -24    2    1    2    0    0 -0.42448908572E+02 -0.22277655949E+01 -0.71498437742E+02  0.11529795823E+03  0.79841842377E+02 0.  0.
         23    2    1    2    0    0  0.33147446595E+02 -0.23659188712E+03 -0.13007458955E+03  0.28493620694E+03  0.84821983662E+02 0.  0.
         11    1    3    3    0    0 -0.47174745880E+02  0.38351163409E+01 -0.86408992577E+02  0.98522478472E+02  0.00000000000E+00 0. -1.
        -12    1    3    3    0    0  0.47258373078E+01 -0.60628819358E+01  0.14910554835E+02  0.16775479758E+02  0.00000000000E+00 0.  1.
        -13    1    4    4    0    0  0.21268292484E+02 -0.19658472624E+03 -0.13970474971E+03  0.24210599321E+03  0.00000000000E+00 0. -1.
         13    1    4    4    0    0  0.11879154111E+02 -0.40007160878E+02  0.96301601531E+01  0.42830213734E+02  0.00000000000E+00 0.  1.
         -3    1    1    2    0  502  0.93014619772E+01  0.23881965271E+03 -0.59808595294E+03  0.64407154169E+03  0.00000000000E+00 0.  1.
<scales pt_clust_5="13000.00000" pt_clust_6="13000.00000" pt_clust_7="13000.00000" pt_clust_8="13000.00000" pt_clust_9="238.30995"></scales>
<clustering>
<clus scale="   79.842">  5  6 -1 -1</clus>
<clus scale="   84.822">  7  8 -1 -1</clus>
<clus scale="   90.452">  1  5  2 -1</clus>
<clus scale="  238.310">  2  9  1 -1</clus>
<clus scale="  238.310">  2  5  1 -1</clus>
</clustering>
</event>
<event>
 9    1  0.7586638E-005  0.1032597E+03  0.7546771E-02  0.1277611E+00
          1   -1    0    0  502    0 -0.00000000000E+00  0.00000000000E+00  0.81676218945E+02  0.81676218945E+02  0.00000000000E+00 0. -1.
         21   -1    0    0  501  502  0.00000000000E+00 -0.00000000000E+00 -0.28147585866E+03  0.28147585866E+03  0.00000000000E+00 0.  1.
         23    2    1    2    0    0  0.56698321963E+02 -0.43063275918E+02 -0.87540622824E+02  0.14458111343E+03  0.90394647356E+02 0.  0.
        -24    2    1    2    0    0 -0.34131688543E+02 -0.12748573415E+02 -0.12825408452E+03  0.15628085534E+03  0.81529732384E+02 0.  0.
         11    1    4    4    0    0 -0.38175840683E+01  0.33591516047E+02 -0.52560749764E+02  0.62494770295E+02  0.00000000000E+00 0. -1.
        -12    1    4    4    0    0 -0.30314104475E+02 -0.46340089462E+02 -0.75693334757E+02  0.93786085045E+02  0.00000000000E+00 0.  1.
        -13    1    3    3    0    0 -0.52400093707E+01 -0.37852112225E+02 -0.12486451583E+01  0.38233482876E+02  0.00000000000E+00 0. -1.
         13    1    3    3    0    0  0.61938331334E+02 -0.52111636931E+01 -0.86291977665E+02  0.10634763056E+03  0.00000000000E+00 0.  1.
          2    1    1    2  501    0 -0.22566633420E+02  0.55811849332E+02  0.15995067631E+02  0.62290108832E+02  0.00000000000E+00 0. -1.
<scales pt_clust_5="13000.00000" pt_clust_6="13000.00000" pt_clust_7="13000.00000" pt_clust_8="13000.00000" pt_clust_9="60.20149"></scales>
<clustering>
<clus scale="   60.201">  2  9  1 -1</clus>
<clus scale="   81.530">  5  6 -1 -1</clus>
<clus scale="   90.395">  7  8 -1 -1</clus>
<clus scale="   95.595">  2  5  1 -1</clus>
<clus scale="   60.201">  2  5  1 -1</clus>
</clustering>
</event>
<event>
 9    1  0.7586638E-005  0.1288671E+03  0.7546771E-02  0.1249357E+00
         21   -1    0    0  501  502  0.00000000000E+00  0.00000000000E+00  0.42599184067E+03  0.42599184067E+03  0.00000000000E+00 0.  1.
         -2   -1    0    0    0  501 -0.00000000000E+00 -0.00000000000E+00 -0.80739657843E+02  0.80739657843E+02  0.00000000000E+00 0.  1.
        -24    2    1    2    0    0 -0.41130621542E+02 -0.22272824177E+02 -0.75707262773E+01  0.91923685100E+02  0.78770814778E+02 0.  0.
         23    2    1    2    0    0 -0.13628215619E+02 -0.40916045769E+01  0.11768357571E+03  0.17194134916E+03  0.12454691513E+03 0.  0.
         11    1    3    3    0    0  0.22726731009E+02  0.57570540364E+00  0.41119313045E+01  0.23102894150E+02  0.00000000000E+00 0. -1.
        -12    1    3    3    0    0 -0.63857352551E+02 -0.22848529580E+02 -0.11682657582E+02  0.68820790950E+02  0.00000000000E+00 0.  1.
        -13    1    4    4    0    0  0.45490447425E+02  0.30785253985E+02  0.66883675067E+02  0.86547898070E+02  0.00000000000E+00 0. -1.
         13    1    4    4    0    0 -0.59118663044E+02 -0.34876858562E+02  0.50799900645E+02  0.85393451088E+02  0.00000000000E+00 0.  1.
         -1    1    1    2    0  502  0.54758837161E+02  0.26364428754E+02  0.23513933340E+03  0.24286646426E+03  0.00000000000E+00 0.  1.
<scales pt_clust_5="13000.00000" pt_clust_6="13000.00000" pt_clust_7="13000.00000" pt_clust_8="13000.00000" pt_clust_9="60.77510"></scales>
<clustering>
<clus scale="   60.775">  1  9  2 -1</clus>
<clus scale="   78.771">  5  6 -1 -1</clus>
<clus scale="   85.438">  2  5  1 -1</clus>
<clus scale="  124.547">  7  8 -1 -1</clus>
<clus scale="   60.775">  1  5  2 -1</clus>
</clustering>
</event>
<event>
 9    1  0.7586638E-005  0.1043421E+03  0.7546771E-02  0.1279560E+00
          1   -1    0    0  502    0 -0.00000000000E+00  0.00000000000E+00  0.64980590909E+03  0.64980590909E+03  0.00000000000E+00 0. -1.
         21   -1    0    0  501  502  0.00000000000E+00 -0.00000000000E+00 -0.37699474330E+02  0.37699474330E+02  0.00000000000E+00 0. -1.
        -24    2    1    2    0    0  0.40224326733E+02  0.15969740568E+02  0.32547003078E+03  0.33708042313E+03  0.76285264936E+02 0.  0.
         23    2    1    2    0    0 -0.18495969482E+02 -0.83255463931E+02  0.14738798794E+03  0.19425322326E+03  0.93474716347E+02 0.  0.
         13    1    3    3    0    0  0.62001568322E+02  0.18785496418E+02  0.21958566392E+03  0.22894312209E+03  0.00000000000E+00 0. -1.
        -14    1    3    3    0    0 -0.21777241589E+02 -0.28157558506E+01  0.10588436686E+03  0.10813730104E+03  0.00000000000E+00 0.  1.
        -11    1    4    4    0    0 -0.45046349771E+02 -0.34277586255E+02  0.11888702105E+03  0.13167479000E+03  0.00000000000E+00 0.  1.
         11    1    4    4    0    0  0.26550380290E+02 -0.48977877676E+02  0.28500966881E+02  0.62578433252E+02  0.00000000000E+00 0. -1.
          2    1    1    2  501    0 -0.21728357251E+02  0.67285723364E+02  0.13924841605E+03  0.15617173704E+03  0.00000000000E+00 0. -1.
<scales pt_clust_5="13000.00000" pt_clust_6="13000.00000" pt_clust_7="13000.00000" pt_clust_8="13000.00000" pt_clust_9="70.70711"></scales>
<clustering>
<clus scale="   70.707">  2  9  1 -1</clus>
<clus scale="   76.285">  5  6 -1 -1</clus>
<clus scale="   89.270">  1  5  2 -1</clus>
<clus scale="   93.475">  7  8 -1 -1</clus>
<clus scale="   70.707">  2  5  1 -1</clus>
</clustering>
</event>
<event>
 9    1  0.7586638E-005  0.2267835E+03  0.7546771E-02  0.1129638E+00
          1   -1    0    0  502    0 -0.00000000000E+00  0.00000000000E+00  0.16633089652E+03  0.16633089652E+03  0.00000000000E+00 0. -1.
         21   -1    0    0  501  502  0.00000000000E+00 -0.00000000000E+00 -0.10183383174E+04  0.10183383174E+04  0.00000000000E+00 0. -1.
         23    2    1    2    0    0 -0.82000607417E+02 -0.19857917874E+03  0.48205926845E+02  0.23856394906E+03  0.91821329564E+02 0.  0.
        -24    2    1    2    0    0  0.92589449310E+02  0.11740203454E+03 -0.79366985367E+03  0.81174244099E+03  0.81596017396E+02 0.  0.
         11    1    4    4    0    0  0.91382774113E+02  0.69715358269E+02 -0.43559609001E+03  0.45050526769E+03  0.00000000000E+00 0. -1.
        -12    1    4    4    0    0  0.12066751969E+01  0.47686676266E+02 -0.35807376365E+03  0.36123717330E+03  0.00000000000E+00 0.  1.
        -11    1    3    3    0    0 -0.84589282589E+02 -0.16625267964E+03  0.77251074206E+01  0.18669487808E+03  0.00000000000E+00 0. -1.
         11    1    3    3    0    0  0.25886751726E+01 -0.32326499099E+02  0.40480819424E+02  0.51869070981E+02  0.00000000000E+00 0.  1.
          2    1    1    2  501    0 -0.10588841894E+02  0.81177144203E+02 -0.10654349405E+03  0.13436282387E+03  0.00000000000E+00 0. -1.
<scales pt_clust_5="13000.00000" pt_clust_6="13000.00000" pt_clust_7="13000.00000" pt_clust_8="13000.00000" pt_clust_9="81.86484"></scales>
<clustering>
<clus scale="   81.596">  5  6 -1 -1</clus>
<clus scale="   81.865">  2  9  1 -1</clus>
<clus scale="   91.821">  7  8 -1 -1</clus>
<clus scale="  222.840">  2  5  1 -1</clus>
<clus scale="   81.865">  2  5  1 -1</clus>
</clustering>
</event>
<event>
 9    1  0.7586638E-005  0.1352289E+03  0.7546771E-02  0.1221956E+00
          1   -1    0    0  502    0 -0.00000000000E+00  0.00000000000E+00  0.45344359989E+03  0.45344359989E+03  0.00000000000E+00 0. -1.
         21   -1    0    0  501  502  0.00000000000E+00 -0.00000000000E+00 -0.50368060268E+02  0.50368060268E+02  0.00000000000E+00 0. -1.
         23    2    1    2    0    0  0.83266628315E+02 -0.23095430266E+02  0.16357749780E+03  0.20563364836E+03  0.89782343817E+02 0.  0.
        -24    2    1    2    0    0 -0.11494487541E+03  0.17514093629E+02  0.21613833982E+03  0.25842454232E+03  0.80922149462E+02 0.  0.
         13    1    4    4    0    0 -0.40982373875E+02 -0.22952938709E+02  0.34842829544E+02  0.58484315286E+02  0.00000000000E+00 0. -1.
        -14    1    4    4    0    0 -0.73962501539E+02  0.40467032339E+02  0.18129551028E+03  0.19994022703E+03  0.00000000000E+00 0.  1.
        -13    1    3    3    0    0  0.85661557808E+02 -0.16305288483E+01  0.73130993790E+02  0.11264414482E+03  0.00000000000E+00 0.  1.
         13    1    3    3    0    0 -0.23949294937E+01 -0.21464901418E+02  0.90446504011E+02  0.92989503537E+02  0.00000000000E+00 0. -1.
          2    1    1    2  501    0  0.31678247100E+02  0.55813366369E+01  0.23359702004E+02  0.39753469480E+02  0.00000000000E+00 0. -1.
<scales pt_clust_5="13000.00000" pt_clust_6="13000.00000" pt_clust_7="13000.00000" pt_clust_8="13000.00000" pt_clust_9="32.16617"></scales>
<clustering>
<clus scale="   32.166">  2  9  1 -1</clus>
<clus scale="   80.922">  5  6 -1 -1</clus>
<clus scale="   89.782">  7  8 -1 -1</clus>
<clus scale="  129.516">  2  5  1 -1</clus>
<clus scale="   32.166">  2  5  1 -1</clus>
</clustering>
</event>
<event>
 9    1  0.7586638E-005  0.1848586E+03  0.7546771E-02  0.1164350E+00
         21   -1    0    0  501  502  0.00000000000E+00  0.00000000000E+00  0.12070266009E+03  0.12070266009E+03  0.00000000000E+00 0. -1.
          1   -1    0    0  502    0 -0.00000000000E+00 -0.00000000000E+00 -0.44583495920E+03  0.44583495920E+03  0.00000000000E+00 0. -1.
         23    2    1    2    0    0  0.13311908561E+03 -0.28483899482E+02 -0.12932482943E+03  0.20723284903E+03  0.87684198827E+02 0.  0.
        -24    2    1    2    0    0 -0.19182446996E+03  0.13804648179E+02 -0.21232061169E+03  0.29657928558E+03  0.76759591596E+02 0.  0.
         13    1    4    4    0    0 -0.72282359291E+02 -0.24771681617E+02 -0.49928841825E+02  0.91275763052E+02  0.00000000000E+00 0. -1.
        -14    1    4    4    0    0 -0.11954211067E+03  0.38576329795E+02 -0.16239176987E+03  0.20530352253E+03  0.00000000000E+00 0.  1.
        -11    1    3    3    0    0  0.46534900664E+02  0.32412963602E+01  0.20878824142E+01  0.46694349068E+02  0.00000000000E+00 0.  1.
         11    1    3    3    0    0  0.86584184951E+02 -0.31725195843E+02 -0.13141271184E+03  0.16053849996E+03  0.00000000000E+00 0. -1.
          2    1    1    2  501    0  0.58705384341E+02  0.14679251304E+02  0.16513142014E+02  0.62725484682E+02  0.00000000000E+00 0. -1.
<scales pt_clust_5="13000.00000" pt_clust_6="13000.00000" pt_clust_7="13000.00000" pt_clust_8="13000.00000" pt_clust_9="60.51283"></scales>
<clustering>
<clus scale="   60.513">  1  9  2 -1</clus>
<clus scale="   76.760">  5  6 -1 -1</clus>
<clus scale="   87.684">  7  8 -1 -1</clus>
<clus scale="  179.934">  1  5  2 -1</clus>
<clus scale="   60.513">  1  5  2 -1</clus>
</clustering>
</event>
<event>
 9    1  0.7586638E-005  0.1415174E+03  0.7546771E-02  0.1213075E+00
          1   -1    0    0  502    0 -0.00000000000E+00  0.00000000000E+00  0.35094186838E+03  0.35094186838E+03  0.00000000000E+00 0. -1.
         21   -1    0    0  501  502  0.00000000000E+00 -0.00000000000E+00 -0.12088709933E+03  0.12088709933E+03  0.00000000000E+00 0.  1.
        -24    2    1    2    0    0  0.12460432868E+03  0.47370578325E+02  0.21355904306E+03  0.26522115714E+03  0.83454100582E+02 0.  0.
         23    2    1    2    0    0 -0.38132645831E+02 -0.60919646659E+02  0.23130813322E+02  0.11882994566E+03  0.91761753648E+02 0.  0.
         11    1    3    3    0    0  0.58125244448E+02  0.63436128762E+02  0.14347873006E+03  0.16729863255E+03  0.00000000000E+00 0. -1.
        -12    1    3    3    0    0  0.66479084227E+02 -0.16065550436E+02  0.70080313005E+02  0.97922524587E+02  0.00000000000E+00 0.  1.
        -13    1    4    4    0    0 -0.96405833862E+00 -0.42080856516E+02 -0.29720585453E+02  0.51527090868E+02  0.00000000000E+00 0.  1.
         13    1    4    4    0    0 -0.37168587493E+02 -0.18838790143E+02  0.52851398775E+02  0.67302854789E+02  0.00000000000E+00 0. -1.
          2    1    1    2  501    0 -0.86471682844E+02  0.13549068333E+02 -0.66350873375E+01  0.87777864924E+02  0.00000000000E+00 0. -1.
<scales pt_clust_5="13000.00000" pt_clust_6="13000.00000" pt_clust_7="13000.00000" pt_clust_8="13000.00000" pt_clust_9="87.52673"></scales>
<clustering>
<clus scale="   83.454">  5  6 -1 -1</clus>
<clus scale="   87.527">  2  9  1 -1</clus>
<clus scale="   91.762">  7  8 -1 -1</clus>
<clus scale="  136.277">  1  5  2 -1</clus>
<clus scale="   87.527">  2  5  1 -1</clus>
</clustering>
</event>
<event>
 9    1  0.7586638E-005  0.3101602E+03  0.7546771E-02  0.1080269E+00
         -2   -1    0    0    0  501 -0.00000000000E+00  0.00000000000E+00  0.82847562103E+03  0.82847562103E+03  0.00000000000E+00 0.  1.
         21   -1    0    0  501  502  0.00000000000E+00 -0.00000000000E+00 -0.11339093891E+03  0.11339093891E+03  0.00000000000E+00 0.  1.
        -24    2    1    2    0    0 -0.11982000218E+03  0.84291163777E+02  0.92452834169E+02  0.19208095610E+03  0.82980322595E+02 0.  0.
         23    2    1    2    0    0 -0.10357912121E+03 -0.30490177494E+02  0.85351135401E+02  0.16542930966E+03  0.91781016046E+02 0.  0.
         13    1    3    3    0    0 -0.48566327455E+02  0.36441114952E+02  0.86981154640E+02  0.10607716193E+03  0.00000000000E+00 0. -1.
        -14    1    3    3    0    0 -0.71253674727E+02  0.47850048825E+02  0.54716795287E+01  0.86003794170E+02  0.00000000000E+00 0.  1.
        -11    1    4    4    0    0 -0.50115372657E+01 -0.41978097683E+02  0.29571002834E+02  0.51591863694E+02  0.00000000000E+00 0.  1.
         11    1    4    4    0    0 -0.98567583946E+02  0.11487920189E+02  0.55780132567E+02  0.11383744597E+03  0.00000000000E+00 0. -1.
         -1    1    1    2    0  502  0.22339912339E+03 -0.53800986284E+02  0.53728071255E+03  0.58435629417E+03  0.00000000000E+00 0.  1.
<scales pt_clust_5="13000.00000" pt_clust_6="13000.00000" pt_clust_7="13000.00000" pt_clust_8="13000.00000" pt_clust_9="229.78635"></scales>
<clustering>
<clus scale="   82.980">  5  6 -1 -1</clus>
<clus scale="   91.781">  7  8 -1 -1</clus>
<clus scale="  131.286">  5  7 -1 -1</clus>
<clus scale="  229.786">  2  9  1 -1</clus>
<clus scale="  229.786">  2  5  1 -1</clus>
</clustering>
</event>
<event>
 9    1  0.7586638E-005  0.1351046E+03  0.7546771E-02  0.1222215E+00
         21   -1    0    0  501  502  0.00000000000E+00  0.00000000000E+00  0.13340154468E+03  0.13340154468E+03  0.00000000000E+00 0. -1.
          1   -1    0    0  502    0 -0.00000000000E+00 -0.00000000000E+00 -0.26722737386E+03  0.26722737386E+03  0.00000000000E+00 0. -1.
        -24    2    1    2    0    0  0.35114981385E+02 -0.91475204820E+02 -0.95726644293E+02  0.15885375018E+03  0.80437233311E+02 0.  0.
         23    2    1    2    0    0  0.12195042796E+02  0.11869166423E+03  0.32294490687E+02  0.15270079713E+03  0.89655836879E+02 0.  0.
         11    1    3    3    0    0  0.26913596594E+02 -0.63689511981E+02 -0.10730734363E+03  0.12765407011E+03  0.00000000000E+00 0. -1.
        -12    1    3    3    0    0  0.82013847904E+01 -0.27785692838E+02  0.11580699340E+02  0.31199680066E+02  0.00000000000E+00 0.  1.
        -13    1    4    4    0    0  0.24373212953E+02  0.23684999807E+02 -0.23993690111E+02  0.41602041905E+02  0.00000000000E+00 0.  1.
         13    1    4    4    0    0 -0.12178170158E+02  0.95006664428E+02  0.56288180798E+02  0.11109875522E+03  0.00000000000E+00 0. -1.
          2    1    1    2  501    0 -0.47310024180E+02 -0.27216459415E+02 -0.70393675575E+02  0.89074371241E+02  0.00000000000E+00 0. -1.
<scales pt_clust_5="13000.00000" pt_clust_6="13000.00000" pt_clust_7="13000.00000" pt_clust_8="13000.00000" pt_clust_9="54.58001"></scales>
<clustering>
<clus scale="   54.580">  1  9  2 -1</clus>
<clus scale="   80.437">  5  6 -1 -1</clus>
<clus scale="   89.656">  7  8 -1 -1</clus>
<clus scale="  129.171">  2  5  1 -1</clus>
<clus scale="   54.580">  1  5  2 -1</clus>
</clustering>
</event>
<event>
 9    1  0.7586638E-005  0.1677653E+03  0.7546771E-02  0.1181457E+00
         21   -1    0    0  501  502  0.00000000000E+00  0.00000000000E+00  0.26044770189E+03  0.26044770189E+03  0.00000000000E+00 0.  1.
         -2   -1    0    0    0  501 -0.00000000000E+00 -0.00000000000E+00 -0.97743279238E+03  0.97743279238E+03  0.00000000000E+00 0.  1.
        -24    2    1    2    0    0 -0.13220148774E+03  0.57372238216E+02 -0.74065311025E+03  0.75875472984E+03  0.79830465664E+02 0.  0.
         23    2    1    2    0    0  0.10511022173E+03 -0.94699235432E+02 -0.19432088165E+03  0.25631103746E+03  0.88986734829E+02 0.  0.
         13    1    3    3    0    0 -0.58769029266E+02  0.18024484878E+02 -0.14775198568E+03  0.16002915399E+03  0.00000000000E+00 0. -1.
        -14    1    3    3    0    0 -0.73432458473E+02  0.39347753338E+02 -0.59290112457E+03  0.59872557584E+03  0.00000000000E+00 0.  1.
        -13    1    4    4    0    0  0.11992800361E+03 -0.72698601490E+02 -0.16936254598E+03  0.21988971029E+03  0.00000000000E+00 0. -1.
         13    1    4    4    0    0 -0.14817781882E+02 -0.22000633942E+02 -0.24958335672E+02  0.36421327176E+02  0.00000000000E+00 0.  1.
         -1    1    1    2    0  502  0.27091266006E+02  0.37326997216E+02  0.21798890141E+03  0.22281472697E+03  0.00000000000E+00 0.  1.
<scales pt_clust_5="13000.00000" pt_clust_6="13000.00000" pt_clust_7="13000.00000" pt_clust_8="13000.00000" pt_clust_9="46.12203"></scales>
<clustering>
<clus scale="   46.122">  1  9  2 -1</clus>
<clus scale="   79.830">  5  6 -1 -1</clus>
<clus scale="   88.987">  7  8 -1 -1</clus>
<clus scale="  163.093">  2  5  1 -1</clus>
<clus scale="   46.122">  1  5  2 -1</clus>
</clustering>
</event>
<event>
 9    1  0.7586638E-005  0.9970301E+02  0.7546771E-02  0.1284176E+00
         21   -1    0    0  501  502  0.00000000000E+00  0.00000000000E+00  0.39720412532E+03  0.39720412532E+03  0.00000000000E+00 0. -1.
          3   -1    0    0  502    0 -0.00000000000E+00 -0.00000000000E+00 -0.79018450421E+02  0.79018450421E+02  0.00000000000E+00 0. -1.
        -24    2    1    2    0    0 -0.10717707246E+02  0.55084558991E+02 -0.12493823765E+02  0.10051282442E+03  0.82447282265E+02 0.  0.
         23    2    1    2    0    0  0.39102116993E+02  0.16806864716E+01  0.11401870239E+03  0.14994467773E+03  0.89170295648E+02 0.  0.
         13    1    3    3    0    0 -0.31831253376E+02  0.67919183041E+02 -0.86070584471E+01  0.75500500472E+02  0.00000000000E+00 0. -1.
        -14    1    3    3    0    0  0.21113546130E+02 -0.12834624049E+02 -0.38867653181E+01  0.25012323949E+02  0.00000000000E+00 0.  1.
        -13    1    4    4    0    0 -0.26076808416E+02  0.35704592189E+01  0.12138823201E+02  0.28984463854E+02  0.00000000000E+00 0.  1.
         13    1    4    4    0    0  0.65178925409E+02 -0.18897727473E+01  0.10187987919E+03  0.12096021388E+03  0.00000000000E+00 0. -1.
          4    1    1    2  501    0 -0.28384409747E+02 -0.56765245463E+02  0.21666079628E+03  0.22576507359E+03  0.00000000000E+00 0. -1.
<scales pt_clust_5="13000.00000" pt_clust_6="13000.00000" pt_clust_7="13000.00000" pt_clust_8="13000.00000" pt_clust_9="63.46627"></scales>
<clustering>
<clus scale="   63.466">  1  9  2 -1</clus>
<clus scale="   82.447">  5  6 -1 -1</clus>
<clus scale="   89.170">  7  8 -1 -1</clus>
<clus scale="   93.738">  2  5  1 -1</clus>
<clus scale="   63.466">  1  5  2 -1</clus>
</clustering>
</event>
<event>
 9    1  0.7586638E-005  0.1944817E+03  0.7546771E-02  0.1155078E+00
          1   -1    0    0  502    0 -0.00000000000E+00  0.00000000000E+00  0.68802494886E+03  0.68802494886E+03  0.00000000000E+00 0. -1.
         21   -1    0    0  501  502  0.00000000000E+00 -0.00000000000E+00 -0.10175110853E+03  0.10175110853E+03  0.00000000000E+00 0. -1.
         23    2    1    2    0    0  0.17637401354E+03 -0.11714216084E+03  0.45987552480E+03  0.51367032329E+03  0.86842525422E+02 0.  0.
        -24    2    1    2    0    0 -0.75889212394E+02  0.83744360362E+02  0.60734929387E+02  0.15150923087E+03  0.80585513219E+02 0.  0.
         11    1    4    4    0    0 -0.86628397314E+01  0.69414975268E+02  0.33691426879E+02  0.77644032796E+02  0.00000000000E+00 0. -1.
        -12    1    4    4    0    0 -0.67226372663E+02  0.14329385094E+02  0.27043502508E+02  0.73865198074E+02  0.00000000000E+00 0.  1.
        -13    1    3    3    0    0  0.34670535107E+02  0.77260663359E+01  0.11630395412E+03  0.12160735114E+03  0.00000000000E+00 0.  1.
         13    1    3    3    0    0  0.14170347843E+03 -0.12486822717E+03  0.34357157068E+03  0.39206297215E+03  0.00000000000E+00 0. -1.
          2    1    1    2  501    0 -0.10048480115E+03  0.33397800475E+02  0.65663386138E+02  0.12459650323E+03  0.00000000000E+00 0. -1.
<scales pt_clust_5="13000.00000" pt_clust_6="13000.00000" pt_clust_7="13000.00000" pt_clust_8="13000.00000" pt_clust_9="105.88960"></scales>
<clustering>
<clus scale="   80.586">  5  6 -1 -1</clus>
<clus scale="   86.843">  7  8 -1 -1</clus>
<clus scale="  105.890">  2  9  1 -1</clus>
<clus scale="  191.769">  2  5  1 -1</clus>
<clus scale="  105.890">  2  5  1 -1</clus>
</clustering>
</event>
<event>
 9    1  0.7586638E-005  0.1006466E+03  0.7546771E-02  0.1284786E+00
         21   -1    0    0  501  502  0.00000000000E+00  0.00000000000E+00  0.17382125118E+02  0.17382125118E+02  0.00000000000E+00 0. -1.
          1   -1    0    0  502    0 -0.00000000000E+00 -0.00000000000E+00 -0.13167787795E+04  0.13167787795E+04  0.00000000000E+00 0. -1.
        -24    2    1    2    0    0 -0.56473930812E+02 -0.19664522785E+02 -0.58542948079E+03  0.59393836936E+03  0.80368596501E+02 0.  0.
         23    2    1    2    0    0  0.86700181342E+00 -0.29301027235E+02 -0.21400954800E+03  0.23480450726E+03  0.92053072212E+02 0.  0.
         11    1    3    3    0    0 -0.68833664747E+02 -0.35957049066E+02 -0.40718194064E+03  0.41452155018E+03  0.00000000000E+00 0. -1.
        -12    1    3    3    0    0  0.12359733935E+02  0.16292526281E+02 -0.17824754015E+03  0.17941681918E+03  0.00000000000E+00 0.  1.
        -11    1    4    4    0    0  0.33464197822E+02 -0.48334355119E+01 -0.17551275607E+03  0.17873987294E+03  0.00000000000E+00 0.  1.
         11    1    4    4    0    0 -0.32597196009E+02 -0.24467591723E+02 -0.38496791931E+02  0.56064634319E+02  0.00000000000E+00 0. -1.
          2    1    1    2  501    0  0.55606928999E+02  0.48965550020E+02 -0.49995762561E+03  0.50541802802E+03  0.00000000000E+00 0. -1.
<scales pt_clust_5="13000.00000" pt_clust_6="13000.00000" pt_clust_7="13000.00000" pt_clust_8="13000.00000" pt_clust_9="74.09292"></scales>
<clustering>
<clus scale="   74.093">  1  9  2 -1</clus>
<clus scale="   80.369">  5  6 -1 -1</clus>
<clus scale="   90.084">  2  5  1 -1</clus>
<clus scale="   92.053">  7  8 -1 -1</clus>
<clus scale="   74.093">  1  5  2 -1</clus>
</clustering>
</event>
<event>
 9    1  0.7586638E-005  0.9475996E+02  0.7546771E-02  0.1297883E+00
         -2   -1    0    0    0  501 -0.00000000000E+00  0.00000000000E+00  0.41280222900E+03  0.41280222900E+03  0.00000000000E+00 0.  1.
         21   -1    0    0  501  502  0.00000000000E+00 -0.00000000000E+00 -0.63649866103E+02  0.63649866103E+02  0.00000000000E+00 0.  1.
        -24    2    1    2    0    0 -0.15759508799E+02 -0.20666993821E+02  0.24144918745E+03  0.25563542955E+03  0.79851587135E+02 0.  0.
         23    2    1    2    0    0  0.64853757420E+01  0.44702726203E+02 -0.86552786683E+01  0.10164025925E+03  0.90639034769E+02 0.  0.
         11    1    3    3    0    0  0.14237991588E+02  0.24708602698E+02  0.64709446994E+02  0.70714552831E+02  0.00000000000E+00 0. -1.
        -12    1    3    3    0    0 -0.29997500387E+02 -0.45375596519E+02  0.17673974045E+03  0.18492087671E+03  0.00000000000E+00 0.  1.
        -13    1    4    4    0    0 -0.30234507035E+02 -0.95879200956E+01 -0.16285826866E+02  0.35655038692E+02  0.00000000000E+00 0. -1.
         13    1    4    4    0    0  0.36719882777E+02  0.54290646299E+02  0.76305481982E+01  0.65985220561E+02  0.00000000000E+00 0.  1.
         -1    1    1    2    0  502  0.92741330565E+01 -0.24035732381E+02  0.11635845412E+03  0.11917640631E+03  0.00000000000E+00 0.  1.
<scales pt_clust_5="13000.00000" pt_clust_6="13000.00000" pt_clust_7="13000.00000" pt_clust_8="13000.00000" pt_clust_9="25.76289"></scales>
<clustering>
<clus scale="   25.763">  2  9  1 -1</clus>
<clus scale="   79.852">  5  6 -1 -1</clus>
<clus scale="   84.500">  1  5  2 -1</clus>
<clus scale="   90.639">  7  8 -1 -1</clus>
<clus scale="   25.763">  2  5  1 -1</clus>
</clustering>
</event>
<event>
 9    1  0.7586638E-005  0.1307701E+03  0.7546771E-02  0.1230272E+00
         21   -1    0    0  501  502  0.00000000000E+00  0.00000000000E+00  0.12999646549E+03  0.12999646549E+03  0.00000000000E+00 0. -1.
          1   -1    0    0  502    0 -0.00000000000E+00 -0.00000000000E+00 -0.38467872822E+03  0.38467872822E+03  0.00000000000E+00 0. -1.
         23    2    1    2    0    0  0.99998081608E+02  0.10719267617E+02 -0.24540712777E+03  0.28050897485E+03  0.91357033606E+02 0.  0.
        -24    2    1    2    0    0 -0.51839434774E+02  0.40826987198E+01  0.86282769683E+02  0.12613998772E+03  0.75911690351E+02 0.  0.
         13    1    4    4    0    0 -0.37691749483E+02 -0.32361136625E+02  0.31444167253E+02  0.58793254689E+02  0.00000000000E+00 0. -1.
        -14    1    4    4    0    0 -0.14147685290E+02  0.36443835344E+02  0.54838602430E+02  0.67346733033E+02  0.00000000000E+00 0.  1.
        -11    1    3    3    0    0  0.71259986350E+02  0.49953179829E+02 -0.14980713939E+03  0.17324977587E+03  0.00000000000E+00 0.  1.
         11    1    3    3    0    0  0.28738095258E+02 -0.39233912212E+02 -0.95599988381E+02  0.10725919898E+03  0.00000000000E+00 0. -1.
          2    1    1    2  501    0 -0.48158646834E+02 -0.14801966336E+02 -0.95557904645E+02  0.10802623113E+03  0.00000000000E+00 0. -1.
<scales pt_clust_5="13000.00000" pt_clust_6="13000.00000" pt_clust_7="13000.00000" pt_clust_8="13000.00000" pt_clust_9="50.38210"></scales>
<clustering>
<clus scale="   50.382">  1  9  2 -1</clus>
<clus scale="   75.912">  5  6 -1 -1</clus>
<clus scale="   91.357">  7  8 -1 -1</clus>
<clus scale="  120.488">  1  5  2 -1</clus>
<clus scale="   50.382">  1  5  2 -1</clus>
</clustering>
</event>
<event>
 9    1  0.7586638E-005  0.1200147E+03  0.7546771E-02  0.1248100E+00
         -4   -1    0    0    0  501 -0.00000000000E+00  0.00000000000E+00  0.98629595516E+02  0.98629595516E+02  0.00000000000E+00 0.  1.
         21   -1    0    0  501  502  0.00000000000E+00 -0.00000000000E+00 -0.32706192126E+03  0.32706192126E+03  0.00000000000E+00 0. -1.
        -24    2    1    2    0    0  0.81621364534E+02 -0.28381848074E+02 -0.29844910750E+02  0.11922717565E+03  0.76529891329E+02 0.  0.
         23    2    1    2    0    0 -0.32660787317E+02  0.43358753138E+02 -0.22479447888E+03  0.24894690025E+03  0.92169913254E+02 0.  0.
         11    1    3    3    0    0  0.36748541629E+01 -0.33902695940E+02  0.34753380988E+01  0.34277913005E+02  0.00000000000E+00 0. -1.
        -12    1    3    3    0    0  0.77946510371E+02  0.55208478661E+01 -0.33320248849E+02  0.84949262643E+02  0.00000000000E+00 0.  1.
        -11    1    4    4    0    0 -0.58104810456E+02  0.57226675942E+01 -0.95839023380E+02  0.11222315414E+03  0.00000000000E+00 0.  1.
         11    1    4    4    0    0  0.25444023139E+02  0.37636085543E+02 -0.12895545550E+03  0.13672374612E+03  0.00000000000E+00 0. -1.
         -3    1    1    2    0  502 -0.48960577217E+02 -0.14976905064E+02  0.26207063888E+02  0.57517440871E+02  0.00000000000E+00 0.  1.
<scales pt_clust_5="13000.00000" pt_clust_6="13000.00000" pt_clust_7="13000.00000" pt_clust_8="13000.00000" pt_clust_9="51.20008"></scales>
<clustering>
<clus scale="   51.200">  2  9  1 -1</clus>
<clus scale="   76.530">  5  6 -1 -1</clus>
<clus scale="   92.170">  7  8 -1 -1</clus>
<clus scale="  108.467">  1  5  2 -1</clus>
<clus scale="   51.200">  2  5  1 -1</clus>
</clustering>
</event>
<event>
 9    1  0.7586638E-005  0.1497000E+03  0.7546771E-02  0.1226912E+00
         21   -1    0    0  501  502  0.00000000000E+00  0.00000000000E+00  0.29236262976E+03  0.29236262976E+03  0.00000000000E+00 0.  1.
         -2   -1    0    0    0  501 -0.00000000000E+00 -0.00000000000E+00 -0.11587148761E+03  0.11587148761E+03  0.00000000000E+00 0.  1.
        -24    2    1    2    0    0 -0.20230123429E+02 -0.22216688220E+02  0.28945613993E+02  0.90836375985E+02  0.80688038167E+02 0.  0.
         23    2    1    2    0    0 -0.62494627705E+01  0.12621339193E+03  0.40582289527E+02  0.16588002860E+03  0.99500681289E+02 0.  0.
         13    1    3    3    0    0 -0.20715230849E+02  0.42892036045E+01 -0.23776015339E+02  0.31824785343E+02  0.00000000000E+00 0. -1.
        -14    1    3    3    0    0  0.48510742028E+00 -0.26505891825E+02  0.52721629332E+02  0.59011590642E+02  0.00000000000E+00 0.  1.
        -11    1    4    4    0    0  0.22641614561E+02  0.12181709883E+03  0.52175505643E+02  0.13444081101E+03  0.00000000000E+00 0.  1.
         11    1    4    4    0    0 -0.28891077332E+02  0.43962931032E+01 -0.11593216116E+02  0.31439217585E+02  0.00000000000E+00 0. -1.
         -1    1    1    2    0  502  0.26479586200E+02 -0.10399670371E+03  0.10696323864E+03  0.15151771278E+03  0.00000000000E+00 0.  1.
<scales pt_clust_5="13000.00000" pt_clust_6="13000.00000" pt_clust_7="13000.00000" pt_clust_8="13000.00000" pt_clust_9="111.84677"></scales>
<clustering>
<clus scale="   80.688">  5  6 -1 -1</clus>
<clus scale="   86.101">  2  5  1 -1</clus>
<clus scale="   99.501">  7  8 -1 -1</clus>
<clus scale="  111.847">  1  9  2 -1</clus>
<clus scale="  111.847">  1  5  2 -1</clus>
</clustering>
</event>
<event>
 9    1  0.7586638E-005  0.1706978E+03  0.7546771E-02  0.1211919E+00
         21   -1    0    0  501  502  0.00000000000E+00  0.00000000000E+00  0.47533850444E+03  0.47533850444E+03  0.00000000000E+00 0. -1.
          1   -1    0    0  502    0 -0.00000000000E+00 -0.00000000000E+00 -0.28745311870E+03  0.28745311870E+03  0.00000000000E+00 0. -1.
        -24    2    1    2    0    0 -0.16198356438E+01  0.17313687412E+01  0.17002581852E+03  0.18773149897E+03  0.79553222670E+02 0.  0.
         23    2    1    2    0    0 -0.10947866177E+03 -0.93977592238E+02 -0.23110131711E+03  0.28725157009E+03  0.91039994080E+02 0.  0.
         13    1    3    3    0    0 -0.17214735621E+02  0.36840677172E+02  0.97975051335E+02  0.10607871276E+03  0.00000000000E+00 0. -1.
        -14    1    3    3    0    0  0.15594899978E+02 -0.35109308431E+02  0.72050767181E+02  0.81652786206E+02  0.00000000000E+00 0.  1.
        -13    1    4    4    0    0 -0.83432940676E+02 -0.11800293035E+02 -0.10853638599E+03  0.13740614829E+03  0.00000000000E+00 0. -1.
         13    1    4    4    0    0 -0.26045721092E+02 -0.82177299203E+02 -0.12256493112E+03  0.14984542179E+03  0.00000000000E+00 0.  1.
          2    1    1    2  501    0  0.11109849741E+03  0.92246223497E+02  0.24896088433E+03  0.28780855408E+03  0.00000000000E+00 0. -1.
<scales pt_clust_5="13000.00000" pt_clust_6="13000.00000" pt_clust_7="13000.00000" pt_clust_8="13000.00000" pt_clust_9="144.39337"></scales>
<clustering>
<clus scale="   79.553">  5  6 -1 -1</clus>
<clus scale="   79.589">  2  5  1 -1</clus>
<clus scale="   91.040">  7  8 -1 -1</clus>
<clus scale="  144.393">  1  9  2 -1</clus>
<clus scale="  144.393">  1  5  2 -1</clus>
</clustering>
</event>
<event>
 9    1  0.7586638E-005  0.1030660E+03  0.7546771E-02  0.1284420E+00
          1   -1    0    0  502    0 -0.00000000000E+00  0.00000000000E+00  0.54322903926E+03  0.54322903926E+03  0.00000000000E+00 0. -1.
         21   -1    0    0  501  502  0.00000000000E+00 -0.00000000000E+00 -0.37423881786E+02  0.37423881786E+02  0.00000000000E+00 0. -1.
        -24    2    1    2    0    0 -0.12104301394E+02 -0.38725958386E+02  0.20265945454E+03  0.21704892038E+03  0.66280957743E+02 0.  0.
         23    2    1    2    0    0  0.78162117646E+02  0.57603134097E+02  0.18658564299E+03  0.22830348172E+03  0.88774094786E+02 0.  0.
         11    1    3    3    0    0 -0.10598330998E+02 -0.56023846568E+02  0.12377823646E+03  0.13627930080E+03  0.00000000000E+00 0. -1.
        -12    1    3    3    0    0 -0.15059703961E+01  0.17297888182E+02  0.78881218074E+02  0.80769619580E+02  0.00000000000E+00 0.  1.
        -11    1    4    4    0    0 -0.11391026599E+02  0.23587953596E+02  0.83799147986E+02  0.87797746241E+02  0.00000000000E+00 0.  1.
         11    1    4    4    0    0  0.89553144245E+02  0.34015180502E+02  0.10278649500E+03  0.14050573548E+03  0.00000000000E+00 0. -1.
          2    1    1    2  501    0 -0.66057816252E+02 -0.18877175711E+02  0.11656005995E+03  0.13530051894E+03  0.00000000000E+00 0. -1.
<scales pt_clust_5="13000.00000" pt_clust_6="13000.00000" pt_clust_7="13000.00000" pt_clust_8="13000.00000" pt_clust_9="68.70213"></scales>
<clustering>
<clus scale="   66.281">  5  6 -1 -1</clus>
<clus scale="   68.702">  2  9  1 -1</clus>
<clus scale="   84.468">  1  5  2 -1</clus>
<clus scale="   88.774">  7  8 -1 -1</clus>
<clus scale="   68.702">  2  5  1 -1</clus>
</clustering>
</event>
<event>
 9    1  0.7586638E-005  0.2369631E+03  0.7546771E-02  0.1122477E+00
         21   -1    0    0  501  502  0.00000000000E+00  0.00000000000E+00  0.21574440693E+03  0.21574440693E+03  0.00000000000E+00 0.  1.
         -2   -1    0    0    0  501 -0.00000000000E+00 -0.00000000000E+00 -0.42315148745E+03  0.42315148745E+03  0.00000000000E+00 0.  1.
        -24    2    1    2    0    0  0.48716246118E+02 -0.20192263597E+03 -0.18745477098E+03  0.29109523978E+03  0.80318888855E+02 0.  0.
         23    2    1    2    0    0  0.11176375138E+02  0.25269493718E+03 -0.16051789682E+02  0.26918661828E+03  0.90687004974E+02 0.  0.
         13    1    3    3    0    0 -0.17797997048E+02 -0.56566938410E+02 -0.75187038194E+02  0.95758435307E+02  0.00000000000E+00 0. -1.
        -14    1    3    3    0    0  0.66514243166E+02 -0.14535569756E+03 -0.11226773278E+03  0.19533680447E+03  0.00000000000E+00 0.  1.
        -13    1    4    4    0    0  0.14492910439E+01  0.21171642059E+03 -0.47056900338E+02  0.21688774761E+03  0.00000000000E+00 0.  1.
         13    1    4    4    0    0  0.97270840936E+01  0.40978516587E+02  0.31005110656E+02  0.52298870671E+02  0.00000000000E+00 0. -1.
         -1    1    1    2    0  502 -0.59892621255E+02 -0.50772301212E+02 -0.39005198549E+01  0.78614036319E+02  0.00000000000E+00 0.  1.
<scales pt_clust_5="13000.00000" pt_clust_6="13000.00000" pt_clust_7="13000.00000" pt_clust_8="13000.00000" pt_clust_9="78.51721"></scales>
<clustering>
<clus scale="   78.517">  1  9  2 -1</clus>
<clus scale="   80.319">  5  6 -1 -1</clus>
<clus scale="   90.687">  7  8 -1 -1</clus>
<clus scale="  233.192">  2  5  1 -1</clus>
<clus scale="   78.517">  1  5  2 -1</clus>
</clustering>
</event>
<event>
 9    1  0.7586638E-005  0.1327235E+03  0.7546771E-02  0.1226159E+00
         21   -1    0    0  501  502  0.00000000000E+00  0.00000000000E+00  0.10234841368E+03  0.10234841368E+03  0.00000000000E+00 0. -1.
          1   -1    0    0  502    0 -0.00000000000E+00 -0.00000000000E+00 -0.55030165780E+03  0.55030165780E+03  0.00000000000E+00 0. -1.
         23    2    1    2    0    0 -0.18676160084E+02  0.10503734430E+03 -0.39235853351E+03  0.41654589847E+03  0.90463385202E+02 0.  0.
        -24    2    1    2    0    0  0.42480241010E+02 -0.70636561041E+02 -0.11576081999E+03  0.16282382861E+03  0.79479161336E+02 0.  0.
         13    1    4    4    0    0  0.45724815895E+02 -0.10826621739E+02 -0.80799161165E+02  0.93469133793E+02  0.00000000000E+00 0. -1.
        -14    1    4    4    0    0 -0.32445748846E+01 -0.59809939302E+02 -0.34961658822E+02  0.69354694817E+02  0.00000000000E+00 0.  1.
        -13    1    3    3    0    0  0.90862639205E+01  0.97954544095E+02 -0.36057727513E+03  0.37375610261E+03  0.00000000000E+00 0. -1.
         13    1    3    3    0    0 -0.27762424005E+02  0.70828002013E+01 -0.31781258384E+02  0.42789795861E+02  0.00000000000E+00 0.  1.
          2    1    1    2  501    0 -0.23804080926E+02 -0.34400783255E+02  0.60166109382E+02  0.73280344401E+02  0.00000000000E+00 0. -1.
<scales pt_clust_5="13000.00000" pt_clust_6="13000.00000" pt_clust_7="13000.00000" pt_clust_8="13000.00000" pt_clust_9="41.83358"></scales>
<clustering>
<clus scale="   41.834">  1  9  2 -1</clus>
<clus scale="   79.479">  5  6 -1 -1</clus>
<clus scale="   90.463">  7  8 -1 -1</clus>
<clus scale="  125.494">  1  5  2 -1</clus>
<clus scale="   41.834">  1  5  2 -1</clus>
</clustering>
</event>
<event>
 9    1  0.7586638E-005  0.1821658E+03  0.7546771E-02  0.1199964E+00
         21   -1    0    0  501  502  0.00000000000E+00  0.00000000000E+00  0.68088631029E+02  0.68088631029E+02  0.00000000000E+00 0. -1.
          1   -1    0    0  502    0 -0.00000000000E+00 -0.00000000000E+00 -0.95108124572E+03  0.95108124572E+03  0.00000000000E+00 0. -1.
         23    2    1    2    0    0  0.31464740981E+02 -0.97592699984E+01 -0.39216037482E+03  0.40119789472E+03  0.78004601601E+02 0.  0.
        -24    2    1    2    0    0 -0.18438937508E+03 -0.27804893939E+02 -0.36375904530E+03  0.41562424444E+03  0.75168582303E+02 0.  0.
         13    1    4    4    0    0 -0.14592426328E+03 -0.52766562295E+02 -0.28367864491E+03  0.32334466794E+03  0.00000000000E+00 0. -1.
        -14    1    4    4    0    0 -0.38465111800E+02  0.24961668356E+02 -0.80080400391E+02  0.92279576504E+02  0.00000000000E+00 0.  1.
        -13    1    3    3    0    0  0.52605933648E+02  0.11389609102E+02 -0.22214880025E+03  0.22857645746E+03  0.00000000000E+00 0.  1.
         13    1    3    3    0    0 -0.21141192667E+02 -0.21148879100E+02 -0.17001157457E+03  0.17262143726E+03  0.00000000000E+00 0. -1.
          2    1    1    2  501    0  0.15292463410E+03  0.37564163937E+02 -0.12707319457E+03  0.20234773758E+03  0.00000000000E+00 0. -1.
<scales pt_clust_5="13000.00000" pt_clust_6="13000.00000" pt_clust_7="13000.00000" pt_clust_8="13000.00000" pt_clust_9="165.93391"></scales>
<clustering>
<clus scale="   75.169">  5  6 -1 -1</clus>
<clus scale="   78.005">  7  8 -1 -1</clus>
<clus scale="   84.676">  2  7  1 -1</clus>
<clus scale="  165.934">  1  9  2 -1</clus>
<clus scale="  165.934">  1  5  2 -1</clus>
</clustering>
</event>
<event>
 9    1  0.7586638E-005  0.1079758E+03  0.7546771E-02  0.1267643E+00
          1   -1    0    0  502    0 -0.00000000000E+00  0.00000000000E+00  0.59066472381E+03  0.59066472381E+03  0.00000000000E+00 0. -1.
         21   -1    0    0  501  502  0.00000000000E+00 -0.00000000000E+00 -0.32920763167E+02  0.32920763167E+02  0.00000000000E+00 0.  1.
         23    2    1    2    0    0 -0.28417086245E+02 -0.50120002887E+02  0.30919790099E+03  0.32856197518E+03  0.95026754511E+02 0.  0.
        -24    2    1    2    0    0  0.41593666070E+02  0.16619286032E+02  0.92546049148E+02  0.13492378175E+03  0.87369456584E+02 0.  0.
         11    1    4    4    0    0  0.63742459383E+02  0.85434991283E+01  0.90820639648E+02  0.11128558349E+03  0.00000000000E+00 0. -1.
        -12    1    4    4    0    0 -0.22148793312E+02  0.80757869040E+01  0.17254094997E+01  0.23638198266E+02  0.00000000000E+00 0.  1.
        -11    1    3    3    0    0 -0.21833149804E+02  0.20709699303E+02  0.39596660514E+02  0.49734028587E+02  0.00000000000E+00 0.  1.
         11    1    3    3    0    0 -0.65839364412E+01 -0.70829702190E+02  0.26960124048E+03  0.27882794659E+03  0.00000000000E+00 0. -1.
          2    1    1    2  501    0 -0.13176579825E+02  0.33500716854E+02  0.15600001050E+03  0.16009973005E+03  0.00000000000E+00 0. -1.
<scales pt_clust_5="13000.00000" pt_clust_6="13000.00000" pt_clust_7="13000.00000" pt_clust_8="13000.00000" pt_clust_9="35.99891"></scales>
<clustering>
<clus scale="   35.999">  2  9  1 -1</clus>
<clus scale="   87.369">  5  6 -1 -1</clus>
<clus scale="   95.027">  7  8 -1 -1</clus>
<clus scale="  101.302">  2  5  1 -1</clus>
<clus scale="   35.999">  2  5  1 -1</clus>
</clustering>
</event>
<event>
 9    1  0.7586638E-005  0.1039149E+03  0.7546771E-02  0.1277720E+00
          1   -1    0    0  502    0 -0.00000000000E+00  0.00000000000E+00  0.38909894462E+03  0.38909894462E+03  0.00000000000E+00 0. -1.
         21   -1    0    0  501  502  0.00000000000E+00 -0.00000000000E+00 -0.34801768405E+02  0.34801768405E+02  0.00000000000E+00 0. -1.
        -24    2    1    2    0    0 -0.40347280150E+02  0.12553462247E+02  0.16448084966E+03  0.18778225040E+03  0.80141944273E+02 0.  0.
         23    2    1    2    0    0  0.43884949061E+02 -0.42041899925E+02  0.15725283449E+03  0.19204506845E+03  0.91975237206E+02 0.  0.
         13    1    3    3    0    0 -0.49745933702E+02 -0.71496019708E+01  0.48771476136E+02  0.70031647223E+02  0.00000000000E+00 0. -1.
        -14    1    3    3    0    0  0.93986535525E+01  0.19703064218E+02  0.11570937352E+03  0.11775060318E+03  0.00000000000E+00 0.  1.
        -11    1    4    4    0    0  0.69409523742E+01 -0.43972811364E+02  0.14709150980E+03  0.15368050369E+03  0.00000000000E+00 0.  1.
         11    1    4    4    0    0  0.36943996687E+02  0.19309114389E+01  0.10161324692E+02  0.38364564766E+02  0.00000000000E+00 0. -1.
          2    1    1    2  501    0 -0.35376689115E+01  0.29488437677E+02  0.32563492068E+02  0.44073394170E+02  0.00000000000E+00 0. -1.
<scales pt_clust_5="13000.00000" pt_clust_6="13000.00000" pt_clust_7="13000.00000" pt_clust_8="13000.00000" pt_clust_9="29.69988"></scales>
<clustering>
<clus scale="   29.700">  2  9  1 -1</clus>
<clus scale="   80.142">  5  6 -1 -1</clus>
<clus scale="   91.975">  7  8 -1 -1</clus>
<clus scale="   93.603">  1  5  2 -1</clus>
<clus scale="   29.700">  2  5  1 -1</clus>
</clustering>
</event>
<event>
 9    1  0.7586638E-005  0.1360363E+03  0.7546771E-02  0.1231482E+00
         21   -1    0    0  501  502  0.00000000000E+00  0.00000000000E+00  0.26005295559E+02  0.26005295559E+02  0.00000000000E+00 0.  1.
          1   -1    0    0  502    0 -0.00000000000E+00 -0.00000000000E+00 -0.16198609183E+04  0.16198609183E+04  0.00000000000E+00 0. -1.
         23    2    1    2    0    0  0.49667776811E+02  0.23860264485E+01 -0.19001792138E+03  0.21680535992E+03  0.91788738265E+02 0.  0.
        -24    2    1    2    0    0  0.83413338827E+02 -0.42948431494E+02 -0.52160893949E+03  0.53592957561E+03  0.79638378913E+02 0.  0.
         11    1    4    4    0    0  0.83132601374E+01 -0.37082743785E+02 -0.88438334069E+02  0.96257878190E+02  0.00000000000E+00 0. -1.
        -12    1    4    4    0    0  0.75100078690E+02 -0.58656877083E+01 -0.43317060542E+03  0.43967169742E+03  0.00000000000E+00 0.  1.
        -11    1    3    3    0    0  0.27785976685E+02  0.40217330071E+02 -0.14920392384E+03  0.15700734068E+03  0.00000000000E+00 0. -1.
         11    1    3    3    0    0  0.21881800126E+02 -0.37831303623E+02 -0.40813997535E+02  0.59798019243E+02  0.00000000000E+00 0.  1.
          2    1    1    2  501    0 -0.13308111564E+03  0.40562405045E+02 -0.88222876192E+03  0.89313127837E+03  0.00000000000E+00 0. -1.
<scales pt_clust_5="13000.00000" pt_clust_6="13000.00000" pt_clust_7="13000.00000" pt_clust_8="13000.00000" pt_clust_9="110.28875"></scales>
<clustering>
<clus scale="   79.638">  5  6 -1 -1</clus>
<clus scale="   91.789">  7  8 -1 -1</clus>
<clus scale="  104.392">  2  7  1 -1</clus>
<clus scale="  110.289">  1  9  2 -1</clus>
<clus scale="  110.289">  1  5  2 -1</clus>
</clustering>
</event>
<event>
 9    1  0.7586638E-005  0.1647245E+03  0.7546771E-02  0.1193269E+00
         21   -1    0    0  501  502  0.00000000000E+00  0.00000000000E+00  0.50493112770E+02  0.50493112770E+02  0.00000000000E+00 0. -1.
          1   -1    0    0  502    0 -0.00000000000E+00 -0.00000000000E+00 -0.10452238176E+04  0.10452238176E+04  0.00000000000E+00 0. -1.
        -24    2    1    2    0    0  0.82093369383E+02 -0.66454406046E+02 -0.23526658418E+03  0.27004110819E+03  0.80101966892E+02 0.  0.
         23    2    1    2    0    0 -0.82590748570E+02 -0.98217308496E+02 -0.34111622539E+03  0.37608491655E+03  0.92799320020E+02 0.  0.
         13    1    3    3    0    0  0.83545115917E+02 -0.78593504320E+02 -0.22940554108E+03  0.25648319164E+03  0.00000000000E+00 0. -1.
        -14    1    3    3    0    0 -0.14517465339E+01  0.12139098273E+02 -0.58610430958E+01  0.13557916546E+02  0.00000000000E+00 0.  1.
        -13    1    4    4    0    0  0.87376846715E+01 -0.57840418672E+02 -0.12833526303E+03  0.14103829587E+03  0.00000000000E+00 0.  1.
         13    1    4    4    0    0 -0.91328433242E+02 -0.40376889824E+02 -0.21278096236E+03  0.23504662068E+03  0.00000000000E+00 0. -1.
          2    1    1    2  501    0  0.49737918700E+00  0.16467171454E+03 -0.41834789525E+03  0.44959090562E+03  0.00000000000E+00 0. -1.
<scales pt_clust_5="13000.00000" pt_clust_6="13000.00000" pt_clust_7="13000.00000" pt_clust_8="13000.00000" pt_clust_9="136.09728"></scales>
<clustering>
<clus scale="   80.102">  5  6 -1 -1</clus>
<clus scale="   92.799">  7  8 -1 -1</clus>
<clus scale="  132.559">  2  5  1 -1</clus>
<clus scale="  136.097">  1  9  2 -1</clus>
<clus scale="  136.097">  1  5  2 -1</clus>
</clustering>
</event>
<event>
 9    1  0.7586638E-005  0.9738132E+02  0.7546771E-02  0.1293529E+00
          3   -1    0    0  502    0 -0.00000000000E+00  0.00000000000E+00  0.20219240381E+03  0.20219240381E+03  0.00000000000E+00 0. -1.
         21   -1    0    0  501  502  0.00000000000E+00 -0.00000000000E+00 -0.87842817360E+02  0.87842817360E+02  0.00000000000E+00 0. -1.
         23    2    1    2    0    0 -0.30650521616E+02  0.22475201017E+02  0.12547270365E+03  0.16115490321E+03  0.93717204035E+02 0.  0.
        -24    2    1    2    0    0 -0.14187896212E+02 -0.11480472309E+02 -0.83537596702E+01  0.82630592409E+02  0.80155672649E+02 0.  0.
         13    1    4    4    0    0 -0.21794776234E+00  0.22675182005E+02 -0.31690983506E+02  0.38968318102E+02  0.00000000000E+00 0. -1.
        -14    1    4    4    0    0 -0.13969948450E+02 -0.34155654313E+02  0.23337223835E+02  0.43662274306E+02  0.00000000000E+00 0.  1.
        -13    1    3    3    0    0  0.11885415745E+02 -0.17118630945E+02 -0.21242020602E+01  0.20948099371E+02  0.00000000000E+00 0.  1.
         13    1    3    3    0    0 -0.42535937361E+02  0.39593831963E+02  0.12759690571E+03  0.14020680384E+03  0.00000000000E+00 0. -1.
          4    1    1    2  501    0  0.44838417829E+02 -0.10994728709E+02 -0.27693575245E+01  0.46249725554E+02  0.00000000000E+00 0. -1.
<scales pt_clust_5="13000.00000" pt_clust_6="13000.00000" pt_clust_7="13000.00000" pt_clust_8="13000.00000" pt_clust_9="46.16674"></scales>
<clustering>
<clus scale="   46.167">  2  9  1 -1</clus>
<clus scale="   80.156">  5  6 -1 -1</clus>
<clus scale="   84.411">  2  5  1 -1</clus>
<clus scale="   93.717">  7  8 -1 -1</clus>
<clus scale="   46.167">  2  5  1 -1</clus>
</clustering>
</event>
<event>
 9    1  0.7586638E-005  0.1142840E+03  0.7546771E-02  0.1255406E+00
         21   -1    0    0  501  502  0.00000000000E+00  0.00000000000E+00  0.10355087549E+03  0.10355087549E+03  0.00000000000E+00 0. -1.
          1   -1    0    0  502    0 -0.00000000000E+00 -0.00000000000E+00 -0.41001829301E+03  0.41001829301E+03  0.00000000000E+00 0. -1.
        -24    2    1    2    0    0 -0.58363439376E+02  0.17488635238E+02 -0.17421441132E+03  0.20150605322E+03  0.80881919816E+02 0.  0.
         23    2    1    2    0    0  0.88855503930E+02 -0.42406039302E+01 -0.20031159509E+03  0.23631849266E+03  0.88365216818E+02 0.  0.
         13    1    3    3    0    0 -0.12898698999E+02  0.45805290429E+02 -0.86734114454E+02  0.98930822686E+02  0.00000000000E+00 0. -1.
        -14    1    3    3    0    0 -0.45464740378E+02 -0.28316655191E+02 -0.87480296865E+02  0.10257523053E+03  0.00000000000E+00 0.  1.
        -11    1    4    4    0    0  0.27194048933E+02  0.31696029750E+02 -0.12832410910E+03  0.13494899620E+03  0.00000000000E+00 0.  1.
         11    1    4    4    0    0  0.61661454997E+02 -0.35936633680E+02 -0.71987485994E+02  0.10136949646E+03  0.00000000000E+00 0. -1.
          2    1    1    2  501    0 -0.30492064554E+02 -0.13248031308E+02  0.68058588893E+02  0.75744622624E+02  0.00000000000E+00 0. -1.
<scales pt_clust_5="13000.00000" pt_clust_6="13000.00000" pt_clust_7="13000.00000" pt_clust_8="13000.00000" pt_clust_9="33.24570"></scales>
<clustering>
<clus scale="   33.246">  1  9  2 -1</clus>
<clus scale="   80.882">  5  6 -1 -1</clus>
<clus scale="   88.365">  7  8 -1 -1</clus>
<clus scale="  108.602">  2  5  1 -1</clus>
<clus scale="   33.246">  1  5  2 -1</clus>
</clustering>
</event>
<event>
 9    1  0.7586638E-005  0.1079490E+03  0.7546771E-02  0.1271878E+00
         21   -1    0    0  501  502  0.00000000000E+00  0.00000000000E+00  0.41031646157E+03  0.41031646157E+03  0.00000000000E+00 0. -1.
          1   -1    0    0  502    0 -0.00000000000E+00 -0.00000000000E+00 -0.77417901036E+02  0.77417901036E+02  0.00000000000E+00 0. -1.
         23    2    1    2    0    0  0.57393010048E+01 -0.67454890725E+02 -0.23365639418E+02  0.11331242322E+03  0.87810308578E+02 0.  0.
        -24    2    1    2    0    0 -0.25173714584E+01  0.40639986807E+02  0.19425663805E+03  0.21017861375E+03  0.69148120464E+02 0.  0.
         13    1    4    4    0    0 -0.20266802695E+02 -0.92487094903E+01  0.96116939477E+02  0.98664826423E+02  0.00000000000E+00 0. -1.
        -14    1    4    4    0    0  0.17749431237E+02  0.49888696297E+02  0.98139698576E+02  0.11151378733E+03  0.00000000000E+00 0.  1.
        -13    1    3    3    0    0 -0.21416160949E+02 -0.70493649351E+02  0.51037405485E+01  0.73851572199E+02  0.00000000000E+00 0. -1.
         13    1    3    3    0    0  0.27155461954E+02  0.30387586265E+01 -0.28469379966E+02  0.39460851025E+02  0.00000000000E+00 0.  1.
          2    1    1    2  501    0 -0.32219295465E+01  0.26814903918E+02  0.16200756190E+03  0.16424332563E+03  0.00000000000E+00 0. -1.
<scales pt_clust_5="13000.00000" pt_clust_6="13000.00000" pt_clust_7="13000.00000" pt_clust_8="13000.00000" pt_clust_9="27.00777"></scales>
<clustering>
<clus scale="   27.008">  1  9  2 -1</clus>
<clus scale="   69.148">  5  6 -1 -1</clus>
<clus scale="   87.810">  7  8 -1 -1</clus>
<clus scale="   93.401">  1  5  2 -1</clus>
<clus scale="   27.008">  1  5  2 -1</clus>
</clustering>
</event>
<event>
 9    1  0.7586638E-005  0.1033145E+03  0.7546771E-02  0.1278938E+00
         -4   -1    0    0    0  501 -0.00000000000E+00  0.00000000000E+00  0.84925879109E+02  0.84925879109E+02  0.00000000000E+00 0.  1.
         21   -1    0    0  501  502  0.00000000000E+00 -0.00000000000E+00 -0.35654903887E+03  0.35654903887E+03  0.00000000000E+00 0. -1.
         23    2    1    2    0    0 -0.12061397727E+02 -0.58738259989E+02 -0.69629269660E+02  0.12953842200E+03  0.91303379336E+02 0.  0.
        -24    2    1    2    0    0  0.48999980079E+02  0.43501837627E+01 -0.22389976330E+03  0.24263722483E+03  0.79509727230E+02 0.  0.
         11    1    4    4    0    0  0.59695551908E+02  0.16594684954E+01 -0.22377625674E+03  0.23160769813E+03  0.00000000000E+00 0. -1.
        -12    1    4    4    0    0 -0.10695571829E+02  0.26907152673E+01 -0.12350655663E+00  0.11029526702E+02  0.00000000000E+00 0.  1.
        -13    1    3    3    0    0 -0.66267470413E+00 -0.79662678064E+02 -0.69484310247E+02  0.10571022081E+03  0.00000000000E+00 0. -1.
         13    1    3    3    0    0 -0.11398723023E+02  0.20924418075E+02 -0.14495941315E+00  0.23828201182E+02  0.00000000000E+00 0.  1.
         -3    1    1    2    0  502 -0.36938582352E+02  0.54388076226E+02  0.21905873194E+02  0.69299271152E+02  0.00000000000E+00 0.  1.
<scales pt_clust_5="13000.00000" pt_clust_6="13000.00000" pt_clust_7="13000.00000" pt_clust_8="13000.00000" pt_clust_9="65.74592"></scales>
<clustering>
<clus scale="   65.746">  2  9  1 -1</clus>
<clus scale="   79.510">  5  6 -1 -1</clus>
<clus scale="   91.303">  7  8 -1 -1</clus>
<clus scale="   93.056">  2  5  1 -1</clus>
<clus scale="   65.746">  2  5  1 -1</clus>
</clustering>
</event>
<event>
 9    1  0.8126003E-005  0.9571978E+02  0.7546771E-02  0.1292521E+00
          3   -1    0    0  502    0 -0.00000000000E+00  0.00000000000E+00  0.10891497251E+03  0.10891497251E+03  0.00000000000E+00 0. -1.
         21   -1    0    0  501  502  0.00000000000E+00 -0.00000000000E+00 -0.31642390699E+03  0.31642390699E+03  0.00000000000E+00 0.  1.
        -24    2    1    2    0    0  0.22650844960E+02 -0.28251514854E+02  0.33366713980E+02  0.97777469581E+02  0.84474180001E+02 0.  0.
         23    2    1    2    0    0  0.16275913902E+00  0.30011061835E+01 -0.26884184102E+03  0.28351425796E+03  0.89974251077E+02 0.  0.
         13    1    3    3    0    0  0.51659631191E+02 -0.34330082295E+02  0.25871031938E+02  0.67205523127E+02  0.00000000000E+00 0. -1.
        -14    1    3    3    0    0 -0.29008786231E+02  0.60785674419E+01  0.74956820419E+01  0.30571946454E+02  0.00000000000E+00 0.  1.
        -13    1    4    4    0    0 -0.20146535439E+02  0.38538963219E+02 -0.18721938507E+03  0.19220362307E+03  0.00000000000E+00 0.  1.
         13    1    4    4    0    0  0.20309294578E+02 -0.35537857036E+02 -0.81622455947E+02  0.91310634889E+02  0.00000000000E+00 0. -1.
          4    1    1    2  501    0 -0.22813604099E+02  0.25250408670E+02  0.27966192549E+02  0.44047151959E+02  0.00000000000E+00 0. -1.
<scales pt_clust_5="13000.00000" pt_clust_6="13000.00000" pt_clust_7="13000.00000" pt_clust_8="13000.00000" pt_clust_9="34.03006"></scales>
<clustering>
<clus scale="   34.030">  2  9  1 -1</clus>
<clus scale="   84.474">  5  6 -1 -1</clus>
<clus scale="   89.974">  7  8 -1 -1</clus>
<clus scale="   90.569">  1  5  2 -1</clus>
<clus scale="   34.030">  2  5  1 -1</clus>
</clustering>
</event>
<event>
 9    1  0.7586638E-005  0.3688485E+03  0.7546771E-02  0.1101988E+00
         21   -1    0    0  501  502  0.00000000000E+00  0.00000000000E+00  0.96165960519E+03  0.96165960519E+03  0.00000000000E+00 0. -1.
         -4   -1    0    0    0  501 -0.00000000000E+00 -0.00000000000E+00 -0.43600772131E+03  0.43600772131E+03  0.00000000000E+00 0.  1.
         23    2    1    2    0    0  0.33788847304E+02  0.50108966992E+02  0.11639911839E+03  0.15607921705E+03  0.84613074979E+02 0.  0.
        -24    2    1    2    0    0 -0.17809734326E+03  0.30916787572E+03  0.67788826870E+03  0.77034525773E+03  0.81214975292E+02 0.  0.
         11    1    4    4    0    0 -0.16415906075E+03  0.21389163222E+03  0.49742614438E+03  0.56580084542E+03  0.00000000000E+00 0. -1.
        -12    1    4    4    0    0 -0.13938282508E+02  0.95276243496E+02  0.18046212432E+03  0.20454441231E+03  0.00000000000E+00 0.  1.
        -13    1    3    3    0    0  0.57023481099E+02  0.37685829236E+02  0.10909432377E+03  0.12873799206E+03  0.00000000000E+00 0. -1.
         13    1    3    3    0    0 -0.23234633795E+02  0.12423137756E+02  0.73047946221E+01  0.27341224986E+02  0.00000000000E+00 0.  1.
         -3    1    1    2    0  502  0.14430849595E+03 -0.35927684271E+03 -0.26863550321E+03  0.47124285172E+03  0.00000000000E+00 0.  1.
<scales pt_clust_5="13000.00000" pt_clust_6="13000.00000" pt_clust_7="13000.00000" pt_clust_8="13000.00000" pt_clust_9="359.79646"></scales>
<clustering>
<clus scale="   81.215">  5  6 -1 -1</clus>
<clus scale="   84.613">  7  8 -1 -1</clus>
<clus scale="  103.981">  2  7  1 -1</clus>
<clus scale="  359.796">  1  9  2 -1</clus>
<clus scale="  359.796">  1  5  2 -1</clus>
</clustering>
</event>
<event>
 9    1  0.7586638E-005  0.2197036E+03  0.7546771E-02  0.1134943E+00
         21   -1    0    0  501  502  0.00000000000E+00  0.00000000000E+00  0.15349799987E+03  0.15349799987E+03  0.00000000000E+00 0.  1.
         -4   -1    0    0    0  501 -0.00000000000E+00 -0.00000000000E+00 -0.64056654347E+03  0.64056654347E+03  0.00000000000E+00 0.  1.
         23    2    1    2    0    0 -0.10689258762E+03 -0.17857250104E+03 -0.42763105326E+03  0.48414425635E+03  0.90626595604E+02 0.  0.
        -24    2    1    2    0    0  0.92751184815E+02  0.15956110409E+03 -0.12746220838E+03  0.23788713662E+03  0.79253687486E+02 0.  0.
         11    1    4    4    0    0  0.52309631006E+01  0.83568936203E+02 -0.40678294614E+02  0.93090567330E+02  0.00000000000E+00 0. -1.
        -12    1    4    4    0    0  0.87520221714E+02  0.75992167889E+02 -0.86783913768E+02  0.14479656929E+03  0.00000000000E+00 0.  1.
        -13    1    3    3    0    0 -0.48644681793E+02 -0.75274041874E+02 -0.28441981017E+03  0.29820649702E+03  0.00000000000E+00 0. -1.
         13    1    3    3    0    0 -0.58247905826E+02 -0.10329845916E+03 -0.14321124310E+03  0.18593775934E+03  0.00000000000E+00 0.  1.
         -3    1    1    2    0  502  0.14141402803E+02  0.19011396944E+02  0.68024718041E+02  0.72033150365E+02  0.00000000000E+00 0.  1.
<scales pt_clust_5="13000.00000" pt_clust_6="13000.00000" pt_clust_7="13000.00000" pt_clust_8="13000.00000" pt_clust_9="23.69414"></scales>
<clustering>
<clus scale="   23.694">  1  9  2 -1</clus>
<clus scale="   79.254">  5  6 -1 -1</clus>
<clus scale="   90.627">  7  8 -1 -1</clus>
<clus scale="  215.262">  1  5  2 -1</clus>
<clus scale="   23.694">  1  5  2 -1</clus>
</clustering>
</event>
<event>
 9    1  0.7586638E-005  0.9404944E+02  0.7546771E-02  0.1296899E+00
         21   -1    0    0  501  502  0.00000000000E+00  0.00000000000E+00  0.60284651082E+02  0.60284651082E+02  0.00000000000E+00 0. -1.
          1   -1    0    0  502    0 -0.00000000000E+00 -0.00000000000E+00 -0.34731904516E+03  0.34731904516E+03  0.00000000000E+00 0. -1.
         23    2    1    2    0    0  0.35352747455E+02 -0.23508420538E+02 -0.25260016165E+03  0.27039935844E+03  0.86640110747E+02 0.  0.
        -24    2    1    2    0    0 -0.24702461725E+02  0.21091336033E+01 -0.59339021224E+02  0.10268468292E+03  0.80052261725E+02 0.  0.
         13    1    4    4    0    0 -0.16242817702E+02 -0.30551527764E+02 -0.59633696983E+02  0.68944925785E+02  0.00000000000E+00 0. -1.
        -14    1    4    4    0    0 -0.84596440229E+01  0.32660661367E+02  0.29467575883E+00  0.33739757138E+02  0.00000000000E+00 0.  1.
        -13    1    3    3    0    0 -0.25465036714E+00 -0.47066780149E+02 -0.82100808628E+02  0.94635561063E+02  0.00000000000E+00 0.  1.
         13    1    3    3    0    0  0.35607397822E+02  0.23558359611E+02 -0.17049935302E+03  0.17576379738E+03  0.00000000000E+00 0. -1.
          2    1    1    2  501    0 -0.10650285730E+02  0.21399286935E+02  0.24904788800E+02  0.34519654874E+02  0.00000000000E+00 0. -1.
<scales pt_clust_5="13000.00000" pt_clust_6="13000.00000" pt_clust_7="13000.00000" pt_clust_8="13000.00000" pt_clust_9="23.90310"></scales>
<clustering>
<clus scale="   23.903">  1  9  2 -1</clus>
<clus scale="   80.052">  5  6 -1 -1</clus>
<clus scale="   86.640">  7  8 -1 -1</clus>
<clus scale="   88.018">  1  5  2 -1</clus>
<clus scale="   23.903">  1  5  2 -1</clus>
</clustering>
</event>
<event>
 9    1  0.7586638E-005  0.1305657E+03  0.7546771E-02  0.1228710E+00
         21   -1    0    0  501  502  0.00000000000E+00  0.00000000000E+00  0.97052709992E+02  0.97052709992E+02  0.00000000000E+00 0. -1.
          3   -1    0    0  502    0 -0.00000000000E+00 -0.00000000000E+00 -0.22916767298E+03  0.22916767298E+03  0.00000000000E+00 0. -1.
         23    2    1    2    0    0  0.45675370673E+02 -0.88659608142E+02 -0.10470720725E+03  0.17057075016E+03  0.90465551231E+02 0.  0.
        -24    2    1    2    0    0 -0.53764446964E+02  0.69558229616E+02 -0.44911333860E+02  0.12850794782E+03  0.82269688704E+02 0.  0.
         11    1    4    4    0    0 -0.74064233801E+02  0.58175762571E+02 -0.46782671274E+02  0.10515963299E+03  0.00000000000E+00 0. -1.
        -12    1    4    4    0    0  0.20299786837E+02  0.11382467045E+02  0.18713374141E+01  0.23348314829E+02  0.00000000000E+00 0.  1.
        -11    1    3    3    0    0 -0.16518364571E+02 -0.56427241033E+02 -0.72852121437E+02  0.93617954990E+02  0.00000000000E+00 0.  1.
         11    1    3    3    0    0  0.62193735243E+02 -0.32232367109E+02 -0.31855085814E+02  0.76952795175E+02  0.00000000000E+00 0. -1.
          4    1    1    2  501    0  0.80890762914E+01  0.19101378526E+02  0.17503578122E+02  0.27141684987E+02  0.00000000000E+00 0. -1.
<scales pt_clust_5="13000.00000" pt_clust_6="13000.00000" pt_clust_7="13000.00000" pt_clust_8="13000.00000" pt_clust_9="20.74357"></scales>
<clustering>
<clus scale="   20.744">  1  9  2 -1</clus>
<clus scale="   82.270">  5  6 -1 -1</clus>
<clus scale="   90.466">  7  8 -1 -1</clus>
<clus scale="  125.027">  1  5  2 -1</clus>
<clus scale="   20.744">  1  5  2 -1</clus>
</clustering>
</event>
<event>
 9    1  0.7586638E-005  0.3354355E+03  0.7546771E-02  0.1068987E+00
         21   -1    0    0  501  502  0.00000000000E+00  0.00000000000E+00  0.30813424923E+03  0.30813424923E+03  0.00000000000E+00 0. -1.
          1   -1    0    0  502    0 -0.00000000000E+00 -0.00000000000E+00 -0.83969428039E+03  0.83969428039E+03  0.00000000000E+00 0. -1.
         23    2    1    2    0    0  0.22659979995E+03 -0.16500135033E+03 -0.15001266428E+03  0.33085562829E+03  0.91590023348E+02 0.  0.
        -24    2    1    2    0    0 -0.42368722857E+03  0.83968426691E+02 -0.79073433023E+02  0.44697253661E+03  0.83488180833E+02 0.  0.
         11    1    4    4    0    0 -0.14094471332E+03  0.64042416397E+02 -0.94353087656E+01  0.15509954340E+03  0.00000000000E+00 0. -1.
        -12    1    4    4    0    0 -0.28274251525E+03  0.19926010294E+02 -0.69638124258E+02  0.29187299321E+03  0.00000000000E+00 0.  1.
        -11    1    3    3    0    0  0.12980066804E+03 -0.82057879390E+02 -0.31415956199E+02  0.15674396734E+03  0.00000000000E+00 0.  1.
         11    1    3    3    0    0  0.96799131907E+02 -0.82943470943E+02 -0.11859670808E+03  0.17411166095E+03  0.00000000000E+00 0. -1.
          2    1    1    2  501    0  0.19708742863E+03  0.81032923642E+02 -0.30247393385E+03  0.37000036472E+03  0.00000000000E+00 0. -1.
<scales pt_clust_5="13000.00000" pt_clust_6="13000.00000" pt_clust_7="13000.00000" pt_clust_8="13000.00000" pt_clust_9="213.09583"></scales>
<clustering>
<clus scale="   83.488">  5  6 -1 -1</clus>
<clus scale="   91.590">  7  8 -1 -1</clus>
<clus scale="  213.096">  1  9  2 -1</clus>
<clus scale="  333.314">  1  5  2 -1</clus>
<clus scale="  213.096">  1  5  2 -1</clus>
</clustering>
</event>
<event>
 9    1  0.7586638E-005  0.1132034E+03  0.7546771E-02  0.1256858E+00
         21   -1    0    0  501  502  0.00000000000E+00  0.00000000000E+00  0.30188183064E+02  0.30188183064E+02  0.00000000000E+00 0. -1.
          1   -1    0    0  502    0 -0.00000000000E+00 -0.00000000000E+00 -0.12846046643E+04  0.12846046643E+04  0.00000000000E+00 0. -1.
         23    2    1    2    0    0  0.76493142365E+02 -0.26432873624E+02 -0.51111760042E+03  0.52448390001E+03  0.85394743837E+02 0.  0.
        -24    2    1    2    0    0 -0.65794212269E+02 -0.50973785507E+02 -0.13605707849E+03  0.17805992574E+03  0.79161880776E+02 0.  0.
         11    1    4    4    0    0 -0.43325965483E+02 -0.47048839723E+02 -0.14090531321E+03  0.15474184921E+03  0.00000000000E+00 0. -1.
        -12    1    4    4    0    0 -0.22468246786E+02 -0.39249457842E+01  0.48482347210E+01  0.23318076528E+02  0.00000000000E+00 0.  1.
        -13    1    3    3    0    0 -0.14533138705E+02 -0.21580792128E+02 -0.13433473738E+03  0.13683115280E+03  0.00000000000E+00 0.  1.
         13    1    3    3    0    0  0.91026281069E+02 -0.48520814959E+01 -0.37678286304E+03  0.38765274721E+03  0.00000000000E+00 0. -1.
          2    1    1    2  501    0 -0.10698930096E+02  0.77406659131E+02 -0.60724180236E+03  0.61224902165E+03  0.00000000000E+00 0. -1.
<scales pt_clust_5="13000.00000" pt_clust_6="13000.00000" pt_clust_7="13000.00000" pt_clust_8="13000.00000" pt_clust_9="78.14259"></scales>
<clustering>
<clus scale="   78.143">  1  9  2 -1</clus>
<clus scale="   79.162">  5  6 -1 -1</clus>
<clus scale="   85.395">  7  8 -1 -1</clus>
<clus scale="  108.579">  1  5  2 -1</clus>
<clus scale="   78.143">  1  5  2 -1</clus>
</clustering>
</event>
<event>
 9    1  0.7586638E-005  0.1176482E+03  0.7546771E-02  0.1252090E+00
         21   -1    0    0  501  502  0.00000000000E+00  0.00000000000E+00  0.10673518925E+03  0.10673518925E+03  0.00000000000E+00 0. -1.
          1   -1    0    0  502    0 -0.00000000000E+00 -0.00000000000E+00 -0.21989288523E+03  0.21989288523E+03  0.00000000000E+00 0. -1.
         23    2    1    2    0    0  0.69658547921E+01  0.78772908641E+02 -0.11507653090E+03  0.16791152284E+03  0.93262946919E+02 0.  0.
        -24    2    1    2    0    0  0.85053848287E+01 -0.51377422532E+02  0.45781916512E+02  0.10473653830E+03  0.78496990122E+02 0.  0.
         13    1    4    4    0    0 -0.35958774800E+01 -0.70948516723E+02  0.31994870878E+02  0.77912092274E+02  0.00000000000E+00 0. -1.
        -14    1    4    4    0    0  0.12101262309E+02  0.19571094190E+02  0.13787045634E+02  0.26824446026E+02  0.00000000000E+00 0.  1.
        -13    1    3    3    0    0  0.24305339201E+02  0.95083470982E+02 -0.87521638399E+02  0.13149773061E+03  0.00000000000E+00 0. -1.
         13    1    3    3    0    0 -0.17339484409E+02 -0.16310562341E+02 -0.27554892503E+02  0.36413792226E+02  0.00000000000E+00 0.  1.
          2    1    1    2  501    0 -0.15471239621E+02 -0.27395486109E+02 -0.43863081584E+02  0.53980013344E+02  0.00000000000E+00 0. -1.
<scales pt_clust_5="13000.00000" pt_clust_6="13000.00000" pt_clust_7="13000.00000" pt_clust_8="13000.00000" pt_clust_9="31.46225"></scales>
<clustering>
<clus scale="   31.462">  1  9  2 -1</clus>
<clus scale="   78.497">  5  6 -1 -1</clus>
<clus scale="   93.263">  7  8 -1 -1</clus>
<clus scale="  106.325">  1  5  2 -1</clus>
<clus scale="   31.462">  1  5  2 -1</clus>
</clustering>
</event>
<event>
 9    1  0.7586638E-005  0.1399820E+03  0.7546771E-02  0.1214721E+00
          3   -1    0    0  502    0 -0.00000000000E+00  0.00000000000E+00  0.16009059442E+03  0.16009059442E+03  0.00000000000E+00 0. -1.
         21   -1    0    0  501  502  0.00000000000E+00 -0.00000000000E+00 -0.17028648242E+03  0.17028648242E+03  0.00000000000E+00 0. -1.
         23    2    1    2    0    0 -0.28647272604E+02 -0.94255359885E+02  0.51517093626E+02  0.14520906956E+03  0.93418006033E+02 0.  0.
        -24    2    1    2    0    0  0.34946744832E+02  0.11329905108E+03 -0.70524178554E+02  0.16325949944E+03  0.87304378159E+02 0.  0.
         11    1    4    4    0    0  0.35986166107E+01  0.94397051191E+02 -0.81796138522E+02  0.12495743912E+03  0.00000000000E+00 0. -1.
        -12    1    4    4    0    0  0.31348128221E+02  0.18901999890E+02  0.11271959968E+02  0.38302060315E+02  0.00000000000E+00 0.  1.
        -11    1    3    3    0    0 -0.60831318613E+02 -0.40900284688E+02  0.31245556139E+02  0.79684172770E+02  0.00000000000E+00 0. -1.
         11    1    3    3    0    0  0.32184046008E+02 -0.53355075198E+02  0.20271537487E+02  0.65524896787E+02  0.00000000000E+00 0.  1.
          4    1    1    2  501    0 -0.62994722278E+01 -0.19043691196E+02  0.88111969221E+01  0.21908507843E+02  0.00000000000E+00 0. -1.
<scales pt_clust_5="13000.00000" pt_clust_6="13000.00000" pt_clust_7="13000.00000" pt_clust_8="13000.00000" pt_clust_9="20.05856"></scales>
<clustering>
<clus scale="   20.059">  2  9  1 -1</clus>
<clus scale="   87.304">  5  6 -1 -1</clus>
<clus scale="   93.418">  7  8 -1 -1</clus>
<clus scale="  135.978">  2  5  1 -1</clus>
<clus scale="   20.059">  2  5  1 -1</clus>
</clustering>
</event>
<event>
 9    1  0.7586638E-005  0.9843208E+02  0.7546771E-02  0.1287423E+00
         21   -1    0    0  501  502  0.00000000000E+00  0.00000000000E+00  0.18958720169E+03  0.18958720169E+03  0.00000000000E+00 0.  1.
          1   -1    0    0  502    0 -0.00000000000E+00 -0.00000000000E+00 -0.31294272259E+03  0.31294272259E+03  0.00000000000E+00 0. -1.
         23    2    1    2    0    0 -0.23081325245E+02 -0.31316718458E+02 -0.16534933933E+03  0.19200222969E+03  0.89504009724E+02 0.  0.
        -24    2    1    2    0    0  0.32633594420E+00  0.80726659415E+02  0.15033049623E+03  0.18930076870E+03  0.81967206242E+02 0.  0.
         11    1    4    4    0    0  0.23270532756E+02  0.28487121636E+02  0.10461974498E+02  0.38242472517E+02  0.00000000000E+00 0. -1.
        -12    1    4    4    0    0 -0.22944196812E+02  0.52239537779E+02  0.13986852173E+03  0.15105829619E+03  0.00000000000E+00 0.  1.
        -11    1    3    3    0    0  0.27062523322E+02  0.16320811745E+00 -0.16223786373E+02  0.31553415817E+02  0.00000000000E+00 0.  1.
         11    1    3    3    0    0 -0.50143848568E+02 -0.31479926575E+02 -0.14912555296E+03  0.16044881387E+03  0.00000000000E+00 0. -1.
          2    1    1    2  501    0  0.22754989301E+02 -0.49409940958E+02 -0.10833667780E+03  0.12122692589E+03  0.00000000000E+00 0. -1.
<scales pt_clust_5="13000.00000" pt_clust_6="13000.00000" pt_clust_7="13000.00000" pt_clust_8="13000.00000" pt_clust_9="54.39793"></scales>
<clustering>
<clus scale="   54.398">  1  9  2 -1</clus>
<clus scale="   81.967">  5  6 -1 -1</clus>
<clus scale="   89.504">  7  8 -1 -1</clus>
<clus scale="   91.633">  1  5  2 -1</clus>
<clus scale="   54.398">  1  5  2 -1</clus>
</clustering>
</event>
<event>
 9    1  0.7586638E-005  0.2911245E+03  0.7546771E-02  0.1096849E+00
         21   -1    0    0  501  502  0.00000000000E+00  0.00000000000E+00  0.15139841219E+04  0.15139841219E+04  0.00000000000E+00 0. -1.
          1   -1    0    0  502    0 -0.00000000000E+00 -0.00000000000E+00 -0.15567806199E+03  0.15567806199E+03  0.00000000000E+00 0. -1.
        -24    2    1    2    0    0 -0.82379824623E+02  0.21066066935E+03  0.75407254209E+03  0.79185467636E+03  0.85112141457E+02 0.  0.
         23    2    1    2    0    0  0.31266550295E+03 -0.38687627448E+02  0.20660816146E+03  0.38718326759E+03  0.89260859670E+02 0.  0.
         11    1    3    3    0    0 -0.37865332036E+02  0.18755045206E+03  0.58445147766E+03  0.61497356461E+03  0.00000000000E+00 0. -1.
        -12    1    3    3    0    0 -0.44514492587E+02  0.23110217293E+02  0.16962106443E+03  0.17688111174E+03  0.00000000000E+00 0.  1.
        -13    1    4    4    0    0  0.22664839743E+03  0.10551194038E+02  0.16015796983E+03  0.27772540225E+03  0.00000000000E+00 0. -1.
         13    1    4    4    0    0  0.86017105519E+02 -0.49238821486E+02  0.46450191628E+02  0.10945786534E+03  0.00000000000E+00 0.  1.
          2    1    1    2  501    0 -0.23028567832E+03 -0.17197304190E+03  0.39762535632E+03  0.49062423989E+03  0.00000000000E+00 0. -1.
<scales pt_clust_5="13000.00000" pt_clust_6="13000.00000" pt_clust_7="13000.00000" pt_clust_8="13000.00000" pt_clust_9="277.10287"></scales>
<clustering>
<clus scale="   85.112">  5  6 -1 -1</clus>
<clus scale="   89.261">  7  8 -1 -1</clus>
<clus scale="  241.678">  2  5  1 -1</clus>
<clus scale="  277.103">  1  9  2 -1</clus>
<clus scale="  277.103">  1  5  2 -1</clus>
</clustering>
</event>
<event>
 9    1  0.7586638E-005  0.1884416E+03  0.7546771E-02  0.1161208E+00
         21   -1    0    0  501  502  0.00000000000E+00  0.00000000000E+00  0.26969212273E+03  0.26969212273E+03  0.00000000000E+00 0. -1.
          1   -1    0    0  502    0 -0.00000000000E+00 -0.00000000000E+00 -0.43270074662E+03  0.43270074662E+03  0.00000000000E+00 0. -1.
         23    2    1    2    0    0  0.83484456061E+02 -0.13215387493E+03 -0.19724841968E+03  0.26369329564E+03  0.78695069947E+02 0.  0.
        -24    2    1    2    0    0 -0.20457623044E+03  0.70493317081E+02 -0.92960433869E+02  0.25256752209E+03  0.91257707264E+02 0.  0.
         13    1    4    4    0    0 -0.11134282708E+03  0.37046843888E+02 -0.98722772027E+02  0.15334888164E+03  0.00000000000E+00 0. -1.
        -14    1    4    4    0    0 -0.93233403361E+02  0.33446473194E+02  0.57623381581E+01  0.99218640448E+02  0.00000000000E+00 0.  1.
        -13    1    3    3    0    0  0.95643013796E+02 -0.96986065833E+02 -0.16850386059E+03  0.21667356574E+03  0.00000000000E+00 0. -1.
         13    1    3    3    0    0 -0.12158557735E+02 -0.35167809092E+02 -0.28744559090E+02  0.47019729900E+02  0.00000000000E+00 0.  1.
          2    1    1    2  501    0  0.12109177438E+03  0.61660557845E+02  0.12720022966E+03  0.18613205163E+03  0.00000000000E+00 0. -1.
<scales pt_clust_5="13000.00000" pt_clust_6="13000.00000" pt_clust_7="13000.00000" pt_clust_8="13000.00000" pt_clust_9="135.88687"></scales>
<clustering>
<clus scale="   78.695">  7  8 -1 -1</clus>
<clus scale="   91.258">  5  6 -1 -1</clus>
<clus scale="  135.887">  1  9  2 -1</clus>
<clus scale="  182.689">  2  7  1 -1</clus>
<clus scale="  135.887">  1  5  2 -1</clus>
</clustering>
</event>
<event>
 9    1  0.7586638E-005  0.1259972E+03  0.7546771E-02  0.1238118E+00
          1   -1    0    0  502    0 -0.00000000000E+00  0.00000000000E+00  0.54297293473E+03  0.54297293473E+03  0.00000000000E+00 0. -1.
         21   -1    0    0  501  502  0.00000000000E+00 -0.00000000000E+00 -0.65251743490E+02  0.65251743490E+02  0.00000000000E+00 0. -1.
        -24    2    1    2    0    0 -0.83255950025E+02 -0.96684254931E+01  0.25082971359E+03  0.27690214378E+03  0.82062295530E+02 0.  0.
         23    2    1    2    0    0  0.55154611350E+02  0.72999323900E+02  0.22545084241E+03  0.26202200516E+03  0.97244621458E+02 0.  0.
         13    1    3    3    0    0 -0.21879373506E+02 -0.29291390975E+02  0.16814626414E+03  0.17207515426E+03  0.00000000000E+00 0. -1.
        -14    1    3    3    0    0 -0.61376576520E+02  0.19622965482E+02  0.82683449447E+02  0.10482698952E+03  0.00000000000E+00 0.  1.
        -11    1    4    4    0    0  0.17172082273E+02 -0.23871438601E+02  0.46419351578E+02  0.54949815208E+02  0.00000000000E+00 0.  1.
         11    1    4    4    0    0  0.37982529078E+02  0.96870762501E+02  0.17903149083E+03  0.20707218996E+03  0.00000000000E+00 0. -1.
          2    1    1    2  501    0  0.28101338675E+02 -0.63330898407E+02  0.14406352456E+01  0.69300529278E+02  0.00000000000E+00 0. -1.
<scales pt_clust_5="13000.00000" pt_clust_6="13000.00000" pt_clust_7="13000.00000" pt_clust_8="13000.00000" pt_clust_9="69.28555"></scales>
<clustering>
<clus scale="   69.286">  2  9  1 -1</clus>
<clus scale="   82.062">  5  6 -1 -1</clus>
<clus scale="   97.245">  7  8 -1 -1</clus>
<clus scale="  114.687">  1  5  2 -1</clus>
<clus scale="   69.286">  2  5  1 -1</clus>
</clustering>
</event>
<event>
 9    1  0.7586638E-005  0.1080212E+03  0.7546771E-02  0.1270160E+00
         21   -1    0    0  501  502  0.00000000000E+00  0.00000000000E+00  0.25776755865E+02  0.25776755865E+02  0.00000000000E+00 0. -1.
          1   -1    0    0  502    0 -0.00000000000E+00 -0.00000000000E+00 -0.59625355115E+03  0.59625355115E+03  0.00000000000E+00 0. -1.
         23    2    1    2    0    0  0.55472798891E+02  0.10298837245E+02 -0.25529585910E+03  0.27728105637E+03  0.92333694188E+02 0.  0.
        -24    2    1    2    0    0 -0.56799128627E+02  0.14218075732E+02 -0.15925655061E+03  0.18690359126E+03  0.78370969245E+02 0.  0.
         13    1    4    4    0    0 -0.31540917448E+02  0.45322371826E+02 -0.70726723704E+02  0.89728570184E+02  0.00000000000E+00 0. -1.
        -14    1    4    4    0    0 -0.25258211179E+02 -0.31104296094E+02 -0.88529826910E+02  0.97175021071E+02  0.00000000000E+00 0.  1.
        -11    1    3    3    0    0  0.63262188604E+02  0.41656278560E+02 -0.18553221505E+03  0.20039848520E+03  0.00000000000E+00 0. -1.
         11    1    3    3    0    0 -0.77893897135E+01 -0.31357441316E+02 -0.69763644059E+02  0.76882571174E+02  0.00000000000E+00 0.  1.
          2    1    1    2  501    0  0.13263297360E+01 -0.24516912976E+02 -0.15592438557E+03  0.15784565939E+03  0.00000000000E+00 0. -1.
<scales pt_clust_5="13000.00000" pt_clust_6="13000.00000" pt_clust_7="13000.00000" pt_clust_8="13000.00000" pt_clust_9="24.55278"></scales>
<clustering>
<clus scale="   24.553">  1  9  2 -1</clus>
<clus scale="   78.371">  5  6 -1 -1</clus>
<clus scale="   92.334">  7  8 -1 -1</clus>
<clus scale="   96.359">  1  5  2 -1</clus>
<clus scale="   24.553">  1  5  2 -1</clus>
</clustering>
</event>
<event>
 9    1  0.7586638E-005  0.1006834E+03  0.7546771E-02  0.1287214E+00
          3   -1    0    0  502    0 -0.00000000000E+00  0.00000000000E+00  0.27144100108E+03  0.27144100108E+03  0.00000000000E+00 0. -1.
         21   -1    0    0  501  502  0.00000000000E+00 -0.00000000000E+00 -0.13136302771E+03  0.13136302771E+03  0.00000000000E+00 0.  1.
        -24    2    1    2    0    0 -0.85956172928E+01  0.43206212661E+02  0.22878131975E+03  0.24466468859E+03  0.74694418295E+02 0.  0.
         23    2    1    2    0    0  0.28933548489E+02 -0.21039966422E+02 -0.52918562073E+02  0.11138974443E+03  0.91254975406E+02 0.  0.
         11    1    3    3    0    0 -0.25783346270E+02  0.58137732054E+02  0.17773640673E+03  0.18877236850E+03  0.00000000000E+00 0. -1.
        -12    1    3    3    0    0  0.17187728977E+02 -0.14931519393E+02  0.51044913025E+02  0.55892320085E+02  0.00000000000E+00 0.  1.
        -13    1    4    4    0    0  0.53063846478E+02  0.90565645411E+01 -0.48687568975E+02  0.72582866690E+02  0.00000000000E+00 0.  1.
         13    1    4    4    0    0 -0.24130297989E+02 -0.30096530963E+02 -0.42309930981E+01  0.38806877736E+02  0.00000000000E+00 0. -1.
          4    1    1    2  501    0 -0.20337931196E+02 -0.22166246240E+02 -0.35784784309E+02  0.46749595781E+02  0.00000000000E+00 0. -1.
<scales pt_clust_5="13000.00000" pt_clust_6="13000.00000" pt_clust_7="13000.00000" pt_clust_8="13000.00000" pt_clust_9="30.08278"></scales>
<clustering>
<clus scale="   30.083">  2  9  1 -1</clus>
<clus scale="   74.694">  5  6 -1 -1</clus>
<clus scale="   85.959">  1  5  2 -1</clus>
<clus scale="   91.255">  7  8 -1 -1</clus>
<clus scale="   30.083">  2  5  1 -1</clus>
</clustering>
</event>
<event>
 9    1  0.7586638E-005  0.9465414E+02  0.7546771E-02  0.1298423E+00
          3   -1    0    0  502    0 -0.00000000000E+00  0.00000000000E+00  0.88350254481E+02  0.88350254481E+02  0.00000000000E+00 0. -1.
         21   -1    0    0  501  502  0.00000000000E+00 -0.00000000000E+00 -0.25189779797E+03  0.25189779797E+03  0.00000000000E+00 0. -1.
        -24    2    1    2    0    0  0.24345934575E+02  0.50390489648E+01  0.41433034635E+02  0.94318488179E+02  0.81001014244E+02 0.  0.
         23    2    1    2    0    0  0.22039376743E+00  0.16330247696E+01 -0.19974008219E+03  0.21993949206E+03  0.92057397245E+02 0.  0.
         11    1    3    3    0    0  0.48202770956E+02  0.20877141804E+02  0.39299749592E+02  0.65603601240E+02  0.00000000000E+00 0. -1.
        -12    1    3    3    0    0 -0.23856836380E+02 -0.15838092839E+02  0.21332850430E+01  0.28714886939E+02  0.00000000000E+00 0.  1.
        -11    1    4    4    0    0 -0.16577998291E+02 -0.41370895146E+02 -0.79504879308E+02  0.91144976967E+02  0.00000000000E+00 0.  1.
         11    1    4    4    0    0  0.16798392059E+02  0.43003919916E+02 -0.12023520289E+03  0.12879451509E+03  0.00000000000E+00 0. -1.
          4    1    1    2  501    0 -0.24566328343E+02 -0.66720737345E+01 -0.52404959285E+01  0.25990072215E+02  0.00000000000E+00 0. -1.
<scales pt_clust_5="13000.00000" pt_clust_6="13000.00000" pt_clust_7="13000.00000" pt_clust_8="13000.00000" pt_clust_9="25.45627"></scales>
<clustering>
<clus scale="   25.456">  2  9  1 -1</clus>
<clus scale="   81.001">  5  6 -1 -1</clus>
<clus scale="   83.940">  1  5  2 -1</clus>
<clus scale="   92.057">  7  8 -1 -1</clus>
<clus scale="   25.456">  2  5  1 -1</clus>
</clustering>
</event>
<event>
 9    1  0.7586638E-005  0.1468763E+03  0.7546771E-02  0.1205915E+00
         21   -1    0    0  501  502  0.00000000000E+00  0.00000000000E+00  0.15825926784E+03  0.15825926784E+03  0.00000000000E+00 0.  1.
         -4   -1    0    0    0  501 -0.00000000000E+00 -0.00000000000E+00 -0.25101206160E+03  0.25101206160E+03  0.00000000000E+00 0.  1.
        -24    2    1    2    0    0  0.79934295681E+02 -0.89322877910E+02 -0.15831113151E+03  0.21468172230E+03  0.81595094143E+02 0.  0.
         23    2    1    2    0    0 -0.41119329725E+02  0.10130928680E+03  0.41615908278E+02  0.14743543967E+03  0.89727109517E+02 0.  0.
         11    1    3    3    0    0  0.36730042866E+02  0.45505353284E+01 -0.68098223739E+02  0.77505944915E+02  0.00000000000E+00 0. -1.
        -12    1    3    3    0    0  0.43204252815E+02 -0.93873413239E+02 -0.90212907767E+02  0.13717577739E+03  0.00000000000E+00 0.  1.
        -13    1    4    4    0    0 -0.13266612637E+02  0.78909851210E+02  0.66368228080E+02  0.10395917144E+03  0.00000000000E+00 0.  1.
         13    1    4    4    0    0 -0.27852717088E+02  0.22399435586E+02 -0.24752319802E+02  0.43476268231E+02  0.00000000000E+00 0. -1.
         -3    1    1    2    0  502 -0.38814965956E+02 -0.11986408885E+02  0.23942429473E+02  0.47154167464E+02  0.00000000000E+00 0.  1.
<scales pt_clust_5="13000.00000" pt_clust_6="13000.00000" pt_clust_7="13000.00000" pt_clust_8="13000.00000" pt_clust_9="40.62358"></scales>
<clustering>
<clus scale="   40.624">  1  9  2 -1</clus>
<clus scale="   81.595">  5  6 -1 -1</clus>
<clus scale="   89.727">  7  8 -1 -1</clus>
<clus scale="  142.054">  2  5  1 -1</clus>
<clus scale="   40.624">  1  5  2 -1</clus>
</clustering>
</event>
<event>
 9    1  0.7586638E-005  0.1073963E+03  0.7546771E-02  0.1271038E+00
         21   -1    0    0  501  502  0.00000000000E+00  0.00000000000E+00  0.35876239040E+03  0.35876239040E+03  0.00000000000E+00 0.  1.
         -2   -1    0    0    0  501 -0.00000000000E+00 -0.00000000000E+00 -0.79113469542E+02  0.79113469542E+02  0.00000000000E+00 0.  1.
        -24    2    1    2    0    0 -0.53337813894E+02 -0.29251799510E+02  0.45229929378E+00  0.10167674370E+03  0.81470028037E+02 0.  0.
         23    2    1    2    0    0  0.52292188130E+01  0.46531456067E+02  0.84628933924E+02  0.13502852067E+03  0.94223796376E+02 0.  0.
         11    1    3    3    0    0 -0.25379485431E+02  0.88848716212E+01 -0.33870195239E+02  0.43246379617E+02  0.00000000000E+00 0. -1.
        -12    1    3    3    0    0 -0.27958328462E+02 -0.38136671131E+02  0.34322494533E+02  0.58430364078E+02  0.00000000000E+00 0.  1.
        -13    1    4    4    0    0 -0.26516256316E+01 -0.22246812985E+02 -0.38000630816E+01  0.22724266455E+02  0.00000000000E+00 0. -1.
         13    1    4    4    0    0  0.78808444445E+01  0.68778269052E+02  0.88428997006E+02  0.11230425421E+03  0.00000000000E+00 0.  1.
         -1    1    1    2    0  502  0.48108595081E+02 -0.17279656557E+02  0.19456768764E+03  0.20117059557E+03  0.00000000000E+00 0.  1.
<scales pt_clust_5="13000.00000" pt_clust_6="13000.00000" pt_clust_7="13000.00000" pt_clust_8="13000.00000" pt_clust_9="51.11774"></scales>
<clustering>
<clus scale="   51.118">  1  9  2 -1</clus>
<clus scale="   81.470">  5  6 -1 -1</clus>
<clus scale="   94.224">  7  8 -1 -1</clus>
<clus scale="   96.401">  2  5  1 -1</clus>
<clus scale="   51.118">  1  5  2 -1</clus>
</clustering>
</event>
<event>
 9    1  0.7586638E-005  0.1087181E+03  0.7546771E-02  0.1271357E+00
          1   -1    0    0  502    0 -0.00000000000E+00  0.00000000000E+00  0.23889589409E+03  0.23889589409E+03  0.00000000000E+00 0. -1.
         21   -1    0    0  501  502  0.00000000000E+00 -0.00000000000E+00 -0.78801506259E+02  0.78801506259E+02  0.00000000000E+00 0. -1.
        -24    2    1    2    0    0 -0.41747706473E+02 -0.17794805310E+02  0.60803454409E+02  0.10754832469E+03  0.76223723231E+02 0.  0.
         23    2    1    2    0    0  0.38024384225E+02  0.64053910428E+02  0.26621650721E+02  0.12392499212E+03  0.95393574978E+02 0.  0.
         13    1    3    3    0    0 -0.26890632406E+02  0.28065782045E+02  0.37478737111E+02  0.53994906875E+02  0.00000000000E+00 0. -1.
        -14    1    3    3    0    0 -0.14857074067E+02 -0.45860587355E+02  0.23324717297E+02  0.53553417812E+02  0.00000000000E+00 0.  1.
        -13    1    4    4    0    0 -0.89146846121E+01  0.70946063572E+02  0.27135781960E+02  0.76479841793E+02  0.00000000000E+00 0.  1.
         13    1    4    4    0    0  0.46939068837E+02 -0.68921531442E+01 -0.51413123902E+00  0.47445150323E+02  0.00000000000E+00 0. -1.
          2    1    1    2  501    0  0.37233222483E+01 -0.46259105118E+02  0.72669282697E+02  0.86224083541E+02  0.00000000000E+00 0. -1.
<scales pt_clust_5="13000.00000" pt_clust_6="13000.00000" pt_clust_7="13000.00000" pt_clust_8="13000.00000" pt_clust_9="46.40873"></scales>
<clustering>
<clus scale="   46.409">  2  9  1 -1</clus>
<clus scale="   76.224">  5  6 -1 -1</clus>
<clus scale="   92.357">  1  5  2 -1</clus>
<clus scale="   95.394">  7  8 -1 -1</clus>
<clus scale="   46.409">  2  5  1 -1</clus>
</clustering>
</event>
<event>
 9    1  0.7586638E-005  0.3695447E+03  0.7546771E-02  0.1055052E+00
          1   -1    0    0  502    0 -0.00000000000E+00  0.00000000000E+00  0.14360427720E+04  0.14360427720E+04  0.00000000000E+00 0. -1.
         21   -1    0    0  501  502  0.00000000000E+00 -0.00000000000E+00 -0.19064109202E+03  0.19064109202E+03  0.00000000000E+00 0.  1.
         23    2    1    2    0    0 -0.37313619910E+03 -0.11811621059E+03  0.10745760552E+04  0.11472074695E+04  0.90494294380E+02 0.  0.
        -24    2    1    2    0    0  0.25610506605E+03  0.13150362765E+03  0.19750663924E+03  0.35869814496E+03  0.82295064905E+02 0.  0.
         11    1    4    4    0    0  0.19428177022E+03  0.91568214439E+02  0.18616085613E+03  0.28422879603E+03  0.00000000000E+00 0. -1.
        -12    1    4    4    0    0  0.61823295827E+02  0.39935413213E+02  0.11345783114E+02  0.74469348929E+02  0.00000000000E+00 0.  1.
        -11    1    3    3    0    0 -0.18907920129E+03 -0.19603930499E+02  0.58069271915E+03  0.61101496915E+03  0.00000000000E+00 0.  1.
         11    1    3    3    0    0 -0.18405699780E+03 -0.98512280095E+02  0.49388333606E+03  0.53619250033E+03  0.00000000000E+00 0. -1.
          2    1    1    2  501    0  0.11703113304E+03 -0.13387417058E+02 -0.26681014482E+02  0.12077824958E+03  0.00000000000E+00 0. -1.
<scales pt_clust_5="13000.00000" pt_clust_6="13000.00000" pt_clust_7="13000.00000" pt_clust_8="13000.00000" pt_clust_9="117.79435"></scales>
<clustering>
<clus scale="   82.295">  5  6 -1 -1</clus>
<clus scale="   90.494">  7  8 -1 -1</clus>
<clus scale="  117.794">  2  9  1 -1</clus>
<clus scale="  367.623">  2  5  1 -1</clus>
<clus scale="  117.794">  2  5  1 -1</clus>
</clustering>
</event>
<event>
 9    1  0.7586638E-005  0.9489469E+02  0.7546771E-02  0.1293903E+00
         21   -1    0    0  501  502  0.00000000000E+00  0.00000000000E+00  0.36634638822E+02  0.36634638822E+02  0.00000000000E+00 0.  1.
         -2   -1    0    0    0  501 -0.00000000000E+00 -0.00000000000E+00 -0.72630119157E+03  0.72630119157E+03  0.00000000000E+00 0.  1.
        -24    2    1    2    0    0  0.14309350257E+02 -0.31667143610E+02 -0.53684349866E+03  0.54496620397E+03  0.87061219435E+02 0.  0.
         23    2    1    2    0    0  0.22562923892E+02 -0.33444695713E+01 -0.13373739730E+03  0.16365903856E+03  0.91533154948E+02 0.  0.
         11    1    3    3    0    0 -0.35819884440E+02 -0.73676871187E+01 -0.16754405574E+03  0.17148865137E+03  0.00000000000E+00 0. -1.
        -12    1    3    3    0    0  0.50129234697E+02 -0.24299456492E+02 -0.36929944292E+03  0.37347755261E+03  0.00000000000E+00 0.  1.
        -11    1    4    4    0    0  0.11125329639E+02 -0.46710501354E+02 -0.54716185646E+02  0.72797698232E+02  0.00000000000E+00 0.  1.
         11    1    4    4    0    0  0.11437594253E+02  0.43366031783E+02 -0.79021211657E+02  0.90861340331E+02  0.00000000000E+00 0. -1.
         -1    1    1    2    0  502 -0.36872274149E+02  0.35011613182E+02 -0.19085656785E+02  0.54310587857E+02  0.00000000000E+00 0.  1.
<scales pt_clust_5="13000.00000" pt_clust_6="13000.00000" pt_clust_7="13000.00000" pt_clust_8="13000.00000" pt_clust_9="50.84661"></scales>
<clustering>
<clus scale="   50.847">  1  9  2 -1</clus>
<clus scale="   87.061">  5  6 -1 -1</clus>
<clus scale="   90.589">  2  5  1 -1</clus>
<clus scale="   91.533">  7  8 -1 -1</clus>
<clus scale="   50.847">  1  5  2 -1</clus>
</clustering>
</event>
<event>
 9    1  0.7586638E-005  0.1017536E+03  0.7546771E-02  0.1287245E+00
         21   -1    0    0  501  502  0.00000000000E+00  0.00000000000E+00  0.10250563282E+03  0.10250563282E+03  0.00000000000E+00 0. -1.
          1   -1    0    0  502    0 -0.00000000000E+00 -0.00000000000E+00 -0.42987785339E+03  0.42987785339E+03  0.00000000000E+00 0. -1.
         23    2    1    2    0    0 -0.11751236791E+02  0.27264061934E+02 -0.23844227683E+03  0.25970611822E+03  0.98545054770E+02 0.  0.
        -24    2    1    2    0    0 -0.15719530709E+02  0.55287032624E+01  0.70636409945E+02  0.10747618838E+03  0.79271422671E+02 0.  0.
         11    1    4    4    0    0  0.11964318673E+01  0.22274578381E+02  0.79121799536E+02  0.82206127832E+02  0.00000000000E+00 0. -1.
        -12    1    4    4    0    0 -0.16915962576E+02 -0.16745875118E+02 -0.84853895913E+01  0.25270060543E+02  0.00000000000E+00 0.  1.
        -13    1    3    3    0    0 -0.27173180530E+02  0.52294841239E+02 -0.84745987504E+02  0.10322312996E+03  0.00000000000E+00 0. -1.
         13    1    3    3    0    0  0.15421943740E+02 -0.25030779306E+02 -0.15369628933E+03  0.15648298826E+03  0.00000000000E+00 0.  1.
          2    1    1    2  501    0  0.27470767500E+02 -0.32792765196E+02 -0.15956635369E+03  0.16520117961E+03  0.00000000000E+00 0. -1.
<scales pt_clust_5="13000.00000" pt_clust_6="13000.00000" pt_clust_7="13000.00000" pt_clust_8="13000.00000" pt_clust_9="42.77862"></scales>
<clustering>
<clus scale="   42.779">  1  9  2 -1</clus>
<clus scale="   79.271">  5  6 -1 -1</clus>
<clus scale="   83.226">  1  5  2 -1</clus>
<clus scale="   98.545">  7  8 -1 -1</clus>
<clus scale="   42.779">  1  5  2 -1</clus>
</clustering>
</event>
<event>
 9    1  0.7586638E-005  0.9939579E+02  0.7546771E-02  0.1285632E+00
          1   -1    0    0  502    0 -0.00000000000E+00  0.00000000000E+00  0.62314904866E+03  0.62314904866E+03  0.00000000000E+00 0. -1.
         21   -1    0    0  501  502  0.00000000000E+00 -0.00000000000E+00 -0.44379676904E+02  0.44379676904E+02  0.00000000000E+00 0.  1.
        -24    2    1    2    0    0  0.35302157341E+02  0.64315196560E+01  0.22641742957E+03  0.24298818602E+03  0.80565497409E+02 0.  0.
         23    2    1    2    0    0 -0.78559855292E+02 -0.16752500502E+02  0.70077729211E+02  0.13878455555E+03  0.88870510251E+02 0.  0.
         11    1    3    3    0    0  0.32421069799E+02 -0.24989029668E+02  0.54288720832E+02  0.67991489028E+02  0.00000000000E+00 0. -1.
        -12    1    3    3    0    0  0.28810875418E+01  0.31420549324E+02  0.17212870874E+03  0.17499669699E+03  0.00000000000E+00 0.  1.
        -11    1    4    4    0    0 -0.98542178466E+00 -0.37758815092E+02  0.12015352858E+02  0.39636698621E+02  0.00000000000E+00 0. -1.
         11    1    4    4    0    0 -0.77574433507E+02  0.21006314590E+02  0.58062376353E+02  0.99147856933E+02  0.00000000000E+00 0.  1.
          2    1    1    2  501    0  0.43257697951E+02  0.10320980846E+02  0.28227421297E+03  0.28575598399E+03  0.00000000000E+00 0. -1.
<scales pt_clust_5="13000.00000" pt_clust_6="13000.00000" pt_clust_7="13000.00000" pt_clust_8="13000.00000" pt_clust_9="44.47194"></scales>
<clustering>
<clus scale="   44.472">  2  9  1 -1</clus>
<clus scale="   80.565">  5  6 -1 -1</clus>
<clus scale="   88.871">  7  8 -1 -1</clus>
<clus scale="   92.045">  1  5  2 -1</clus>
<clus scale="   44.472">  2  5  1 -1</clus>
</clustering>
</event>
<event>
 9    1  0.7586638E-005  0.1102140E+03  0.7546771E-02  0.1265988E+00
          1   -1    0    0  502    0 -0.00000000000E+00  0.00000000000E+00  0.55230322918E+03  0.55230322918E+03  0.00000000000E+00 0. -1.
         21   -1    0    0  501  502  0.00000000000E+00 -0.00000000000E+00 -0.19696152993E+03  0.19696152993E+03  0.00000000000E+00 0. -1.
         23    2    1    2    0    0  0.21325006704E+02 -0.54013297108E+02  0.31978559439E+03  0.33832261580E+03  0.93953040422E+02 0.  0.
        -24    2    1    2    0    0  0.31075820077E+01  0.59941822094E+02  0.21115623032E+03  0.23355132376E+03  0.79728214091E+02 0.  0.
         13    1    4    4    0    0  0.37323249786E+02  0.91670624209E+01  0.87434116462E+02  0.95508034895E+02  0.00000000000E+00 0. -1.
        -14    1    4    4    0    0 -0.34215667778E+02  0.50774759673E+02  0.12372211386E+03  0.13804328886E+03  0.00000000000E+00 0.  1.
        -13    1    3    3    0    0  0.30842248514E+02  0.15436200322E+02  0.16255636898E+03  0.16617488880E+03  0.00000000000E+00 0. -1.
         13    1    3    3    0    0 -0.95172418098E+01 -0.69449497430E+02  0.15722922542E+03  0.17214772700E+03  0.00000000000E+00 0.  1.
          2    1    1    2  501    0 -0.24432588712E+02 -0.59285249863E+01 -0.17560012547E+03  0.17739081956E+03  0.00000000000E+00 0. -1.
<scales pt_clust_5="13000.00000" pt_clust_6="13000.00000" pt_clust_7="13000.00000" pt_clust_8="13000.00000" pt_clust_9="25.14158"></scales>
<clustering>
<clus scale="   25.142">  2  9  1 -1</clus>
<clus scale="   79.728">  5  6 -1 -1</clus>
<clus scale="   93.953">  7  8 -1 -1</clus>
<clus scale="   98.369">  2  5  1 -1</clus>
<clus scale="   25.142">  2  5  1 -1</clus>
</clustering>
</event>
<event>
 9    1  0.7586638E-005  0.9599199E+02  0.7546771E-02  0.1296641E+00
         -2   -1    0    0    0  501 -0.00000000000E+00  0.00000000000E+00  0.19425892167E+03  0.19425892167E+03  0.00000000000E+00 0.  1.
         21   -1    0    0  501  502  0.00000000000E+00 -0.00000000000E+00 -0.13272719166E+03  0.13272719166E+03  0.00000000000E+00 0. -1.
        -24    2    1    2    0    0 -0.96733608438E+01 -0.18062387838E+02  0.15127826612E+03  0.17273675265E+03  0.80827273572E+02 0.  0.
         23    2    1    2    0    0  0.23854780285E+02 -0.14880568388E+01 -0.86401242886E+02  0.12986650746E+03  0.93962067521E+02 0.  0.
         11    1    3    3    0    0  0.24574111395E+02 -0.83396423265E+01  0.11303450332E+02  0.28305557306E+02  0.00000000000E+00 0. -1.
        -12    1    3    3    0    0 -0.34247472239E+02 -0.97227455112E+01  0.13997481579E+03  0.14443119535E+03  0.00000000000E+00 0.  1.
        -13    1    4    4    0    0 -0.36653532122E+01 -0.41927673910E+02 -0.18001337981E+02  0.45775679381E+02  0.00000000000E+00 0.  1.
         13    1    4    4    0    0  0.27520133497E+02  0.40439617071E+02 -0.68399904905E+02  0.84090828082E+02  0.00000000000E+00 0. -1.
         -1    1    1    2    0  502 -0.14181419441E+02  0.19550444676E+02 -0.33452932166E+01  0.24382853220E+02  0.00000000000E+00 0.  1.
<scales pt_clust_5="13000.00000" pt_clust_6="13000.00000" pt_clust_7="13000.00000" pt_clust_8="13000.00000" pt_clust_9="24.15228"></scales>
<clustering>
<clus scale="   24.152">  2  9  1 -1</clus>
<clus scale="   80.827">  5  6 -1 -1</clus>
<clus scale="   83.178">  1  5  2 -1</clus>
<clus scale="   93.962">  7  8 -1 -1</clus>
<clus scale="   24.152">  2  5  1 -1</clus>
</clustering>
</event>
<event>
 9    1  0.7586638E-005  0.9906378E+02  0.7546771E-02  0.1285732E+00
          1   -1    0    0  502    0 -0.00000000000E+00  0.00000000000E+00  0.29087811295E+03  0.29087811295E+03  0.00000000000E+00 0. -1.
         21   -1    0    0  501  502  0.00000000000E+00 -0.00000000000E+00 -0.11933508065E+03  0.11933508065E+03  0.00000000000E+00 0.  1.
         23    2    1    2    0    0 -0.61376758707E+02 -0.47323248058E+01  0.67148320945E+02  0.12861845797E+03  0.90798179039E+02 0.  0.
        -24    2    1    2    0    0 -0.16990111890E+02 -0.26256929816E+01 -0.56405383025E+02  0.10256351717E+03  0.83917516974E+02 0.  0.
         13    1    4    4    0    0 -0.34869881904E+02  0.25846977419E+02 -0.88083278795E+01  0.44289519593E+02  0.00000000000E+00 0. -1.
        -14    1    4    4    0    0  0.17879770014E+02 -0.28472670401E+02 -0.47597055146E+02  0.58273997581E+02  0.00000000000E+00 0.  1.
        -11    1    3    3    0    0 -0.65630375253E+02 -0.38087472398E+02  0.49993667616E+02  0.90870063889E+02  0.00000000000E+00 0.  1.
         11    1    3    3    0    0  0.42536165467E+01  0.33355147592E+02  0.17154653329E+02  0.37748394078E+02  0.00000000000E+00 0. -1.
          2    1    1    2  501    0  0.78366870597E+02  0.73580177874E+01  0.16080009437E+03  0.17903121846E+03  0.00000000000E+00 0. -1.
<scales pt_clust_5="13000.00000" pt_clust_6="13000.00000" pt_clust_7="13000.00000" pt_clust_8="13000.00000" pt_clust_9="78.71158"></scales>
<clustering>
<clus scale="   78.712">  2  9  1 -1</clus>
<clus scale="   83.918">  5  6 -1 -1</clus>
<clus scale="   90.798">  7  8 -1 -1</clus>
<clus scale="   92.798">  2  5  1 -1</clus>
<clus scale="   78.712">  2  5  1 -1</clus>
</clustering>
</event>
<event>
 9    1  0.7586638E-005  0.1068166E+03  0.7546771E-02  0.1268419E+00
         21   -1    0    0  501  502  0.00000000000E+00  0.00000000000E+00  0.54367871363E+03  0.54367871363E+03  0.00000000000E+00 0. -1.
         -2   -1    0    0    0  501 -0.00000000000E+00 -0.00000000000E+00 -0.55033938252E+02  0.55033938252E+02  0.00000000000E+00 0.  1.
         23    2    1    2    0    0 -0.45552460447E+01 -0.68335315654E+02  0.54574677328E+02  0.12211482314E+03  0.85106809316E+02 0.  0.
        -24    2    1    2    0    0  0.18536387385E+02  0.43361647542E+02  0.43791752033E+03  0.44771947924E+03  0.80356377110E+02 0.  0.
         11    1    4    4    0    0  0.39929246453E+02 -0.45935578473E+01  0.16792930466E+03  0.17267222376E+03  0.00000000000E+00 0. -1.
        -12    1    4    4    0    0 -0.21392859068E+02  0.47955205389E+02  0.26998821567E+03  0.27504725548E+03  0.00000000000E+00 0.  1.
        -13    1    3    3    0    0  0.17954381517E+02 -0.73134632697E+02  0.62405773651E+02  0.97803450350E+02  0.00000000000E+00 0.  1.
         13    1    3    3    0    0 -0.22509627562E+02  0.47993170435E+01 -0.78310963235E+01  0.24311372785E+02  0.00000000000E+00 0. -1.
         -1    1    1    2    0  502 -0.13981141341E+02  0.24973668112E+02 -0.38474222792E+01  0.28878349509E+02  0.00000000000E+00 0.  1.
<scales pt_clust_5="13000.00000" pt_clust_6="13000.00000" pt_clust_7="13000.00000" pt_clust_8="13000.00000" pt_clust_9="28.62092"></scales>
<clustering>
<clus scale="   28.621">  1  9  2 -1</clus>
<clus scale="   80.356">  5  6 -1 -1</clus>
<clus scale="   85.107">  7  8 -1 -1</clus>
<clus scale="  103.072">  1  5  2 -1</clus>
<clus scale="   28.621">  1  5  2 -1</clus>
</clustering>
</event>
<event>
 9    1  0.7586638E-005  0.1449735E+03  0.7546771E-02  0.1209009E+00
         -2   -1    0    0    0  501 -0.00000000000E+00  0.00000000000E+00  0.95882128116E+03  0.95882128116E+03  0.00000000000E+00 0.  1.
         21   -1    0    0  501  502  0.00000000000E+00 -0.00000000000E+00 -0.52690039466E+02  0.52690039466E+02  0.00000000000E+00 0.  1.
         23    2    1    2    0    0  0.72387375735E+02 -0.81614713646E+02  0.55384501287E+03  0.57181814914E+03  0.91273236801E+02 0.  0.
        -24    2    1    2    0    0 -0.11816631304E+03  0.46546661015E+02  0.35126038365E+03  0.38201707787E+03  0.80145626661E+02 0.  0.
         13    1    4    4    0    0 -0.10812864430E+03  0.57364804550E+02  0.34484689131E+03  0.36592608948E+03  0.00000000000E+00 0. -1.
        -14    1    4    4    0    0 -0.10037668736E+02 -0.10818143536E+02  0.64134923424E+01  0.16090988386E+02  0.00000000000E+00 0.  1.
        -11    1    3    3    0    0 -0.28866552897E+00 -0.59242637375E+02  0.33349811353E+03  0.33871930140E+03  0.00000000000E+00 0.  1.
         11    1    3    3    0    0  0.72676041264E+02 -0.22372076271E+02  0.22034689934E+03  0.23309884775E+03  0.00000000000E+00 0. -1.
         -1    1    1    2    0  502  0.45778937304E+02  0.35068052631E+02  0.10258451692E+01  0.57676093611E+02  0.00000000000E+00 0.  1.
<scales pt_clust_5="13000.00000" pt_clust_6="13000.00000" pt_clust_7="13000.00000" pt_clust_8="13000.00000" pt_clust_9="57.66697"></scales>
<clustering>
<clus scale="   57.667">  2  9  1 -1</clus>
<clus scale="   80.146">  5  6 -1 -1</clus>
<clus scale="   91.273">  7  8 -1 -1</clus>
<clus scale="  138.238">  2  5  1 -1</clus>
<clus scale="   57.667">  2  5  1 -1</clus>
</clustering>
</event>
<event>
 9    1  0.7586638E-005  0.2503989E+03  0.7546771E-02  0.1153552E+00
         21   -1    0    0  501  502  0.00000000000E+00  0.00000000000E+00  0.13701978814E+03  0.13701978814E+03  0.00000000000E+00 0.  1.
         -2   -1    0    0    0  501 -0.00000000000E+00 -0.00000000000E+00 -0.70143833486E+03  0.70143833486E+03  0.00000000000E+00 0.  1.
         23    2    1    2    0    0 -0.72898144991E+01 -0.26551341479E+01 -0.12580288452E+03  0.15652489857E+03  0.92808873427E+02 0.  0.
        -24    2    1    2    0    0 -0.17503053785E+03 -0.15658958920E+03 -0.10424296256E+03  0.26913218874E+03  0.80059672415E+02 0.  0.
         11    1    4    4    0    0 -0.23340390870E+02 -0.64276845193E+02 -0.13441684241E+02  0.69691933172E+02  0.00000000000E+00 0. -1.
        -12    1    4    4    0    0 -0.15169014698E+03 -0.92312744002E+02 -0.90801278318E+02  0.19944025557E+03  0.00000000000E+00 0.  1.
        -11    1    3    3    0    0 -0.33548188702E+02  0.30828678335E+02 -0.90156041929E+02  0.10101485173E+03  0.00000000000E+00 0. -1.
         11    1    3    3    0    0  0.26258374203E+02 -0.33483812483E+02 -0.35646842594E+02  0.55510046848E+02  0.00000000000E+00 0.  1.
         -1    1    1    2    0  502  0.18232035235E+03  0.15924472334E+03 -0.33437269964E+03  0.41280103568E+03  0.00000000000E+00 0.  1.
<scales pt_clust_5="13000.00000" pt_clust_6="13000.00000" pt_clust_7="13000.00000" pt_clust_8="13000.00000" pt_clust_9="237.25536"></scales>
<clustering>
<clus scale="   80.060">  5  6 -1 -1</clus>
<clus scale="   92.809">  7  8 -1 -1</clus>
<clus scale="   93.133">  2  7  1 -1</clus>
<clus scale="  237.255">  1  9  2 -1</clus>
<clus scale="  237.255">  1  5  2 -1</clus>
</clustering>
</event>
<event>
 9    1  0.7586638E-005  0.1798850E+03  0.7546771E-02  0.1185955E+00
          1   -1    0    0  502    0 -0.00000000000E+00  0.00000000000E+00  0.38351503807E+03  0.38351503807E+03  0.00000000000E+00 0. -1.
         21   -1    0    0  501  502  0.00000000000E+00 -0.00000000000E+00 -0.17826444029E+03  0.17826444029E+03  0.00000000000E+00 0. -1.
         23    2    1    2    0    0 -0.18912923634E+02 -0.75162012002E+02 -0.37109538705E+02  0.12527537854E+03  0.91157972097E+02 0.  0.
        -24    2    1    2    0    0 -0.42555029137E+02  0.20098275959E+03  0.17173720846E+03  0.27967053292E+03  0.80727554532E+02 0.  0.
         13    1    4    4    0    0 -0.58834432620E+02  0.18203419286E+03  0.16762250874E+03  0.25435259635E+03  0.00000000000E+00 0. -1.
        -14    1    4    4    0    0  0.16279403483E+02  0.18948566724E+02  0.41146997182E+01  0.25317936575E+02  0.00000000000E+00 0.  1.
        -13    1    3    3    0    0 -0.33891831543E+02 -0.10852878196E+02  0.17436320056E+02  0.39629111365E+02  0.00000000000E+00 0. -1.
         13    1    3    3    0    0  0.14978907909E+02 -0.64309133806E+02 -0.54545858761E+02  0.85646267175E+02  0.00000000000E+00 0.  1.
          2    1    1    2  501    0  0.61467952771E+02 -0.12582074758E+03  0.70622928036E+02  0.15683356689E+03  0.00000000000E+00 0. -1.
<scales pt_clust_5="13000.00000" pt_clust_6="13000.00000" pt_clust_7="13000.00000" pt_clust_8="13000.00000" pt_clust_9="160.75348"></scales>
<clustering>
<clus scale="   80.728">  5  6 -1 -1</clus>
<clus scale="   91.158">  7  8 -1 -1</clus>
<clus scale="  119.653">  1  7  2 -1</clus>
<clus scale="  160.753">  2  9  1 -1</clus>
<clus scale="  160.753">  2  5  1 -1</clus>
</clustering>
</event>
<event>
 9    1  0.7586638E-005  0.9460281E+02  0.7546771E-02  0.1297842E+00
          1   -1    0    0  502    0 -0.00000000000E+00  0.00000000000E+00  0.39478674521E+03  0.39478674521E+03  0.00000000000E+00 0. -1.
         21   -1    0    0  501  502  0.00000000000E+00 -0.00000000000E+00 -0.86969934812E+02  0.86969934812E+02  0.00000000000E+00 0. -1.
        -24    2    1    2    0    0 -0.18494165259E+02 -0.19999985298E+02  0.24450557590E+03  0.25878370482E+03  0.80274502013E+02 0.  0.
         23    2    1    2    0    0  0.73424201647E+02 -0.40631987594E+02  0.67796559280E+01  0.12352769170E+03  0.90393888510E+02 0.  0.
         11    1    3    3    0    0 -0.25460163213E+02 -0.46784690375E+02  0.19415173881E+03  0.20132542027E+03  0.00000000000E+00 0. -1.
        -12    1    3    3    0    0  0.69659979540E+01  0.26784705077E+02  0.50353837085E+02  0.57458284544E+02  0.00000000000E+00 0.  1.
        -11    1    4    4    0    0  0.21323973529E+02 -0.10311242076E+02  0.45909958612E+02  0.51660021874E+02  0.00000000000E+00 0.  1.
         11    1    4    4    0    0  0.52100228118E+02 -0.30320745518E+02 -0.39130302684E+02  0.71867669831E+02  0.00000000000E+00 0. -1.
          2    1    1    2  501    0 -0.54930036388E+02  0.60631972892E+02  0.56531578571E+02  0.99445283498E+02  0.00000000000E+00 0. -1.
<scales pt_clust_5="13000.00000" pt_clust_6="13000.00000" pt_clust_7="13000.00000" pt_clust_8="13000.00000" pt_clust_9="81.81409"></scales>
<clustering>
<clus scale="   80.275">  5  6 -1 -1</clus>
<clus scale="   81.814">  2  9  1 -1</clus>
<clus scale="   84.986">  1  5  2 -1</clus>
<clus scale="   90.394">  7  8 -1 -1</clus>
<clus scale="   81.814">  2  5  1 -1</clus>
</clustering>
</event>
<event>
 9    1  0.7586638E-005  0.1018722E+03  0.7546771E-02  0.1279885E+00
         21   -1    0    0  501  502  0.00000000000E+00  0.00000000000E+00  0.21013080925E+03  0.21013080925E+03  0.00000000000E+00 0.  1.
          1   -1    0    0  502    0 -0.00000000000E+00 -0.00000000000E+00 -0.77049266761E+02  0.77049266761E+02  0.00000000000E+00 0. -1.
         23    2    1    2    0    0  0.32501304453E+02 -0.33678994770E+02 -0.63771015602E+01  0.10206793065E+03  0.90479752230E+02 0.  0.
        -24    2    1    2    0    0 -0.47928235937E+02  0.16871586476E+02  0.12355244425E+03  0.15730052224E+03  0.83045057563E+02 0.  0.
         13    1    4    4    0    0  0.12074469181E+02  0.26062933055E+02  0.13771618109E+02  0.31854775950E+02  0.00000000000E+00 0. -1.
        -14    1    4    4    0    0 -0.60002705118E+02 -0.91913465791E+01  0.10978082614E+03  0.12544574629E+03  0.00000000000E+00 0.  1.
        -11    1    3    3    0    0 -0.14628992516E+02  0.19076822122E+02 -0.18448740091E+02  0.30303276642E+02  0.00000000000E+00 0.  1.
         11    1    3    3    0    0  0.47130296969E+02 -0.52755816892E+02  0.12071638531E+02  0.71764654010E+02  0.00000000000E+00 0. -1.
          2    1    1    2  501    0  0.15426931484E+02  0.16807408294E+02  0.15906199799E+02  0.27811623121E+02  0.00000000000E+00 0. -1.
<scales pt_clust_5="13000.00000" pt_clust_6="13000.00000" pt_clust_7="13000.00000" pt_clust_8="13000.00000" pt_clust_9="22.81401"></scales>
<clustering>
<clus scale="   22.814">  1  9  2 -1</clus>
<clus scale="   83.045">  5  6 -1 -1</clus>
<clus scale="   90.480">  7  8 -1 -1</clus>
<clus scale="   95.330">  1  5  2 -1</clus>
<clus scale="   22.814">  1  5  2 -1</clus>
</clustering>
</event>
<event>
 9    1  0.7586638E-005  0.1386443E+03  0.7546771E-02  0.1217344E+00
         21   -1    0    0  501  502  0.00000000000E+00  0.00000000000E+00  0.24093617702E+03  0.24093617702E+03  0.00000000000E+00 0. -1.
          1   -1    0    0  502    0 -0.00000000000E+00 -0.00000000000E+00 -0.28959955590E+03  0.28959955590E+03  0.00000000000E+00 0. -1.
         23    2    1    2    0    0 -0.38354841541E+02  0.76267176876E+02 -0.79122302345E+02  0.14753545609E+03  0.90656472121E+02 0.  0.
        -24    2    1    2    0    0  0.10115336929E+03 -0.17737283158E+03  0.10412332181E+03  0.24302723627E+03  0.80792610568E+02 0.  0.
         11    1    4    4    0    0  0.93144011867E+02 -0.13015902732E+03  0.11081745676E+03  0.19467328544E+03  0.00000000000E+00 0. -1.
        -12    1    4    4    0    0  0.80093574258E+01 -0.47213804255E+02 -0.66941349438E+01  0.48353950834E+02  0.00000000000E+00 0.  1.
        -13    1    3    3    0    0 -0.63571677325E+02  0.46394426937E+02 -0.74145984570E+02  0.10812690709E+03  0.00000000000E+00 0. -1.
         13    1    3    3    0    0  0.25216835784E+02  0.29872749939E+02 -0.49763177746E+01  0.39408549002E+02  0.00000000000E+00 0.  1.
          2    1    1    2  501    0 -0.62798527752E+02  0.10110565470E+03 -0.73664398342E+02  0.13997304056E+03  0.00000000000E+00 0. -1.
<scales pt_clust_5="13000.00000" pt_clust_6="13000.00000" pt_clust_7="13000.00000" pt_clust_8="13000.00000" pt_clust_9="119.02110"></scales>
<clustering>
<clus scale="   80.793">  5  6 -1 -1</clus>
<clus scale="   90.656">  7  8 -1 -1</clus>
<clus scale="  119.021">  1  9  2 -1</clus>
<clus scale="  132.405">  1  5  2 -1</clus>
<clus scale="  119.021">  1  5  2 -1</clus>
</clustering>
</event>
<event>
 9    1  0.7586638E-005  0.1079487E+03  0.7546771E-02  0.1269984E+00
         21   -1    0    0  501  502  0.00000000000E+00  0.00000000000E+00  0.16689070962E+03  0.16689070962E+03  0.00000000000E+00 0. -1.
          1   -1    0    0  502    0 -0.00000000000E+00 -0.00000000000E+00 -0.14895873126E+03  0.14895873126E+03  0.00000000000E+00 0. -1.
        -24    2    1    2    0    0  0.34443029839E+02 -0.20657463488E+02 -0.27908821001E+01  0.89934808653E+02  0.80420318840E+02 0.  0.
         23    2    1    2    0    0 -0.96080726000E+02 -0.90214932964E+01  0.59890005191E+02  0.14708499763E+03  0.93457426431E+02 0.  0.
         13    1    3    3    0    0  0.53130469594E+02 -0.25406887292E+02 -0.21857594975E+02  0.62818080035E+02  0.00000000000E+00 0. -1.
        -14    1    3    3    0    0 -0.18687439755E+02  0.47494238041E+01  0.19066712875E+02  0.27116728618E+02  0.00000000000E+00 0.  1.
        -11    1    4    4    0    0 -0.41244578684E+02 -0.33832049499E+02 -0.10607212468E+02  0.54389666303E+02  0.00000000000E+00 0.  1.
         11    1    4    4    0    0 -0.54836147316E+02  0.24810556203E+02  0.70497217660E+02  0.92695331324E+02  0.00000000000E+00 0. -1.
          2    1    1    2  501    0  0.61637696160E+02  0.29678956784E+02 -0.39167144734E+02  0.78829634595E+02  0.00000000000E+00 0. -1.
<scales pt_clust_5="13000.00000" pt_clust_6="13000.00000" pt_clust_7="13000.00000" pt_clust_8="13000.00000" pt_clust_9="68.41090"></scales>
<clustering>
<clus scale="   68.411">  1  9  2 -1</clus>
<clus scale="   80.420">  5  6 -1 -1</clus>
<clus scale="   93.457">  7  8 -1 -1</clus>
<clus scale="   96.882">  2  5  1 -1</clus>
<clus scale="   68.411">  1  5  2 -1</clus>
</clustering>
</event>
<event>
 9    1  0.7586638E-005  0.1040177E+03  0.7546771E-02  0.1277549E+00
         -2   -1    0    0    0  501 -0.00000000000E+00  0.00000000000E+00  0.60245059566E+02  0.60245059566E+02  0.00000000000E+00 0.  1.
         21   -1    0    0  501  502  0.00000000000E+00 -0.00000000000E+00 -0.27448433393E+03  0.27448433393E+03  0.00000000000E+00 0. -1.
        -24    2    1    2    0    0  0.12102322913E+02 -0.46978251915E+02 -0.38092921374E+02  0.10212179009E+03  0.81390214268E+02 0.  0.
         23    2    1    2    0    0  0.21270418859E+02  0.45171920792E+02 -0.85328987522E+02  0.13583572425E+03  0.93152427369E+02 0.  0.
         13    1    3    3    0    0 -0.22315082524E+02 -0.24539626163E+02 -0.49405638943E+02  0.59506918250E+02  0.00000000000E+00 0. -1.
        -14    1    3    3    0    0  0.34417405438E+02 -0.22438625752E+02  0.11312717569E+02  0.42614871835E+02  0.00000000000E+00 0.  1.
        -11    1    4    4    0    0  0.26443320292E+02 -0.11984046568E+02  0.43594588157E+01  0.29357647068E+02  0.00000000000E+00 0.  1.
         11    1    4    4    0    0 -0.51729014324E+01  0.57155967360E+02 -0.89688446337E+02  0.10647807718E+03  0.00000000000E+00 0. -1.
         -1    1    1    2    0  502 -0.33372741773E+02  0.18063311238E+01 -0.90817365468E+02  0.96771879160E+02  0.00000000000E+00 0.  1.
<scales pt_clust_5="13000.00000" pt_clust_6="13000.00000" pt_clust_7="13000.00000" pt_clust_8="13000.00000" pt_clust_9="33.42159"></scales>
<clustering>
<clus scale="   33.422">  2  9  1 -1</clus>
<clus scale="   81.390">  5  6 -1 -1</clus>
<clus scale="   93.152">  7  8 -1 -1</clus>
<clus scale="   93.631">  1  5  2 -1</clus>
<clus scale="   33.422">  2  5  1 -1</clus>
</clustering>
</event>
<event>
 9    1  0.7586638E-005  0.1119308E+03  0.7546771E-02  0.1261500E+00
          3   -1    0    0  502    0 -0.00000000000E+00  0.00000000000E+00  0.72785611863E+02  0.72785611863E+02  0.00000000000E+00 0. -1.
         21   -1    0    0  501  502  0.00000000000E+00 -0.00000000000E+00 -0.28164937879E+03  0.28164937879E+03  0.00000000000E+00 0. -1.
        -24    2    1    2    0    0  0.37042875357E+02 -0.75203733040E+02 -0.29872727086E+02  0.11920928918E+03  0.79313925161E+02 0.  0.
         23    2    1    2    0    0 -0.20798574790E+02  0.21945553308E+02 -0.12533105998E+03  0.15789715275E+03  0.91156174931E+02 0.  0.
         11    1    3    3    0    0 -0.14807331349E+02 -0.44651289498E+02 -0.35254881055E+02  0.58786914817E+02  0.00000000000E+00 0. -1.
        -12    1    3    3    0    0  0.51850206706E+02 -0.30552443542E+02  0.53821539685E+01  0.60422374359E+02  0.00000000000E+00 0.  1.
        -11    1    4    4    0    0 -0.50457260020E+02  0.37164384677E+02 -0.83898662968E+02  0.10471920657E+03  0.00000000000E+00 0.  1.
         11    1    4    4    0    0  0.29658685230E+02 -0.15218831369E+02 -0.41432397015E+02  0.53177946183E+02  0.00000000000E+00 0. -1.
          4    1    1    2  501    0 -0.16244300567E+02  0.53258179733E+02 -0.53659979861E+02  0.77328548726E+02  0.00000000000E+00 0. -1.
<scales pt_clust_5="13000.00000" pt_clust_6="13000.00000" pt_clust_7="13000.00000" pt_clust_8="13000.00000" pt_clust_9="55.68044"></scales>
<clustering>
<clus scale="   55.680">  2  9  1 -1</clus>
<clus scale="   79.314">  5  6 -1 -1</clus>
<clus scale="   91.156">  7  8 -1 -1</clus>
<clus scale="  102.517">  1  5  2 -1</clus>
<clus scale="   55.680">  2  5  1 -1</clus>
</clustering>
</event>
<event>
 9    1  0.7586638E-005  0.1071386E+03  0.7546771E-02  0.1269982E+00
         -2   -1    0    0    0  501 -0.00000000000E+00  0.00000000000E+00  0.37218643230E+03  0.37218643230E+03  0.00000000000E+00 0.  1.
         21   -1    0    0  501  502  0.00000000000E+00 -0.00000000000E+00 -0.12652617227E+03  0.12652617227E+03  0.00000000000E+00 0.  1.
         23    2    1    2    0    0 -0.59803569669E+02  0.22094292670E+02  0.25447863216E+03  0.27727480375E+03  0.89762563767E+02 0.  0.
        -24    2    1    2    0    0  0.24411895516E+01 -0.20183344184E+02 -0.89934398461E+02  0.12207028044E+03  0.79997690918E+02 0.  0.
         13    1    4    4    0    0  0.30316072090E+01 -0.51266877756E+02 -0.53157016031E+02  0.73913136521E+02  0.00000000000E+00 0. -1.
        -14    1    4    4    0    0 -0.59041765738E+00  0.31083533572E+02 -0.36777382430E+02  0.48157143922E+02  0.00000000000E+00 0.  1.
        -13    1    3    3    0    0 -0.47050822641E+02 -0.10816762367E+02  0.49004132362E+02  0.68790895094E+02  0.00000000000E+00 0. -1.
         13    1    3    3    0    0 -0.12752747027E+02  0.32911055038E+02  0.20547449980E+03  0.20848390866E+03  0.00000000000E+00 0.  1.
         -1    1    1    2    0  502  0.57362380117E+02 -0.19109484865E+01  0.81116026339E+02  0.99367520377E+02  0.00000000000E+00 0.  1.
<scales pt_clust_5="13000.00000" pt_clust_6="13000.00000" pt_clust_7="13000.00000" pt_clust_8="13000.00000" pt_clust_9="57.39423"></scales>
<clustering>
<clus scale="   57.394">  2  9  1 -1</clus>
<clus scale="   79.998">  5  6 -1 -1</clus>
<clus scale="   89.763">  7  8 -1 -1</clus>
<clus scale="   99.101">  2  5  1 -1</clus>
<clus scale="   57.394">  2  5  1 -1</clus>
</clustering>
</event>
<event>
 9    1  0.7586638E-005  0.4171286E+03  0.7546771E-02  0.1038183E+00
         21   -1    0    0  501  502  0.00000000000E+00  0.00000000000E+00  0.75778554164E+03  0.75778554164E+03  0.00000000000E+00 0. -1.
          1   -1    0    0  502    0 -0.00000000000E+00 -0.00000000000E+00 -0.45236150756E+03  0.45236150756E+03  0.00000000000E+00 0. -1.
        -24    2    1    2    0    0  0.31270765328E+03  0.25104519681E+03 -0.21004171586E+03  0.45885901481E+03  0.74995371933E+02 0.  0.
         23    2    1    2    0    0 -0.28646797428E+03 -0.33692535883E+03  0.38354343586E+03  0.59170288492E+03  0.86163444197E+02 0.  0.
         13    1    3    3    0    0  0.24480129084E+03  0.22720974133E+03 -0.18953962141E+03  0.38402761181E+03  0.00000000000E+00 0. -1.
        -14    1    3    3    0    0  0.67906362439E+02  0.23835455486E+02 -0.20502094446E+02  0.74831402997E+02  0.00000000000E+00 0.  1.
        -13    1    4    4    0    0 -0.85543322886E+02 -0.11151948284E+03  0.72304241696E+02  0.15805745320E+03  0.00000000000E+00 0.  1.
         13    1    4    4    0    0 -0.20092465140E+03 -0.22540587599E+03  0.31123919416E+03  0.43364543172E+03  0.00000000000E+00 0. -1.
          2    1    1    2  501    0 -0.26239678994E+02  0.85880162017E+02  0.13192231407E+03  0.15958514947E+03  0.00000000000E+00 0. -1.
<scales pt_clust_5="13000.00000" pt_clust_6="13000.00000" pt_clust_7="13000.00000" pt_clust_8="13000.00000" pt_clust_9="89.79935"></scales>
<clustering>
<clus scale="   74.995">  5  6 -1 -1</clus>
<clus scale="   86.163">  7  8 -1 -1</clus>
<clus scale="   89.799">  1  9  2 -1</clus>
<clus scale="  414.966">  2  5  1 -1</clus>
<clus scale="   89.799">  1  5  2 -1</clus>
</clustering>
</event>
<event>
 9    1  0.7586638E-005  0.2844416E+03  0.7546771E-02  0.1093750E+00
          1   -1    0    0  502    0 -0.00000000000E+00  0.00000000000E+00  0.12007152286E+04  0.12007152286E+04  0.00000000000E+00 0. -1.
         21   -1    0    0  501  502  0.00000000000E+00 -0.00000000000E+00 -0.13933832145E+03  0.13933832145E+03  0.00000000000E+00 0.  1.
         23    2    1    2    0    0 -0.10419105900E+03  0.30043764677E+03  0.85284470548E+03  0.91487263769E+03  0.92354183203E+02 0.  0.
        -24    2    1    2    0    0  0.12919186978E+03 -0.14257478349E+03  0.13918811796E+03  0.25095598277E+03  0.81163199812E+02 0.  0.
         11    1    4    4    0    0  0.78685859980E+01 -0.46136438671E+02  0.71331247945E+01  0.47343078566E+02  0.00000000000E+00 0. -1.
        -12    1    4    4    0    0  0.12132328378E+03 -0.96438344815E+02  0.13205499317E+03  0.20361290420E+03  0.00000000000E+00 0.  1.
        -13    1    3    3    0    0 -0.27164300790E+02  0.18112059037E+02  0.44551413764E+02  0.55233815624E+02  0.00000000000E+00 0.  1.
         13    1    3    3    0    0 -0.77026758207E+02  0.28232558774E+03  0.80829329171E+03  0.85963882207E+03  0.00000000000E+00 0. -1.
          2    1    1    2  501    0 -0.25000810782E+02 -0.15786286329E+03  0.69344083719E+02  0.17422492959E+03  0.00000000000E+00 0. -1.
<scales pt_clust_5="13000.00000" pt_clust_6="13000.00000" pt_clust_7="13000.00000" pt_clust_8="13000.00000" pt_clust_9="159.83030"></scales>
<clustering>
<clus scale="   81.163">  5  6 -1 -1</clus>
<clus scale="   92.354">  7  8 -1 -1</clus>
<clus scale="  159.830">  2  9  1 -1</clus>
<clus scale="  281.007">  2  5  1 -1</clus>
<clus scale="  159.830">  2  5  1 -1</clus>
</clustering>
</event>
<event>
 9    1  0.7586638E-005  0.9611303E+02  0.7546771E-02  0.1293286E+00
          1   -1    0    0  502    0 -0.00000000000E+00  0.00000000000E+00  0.17577857308E+03  0.17577857308E+03  0.00000000000E+00 0. -1.
         21   -1    0    0  501  502  0.00000000000E+00 -0.00000000000E+00 -0.14176146248E+03  0.14176146248E+03  0.00000000000E+00 0.  1.
         23    2    1    2    0    0  0.29375311884E+02 -0.32094198638E+02  0.11098696281E+03  0.14855216536E+03  0.88637990641E+02 0.  0.
        -24    2    1    2    0    0 -0.20064254723E+02 -0.16451269692E+02 -0.84240397541E+02  0.11902569340E+03  0.79984076668E+02 0.  0.
         11    1    4    4    0    0  0.17232391871E+02  0.23524982790E+02 -0.33774955964E+02  0.44622055031E+02  0.00000000000E+00 0. -1.
        -12    1    4    4    0    0 -0.37296646593E+02 -0.39976252481E+02 -0.50465441577E+02  0.74403638373E+02  0.00000000000E+00 0.  1.
        -13    1    3    3    0    0  0.46421006414E+02  0.57612429745E+00  0.20308611805E+02  0.50672294888E+02  0.00000000000E+00 0. -1.
         13    1    3    3    0    0 -0.17045694531E+02 -0.32670322935E+02  0.90678351005E+02  0.97879870472E+02  0.00000000000E+00 0.  1.
          2    1    1    2  501    0 -0.93110571610E+01  0.48545468329E+02  0.72705453309E+01  0.49962176796E+02  0.00000000000E+00 0. -1.
<scales pt_clust_5="13000.00000" pt_clust_6="13000.00000" pt_clust_7="13000.00000" pt_clust_8="13000.00000" pt_clust_9="49.43036"></scales>
<clustering>
<clus scale="   49.430">  2  9  1 -1</clus>
<clus scale="   79.984">  5  6 -1 -1</clus>
<clus scale="   88.196">  2  5  1 -1</clus>
<clus scale="   88.638">  7  8 -1 -1</clus>
<clus scale="   49.430">  2  5  1 -1</clus>
</clustering>
</event>
<event>
 9    1  0.7586638E-005  0.1679423E+03  0.7546771E-02  0.1187438E+00
         21   -1    0    0  501  502  0.00000000000E+00  0.00000000000E+00  0.59677554555E+03  0.59677554555E+03  0.00000000000E+00 0. -1.
          1   -1    0    0  502    0 -0.00000000000E+00 -0.00000000000E+00 -0.12275435968E+03  0.12275435968E+03  0.00000000000E+00 0. -1.
        -24    2    1    2    0    0 -0.10478144478E+03  0.51680589277E+02  0.34275564338E+02  0.14634336190E+03  0.81188242898E+02 0.  0.
         23    2    1    2    0    0 -0.62274576898E+02 -0.12753149831E+03  0.30227987173E+03  0.34393142965E+03  0.82300069646E+02 0.  0.
         11    1    3    3    0    0 -0.83828446435E+02  0.71960472381E+02  0.38252412695E+02  0.11691349406E+03  0.00000000000E+00 0. -1.
        -12    1    3    3    0    0 -0.20952998341E+02 -0.20279883104E+02 -0.39768483579E+01  0.29429867839E+02  0.00000000000E+00 0.  1.
        -13    1    4    4    0    0 -0.86140197153E+01 -0.24000179134E+02  0.14989163082E+03  0.15204509503E+03  0.00000000000E+00 0.  1.
         13    1    4    4    0    0 -0.53660557183E+02 -0.10353131917E+03  0.15238824091E+03  0.19188633462E+03  0.00000000000E+00 0. -1.
          2    1    1    2  501    0  0.16705602167E+03  0.75850909028E+02  0.13746574981E+03  0.22925511368E+03  0.00000000000E+00 0. -1.
<scales pt_clust_5="13000.00000" pt_clust_6="13000.00000" pt_clust_7="13000.00000" pt_clust_8="13000.00000" pt_clust_9="146.39440"></scales>
<clustering>
<clus scale="   81.188">  5  6 -1 -1</clus>
<clus scale="   82.300">  7  8 -1 -1</clus>
<clus scale="  142.273">  2  5  1 -1</clus>
<clus scale="  146.394">  1  9  2 -1</clus>
<clus scale="  146.394">  1  5  2 -1</clus>
</clustering>
</event>
<event>
 9    1  0.7586638E-005  0.1271183E+03  0.7546771E-02  0.1233130E+00
         -2   -1    0    0    0  501 -0.00000000000E+00  0.00000000000E+00  0.53802346447E+03  0.53802346447E+03  0.00000000000E+00 0.  1.
         21   -1    0    0  501  502  0.00000000000E+00 -0.00000000000E+00 -0.83088462961E+02  0.83088462961E+02  0.00000000000E+00 0. -1.
        -24    2    1    2    0    0  0.10148904155E+03  0.35545872030E+02  0.32658097941E+03  0.35313272897E+03  0.80523621301E+02 0.  0.
         23    2    1    2    0    0 -0.66229545720E+02  0.64978214683E+02  0.50510819639E+02  0.13604024202E+03  0.85715129578E+02 0.  0.
         11    1    3    3    0    0 -0.63469870059E+00  0.26215404223E+02  0.32960681206E+02  0.42119553257E+02  0.00000000000E+00 0. -1.
        -12    1    3    3    0    0  0.10212374025E+03  0.93304678069E+01  0.29362029820E+03  0.31101317572E+03  0.00000000000E+00 0.  1.
        -13    1    4    4    0    0 -0.15221403051E+02  0.31155828850E+02  0.64526329566E+02  0.73253150031E+02  0.00000000000E+00 0.  1.
         13    1    4    4    0    0 -0.51008142669E+02  0.33822385833E+02 -0.14015509927E+02  0.62787091989E+02  0.00000000000E+00 0. -1.
         -1    1    1    2    0  502 -0.35259495831E+02 -0.10052408671E+03  0.77843202457E+02  0.13193895643E+03  0.00000000000E+00 0.  1.
<scales pt_clust_5="13000.00000" pt_clust_6="13000.00000" pt_clust_7="13000.00000" pt_clust_8="13000.00000" pt_clust_9="106.52851"></scales>
<clustering>
<clus scale="   80.524">  5  6 -1 -1</clus>
<clus scale="   85.715">  7  8 -1 -1</clus>
<clus scale="  106.529">  2  9  1 -1</clus>
<clus scale="  123.677">  1  5  2 -1</clus>
<clus scale="  106.529">  2  5  1 -1</clus>
</clustering>
</event>
<event>
 9    1  0.7586638E-005  0.1064545E+03  0.7546771E-02  0.1275180E+00
          1   -1    0    0  502    0 -0.00000000000E+00  0.00000000000E+00  0.22495651034E+03  0.22495651034E+03  0.00000000000E+00 0. -1.
         21   -1    0    0  501  502  0.00000000000E+00 -0.00000000000E+00 -0.10742199788E+03  0.10742199788E+03  0.00000000000E+00 0. -1.
        -24    2    1    2    0    0 -0.25825216898E+02  0.61893597917E+01  0.87971775945E+02  0.12232693108E+03  0.80744007222E+02 0.  0.
         23    2    1    2    0    0  0.77980067511E+02 -0.20084815972E+01  0.70728264625E+02  0.14347674039E+03  0.97458517778E+02 0.  0.
         13    1    3    3    0    0 -0.17401983654E+02  0.28673850363E+02  0.92051855559E+02  0.97972255468E+02  0.00000000000E+00 0. -1.
        -14    1    3    3    0    0 -0.84232332445E+01 -0.22484490571E+02 -0.40800796141E+01  0.24354675613E+02  0.00000000000E+00 0.  1.
        -13    1    4    4    0    0  0.62983745741E+02 -0.34147045856E+02  0.88951824032E+01  0.72194856038E+02  0.00000000000E+00 0. -1.
         13    1    4    4    0    0  0.14996321770E+02  0.32138564259E+02  0.61833082222E+02  0.71281884348E+02  0.00000000000E+00 0.  1.
          2    1    1    2  501    0 -0.52154850613E+02 -0.41808781945E+01 -0.41165528100E+02  0.66574836753E+02  0.00000000000E+00 0. -1.
<scales pt_clust_5="13000.00000" pt_clust_6="13000.00000" pt_clust_7="13000.00000" pt_clust_8="13000.00000" pt_clust_9="52.32216"></scales>
<clustering>
<clus scale="   52.322">  2  9  1 -1</clus>
<clus scale="   80.744">  5  6 -1 -1</clus>
<clus scale="   91.400">  1  5  2 -1</clus>
<clus scale="   97.459">  7  8 -1 -1</clus>
<clus scale="   52.322">  2  5  1 -1</clus>
</clustering>
</event>
<event>
 9    1  0.7586638E-005  0.9362161E+02  0.7546771E-02  0.1300116E+00
          1   -1    0    0  502    0 -0.00000000000E+00  0.00000000000E+00  0.42752683562E+03  0.42752683562E+03  0.00000000000E+00 0. -1.
         21   -1    0    0  501  502  0.00000000000E+00 -0.00000000000E+00 -0.24099324954E+03  0.24099324954E+03  0.00000000000E+00 0.  1.
        -24    2    1    2    0    0  0.18691451866E+02 -0.36616350760E+01  0.23967991921E+03  0.25383767095E+03  0.81389935359E+02 0.  0.
         23    2    1    2    0    0 -0.88907590080E+02 -0.44033672925E+01 -0.20829492990E+03  0.24419359519E+03  0.91212854871E+02 0.  0.
         11    1    3    3    0    0 -0.98923193623E-01  0.21574625804E+02  0.13436206968E+02  0.25416646555E+02  0.00000000000E+00 0. -1.
        -12    1    3    3    0    0  0.18790375060E+02 -0.25236260880E+02  0.22624371224E+03  0.22842102439E+03  0.00000000000E+00 0.  1.
        -11    1    4    4    0    0 -0.90288152569E+02 -0.32550862753E+02 -0.18146580589E+03  0.20528357915E+03  0.00000000000E+00 0.  1.
         11    1    4    4    0    0  0.13805624887E+01  0.28147495461E+02 -0.26829124011E+02  0.38910016046E+02  0.00000000000E+00 0. -1.
          2    1    1    2  501    0  0.70216138214E+02  0.80650023686E+01  0.15514859678E+03  0.17048881902E+03  0.00000000000E+00 0. -1.
<scales pt_clust_5="13000.00000" pt_clust_6="13000.00000" pt_clust_7="13000.00000" pt_clust_8="13000.00000" pt_clust_9="70.67783"></scales>
<clustering>
<clus scale="   70.678">  2  9  1 -1</clus>
<clus scale="   81.390">  5  6 -1 -1</clus>
<clus scale="   84.081">  1  5  2 -1</clus>
<clus scale="   91.213">  7  8 -1 -1</clus>
<clus scale="   70.678">  2  5  1 -1</clus>
</clustering>
</event>
<event>
 9    1  0.7586638E-005  0.1125477E+03  0.7546771E-02  0.1258385E+00
          1   -1    0    0  502    0 -0.00000000000E+00  0.00000000000E+00  0.16510720876E+03  0.16510720876E+03  0.00000000000E+00 0. -1.
         21   -1    0    0  501  502  0.00000000000E+00 -0.00000000000E+00 -0.23956137442E+03  0.23956137442E+03  0.00000000000E+00 0. -1.
         23    2    1    2    0    0  0.55569251105E+02  0.30862654395E+02  0.10305834689E+03  0.15140104728E+03  0.90888993556E+02 0.  0.
        -24    2    1    2    0    0 -0.80258534851E+02 -0.12597322064E+02 -0.59364616239E+02  0.13119334328E+03  0.84186760954E+02 0.  0.
         11    1    4    4    0    0 -0.60745034368E+02  0.30293542918E+02 -0.46723741849E+02  0.82406104114E+02  0.00000000000E+00 0. -1.
        -12    1    4    4    0    0 -0.19513500483E+02 -0.42890864982E+02 -0.12640874390E+02  0.48787239165E+02  0.00000000000E+00 0.  1.
        -11    1    3    3    0    0  0.38760218618E+02 -0.27731956131E+02  0.60683655398E+02  0.77161661274E+02  0.00000000000E+00 0.  1.
         11    1    3    3    0    0  0.16809032487E+02  0.58594610525E+02  0.42374691497E+02  0.74239386011E+02  0.00000000000E+00 0. -1.
          2    1    1    2  501    0  0.24689283745E+02 -0.18265332331E+02 -0.11814789632E+03  0.12207419261E+03  0.00000000000E+00 0. -1.
<scales pt_clust_5="13000.00000" pt_clust_6="13000.00000" pt_clust_7="13000.00000" pt_clust_8="13000.00000" pt_clust_9="30.71129"></scales>
<clustering>
<clus scale="   30.711">  2  9  1 -1</clus>
<clus scale="   84.187">  5  6 -1 -1</clus>
<clus scale="   90.889">  7  8 -1 -1</clus>
<clus scale="  107.208">  2  5  1 -1</clus>
<clus scale="   30.711">  2  5  1 -1</clus>
</clustering>
</event>
<event>
 9    1  0.7586638E-005  0.1559564E+03  0.7546771E-02  0.1195675E+00
          1   -1    0    0  502    0 -0.00000000000E+00  0.00000000000E+00  0.14835465939E+03  0.14835465939E+03  0.00000000000E+00 0. -1.
         21   -1    0    0  501  502  0.00000000000E+00 -0.00000000000E+00 -0.27880672999E+03  0.27880672999E+03  0.00000000000E+00 0. -1.
         23    2    1    2    0    0 -0.30758222087E+02  0.95550673414E+02 -0.71819321335E+02  0.15499128955E+03  0.93745855935E+02 0.  0.
        -24    2    1    2    0    0  0.71586615834E+02 -0.14011624079E+03 -0.96127885687E+02  0.20104392472E+03  0.80130423428E+02 0.  0.
         13    1    4    4    0    0  0.50455669416E+02 -0.11355575046E+03 -0.10845505904E+03  0.16493387423E+03  0.00000000000E+00 0. -1.
        -14    1    4    4    0    0  0.21130946418E+02 -0.26560490334E+02  0.12327173349E+02  0.36110050486E+02  0.00000000000E+00 0.  1.
        -13    1    3    3    0    0 -0.35440662446E+02  0.13403898386E+02 -0.61267171924E+02  0.72037291746E+02  0.00000000000E+00 0.  1.
         13    1    3    3    0    0  0.46824403593E+01  0.82146775028E+02 -0.10552149411E+02  0.82953997809E+02  0.00000000000E+00 0. -1.
          2    1    1    2  501    0 -0.40828393747E+02  0.44565567376E+02  0.37495136422E+02  0.71126175117E+02  0.00000000000E+00 0. -1.
<scales pt_clust_5="13000.00000" pt_clust_6="13000.00000" pt_clust_7="13000.00000" pt_clust_8="13000.00000" pt_clust_9="60.44048"></scales>
<clustering>
<clus scale="   60.440">  2  9  1 -1</clus>
<clus scale="   80.130">  5  6 -1 -1</clus>
<clus scale="   93.746">  7  8 -1 -1</clus>
<clus scale="  148.172">  2  5  1 -1</clus>
<clus scale="   60.440">  2  5  1 -1</clus>
</clustering>
</event>
<event>
 9    1  0.7586638E-005  0.1095403E+03  0.7546771E-02  0.1266650E+00
         21   -1    0    0  501  502  0.00000000000E+00  0.00000000000E+00  0.58232781105E+02  0.58232781105E+02  0.00000000000E+00 0. -1.
          1   -1    0    0  502    0 -0.00000000000E+00 -0.00000000000E+00 -0.84333602367E+03  0.84333602367E+03  0.00000000000E+00 0. -1.
         23    2    1    2    0    0  0.28060753407E+02  0.42999484508E+02 -0.51741307722E+03  0.52823256300E+03  0.93150344040E+02 0.  0.
        -24    2    1    2    0    0 -0.41412351185E+01 -0.12275091229E+03 -0.78104999312E+02  0.16627352478E+03  0.80383815713E+02 0.  0.
         11    1    4    4    0    0 -0.18536805726E+02 -0.80667592504E+02 -0.78745005587E+01  0.83143739427E+02  0.00000000000E+00 0. -1.
        -12    1    4    4    0    0  0.14395570608E+02 -0.42083319783E+02 -0.70230498754E+02  0.83129785349E+02  0.00000000000E+00 0.  1.
        -11    1    3    3    0    0 -0.30142563320E+02 -0.54353674183E+01 -0.15309677578E+03  0.15613052263E+03  0.00000000000E+00 0.  1.
         11    1    3    3    0    0  0.58203316727E+02  0.48434851926E+02 -0.36431630144E+03  0.37210204037E+03  0.00000000000E+00 0. -1.
          2    1    1    2  501    0 -0.23919518288E+02  0.79751427778E+02 -0.18958516604E+03  0.20706271700E+03  0.00000000000E+00 0. -1.
<scales pt_clust_5="13000.00000" pt_clust_6="13000.00000" pt_clust_7="13000.00000" pt_clust_8="13000.00000" pt_clust_9="83.26128"></scales>
<clustering>
<clus scale="   80.384">  5  6 -1 -1</clus>
<clus scale="   83.261">  1  9  2 -1</clus>
<clus scale="   93.150">  7  8 -1 -1</clus>
<clus scale="   98.912">  1  5  2 -1</clus>
<clus scale="   83.261">  1  5  2 -1</clus>
</clustering>
</event>
<event>
 9    1  0.7586638E-005  0.1222419E+03  0.7546771E-02  0.1242771E+00
         -2   -1    0    0    0  501 -0.00000000000E+00  0.00000000000E+00  0.18480025777E+03  0.18480025777E+03  0.00000000000E+00 0.  1.
         21   -1    0    0  501  502  0.00000000000E+00 -0.00000000000E+00 -0.12659085391E+03  0.12659085391E+03  0.00000000000E+00 0.  1.
         23    2    1    2    0    0 -0.85422001605E+02  0.45067710197E+02  0.47814683216E+02  0.14165997807E+03  0.91941767414E+02 0.  0.
        -24    2    1    2    0    0  0.62901067580E+02  0.46640086252E+00 -0.27670025565E+02  0.10625300632E+03  0.81038936349E+02 0.  0.
         13    1    4    4    0    0  0.24003471452E+01  0.28499572518E+02  0.92187186027E+01  0.30049493720E+02  0.00000000000E+00 0. -1.
        -14    1    4    4    0    0  0.60500720435E+02 -0.28033171656E+02 -0.36888744168E+02  0.76203512599E+02  0.00000000000E+00 0.  1.
        -13    1    3    3    0    0 -0.38746759522E+02  0.66040508191E+02  0.48222019051E+02  0.90487696495E+02  0.00000000000E+00 0.  1.
         13    1    3    3    0    0 -0.46675242083E+02 -0.20972797994E+02 -0.40733583478E+00  0.51172281576E+02  0.00000000000E+00 0. -1.
         -1    1    1    2    0  502  0.22520934025E+02 -0.45534111060E+02  0.38064746212E+02  0.63478127284E+02  0.00000000000E+00 0.  1.
<scales pt_clust_5="13000.00000" pt_clust_6="13000.00000" pt_clust_7="13000.00000" pt_clust_8="13000.00000" pt_clust_9="50.79912"></scales>
<clustering>
<clus scale="   50.799">  2  9  1 -1</clus>
<clus scale="   81.039">  5  6 -1 -1</clus>
<clus scale="   91.942">  7  8 -1 -1</clus>
<clus scale="  114.268">  2  5  1 -1</clus>
<clus scale="   50.799">  2  5  1 -1</clus>
</clustering>
</event>
<event>
 9    1  0.7586638E-005  0.9583656E+02  0.7546771E-02  0.1292459E+00
         -2   -1    0    0    0  501 -0.00000000000E+00  0.00000000000E+00  0.79951590367E+02  0.79951590367E+02  0.00000000000E+00 0.  1.
         21   -1    0    0  501  502  0.00000000000E+00 -0.00000000000E+00 -0.16059732518E+03  0.16059732518E+03  0.00000000000E+00 0.  1.
        -24    2    1    2    0    0 -0.30854233477E+02 -0.10250387089E+02 -0.21122119950E+02  0.89227138373E+02  0.80363450101E+02 0.  0.
         23    2    1    2    0    0  0.56023922108E+02  0.10070158818E+02 -0.68999026661E+02  0.12442699819E+03  0.86493492531E+02 0.  0.
         13    1    3    3    0    0  0.25593373940E+02  0.86016436871E+01 -0.39562969027E+01  0.27288483815E+02  0.00000000000E+00 0. -1.
        -14    1    3    3    0    0 -0.56447607418E+02 -0.18852030776E+02 -0.17165823047E+02  0.61938654558E+02  0.00000000000E+00 0.  1.
        -13    1    4    4    0    0 -0.21770737489E+02  0.63697088884E+01 -0.29167886567E+02  0.36950017712E+02  0.00000000000E+00 0. -1.
         13    1    4    4    0    0  0.77794659597E+02  0.37004499298E+01 -0.39831140094E+02  0.87476980473E+02  0.00000000000E+00 0.  1.
         -1    1    1    2    0  502 -0.25169688631E+02  0.18022827045E+00  0.94754118000E+01  0.26894778987E+02  0.00000000000E+00 0.  1.
<scales pt_clust_5="13000.00000" pt_clust_6="13000.00000" pt_clust_7="13000.00000" pt_clust_8="13000.00000" pt_clust_9="25.17035"></scales>
<clustering>
<clus scale="   25.170">  2  9  1 -1</clus>
<clus scale="   80.363">  5  6 -1 -1</clus>
<clus scale="   86.493">  7  8 -1 -1</clus>
<clus scale="   90.343">  1  5  2 -1</clus>
<clus scale="   25.170">  2  5  1 -1</clus>
</clustering>
</event>
<event>
 9    1  0.7586638E-005  0.3558577E+03  0.7546771E-02  0.1111280E+00
         21   -1    0    0  501  502  0.00000000000E+00  0.00000000000E+00  0.47871101761E+03  0.47871101761E+03  0.00000000000E+00 0.  1.
          1   -1    0    0  502    0 -0.00000000000E+00 -0.00000000000E+00 -0.43079289318E+03  0.43079289318E+03  0.00000000000E+00 0. -1.
        -24    2    1    2    0    0 -0.27443022671E+02 -0.31544956454E+02 -0.13320670032E+03  0.16146467790E+03  0.81108651997E+02 0.  0.
         23    2    1    2    0    0 -0.32724404319E+03 -0.50822173290E+02  0.16987057685E+03  0.38374001954E+03  0.93428221736E+02 0.  0.
         13    1    3    3    0    0  0.63263752439E-01 -0.47659915544E+02 -0.11561627529E+03  0.12505436683E+03  0.00000000000E+00 0. -1.
        -14    1    3    3    0    0 -0.27506286424E+02  0.16114959091E+02 -0.17590425027E+02  0.36410311066E+02  0.00000000000E+00 0.  1.
        -13    1    4    4    0    0 -0.30498741038E+03 -0.66062686990E+02  0.13591511660E+03  0.34037408541E+03  0.00000000000E+00 0.  1.
         13    1    4    4    0    0 -0.22256632811E+02  0.15240513699E+02  0.33955460248E+02  0.43365934126E+02  0.00000000000E+00 0. -1.
          2    1    1    2  501    0  0.35468706586E+03  0.82367129744E+02  0.11254247899E+02  0.36429921335E+03  0.00000000000E+00 0. -1.
<scales pt_clust_5="13000.00000" pt_clust_6="13000.00000" pt_clust_7="13000.00000" pt_clust_8="13000.00000" pt_clust_9="343.37436"></scales>
<clustering>
<clus scale="   81.109">  5  6 -1 -1</clus>
<clus scale="   91.251">  2  5  1 -1</clus>
<clus scale="   93.428">  7  8 -1 -1</clus>
<clus scale="  343.374">  1  9  2 -1</clus>
<clus scale="  343.374">  1  5  2 -1</clus>
</clustering>
</event>
<event>
 9    1  0.7586638E-005  0.9257383E+02  0.7546771E-02  0.1303013E+00
         21   -1    0    0  501  502  0.00000000000E+00  0.00000000000E+00  0.46304623052E+02  0.46304623052E+02  0.00000000000E+00 0. -1.
         -2   -1    0    0    0  501 -0.00000000000E+00 -0.00000000000E+00 -0.45423934782E+03  0.45423934782E+03  0.00000000000E+00 0.  1.
        -24    2    1    2    0    0  0.21686897031E+02  0.19489349649E+02 -0.27452561184E+03  0.28734393325E+03  0.79699863025E+02 0.  0.
         23    2    1    2    0    0  0.35206143525E+02 -0.71898863815E+01 -0.44058328392E+02  0.10656206335E+03  0.90128630502E+02 0.  0.
         13    1    3    3    0    0 -0.23460401715E+02  0.24489706776E+02 -0.69321817822E+02  0.77172861893E+02  0.00000000000E+00 0. -1.
        -14    1    3    3    0    0  0.45147298746E+02 -0.50003571277E+01 -0.20520379402E+03  0.21017107135E+03  0.00000000000E+00 0.  1.
        -11    1    4    4    0    0  0.65486683268E+02 -0.63729086631E+01 -0.23126911883E+02  0.69742194570E+02  0.00000000000E+00 0. -1.
         11    1    4    4    0    0 -0.30280539743E+02 -0.81697771840E+00 -0.20931416509E+02  0.36819868777E+02  0.00000000000E+00 0.  1.
         -1    1    1    2    0  502 -0.56893040556E+02 -0.12299463267E+02 -0.89350784538E+02  0.10663797428E+03  0.00000000000E+00 0.  1.
<scales pt_clust_5="13000.00000" pt_clust_6="13000.00000" pt_clust_7="13000.00000" pt_clust_8="13000.00000" pt_clust_9="58.20737"></scales>
<clustering>
<clus scale="   58.207">  1  9  2 -1</clus>
<clus scale="   79.700">  5  6 -1 -1</clus>
<clus scale="   82.455">  2  5  1 -1</clus>
<clus scale="   90.129">  7  8 -1 -1</clus>
<clus scale="   58.207">  1  5  2 -1</clus>
</clustering>
</event>
<event>
 9    1  0.7586638E-005  0.1193359E+03  0.7546771E-02  0.1248532E+00
          1   -1    0    0  502    0 -0.00000000000E+00  0.00000000000E+00  0.79687138996E+03  0.79687138996E+03  0.00000000000E+00 0. -1.
         21   -1    0    0  501  502  0.00000000000E+00 -0.00000000000E+00 -0.65227614008E+02  0.65227614008E+02  0.00000000000E+00 0. -1.
        -24    2    1    2    0    0  0.66852425142E+02 -0.41159201342E+02  0.70679885774E+03  0.71550113793E+03  0.78828462340E+02 0.  0.
         23    2    1    2    0    0 -0.48959996052E+02  0.22658235319E+02  0.42987297395E+02  0.11510865065E+03  0.92149969490E+02 0.  0.
         11    1    3    3    0    0  0.37101367310E+02  0.16155244111E+02  0.16602858496E+03  0.17088883635E+03  0.00000000000E+00 0. -1.
        -12    1    3    3    0    0  0.29751057832E+02 -0.57314445453E+02  0.54077027279E+03  0.54461230158E+03  0.00000000000E+00 0.  1.
        -11    1    4    4    0    0 -0.34599036674E+02 -0.29463415930E+02 -0.93177141858E+00  0.45453871288E+02  0.00000000000E+00 0. -1.
         11    1    4    4    0    0 -0.14360959378E+02  0.52121651249E+02  0.43919068813E+02  0.69654779366E+02  0.00000000000E+00 0.  1.
          2    1    1    2  501    0 -0.17892429090E+02  0.18500966023E+02 -0.18142379188E+02  0.31489215378E+02  0.00000000000E+00 0. -1.
<scales pt_clust_5="13000.00000" pt_clust_6="13000.00000" pt_clust_7="13000.00000" pt_clust_8="13000.00000" pt_clust_9="25.73761"></scales>
<clustering>
<clus scale="   25.738">  2  9  1 -1</clus>
<clus scale="   78.828">  5  6 -1 -1</clus>
<clus scale="   92.150">  7  8 -1 -1</clus>
<clus scale="  109.377">  1  5  2 -1</clus>
<clus scale="   25.738">  2  5  1 -1</clus>
</clustering>
</event>
<event>
 9    1  0.7586638E-005  0.2349884E+03  0.7546771E-02  0.1137057E+00
         21   -1    0    0  501  502  0.00000000000E+00  0.00000000000E+00  0.65786531952E+02  0.65786531952E+02  0.00000000000E+00 0. -1.
         -2   -1    0    0    0  501 -0.00000000000E+00 -0.00000000000E+00 -0.19210665747E+04  0.19210665747E+04  0.00000000000E+00 0.  1.
         23    2    1    2    0    0 -0.14461005557E+01 -0.13716485883E+03 -0.33235415731E+03  0.37200567998E+03  0.95460202977E+02 0.  0.
        -24    2    1    2    0    0  0.17556801615E+03  0.17178855927E+03 -0.38855696486E+03  0.46667057179E+03  0.80433017076E+02 0.  0.
         11    1    4    4    0    0  0.13919796693E+03  0.16881699532E+03 -0.30380498020E+03  0.37439647154E+03  0.00000000000E+00 0. -1.
        -12    1    4    4    0    0  0.36370049226E+02  0.29715639575E+01 -0.84751984659E+02  0.92274100249E+02  0.00000000000E+00 0.  1.
        -11    1    3    3    0    0 -0.12895754644E+02 -0.59306484734E+02 -0.25326090590E+03  0.26043165337E+03  0.00000000000E+00 0.  1.
         11    1    3    3    0    0  0.11449654088E+02 -0.77858374097E+02 -0.79093251407E+02  0.11157402661E+03  0.00000000000E+00 0. -1.
         -1    1    1    2    0  502 -0.17412191560E+03 -0.34623700443E+02 -0.11343689206E+04  0.11481768549E+04  0.00000000000E+00 0.  1.
<scales pt_clust_5="13000.00000" pt_clust_6="13000.00000" pt_clust_7="13000.00000" pt_clust_8="13000.00000" pt_clust_9="220.79429"></scales>
<clustering>
<clus scale="   80.433">  5  6 -1 -1</clus>
<clus scale="   95.460">  7  8 -1 -1</clus>
<clus scale="  167.120">  2  7  1 -1</clus>
<clus scale="  220.794">  1  9  2 -1</clus>
<clus scale="  220.794">  1  5  2 -1</clus>
</clustering>
</event>
<event>
 9    1  0.7586638E-005  0.9181007E+02  0.7546771E-02  0.1299424E+00
          1   -1    0    0  502    0 -0.00000000000E+00  0.00000000000E+00  0.24943009167E+03  0.24943009167E+03  0.00000000000E+00 0. -1.
         21   -1    0    0  501  502  0.00000000000E+00 -0.00000000000E+00 -0.12118402292E+03  0.12118402292E+03  0.00000000000E+00 0. -1.
        -24    2    1    2    0    0 -0.27156397509E+02 -0.32577468932E+02  0.20522047575E+03  0.22464751657E+03  0.80946288526E+02 0.  0.
         23    2    1    2    0    0  0.28874553266E+02 -0.13689295807E+01 -0.67908018064E+02  0.11078834566E+03  0.82625327967E+02 0.  0.
         11    1    3    3    0    0 -0.41442993928E+02 -0.31054567729E+02  0.20372293653E+03  0.21020214745E+03  0.00000000000E+00 0. -1.
        -12    1    3    3    0    0  0.14286596419E+02 -0.15229012034E+01  0.14975392167E+01  0.14445369120E+02  0.00000000000E+00 0.  1.
        -13    1    4    4    0    0 -0.76846221224E+01 -0.22252891072E+02 -0.64365654291E+02  0.68535990768E+02  0.00000000000E+00 0.  1.
         13    1    4    4    0    0  0.36559175388E+02  0.20883961491E+02 -0.35423637729E+01  0.42252354890E+02  0.00000000000E+00 0. -1.
          2    1    1    2  501    0 -0.17181557569E+01  0.33946398513E+02 -0.90663889306E+01  0.35178252365E+02  0.00000000000E+00 0. -1.
<scales pt_clust_5="13000.00000" pt_clust_6="13000.00000" pt_clust_7="13000.00000" pt_clust_8="13000.00000" pt_clust_9="33.98985"></scales>
<clustering>
<clus scale="   33.990">  2  9  1 -1</clus>
<clus scale="   80.946">  5  6 -1 -1</clus>
<clus scale="   82.625">  7  8 -1 -1</clus>
<clus scale="   90.302">  1  5  2 -1</clus>
<clus scale="   33.990">  2  5  1 -1</clus>
</clustering>
</event>
<event>
 9    1  0.7586638E-005  0.1016245E+03  0.7546771E-02  0.1282391E+00
         -2   -1    0    0    0  501 -0.00000000000E+00  0.00000000000E+00  0.69112445230E+02  0.69112445230E+02  0.00000000000E+00 0.  1.
         21   -1    0    0  501  502  0.00000000000E+00 -0.00000000000E+00 -0.46268846064E+03  0.46268846064E+03  0.00000000000E+00 0. -1.
         23    2    1    2    0    0 -0.37564740380E+02  0.21412237319E+02  0.10942598088E+02  0.10244886947E+03  0.92230346281E+02 0.  0.
        -24    2    1    2    0    0  0.50693405260E+02  0.13900603284E+02 -0.20894005690E+03  0.23017791572E+03  0.81011588032E+02 0.  0.
         11    1    4    4    0    0  0.52541062792E+02  0.13709583389E+02 -0.21608103581E+03  0.22279930429E+03  0.00000000000E+00 0. -1.
        -12    1    4    4    0    0 -0.18476575321E+01  0.19101989519E+00  0.71409789007E+01  0.73786114288E+01  0.00000000000E+00 0.  1.
        -13    1    3    3    0    0  0.42655417418E+01 -0.25806389741E+02 -0.19285977897E+02  0.32497900567E+02  0.00000000000E+00 0. -1.
         13    1    3    3    0    0 -0.41830282121E+02  0.47218627060E+02  0.30228575985E+02  0.69950968898E+02  0.00000000000E+00 0.  1.
         -1    1    1    2    0  502 -0.13128664880E+02 -0.35312840603E+02 -0.19557855659E+03  0.19917412068E+03  0.00000000000E+00 0.  1.
<scales pt_clust_5="13000.00000" pt_clust_6="13000.00000" pt_clust_7="13000.00000" pt_clust_8="13000.00000" pt_clust_9="37.67438"></scales>
<clustering>
<clus scale="   37.674">  2  9  1 -1</clus>
<clus scale="   81.012">  5  6 -1 -1</clus>
<clus scale="   91.564">  2  5  1 -1</clus>
<clus scale="   92.230">  7  8 -1 -1</clus>
<clus scale="   37.674">  2  5  1 -1</clus>
</clustering>
</event>
<event>
 9    1  0.7586638E-005  0.1828142E+03  0.7546771E-02  0.1167168E+00
          1   -1    0    0  502    0 -0.00000000000E+00  0.00000000000E+00  0.17190936780E+03  0.17190936780E+03  0.00000000000E+00 0. -1.
         21   -1    0    0  501  502  0.00000000000E+00 -0.00000000000E+00 -0.53955246674E+03  0.53955246674E+03  0.00000000000E+00 0. -1.
        -24    2    1    2    0    0 -0.14684326685E+03  0.69816321472E+02  0.41595807194E+02  0.18287967808E+03  0.72646415716E+02 0.  0.
         23    2    1    2    0    0  0.17304680627E+03  0.57815209782E+02 -0.26075975530E+03  0.33104104306E+03  0.91130272490E+02 0.  0.
         13    1    3    3    0    0 -0.64900512521E+02  0.70509914669E+02  0.27784278659E+02  0.99778207704E+02  0.00000000000E+00 0. -1.
        -14    1    3    3    0    0 -0.81942754328E+02 -0.69359319660E+00  0.13811528535E+02  0.83101470378E+02  0.00000000000E+00 0.  1.
        -13    1    4    4    0    0  0.13391307313E+03  0.18875846289E+02 -0.23262563499E+03  0.26907934663E+03  0.00000000000E+00 0.  1.
         13    1    4    4    0    0  0.39133733136E+02  0.38939363493E+02 -0.28134120303E+02  0.61961696423E+02  0.00000000000E+00 0. -1.
          2    1    1    2  501    0 -0.26203539418E+02 -0.12763153125E+03 -0.14847915084E+03  0.19754111340E+03  0.00000000000E+00 0. -1.
<scales pt_clust_5="13000.00000" pt_clust_6="13000.00000" pt_clust_7="13000.00000" pt_clust_8="13000.00000" pt_clust_9="130.29364"></scales>
<clustering>
<clus scale="   72.646">  5  6 -1 -1</clus>
<clus scale="   91.130">  7  8 -1 -1</clus>
<clus scale="  130.294">  2  9  1 -1</clus>
<clus scale="  174.338">  1  5  2 -1</clus>
<clus scale="  130.294">  2  5  1 -1</clus>
</clustering>
</event>
<event>
 9    1  0.7586638E-005  0.1108044E+03  0.7546771E-02  0.1263766E+00
         21   -1    0    0  501  502  0.00000000000E+00  0.00000000000E+00  0.30868623281E+02  0.30868623281E+02  0.00000000000E+00 0. -1.
          1   -1    0    0  502    0 -0.00000000000E+00 -0.00000000000E+00 -0.68815455285E+03  0.68815455285E+03  0.00000000000E+00 0. -1.
         23    2    1    2    0    0  0.31027123528E+02  0.29416872947E+02 -0.17250599177E+03  0.20026851750E+03  0.92309951247E+02 0.  0.
        -24    2    1    2    0    0 -0.85746879520E+02 -0.36321318955E+01 -0.24952227771E+03  0.27584465225E+03  0.80393938646E+02 0.  0.
         13    1    4    4    0    0 -0.73502951276E+02 -0.18641456581E+01 -0.25261094262E+03  0.26309398932E+03  0.00000000000E+00 0. -1.
        -14    1    4    4    0    0 -0.12243928244E+02 -0.17679862375E+01  0.30886649099E+01  0.12750662928E+02  0.00000000000E+00 0.  1.
        -13    1    3    3    0    0 -0.11577082561E+02  0.38279269401E+02 -0.14095373364E+03  0.14651718784E+03  0.00000000000E+00 0.  1.
         13    1    3    3    0    0  0.42604206089E+02 -0.88623964537E+01 -0.31552258127E+02  0.53751329660E+02  0.00000000000E+00 0. -1.
          2    1    1    2  501    0  0.54719755992E+02 -0.25784741052E+02 -0.23525766009E+03  0.24291000638E+03  0.00000000000E+00 0. -1.
<scales pt_clust_5="13000.00000" pt_clust_6="13000.00000" pt_clust_7="13000.00000" pt_clust_8="13000.00000" pt_clust_9="60.49056"></scales>
<clustering>
<clus scale="   60.491">  1  9  2 -1</clus>
<clus scale="   80.394">  5  6 -1 -1</clus>
<clus scale="   92.310">  7  8 -1 -1</clus>
<clus scale="  101.092">  1  5  2 -1</clus>
<clus scale="   60.491">  1  5  2 -1</clus>
</clustering>
</event>
<event>
 9    1  0.7586638E-005  0.1036560E+03  0.7546771E-02  0.1277073E+00
          1   -1    0    0  502    0 -0.00000000000E+00  0.00000000000E+00  0.17679315040E+03  0.17679315040E+03  0.00000000000E+00 0. -1.
         21   -1    0    0  501  502  0.00000000000E+00 -0.00000000000E+00 -0.90786209572E+02  0.90786209572E+02  0.00000000000E+00 0. -1.
        -24    2    1    2    0    0 -0.29613165035E+02 -0.26053173944E+02  0.46142674621E+02  0.99822760856E+02  0.79244745869E+02 0.  0.
         23    2    1    2    0    0  0.69452068164E+02  0.39748962732E+02  0.20430714106E+02  0.12136289502E+03  0.88926758612E+02 0.  0.
         11    1    3    3    0    0 -0.35929170740E+02 -0.10425067563E+02 -0.11998008442E+02  0.39287905904E+02  0.00000000000E+00 0. -1.
        -12    1    3    3    0    0  0.63160057043E+01 -0.15628106381E+02  0.58140683063E+02  0.60534854952E+02  0.00000000000E+00 0.  1.
        -11    1    4    4    0    0  0.25705295821E+02 -0.25810838690E+02  0.21956131078E+02  0.42532732326E+02  0.00000000000E+00 0.  1.
         11    1    4    4    0    0  0.43746772342E+02  0.65559801422E+02 -0.15254169721E+01  0.78830162690E+02  0.00000000000E+00 0. -1.
          2    1    1    2  501    0 -0.39838903129E+02 -0.13695788788E+02  0.19433552103E+02  0.46393704103E+02  0.00000000000E+00 0. -1.
<scales pt_clust_5="13000.00000" pt_clust_6="13000.00000" pt_clust_7="13000.00000" pt_clust_8="13000.00000" pt_clust_9="42.12736"></scales>
<clustering>
<clus scale="   42.127">  2  9  1 -1</clus>
<clus scale="   79.245">  5  6 -1 -1</clus>
<clus scale="   88.927">  7  8 -1 -1</clus>
<clus scale="   95.480">  1  5  2 -1</clus>
<clus scale="   42.127">  2  5  1 -1</clus>
</clustering>
</event>
<event>
 9    1  0.7586638E-005  0.1162518E+03  0.7546771E-02  0.1268090E+00
         21   -1    0    0  501  502  0.00000000000E+00  0.00000000000E+00  0.20619889607E+03  0.20619889607E+03  0.00000000000E+00 0. -1.
          1   -1    0    0  502    0 -0.00000000000E+00 -0.00000000000E+00 -0.33500974763E+03  0.33500974763E+03  0.00000000000E+00 0. -1.
         23    2    1    2    0    0 -0.47783335945E+02  0.21860246735E+01 -0.24834865088E+03  0.26106008724E+03  0.64709279557E+02 0.  0.
        -24    2    1    2    0    0 -0.42103976665E+02 -0.20067515871E+02 -0.36286783130E+02  0.99370302264E+02  0.79889150065E+02 0.  0.
         11    1    4    4    0    0 -0.15605458787E+02 -0.47133758404E+02 -0.43767970691E+01  0.49842530813E+02  0.00000000000E+00 0. -1.
        -12    1    4    4    0    0 -0.26498517878E+02  0.27066242533E+02 -0.31909986060E+02  0.49527771452E+02  0.00000000000E+00 0.  1.
        -11    1    3    3    0    0 -0.27530127984E+02  0.33266083988E+02 -0.12454539258E+03  0.13181841716E+03  0.00000000000E+00 0. -1.
         11    1    3    3    0    0 -0.20253207960E+02 -0.31080059315E+02 -0.12380325830E+03  0.12924167008E+03  0.00000000000E+00 0.  1.
          2    1    1    2  501    0  0.89887312609E+02  0.17881491197E+02  0.15582458245E+03  0.18077825420E+03  0.00000000000E+00 0. -1.
<scales pt_clust_5="13000.00000" pt_clust_6="13000.00000" pt_clust_7="13000.00000" pt_clust_8="13000.00000" pt_clust_9="84.45243"></scales>
<clustering>
<clus scale="   64.709">  7  8 -1 -1</clus>
<clus scale="   79.889">  5  6 -1 -1</clus>
<clus scale="   80.469">  2  7  1 -1</clus>
<clus scale="   84.452">  1  9  2 -1</clus>
<clus scale="   84.452">  1  5  2 -1</clus>
</clustering>
</event>
<event>
 9    1  0.7586638E-005  0.1332696E+03  0.7546771E-02  0.1245999E+00
          3   -1    0    0  502    0 -0.00000000000E+00  0.00000000000E+00  0.16188282967E+03  0.16188282967E+03  0.00000000000E+00 0. -1.
         21   -1    0    0  501  502  0.00000000000E+00 -0.00000000000E+00 -0.21343375524E+03  0.21343375524E+03  0.00000000000E+00 0. -1.
        -24    2    1    2    0    0  0.28810937682E+02  0.78991062716E+01  0.32058757906E+02  0.88628901446E+02  0.77037991945E+02 0.  0.
         23    2    1    2    0    0 -0.22582066758E+02  0.95441219235E+02 -0.11798152569E+03  0.17760310506E+03  0.89466454345E+02 0.  0.
         13    1    3    3    0    0  0.50852748007E+02 -0.92785398801E+01  0.91538462556E+01  0.52496534966E+02  0.00000000000E+00 0. -1.
        -14    1    3    3    0    0 -0.22041810325E+02  0.17177646152E+02  0.22904911651E+02  0.36132366480E+02  0.00000000000E+00 0.  1.
        -11    1    4    4    0    0 -0.30710643099E+02  0.21235501366E+02  0.76063154208E+00  0.37345263129E+02  0.00000000000E+00 0.  1.
         11    1    4    4    0    0  0.81285763408E+01  0.74205717869E+02 -0.11874215723E+03  0.14025784193E+03  0.00000000000E+00 0. -1.
          4    1    1    2  501    0 -0.62288709239E+01 -0.10334032551E+03  0.34371842218E+02  0.10908457841E+03  0.00000000000E+00 0. -1.
<scales pt_clust_5="13000.00000" pt_clust_6="13000.00000" pt_clust_7="13000.00000" pt_clust_8="13000.00000" pt_clust_9="98.77531"></scales>
<clustering>
<clus scale="   77.038">  5  6 -1 -1</clus>
<clus scale="   82.628">  1  5  2 -1</clus>
<clus scale="   89.466">  7  8 -1 -1</clus>
<clus scale="   98.775">  2  9  1 -1</clus>
<clus scale="   98.775">  2  5  1 -1</clus>
</clustering>
</event>
<event>
 9    1  0.7586638E-005  0.1229465E+03  0.7546771E-02  0.1241523E+00
         -2   -1    0    0    0  501 -0.00000000000E+00  0.00000000000E+00  0.42928067402E+03  0.42928067402E+03  0.00000000000E+00 0.  1.
         21   -1    0    0  501  502  0.00000000000E+00 -0.00000000000E+00 -0.58642064377E+02  0.58642064377E+02  0.00000000000E+00 0. -1.
        -24    2    1    2    0    0  0.73844315282E+02 -0.38322210830E+02  0.30158681540E+03  0.32299965485E+03  0.80328046575E+02 0.  0.
         23    2    1    2    0    0 -0.82357826473E+02  0.13527857356E+02  0.57148482563E+02  0.13613196225E+03  0.91105145735E+02 0.  0.
         11    1    3    3    0    0  0.56891915755E+02 -0.60473442360E+02  0.17958440385E+03  0.19784914812E+03  0.00000000000E+00 0. -1.
        -12    1    3    3    0    0  0.16952399526E+02  0.22151231530E+02  0.12200241156E+03  0.12515050673E+03  0.00000000000E+00 0.  1.
        -13    1    4    4    0    0 -0.60661249401E+02  0.51648981978E+02  0.38080798411E+02  0.88303746953E+02  0.00000000000E+00 0. -1.
         13    1    4    4    0    0 -0.21696577072E+02 -0.38121124622E+02  0.19067684152E+02  0.47828215292E+02  0.00000000000E+00 0.  1.
         -1    1    1    2    0  502  0.85135111915E+01  0.24794353474E+02  0.11903311679E+02  0.28791121304E+02  0.00000000000E+00 0.  1.
<scales pt_clust_5="13000.00000" pt_clust_6="13000.00000" pt_clust_7="13000.00000" pt_clust_8="13000.00000" pt_clust_9="26.21526"></scales>
<clustering>
<clus scale="   26.215">  2  9  1 -1</clus>
<clus scale="   80.328">  5  6 -1 -1</clus>
<clus scale="   91.105">  7  8 -1 -1</clus>
<clus scale="  115.188">  1  5  2 -1</clus>
<clus scale="   26.215">  2  5  1 -1</clus>
</clustering>
</event>
<event>
 9    1  0.7586638E-005  0.1011852E+03  0.7546771E-02  0.1286327E+00
          3   -1    0    0  502    0 -0.00000000000E+00  0.00000000000E+00  0.29159116022E+03  0.29159116022E+03  0.00000000000E+00 0. -1.
         21   -1    0    0  501  502  0.00000000000E+00 -0.00000000000E+00 -0.10304282953E+03  0.10304282953E+03  0.00000000000E+00 0. -1.
         23    2    1    2    0    0 -0.33636304175E+02  0.24425045903E+02  0.21318043707E+03  0.23812959613E+03  0.97631050260E+02 0.  0.
        -24    2    1    2    0    0 -0.21643396855E+02  0.16898399019E+01  0.11463854353E+02  0.85506147249E+02  0.81905977037E+02 0.  0.
         13    1    4    4    0    0  0.13275476701E+02  0.32907083116E+02 -0.50504372357E+01  0.35841614321E+02  0.00000000000E+00 0. -1.
        -14    1    4    4    0    0 -0.34918873556E+02 -0.31217243214E+02  0.16514291588E+02  0.49664532928E+02  0.00000000000E+00 0.  1.
        -11    1    3    3    0    0 -0.25497243173E+02  0.62037409856E+02  0.14688698689E+03  0.16147611758E+03  0.00000000000E+00 0. -1.
         11    1    3    3    0    0 -0.81390610013E+01 -0.37612363953E+02  0.66293450179E+02  0.76653478543E+02  0.00000000000E+00 0.  1.
          4    1    1    2  501    0  0.55279701029E+02 -0.26114885805E+02 -0.36095960736E+02  0.70998246372E+02  0.00000000000E+00 0. -1.
<scales pt_clust_5="13000.00000" pt_clust_6="13000.00000" pt_clust_7="13000.00000" pt_clust_8="13000.00000" pt_clust_9="61.13782"></scales>
<clustering>
<clus scale="   61.138">  2  9  1 -1</clus>
<clus scale="   81.906">  5  6 -1 -1</clus>
<clus scale="   86.112">  2  5  1 -1</clus>
<clus scale="   97.631">  7  8 -1 -1</clus>
<clus scale="   61.138">  2  5  1 -1</clus>
</clustering>
</event>
<event>
 9    1  0.7586638E-005  0.3556284E+03  0.7546771E-02  0.1102069E+00
          1   -1    0    0  502    0 -0.00000000000E+00  0.00000000000E+00  0.69746239174E+03  0.69746239174E+03  0.00000000000E+00 0. -1.
         21   -1    0    0  501  502  0.00000000000E+00 -0.00000000000E+00 -0.31286469335E+03  0.31286469335E+03  0.00000000000E+00 0. -1.
        -24    2    1    2    0    0  0.44790516729E+02 -0.69959182992E+02  0.25966198737E+03  0.28430096155E+03  0.80636290739E+02 0.  0.
         23    2    1    2    0    0 -0.16248308229E+03 -0.27414007798E+03  0.14509513500E+03  0.36179783829E+03  0.91057911277E+02 0.  0.
         11    1    3    3    0    0  0.19161096753E+01 -0.60035196461E+02  0.20768132136E+03  0.21619303304E+03  0.00000000000E+00 0. -1.
        -12    1    3    3    0    0  0.42874407054E+02 -0.99239865311E+01  0.51980666004E+02  0.68107928518E+02  0.00000000000E+00 0.  1.
        -11    1    4    4    0    0 -0.78387562752E+02 -0.54583049746E+02  0.53446086819E+02  0.10945502962E+03  0.00000000000E+00 0.  1.
         11    1    4    4    0    0 -0.84095519541E+02 -0.21955702824E+03  0.91649048177E+02  0.25234280867E+03  0.00000000000E+00 0. -1.
          2    1    1    2  501    0  0.11769256556E+03  0.34409926098E+03 -0.20159423968E+02  0.36422828524E+03  0.00000000000E+00 0. -1.
<scales pt_clust_5="13000.00000" pt_clust_6="13000.00000" pt_clust_7="13000.00000" pt_clust_8="13000.00000" pt_clust_9="343.77323"></scales>
<clustering>
<clus scale="   80.636">  5  6 -1 -1</clus>
<clus scale="   91.058">  7  8 -1 -1</clus>
<clus scale="  115.770">  1  5  2 -1</clus>
<clus scale="  343.773">  2  9  1 -1</clus>
<clus scale="  343.773">  2  5  1 -1</clus>
</clustering>
</event>
<event>
 9    1  0.7586638E-005  0.1152307E+03  0.7546771E-02  0.1255633E+00
          3   -1    0    0  502    0 -0.00000000000E+00  0.00000000000E+00  0.74765717540E+03  0.74765717540E+03  0.00000000000E+00 0. -1.
         21   -1    0    0  501  502  0.00000000000E+00 -0.00000000000E+00 -0.39906217383E+02  0.39906217383E+02  0.00000000000E+00 0. -1.
         23    2    1    2    0    0 -0.14512346476E+02  0.80389999948E+02  0.53888901322E+03  0.55291349527E+03  0.92945168723E+02 0.  0.
        -24    2    1    2    0    0  0.46568571931E+02 -0.22101141320E+02  0.11080804287E+03  0.14635806234E+03  0.80530538968E+02 0.  0.
         11    1    4    4    0    0  0.48269183831E+02 -0.35991389325E+02  0.11658786804E+03  0.13121747287E+03  0.00000000000E+00 0. -1.
        -12    1    4    4    0    0 -0.17006119003E+01  0.13890248004E+02 -0.57798251640E+01  0.15140589466E+02  0.00000000000E+00 0.  1.
        -11    1    3    3    0    0  0.21969302927E+02 -0.11468344609E+02  0.98539765306E+02  0.10160835864E+03  0.00000000000E+00 0.  1.
         11    1    3    3    0    0 -0.36481649403E+02  0.91858344557E+02  0.44034924792E+03  0.45130513663E+03  0.00000000000E+00 0. -1.
          4    1    1    2  501    0 -0.32056225455E+02 -0.58288858628E+02  0.58053901924E+02  0.88291835178E+02  0.00000000000E+00 0. -1.
<scales pt_clust_5="13000.00000" pt_clust_6="13000.00000" pt_clust_7="13000.00000" pt_clust_8="13000.00000" pt_clust_9="66.52212"></scales>
<clustering>
<clus scale="   66.522">  2  9  1 -1</clus>
<clus scale="   80.531">  5  6 -1 -1</clus>
<clus scale="   92.945">  7  8 -1 -1</clus>
<clus scale="  105.473">  2  5  1 -1</clus>
<clus scale="   66.522">  2  5  1 -1</clus>
</clustering>
</event>
<event>
 9    1  0.7586638E-005  0.1102447E+03  0.7546771E-02  0.1263305E+00
          1   -1    0    0  502    0 -0.00000000000E+00  0.00000000000E+00  0.91131800694E+02  0.91131800694E+02  0.00000000000E+00 0. -1.
         21   -1    0    0  501  502  0.00000000000E+00 -0.00000000000E+00 -0.27822945165E+03  0.27822945165E+03  0.00000000000E+00 0. -1.
         23    2    1    2    0    0 -0.60766238665E+02 -0.42718631477E+02 -0.74417949454E+01  0.11433452352E+03  0.86600148491E+02 0.  0.
        -24    2    1    2    0    0  0.74140135815E+02 -0.25617610039E+02 -0.98357305288E+02  0.14798394589E+03  0.77923469219E+02 0.  0.
         11    1    4    4    0    0  0.75221887388E+02 -0.47152777774E+02 -0.75262177846E+02  0.11638776657E+03  0.00000000000E+00 0. -1.
        -12    1    4    4    0    0 -0.10817515726E+01  0.21535167736E+02 -0.23095127442E+02  0.31596179317E+02  0.00000000000E+00 0.  1.
        -13    1    3    3    0    0 -0.29174442161E+02 -0.20830337754E+02 -0.47046130367E+02  0.59147184454E+02  0.00000000000E+00 0.  1.
         13    1    3    3    0    0 -0.31591796504E+02 -0.21888293723E+02  0.39604335422E+02  0.55187339061E+02  0.00000000000E+00 0. -1.
          2    1    1    2  501    0 -0.13373897150E+02  0.68336241516E+02 -0.81298550722E+02  0.10704278294E+03  0.00000000000E+00 0. -1.
<scales pt_clust_5="13000.00000" pt_clust_6="13000.00000" pt_clust_7="13000.00000" pt_clust_8="13000.00000" pt_clust_9="69.63263"></scales>
<clustering>
<clus scale="   69.633">  2  9  1 -1</clus>
<clus scale="   77.923">  5  6 -1 -1</clus>
<clus scale="   86.600">  7  8 -1 -1</clus>
<clus scale="  103.568">  2  5  1 -1</clus>
<clus scale="   69.633">  2  5  1 -1</clus>
</clustering>
</event>
<event>
 9    1  0.7586638E-005  0.1019634E+03  0.7546771E-02  0.1282990E+00
         -4   -1    0    0    0  501 -0.00000000000E+00  0.00000000000E+00  0.54621934209E+03  0.54621934209E+03  0.00000000000E+00 0.  1.
         21   -1    0    0  501  502  0.00000000000E+00 -0.00000000000E+00 -0.82374612218E+02  0.82374612218E+02  0.00000000000E+00 0.  1.
        -24    2    1    2    0    0 -0.20745611317E+02 -0.33704653189E+02  0.47854740943E+03  0.48696334730E+03  0.80989471526E+02 0.  0.
         23    2    1    2    0    0 -0.21217759007E+01  0.32216211632E+02  0.18266392421E+02  0.10147973449E+03  0.94456811266E+02 0.  0.
         11    1    3    3    0    0 -0.10055617052E+02 -0.39192490173E+02  0.95378999565E+02  0.10360656484E+03  0.00000000000E+00 0. -1.
        -12    1    3    3    0    0 -0.10689994265E+02  0.54878369837E+01  0.38316840987E+03  0.38335678245E+03  0.00000000000E+00 0.  1.
        -11    1    4    4    0    0  0.61046861571E+00  0.52517855522E+02  0.44050513508E+02  0.68548855285E+02  0.00000000000E+00 0. -1.
         11    1    4    4    0    0 -0.27322445165E+01 -0.20301643890E+02 -0.25784121087E+02  0.32930879202E+02  0.00000000000E+00 0.  1.
         -3    1    1    2    0  502  0.22867387218E+02  0.14884415577E+01 -0.32969071988E+02  0.40150872521E+02  0.00000000000E+00 0.  1.
<scales pt_clust_5="13000.00000" pt_clust_6="13000.00000" pt_clust_7="13000.00000" pt_clust_8="13000.00000" pt_clust_9="22.91578"></scales>
<clustering>
<clus scale="   22.916">  2  9  1 -1</clus>
<clus scale="   80.989">  5  6 -1 -1</clus>
<clus scale="   89.631">  1  5  2 -1</clus>
<clus scale="   94.457">  7  8 -1 -1</clus>
<clus scale="   22.916">  2  5  1 -1</clus>
</clustering>
</event>
<event>
 9    1  0.7586638E-005  0.1556054E+03  0.7546771E-02  0.1194332E+00
         21   -1    0    0  501  502  0.00000000000E+00  0.00000000000E+00  0.10664625113E+03  0.10664625113E+03  0.00000000000E+00 0.  1.
          1   -1    0    0  502    0 -0.00000000000E+00 -0.00000000000E+00 -0.10395805029E+04  0.10395805029E+04  0.00000000000E+00 0. -1.
        -24    2    1    2    0    0 -0.11120708485E+02  0.12600762890E+03 -0.70676835657E+03  0.72252030284E+03  0.80699971864E+02 0.  0.
         23    2    1    2    0    0 -0.11806736363E+03 -0.16817004575E+03 -0.13238026300E+03  0.25859142409E+03  0.84403340809E+02 0.  0.
         13    1    3    3    0    0  0.34327677302E+01  0.12810102891E+03 -0.53539893079E+03  0.55052127352E+03  0.00000000000E+00 0. -1.
        -14    1    3    3    0    0 -0.14553476215E+02 -0.20934000148E+01 -0.17136942578E+03  0.17199902932E+03  0.00000000000E+00 0.  1.
        -13    1    4    4    0    0 -0.12951051826E+03 -0.13725343659E+03 -0.10656482966E+03  0.21671996473E+03  0.00000000000E+00 0.  1.
         13    1    4    4    0    0  0.11443154629E+02 -0.30916609166E+02 -0.25815433340E+02  0.41871459358E+02  0.00000000000E+00 0. -1.
          2    1    1    2  501    0  0.12918807211E+03  0.42162416854E+02 -0.93785632228E+02  0.16511502713E+03  0.00000000000E+00 0. -1.
<scales pt_clust_5="13000.00000" pt_clust_6="13000.00000" pt_clust_7="13000.00000" pt_clust_8="13000.00000" pt_clust_9="135.89418"></scales>
<clustering>
<clus scale="   80.700">  5  6 -1 -1</clus>
<clus scale="   84.403">  7  8 -1 -1</clus>
<clus scale="  135.894">  1  9  2 -1</clus>
<clus scale="  153.628">  2  5  1 -1</clus>
<clus scale="  135.894">  1  5  2 -1</clus>
</clustering>
</event>
<event>
 9    1  0.7586638E-005  0.1338584E+03  0.7546771E-02  0.1224701E+00
          1   -1    0    0  502    0 -0.00000000000E+00  0.00000000000E+00  0.67803615557E+03  0.67803615557E+03  0.00000000000E+00 0. -1.
         21   -1    0    0  501  502  0.00000000000E+00 -0.00000000000E+00 -0.33852648934E+02  0.33852648934E+02  0.00000000000E+00 0.  1.
         23    2    1    2    0    0  0.11639211375E+02  0.98976891466E+02  0.42157870166E+03  0.44287375230E+03  0.92068792197E+02 0.  0.
        -24    2    1    2    0    0  0.10764139289E+02 -0.94108086415E+02  0.20654685421E+03  0.24102446153E+03  0.80367838395E+02 0.  0.
         13    1    4    4    0    0 -0.22773066472E+02 -0.16595315588E+02  0.10615809367E+03  0.10983422922E+03  0.00000000000E+00 0. -1.
        -14    1    4    4    0    0  0.33537205761E+02 -0.77512770827E+02  0.10038876054E+03  0.13119023231E+03  0.00000000000E+00 0.  1.
        -13    1    3    3    0    0 -0.39261846261E+02  0.29402324384E+02  0.17000587592E+03  0.17694063156E+03  0.00000000000E+00 0. -1.
         13    1    3    3    0    0  0.50901057636E+02  0.69574567082E+02  0.25157282574E+03  0.26593312074E+03  0.00000000000E+00 0.  1.
          2    1    1    2  501    0 -0.22403350664E+02 -0.48688050516E+01  0.16057950771E+02  0.27990590679E+02  0.00000000000E+00 0. -1.
<scales pt_clust_5="13000.00000" pt_clust_6="13000.00000" pt_clust_7="13000.00000" pt_clust_8="13000.00000" pt_clust_9="22.92630"></scales>
<clustering>
<clus scale="   22.926">  2  9  1 -1</clus>
<clus scale="   80.368">  5  6 -1 -1</clus>
<clus scale="   92.069">  7  8 -1 -1</clus>
<clus scale="  126.097">  2  5  1 -1</clus>
<clus scale="   22.926">  2  5  1 -1</clus>
</clustering>
</event>
<event>
 9    1  0.7586638E-005  0.1641227E+03  0.7546771E-02  0.1185474E+00
         21   -1    0    0  501  502  0.00000000000E+00  0.00000000000E+00  0.46335926819E+03  0.46335926819E+03  0.00000000000E+00 0.  1.
         -2   -1    0    0    0  501 -0.00000000000E+00 -0.00000000000E+00 -0.97256643248E+02  0.97256643248E+02  0.00000000000E+00 0.  1.
         23    2    1    2    0    0 -0.32040314405E+02  0.13942115449E+03  0.49985267220E+02  0.17643587306E+03  0.90367307678E+02 0.  0.
        -24    2    1    2    0    0 -0.21589163853E+02 -0.12664890208E+03  0.27905664885E+03  0.31775152408E+03  0.81162684720E+02 0.  0.
         13    1    4    4    0    0  0.88204428732E+01 -0.20100368310E+02  0.55330198338E+01  0.22637122766E+02  0.00000000000E+00 0. -1.
        -14    1    4    4    0    0 -0.30409606726E+02 -0.10654853377E+03  0.27352362902E+03  0.29511440131E+03  0.00000000000E+00 0.  1.
        -11    1    3    3    0    0  0.13733628598E+02  0.11156613864E+03  0.17466643670E+02  0.11375719532E+03  0.00000000000E+00 0.  1.
         11    1    3    3    0    0 -0.45773943003E+02  0.27855015852E+02  0.32518623550E+02  0.62678677744E+02  0.00000000000E+00 0. -1.
         -1    1    1    2    0  502  0.53629478258E+02 -0.12772252411E+02  0.37060708874E+02  0.66428514300E+02  0.00000000000E+00 0.  1.
<scales pt_clust_5="13000.00000" pt_clust_6="13000.00000" pt_clust_7="13000.00000" pt_clust_8="13000.00000" pt_clust_9="55.12943"></scales>
<clustering>
<clus scale="   55.129">  1  9  2 -1</clus>
<clus scale="   81.163">  5  6 -1 -1</clus>
<clus scale="   90.367">  7  8 -1 -1</clus>
<clus scale="  159.240">  1  5  2 -1</clus>
<clus scale="   55.129">  1  5  2 -1</clus>
</clustering>
</event>
<event>
 9    1  0.7586638E-005  0.9570623E+02  0.7546771E-02  0.1294685E+00
         21   -1    0    0  501  502  0.00000000000E+00  0.00000000000E+00  0.51559295415E+03  0.51559295415E+03  0.00000000000E+00 0. -1.
          1   -1    0    0  502    0 -0.00000000000E+00 -0.00000000000E+00 -0.53729565353E+02  0.53729565353E+02  0.00000000000E+00 0. -1.
        -24    2    1    2    0    0  0.37237668107E+02  0.24118543915E+01  0.30837408992E+02  0.96724012333E+02  0.83738448760E+02 0.  0.
         23    2    1    2    0    0  0.42293522973E+02  0.20565263898E+02  0.30106005486E+03  0.31850665156E+03  0.92723558436E+02 0.  0.
         13    1    3    3    0    0 -0.10956128529E+02  0.22798210555E+02 -0.13018878468E+02  0.28447958686E+02  0.00000000000E+00 0. -1.
        -14    1    3    3    0    0  0.48193796636E+02 -0.20386356164E+02  0.43856287460E+02  0.68276053647E+02  0.00000000000E+00 0.  1.
        -13    1    4    4    0    0 -0.16622348116E+02 -0.12764054873E+02  0.18509738202E+02  0.27961293997E+02  0.00000000000E+00 0.  1.
         13    1    4    4    0    0  0.58915871089E+02  0.33329318771E+02  0.28255031666E+03  0.29054535756E+03  0.00000000000E+00 0. -1.
          2    1    1    2  501    0 -0.79531191080E+02 -0.22977118289E+02  0.12996592494E+03  0.15409185561E+03  0.00000000000E+00 0. -1.
<scales pt_clust_5="13000.00000" pt_clust_6="13000.00000" pt_clust_7="13000.00000" pt_clust_8="13000.00000" pt_clust_9="82.78380"></scales>
<clustering>
<clus scale="   82.784">  1  9  2 -1</clus>
<clus scale="   83.738">  5  6 -1 -1</clus>
<clus scale="   87.030">  2  5  1 -1</clus>
<clus scale="   92.724">  7  8 -1 -1</clus>
<clus scale="   82.784">  1  5  2 -1</clus>
</clustering>
</event>
<event>
 9    1  0.7586638E-005  0.1264884E+03  0.7546771E-02  0.1235827E+00
         -2   -1    0    0    0  501 -0.00000000000E+00  0.00000000000E+00  0.40890003633E+03  0.40890003633E+03  0.00000000000E+00 0.  1.
         21   -1    0    0  501  502  0.00000000000E+00 -0.00000000000E+00 -0.93890580129E+02  0.93890580129E+02  0.00000000000E+00 0.  1.
        -24    2    1    2    0    0 -0.63766686601E+02 -0.39378552539E+02  0.12267317592E+03  0.16414932576E+03  0.79242869316E+02 0.  0.
         23    2    1    2    0    0  0.11291882048E+03 -0.15372408052E+02  0.21682779663E+03  0.26109495408E+03  0.90384239260E+02 0.  0.
         11    1    3    3    0    0 -0.59432490622E+02 -0.61723526350E+02  0.89364570263E+02  0.12380646617E+03  0.00000000000E+00 0. -1.
        -12    1    3    3    0    0 -0.43341959788E+01  0.22344973811E+02  0.33308605654E+02  0.40342859591E+02  0.00000000000E+00 0.  1.
        -13    1    4    4    0    0  0.24019413000E+02 -0.35410508666E+02  0.12329136379E+03  0.13050515970E+03  0.00000000000E+00 0. -1.
         13    1    4    4    0    0  0.88899407476E+02  0.20038100615E+02  0.93536432845E+02  0.13058979438E+03  0.00000000000E+00 0.  1.
         -1    1    1    2    0  502 -0.49152133875E+02  0.54750960591E+02 -0.24491516349E+02  0.77546336620E+02  0.00000000000E+00 0.  1.
<scales pt_clust_5="13000.00000" pt_clust_6="13000.00000" pt_clust_7="13000.00000" pt_clust_8="13000.00000" pt_clust_9="73.57717"></scales>
<clustering>
<clus scale="   73.577">  2  9  1 -1</clus>
<clus scale="   79.243">  5  6 -1 -1</clus>
<clus scale="   90.384">  7  8 -1 -1</clus>
<clus scale="  118.783">  1  5  2 -1</clus>
<clus scale="   73.577">  2  5  1 -1</clus>
</clustering>
</event>
<event>
 9    1  0.7586638E-005  0.9314886E+02  0.7546771E-02  0.1303459E+00
          1   -1    0    0  502    0 -0.00000000000E+00  0.00000000000E+00  0.76004656320E+02  0.76004656320E+02  0.00000000000E+00 0. -1.
         21   -1    0    0  501  502  0.00000000000E+00 -0.00000000000E+00 -0.29193446826E+03  0.29193446826E+03  0.00000000000E+00 0. -1.
        -24    2    1    2    0    0 -0.75346257189E+01 -0.94689052446E+01  0.83642126534E+01  0.80912035913E+02  0.79563601923E+02 0.  0.
         23    2    1    2    0    0  0.20833895107E+02 -0.22333042179E+02 -0.23206329923E+03  0.25169160997E+03  0.92533646419E+02 0.  0.
         11    1    3    3    0    0 -0.22294523230E+01 -0.43364110411E+02  0.15056104376E+02  0.45957619699E+02  0.00000000000E+00 0. -1.
        -12    1    3    3    0    0 -0.53051733958E+01  0.33895205166E+02 -0.66918917226E+01  0.34954416214E+02  0.00000000000E+00 0.  1.
        -11    1    4    4    0    0  0.25808949082E+02  0.21436736042E+02 -0.18174169359E+03  0.18481255015E+03  0.00000000000E+00 0. -1.
         11    1    4    4    0    0 -0.49750539752E+01 -0.43769778221E+02 -0.50321605646E+02  0.66879059819E+02  0.00000000000E+00 0.  1.
          2    1    1    2  501    0 -0.13299269388E+02  0.31801947424E+02  0.77692746409E+01  0.35335478696E+02  0.00000000000E+00 0. -1.
<scales pt_clust_5="13000.00000" pt_clust_6="13000.00000" pt_clust_7="13000.00000" pt_clust_8="13000.00000" pt_clust_9="34.47079"></scales>
<clustering>
<clus scale="   34.471">  2  9  1 -1</clus>
<clus scale="   79.564">  5  6 -1 -1</clus>
<clus scale="   80.278">  1  5  2 -1</clus>
<clus scale="   92.534">  7  8 -1 -1</clus>
<clus scale="   34.471">  2  5  1 -1</clus>
</clustering>
</event>
<event>
 9    1  0.7586638E-005  0.1060907E+03  0.7546771E-02  0.1268040E+00
          1   -1    0    0  502    0 -0.00000000000E+00  0.00000000000E+00  0.88710719772E+02  0.88710719772E+02  0.00000000000E+00 0. -1.
         21   -1    0    0  501  502  0.00000000000E+00 -0.00000000000E+00 -0.20354900313E+03  0.20354900313E+03  0.00000000000E+00 0.  1.
         23    2    1    2    0    0 -0.29064713150E+02 -0.41721377870E+02  0.14202442702E+02  0.10467214818E+03  0.90383174894E+02 0.  0.
        -24    2    1    2    0    0  0.28763907300E+02  0.63439094242E+02 -0.10266027305E+03  0.15341627112E+03  0.90252642851E+02 0.  0.
         13    1    4    4    0    0 -0.47824382834E+01 -0.19585095587E+02 -0.37827910520E+02  0.42864886555E+02  0.00000000000E+00 0. -1.
        -14    1    4    4    0    0  0.33546345584E+02  0.83024189829E+02 -0.64832362527E+02  0.11055138457E+03  0.00000000000E+00 0.  1.
        -13    1    3    3    0    0 -0.18278695029E+02  0.16372987798E+02 -0.23988799197E+02  0.34316874980E+02  0.00000000000E+00 0.  1.
         13    1    3    3    0    0 -0.10786018121E+02 -0.58094365668E+02  0.38191241899E+02  0.70355273200E+02  0.00000000000E+00 0. -1.
          2    1    1    2  501    0  0.30080585026E+00 -0.21717716372E+02 -0.26380453015E+02  0.34171303602E+02  0.00000000000E+00 0. -1.
<scales pt_clust_5="13000.00000" pt_clust_6="13000.00000" pt_clust_7="13000.00000" pt_clust_8="13000.00000" pt_clust_9="21.71980"></scales>
<clustering>
<clus scale="   21.720">  2  9  1 -1</clus>
<clus scale="   90.253">  5  6 -1 -1</clus>
<clus scale="   90.383">  7  8 -1 -1</clus>
<clus scale="  105.979">  2  5  1 -1</clus>
<clus scale="   21.720">  2  5  1 -1</clus>
</clustering>
</event>
<event>
 9    1  0.7586638E-005  0.1442578E+03  0.7546771E-02  0.1221328E+00
          1   -1    0    0  502    0 -0.00000000000E+00  0.00000000000E+00  0.88911461684E+02  0.88911461684E+02  0.00000000000E+00 0. -1.
         21   -1    0    0  501  502  0.00000000000E+00 -0.00000000000E+00 -0.73254601985E+03  0.73254601985E+03  0.00000000000E+00 0. -1.
         23    2    1    2    0    0 -0.54761051282E+02  0.50642469366E+01  0.15271488677E+02  0.10917274582E+03  0.93064766312E+02 0.  0.
        -24    2    1    2    0    0  0.65616618421E+02  0.10605303168E+03 -0.30933812073E+03  0.34532066675E+03  0.89462303834E+02 0.  0.
         13    1    4    4    0    0  0.26632515751E+02  0.11102944446E+03 -0.23072492299E+03  0.25743119181E+03  0.00000000000E+00 0. -1.
        -14    1    4    4    0    0  0.38984102670E+02 -0.49764127800E+01 -0.78613197745E+02  0.87889474938E+02  0.00000000000E+00 0.  1.
        -13    1    3    3    0    0  0.21472679621E+02  0.98972556274E+01 -0.13874828162E+02  0.27414275398E+02  0.00000000000E+00 0.  1.
         13    1    3    3    0    0 -0.76233730903E+02 -0.48330086908E+01  0.29146316839E+02  0.81758470421E+02  0.00000000000E+00 0. -1.
          2    1    1    2  501    0 -0.10855567139E+02 -0.11111727861E+03 -0.34956792611E+03  0.36696406896E+03  0.00000000000E+00 0. -1.
<scales pt_clust_5="13000.00000" pt_clust_6="13000.00000" pt_clust_7="13000.00000" pt_clust_8="13000.00000" pt_clust_9="113.16716"></scales>
<clustering>
<clus scale="   89.462">  5  6 -1 -1</clus>
<clus scale="   93.065">  7  8 -1 -1</clus>
<clus scale="  108.099">  1  7  2 -1</clus>
<clus scale="  113.167">  2  9  1 -1</clus>
<clus scale="  113.167">  2  5  1 -1</clus>
</clustering>
</event>
<event>
 9    1  0.7586638E-005  0.9324812E+02  0.7546771E-02  0.1303026E+00
         21   -1    0    0  501  502  0.00000000000E+00  0.00000000000E+00  0.10860579129E+03  0.10860579129E+03  0.00000000000E+00 0.  1.
          1   -1    0    0  502    0 -0.00000000000E+00 -0.00000000000E+00 -0.19925818632E+03  0.19925818632E+03  0.00000000000E+00 0. -1.
        -24    2    1    2    0    0 -0.54073613493E+01 -0.81321970679E+01 -0.11215604775E+03  0.13776763709E+03  0.79407623034E+02 0.  0.
         23    2    1    2    0    0  0.33249462184E+02 -0.13796214352E+01 -0.36894114442E+02  0.10470554239E+03  0.92166397544E+02 0.  0.
         13    1    3    3    0    0 -0.37794880835E+02  0.14471636874E+02 -0.58932859504E+02  0.71491000975E+02  0.00000000000E+00 0. -1.
        -14    1    3    3    0    0  0.32387519485E+02 -0.22603833942E+02 -0.53223188247E+02  0.66276636113E+02  0.00000000000E+00 0.  1.
        -13    1    4    4    0    0  0.45438912169E+02 -0.26537308218E+02  0.65683025475E+01  0.53028917252E+02  0.00000000000E+00 0.  1.
         13    1    4    4    0    0 -0.12189449985E+02  0.25157686783E+02 -0.43462416990E+02  0.51676625139E+02  0.00000000000E+00 0. -1.
          2    1    1    2  501    0 -0.27842100835E+02  0.95118185031E+01  0.58397767160E+02  0.65390798124E+02  0.00000000000E+00 0. -1.
<scales pt_clust_5="13000.00000" pt_clust_6="13000.00000" pt_clust_7="13000.00000" pt_clust_8="13000.00000" pt_clust_9="29.42205"></scales>
<clustering>
<clus scale="   29.422">  1  9  2 -1</clus>
<clus scale="   79.408">  5  6 -1 -1</clus>
<clus scale="   80.661">  2  5  1 -1</clus>
<clus scale="   92.166">  7  8 -1 -1</clus>
<clus scale="   29.422">  1  5  2 -1</clus>
</clustering>
</event>
<event>
 9    1  0.7586638E-005  0.1892315E+03  0.7546771E-02  0.1160833E+00
         21   -1    0    0  501  502  0.00000000000E+00  0.00000000000E+00  0.60717464971E+03  0.60717464971E+03  0.00000000000E+00 0. -1.
          3   -1    0    0  502    0 -0.00000000000E+00 -0.00000000000E+00 -0.25261236652E+03  0.25261236652E+03  0.00000000000E+00 0. -1.
         23    2    1    2    0    0  0.14984004965E+03 -0.16120765861E+02 -0.10206492180E+03  0.20247520479E+03  0.88696339954E+02 0.  0.
        -24    2    1    2    0    0 -0.23998728229E+03  0.15496865197E+03  0.21625574575E+03  0.36544934819E+03  0.71954845354E+02 0.  0.
         11    1    4    4    0    0 -0.26430971906E+02  0.30275868149E+02  0.55672268870E+01  0.40573618070E+02  0.00000000000E+00 0. -1.
        -12    1    4    4    0    0 -0.21355631039E+03  0.12469278382E+03  0.21068851886E+03  0.32487573012E+03  0.00000000000E+00 0.  1.
        -13    1    3    3    0    0  0.42600949456E+02 -0.17956659976E+01 -0.82021840758E+02  0.92442672355E+02  0.00000000000E+00 0. -1.
         13    1    3    3    0    0  0.10723910019E+03 -0.14325099864E+02 -0.20043081045E+02  0.11003253243E+03  0.00000000000E+00 0.  1.
          4    1    1    2  501    0  0.90147232647E+02 -0.13884788611E+03  0.24037145925E+03  0.29186246325E+03  0.00000000000E+00 0. -1.
<scales pt_clust_5="13000.00000" pt_clust_6="13000.00000" pt_clust_7="13000.00000" pt_clust_8="13000.00000" pt_clust_9="165.54534"></scales>
<clustering>
<clus scale="   71.955">  5  6 -1 -1</clus>
<clus scale="   88.696">  7  8 -1 -1</clus>
<clus scale="  165.545">  1  9  2 -1</clus>
<clus scale="  181.986">  1  5  2 -1</clus>
<clus scale="  165.545">  1  5  2 -1</clus>
</clustering>
</event>
<event>
 9    1  0.7586638E-005  0.2120979E+03  0.7546771E-02  0.1140561E+00
          1   -1    0    0  502    0 -0.00000000000E+00  0.00000000000E+00  0.10529395774E+04  0.10529395774E+04  0.00000000000E+00 0. -1.
         21   -1    0    0  501  502  0.00000000000E+00 -0.00000000000E+00 -0.53728820315E+02  0.53728820315E+02  0.00000000000E+00 0.  1.
         23    2    1    2    0    0 -0.19983881359E+03 -0.18508192619E+00  0.64979970397E+03  0.68556085968E+03  0.88422007270E+02 0.  0.
        -24    2    1    2    0    0  0.17938847723E+03 -0.26602589665E+02  0.27144011231E+03  0.33616483254E+03  0.80244230495E+02 0.  0.
         11    1    4    4    0    0  0.13094578254E+03 -0.34025373084E+02  0.24647063228E+03  0.28116240246E+03  0.00000000000E+00 0. -1.
        -12    1    4    4    0    0  0.48442694685E+02  0.74227834193E+01  0.24969480028E+02  0.55002430081E+02  0.00000000000E+00 0.  1.
        -11    1    3    3    0    0 -0.12903188816E+03 -0.40948011820E+02  0.44240006973E+03  0.46264866750E+03  0.00000000000E+00 0.  1.
         11    1    3    3    0    0 -0.70806925431E+02  0.40762929894E+02  0.20739963423E+03  0.22291219218E+03  0.00000000000E+00 0. -1.
          2    1    1    2  501    0  0.20450336365E+02  0.26787671591E+02  0.77970940766E+02  0.84942705459E+02  0.00000000000E+00 0. -1.
<scales pt_clust_5="13000.00000" pt_clust_6="13000.00000" pt_clust_7="13000.00000" pt_clust_8="13000.00000" pt_clust_9="33.70158"></scales>
<clustering>
<clus scale="   33.702">  2  9  1 -1</clus>
<clus scale="   80.244">  5  6 -1 -1</clus>
<clus scale="   88.422">  7  8 -1 -1</clus>
<clus scale="  208.821">  2  5  1 -1</clus>
<clus scale="   33.702">  2  5  1 -1</clus>
</clustering>
</event>
<event>
 9    1  0.7586638E-005  0.1539391E+03  0.7546771E-02  0.1197348E+00
          1   -1    0    0  502    0 -0.00000000000E+00  0.00000000000E+00  0.37307937907E+03  0.37307937907E+03  0.00000000000E+00 0. -1.
         21   -1    0    0  501  502  0.00000000000E+00 -0.00000000000E+00 -0.12099256706E+03  0.12099256706E+03  0.00000000000E+00 0. -1.
         23    2    1    2    0    0  0.10225025829E+03  0.10168622417E+03  0.23938129614E+03  0.28872715566E+03  0.72558679453E+02 0.  0.
        -24    2    1    2    0    0 -0.70394312720E+02 -0.45236119833E+02 -0.37107037992E+02  0.12359697050E+03  0.83051869623E+02 0.  0.
         11    1    4    4    0    0 -0.37371884534E+02 -0.48102718804E+01 -0.56499950579E+02  0.67912008398E+02  0.00000000000E+00 0. -1.
        -12    1    4    4    0    0 -0.33022428186E+02 -0.40425847953E+02  0.19392912587E+02  0.55684962105E+02  0.00000000000E+00 0.  1.
        -11    1    3    3    0    0  0.27321898935E+01  0.31862887304E+02  0.19442723990E+02  0.37426300447E+02  0.00000000000E+00 0.  1.
         11    1    3    3    0    0  0.99518068398E+02  0.69823336869E+02  0.21993857215E+03  0.25130085521E+03  0.00000000000E+00 0. -1.
          2    1    1    2  501    0 -0.31855945572E+02 -0.56450104340E+02  0.49812553855E+02  0.81747819970E+02  0.00000000000E+00 0. -1.
<scales pt_clust_5="13000.00000" pt_clust_6="13000.00000" pt_clust_7="13000.00000" pt_clust_8="13000.00000" pt_clust_9="64.81836"></scales>
<clustering>
<clus scale="   64.818">  2  9  1 -1</clus>
<clus scale="   72.559">  7  8 -1 -1</clus>
<clus scale="   83.052">  5  6 -1 -1</clus>
<clus scale="  148.541">  1  7  2 -1</clus>
<clus scale="   64.818">  2  5  1 -1</clus>
</clustering>
</event>
<event>
 9    1  0.7586638E-005  0.9790794E+02  0.7546771E-02  0.1289941E+00
         21   -1    0    0  501  502  0.00000000000E+00  0.00000000000E+00  0.23740238596E+03  0.23740238596E+03  0.00000000000E+00 0.  1.
          1   -1    0    0  502    0 -0.00000000000E+00 -0.00000000000E+00 -0.10032988908E+03  0.10032988908E+03  0.00000000000E+00 0. -1.
         23    2    1    2    0    0  0.34883417891E+02  0.18056576458E+02 -0.50382458122E+02  0.11237131136E+03  0.92444722585E+02 0.  0.
        -24    2    1    2    0    0 -0.63684274018E+01  0.11769267800E+02  0.12617341674E+03  0.15148192335E+03  0.82752459042E+02 0.  0.
         11    1    4    4    0    0  0.18167853297E+02 -0.27169154255E+02  0.27929137078E+02  0.42991517004E+02  0.00000000000E+00 0. -1.
        -12    1    4    4    0    0 -0.24536280698E+02  0.38938422055E+02  0.98244279660E+02  0.10849040634E+03  0.00000000000E+00 0.  1.
        -11    1    3    3    0    0  0.42053885931E+02 -0.28363502755E+02 -0.39150679686E+02  0.64076464714E+02  0.00000000000E+00 0. -1.
         11    1    3    3    0    0 -0.71704680401E+01  0.46420079212E+02 -0.11231778436E+02  0.48294846649E+02  0.00000000000E+00 0.  1.
          2    1    1    2  501    0 -0.28514990489E+02 -0.29825844258E+02  0.61281538265E+02  0.73879040332E+02  0.00000000000E+00 0. -1.
<scales pt_clust_5="13000.00000" pt_clust_6="13000.00000" pt_clust_7="13000.00000" pt_clust_8="13000.00000" pt_clust_9="41.26361"></scales>
<clustering>
<clus scale="   41.264">  1  9  2 -1</clus>
<clus scale="   82.752">  5  6 -1 -1</clus>
<clus scale="   88.814">  1  5  2 -1</clus>
<clus scale="   92.445">  7  8 -1 -1</clus>
<clus scale="   41.264">  1  5  2 -1</clus>
</clustering>
</event>
<event>
 9    1  0.7586638E-005  0.9179276E+02  0.7546771E-02  0.1300674E+00
         -2   -1    0    0    0  501 -0.00000000000E+00  0.00000000000E+00  0.14220566215E+03  0.14220566215E+03  0.00000000000E+00 0.  1.
         21   -1    0    0  501  502  0.00000000000E+00 -0.00000000000E+00 -0.10838830894E+03  0.10838830894E+03  0.00000000000E+00 0.  1.
        -24    2    1    2    0    0  0.39529329988E+02 -0.44806044616E+02  0.53575613512E+02  0.11279659403E+03  0.79262700554E+02 0.  0.
         23    2    1    2    0    0 -0.73199515218E+01  0.43946630141E+01 -0.36165827720E+01  0.83657949859E+02  0.83142517104E+02 0.  0.
         13    1    3    3    0    0 -0.19038807927E+02 -0.26374292679E+02  0.36863301846E+02  0.49162816687E+02  0.00000000000E+00 0. -1.
        -14    1    3    3    0    0  0.58568137915E+02 -0.18431751937E+02  0.16712311666E+02  0.63633777348E+02  0.00000000000E+00 0.  1.
        -11    1    4    4    0    0 -0.41313845489E+02 -0.19072682322E+01  0.15481710693E+02  0.44160557822E+02  0.00000000000E+00 0. -1.
         11    1    4    4    0    0  0.33993893967E+02  0.63019312464E+01 -0.19098293465E+02  0.39497392037E+02  0.00000000000E+00 0.  1.
         -1    1    1    2    0  502 -0.32209378467E+02  0.40411381602E+02 -0.16141677525E+02  0.54139427199E+02  0.00000000000E+00 0.  1.
<scales pt_clust_5="13000.00000" pt_clust_6="13000.00000" pt_clust_7="13000.00000" pt_clust_8="13000.00000" pt_clust_9="51.67711"></scales>
<clustering>
<clus scale="   51.677">  2  9  1 -1</clus>
<clus scale="   79.263">  5  6 -1 -1</clus>
<clus scale="   83.143">  7  8 -1 -1</clus>
<clus scale="   88.294">  1  5  2 -1</clus>
<clus scale="   51.677">  2  5  1 -1</clus>
</clustering>
</event>
<event>
 9    1  0.7586638E-005  0.1186526E+03  0.7546771E-02  0.1250126E+00
         21   -1    0    0  501  502  0.00000000000E+00  0.00000000000E+00  0.50132126797E+02  0.50132126797E+02  0.00000000000E+00 0. -1.
          1   -1    0    0  502    0 -0.00000000000E+00 -0.00000000000E+00 -0.62476436617E+03  0.62476436617E+03  0.00000000000E+00 0. -1.
         23    2    1    2    0    0 -0.60680658664E+02  0.63053139363E+02 -0.17513837360E+03  0.21699307428E+03  0.93566573408E+02 0.  0.
        -24    2    1    2    0    0  0.64136020590E+02 -0.62976784860E+01 -0.70826462256E+02  0.12435374622E+03  0.79337107035E+02 0.  0.
         11    1    4    4    0    0  0.58757904351E+02  0.29376647031E+02 -0.51164487944E+02  0.83266340986E+02  0.00000000000E+00 0. -1.
        -12    1    4    4    0    0  0.53781162387E+01 -0.35674325517E+02 -0.19661974312E+02  0.41087405238E+02  0.00000000000E+00 0.  1.
        -13    1    3    3    0    0 -0.30054338725E+02  0.39781806728E+02 -0.17121748440E+03  0.17832914060E+03  0.00000000000E+00 0. -1.
         13    1    3    3    0    0 -0.30626319939E+02  0.23271332635E+02 -0.39208892001E+01  0.38663933682E+02  0.00000000000E+00 0.  1.
          2    1    1    2  501    0 -0.34553619257E+01 -0.56755460877E+02 -0.32866740352E+03  0.33354967246E+03  0.00000000000E+00 0. -1.
<scales pt_clust_5="13000.00000" pt_clust_6="13000.00000" pt_clust_7="13000.00000" pt_clust_8="13000.00000" pt_clust_9="56.86058"></scales>
<clustering>
<clus scale="   56.861">  1  9  2 -1</clus>
<clus scale="   79.337">  5  6 -1 -1</clus>
<clus scale="   93.567">  7  8 -1 -1</clus>
<clus scale="  107.787">  1  5  2 -1</clus>
<clus scale="   56.861">  1  5  2 -1</clus>
</clustering>
</event>
<event>
 9    1  0.7586638E-005  0.1145315E+03  0.7546771E-02  0.1255698E+00
         21   -1    0    0  501  502  0.00000000000E+00  0.00000000000E+00  0.39824949605E+02  0.39824949605E+02  0.00000000000E+00 0. -1.
          3   -1    0    0  502    0 -0.00000000000E+00 -0.00000000000E+00 -0.90135419541E+03  0.90135419541E+03  0.00000000000E+00 0. -1.
        -24    2    1    2    0    0  0.11555866953E+02  0.63428053563E+02 -0.35502515072E+03  0.36984513301E+03  0.81153611930E+02 0.  0.
         23    2    1    2    0    0  0.53350868585E+02 -0.71928591303E+02 -0.48649402168E+03  0.50288296016E+03  0.90525140536E+02 0.  0.
         13    1    3    3    0    0  0.38121953983E+02  0.49601516300E+02 -0.14819821460E+03  0.16086113454E+03  0.00000000000E+00 0. -1.
        -14    1    3    3    0    0 -0.26566087030E+02  0.13826537264E+02 -0.20682693612E+03  0.20898399848E+03  0.00000000000E+00 0.  1.
        -11    1    4    4    0    0 -0.21190219801E+02 -0.34047490263E+02 -0.10654689688E+03  0.11384418406E+03  0.00000000000E+00 0.  1.
         11    1    4    4    0    0  0.74541088386E+02 -0.37881101040E+02 -0.37994712479E+03  0.38903877611E+03  0.00000000000E+00 0. -1.
          4    1    1    2  501    0 -0.64906735538E+02  0.85005377397E+01 -0.20010073408E+02  0.68451051839E+02  0.00000000000E+00 0. -1.
<scales pt_clust_5="13000.00000" pt_clust_6="13000.00000" pt_clust_7="13000.00000" pt_clust_8="13000.00000" pt_clust_9="65.46101"></scales>
<clustering>
<clus scale="   65.461">  1  9  2 -1</clus>
<clus scale="   81.154">  5  6 -1 -1</clus>
<clus scale="   90.525">  7  8 -1 -1</clus>
<clus scale="  107.278">  2  5  1 -1</clus>
<clus scale="   65.461">  1  5  2 -1</clus>
</clustering>
</event>
<event>
 9    1  0.7586638E-005  0.1037148E+03  0.7546771E-02  0.1279742E+00
         21   -1    0    0  501  502  0.00000000000E+00  0.00000000000E+00  0.86679731868E+02  0.86679731868E+02  0.00000000000E+00 0.  1.
         -2   -1    0    0    0  501 -0.00000000000E+00 -0.00000000000E+00 -0.32986459944E+03  0.32986459944E+03  0.00000000000E+00 0.  1.
        -24    2    1    2    0    0  0.47549565219E+02  0.21691017482E+02 -0.17940214568E+03  0.20302027615E+03  0.79376578777E+02 0.  0.
         23    2    1    2    0    0  0.97125999826E+00  0.10529729342E+02  0.33255695073E+02  0.10034763813E+03  0.94084476285E+02 0.  0.
         11    1    3    3    0    0  0.11562670018E+02 -0.17968835457E+02 -0.69891077947E+01  0.22481592768E+02  0.00000000000E+00 0. -1.
        -12    1    3    3    0    0  0.35986895201E+02  0.39659852939E+02 -0.17241303789E+03  0.18053868338E+03  0.00000000000E+00 0.  1.
        -13    1    4    4    0    0 -0.28178671550E+02 -0.32071449134E+02  0.10682946761E+02  0.44008416597E+02  0.00000000000E+00 0. -1.
         13    1    4    4    0    0  0.29149931549E+02  0.42601178475E+02  0.22572748312E+02  0.56339221535E+02  0.00000000000E+00 0.  1.
         -1    1    1    2    0  502 -0.48520825218E+02 -0.32220746823E+02 -0.97038416962E+02  0.11317641703E+03  0.00000000000E+00 0.  1.
<scales pt_clust_5="13000.00000" pt_clust_6="13000.00000" pt_clust_7="13000.00000" pt_clust_8="13000.00000" pt_clust_9="58.24475"></scales>
<clustering>
<clus scale="   58.245">  1  9  2 -1</clus>
<clus scale="   79.377">  5  6 -1 -1</clus>
<clus scale="   90.584">  2  5  1 -1</clus>
<clus scale="   94.084">  7  8 -1 -1</clus>
<clus scale="   58.245">  1  5  2 -1</clus>
</clustering>
</event>
<event>
 9    1  0.7586638E-005  0.1111925E+03  0.7546771E-02  0.1271412E+00
         21   -1    0    0  501  502  0.00000000000E+00  0.00000000000E+00  0.70106302908E+03  0.70106302908E+03  0.00000000000E+00 0. -1.
          1   -1    0    0  502    0 -0.00000000000E+00 -0.00000000000E+00 -0.12307698320E+03  0.12307698320E+03  0.00000000000E+00 0. -1.
         23    2    1    2    0    0  0.12237034355E+02  0.61599432453E+02 -0.82207600060E+02  0.13693967812E+03  0.89722632867E+02 0.  0.
        -24    2    1    2    0    0 -0.60529544975E+02 -0.88251525565E+02  0.30981081970E+03  0.33250239849E+03  0.55883301757E+02 0.  0.
         11    1    4    4    0    0 -0.65575382777E+02 -0.64377845883E+02  0.20132303164E+03  0.22130431748E+03  0.00000000000E+00 0. -1.
        -12    1    4    4    0    0  0.50458378017E+01 -0.23873679682E+02  0.10848778807E+03  0.11119808101E+03  0.00000000000E+00 0.  1.
        -11    1    3    3    0    0 -0.28716712148E+02  0.58326836654E+02 -0.66375070816E+02  0.92910276377E+02  0.00000000000E+00 0. -1.
         11    1    3    3    0    0  0.40953746503E+02  0.32725957998E+01 -0.15832529244E+02  0.44029401747E+02  0.00000000000E+00 0.  1.
          2    1    1    2  501    0  0.48292510620E+02  0.26652093112E+02  0.35038282624E+03  0.35469793567E+03  0.00000000000E+00 0. -1.
<scales pt_clust_5="13000.00000" pt_clust_6="13000.00000" pt_clust_7="13000.00000" pt_clust_8="13000.00000" pt_clust_9="55.15887"></scales>
<clustering>
<clus scale="   55.159">  1  9  2 -1</clus>
<clus scale="   55.883">  5  6 -1 -1</clus>
<clus scale="   86.236">  1  5  2 -1</clus>
<clus scale="   89.723">  7  8 -1 -1</clus>
<clus scale="   55.159">  1  5  2 -1</clus>
</clustering>
</event>
<event>
 9    1  0.7586638E-005  0.3173274E+03  0.7546771E-02  0.1077231E+00
         21   -1    0    0  501  502  0.00000000000E+00  0.00000000000E+00  0.23075191542E+03  0.23075191542E+03  0.00000000000E+00 0. -1.
          1   -1    0    0  502    0 -0.00000000000E+00 -0.00000000000E+00 -0.81459965789E+03  0.81459965789E+03  0.00000000000E+00 0. -1.
         23    2    1    2    0    0 -0.12692501240E+03 -0.28176239411E+03 -0.59990975368E+03  0.68099516835E+03  0.91447806147E+02 0.  0.
        -24    2    1    2    0    0  0.85994985152E+02  0.26877171781E+03  0.63605964436E+02  0.30029040548E+03  0.80593021691E+02 0.  0.
         11    1    4    4    0    0  0.24950613989E+02  0.19983577560E+03  0.44809328529E+02  0.20631225429E+03  0.00000000000E+00 0. -1.
        -12    1    4    4    0    0  0.61044371164E+02  0.68935942211E+02  0.18796635907E+02  0.93978151188E+02  0.00000000000E+00 0.  1.
        -11    1    3    3    0    0 -0.12322551310E+03 -0.17584518967E+03 -0.36904667668E+03  0.42696780601E+03  0.00000000000E+00 0. -1.
         11    1    3    3    0    0 -0.36994993050E+01 -0.10591720445E+03 -0.23086307700E+03  0.25402736234E+03  0.00000000000E+00 0.  1.
          2    1    1    2  501    0  0.40930027248E+02  0.12990676305E+02 -0.47543953227E+02  0.64065999484E+02  0.00000000000E+00 0. -1.
<scales pt_clust_5="13000.00000" pt_clust_6="13000.00000" pt_clust_7="13000.00000" pt_clust_8="13000.00000" pt_clust_9="42.94213"></scales>
<clustering>
<clus scale="   42.942">  1  9  2 -1</clus>
<clus scale="   80.593">  5  6 -1 -1</clus>
<clus scale="   91.448">  7  8 -1 -1</clus>
<clus scale="  314.371">  1  5  2 -1</clus>
<clus scale="   42.942">  1  5  2 -1</clus>
</clustering>
</event>
<event>
 9    1  0.7586638E-005  0.9335715E+02  0.7546771E-02  0.1299240E+00
         21   -1    0    0  501  502  0.00000000000E+00  0.00000000000E+00  0.43360158909E+02  0.43360158909E+02  0.00000000000E+00 0.  1.
          1   -1    0    0  502    0 -0.00000000000E+00 -0.00000000000E+00 -0.31672719452E+03  0.31672719452E+03  0.00000000000E+00 0. -1.
         23    2    1    2    0    0 -0.23832090037E+02 -0.18058174890E+02 -0.17698016169E+03  0.20055717084E+03  0.89482595779E+02 0.  0.
        -24    2    1    2    0    0 -0.91267697584E+01  0.33751910941E+02 -0.56764304261E+02  0.10565506944E+03  0.81965346595E+02 0.  0.
         13    1    4    4    0    0  0.13289883706E+02 -0.20401088836E+02 -0.41531348177E+00  0.24351548614E+02  0.00000000000E+00 0. -1.
        -14    1    4    4    0    0 -0.22416653464E+02  0.54152999777E+02 -0.56348990779E+02  0.81303520829E+02  0.00000000000E+00 0.  1.
        -13    1    3    3    0    0 -0.36214535959E+02  0.25302054914E+02 -0.55234156284E+02  0.70728343809E+02  0.00000000000E+00 0.  1.
         13    1    3    3    0    0  0.12382445922E+02 -0.43360229805E+02 -0.12174600540E+03  0.12982882703E+03  0.00000000000E+00 0. -1.
          2    1    1    2  501    0  0.32958859795E+02 -0.15693736050E+02 -0.39622569667E+02  0.53875113153E+02  0.00000000000E+00 0. -1.
<scales pt_clust_5="13000.00000" pt_clust_6="13000.00000" pt_clust_7="13000.00000" pt_clust_8="13000.00000" pt_clust_9="36.50452"></scales>
<clustering>
<clus scale="   36.505">  1  9  2 -1</clus>
<clus scale="   81.965">  5  6 -1 -1</clus>
<clus scale="   86.179">  1  5  2 -1</clus>
<clus scale="   89.483">  7  8 -1 -1</clus>
<clus scale="   36.505">  1  5  2 -1</clus>
</clustering>
</event>
<event>
 9    1  0.7586638E-005  0.1000267E+03  0.7546771E-02  0.1285800E+00
         21   -1    0    0  501  502  0.00000000000E+00  0.00000000000E+00  0.46789635605E+03  0.46789635605E+03  0.00000000000E+00 0. -1.
          1   -1    0    0  502    0 -0.00000000000E+00 -0.00000000000E+00 -0.62846502475E+02  0.62846502475E+02  0.00000000000E+00 0. -1.
         23    2    1    2    0    0 -0.91457719794E+01  0.18130770456E+02  0.20270516169E+03  0.22249891318E+03  0.89465154159E+02 0.  0.
        -24    2    1    2    0    0  0.19662738114E+02 -0.69731037886E+02  0.22649786237E+03  0.25030803402E+03  0.78126751648E+02 0.  0.
         11    1    4    4    0    0  0.49738371017E+02 -0.50112411260E+02  0.15316131333E+03  0.16865214856E+03  0.00000000000E+00 0. -1.
        -12    1    4    4    0    0 -0.30075632902E+02 -0.19618626626E+02  0.73336549042E+02  0.81655885462E+02  0.00000000000E+00 0.  1.
        -11    1    3    3    0    0  0.34373649104E+02 -0.13332321667E+02  0.65579256799E+02  0.75232555958E+02  0.00000000000E+00 0. -1.
         11    1    3    3    0    0 -0.43519421084E+02  0.31463092123E+02  0.13712590489E+03  0.14726635723E+03  0.00000000000E+00 0.  1.
          2    1    1    2  501    0 -0.10516966135E+02  0.51600267430E+02 -0.24153170489E+02  0.57935911318E+02  0.00000000000E+00 0. -1.
<scales pt_clust_5="13000.00000" pt_clust_6="13000.00000" pt_clust_7="13000.00000" pt_clust_8="13000.00000" pt_clust_9="52.66115"></scales>
<clustering>
<clus scale="   52.661">  1  9  2 -1</clus>
<clus scale="   78.127">  5  6 -1 -1</clus>
<clus scale="   89.465">  7  8 -1 -1</clus>
<clus scale="   90.028">  1  5  2 -1</clus>
<clus scale="   52.661">  1  5  2 -1</clus>
</clustering>
</event>
<event>
 9    1  0.7586638E-005  0.1026311E+03  0.7546771E-02  0.1279607E+00
          1   -1    0    0  502    0 -0.00000000000E+00  0.00000000000E+00  0.98567914979E+02  0.98567914979E+02  0.00000000000E+00 0. -1.
         21   -1    0    0  501  502  0.00000000000E+00 -0.00000000000E+00 -0.19902536729E+03  0.19902536729E+03  0.00000000000E+00 0.  1.
         23    2    1    2    0    0  0.14348383646E+01  0.47772921002E+02  0.44144840928E+02  0.11194935270E+03  0.91102029878E+02 0.  0.
        -24    2    1    2    0    0  0.19541440993E+02 -0.44888552358E+02 -0.11001420966E+03  0.14508952901E+03  0.80938217514E+02 0.  0.
         11    1    4    4    0    0 -0.26633861784E+02 -0.42646138279E+01 -0.12331587178E+02  0.29658347341E+02  0.00000000000E+00 0. -1.
        -12    1    4    4    0    0  0.46175302777E+02 -0.40623938530E+02 -0.97682622479E+02  0.11543118167E+03  0.00000000000E+00 0.  1.
        -11    1    3    3    0    0 -0.16873725328E+02  0.57451696950E+02  0.60828741054E+02  0.85355467471E+02  0.00000000000E+00 0. -1.
         11    1    3    3    0    0  0.18308563692E+02 -0.96787759477E+01 -0.16683900127E+02  0.26593885232E+02  0.00000000000E+00 0.  1.
          2    1    1    2  501    0 -0.20976279357E+02 -0.28843686443E+01 -0.34588083578E+02  0.40554400547E+02  0.00000000000E+00 0. -1.
<scales pt_clust_5="13000.00000" pt_clust_6="13000.00000" pt_clust_7="13000.00000" pt_clust_8="13000.00000" pt_clust_9="21.17366"></scales>
<clustering>
<clus scale="   21.174">  2  9  1 -1</clus>
<clus scale="   80.938">  5  6 -1 -1</clus>
<clus scale="   91.102">  7  8 -1 -1</clus>
<clus scale="   93.726">  2  5  1 -1</clus>
<clus scale="   21.174">  2  5  1 -1</clus>
</clustering>
</event>
<event>
 9    1  0.7586638E-005  0.3451365E+03  0.7546771E-02  0.1087515E+00
         21   -1    0    0  501  502  0.00000000000E+00  0.00000000000E+00  0.86905621906E+02  0.86905621906E+02  0.00000000000E+00 0. -1.
          1   -1    0    0  502    0 -0.00000000000E+00 -0.00000000000E+00 -0.22980793076E+04  0.22980793076E+04  0.00000000000E+00 0. -1.
         23    2    1    2    0    0  0.32738106059E+02 -0.15836729859E+03 -0.34243086321E+03  0.38942348008E+03  0.90773156300E+02 0.  0.
        -24    2    1    2    0    0 -0.22002762730E+03  0.34597130416E+03 -0.91759687773E+03  0.10081652595E+04  0.79403150803E+02 0.  0.
         13    1    4    4    0    0 -0.99114272479E+02  0.16920544536E+03 -0.53347482834E+03  0.56837444895E+03  0.00000000000E+00 0. -1.
        -14    1    4    4    0    0 -0.12091335482E+03  0.17676585881E+03 -0.38412204939E+03  0.43979081054E+03  0.00000000000E+00 0.  1.
        -11    1    3    3    0    0 -0.25264209630E+02 -0.39124280508E+02 -0.49982226312E+02  0.68317000524E+02  0.00000000000E+00 0. -1.
         11    1    3    3    0    0  0.58002315689E+02 -0.11924301808E+03 -0.29244863690E+03  0.32110647955E+03  0.00000000000E+00 0.  1.
          2    1    1    2  501    0  0.18728952124E+03 -0.18760400558E+03 -0.95114594471E+03  0.98739618989E+03  0.00000000000E+00 0. -1.
<scales pt_clust_5="13000.00000" pt_clust_6="13000.00000" pt_clust_7="13000.00000" pt_clust_8="13000.00000" pt_clust_9="335.87860"></scales>
<clustering>
<clus scale="   79.403">  5  6 -1 -1</clus>
<clus scale="   90.773">  7  8 -1 -1</clus>
<clus scale="  185.450">  2  7  1 -1</clus>
<clus scale="  335.879">  1  9  2 -1</clus>
<clus scale="  335.879">  1  5  2 -1</clus>
</clustering>
</event>
<event>
 9    1  0.7586638E-005  0.1055075E+03  0.7546771E-02  0.1275621E+00
         21   -1    0    0  501  502  0.00000000000E+00  0.00000000000E+00  0.19115285825E+03  0.19115285825E+03  0.00000000000E+00 0.  1.
          1   -1    0    0  502    0 -0.00000000000E+00 -0.00000000000E+00 -0.20747295785E+03  0.20747295785E+03  0.00000000000E+00 0. -1.
        -24    2    1    2    0    0  0.45418205164E+02  0.31606339685E+02 -0.83522983200E+02  0.12791234895E+03  0.79521734281E+02 0.  0.
         23    2    1    2    0    0  0.29678703684E+02 -0.38779763716E+02  0.13349972389E+03  0.17028301976E+03  0.93751986718E+02 0.  0.
         11    1    3    3    0    0  0.59356647195E+02  0.24552351529E+02 -0.27713285530E+02  0.69957528020E+02  0.00000000000E+00 0. -1.
        -12    1    3    3    0    0 -0.13938442031E+02  0.70539881563E+01 -0.55809697670E+02  0.57954820931E+02  0.00000000000E+00 0.  1.
        -11    1    4    4    0    0 -0.29016042574E+02 -0.18190472217E+02  0.84251790552E+02  0.90946073128E+02  0.00000000000E+00 0. -1.
         11    1    4    4    0    0  0.58694746258E+02 -0.20589291499E+02  0.49247933337E+02  0.79336946631E+02  0.00000000000E+00 0.  1.
          2    1    1    2  501    0 -0.75096908848E+02  0.71734240309E+01 -0.66296840288E+02  0.10043044739E+03  0.00000000000E+00 0. -1.
<scales pt_clust_5="13000.00000" pt_clust_6="13000.00000" pt_clust_7="13000.00000" pt_clust_8="13000.00000" pt_clust_9="75.43878"></scales>
<clustering>
<clus scale="   75.439">  1  9  2 -1</clus>
<clus scale="   79.522">  5  6 -1 -1</clus>
<clus scale="   93.092">  2  5  1 -1</clus>
<clus scale="   93.752">  7  8 -1 -1</clus>
<clus scale="   75.439">  1  5  2 -1</clus>
</clustering>
</event>
<event>
 9    1  0.7586638E-005  0.1394337E+03  0.7546771E-02  0.1235940E+00
         21   -1    0    0  501  502  0.00000000000E+00  0.00000000000E+00  0.40585215406E+03  0.40585215406E+03  0.00000000000E+00 0. -1.
         -4   -1    0    0    0  501 -0.00000000000E+00 -0.00000000000E+00 -0.11942185475E+03  0.11942185475E+03  0.00000000000E+00 0.  1.
        -24    2    1    2    0    0 -0.66520662723E+01  0.35683546497E+02  0.18229947409E+03  0.20263339336E+03  0.80682268023E+02 0.  0.
         23    2    1    2    0    0 -0.50460646129E+02 -0.11432986958E+03 -0.26406288437E+02  0.15989220811E+03  0.96180196828E+02 0.  0.
         11    1    3    3    0    0  0.80876651284E+00  0.35016659539E+02  0.18922045426E+03  0.19243492629E+03  0.00000000000E+00 0. -1.
        -12    1    3    3    0    0 -0.74608327851E+01  0.66688695862E+00 -0.69209801638E+01  0.10198467066E+02  0.00000000000E+00 0.  1.
        -11    1    4    4    0    0 -0.69211634884E+02 -0.42321467725E+02 -0.57899022791E+00  0.81127629470E+02  0.00000000000E+00 0.  1.
         11    1    4    4    0    0  0.18750988755E+02 -0.72008401851E+02 -0.25827298209E+02  0.78764578645E+02  0.00000000000E+00 0. -1.
         -3    1    1    2    0  502  0.57112712401E+02  0.78646323079E+02  0.13053711366E+03  0.16274840734E+03  0.00000000000E+00 0.  1.
<scales pt_clust_5="13000.00000" pt_clust_6="13000.00000" pt_clust_7="13000.00000" pt_clust_8="13000.00000" pt_clust_9="100.95110"></scales>
<clustering>
<clus scale="   80.682">  5  6 -1 -1</clus>
<clus scale="   88.471">  2  5  1 -1</clus>
<clus scale="   96.180">  7  8 -1 -1</clus>
<clus scale="  100.951">  1  9  2 -1</clus>
<clus scale="  100.951">  1  5  2 -1</clus>
</clustering>
</event>
<event>
 9    1  0.7586638E-005  0.1174841E+03  0.7546771E-02  0.1251383E+00
          3   -1    0    0  502    0 -0.00000000000E+00  0.00000000000E+00  0.56669319878E+02  0.56669319878E+02  0.00000000000E+00 0. -1.
         21   -1    0    0  501  502  0.00000000000E+00 -0.00000000000E+00 -0.41053818847E+03  0.41053818847E+03  0.00000000000E+00 0.  1.
         23    2    1    2    0    0  0.26778195872E+01  0.70310879939E+02 -0.52808662831E+02  0.12705965205E+03  0.91676658712E+02 0.  0.
        -24    2    1    2    0    0  0.15286268800E+02 -0.79194918540E+02 -0.15108036230E+03  0.18883497497E+03  0.79547889738E+02 0.  0.
         13    1    4    4    0    0  0.26919182228E+02 -0.36018396529E+01 -0.11134186851E+02  0.29352780747E+02  0.00000000000E+00 0. -1.
        -14    1    4    4    0    0 -0.11632913428E+02 -0.75593078888E+02 -0.13994617545E+03  0.15948219422E+03  0.00000000000E+00 0.  1.
        -13    1    3    3    0    0 -0.61625370807E+01 -0.20069968457E+02  0.18350521514E+01  0.21074817046E+02  0.00000000000E+00 0.  1.
         13    1    3    3    0    0  0.88403566679E+01  0.90380848396E+02 -0.54643714982E+02  0.10598483500E+03  0.00000000000E+00 0. -1.
          4    1    1    2  501    0 -0.17964088387E+02  0.88840386013E+01 -0.14997984346E+03  0.15131288134E+03  0.00000000000E+00 0. -1.
<scales pt_clust_5="13000.00000" pt_clust_6="13000.00000" pt_clust_7="13000.00000" pt_clust_8="13000.00000" pt_clust_9="20.04082"></scales>
<clustering>
<clus scale="   20.041">  2  9  1 -1</clus>
<clus scale="   79.548">  5  6 -1 -1</clus>
<clus scale="   91.677">  7  8 -1 -1</clus>
<clus scale="  108.286">  2  5  1 -1</clus>
<clus scale="   20.041">  2  5  1 -1</clus>
</clustering>
</event>
<event>
 9    1  0.7586638E-005  0.1325463E+03  0.7546771E-02  0.1245659E+00
         21   -1    0    0  501  502  0.00000000000E+00  0.00000000000E+00  0.22923954425E+02  0.22923954425E+02  0.00000000000E+00 0. -1.
          1   -1    0    0  502    0 -0.00000000000E+00 -0.00000000000E+00 -0.14679434865E+04  0.14679434865E+04  0.00000000000E+00 0. -1.
        -24    2    1    2    0    0 -0.14612189815E+02  0.22763194743E+02 -0.35109580326E+03  0.36113620178E+03  0.80121245895E+02 0.  0.
         23    2    1    2    0    0  0.72466514898E+01  0.90617350116E+02 -0.28131635847E+03  0.30921912013E+03  0.90628652273E+02 0.  0.
         11    1    3    3    0    0  0.86005632271E+01  0.42983997461E+02 -0.11552179551E+03  0.12355921238E+03  0.00000000000E+00 0. -1.
        -12    1    3    3    0    0 -0.23212753042E+02 -0.20220802718E+02 -0.23557400775E+03  0.23757698940E+03  0.00000000000E+00 0.  1.
        -11    1    4    4    0    0  0.31129084286E+02  0.35698751843E+01 -0.35478106660E+02  0.47333497119E+02  0.00000000000E+00 0.  1.
         11    1    4    4    0    0 -0.23882432796E+02  0.87047474932E+02 -0.24583825181E+03  0.26188562301E+03  0.00000000000E+00 0. -1.
          2    1    1    2  501    0  0.73655383253E+01 -0.11338054486E+03 -0.81260737036E+03  0.82051211903E+03  0.00000000000E+00 0. -1.
<scales pt_clust_5="13000.00000" pt_clust_6="13000.00000" pt_clust_7="13000.00000" pt_clust_8="13000.00000" pt_clust_9="96.72121"></scales>
<clustering>
<clus scale="   80.121">  5  6 -1 -1</clus>
<clus scale="   84.564">  2  5  1 -1</clus>
<clus scale="   90.629">  7  8 -1 -1</clus>
<clus scale="   96.721">  1  9  2 -1</clus>
<clus scale="   96.721">  1  5  2 -1</clus>
</clustering>
</event>
<event>
 9    1  0.7586638E-005  0.1425530E+03  0.7546771E-02  0.1211907E+00
         21   -1    0    0  501  502  0.00000000000E+00  0.00000000000E+00  0.22462173930E+03  0.22462173930E+03  0.00000000000E+00 0.  1.
          1   -1    0    0  502    0 -0.00000000000E+00 -0.00000000000E+00 -0.40888395656E+03  0.40888395656E+03  0.00000000000E+00 0. -1.
         23    2    1    2    0    0 -0.41630340378E+01 -0.12287478928E+03 -0.30953876911E+03  0.34515274330E+03  0.90557285361E+02 0.  0.
        -24    2    1    2    0    0 -0.64017957907E+02  0.67515721729E+02 -0.13525470428E+02  0.12409926034E+03  0.81000101555E+02 0.  0.
         11    1    4    4    0    0 -0.22056163704E+02  0.80341067392E+00 -0.35927569240E+02  0.42165270752E+02  0.00000000000E+00 0. -1.
        -12    1    4    4    0    0 -0.41961794202E+02  0.66712311055E+02  0.22402098812E+02  0.81933989590E+02  0.00000000000E+00 0.  1.
        -13    1    3    3    0    0  0.95403787473E+01 -0.29986355826E+02 -0.12900445682E+02  0.34009143787E+02  0.00000000000E+00 0.  1.
         13    1    3    3    0    0 -0.13703412785E+02 -0.92888433457E+02 -0.29663832342E+03  0.31114359951E+03  0.00000000000E+00 0. -1.
          2    1    1    2  501    0  0.68180991945E+02  0.55359067554E+02  0.13880202227E+03  0.16425369222E+03  0.00000000000E+00 0. -1.
<scales pt_clust_5="13000.00000" pt_clust_6="13000.00000" pt_clust_7="13000.00000" pt_clust_8="13000.00000" pt_clust_9="87.82525"></scales>
<clustering>
<clus scale="   81.000">  5  6 -1 -1</clus>
<clus scale="   87.825">  1  9  2 -1</clus>
<clus scale="   90.557">  7  8 -1 -1</clus>
<clus scale="  136.681">  1  5  2 -1</clus>
<clus scale="   87.825">  1  5  2 -1</clus>
</clustering>
</event>
<event>
 9    1  0.7586638E-005  0.9174642E+02  0.7546771E-02  0.1303954E+00
          1   -1    0    0  502    0 -0.00000000000E+00  0.00000000000E+00  0.45097778863E+02  0.45097778863E+02  0.00000000000E+00 0. -1.
         21   -1    0    0  501  502  0.00000000000E+00 -0.00000000000E+00 -0.40224111113E+03  0.40224111113E+03  0.00000000000E+00 0. -1.
         23    2    1    2    0    0 -0.47716516162E+01 -0.13367047361E+02 -0.26367725747E+02  0.95876987104E+02  0.91080695434E+02 0.  0.
        -24    2    1    2    0    0  0.17196282891E+02 -0.97642794400E+01 -0.18762090725E+03  0.20591913370E+03  0.82522914913E+02 0.  0.
         11    1    4    4    0    0  0.43628671773E+02 -0.74331296940E+01 -0.16567583303E+03  0.17148525904E+03  0.00000000000E+00 0. -1.
        -12    1    4    4    0    0 -0.26432388882E+02 -0.23311497460E+01 -0.21945074219E+02  0.34433874653E+02  0.00000000000E+00 0.  1.
        -13    1    3    3    0    0  0.29566153730E+02  0.25500005661E+02 -0.35115307812E+01  0.39201257423E+02  0.00000000000E+00 0.  1.
         13    1    3    3    0    0 -0.34337805347E+02 -0.38867053021E+02 -0.22856194966E+02  0.56675729681E+02  0.00000000000E+00 0. -1.
          2    1    1    2  501    0 -0.12424631275E+02  0.23131326801E+02 -0.14315469927E+03  0.14554276919E+03  0.00000000000E+00 0. -1.
<scales pt_clust_5="13000.00000" pt_clust_6="13000.00000" pt_clust_7="13000.00000" pt_clust_8="13000.00000" pt_clust_9="26.25699"></scales>
<clustering>
<clus scale="   26.257">  2  9  1 -1</clus>
<clus scale="   82.523">  5  6 -1 -1</clus>
<clus scale="   83.257">  2  5  1 -1</clus>
<clus scale="   91.081">  7  8 -1 -1</clus>
<clus scale="   26.257">  2  5  1 -1</clus>
</clustering>
</event>
<event>
 9    1  0.7586638E-005  0.1651647E+03  0.7546771E-02  0.1184130E+00
         21   -1    0    0  501  502  0.00000000000E+00  0.00000000000E+00  0.83685471268E+02  0.83685471268E+02  0.00000000000E+00 0. -1.
          1   -1    0    0  502    0 -0.00000000000E+00 -0.00000000000E+00 -0.54814521669E+03  0.54814521669E+03  0.00000000000E+00 0. -1.
         23    2    1    2    0    0  0.15074803463E+03 -0.27999739775E+01 -0.39154760424E+03  0.42871038727E+03  0.88035560837E+02 0.  0.
        -24    2    1    2    0    0 -0.11357277789E+03 -0.23778677694E+02 -0.69978796015E+02  0.15732697199E+03  0.79940870869E+02 0.  0.
         13    1    4    4    0    0 -0.50907715660E+02 -0.45448159044E+02 -0.58809026227E+02  0.90086803917E+02  0.00000000000E+00 0. -1.
        -14    1    4    4    0    0 -0.62665062228E+02  0.21669481350E+02 -0.11169769788E+02  0.67240168077E+02  0.00000000000E+00 0.  1.
        -13    1    3    3    0    0  0.10934213785E+03  0.33240570113E+02 -0.31012135986E+03  0.33050854218E+03  0.00000000000E+00 0. -1.
         13    1    3    3    0    0  0.41405896779E+02 -0.36040544091E+02 -0.81426244378E+02  0.98201845094E+02  0.00000000000E+00 0.  1.
          2    1    1    2  501    0 -0.37175256740E+02  0.26578651671E+02 -0.29333451634E+01  0.45793328687E+02  0.00000000000E+00 0. -1.
<scales pt_clust_5="13000.00000" pt_clust_6="13000.00000" pt_clust_7="13000.00000" pt_clust_8="13000.00000" pt_clust_9="45.69928"></scales>
<clustering>
<clus scale="   45.699">  1  9  2 -1</clus>
<clus scale="   79.941">  5  6 -1 -1</clus>
<clus scale="   88.036">  7  8 -1 -1</clus>
<clus scale="  160.996">  1  5  2 -1</clus>
<clus scale="   45.699">  1  5  2 -1</clus>
</clustering>
</event>
<event>
 9    1  0.7586638E-005  0.1665743E+03  0.7546771E-02  0.1183533E+00
         -4   -1    0    0    0  501 -0.00000000000E+00  0.00000000000E+00  0.41876052483E+03  0.41876052483E+03  0.00000000000E+00 0.  1.
         21   -1    0    0  501  502  0.00000000000E+00 -0.00000000000E+00 -0.93274681461E+02  0.93274681461E+02  0.00000000000E+00 0. -1.
        -24    2    1    2    0    0 -0.21798888555E+02  0.12626310470E+03  0.19997294598E+03  0.25772147119E+03  0.10006804902E+03 0.  0.
         23    2    1    2    0    0  0.55372362474E+02 -0.13497666613E+03  0.59906463515E+02  0.18010249290E+03  0.86967376941E+02 0.  0.
         11    1    3    3    0    0  0.25560108424E+02 -0.10805131453E+01  0.21494759992E+02  0.33414238857E+02  0.00000000000E+00 0. -1.
        -12    1    3    3    0    0 -0.47358996979E+02  0.12734361784E+03  0.17847818599E+03  0.22430723233E+03  0.00000000000E+00 0.  1.
        -13    1    4    4    0    0  0.83039110997E+01 -0.31983202310E+02  0.58111370749E+02  0.66849170376E+02  0.00000000000E+00 0.  1.
         13    1    4    4    0    0  0.47068451374E+02 -0.10299346382E+03  0.17950927658E+01  0.11325332253E+03  0.00000000000E+00 0. -1.
         -3    1    1    2    0  502 -0.33573473918E+02  0.87135614361E+01  0.65606433870E+02  0.74211242201E+02  0.00000000000E+00 0.  1.
<scales pt_clust_5="13000.00000" pt_clust_6="13000.00000" pt_clust_7="13000.00000" pt_clust_8="13000.00000" pt_clust_9="34.68581"></scales>
<clustering>
<clus scale="   34.686">  2  9  1 -1</clus>
<clus scale="   86.967">  7  8 -1 -1</clus>
<clus scale="  100.068">  5  6 -1 -1</clus>
<clus scale="  159.049">  2  7  1 -1</clus>
<clus scale="   34.686">  2  5  1 -1</clus>
</clustering>
</event>
<event>
 9    1  0.7586638E-005  0.1789368E+03  0.7546771E-02  0.1170294E+00
         21   -1    0    0  501  502  0.00000000000E+00  0.00000000000E+00  0.56593212843E+02  0.56593212843E+02  0.00000000000E+00 0. -1.
         -2   -1    0    0    0  501 -0.00000000000E+00 -0.00000000000E+00 -0.66344985607E+03  0.66344985607E+03  0.00000000000E+00 0.  1.
        -24    2    1    2    0    0  0.15325866280E+03  0.44640053296E+02 -0.27328063715E+03  0.32649639811E+03  0.80228668543E+02 0.  0.
         23    2    1    2    0    0 -0.13445403665E+03 -0.60362139182E+02 -0.23712927513E+03  0.29403400899E+03  0.92218379432E+02 0.  0.
         13    1    3    3    0    0  0.14967896909E+03  0.49044344277E+02 -0.27772959474E+03  0.31928493433E+03  0.00000000000E+00 0. -1.
        -14    1    3    3    0    0  0.35796937149E+01 -0.44042909814E+01  0.44489575973E+01  0.72114637795E+01  0.00000000000E+00 0.  1.
        -13    1    4    4    0    0 -0.51020817285E+02  0.21975655642E+02 -0.61453230990E+02  0.82840526534E+02  0.00000000000E+00 0. -1.
         13    1    4    4    0    0 -0.83433219364E+02 -0.82337794824E+02 -0.17567604414E+03  0.21119348246E+03  0.00000000000E+00 0.  1.
         -1    1    1    2    0  502 -0.18804626151E+02  0.15722085886E+02 -0.96446730958E+02  0.99512661816E+02  0.00000000000E+00 0.  1.
<scales pt_clust_5="13000.00000" pt_clust_6="13000.00000" pt_clust_7="13000.00000" pt_clust_8="13000.00000" pt_clust_9="24.51119"></scales>
<clustering>
<clus scale="   24.511">  1  9  2 -1</clus>
<clus scale="   80.229">  5  6 -1 -1</clus>
<clus scale="   92.218">  7  8 -1 -1</clus>
<clus scale="  173.063">  2  5  1 -1</clus>
<clus scale="   24.511">  1  5  2 -1</clus>
</clustering>
</event>
<event>
 9    1  0.7586638E-005  0.1080868E+03  0.7546771E-02  0.1268670E+00
         21   -1    0    0  501  502  0.00000000000E+00  0.00000000000E+00  0.19327084587E+03  0.19327084587E+03  0.00000000000E+00 0. -1.
          1   -1    0    0  502    0 -0.00000000000E+00 -0.00000000000E+00 -0.40976521422E+03  0.40976521422E+03  0.00000000000E+00 0. -1.
        -24    2    1    2    0    0 -0.13661112924E+02  0.51495207053E+02 -0.34612755525E+03  0.35976709066E+03  0.82399591418E+02 0.  0.
         23    2    1    2    0    0 -0.15240046858E+02 -0.98566385600E+02  0.12937052034E+03  0.18803273240E+03  0.93123496083E+02 0.  0.
         13    1    3    3    0    0 -0.15758140641E+02  0.61749273619E+02 -0.34296184246E+03  0.34883250590E+03  0.00000000000E+00 0. -1.
        -14    1    3    3    0    0  0.20970277168E+01 -0.10254066566E+02 -0.31657127825E+01  0.10934584757E+02  0.00000000000E+00 0.  1.
        -11    1    4    4    0    0  0.30126636045E+02 -0.43652503281E+02  0.18344494831E+02  0.56121971924E+02  0.00000000000E+00 0.  1.
         11    1    4    4    0    0 -0.45366682903E+02 -0.54913882320E+02  0.11102602551E+03  0.13191076048E+03  0.00000000000E+00 0. -1.
          2    1    1    2  501    0  0.28901159782E+02  0.47071178547E+02  0.26266655478E+00  0.55236237021E+02  0.00000000000E+00 0. -1.
<scales pt_clust_5="13000.00000" pt_clust_6="13000.00000" pt_clust_7="13000.00000" pt_clust_8="13000.00000" pt_clust_9="55.23561"></scales>
<clustering>
<clus scale="   55.236">  1  9  2 -1</clus>
<clus scale="   82.400">  5  6 -1 -1</clus>
<clus scale="   93.123">  7  8 -1 -1</clus>
<clus scale="   98.997">  2  5  1 -1</clus>
<clus scale="   55.236">  1  5  2 -1</clus>
</clustering>
</event>
<event>
 9    1  0.7586638E-005  0.1979904E+03  0.7546771E-02  0.1187759E+00
         -4   -1    0    0    0  501 -0.00000000000E+00  0.00000000000E+00  0.14813973884E+03  0.14813973884E+03  0.00000000000E+00 0.  1.
         21   -1    0    0  501  502  0.00000000000E+00 -0.00000000000E+00 -0.98269102317E+03  0.98269102317E+03  0.00000000000E+00 0. -1.
        -24    2    1    2    0    0  0.14481459141E+00  0.31834070272E+02  0.71374404102E+02  0.11192363518E+03  0.80119695140E+02 0.  0.
         23    2    1    2    0    0  0.16941491098E+03 -0.73238931637E+02 -0.18323331217E+03  0.27543612284E+03  0.90693207595E+02 0.  0.
         11    1    3    3    0    0  0.28000340447E+02  0.39126728448E+02  0.67466632487E+02  0.82865351283E+02  0.00000000000E+00 0. -1.
        -12    1    3    3    0    0 -0.27855525855E+02 -0.72926581756E+01  0.39077716150E+01  0.29058283895E+02  0.00000000000E+00 0.  1.
        -11    1    4    4    0    0  0.36452652714E+02 -0.27080774242E+02 -0.13179576264E+01  0.45430179790E+02  0.00000000000E+00 0.  1.
         11    1    4    4    0    0  0.13296225827E+03 -0.46158157396E+02 -0.18191535454E+03  0.23000594305E+03  0.00000000000E+00 0. -1.
         -3    1    1    2    0  502 -0.16955972557E+03  0.41404861365E+02 -0.72269237626E+03  0.74347100400E+03  0.00000000000E+00 0.  1.
<scales pt_clust_5="13000.00000" pt_clust_6="13000.00000" pt_clust_7="13000.00000" pt_clust_8="13000.00000" pt_clust_9="175.99697"></scales>
<clustering>
<clus scale="   80.120">  5  6 -1 -1</clus>
<clus scale="   86.212">  1  5  2 -1</clus>
<clus scale="   90.693">  7  8 -1 -1</clus>
<clus scale="  175.997">  2  9  1 -1</clus>
<clus scale="  175.997">  2  5  1 -1</clus>
</clustering>
</event>
<event>
 9    1  0.7586638E-005  0.1240521E+03  0.7546771E-02  0.1248891E+00
         21   -1    0    0  501  502  0.00000000000E+00  0.00000000000E+00  0.99625299496E+02  0.99625299496E+02  0.00000000000E+00 0.  1.
         -2   -1    0    0    0  501 -0.00000000000E+00 -0.00000000000E+00 -0.32205437201E+03  0.32205437201E+03  0.00000000000E+00 0.  1.
        -24    2    1    2    0    0 -0.23315609652E+02 -0.51153395542E+02  0.18835598434E+02  0.98491806304E+02  0.78648385946E+02 0.  0.
         23    2    1    2    0    0 -0.37538054398E+02 -0.37138405112E+02 -0.13302753272E+03  0.17082681840E+03  0.93258301297E+02 0.  0.
         13    1    3    3    0    0 -0.58327706862E-01 -0.35783274784E+02  0.46862007400E+02  0.58961800295E+02  0.00000000000E+00 0. -1.
        -14    1    3    3    0    0 -0.23257281945E+02 -0.15370120757E+02 -0.28026408967E+02  0.39530006009E+02  0.00000000000E+00 0.  1.
        -11    1    4    4    0    0 -0.26322457380E+02 -0.68587851488E+02 -0.85239704179E+02  0.11252987294E+03  0.00000000000E+00 0. -1.
         11    1    4    4    0    0 -0.11215597018E+02  0.31449446376E+02 -0.47787828541E+02  0.58296945465E+02  0.00000000000E+00 0.  1.
         -1    1    1    2    0  502  0.60853664049E+02  0.88291800653E+02 -0.10823713822E+03  0.15236104680E+03  0.00000000000E+00 0.  1.
<scales pt_clust_5="13000.00000" pt_clust_6="13000.00000" pt_clust_7="13000.00000" pt_clust_8="13000.00000" pt_clust_9="81.80350"></scales>
<clustering>
<clus scale="   78.648">  5  6 -1 -1</clus>
<clus scale="   93.258">  7  8 -1 -1</clus>
<clus scale="   96.674">  2  5  1 -1</clus>
<clus scale="   81.804">  1  9  2 -1</clus>
<clus scale="   81.804">  1  5  2 -1</clus>
</clustering>
</event>
<event>
 9    1  0.7586638E-005  0.9906662E+02  0.7546771E-02  0.1286258E+00
         21   -1    0    0  501  502  0.00000000000E+00  0.00000000000E+00  0.57224100936E+02  0.57224100936E+02  0.00000000000E+00 0. -1.
          1   -1    0    0  502    0 -0.00000000000E+00 -0.00000000000E+00 -0.29224302036E+03  0.29224302036E+03  0.00000000000E+00 0. -1.
         23    2    1    2    0    0  0.46058042521E+01  0.36653088499E+02 -0.16875435969E+03  0.19457191682E+03  0.89529517867E+02 0.  0.
        -24    2    1    2    0    0  0.24036290383E+02 -0.53379361092E+02 -0.68740963233E+02  0.12163456176E+03  0.81501822932E+02 0.  0.
         11    1    4    4    0    0  0.33543496302E+02 -0.49058747801E+02 -0.84150058720E+02  0.10302018862E+03  0.00000000000E+00 0. -1.
        -12    1    4    4    0    0 -0.95072059192E+01 -0.43206132914E+01  0.15409095487E+02  0.18614373139E+02  0.00000000000E+00 0.  1.
        -13    1    3    3    0    0  0.27348037869E+02 -0.19985626950E+02 -0.79809533611E+02  0.86700069868E+02  0.00000000000E+00 0.  1.
         13    1    3    3    0    0 -0.22742233617E+02  0.56638715450E+02 -0.88944826081E+02  0.10787184695E+03  0.00000000000E+00 0. -1.
          2    1    1    2  501    0 -0.28642094635E+02  0.16726272593E+02  0.24764035026E+01  0.33260642722E+02  0.00000000000E+00 0. -1.
<scales pt_clust_5="13000.00000" pt_clust_6="13000.00000" pt_clust_7="13000.00000" pt_clust_8="13000.00000" pt_clust_9="33.16832"></scales>
<clustering>
<clus scale="   33.168">  1  9  2 -1</clus>
<clus scale="   81.502">  5  6 -1 -1</clus>
<clus scale="   89.530">  7  8 -1 -1</clus>
<clus scale="   91.876">  1  5  2 -1</clus>
<clus scale="   33.168">  1  5  2 -1</clus>
</clustering>
</event>
<event>
 9    1  0.7586638E-005  0.1717864E+03  0.7546771E-02  0.1196114E+00
         21   -1    0    0  501  502  0.00000000000E+00  0.00000000000E+00  0.95607477559E+02  0.95607477559E+02  0.00000000000E+00 0.  1.
         -2   -1    0    0    0  501 -0.00000000000E+00 -0.00000000000E+00 -0.72188868636E+03  0.72188868636E+03  0.00000000000E+00 0.  1.
         23    2    1    2    0    0 -0.63212263177E+02  0.17542038340E+02 -0.15740503658E+03  0.19192278311E+03  0.88059615100E+02 0.  0.
        -24    2    1    2    0    0  0.17628239432E+03  0.73443596826E+02 -0.42702509251E+03  0.47452784715E+03  0.79729565599E+02 0.  0.
         11    1    4    4    0    0  0.51107423627E+02  0.61593030503E+02 -0.14200710710E+03  0.16300824711E+03  0.00000000000E+00 0. -1.
        -12    1    4    4    0    0  0.12517497069E+03  0.11850566323E+02 -0.28501798540E+03  0.31151960005E+03  0.00000000000E+00 0.  1.
        -13    1    3    3    0    0 -0.36505701717E+02 -0.34844471369E+02 -0.82251696154E+02  0.96499455765E+02  0.00000000000E+00 0. -1.
         13    1    3    3    0    0 -0.26706561460E+02  0.52386509710E+02 -0.75153340422E+02  0.95423327342E+02  0.00000000000E+00 0.  1.
         -1    1    1    2    0  502 -0.11307013115E+03 -0.90985635166E+02 -0.41851079716E+02  0.15104553366E+03  0.00000000000E+00 0.  1.
<scales pt_clust_5="13000.00000" pt_clust_6="13000.00000" pt_clust_7="13000.00000" pt_clust_8="13000.00000" pt_clust_9="152.16364"></scales>
<clustering>
<clus scale="   79.730">  5  6 -1 -1</clus>
<clus scale="   88.060">  7  8 -1 -1</clus>
<clus scale="  109.809">  2  7  1 -1</clus>
<clus scale="  152.164">  1  9  2 -1</clus>
<clus scale="  152.164">  1  5  2 -1</clus>
</clustering>
</event>
<event>
 9    1  0.7586638E-005  0.1080088E+03  0.7546771E-02  0.1271472E+00
         21   -1    0    0  501  502  0.00000000000E+00  0.00000000000E+00  0.39698473748E+02  0.39698473748E+02  0.00000000000E+00 0.  1.
          3   -1    0    0  502    0 -0.00000000000E+00 -0.00000000000E+00 -0.41927452055E+03  0.41927452055E+03  0.00000000000E+00 0. -1.
         23    2    1    2    0    0  0.51825896317E+02  0.18636760112E+02 -0.26099622998E+03  0.28310766406E+03  0.94856022637E+02 0.  0.
        -24    2    1    2    0    0 -0.48985720413E+02  0.15121455204E+01 -0.12407125176E+03  0.15478925719E+03  0.78512108862E+02 0.  0.
         11    1    4    4    0    0 -0.57330036499E+02 -0.24687310154E+02 -0.67789081077E+02  0.92149638528E+02  0.00000000000E+00 0. -1.
        -12    1    4    4    0    0  0.83443160864E+01  0.26199455674E+02 -0.56282170685E+02  0.62639618657E+02  0.00000000000E+00 0.  1.
        -11    1    3    3    0    0 -0.19745081526E+02  0.30278557651E+02 -0.69413938984E+02  0.78262086755E+02  0.00000000000E+00 0.  1.
         11    1    3    3    0    0  0.71570977844E+02 -0.11641797538E+02 -0.19158229100E+03  0.20484557731E+03  0.00000000000E+00 0. -1.
          4    1    1    2  501    0 -0.28401759046E+01 -0.20148905633E+02  0.54914349425E+01  0.21076073047E+02  0.00000000000E+00 0. -1.
<scales pt_clust_5="13000.00000" pt_clust_6="13000.00000" pt_clust_7="13000.00000" pt_clust_8="13000.00000" pt_clust_9="20.34810"></scales>
<clustering>
<clus scale="   20.348">  1  9  2 -1</clus>
<clus scale="   78.512">  5  6 -1 -1</clus>
<clus scale="   93.981">  1  5  2 -1</clus>
<clus scale="   94.856">  7  8 -1 -1</clus>
<clus scale="   20.348">  1  5  2 -1</clus>
</clustering>
</event>
<event>
 9    1  0.7586638E-005  0.1644054E+03  0.7546771E-02  0.1205612E+00
         21   -1    0    0  501  502  0.00000000000E+00  0.00000000000E+00  0.32724151545E+03  0.32724151545E+03  0.00000000000E+00 0.  1.
         -2   -1    0    0    0  501 -0.00000000000E+00 -0.00000000000E+00 -0.49135851280E+03  0.49135851280E+03  0.00000000000E+00 0.  1.
         23    2    1    2    0    0  0.36041299778E+02  0.25180715702E+02 -0.36625419708E+03  0.38017919288E+03  0.91983901258E+02 0.  0.
        -24    2    1    2    0    0 -0.63741466622E+02 -0.16060209195E+03 -0.40692617784E+01  0.19017226405E+03  0.79327956092E+02 0.  0.
         11    1    4    4    0    0 -0.35031848405E+01 -0.60901642466E+02  0.31128235117E+02  0.68485395382E+02  0.00000000000E+00 0. -1.
        -12    1    4    4    0    0 -0.60238281781E+02 -0.99700449482E+02 -0.35197496895E+02  0.12168686867E+03  0.00000000000E+00 0.  1.
        -13    1    3    3    0    0  0.64144535151E+02  0.12354858380E+01 -0.25556098099E+03  0.26349091601E+03  0.00000000000E+00 0.  1.
         13    1    3    3    0    0 -0.28103235373E+02  0.23945229864E+02 -0.11069321609E+03  0.11668827688E+03  0.00000000000E+00 0. -1.
         -1    1    1    2    0  502  0.27700166844E+02  0.13542137625E+03  0.20620646151E+03  0.24824857131E+03  0.00000000000E+00 0.  1.
<scales pt_clust_5="13000.00000" pt_clust_6="13000.00000" pt_clust_7="13000.00000" pt_clust_8="13000.00000" pt_clust_9="144.00073"></scales>
<clustering>
<clus scale="   79.328">  5  6 -1 -1</clus>
<clus scale="   91.984">  7  8 -1 -1</clus>
<clus scale="  101.951">  2  7  1 -1</clus>
<clus scale="  144.001">  1  9  2 -1</clus>
<clus scale="  144.001">  1  5  2 -1</clus>
</clustering>
</event>
<event>
 9    1  0.7586638E-005  0.2114043E+03  0.7546771E-02  0.1141425E+00
         21   -1    0    0  501  502  0.00000000000E+00  0.00000000000E+00  0.44543638911E+03  0.44543638911E+03  0.00000000000E+00 0. -1.
          1   -1    0    0  502    0 -0.00000000000E+00 -0.00000000000E+00 -0.98278974614E+03  0.98278974614E+03  0.00000000000E+00 0. -1.
         23    2    1    2    0    0 -0.21666585832E+02 -0.20153195740E+03 -0.89145381783E+03  0.91879481522E+03  0.91702957176E+02 0.  0.
        -24    2    1    2    0    0  0.11353382767E+03  0.79746390045E+02  0.47506819781E+02  0.16698281988E+03  0.79855791646E+02 0.  0.
         13    1    4    4    0    0  0.88121178153E+02  0.19946540843E+02  0.74612124435E+01  0.90658017967E+02  0.00000000000E+00 0. -1.
        -14    1    4    4    0    0  0.25412649513E+02  0.59799849202E+02  0.40045607337E+02  0.76324801911E+02  0.00000000000E+00 0.  1.
        -11    1    3    3    0    0  0.26718650722E+02 -0.14707358762E+03 -0.58367343417E+03  0.60251075030E+03  0.00000000000E+00 0.  1.
         11    1    3    3    0    0 -0.48385236553E+02 -0.54458369776E+02 -0.30778038366E+03  0.31628406492E+03  0.00000000000E+00 0. -1.
          2    1    1    2  501    0 -0.91867241834E+02  0.12178556735E+03  0.30659364102E+03  0.34244850015E+03  0.00000000000E+00 0. -1.
<scales pt_clust_5="13000.00000" pt_clust_6="13000.00000" pt_clust_7="13000.00000" pt_clust_8="13000.00000" pt_clust_9="152.54938"></scales>
<clustering>
<clus scale="   79.856">  5  6 -1 -1</clus>
<clus scale="   91.703">  7  8 -1 -1</clus>
<clus scale="  152.549">  1  9  2 -1</clus>
<clus scale="  206.541">  1  5  2 -1</clus>
<clus scale="  152.549">  1  5  2 -1</clus>
</clustering>
</event>
<event>
 9    1  0.7586638E-005  0.1879505E+03  0.7546771E-02  0.1178565E+00
         21   -1    0    0  501  502  0.00000000000E+00  0.00000000000E+00  0.16579870077E+03  0.16579870077E+03  0.00000000000E+00 0.  1.
          1   -1    0    0  502    0 -0.00000000000E+00 -0.00000000000E+00 -0.94320908656E+03  0.94320908656E+03  0.00000000000E+00 0. -1.
        -24    2    1    2    0    0 -0.31120626421E+02 -0.69692316641E+02 -0.66844080434E+03  0.67980419019E+03  0.97442884363E+02 0.  0.
         23    2    1    2    0    0 -0.15079695906E+03 -0.27229283691E+02  0.31727836393E+02  0.17963683672E+03  0.88213268574E+02 0.  0.
         13    1    3    3    0    0 -0.60127310700E+02 -0.72635189719E+02 -0.48861142515E+03  0.49762665630E+03  0.00000000000E+00 0. -1.
        -14    1    3    3    0    0  0.29006684279E+02  0.29428730777E+01 -0.17982937919E+03  0.18217753389E+03  0.00000000000E+00 0.  1.
        -11    1    4    4    0    0 -0.82176346352E+02 -0.50017158609E+02  0.44863331579E+02  0.10614794664E+03  0.00000000000E+00 0.  1.
         11    1    4    4    0    0 -0.68620612706E+02  0.22787874918E+02 -0.13135495186E+02  0.73488890080E+02  0.00000000000E+00 0. -1.
          2    1    1    2  501    0  0.18191758548E+03  0.96921600332E+02 -0.14069741784E+03  0.24956676042E+03  0.00000000000E+00 0. -1.
<scales pt_clust_5="13000.00000" pt_clust_6="13000.00000" pt_clust_7="13000.00000" pt_clust_8="13000.00000" pt_clust_9="165.96341"></scales>
<clustering>
<clus scale="   88.213">  7  8 -1 -1</clus>
<clus scale="   97.443">  5  6 -1 -1</clus>
<clus scale="  123.777">  2  5  1 -1</clus>
<clus scale="  165.963">  1  9  2 -1</clus>
<clus scale="  165.963">  1  5  2 -1</clus>
</clustering>
</event>
<event>
 9    1  0.7586638E-005  0.1756369E+03  0.7546771E-02  0.1184876E+00
          1   -1    0    0  502    0 -0.00000000000E+00  0.00000000000E+00  0.73310023999E+03  0.73310023999E+03  0.00000000000E+00 0. -1.
         21   -1    0    0  501  502  0.00000000000E+00 -0.00000000000E+00 -0.11054969059E+03  0.11054969059E+03  0.00000000000E+00 0. -1.
        -24    2    1    2    0    0  0.90606922357E+02 -0.50536027922E+02  0.10768302319E+03  0.17009735047E+03  0.81080026253E+02 0.  0.
         23    2    1    2    0    0 -0.21269838446E+03 -0.21663469072E+02  0.47117295379E+03  0.52513321431E+03  0.89727541740E+02 0.  0.
         13    1    3    3    0    0  0.66941751460E+02 -0.60702261507E+02  0.11207629216E+03  0.14396894771E+03  0.00000000000E+00 0. -1.
        -14    1    3    3    0    0  0.23665170897E+02  0.10166233585E+02 -0.43932689644E+01  0.26128402766E+02  0.00000000000E+00 0.  1.
        -11    1    4    4    0    0 -0.15209462012E+03  0.67292098032E+00  0.23214801615E+03  0.27753545304E+03  0.00000000000E+00 0. -1.
         11    1    4    4    0    0 -0.60603764336E+02 -0.22336390052E+02  0.23902493764E+03  0.24759776127E+03  0.00000000000E+00 0.  1.
          2    1    1    2  501    0  0.12209146210E+03  0.72199496995E+02  0.43694572421E+02  0.14841936579E+03  0.00000000000E+00 0. -1.
<scales pt_clust_5="13000.00000" pt_clust_6="13000.00000" pt_clust_7="13000.00000" pt_clust_8="13000.00000" pt_clust_9="150.98767"></scales>
<clustering>
<clus scale="   81.080">  5  6 -1 -1</clus>
<clus scale="   89.728">  7  8 -1 -1</clus>
<clus scale="  131.672">  1  5  2 -1</clus>
<clus scale="  150.988">  2  9  1 -1</clus>
<clus scale="  150.988">  2  5  1 -1</clus>
</clustering>
</event>
<event>
 9    1  0.7586638E-005  0.1079357E+03  0.7546771E-02  0.1269556E+00
          1   -1    0    0  502    0 -0.00000000000E+00  0.00000000000E+00  0.51513494437E+02  0.51513494437E+02  0.00000000000E+00 0. -1.
         21   -1    0    0  501  502  0.00000000000E+00 -0.00000000000E+00 -0.50485103518E+03  0.50485103518E+03  0.00000000000E+00 0. -1.
        -24    2    1    2    0    0 -0.28569352500E+02  0.41856540329E+02 -0.22442109570E+02  0.97717779844E+02  0.80479428086E+02 0.  0.
         23    2    1    2    0    0  0.37089436389E+02 -0.72799429398E+02 -0.31368305551E+03  0.33711981769E+03  0.92613870190E+02 0.  0.
         11    1    3    3    0    0  0.61260633537E+01  0.56027934758E+02 -0.56321929350E+01  0.56642561054E+02  0.00000000000E+00 0. -1.
        -12    1    3    3    0    0 -0.34695415854E+02 -0.14171394429E+02 -0.16809916635E+02  0.41075218790E+02  0.00000000000E+00 0.  1.
        -13    1    4    4    0    0 -0.11435473967E+02 -0.69550910052E+02 -0.13979857956E+03  0.15656226237E+03  0.00000000000E+00 0.  1.
         13    1    4    4    0    0  0.48524910356E+02 -0.32485193459E+01 -0.17388447596E+03  0.18055755532E+03  0.00000000000E+00 0. -1.
          2    1    1    2  501    0 -0.85200838882E+01  0.30942889069E+02 -0.11721237566E+03  0.12152693208E+03  0.00000000000E+00 0. -1.
<scales pt_clust_5="13000.00000" pt_clust_6="13000.00000" pt_clust_7="13000.00000" pt_clust_8="13000.00000" pt_clust_9="32.09446"></scales>
<clustering>
<clus scale="   32.094">  2  9  1 -1</clus>
<clus scale="   80.479">  5  6 -1 -1</clus>
<clus scale="   92.614">  7  8 -1 -1</clus>
<clus scale="   97.723">  1  5  2 -1</clus>
<clus scale="   32.094">  2  5  1 -1</clus>
</clustering>
</event>
<event>
 9    1  0.7586638E-005  0.1029055E+03  0.7546771E-02  0.1279062E+00
         21   -1    0    0  501  502  0.00000000000E+00  0.00000000000E+00  0.44937293154E+03  0.44937293154E+03  0.00000000000E+00 0. -1.
          1   -1    0    0  502    0 -0.00000000000E+00 -0.00000000000E+00 -0.99623024303E+02  0.99623024303E+02  0.00000000000E+00 0. -1.
        -24    2    1    2    0    0 -0.14821101109E+02 -0.35169119422E+02 -0.95928222133E+01  0.90563134923E+02  0.81566703807E+02 0.  0.
         23    2    1    2    0    0  0.79669853794E+02  0.94587637666E+02  0.33258068850E+03  0.36649736601E+03  0.91740384377E+02 0.  0.
         13    1    3    3    0    0 -0.93092023154E+01  0.25906364043E+02 -0.98545007670E+01  0.29238880468E+02  0.00000000000E+00 0. -1.
        -14    1    3    3    0    0 -0.55118987934E+01 -0.61075483465E+02  0.26167855373E+00  0.61324254454E+02  0.00000000000E+00 0.  1.
        -11    1    4    4    0    0  0.69039564177E+02  0.20022824494E+02  0.21650375775E+03  0.22812551818E+03  0.00000000000E+00 0. -1.
         11    1    4    4    0    0  0.10630289617E+02  0.74564813172E+02  0.11607693074E+03  0.13837184783E+03  0.00000000000E+00 0.  1.
          2    1    1    2  501    0 -0.64848752685E+02 -0.59418518244E+02  0.26762040959E+02  0.91935454920E+02  0.00000000000E+00 0. -1.
<scales pt_clust_5="13000.00000" pt_clust_6="13000.00000" pt_clust_7="13000.00000" pt_clust_8="13000.00000" pt_clust_9="87.95413"></scales>
<clustering>
<clus scale="   81.567">  5  6 -1 -1</clus>
<clus scale="   87.954">  1  9  2 -1</clus>
<clus scale="   91.740">  7  8 -1 -1</clus>
<clus scale="   93.949">  2  5  1 -1</clus>
<clus scale="   87.954">  1  5  2 -1</clus>
</clustering>
</event>
<event>
 9    1  0.1529482E-004  0.1076813E+03  0.7546771E-02  0.1271548E+00
         21   -1    0    0  501  502  0.00000000000E+00  0.00000000000E+00  0.32769902888E+03  0.32769902888E+03  0.00000000000E+00 0. -1.
         -2   -1    0    0    0  501 -0.00000000000E+00 -0.00000000000E+00 -0.30925070017E+03  0.30925070017E+03  0.00000000000E+00 0.  1.
        -24    2    1    2    0    0 -0.48098509365E+02 -0.20409418878E+02 -0.28254501040E+03  0.29819043851E+03  0.79723545655E+02 0.  0.
         23    2    1    2    0    0  0.34945777324E+02 -0.60581144304E+01  0.12756248365E+03  0.16282809288E+03  0.94778122443E+02 0.  0.
         13    1    3    3    0    0 -0.77408520879E+01  0.28511677991E+02 -0.61510080635E+02  0.68237281545E+02  0.00000000000E+00 0. -1.
        -14    1    3    3    0    0 -0.40357657277E+02 -0.48921096869E+02 -0.22103492977E+03  0.22995315696E+03  0.00000000000E+00 0.  1.
        -13    1    4    4    0    0 -0.32652684629E+02  0.21952167527E+01  0.35050694086E+02  0.47953810547E+02  0.00000000000E+00 0.  1.
         13    1    4    4    0    0  0.67598461953E+02 -0.82533311831E+01  0.92511789563E+02  0.11487428234E+03  0.00000000000E+00 0. -1.
         -1    1    1    2    0  502  0.13152732041E+02  0.26467533308E+02  0.17343085547E+03  0.17593119765E+03  0.00000000000E+00 0.  1.
<scales pt_clust_5="13000.00000" pt_clust_6="13000.00000" pt_clust_7="13000.00000" pt_clust_8="13000.00000" pt_clust_9="29.55545"></scales>
<clustering>
<clus scale="   29.555">  1  9  2 -1</clus>
<clus scale="   79.724">  5  6 -1 -1</clus>
<clus scale="   94.701">  2  5  1 -1</clus>
<clus scale="   94.778">  7  8 -1 -1</clus>
<clus scale="   29.555">  1  5  2 -1</clus>
</clustering>
</event>
<event>
 9    1  0.7586638E-005  0.1091885E+03  0.7546771E-02  0.1265417E+00
         21   -1    0    0  501  502  0.00000000000E+00  0.00000000000E+00  0.36267083073E+03  0.36267083073E+03  0.00000000000E+00 0. -1.
          1   -1    0    0  502    0 -0.00000000000E+00 -0.00000000000E+00 -0.18011583607E+03  0.18011583607E+03  0.00000000000E+00 0. -1.
         23    2    1    2    0    0 -0.56741535870E+02 -0.28685526210E+02 -0.13634363373E+03  0.17512617079E+03  0.89650030283E+02 0.  0.
        -24    2    1    2    0    0  0.63705055286E+02 -0.31303238081E+02  0.26734807900E+03  0.28825897471E+03  0.81117287735E+02 0.  0.
         13    1    4    4    0    0  0.66174857303E+02 -0.51196356270E+02  0.24127973299E+03  0.25537440786E+03  0.00000000000E+00 0. -1.
        -14    1    4    4    0    0 -0.24698020161E+01  0.19893118190E+02  0.26068346006E+02  0.32884566849E+02  0.00000000000E+00 0.  1.
        -13    1    3    3    0    0 -0.32954005958E+02 -0.27629961625E+02 -0.69530017464E+01  0.43562891563E+02  0.00000000000E+00 0. -1.
         13    1    3    3    0    0 -0.23787529912E+02 -0.10555645860E+01 -0.12939063198E+03  0.13156327922E+03  0.00000000000E+00 0.  1.
          2    1    1    2  501    0 -0.69635194165E+01  0.59988764291E+02  0.51550549386E+02  0.79401521307E+02  0.00000000000E+00 0. -1.
<scales pt_clust_5="13000.00000" pt_clust_6="13000.00000" pt_clust_7="13000.00000" pt_clust_8="13000.00000" pt_clust_9="60.39158"></scales>
<clustering>
<clus scale="   60.392">  1  9  2 -1</clus>
<clus scale="   81.117">  5  6 -1 -1</clus>
<clus scale="   89.650">  7  8 -1 -1</clus>
<clus scale="  102.299">  1  5  2 -1</clus>
<clus scale="   60.392">  1  5  2 -1</clus>
</clustering>
</event>
<event>
 9    1  0.7586638E-005  0.3932991E+03  0.7546771E-02  0.1078291E+00
          1   -1    0    0  502    0 -0.00000000000E+00  0.00000000000E+00  0.15914513917E+04  0.15914513917E+04  0.00000000000E+00 0. -1.
         21   -1    0    0  501  502  0.00000000000E+00 -0.00000000000E+00 -0.15744808039E+03  0.15744808039E+03  0.00000000000E+00 0. -1.
         23    2    1    2    0    0 -0.80676974628E+02 -0.10477933741E+03  0.45524384024E+03  0.48269297441E+03  0.90873921912E+02 0.  0.
        -24    2    1    2    0    0  0.22438821353E+03 -0.27865800274E+03  0.62534639094E+03  0.72530177482E+03  0.83691116812E+02 0.  0.
         13    1    4    4    0    0  0.16957587962E+03 -0.15721459058E+03  0.43959100452E+03  0.49670177943E+03  0.00000000000E+00 0. -1.
        -14    1    4    4    0    0  0.54812333911E+02 -0.12144341216E+03  0.18575538642E+03  0.22859999538E+03  0.00000000000E+00 0.  1.
        -11    1    3    3    0    0 -0.23001454643E+02 -0.94186035978E+02  0.33757233648E+03  0.35121953055E+03  0.00000000000E+00 0.  1.
         11    1    3    3    0    0 -0.57675519985E+02 -0.10593301430E+02  0.11767150376E+03  0.13147344385E+03  0.00000000000E+00 0. -1.
          2    1    1    2  501    0 -0.14371123891E+03  0.38343734015E+03  0.35341308017E+03  0.54090472289E+03  0.00000000000E+00 0. -1.
<scales pt_clust_5="13000.00000" pt_clust_6="13000.00000" pt_clust_7="13000.00000" pt_clust_8="13000.00000" pt_clust_9="384.29157"></scales>
<clustering>
<clus scale="   83.691">  5  6 -1 -1</clus>
<clus scale="   90.874">  7  8 -1 -1</clus>
<clus scale="  160.454">  1  7  2 -1</clus>
<clus scale="  384.292">  2  9  1 -1</clus>
<clus scale="  384.292">  2  5  1 -1</clus>
</clustering>
</event>
<event>
 9    1  0.7586638E-005  0.1551604E+03  0.7546771E-02  0.1197158E+00
         21   -1    0    0  501  502  0.00000000000E+00  0.00000000000E+00  0.11195175436E+03  0.11195175436E+03  0.00000000000E+00 0.  1.
          1   -1    0    0  502    0 -0.00000000000E+00 -0.00000000000E+00 -0.47535636891E+03  0.47535636891E+03  0.00000000000E+00 0. -1.
        -24    2    1    2    0    0 -0.55400495151E+02  0.13927538451E+03 -0.24011305968E+03  0.29339939222E+03  0.77214469694E+02 0.  0.
         23    2    1    2    0    0 -0.45599127201E+02 -0.79924683786E+02 -0.11496269565E+02  0.13197783466E+03  0.93908195312E+02 0.  0.
         13    1    3    3    0    0 -0.68330689636E+02  0.13027344257E+03 -0.18658565875E+03  0.23760147524E+03  0.00000000000E+00 0. -1.
        -14    1    3    3    0    0  0.12930194484E+02  0.90019419329E+01 -0.53527400935E+02  0.55797916976E+02  0.00000000000E+00 0.  1.
        -11    1    4    4    0    0 -0.49794510856E+02 -0.42240219648E+02 -0.46667899279E+02  0.80259717732E+02  0.00000000000E+00 0. -1.
         11    1    4    4    0    0  0.41953836549E+01 -0.37684464139E+02  0.35171629714E+02  0.51718116924E+02  0.00000000000E+00 0.  1.
          2    1    1    2  501    0  0.10099962235E+03 -0.59350700720E+02 -0.11179528530E+03  0.16193089639E+03  0.00000000000E+00 0. -1.
<scales pt_clust_5="13000.00000" pt_clust_6="13000.00000" pt_clust_7="13000.00000" pt_clust_8="13000.00000" pt_clust_9="117.14710"></scales>
<clustering>
<clus scale="   77.214">  5  6 -1 -1</clus>
<clus scale="   93.908">  7  8 -1 -1</clus>
<clus scale="  117.147">  1  9  2 -1</clus>
<clus scale="  145.664">  2  5  1 -1</clus>
<clus scale="  117.147">  1  5  2 -1</clus>
</clustering>
</event>
<event>
 9    1  0.7586638E-005  0.2115623E+03  0.7546771E-02  0.1141588E+00
          1   -1    0    0  502    0 -0.00000000000E+00  0.00000000000E+00  0.68358829147E+02  0.68358829147E+02  0.00000000000E+00 0. -1.
         21   -1    0    0  501  502  0.00000000000E+00 -0.00000000000E+00 -0.80650875752E+03  0.80650875752E+03  0.00000000000E+00 0.  1.
         23    2    1    2    0    0  0.10137749008E+03  0.16743872978E+03 -0.22318054439E+03  0.30968119508E+03  0.88202967467E+02 0.  0.
        -24    2    1    2    0    0 -0.68548139180E+02 -0.15425626464E+03 -0.42584827490E+03  0.46930043979E+03  0.10199170056E+03 0.  0.
         11    1    4    4    0    0 -0.59745148847E+00 -0.39952627356E+02 -0.22434236195E+03  0.22787291358E+03  0.00000000000E+00 0. -1.
        -12    1    4    4    0    0 -0.67950687692E+02 -0.11430363728E+03 -0.20150591295E+03  0.24142752620E+03  0.00000000000E+00 0.  1.
        -11    1    3    3    0    0  0.41050477125E+02  0.99339392481E+01 -0.23614240421E+02  0.48388605806E+02  0.00000000000E+00 0.  1.
         11    1    3    3    0    0  0.60327012956E+02  0.15750479053E+03 -0.19956630397E+03  0.26129258928E+03  0.00000000000E+00 0. -1.
          2    1    1    2  501    0 -0.32829350902E+02 -0.13182465137E+02 -0.89121109082E+02  0.95885951796E+02  0.00000000000E+00 0. -1.
<scales pt_clust_5="13000.00000" pt_clust_6="13000.00000" pt_clust_7="13000.00000" pt_clust_8="13000.00000" pt_clust_9="35.37716"></scales>
<clustering>
<clus scale="   35.377">  2  9  1 -1</clus>
<clus scale="   88.203">  7  8 -1 -1</clus>
<clus scale="  101.992">  5  6 -1 -1</clus>
<clus scale="  205.271">  1  7  2 -1</clus>
<clus scale="   35.377">  2  5  1 -1</clus>
</clustering>
</event>
<event>
 9    1  0.7586638E-005  0.1160993E+03  0.7546771E-02  0.1251988E+00
         21   -1    0    0  501  502  0.00000000000E+00  0.00000000000E+00  0.16127160680E+03  0.16127160680E+03  0.00000000000E+00 0.  1.
          1   -1    0    0  502    0 -0.00000000000E+00 -0.00000000000E+00 -0.22747428314E+03  0.22747428314E+03  0.00000000000E+00 0. -1.
        -24    2    1    2    0    0  0.37627717880E+02 -0.70240285051E+02 -0.17388398154E+03  0.20724215965E+03  0.79775503151E+02 0.  0.
         23    2    1    2    0    0 -0.26252709446E+02  0.48308908331E+02  0.11638478991E+03  0.15530970907E+03  0.86906449879E+02 0.  0.
         13    1    3    3    0    0  0.16406932359E+02 -0.59027852254E+02 -0.17266306362E+03  0.18321028440E+03  0.00000000000E+00 0. -1.
        -14    1    3    3    0    0  0.21220785521E+02 -0.11212432797E+02 -0.12209179183E+01  0.24031875248E+02  0.00000000000E+00 0.  1.
        -13    1    4    4    0    0 -0.53401725913E+02  0.35914126953E+02  0.46733076936E+02  0.79533322106E+02  0.00000000000E+00 0. -1.
         13    1    4    4    0    0  0.27149016467E+02  0.12394781377E+02  0.69651712974E+02  0.75776386960E+02  0.00000000000E+00 0.  1.
          2    1    1    2  501    0 -0.11375008434E+02  0.21931376720E+02 -0.87034847134E+01  0.26194021224E+02  0.00000000000E+00 0. -1.
<scales pt_clust_5="13000.00000" pt_clust_6="13000.00000" pt_clust_7="13000.00000" pt_clust_8="13000.00000" pt_clust_9="24.70580"></scales>
<clustering>
<clus scale="   24.706">  1  9  2 -1</clus>
<clus scale="   79.776">  5  6 -1 -1</clus>
<clus scale="   86.906">  7  8 -1 -1</clus>
<clus scale="  110.862">  2  5  1 -1</clus>
<clus scale="   24.706">  1  5  2 -1</clus>
</clustering>
</event>
<event>
 9    1  0.7586638E-005  0.1081715E+03  0.7546771E-02  0.1270687E+00
          3   -1    0    0  502    0 -0.00000000000E+00  0.00000000000E+00  0.29394521450E+02  0.29394521450E+02  0.00000000000E+00 0. -1.
         21   -1    0    0  501  502  0.00000000000E+00 -0.00000000000E+00 -0.94105761135E+03  0.94105761135E+03  0.00000000000E+00 0.  1.
         23    2    1    2    0    0  0.23869489469E+02  0.52703061967E+02 -0.13165215563E+03  0.17068052895E+03  0.91935779826E+02 0.  0.
        -24    2    1    2    0    0 -0.43747445720E+02 -0.37025480916E+02 -0.76380657399E+03  0.76971331074E+03  0.75982715285E+02 0.  0.
         11    1    4    4    0    0 -0.27765045567E+02  0.59924994713E+01 -0.90688208406E+02  0.95032409994E+02  0.00000000000E+00 0. -1.
        -12    1    4    4    0    0 -0.15982400153E+02 -0.43017980387E+02 -0.67311836558E+03  0.67468090075E+03  0.00000000000E+00 0.  1.
        -13    1    3    3    0    0  0.33842193979E+02  0.73129418735E+02 -0.12148376804E+03  0.14577898297E+03  0.00000000000E+00 0. -1.
         13    1    3    3    0    0 -0.99727045104E+01 -0.20426356767E+02 -0.10168387587E+02  0.24901545979E+02  0.00000000000E+00 0.  1.
          4    1    1    2  501    0  0.19877956252E+02 -0.15677581051E+02 -0.16204360280E+02  0.30058293106E+02  0.00000000000E+00 0. -1.
<scales pt_clust_5="13000.00000" pt_clust_6="13000.00000" pt_clust_7="13000.00000" pt_clust_8="13000.00000" pt_clust_9="25.31640"></scales>
<clustering>
<clus scale="   25.316">  2  9  1 -1</clus>
<clus scale="   75.983">  5  6 -1 -1</clus>
<clus scale="   91.936">  7  8 -1 -1</clus>
<clus scale="   94.986">  2  5  1 -1</clus>
<clus scale="   25.316">  2  5  1 -1</clus>
</clustering>
</event>
<event>
 9    1  0.7586638E-005  0.1113213E+03  0.7546771E-02  0.1262860E+00
         21   -1    0    0  501  502  0.00000000000E+00  0.00000000000E+00  0.20846310692E+02  0.20846310692E+02  0.00000000000E+00 0. -1.
          3   -1    0    0  502    0 -0.00000000000E+00 -0.00000000000E+00 -0.93737012267E+03  0.93737012267E+03  0.00000000000E+00 0. -1.
         23    2    1    2    0    0  0.54409845609E+02  0.64562778577E+02 -0.57250308498E+03  0.58611042046E+03  0.92934702787E+02 0.  0.
        -24    2    1    2    0    0 -0.13258842563E+02 -0.33716368944E+02 -0.24484344587E+03  0.26038744179E+03  0.80874695776E+02 0.  0.
         13    1    4    4    0    0  0.27783397411E+02 -0.35897903108E+02 -0.15651831558E+03  0.16296797149E+03  0.00000000000E+00 0. -1.
        -14    1    4    4    0    0 -0.41042239975E+02  0.21815341640E+01 -0.88325130288E+02  0.97419470302E+02  0.00000000000E+00 0.  1.
        -11    1    3    3    0    0  0.69942545096E+02  0.78177142946E+02 -0.47577118165E+03  0.48719795010E+03  0.00000000000E+00 0. -1.
         11    1    3    3    0    0 -0.15532699487E+02 -0.13614364369E+02 -0.96731903325E+02  0.98912470354E+02  0.00000000000E+00 0.  1.
          4    1    1    2  501    0 -0.41151003045E+02 -0.30846409633E+02 -0.99177281131E+02  0.11171857111E+03  0.00000000000E+00 0. -1.
<scales pt_clust_5="13000.00000" pt_clust_6="13000.00000" pt_clust_7="13000.00000" pt_clust_8="13000.00000" pt_clust_9="51.42865"></scales>
<clustering>
<clus scale="   51.429">  1  9  2 -1</clus>
<clus scale="   80.875">  5  6 -1 -1</clus>
<clus scale="   92.935">  7  8 -1 -1</clus>
<clus scale="  101.471">  1  5  2 -1</clus>
<clus scale="   51.429">  1  5  2 -1</clus>
</clustering>
</event>
<event>
 9    1  0.7586638E-005  0.1424721E+03  0.7546771E-02  0.1212467E+00
         -2   -1    0    0    0  501 -0.00000000000E+00  0.00000000000E+00  0.32319765089E+03  0.32319765089E+03  0.00000000000E+00 0.  1.
         21   -1    0    0  501  502  0.00000000000E+00 -0.00000000000E+00 -0.24371397298E+03  0.24371397298E+03  0.00000000000E+00 0.  1.
        -24    2    1    2    0    0 -0.45522047256E+02 -0.10306915226E+03  0.14965651891E+03  0.20335378998E+03  0.79121320231E+02 0.  0.
         23    2    1    2    0    0  0.90839555611E+02  0.68973772216E+02  0.10483345105E+03  0.17959214752E+03  0.90851972316E+02 0.  0.
         13    1    3    3    0    0 -0.12199453696E+02 -0.30909343833E+02 -0.74924190973E+00  0.33238164361E+02  0.00000000000E+00 0. -1.
        -14    1    3    3    0    0 -0.33322593561E+02 -0.72159808427E+02  0.15040576082E+03  0.17011562562E+03  0.00000000000E+00 0.  1.
        -13    1    4    4    0    0  0.84839077559E+02  0.89565870046E+01  0.56846107012E+02  0.10251521553E+03  0.00000000000E+00 0.  1.
         13    1    4    4    0    0  0.60004780528E+01  0.60017185212E+02  0.47987344037E+02  0.77076931992E+02  0.00000000000E+00 0. -1.
         -1    1    1    2    0  502 -0.45317508355E+02  0.34095380043E+02 -0.17500629205E+03  0.18396568637E+03  0.00000000000E+00 0.  1.
<scales pt_clust_5="13000.00000" pt_clust_6="13000.00000" pt_clust_7="13000.00000" pt_clust_8="13000.00000" pt_clust_9="56.71130"></scales>
<clustering>
<clus scale="   56.711">  2  9  1 -1</clus>
<clus scale="   79.121">  5  6 -1 -1</clus>
<clus scale="   90.852">  7  8 -1 -1</clus>
<clus scale="  135.294">  1  5  2 -1</clus>
<clus scale="   56.711">  2  5  1 -1</clus>
</clustering>
</event>
<event>
 9    1  0.7586638E-005  0.1196406E+03  0.7546771E-02  0.1250233E+00
         21   -1    0    0  501  502  0.00000000000E+00  0.00000000000E+00  0.12003442924E+03  0.12003442924E+03  0.00000000000E+00 0. -1.
          3   -1    0    0  502    0 -0.00000000000E+00 -0.00000000000E+00 -0.21832391390E+03  0.21832391390E+03  0.00000000000E+00 0. -1.
         23    2    1    2    0    0  0.72365777445E+02 -0.37955419371E+02 -0.12965391346E+03  0.18190258402E+03  0.97984657941E+02 0.  0.
        -24    2    1    2    0    0 -0.52660475558E+02 -0.67871966338E+01 -0.48916154933E+01  0.95589501165E+02  0.79336203001E+02 0.  0.
         11    1    4    4    0    0 -0.15253186275E+02 -0.40523868016E+02  0.69225679123E+01  0.43849350247E+02  0.00000000000E+00 0. -1.
        -12    1    4    4    0    0 -0.37407289283E+02  0.33736671383E+02 -0.11814183406E+02  0.51740150918E+02  0.00000000000E+00 0.  1.
        -11    1    3    3    0    0  0.14826984591E+02 -0.59478102795E+02 -0.39907485107E+02  0.73144320023E+02  0.00000000000E+00 0.  1.
         11    1    3    3    0    0  0.57538792854E+02  0.21522683423E+02 -0.89746428356E+02  0.10875826400E+03  0.00000000000E+00 0. -1.
          4    1    1    2  501    0 -0.19705301887E+02  0.44742616005E+02  0.36256044291E+02  0.60866257952E+02  0.00000000000E+00 0. -1.
<scales pt_clust_5="13000.00000" pt_clust_6="13000.00000" pt_clust_7="13000.00000" pt_clust_8="13000.00000" pt_clust_9="48.88968"></scales>
<clustering>
<clus scale="   48.890">  1  9  2 -1</clus>
<clus scale="   79.336">  5  6 -1 -1</clus>
<clus scale="   97.985">  7  8 -1 -1</clus>
<clus scale="  104.915">  1  5  2 -1</clus>
<clus scale="   48.890">  1  5  2 -1</clus>
</clustering>
</event>
<event>
 9    1  0.7586638E-005  0.1279578E+03  0.7546771E-02  0.1246604E+00
         -4   -1    0    0    0  501 -0.00000000000E+00  0.00000000000E+00  0.10677916237E+04  0.10677916237E+04  0.00000000000E+00 0.  1.
         21   -1    0    0  501  502  0.00000000000E+00 -0.00000000000E+00 -0.32961671285E+02  0.32961671285E+02  0.00000000000E+00 0. -1.
         23    2    1    2    0    0 -0.20617411465E+02  0.15012759188E+02  0.14822533334E+03  0.17457348709E+03  0.88626702284E+02 0.  0.
        -24    2    1    2    0    0 -0.77816640426E+02  0.17899736365E+02  0.72671872626E+03  0.73555978361E+03  0.80946019485E+02 0.  0.
         11    1    4    4    0    0 -0.76208994434E+02 -0.11285742976E+02  0.38750141960E+03  0.39508547052E+03  0.00000000000E+00 0. -1.
        -12    1    4    4    0    0 -0.16076459919E+01  0.29185479341E+02  0.33921730666E+03  0.34047431309E+03  0.00000000000E+00 0.  1.
        -11    1    3    3    0    0 -0.51523672134E+02 -0.48279904655E+01  0.10999453342E+03  0.12155984396E+03  0.00000000000E+00 0. -1.
         11    1    3    3    0    0  0.30906260669E+02  0.19840749653E+02  0.38230799926E+02  0.53013643134E+02  0.00000000000E+00 0.  1.
         -3    1    1    2    0  502  0.98434051892E+02 -0.32912495553E+02  0.15988589277E+03  0.19062002424E+03  0.00000000000E+00 0.  1.
<scales pt_clust_5="13000.00000" pt_clust_6="13000.00000" pt_clust_7="13000.00000" pt_clust_8="13000.00000" pt_clust_9="99.10065"></scales>
<clustering>
<clus scale="   80.946">  5  6 -1 -1</clus>
<clus scale="   88.627">  7  8 -1 -1</clus>
<clus scale="   92.223">  1  7  2 -1</clus>
<clus scale="   99.101">  2  9  1 -1</clus>
<clus scale="   99.101">  2  5  1 -1</clus>
</clustering>
</event>
<event>
 9    1  0.7586638E-005  0.9752797E+02  0.7546771E-02  0.1292543E+00
         21   -1    0    0  501  502  0.00000000000E+00  0.00000000000E+00  0.25092392786E+03  0.25092392786E+03  0.00000000000E+00 0.  1.
         -4   -1    0    0    0  501 -0.00000000000E+00 -0.00000000000E+00 -0.49743565665E+02  0.49743565665E+02  0.00000000000E+00 0.  1.
        -24    2    1    2    0    0  0.15031053899E+02 -0.26082580165E+02  0.83507837603E+02  0.11879067388E+03  0.78939417850E+02 0.  0.
         23    2    1    2    0    0  0.13627554966E+02  0.41682945561E+02  0.10683580425E+03  0.14749482188E+03  0.91747780390E+02 0.  0.
         11    1    3    3    0    0  0.56093929501E+01 -0.29537133659E+02  0.97240491719E+02  0.10178222234E+03  0.00000000000E+00 0. -1.
        -12    1    3    3    0    0  0.94216609492E+01  0.34545534938E+01 -0.13732654115E+02  0.17008451544E+02  0.00000000000E+00 0.  1.
        -11    1    4    4    0    0  0.50113125685E+02  0.14983609408E+02  0.36131596750E+02  0.63571425975E+02  0.00000000000E+00 0.  1.
         11    1    4    4    0    0 -0.36485570719E+02  0.26699336153E+02  0.70704207505E+02  0.83923395907E+02  0.00000000000E+00 0. -1.
         -3    1    1    2    0  502 -0.28658608865E+02 -0.15600365395E+02  0.10836720338E+02  0.34381997764E+02  0.00000000000E+00 0.  1.
<scales pt_clust_5="13000.00000" pt_clust_6="13000.00000" pt_clust_7="13000.00000" pt_clust_8="13000.00000" pt_clust_9="32.62956"></scales>
<clustering>
<clus scale="   32.630">  1  9  2 -1</clus>
<clus scale="   78.939">  5  6 -1 -1</clus>
<clus scale="   85.589">  2  5  1 -1</clus>
<clus scale="   91.748">  7  8 -1 -1</clus>
<clus scale="   32.630">  1  5  2 -1</clus>
</clustering>
</event>
<event>
 9    1  0.7586638E-005  0.1326180E+03  0.7546771E-02  0.1231319E+00
         21   -1    0    0  501  502  0.00000000000E+00  0.00000000000E+00  0.19119552195E+03  0.19119552195E+03  0.00000000000E+00 0.  1.
          1   -1    0    0  502    0 -0.00000000000E+00 -0.00000000000E+00 -0.14607032815E+03  0.14607032815E+03  0.00000000000E+00 0. -1.
        -24    2    1    2    0    0 -0.54440816322E+02  0.57383629515E+02 -0.53108442621E+02  0.12365926012E+03  0.78831608621E+02 0.  0.
         23    2    1    2    0    0  0.34051997452E+02 -0.83567716415E+02  0.35937387812E+02  0.14302236417E+03  0.10497999358E+03 0.  0.
         13    1    3    3    0    0 -0.64362338850E+02  0.67479664173E+02 -0.56593050800E+02  0.10908157103E+03  0.00000000000E+00 0. -1.
        -14    1    3    3    0    0  0.99215225280E+01 -0.10096034658E+02  0.34846081797E+01  0.14577689092E+02  0.00000000000E+00 0.  1.
        -13    1    4    4    0    0  0.14684803812E+02 -0.41375447778E+02  0.71936108594E+02  0.84275588763E+02  0.00000000000E+00 0.  1.
         13    1    4    4    0    0  0.19367193641E+02 -0.42192268637E+02 -0.35998720782E+02  0.58746775402E+02  0.00000000000E+00 0. -1.
          2    1    1    2  501    0  0.20388818870E+02  0.26184086900E+02  0.62296248612E+02  0.70584225808E+02  0.00000000000E+00 0. -1.
<scales pt_clust_5="13000.00000" pt_clust_6="13000.00000" pt_clust_7="13000.00000" pt_clust_8="13000.00000" pt_clust_9="33.18600"></scales>
<clustering>
<clus scale="   33.186">  1  9  2 -1</clus>
<clus scale="   78.832">  5  6 -1 -1</clus>
<clus scale="  104.980">  7  8 -1 -1</clus>
<clus scale="  113.054">  2  5  1 -1</clus>
<clus scale="   33.186">  1  5  2 -1</clus>
</clustering>
</event>
<event>
 9    1  0.7586638E-005  0.1586043E+03  0.7546771E-02  0.1191760E+00
         21   -1    0    0  501  502  0.00000000000E+00  0.00000000000E+00  0.33961588043E+02  0.33961588043E+02  0.00000000000E+00 0. -1.
          1   -1    0    0  502    0 -0.00000000000E+00 -0.00000000000E+00 -0.97356990102E+03  0.97356990102E+03  0.00000000000E+00 0. -1.
        -24    2    1    2    0    0 -0.11145543953E+03  0.79957833168E+02 -0.59325378900E+03  0.61415133872E+03  0.80101426980E+02 0.  0.
         23    2    1    2    0    0  0.79102710681E+02 -0.92118622191E+02 -0.26358883300E+03  0.30368765647E+03  0.89465302894E+02 0.  0.
         13    1    3    3    0    0 -0.74607914131E+02  0.91057840070E+02 -0.39378606431E+03  0.41100527434E+03  0.00000000000E+00 0. -1.
        -14    1    3    3    0    0 -0.36847525394E+02 -0.11100006902E+02 -0.19946772468E+03  0.20314606438E+03  0.00000000000E+00 0.  1.
        -11    1    4    4    0    0  0.50770991456E+02  0.34860235125E+01 -0.96889876588E+02  0.10944173847E+03  0.00000000000E+00 0.  1.
         11    1    4    4    0    0  0.28331719225E+02 -0.95604645703E+02 -0.16669895641E+03  0.19424591800E+03  0.00000000000E+00 0. -1.
          2    1    1    2  501    0  0.32352728844E+02  0.12160789023E+02 -0.82765690986E+02  0.89692493876E+02  0.00000000000E+00 0. -1.
<scales pt_clust_5="13000.00000" pt_clust_6="13000.00000" pt_clust_7="13000.00000" pt_clust_8="13000.00000" pt_clust_9="34.56275"></scales>
<clustering>
<clus scale="   34.563">  1  9  2 -1</clus>
<clus scale="   80.101">  5  6 -1 -1</clus>
<clus scale="   89.465">  7  8 -1 -1</clus>
<clus scale="  153.517">  2  5  1 -1</clus>
<clus scale="   34.563">  1  5  2 -1</clus>
</clustering>
</event>
<event>
 9    1  0.7586638E-005  0.9949354E+02  0.7546771E-02  0.1291261E+00
         21   -1    0    0  501  502  0.00000000000E+00  0.00000000000E+00  0.11826333414E+03  0.11826333414E+03  0.00000000000E+00 0. -1.
          3   -1    0    0  502    0 -0.00000000000E+00 -0.00000000000E+00 -0.28048370212E+03  0.28048370212E+03  0.00000000000E+00 0. -1.
         23    2    1    2    0    0 -0.32445430537E+02  0.71284388863E+01 -0.22257220484E+03  0.24312960370E+03  0.92033131115E+02 0.  0.
        -24    2    1    2    0    0  0.63848628951E+02  0.11954450101E+01  0.12958075148E+02  0.98157737450E+02  0.73409489863E+02 0.  0.
         13    1    4    4    0    0  0.70663060122E+02 -0.15848012788E+02  0.24528965350E+02  0.76459778422E+02  0.00000000000E+00 0. -1.
        -14    1    4    4    0    0 -0.68144311705E+01  0.17043457798E+02 -0.11570890202E+02  0.21697959028E+02  0.00000000000E+00 0.  1.
        -13    1    3    3    0    0 -0.50561660909E+02 -0.24194946214E+02 -0.17230518922E+03  0.18119314338E+03  0.00000000000E+00 0. -1.
         13    1    3    3    0    0  0.18116230372E+02  0.31323385100E+02 -0.50267015617E+02  0.61936460313E+02  0.00000000000E+00 0.  1.
          4    1    1    2  501    0 -0.31403198414E+02 -0.83238838964E+01  0.47393761705E+02  0.57459695111E+02  0.00000000000E+00 0. -1.
<scales pt_clust_5="13000.00000" pt_clust_6="13000.00000" pt_clust_7="13000.00000" pt_clust_8="13000.00000" pt_clust_9="32.48766"></scales>
<clustering>
<clus scale="   32.488">  1  9  2 -1</clus>
<clus scale="   73.409">  5  6 -1 -1</clus>
<clus scale="   82.570">  1  5  2 -1</clus>
<clus scale="   92.033">  7  8 -1 -1</clus>
<clus scale="   32.488">  1  5  2 -1</clus>
</clustering>
</event>
<event>
 9    1  0.7586638E-005  0.1837453E+03  0.7546771E-02  0.1190068E+00
         -2   -1    0    0    0  501 -0.00000000000E+00  0.00000000000E+00  0.40881030004E+03  0.40881030004E+03  0.00000000000E+00 0.  1.
         21   -1    0    0  501  502  0.00000000000E+00 -0.00000000000E+00 -0.17862386659E+03  0.17862386659E+03  0.00000000000E+00 0.  1.
        -24    2    1    2    0    0  0.61274668374E+02  0.10118490592E+02  0.15247699812E+02  0.10361187596E+03  0.81522755433E+02 0.  0.
         23    2    1    2    0    0 -0.16055765491E+03  0.55438678074E+02 -0.43811495312E+02  0.19903020026E+03  0.94028537776E+02 0.  0.
         13    1    3    3    0    0  0.15082653358E+02 -0.32170747467E+02 -0.86702675440E+01  0.36573446162E+02  0.00000000000E+00 0. -1.
        -14    1    3    3    0    0  0.46192015015E+02  0.42289238059E+02  0.23917967356E+02  0.67038429794E+02  0.00000000000E+00 0.  1.
        -13    1    4    4    0    0 -0.15900166609E+02 -0.19290716450E+02 -0.24613826620E+02  0.35082581151E+02  0.00000000000E+00 0. -1.
         13    1    4    4    0    0 -0.14465748830E+03  0.74729394524E+02 -0.19197668692E+02  0.16394761911E+03  0.00000000000E+00 0.  1.
         -1    1    1    2    0  502  0.99282986535E+02 -0.65557168666E+02  0.25875022895E+03  0.28479209041E+03  0.00000000000E+00 0.  1.
<scales pt_clust_5="13000.00000" pt_clust_6="13000.00000" pt_clust_7="13000.00000" pt_clust_8="13000.00000" pt_clust_9="157.86387"></scales>
<clustering>
<clus scale="   81.523">  5  6 -1 -1</clus>
<clus scale="   94.029">  7  8 -1 -1</clus>
<clus scale="  102.484">  1  5  2 -1</clus>
<clus scale="  157.864">  2  9  1 -1</clus>
<clus scale="  157.864">  2  5  1 -1</clus>
</clustering>
</event>
<event>
 9    1  0.7586638E-005  0.1227537E+03  0.7546771E-02  0.1241572E+00
         -2   -1    0    0    0  501 -0.00000000000E+00  0.00000000000E+00  0.78616388520E+03  0.78616388520E+03  0.00000000000E+00 0.  1.
         21   -1    0    0  501  502  0.00000000000E+00 -0.00000000000E+00 -0.10076561306E+03  0.10076561306E+03  0.00000000000E+00 0.  1.
        -24    2    1    2    0    0  0.87113644669E+02  0.86147434180E+01  0.63437737401E+03  0.64558598007E+03  0.81753312614E+02 0.  0.
         23    2    1    2    0    0 -0.31464340536E+02  0.83744430522E+02  0.25366207290E+02  0.13050478298E+03  0.91569206280E+02 0.  0.
         13    1    3    3    0    0 -0.21608524587E+01 -0.24290007776E+02  0.11351048487E+03  0.11610040455E+03  0.00000000000E+00 0. -1.
        -14    1    3    3    0    0  0.89274497128E+02  0.32904751194E+02  0.52086688914E+03  0.52948557553E+03  0.00000000000E+00 0.  1.
        -11    1    4    4    0    0 -0.18435151740E+02 -0.17491364225E+02  0.98810231616E+01  0.27266045934E+02  0.00000000000E+00 0. -1.
         11    1    4    4    0    0 -0.13029188796E+02  0.10123579475E+03  0.15485184128E+02  0.10323873704E+03  0.00000000000E+00 0.  1.
         -1    1    1    2    0  502 -0.55649304133E+02 -0.92359173940E+02  0.25654690846E+02  0.11083873521E+03  0.00000000000E+00 0.  1.
<scales pt_clust_5="13000.00000" pt_clust_6="13000.00000" pt_clust_7="13000.00000" pt_clust_8="13000.00000" pt_clust_9="107.82886"></scales>
<clustering>
<clus scale="   81.753">  5  6 -1 -1</clus>
<clus scale="   91.569">  7  8 -1 -1</clus>
<clus scale="  107.829">  2  9  1 -1</clus>
<clus scale="  115.616">  1  5  2 -1</clus>
<clus scale="  107.829">  2  5  1 -1</clus>
</clustering>
</event>
<event>
 9    1  0.7586638E-005  0.9852423E+02  0.7546771E-02  0.1290194E+00
         21   -1    0    0  501  502  0.00000000000E+00  0.00000000000E+00  0.26193196695E+03  0.26193196695E+03  0.00000000000E+00 0. -1.
          1   -1    0    0  502    0 -0.00000000000E+00 -0.00000000000E+00 -0.27392172397E+03  0.27392172397E+03  0.00000000000E+00 0. -1.
         23    2    1    2    0    0 -0.68266790784E+01 -0.32790798274E+02 -0.22857967093E+03  0.24908589470E+03  0.93130429927E+02 0.  0.
        -24    2    1    2    0    0  0.48209758342E+02  0.92795043325E+01  0.37607426053E+02  0.10156501237E+03  0.80565769669E+02 0.  0.
         11    1    4    4    0    0  0.55630314696E+02 -0.18093218801E+02  0.43120067521E+02  0.72673493812E+02  0.00000000000E+00 0. -1.
        -12    1    4    4    0    0 -0.74205563540E+01  0.27372723134E+02 -0.55126414677E+01  0.28891518553E+02  0.00000000000E+00 0.  1.
        -13    1    3    3    0    0  0.24282431614E+02  0.19847128768E+02 -0.12436791806E+03  0.12826115565E+03  0.00000000000E+00 0.  1.
         13    1    3    3    0    0 -0.31109110692E+02 -0.52637927041E+02 -0.10421175286E+03  0.12082473905E+03  0.00000000000E+00 0. -1.
          2    1    1    2  501    0 -0.41383079264E+02  0.23511293941E+02  0.17898248785E+03  0.18520278386E+03  0.00000000000E+00 0. -1.
<scales pt_clust_5="13000.00000" pt_clust_6="13000.00000" pt_clust_7="13000.00000" pt_clust_8="13000.00000" pt_clust_9="47.59559"></scales>
<clustering>
<clus scale="   47.596">  1  9  2 -1</clus>
<clus scale="   80.566">  5  6 -1 -1</clus>
<clus scale="   86.744">  1  5  2 -1</clus>
<clus scale="   93.130">  7  8 -1 -1</clus>
<clus scale="   47.596">  1  5  2 -1</clus>
</clustering>
</event>
<event>
 9    1  0.7586638E-005  0.3267802E+03  0.7546771E-02  0.1099740E+00
          1   -1    0    0  502    0 -0.00000000000E+00  0.00000000000E+00  0.18562446650E+03  0.18562446650E+03  0.00000000000E+00 0. -1.
         21   -1    0    0  501  502  0.00000000000E+00 -0.00000000000E+00 -0.13159975004E+04  0.13159975004E+04  0.00000000000E+00 0.  1.
         23    2    1    2    0    0 -0.21269161862E+02  0.12780073668E+03 -0.79552121860E+02  0.17734064638E+03  0.91300379105E+02 0.  0.
        -24    2    1    2    0    0  0.77154144043E+02 -0.33437080676E+03 -0.10525961700E+04  0.11102778705E+04  0.83675887865E+02 0.  0.
         13    1    4    4    0    0  0.30984036828E+02 -0.20996251675E+03 -0.52563720721E+03  0.56686748238E+03  0.00000000000E+00 0. -1.
        -14    1    4    4    0    0  0.46170107215E+02 -0.12440829002E+03 -0.52695896277E+03  0.54341038808E+03  0.00000000000E+00 0.  1.
        -11    1    3    3    0    0 -0.41176625023E+02  0.10953186520E+03 -0.90760498277E+02  0.14808852755E+03  0.00000000000E+00 0. -1.
         11    1    3    3    0    0  0.19907463161E+02  0.18268871475E+02  0.11208376417E+02  0.29252118835E+02  0.00000000000E+00 0.  1.
          2    1    1    2  501    0 -0.55884982181E+02  0.20657007009E+03  0.17752579525E+01  0.21400345004E+03  0.00000000000E+00 0. -1.
<scales pt_clust_5="13000.00000" pt_clust_6="13000.00000" pt_clust_7="13000.00000" pt_clust_8="13000.00000" pt_clust_9="315.88566"></scales>
<clustering>
<clus scale="   83.676">  5  6 -1 -1</clus>
<clus scale="   91.300">  7  8 -1 -1</clus>
<clus scale="  158.497">  1  7  2 -1</clus>
<clus scale="  315.886">  2  9  1 -1</clus>
<clus scale="  315.886">  2  5  1 -1</clus>
</clustering>
</event>
<event>
 9    1  0.7586638E-005  0.1329920E+03  0.7546771E-02  0.1225940E+00
          1   -1    0    0  502    0 -0.00000000000E+00  0.00000000000E+00  0.50598239605E+03  0.50598239605E+03  0.00000000000E+00 0. -1.
         21   -1    0    0  501  502  0.00000000000E+00 -0.00000000000E+00 -0.14811275798E+03  0.14811275798E+03  0.00000000000E+00 0. -1.
        -24    2    1    2    0    0  0.64082299498E+02 -0.71327194045E+02  0.12162107606E+03  0.17462186384E+03  0.80665974657E+02 0.  0.
         23    2    1    2    0    0  0.28979195383E+02 -0.82103831248E+02 -0.55151649627E+02  0.13725171768E+03  0.90639377093E+02 0.  0.
         13    1    3    3    0    0  0.80172516724E+02 -0.65515492257E+02  0.84116625760E+02  0.13339984593E+03  0.00000000000E+00 0. -1.
        -14    1    3    3    0    0 -0.16090217227E+02 -0.58117017884E+01  0.37504450302E+02  0.41222017910E+02  0.00000000000E+00 0.  1.
        -11    1    4    4    0    0  0.36521047090E+02  0.60628133774E+01 -0.19591960494E+02  0.41885433060E+02  0.00000000000E+00 0.  1.
         11    1    4    4    0    0 -0.75418517076E+01 -0.88166644625E+02 -0.35559689133E+02  0.95366284624E+02  0.00000000000E+00 0. -1.
          2    1    1    2  501    0 -0.93061494880E+02  0.15343102529E+03  0.29140021163E+03  0.34222157251E+03  0.00000000000E+00 0. -1.
<scales pt_clust_5="13000.00000" pt_clust_6="13000.00000" pt_clust_7="13000.00000" pt_clust_8="13000.00000" pt_clust_9="97.32109"></scales>
<clustering>
<clus scale="   80.666">  5  6 -1 -1</clus>
<clus scale="   90.639">  7  8 -1 -1</clus>
<clus scale="  125.304">  1  5  2 -1</clus>
<clus scale="   97.321">  2  9  1 -1</clus>
<clus scale="   97.321">  2  5  1 -1</clus>
</clustering>
</event>
<event>
 9    1  0.7586638E-005  0.2507537E+03  0.7546771E-02  0.1113142E+00
         21   -1    0    0  501  502  0.00000000000E+00  0.00000000000E+00  0.23966106198E+03  0.23966106198E+03  0.00000000000E+00 0. -1.
          1   -1    0    0  502    0 -0.00000000000E+00 -0.00000000000E+00 -0.32436417491E+03  0.32436417491E+03  0.00000000000E+00 0. -1.
        -24    2    1    2    0    0  0.21310298241E+03  0.91227426192E+02 -0.65509504685E+02  0.25465992303E+03  0.82612691493E+02 0.  0.
         23    2    1    2    0    0 -0.23572184407E+03 -0.50873149915E+02  0.55599364646E+01  0.25689800506E+03  0.88390084031E+02 0.  0.
         13    1    3    3    0    0  0.18091283812E+03  0.56798409062E+02 -0.79325470592E+02  0.20554329119E+03  0.00000000000E+00 0. -1.
        -14    1    3    3    0    0  0.32190144282E+02  0.34429017130E+02  0.13815965907E+02  0.49116631841E+02  0.00000000000E+00 0.  1.
        -13    1    4    4    0    0 -0.19509100316E+03 -0.10137023117E+02  0.23181495037E+02  0.19672478356E+03  0.00000000000E+00 0. -1.
         13    1    4    4    0    0 -0.40630840905E+02 -0.40736126798E+02 -0.17621558573E+02  0.60173221500E+02  0.00000000000E+00 0.  1.
          2    1    1    2  501    0  0.22618861663E+02 -0.40354276277E+02 -0.24753544705E+02  0.52467308795E+02  0.00000000000E+00 0. -1.
<scales pt_clust_5="13000.00000" pt_clust_6="13000.00000" pt_clust_7="13000.00000" pt_clust_8="13000.00000" pt_clust_9="46.26103"></scales>
<clustering>
<clus scale="   46.261">  1  9  2 -1</clus>
<clus scale="   82.613">  5  6 -1 -1</clus>
<clus scale="   88.390">  7  8 -1 -1</clus>
<clus scale="  248.776">  2  5  1 -1</clus>
<clus scale="   46.261">  1  5  2 -1</clus>
</clustering>
</event>
<event>
 9    1  0.7586638E-005  0.1149786E+03  0.7546771E-02  0.1257051E+00
         21   -1    0    0  501  502  0.00000000000E+00  0.00000000000E+00  0.30459148230E+03  0.30459148230E+03  0.00000000000E+00 0. -1.
          1   -1    0    0  502    0 -0.00000000000E+00 -0.00000000000E+00 -0.11332169395E+03  0.11332169395E+03  0.00000000000E+00 0. -1.
        -24    2    1    2    0    0  0.62597849744E+02 -0.93055264862E+01 -0.25648547575E+02  0.10362238329E+03  0.77940148262E+02 0.  0.
         23    2    1    2    0    0 -0.96183878679E+02  0.10439708017E+02  0.23900087089E+03  0.27407952516E+03  0.92940001093E+02 0.  0.
         11    1    3    3    0    0  0.16613703986E+02 -0.15980069921E+02  0.25597290415E+02  0.34447047354E+02  0.00000000000E+00 0. -1.
        -12    1    3    3    0    0  0.45984145758E+02  0.66745434344E+01 -0.51245837990E+02  0.69175335941E+02  0.00000000000E+00 0.  1.
        -11    1    4    4    0    0 -0.10335487751E+03  0.34562748229E+02  0.19546722696E+03  0.22379510961E+03  0.00000000000E+00 0. -1.
         11    1    4    4    0    0  0.71709988264E+01 -0.24123040213E+02  0.43533643930E+02  0.50284415549E+02  0.00000000000E+00 0.  1.
          2    1    1    2  501    0  0.33586028935E+02 -0.11341815305E+01 -0.22082534963E+02  0.40211267796E+02  0.00000000000E+00 0. -1.
<scales pt_clust_5="13000.00000" pt_clust_6="13000.00000" pt_clust_7="13000.00000" pt_clust_8="13000.00000" pt_clust_9="33.60519"></scales>
<clustering>
<clus scale="   33.605">  1  9  2 -1</clus>
<clus scale="   77.940">  5  6 -1 -1</clus>
<clus scale="   92.940">  7  8 -1 -1</clus>
<clus scale="  103.232">  2  5  1 -1</clus>
<clus scale="   33.605">  1  5  2 -1</clus>
</clustering>
</event>
<event>
 9    1  0.7586638E-005  0.1095011E+03  0.7546771E-02  0.1265350E+00
          1   -1    0    0  502    0 -0.00000000000E+00  0.00000000000E+00  0.36170334519E+02  0.36170334519E+02  0.00000000000E+00 0. -1.
         21   -1    0    0  501  502  0.00000000000E+00 -0.00000000000E+00 -0.67394782766E+03  0.67394782766E+03  0.00000000000E+00 0.  1.
         23    2    1    2    0    0 -0.52006717466E+02 -0.31151705389E+02 -0.11764510035E+03  0.16071780460E+03  0.91185062739E+02 0.  0.
        -24    2    1    2    0    0  0.69274607343E+02 -0.27338337347E+01 -0.48807099512E+03  0.49965758924E+03  0.81473708217E+02 0.  0.
         11    1    4    4    0    0  0.43791686167E+02 -0.11632127861E+02 -0.90864968413E+02  0.10153551428E+03  0.00000000000E+00 0. -1.
        -12    1    4    4    0    0  0.25482921177E+02  0.88982941265E+01 -0.39720602671E+03  0.39812207495E+03  0.00000000000E+00 0.  1.
        -13    1    3    3    0    0 -0.48679539711E+02  0.20533709394E+02 -0.83060880272E+02  0.98440035755E+02  0.00000000000E+00 0. -1.
         13    1    3    3    0    0 -0.33271777550E+01 -0.51685414784E+02 -0.34584220083E+02  0.62277768842E+02  0.00000000000E+00 0.  1.
          2    1    1    2  501    0 -0.17267889878E+02  0.33885539124E+02 -0.32061397661E+02  0.49742768344E+02  0.00000000000E+00 0. -1.
<scales pt_clust_5="13000.00000" pt_clust_6="13000.00000" pt_clust_7="13000.00000" pt_clust_8="13000.00000" pt_clust_9="38.03171"></scales>
<clustering>
<clus scale="   38.032">  2  9  1 -1</clus>
<clus scale="   81.474">  5  6 -1 -1</clus>
<clus scale="   91.185">  7  8 -1 -1</clus>
<clus scale="  101.557">  2  5  1 -1</clus>
<clus scale="   38.032">  2  5  1 -1</clus>
</clustering>
</event>
<event>
 9    1  0.7586638E-005  0.1376392E+03  0.7546771E-02  0.1219956E+00
          1   -1    0    0  502    0 -0.00000000000E+00  0.00000000000E+00  0.39299750079E+03  0.39299750079E+03  0.00000000000E+00 0. -1.
         21   -1    0    0  501  502  0.00000000000E+00 -0.00000000000E+00 -0.20352668202E+03  0.20352668202E+03  0.00000000000E+00 0. -1.
         23    2    1    2    0    0  0.94604923742E+02 -0.53901603904E+02  0.34687398815E+03  0.37503941499E+03  0.92073474146E+02 0.  0.
        -24    2    1    2    0    0 -0.35200079076E+02  0.28221480813E+02 -0.10753414291E+03  0.13978211124E+03  0.77071065816E+02 0.  0.
         13    1    4    4    0    0 -0.10966675333E+02  0.52825914506E+02 -0.74565716249E+02  0.92037444831E+02  0.00000000000E+00 0. -1.
        -14    1    4    4    0    0 -0.24233403743E+02 -0.24604433693E+02 -0.32968426660E+02  0.47744666412E+02  0.00000000000E+00 0.  1.
        -11    1    3    3    0    0  0.11811912352E+01  0.20573871889E+02  0.30059114617E+02  0.36444887005E+02  0.00000000000E+00 0.  1.
         11    1    3    3    0    0  0.93423732507E+02 -0.74475475793E+02  0.31681487353E+03  0.33859452798E+03  0.00000000000E+00 0. -1.
          2    1    1    2  501    0 -0.59404844666E+02  0.25680123091E+02 -0.49869026468E+02  0.81702656583E+02  0.00000000000E+00 0. -1.
<scales pt_clust_5="13000.00000" pt_clust_6="13000.00000" pt_clust_7="13000.00000" pt_clust_8="13000.00000" pt_clust_9="64.71788"></scales>
<clustering>
<clus scale="   64.718">  2  9  1 -1</clus>
<clus scale="   77.071">  5  6 -1 -1</clus>
<clus scale="   92.073">  7  8 -1 -1</clus>
<clus scale="  128.090">  2  5  1 -1</clus>
<clus scale="   64.718">  2  5  1 -1</clus>
</clustering>
</event>
<event>
 9    1  0.7586638E-005  0.2007683E+03  0.7546771E-02  0.1178328E+00
          1   -1    0    0  502    0 -0.00000000000E+00  0.00000000000E+00  0.81182413990E+02  0.81182413990E+02  0.00000000000E+00 0. -1.
         21   -1    0    0  501  502  0.00000000000E+00 -0.00000000000E+00 -0.77333347079E+03  0.77333347079E+03  0.00000000000E+00 0. -1.
         23    2    1    2    0    0  0.26772547455E+02 -0.38420830954E+02 -0.15572798629E+03  0.18621104524E+03  0.90721651825E+02 0.  0.
        -24    2    1    2    0    0 -0.17746675068E+03  0.93988608213E+02 -0.41160399317E+03  0.46489313185E+03  0.79871589282E+02 0.  0.
         13    1    4    4    0    0 -0.16579194151E+03  0.10780416947E+03 -0.38316763174E+03  0.43119153614E+03  0.00000000000E+00 0. -1.
        -14    1    4    4    0    0 -0.11674809177E+02 -0.13815561255E+02 -0.28436361429E+02  0.33701595711E+02  0.00000000000E+00 0.  1.
        -11    1    3    3    0    0 -0.20240625540E+02  0.14434399687E+02 -0.15905299687E+02  0.29512935719E+02  0.00000000000E+00 0.  1.
         11    1    3    3    0    0  0.47013172995E+02 -0.52855230641E+02 -0.13982268660E+03  0.15669810953E+03  0.00000000000E+00 0. -1.
          2    1    1    2  501    0  0.15069420323E+03 -0.55567777259E+02 -0.12481907735E+03  0.20341170769E+03  0.00000000000E+00 0. -1.
<scales pt_clust_5="13000.00000" pt_clust_6="13000.00000" pt_clust_7="13000.00000" pt_clust_8="13000.00000" pt_clust_9="184.19682"></scales>
<clustering>
<clus scale="   79.872">  5  6 -1 -1</clus>
<clus scale="   90.722">  7  8 -1 -1</clus>
<clus scale="  102.095">  1  7  2 -1</clus>
<clus scale="  184.197">  2  9  1 -1</clus>
<clus scale="  184.197">  2  5  1 -1</clus>
</clustering>
</event>
<event>
 9    1  0.7586638E-005  0.1357908E+03  0.7546771E-02  0.1221174E+00
          1   -1    0    0  502    0 -0.00000000000E+00  0.00000000000E+00  0.33384949439E+02  0.33384949439E+02  0.00000000000E+00 0. -1.
         21   -1    0    0  501  502  0.00000000000E+00 -0.00000000000E+00 -0.11100436644E+04  0.11100436644E+04  0.00000000000E+00 0. -1.
         23    2    1    2    0    0  0.89377015207E+02  0.13740386483E+02 -0.22082315846E+03  0.25589461586E+03  0.92423687707E+02 0.  0.
        -24    2    1    2    0    0 -0.12306207291E+03  0.54737944348E+02 -0.56156989211E+03  0.58353359312E+03  0.83726902736E+02 0.  0.
         13    1    4    4    0    0 -0.27273147035E+02  0.30639250533E+02 -0.62330632760E+02  0.74616995401E+02  0.00000000000E+00 0. -1.
        -14    1    4    4    0    0 -0.95788925877E+02  0.24098693815E+02 -0.49923925935E+03  0.50891659772E+03  0.00000000000E+00 0.  1.
        -11    1    3    3    0    0  0.16103699773E+01  0.21744414926E+02 -0.44387776517E+01  0.22251193653E+02  0.00000000000E+00 0.  1.
         11    1    3    3    0    0  0.87766645230E+02 -0.80040284429E+01 -0.21638438080E+03  0.23364342221E+03  0.00000000000E+00 0. -1.
          2    1    1    2  501    0  0.33685057705E+02 -0.68478330831E+02 -0.29426566440E+03  0.30400040485E+03  0.00000000000E+00 0. -1.
<scales pt_clust_5="13000.00000" pt_clust_6="13000.00000" pt_clust_7="13000.00000" pt_clust_8="13000.00000" pt_clust_9="76.31491"></scales>
<clustering>
<clus scale="   76.315">  2  9  1 -1</clus>
<clus scale="   83.727">  5  6 -1 -1</clus>
<clus scale="   92.424">  7  8 -1 -1</clus>
<clus scale="  130.028">  2  5  1 -1</clus>
<clus scale="   76.315">  2  5  1 -1</clus>
</clustering>
</event>
<event>
 9    1  0.7586638E-005  0.2011056E+03  0.7546771E-02  0.1149758E+00
         21   -1    0    0  501  502  0.00000000000E+00  0.00000000000E+00  0.49780412514E+03  0.49780412514E+03  0.00000000000E+00 0. -1.
         -2   -1    0    0    0  501 -0.00000000000E+00 -0.00000000000E+00 -0.58161077088E+03  0.58161077088E+03  0.00000000000E+00 0.  1.
        -24    2    1    2    0    0  0.14764526436E+03 -0.86833373899E+02 -0.45607965135E+03  0.49380720861E+03  0.80608634724E+02 0.  0.
         23    2    1    2    0    0 -0.25322622221E+03  0.10863853531E+03  0.12519710085E+03  0.31603523621E+03  0.90984094752E+02 0.  0.
         11    1    3    3    0    0  0.79300816622E+02 -0.23713661131E+01 -0.16421658029E+03  0.18237688488E+03  0.00000000000E+00 0. -1.
        -12    1    3    3    0    0  0.68344447738E+02 -0.84462007786E+02 -0.29186307106E+03  0.31143032374E+03  0.00000000000E+00 0.  1.
        -13    1    4    4    0    0 -0.22214204762E+03  0.63915914119E+02  0.12225177896E+03  0.26149155026E+03  0.00000000000E+00 0. -1.
         13    1    4    4    0    0 -0.31084174587E+02  0.44722621194E+02  0.29453218921E+01  0.54543685953E+02  0.00000000000E+00 0.  1.
         -1    1    1    2    0  502  0.10558095785E+03 -0.21805161414E+02  0.24707590477E+03  0.26957245119E+03  0.00000000000E+00 0.  1.
<scales pt_clust_5="13000.00000" pt_clust_6="13000.00000" pt_clust_7="13000.00000" pt_clust_8="13000.00000" pt_clust_9="107.80911"></scales>
<clustering>
<clus scale="   80.609">  5  6 -1 -1</clus>
<clus scale="   90.984">  7  8 -1 -1</clus>
<clus scale="  107.809">  1  9  2 -1</clus>
<clus scale="  196.629">  2  5  1 -1</clus>
<clus scale="  107.809">  1  5  2 -1</clus>
</clustering>
</event>
<event>
 9    1  0.7586638E-005  0.1650435E+03  0.7546771E-02  0.1185742E+00
         -2   -1    0    0    0  501 -0.00000000000E+00  0.00000000000E+00  0.98913464231E+03  0.98913464231E+03  0.00000000000E+00 0.  1.
         21   -1    0    0  501  502  0.00000000000E+00 -0.00000000000E+00 -0.85201404788E+02  0.85201404788E+02  0.00000000000E+00 0.  1.
        -24    2    1    2    0    0  0.80781124135E+02 -0.11343828327E+03  0.84589318494E+03  0.86114517229E+03  0.81497811641E+02 0.  0.
         23    2    1    2    0    0 -0.78252699401E+02  0.61713695372E+02  0.74905729167E+02  0.15872733681E+03  0.98241712260E+02 0.  0.
         11    1    3    3    0    0  0.50511665913E+02 -0.77518332205E+01  0.29416219223E+03  0.29856810722E+03  0.00000000000E+00 0. -1.
        -12    1    3    3    0    0  0.30269458222E+02 -0.10568645005E+03  0.55173099270E+03  0.56257706506E+03  0.00000000000E+00 0.  1.
        -11    1    4    4    0    0 -0.12304428155E+02 -0.26488193001E+02  0.21897130941E+02  0.36503529474E+02  0.00000000000E+00 0.  1.
         11    1    4    4    0    0 -0.65948271246E+02  0.88201888372E+02  0.53008598227E+02  0.12222380733E+03  0.00000000000E+00 0. -1.
         -1    1    1    2    0  502 -0.25284247334E+01  0.51724587902E+02 -0.16865676583E+02  0.54463538004E+02  0.00000000000E+00 0.  1.
<scales pt_clust_5="13000.00000" pt_clust_6="13000.00000" pt_clust_7="13000.00000" pt_clust_8="13000.00000" pt_clust_9="51.78635"></scales>
<clustering>
<clus scale="   51.786">  2  9  1 -1</clus>
<clus scale="   81.498">  5  6 -1 -1</clus>
<clus scale="   98.242">  7  8 -1 -1</clus>
<clus scale="  155.659">  1  5  2 -1</clus>
<clus scale="   51.786">  2  5  1 -1</clus>
</clustering>
</event>
<event>
 9    1  0.7586638E-005  0.2909534E+03  0.7546771E-02  0.1103297E+00
         21   -1    0    0  501  502  0.00000000000E+00  0.00000000000E+00  0.10566182191E+03  0.10566182191E+03  0.00000000000E+00 0. -1.
          1   -1    0    0  502    0 -0.00000000000E+00 -0.00000000000E+00 -0.25731294203E+04  0.25731294203E+04  0.00000000000E+00 0. -1.
        -24    2    1    2    0    0 -0.12050256198E+03  0.14532241523E+03 -0.84134277712E+02  0.22141835122E+03  0.79423156329E+02 0.  0.
         23    2    1    2    0    0  0.74305686011E+02 -0.35412430172E+03 -0.12668556343E+04  0.13205990334E+04  0.90184548416E+02 0.  0.
         11    1    3    3    0    0 -0.93507581019E+02  0.91290044495E+02 -0.18103093412E+02  0.13192900334E+03  0.00000000000E+00 0. -1.
        -12    1    3    3    0    0 -0.26994980961E+02  0.54032370731E+02 -0.66031184300E+02  0.89489347880E+02  0.00000000000E+00 0.  1.
        -13    1    4    4    0    0 -0.18441287998E+02 -0.11213010221E+03 -0.37151006820E+03  0.38850092882E+03  0.00000000000E+00 0.  1.
         13    1    4    4    0    0  0.92746974009E+02 -0.24199419951E+03 -0.89534556610E+03  0.93209810455E+03  0.00000000000E+00 0. -1.
          2    1    1    2  501    0  0.46196875968E+02  0.20880188649E+03 -0.11164776863E+04  0.11367738576E+04  0.00000000000E+00 0. -1.
<scales pt_clust_5="13000.00000" pt_clust_6="13000.00000" pt_clust_7="13000.00000" pt_clust_8="13000.00000" pt_clust_9="276.62357"></scales>
<clustering>
<clus scale="   79.423">  5  6 -1 -1</clus>
<clus scale="   90.185">  7  8 -1 -1</clus>
<clus scale="  204.811">  2  5  1 -1</clus>
<clus scale="  276.624">  1  9  2 -1</clus>
<clus scale="  276.624">  1  5  2 -1</clus>
</clustering>
</event>
<event>
 9    1  0.7586638E-005  0.9548113E+02  0.7546771E-02  0.1296144E+00
         -4   -1    0    0    0  501 -0.00000000000E+00  0.00000000000E+00  0.11305089630E+03  0.11305089630E+03  0.00000000000E+00 0.  1.
         21   -1    0    0  501  502  0.00000000000E+00 -0.00000000000E+00 -0.24071725628E+03  0.24071725628E+03  0.00000000000E+00 0.  1.
        -24    2    1    2    0    0 -0.21386578839E+02  0.17810396824E+02  0.64531439808E+02  0.10694485016E+03  0.80612023069E+02 0.  0.
         23    2    1    2    0    0  0.35927003202E+02  0.23288654579E+01 -0.66183128900E+02  0.11838377926E+03  0.91314508533E+02 0.  0.
         11    1    3    3    0    0 -0.38226534282E+02  0.12485200291E+01  0.21555243888E-01  0.38246923930E+02  0.00000000000E+00 0. -1.
        -12    1    3    3    0    0  0.16839955443E+02  0.16561876795E+02  0.64509884565E+02  0.68697926234E+02  0.00000000000E+00 0.  1.
        -11    1    4    4    0    0  0.27538026323E+02 -0.22156495813E+02 -0.81130402805E+02  0.88495171957E+02  0.00000000000E+00 0. -1.
         11    1    4    4    0    0  0.83889768790E+01  0.24485361271E+02  0.14947273905E+02  0.29888607308E+02  0.00000000000E+00 0.  1.
         -3    1    1    2    0  502 -0.14540424363E+02 -0.20139262282E+02 -0.12601467090E+03  0.12843952315E+03  0.00000000000E+00 0.  1.
<scales pt_clust_5="13000.00000" pt_clust_6="13000.00000" pt_clust_7="13000.00000" pt_clust_8="13000.00000" pt_clust_9="24.83976"></scales>
<clustering>
<clus scale="   24.840">  2  9  1 -1</clus>
<clus scale="   80.612">  5  6 -1 -1</clus>
<clus scale="   85.303">  1  5  2 -1</clus>
<clus scale="   91.315">  7  8 -1 -1</clus>
<clus scale="   24.840">  2  5  1 -1</clus>
</clustering>
</event>
<event>
 9    1  0.7586638E-005  0.2244757E+03  0.7546771E-02  0.1173738E+00
          1   -1    0    0  502    0 -0.00000000000E+00  0.00000000000E+00  0.56199638212E+03  0.56199638212E+03  0.00000000000E+00 0. -1.
         21   -1    0    0  501  502  0.00000000000E+00 -0.00000000000E+00 -0.14060113155E+03  0.14060113155E+03  0.00000000000E+00 0.  1.
        -24    2    1    2    0    0  0.34762258559E+01  0.22156551500E+01  0.14337514040E+02  0.82298861165E+02  0.80935437023E+02 0.  0.
         23    2    1    2    0    0  0.40800566596E+02 -0.19652372423E+03  0.82693055725E+02  0.23960388473E+03  0.10141804421E+03 0.  0.
         13    1    3    3    0    0  0.42206067714E+02 -0.45765428487E+00  0.81078646287E+01  0.42980217172E+02  0.00000000000E+00 0. -1.
        -14    1    3    3    0    0 -0.38729841858E+02  0.26733094349E+01  0.62296494118E+01  0.39318643993E+02  0.00000000000E+00 0.  1.
        -13    1    4    4    0    0  0.27808679973E+02 -0.16058736923E+03  0.10640016839E+03  0.19463458498E+03  0.00000000000E+00 0.  1.
         13    1    4    4    0    0  0.12991886623E+02 -0.35936355000E+02 -0.23707112662E+02  0.44969299745E+02  0.00000000000E+00 0. -1.
          2    1    1    2  501    0 -0.44276792452E+02  0.19430806908E+03  0.32436468081E+03  0.38069476778E+03  0.00000000000E+00 0. -1.
<scales pt_clust_5="13000.00000" pt_clust_6="13000.00000" pt_clust_7="13000.00000" pt_clust_8="13000.00000" pt_clust_9="200.25924"></scales>
<clustering>
<clus scale="   80.935">  5  6 -1 -1</clus>
<clus scale="   81.040">  1  5  2 -1</clus>
<clus scale="  101.418">  7  8 -1 -1</clus>
<clus scale="  200.259">  2  9  1 -1</clus>
<clus scale="  200.259">  2  5  1 -1</clus>
</clustering>
</event>
<event>
 9    1  0.7586638E-005  0.1349459E+03  0.7546771E-02  0.1228922E+00
          1   -1    0    0  502    0 -0.00000000000E+00  0.00000000000E+00  0.20111025316E+03  0.20111025316E+03  0.00000000000E+00 0. -1.
         21   -1    0    0  501  502  0.00000000000E+00 -0.00000000000E+00 -0.31218119204E+03  0.31218119204E+03  0.00000000000E+00 0.  1.
         23    2    1    2    0    0  0.57470220193E+02 -0.23224445779E+02  0.36648854719E+00  0.11274853854E+03  0.94180133463E+02 0.  0.
        -24    2    1    2    0    0  0.99500047570E+02  0.15943354873E+02 -0.18619927497E+03  0.22652562851E+03  0.80555821278E+02 0.  0.
         11    1    4    4    0    0  0.11238626289E+02  0.35715557014E+02 -0.41606134742E+02  0.55973012978E+02  0.00000000000E+00 0. -1.
        -12    1    4    4    0    0  0.88261421281E+02 -0.19772202141E+02 -0.14459314022E+03  0.17055261553E+03  0.00000000000E+00 0.  1.
        -13    1    3    3    0    0  0.31601827338E+02 -0.49658942762E+02 -0.28909904845E+02  0.65577958839E+02  0.00000000000E+00 0. -1.
         13    1    3    3    0    0  0.25868392855E+02  0.26434496983E+02  0.29276393392E+02  0.47170579705E+02  0.00000000000E+00 0.  1.
          2    1    1    2  501    0 -0.15697026776E+03  0.72810909064E+01  0.74761847534E+02  0.17401727814E+03  0.00000000000E+00 0. -1.
<scales pt_clust_5="13000.00000" pt_clust_6="13000.00000" pt_clust_7="13000.00000" pt_clust_8="13000.00000" pt_clust_9="108.26436"></scales>
<clustering>
<clus scale="   80.556">  5  6 -1 -1</clus>
<clus scale="   94.180">  7  8 -1 -1</clus>
<clus scale="  112.748">  1  7  2 -1</clus>
<clus scale="  108.264">  2  9  1 -1</clus>
<clus scale="  108.264">  2  5  1 -1</clus>
</clustering>
</event>
<event>
 9    1  0.7586638E-005  0.2548783E+03  0.7546771E-02  0.1119653E+00
         -2   -1    0    0    0  501 -0.00000000000E+00  0.00000000000E+00  0.17970253362E+03  0.17970253362E+03  0.00000000000E+00 0.  1.
         21   -1    0    0  501  502  0.00000000000E+00 -0.00000000000E+00 -0.78685152018E+03  0.78685152018E+03  0.00000000000E+00 0.  1.
        -24    2    1    2    0    0  0.15040414932E+03  0.10685591332E+03 -0.24066033372E+03  0.31360946837E+03  0.79961916392E+02 0.  0.
         23    2    1    2    0    0 -0.18303108388E+02  0.19234110989E+03 -0.14367079361E+03  0.25719549560E+03  0.90432956866E+02 0.  0.
         11    1    3    3    0    0  0.79937368871E+02  0.32175309046E+02 -0.57376328177E+02  0.10352427971E+03  0.00000000000E+00 0. -1.
        -12    1    3    3    0    0  0.70466780454E+02  0.74680604278E+02 -0.18328400555E+03  0.21008518866E+03  0.00000000000E+00 0.  1.
        -13    1    4    4    0    0 -0.66072190353E+01  0.17080065059E+03 -0.79517772383E+02  0.18851947833E+03  0.00000000000E+00 0.  1.
         13    1    4    4    0    0 -0.11695889353E+02  0.21540459300E+02 -0.64153021232E+02  0.68676017268E+02  0.00000000000E+00 0. -1.
         -1    1    1    2    0  502 -0.13210104094E+03 -0.29919702321E+03 -0.22281785922E+03  0.39574908983E+03  0.00000000000E+00 0.  1.
<scales pt_clust_5="13000.00000" pt_clust_6="13000.00000" pt_clust_7="13000.00000" pt_clust_8="13000.00000" pt_clust_9="238.29584"></scales>
<clustering>
<clus scale="   79.962">  5  6 -1 -1</clus>
<clus scale="   90.433">  7  8 -1 -1</clus>
<clus scale="  201.081">  1  5  2 -1</clus>
<clus scale="  238.296">  2  9  1 -1</clus>
<clus scale="  238.296">  2  5  1 -1</clus>
</clustering>
</event>
<event>
 9    1  0.7586638E-005  0.1152005E+03  0.7546771E-02  0.1256127E+00
         21   -1    0    0  501  502  0.00000000000E+00  0.00000000000E+00  0.50394478523E+03  0.50394478523E+03  0.00000000000E+00 0.  1.
          1   -1    0    0  502    0 -0.00000000000E+00 -0.00000000000E+00 -0.10522643866E+03  0.10522643866E+03  0.00000000000E+00 0. -1.
         23    2    1    2    0    0  0.74260898907E+02 -0.68893965530E+01 -0.56512590670E+02  0.13169782091E+03  0.92674150854E+02 0.  0.
        -24    2    1    2    0    0 -0.19595736962E+02 -0.16127952805E+02  0.30095680895E+03  0.31219005549E+03  0.79015986494E+02 0.  0.
         13    1    4    4    0    0 -0.48015422803E+02 -0.19831585754E+02  0.15585689501E+03  0.16428677470E+03  0.00000000000E+00 0. -1.
        -14    1    4    4    0    0  0.28419685841E+02  0.37036329494E+01  0.14509991395E+03  0.14790328079E+03  0.00000000000E+00 0.  1.
        -11    1    3    3    0    0  0.32325783644E+02 -0.45073470100E+02 -0.60729911674E+01  0.55798344212E+02  0.00000000000E+00 0.  1.
         11    1    3    3    0    0  0.41935115263E+02  0.38184073547E+02 -0.50439599503E+02  0.75899476696E+02  0.00000000000E+00 0. -1.
          2    1    1    2  501    0 -0.54665161945E+02  0.23017349358E+02  0.15427412829E+03  0.16528334750E+03  0.00000000000E+00 0. -1.
<scales pt_clust_5="13000.00000" pt_clust_6="13000.00000" pt_clust_7="13000.00000" pt_clust_8="13000.00000" pt_clust_9="59.31339"></scales>
<clustering>
<clus scale="   59.313">  1  9  2 -1</clus>
<clus scale="   79.016">  5  6 -1 -1</clus>
<clus scale="   92.674">  7  8 -1 -1</clus>
<clus scale="  104.528">  1  5  2 -1</clus>
<clus scale="   59.313">  1  5  2 -1</clus>
</clustering>
</event>
<event>
 9    1  0.7586638E-005  0.1021155E+03  0.7546771E-02  0.1282394E+00
         21   -1    0    0  501  502  0.00000000000E+00  0.00000000000E+00  0.27030151628E+02  0.27030151628E+02  0.00000000000E+00 0. -1.
          1   -1    0    0  502    0 -0.00000000000E+00 -0.00000000000E+00 -0.66878195777E+03  0.66878195777E+03  0.00000000000E+00 0. -1.
         23    2    1    2    0    0 -0.10997750528E+02  0.42364673956E+02 -0.26905063478E+03  0.28806487665E+03  0.93152632638E+02 0.  0.
        -24    2    1    2    0    0 -0.51046345842E+02 -0.30696177602E+02 -0.26165818297E+03  0.28001247251E+03  0.79962461844E+02 0.  0.
         11    1    4    4    0    0 -0.60337181603E+02 -0.41076310841E+02 -0.25365098803E+03  0.26394443075E+03  0.00000000000E+00 0. -1.
        -12    1    4    4    0    0  0.92908357611E+01  0.10380133239E+02 -0.80071949382E+01  0.16068041759E+02  0.00000000000E+00 0.  1.
        -13    1    3    3    0    0  0.19579850751E+02  0.87883012580E+01 -0.77049478089E+01  0.22802872959E+02  0.00000000000E+00 0. -1.
         13    1    3    3    0    0 -0.30577601279E+02  0.33576372698E+02 -0.26134568697E+03  0.26526200369E+03  0.00000000000E+00 0.  1.
          2    1    1    2  501    0  0.62044096370E+02 -0.11668496354E+02 -0.11104298839E+03  0.12773476023E+03  0.00000000000E+00 0. -1.
<scales pt_clust_5="13000.00000" pt_clust_6="13000.00000" pt_clust_7="13000.00000" pt_clust_8="13000.00000" pt_clust_9="63.13180"></scales>
<clustering>
<clus scale="   63.132">  1  9  2 -1</clus>
<clus scale="   79.962">  5  6 -1 -1</clus>
<clus scale="   90.245">  1  5  2 -1</clus>
<clus scale="   93.153">  7  8 -1 -1</clus>
<clus scale="   63.132">  1  5  2 -1</clus>
</clustering>
</event>
<event>
 9    1  0.7586638E-005  0.9227454E+02  0.7546771E-02  0.1304037E+00
         -2   -1    0    0    0  501 -0.00000000000E+00  0.00000000000E+00  0.30912866991E+03  0.30912866991E+03  0.00000000000E+00 0.  1.
         21   -1    0    0  501  502  0.00000000000E+00 -0.00000000000E+00 -0.87695728440E+02  0.87695728440E+02  0.00000000000E+00 0. -1.
         23    2    1    2    0    0 -0.13414642172E+02 -0.19528547933E+01  0.22853728641E+03  0.24641647867E+03  0.91148359354E+02 0.  0.
        -24    2    1    2    0    0  0.14469029917E+02 -0.49204184673E+02 -0.20371723442E+02  0.97547937151E+02  0.80437480756E+02 0.  0.
         13    1    4    4    0    0 -0.56337705814E+01 -0.56479758411E+02  0.12704062518E+02  0.58164385027E+02  0.00000000000E+00 0. -1.
        -14    1    4    4    0    0  0.20102800498E+02  0.72755737376E+01 -0.33075785959E+02  0.39383552124E+02  0.00000000000E+00 0.  1.
        -13    1    3    3    0    0 -0.28027328734E+02  0.37217490961E+02  0.15471601756E+03  0.16157883178E+03  0.00000000000E+00 0.  1.
         13    1    3    3    0    0  0.14612686562E+02 -0.39170345754E+02  0.73821268856E+02  0.84837646894E+02  0.00000000000E+00 0. -1.
         -1    1    1    2    0  502 -0.10543877453E+01  0.51157039467E+02  0.13267378496E+02  0.52859982526E+02  0.00000000000E+00 0.  1.
<scales pt_clust_5="13000.00000" pt_clust_6="13000.00000" pt_clust_7="13000.00000" pt_clust_8="13000.00000" pt_clust_9="51.16790"></scales>
<clustering>
<clus scale="   51.168">  2  9  1 -1</clus>
<clus scale="   80.437">  5  6 -1 -1</clus>
<clus scale="   81.711">  2  5  1 -1</clus>
<clus scale="   91.148">  7  8 -1 -1</clus>
<clus scale="   51.168">  2  5  1 -1</clus>
</clustering>
</event>
<event>
 9    1  0.7586638E-005  0.1002440E+03  0.7546771E-02  0.1300493E+00
         21   -1    0    0  501  502  0.00000000000E+00  0.00000000000E+00  0.31311438058E+03  0.31311438058E+03  0.00000000000E+00 0. -1.
         -4   -1    0    0    0  501 -0.00000000000E+00 -0.00000000000E+00 -0.62003392330E+02  0.62003392330E+02  0.00000000000E+00 0.  1.
        -24    2    1    2    0    0  0.28888763593E+02  0.39391665974E+01  0.38077244095E+02  0.74418612945E+02  0.56904971130E+02 0.  0.
         23    2    1    2    0    0 -0.57533871978E+02 -0.53868714074E+02  0.21026226033E+03  0.24306945349E+03  0.93062110010E+02 0.  0.
         13    1    3    3    0    0  0.15297647555E+02 -0.24822139247E+02  0.70840487783E+01  0.30005672207E+02  0.00000000000E+00 0. -1.
        -14    1    3    3    0    0  0.13591116038E+02  0.28761305844E+02  0.30993195317E+02  0.44412940738E+02  0.00000000000E+00 0.  1.
        -11    1    4    4    0    0 -0.42571712975E+02 -0.26090316015E+02  0.20511001959E+03  0.21109991822E+03  0.00000000000E+00 0. -1.
         11    1    4    4    0    0 -0.14962159003E+02 -0.27778398059E+02  0.51522407388E+01  0.31969535270E+02  0.00000000000E+00 0.  1.
         -3    1    1    2    0  502  0.28645108385E+02  0.49929547476E+02  0.27714838219E+01  0.57629706473E+02  0.00000000000E+00 0.  1.
<scales pt_clust_5="13000.00000" pt_clust_6="13000.00000" pt_clust_7="13000.00000" pt_clust_8="13000.00000" pt_clust_9="57.56305"></scales>
<clustering>
<clus scale="   56.905">  5  6 -1 -1</clus>
<clus scale="   57.563">  1  9  2 -1</clus>
<clus scale="   68.018">  2  5  1 -1</clus>
<clus scale="   93.062">  7  8 -1 -1</clus>
<clus scale="   57.563">  1  5  2 -1</clus>
</clustering>
</event>
<event>
 9    1  0.7586638E-005  0.2151697E+03  0.7546771E-02  0.1177385E+00
         -2   -1    0    0    0  501 -0.00000000000E+00  0.00000000000E+00  0.47100201698E+03  0.47100201698E+03  0.00000000000E+00 0.  1.
         21   -1    0    0  501  502  0.00000000000E+00 -0.00000000000E+00 -0.16756811597E+03  0.16756811597E+03  0.00000000000E+00 0.  1.
        -24    2    1    2    0    0  0.30271544872E+01 -0.29857432213E+02  0.15410419235E+02  0.86111393620E+02  0.79227906495E+02 0.  0.
         23    2    1    2    0    0 -0.10979898153E+03  0.16863741266E+03  0.75963276731E+01  0.22185399832E+03  0.93097256038E+02 0.  0.
         11    1    3    3    0    0 -0.22318999439E+02 -0.48086464791E+02  0.14130723520E+02  0.54864589484E+02  0.00000000000E+00 0. -1.
        -12    1    3    3    0    0  0.25346153927E+02  0.18229032578E+02  0.12796957149E+01  0.31246804136E+02  0.00000000000E+00 0.  1.
        -11    1    4    4    0    0 -0.30815701965E+02  0.24448220340E+02  0.37964296581E+02  0.54668188010E+02  0.00000000000E+00 0. -1.
         11    1    4    4    0    0 -0.78983279562E+02  0.14418919232E+03 -0.30367968908E+02  0.16718581031E+03  0.00000000000E+00 0.  1.
         -1    1    1    2    0  502  0.10677182704E+03 -0.13877998045E+03  0.28042715410E+03  0.33060474101E+03  0.00000000000E+00 0.  1.
<scales pt_clust_5="13000.00000" pt_clust_6="13000.00000" pt_clust_7="13000.00000" pt_clust_8="13000.00000" pt_clust_9="193.98695"></scales>
<clustering>
<clus scale="   79.228">  5  6 -1 -1</clus>
<clus scale="   84.721">  1  5  2 -1</clus>
<clus scale="   93.097">  7  8 -1 -1</clus>
<clus scale="  193.987">  2  9  1 -1</clus>
<clus scale="  193.987">  2  5  1 -1</clus>
</clustering>
</event>
<event>
 9    1  0.7586638E-005  0.1376405E+03  0.7546771E-02  0.1219069E+00
         21   -1    0    0  501  502  0.00000000000E+00  0.00000000000E+00  0.32371790513E+02  0.32371790513E+02  0.00000000000E+00 0.  1.
          1   -1    0    0  502    0 -0.00000000000E+00 -0.00000000000E+00 -0.12252090210E+04  0.12252090210E+04  0.00000000000E+00 0. -1.
        -24    2    1    2    0    0  0.85974918076E+02 -0.59408791613E+02 -0.94217289664E+03  0.95135247116E+03  0.80378269230E+02 0.  0.
         23    2    1    2    0    0 -0.94914731905E+02  0.30302809488E+02 -0.23690866736E+03  0.27281731184E+03  0.91523234061E+02 0.  0.
         13    1    3    3    0    0  0.64923577631E+02 -0.28921863191E+01 -0.33908558979E+03  0.34525711127E+03  0.00000000000E+00 0. -1.
        -14    1    3    3    0    0  0.21051340445E+02 -0.56516605294E+02 -0.60308730684E+03  0.60609535989E+03  0.00000000000E+00 0.  1.
        -11    1    4    4    0    0 -0.37997170905E+02  0.31805963831E+02 -0.29352504796E+02  0.57593175549E+02  0.00000000000E+00 0.  1.
         11    1    4    4    0    0 -0.56917561000E+02 -0.15031543431E+01 -0.20755616257E+03  0.21522413629E+03  0.00000000000E+00 0. -1.
          2    1    1    2  501    0  0.89398138289E+01  0.29105982125E+02 -0.13755666512E+02  0.33411028538E+02  0.00000000000E+00 0. -1.
<scales pt_clust_5="13000.00000" pt_clust_6="13000.00000" pt_clust_7="13000.00000" pt_clust_8="13000.00000" pt_clust_9="30.44796"></scales>
<clustering>
<clus scale="   30.448">  1  9  2 -1</clus>
<clus scale="   80.378">  5  6 -1 -1</clus>
<clus scale="   91.523">  7  8 -1 -1</clus>
<clus scale="  130.495">  2  5  1 -1</clus>
<clus scale="   30.448">  1  5  2 -1</clus>
</clustering>
</event>
<event>
 9    1  0.7586638E-005  0.1201720E+03  0.7546771E-02  0.1247362E+00
         21   -1    0    0  501  502  0.00000000000E+00  0.00000000000E+00  0.25621786398E+03  0.25621786398E+03  0.00000000000E+00 0. -1.
          3   -1    0    0  502    0 -0.00000000000E+00 -0.00000000000E+00 -0.10510869696E+03  0.10510869696E+03  0.00000000000E+00 0. -1.
         23    2    1    2    0    0  0.73344894021E+02  0.24084678832E+02 -0.38725728598E+02  0.12733836287E+03  0.93572599459E+02 0.  0.
        -24    2    1    2    0    0 -0.71878156418E+02 -0.24192007898E+01  0.12053818349E+03  0.16136878902E+03  0.79612250876E+02 0.  0.
         13    1    4    4    0    0 -0.19862463674E+02 -0.25741002027E+01  0.10526994433E+03  0.10715831575E+03  0.00000000000E+00 0. -1.
        -14    1    4    4    0    0 -0.52015692743E+02  0.15489941284E+00  0.15268239156E+02  0.54210473272E+02  0.00000000000E+00 0.  1.
        -11    1    3    3    0    0  0.34814852210E+02  0.54710429093E+02 -0.22304750952E+00  0.64848706510E+02  0.00000000000E+00 0. -1.
         11    1    3    3    0    0  0.38530041811E+02 -0.30625750260E+02 -0.38502681088E+02  0.62489656359E+02  0.00000000000E+00 0.  1.
          4    1    1    2  501    0 -0.14667376026E+01 -0.21665478043E+02  0.69296712139E+02  0.72619409053E+02  0.00000000000E+00 0. -1.
<scales pt_clust_5="13000.00000" pt_clust_6="13000.00000" pt_clust_7="13000.00000" pt_clust_8="13000.00000" pt_clust_9="21.71507"></scales>
<clustering>
<clus scale="   21.715">  1  9  2 -1</clus>
<clus scale="   79.612">  5  6 -1 -1</clus>
<clus scale="   93.573">  7  8 -1 -1</clus>
<clus scale="  109.652">  1  5  2 -1</clus>
<clus scale="   21.715">  1  5  2 -1</clus>
</clustering>
</event>
<event>
 9    1  0.7586638E-005  0.1389953E+03  0.7546771E-02  0.1236397E+00
         21   -1    0    0  501  502  0.00000000000E+00  0.00000000000E+00  0.32054879171E+03  0.32054879171E+03  0.00000000000E+00 0. -1.
          1   -1    0    0  502    0 -0.00000000000E+00 -0.00000000000E+00 -0.14931614977E+03  0.14931614977E+03  0.00000000000E+00 0. -1.
        -24    2    1    2    0    0 -0.48365182578E+01  0.45070690135E+02  0.40934029162E+02  0.97489982901E+02  0.75986465930E+02 0.  0.
         23    2    1    2    0    0 -0.24672619598E+02  0.93385170008E+02  0.17872550126E+03  0.22275551481E+03  0.91365674296E+02 0.  0.
         11    1    3    3    0    0  0.66876631511E+01  0.54497914347E+02  0.10491730718E+01  0.54916739440E+02  0.00000000000E+00 0. -1.
        -12    1    3    3    0    0 -0.11524181409E+02 -0.94272242117E+01  0.39884856090E+02  0.42573243461E+02  0.00000000000E+00 0.  1.
        -11    1    4    4    0    0  0.57335000092E+00  0.66682855278E+02  0.17320114220E+03  0.18559517121E+03  0.00000000000E+00 0. -1.
         11    1    4    4    0    0 -0.25245969599E+02  0.26702314730E+02  0.55243590646E+01  0.37160343594E+02  0.00000000000E+00 0.  1.
          2    1    1    2  501    0  0.29509137856E+02 -0.13845586014E+03 -0.48426888495E+02  0.14961944377E+03  0.00000000000E+00 0. -1.
<scales pt_clust_5="13000.00000" pt_clust_6="13000.00000" pt_clust_7="13000.00000" pt_clust_8="13000.00000" pt_clust_9="104.74734"></scales>
<clustering>
<clus scale="   75.986">  5  6 -1 -1</clus>
<clus scale="   88.480">  2  5  1 -1</clus>
<clus scale="   91.366">  7  8 -1 -1</clus>
<clus scale="  104.747">  1  9  2 -1</clus>
<clus scale="  104.747">  1  5  2 -1</clus>
</clustering>
</event>
<event>
 9    1  0.7586638E-005  0.1230598E+03  0.7546771E-02  0.1241670E+00
          3   -1    0    0  502    0 -0.00000000000E+00  0.00000000000E+00  0.28404905242E+03  0.28404905242E+03  0.00000000000E+00 0. -1.
         21   -1    0    0  501  502  0.00000000000E+00 -0.00000000000E+00 -0.61170087005E+02  0.61170087005E+02  0.00000000000E+00 0. -1.
        -24    2    1    2    0    0 -0.74235510244E+02  0.26131437322E+02  0.11645586410E+03  0.16120567059E+03  0.78940084553E+02 0.  0.
         23    2    1    2    0    0  0.89908563908E+02 -0.11095985586E+02  0.88853386888E+02  0.15607775182E+03  0.90877222078E+02 0.  0.
         11    1    3    3    0    0  0.65427688093E+01  0.25029874031E+02  0.51167440692E+02  0.57335934671E+02  0.00000000000E+00 0. -1.
        -12    1    3    3    0    0 -0.80778279053E+02  0.11015632909E+01  0.65288423405E+02  0.10386973592E+03  0.00000000000E+00 0.  1.
        -13    1    4    4    0    0 -0.25544014560E+00 -0.28378404300E+02  0.47625502122E+02  0.55439945280E+02  0.00000000000E+00 0.  1.
         13    1    4    4    0    0  0.90164004054E+02  0.17282418714E+02  0.41227884766E+02  0.10063780654E+03  0.00000000000E+00 0. -1.
          4    1    1    2  501    0 -0.15673053664E+02 -0.15035451735E+02  0.17569714432E+02  0.27935717017E+02  0.00000000000E+00 0. -1.
<scales pt_clust_5="13000.00000" pt_clust_6="13000.00000" pt_clust_7="13000.00000" pt_clust_8="13000.00000" pt_clust_9="21.71887"></scales>
<clustering>
<clus scale="   21.719">  2  9  1 -1</clus>
<clus scale="   78.940">  5  6 -1 -1</clus>
<clus scale="   90.877">  7  8 -1 -1</clus>
<clus scale="  114.528">  1  5  2 -1</clus>
<clus scale="   21.719">  2  5  1 -1</clus>
</clustering>
</event>
<event>
 9    1  0.7586638E-005  0.1235702E+03  0.7546771E-02  0.1240442E+00
          3   -1    0    0  502    0 -0.00000000000E+00  0.00000000000E+00  0.56313808568E+02  0.56313808568E+02  0.00000000000E+00 0. -1.
         21   -1    0    0  501  502  0.00000000000E+00 -0.00000000000E+00 -0.54448605774E+03  0.54448605774E+03  0.00000000000E+00 0. -1.
        -24    2    1    2    0    0 -0.54609821263E+02  0.28630130194E+02 -0.88293945033E+02  0.13460808417E+03  0.80756415606E+02 0.  0.
         23    2    1    2    0    0  0.12265138784E+03 -0.35751293550E+02 -0.19610112531E+03  0.25123712562E+03  0.91339608112E+02 0.  0.
         13    1    3    3    0    0  0.21284464507E+02  0.96404451952E+01 -0.19756028539E+02  0.30598484873E+02  0.00000000000E+00 0. -1.
        -14    1    3    3    0    0 -0.75894285770E+02  0.18989684998E+02 -0.68537916493E+02  0.10400959930E+03  0.00000000000E+00 0.  1.
        -11    1    4    4    0    0  0.13422443174E+01  0.22129706420E+02 -0.34966809865E+02  0.41402938521E+02  0.00000000000E+00 0.  1.
         11    1    4    4    0    0  0.12130914352E+03 -0.57880999970E+02 -0.16113431545E+03  0.20983418710E+03  0.00000000000E+00 0. -1.
          4    1    1    2  501    0 -0.68041566574E+02  0.71211633560E+01 -0.20377717882E+03  0.21495465652E+03  0.00000000000E+00 0. -1.
<scales pt_clust_5="13000.00000" pt_clust_6="13000.00000" pt_clust_7="13000.00000" pt_clust_8="13000.00000" pt_clust_9="68.41320"></scales>
<clustering>
<clus scale="   68.413">  2  9  1 -1</clus>
<clus scale="   80.756">  5  6 -1 -1</clus>
<clus scale="   91.340">  7  8 -1 -1</clus>
<clus scale="  115.967">  1  5  2 -1</clus>
<clus scale="   68.413">  2  5  1 -1</clus>
</clustering>
</event>
<event>
 9    1  0.7586638E-005  0.1059067E+03  0.7546771E-02  0.1273511E+00
         21   -1    0    0  501  502  0.00000000000E+00  0.00000000000E+00  0.14255436914E+03  0.14255436914E+03  0.00000000000E+00 0. -1.
          1   -1    0    0  502    0 -0.00000000000E+00 -0.00000000000E+00 -0.11446270197E+03  0.11446270197E+03  0.00000000000E+00 0. -1.
        -24    2    1    2    0    0  0.65903489424E+02  0.34514251890E+01  0.21077020035E+02  0.10608580524E+03  0.80341614655E+02 0.  0.
         23    2    1    2    0    0 -0.36609664734E+02  0.12733870318E+02  0.36439349027E+02  0.10636777143E+03  0.92107858710E+02 0.  0.
         13    1    3    3    0    0  0.78728644817E+02 -0.11372484104E+02  0.29379812942E+02  0.84798032512E+02  0.00000000000E+00 0. -1.
        -14    1    3    3    0    0 -0.12825155393E+02  0.14823909293E+02 -0.83027929068E+01  0.21287772726E+02  0.00000000000E+00 0.  1.
        -11    1    4    4    0    0 -0.53878801832E+02  0.26985146659E+02  0.51595811114E+02  0.79330014192E+02  0.00000000000E+00 0. -1.
         11    1    4    4    0    0  0.17269137098E+02 -0.14251276342E+02 -0.15156462087E+02  0.27037757238E+02  0.00000000000E+00 0.  1.
          2    1    1    2  501    0 -0.29293824690E+02 -0.16185295507E+02 -0.29424701888E+02  0.44563494441E+02  0.00000000000E+00 0. -1.
<scales pt_clust_5="13000.00000" pt_clust_6="13000.00000" pt_clust_7="13000.00000" pt_clust_8="13000.00000" pt_clust_9="33.46779"></scales>
<clustering>
<clus scale="   33.468">  1  9  2 -1</clus>
<clus scale="   80.342">  5  6 -1 -1</clus>
<clus scale="   92.108">  7  8 -1 -1</clus>
<clus scale="   95.850">  2  5  1 -1</clus>
<clus scale="   33.468">  1  5  2 -1</clus>
</clustering>
</event>
<event>
 9    1  0.7586638E-005  0.3295375E+03  0.7546771E-02  0.1071342E+00
          1   -1    0    0  502    0 -0.00000000000E+00  0.00000000000E+00  0.24486613051E+03  0.24486613051E+03  0.00000000000E+00 0. -1.
         21   -1    0    0  501  502  0.00000000000E+00 -0.00000000000E+00 -0.11508711290E+04  0.11508711290E+04  0.00000000000E+00 0. -1.
        -24    2    1    2    0    0  0.13694140724E+03  0.27152107697E+02  0.25476301089E+02  0.16319842965E+03  0.80588457936E+02 0.  0.
         23    2    1    2    0    0  0.11841707599E+03 -0.67136907791E+02  0.84491588475E+02  0.18420317346E+03  0.90895612191E+02 0.  0.
         13    1    3    3    0    0  0.33935570085E+02  0.36719962096E+02  0.32298383660E+02  0.59524483370E+02  0.00000000000E+00 0. -1.
        -14    1    3    3    0    0  0.10300583716E+03 -0.95678543996E+01 -0.68220825710E+01  0.10367394628E+03  0.00000000000E+00 0.  1.
        -13    1    4    4    0    0  0.55053951559E+02  0.14591392943E+02  0.48178917479E+02  0.74599292353E+02  0.00000000000E+00 0.  1.
         13    1    4    4    0    0  0.63363124433E+02 -0.81728300734E+02  0.36312670996E+02  0.10960388111E+03  0.00000000000E+00 0. -1.
          2    1    1    2  501    0 -0.25535848324E+03  0.39984800094E+02 -0.10159728880E+04  0.10483356563E+04  0.00000000000E+00 0. -1.
<scales pt_clust_5="13000.00000" pt_clust_6="13000.00000" pt_clust_7="13000.00000" pt_clust_8="13000.00000" pt_clust_9="258.47000"></scales>
<clustering>
<clus scale="   80.588">  5  6 -1 -1</clus>
<clus scale="   90.896">  7  8 -1 -1</clus>
<clus scale="  141.840">  5  7 -1 -1</clus>
<clus scale="  258.470">  2  9  1 -1</clus>
<clus scale="  258.470">  2  5  1 -1</clus>
</clustering>
</event>
<event>
 9    1  0.7586638E-005  0.1450457E+03  0.7546771E-02  0.1208957E+00
         21   -1    0    0  501  502  0.00000000000E+00  0.00000000000E+00  0.31216424253E+02  0.31216424253E+02  0.00000000000E+00 0. -1.
          1   -1    0    0  502    0 -0.00000000000E+00 -0.00000000000E+00 -0.10558648433E+04  0.10558648433E+04  0.00000000000E+00 0. -1.
        -24    2    1    2    0    0 -0.27227081940E+02 -0.10871995822E+03 -0.74148703617E+03  0.75402535656E+03  0.78675728281E+02 0.  0.
         23    2    1    2    0    0  0.10029180441E+02  0.12008648978E+03 -0.21955476156E+03  0.26619210814E+03  0.90180905003E+02 0.  0.
         11    1    3    3    0    0 -0.12641682723E+02 -0.11390188215E+03 -0.54440702653E+03  0.55633844144E+03  0.00000000000E+00 0. -1.
        -12    1    3    3    0    0 -0.14585399217E+02  0.51819239317E+01 -0.19708000965E+03  0.19768691512E+03  0.00000000000E+00 0.  1.
        -11    1    4    4    0    0  0.26202730250E+02  0.43715608609E+02 -0.25430026528E+02  0.56958965561E+02  0.00000000000E+00 0.  1.
         11    1    4    4    0    0 -0.16173549809E+02  0.76370881170E+02 -0.19412473503E+03  0.20923314258E+03  0.00000000000E+00 0. -1.
          2    1    1    2  501    0  0.17197901500E+02 -0.11366531563E+02 -0.63606621280E+02  0.66863802812E+02  0.00000000000E+00 0. -1.
<scales pt_clust_5="13000.00000" pt_clust_6="13000.00000" pt_clust_7="13000.00000" pt_clust_8="13000.00000" pt_clust_9="20.61471"></scales>
<clustering>
<clus scale="   20.615">  1  9  2 -1</clus>
<clus scale="   78.676">  5  6 -1 -1</clus>
<clus scale="   90.181">  7  8 -1 -1</clus>
<clus scale="  138.187">  2  5  1 -1</clus>
<clus scale="   20.615">  1  5  2 -1</clus>
</clustering>
</event>
<event>
 9    1  0.7586638E-005  0.2189527E+03  0.7546771E-02  0.1148907E+00
         21   -1    0    0  501  502  0.00000000000E+00  0.00000000000E+00  0.20741517660E+03  0.20741517660E+03  0.00000000000E+00 0.  1.
          1   -1    0    0  502    0 -0.00000000000E+00 -0.00000000000E+00 -0.63198380248E+03  0.63198380248E+03  0.00000000000E+00 0. -1.
        -24    2    1    2    0    0 -0.11032726919E+03 -0.74655853456E+02  0.56984012060E+02  0.16558124196E+03  0.80152150787E+02 0.  0.
         23    2    1    2    0    0  0.15819667171E+03 -0.12854885759E+03 -0.38143771495E+03  0.44228667637E+03  0.92583896990E+02 0.  0.
         13    1    3    3    0    0 -0.86325143764E+02 -0.89307385707E+02  0.32737025134E+02  0.12845058350E+03  0.00000000000E+00 0. -1.
        -14    1    3    3    0    0 -0.24002125424E+02  0.14651532252E+02  0.24246986926E+02  0.37130658453E+02  0.00000000000E+00 0.  1.
        -11    1    4    4    0    0  0.31347606997E+02  0.59065313568E+01 -0.24135778003E+02  0.40001191944E+02  0.00000000000E+00 0. -1.
         11    1    4    4    0    0  0.12684906471E+03 -0.13445538894E+03 -0.35730193695E+03  0.40228548443E+03  0.00000000000E+00 0.  1.
          2    1    1    2  501    0 -0.47869402520E+02  0.20320471104E+03 -0.10011492299E+03  0.23153106075E+03  0.00000000000E+00 0. -1.
<scales pt_clust_5="13000.00000" pt_clust_6="13000.00000" pt_clust_7="13000.00000" pt_clust_8="13000.00000" pt_clust_9="198.41500"></scales>
<clustering>
<clus scale="   80.152">  5  6 -1 -1</clus>
<clus scale="   92.584">  7  8 -1 -1</clus>
<clus scale="  155.467">  2  5  1 -1</clus>
<clus scale="  198.415">  1  9  2 -1</clus>
<clus scale="  198.415">  1  5  2 -1</clus>
</clustering>
</event>
<event>
 9    1  0.7586638E-005  0.1117373E+03  0.7546771E-02  0.1261007E+00
         21   -1    0    0  501  502  0.00000000000E+00  0.00000000000E+00  0.42475064124E+02  0.42475064124E+02  0.00000000000E+00 0. -1.
          1   -1    0    0  502    0 -0.00000000000E+00 -0.00000000000E+00 -0.72421349408E+03  0.72421349408E+03  0.00000000000E+00 0. -1.
        -24    2    1    2    0    0  0.59032544846E+02  0.19378778608E+01 -0.33108414497E+03  0.34577794063E+03  0.80355936019E+02 0.  0.
         23    2    1    2    0    0 -0.80035264824E+02  0.80612606232E+02 -0.18917066329E+03  0.23833828466E+03  0.90086415099E+02 0.  0.
         13    1    3    3    0    0  0.20850665848E+02 -0.35187450890E+02 -0.20271875256E+03  0.20680377077E+03  0.00000000000E+00 0. -1.
        -14    1    3    3    0    0  0.38181878997E+02  0.37125328751E+02 -0.12836539242E+03  0.13897416986E+03  0.00000000000E+00 0.  1.
        -11    1    4    4    0    0 -0.58931969890E+02  0.82166589574E+02 -0.19199124015E+03  0.21699069522E+03  0.00000000000E+00 0. -1.
         11    1    4    4    0    0 -0.21103294934E+02 -0.15539833418E+01  0.28205768542E+01  0.21347589444E+02  0.00000000000E+00 0.  1.
          2    1    1    2  501    0  0.21002719978E+02 -0.82550484093E+02 -0.16148362169E+03  0.18257233291E+03  0.00000000000E+00 0. -1.
<scales pt_clust_5="13000.00000" pt_clust_6="13000.00000" pt_clust_7="13000.00000" pt_clust_8="13000.00000" pt_clust_9="85.18038"></scales>
<clustering>
<clus scale="   80.356">  5  6 -1 -1</clus>
<clus scale="   85.180">  1  9  2 -1</clus>
<clus scale="   90.086">  7  8 -1 -1</clus>
<clus scale="  104.052">  2  5  1 -1</clus>
<clus scale="   85.180">  1  5  2 -1</clus>
</clustering>
</event>
<event>
 9    1  0.7586638E-005  0.2003189E+03  0.7546771E-02  0.1150393E+00
         21   -1    0    0  501  502  0.00000000000E+00  0.00000000000E+00  0.80163316312E+02  0.80163316312E+02  0.00000000000E+00 0. -1.
          1   -1    0    0  502    0 -0.00000000000E+00 -0.00000000000E+00 -0.67960396631E+03  0.67960396631E+03  0.00000000000E+00 0. -1.
         23    2    1    2    0    0  0.96727249952E+02  0.17298756437E+03 -0.33114679629E+03  0.39640001749E+03  0.90520245600E+02 0.  0.
        -24    2    1    2    0    0 -0.58503321203E+02 -0.14194544941E+03 -0.13031312865E+03  0.21686346955E+03  0.80480455560E+02 0.  0.
         11    1    4    4    0    0 -0.71089963355E+02 -0.10778076382E+03 -0.71220222856E+02  0.14745438645E+03  0.00000000000E+00 0. -1.
        -12    1    4    4    0    0  0.12586642152E+02 -0.34164685596E+02 -0.59092905792E+02  0.69409083105E+02  0.00000000000E+00 0.  1.
        -11    1    3    3    0    0  0.76055190817E+02  0.17707483950E+03 -0.31711982302E+03  0.37108607221E+03  0.00000000000E+00 0. -1.
         11    1    3    3    0    0  0.20672059135E+02 -0.40872751216E+01 -0.14026973265E+02  0.25313945283E+02  0.00000000000E+00 0.  1.
          2    1    1    2  501    0 -0.38223928749E+02 -0.31042114961E+02 -0.13798072507E+03  0.14650379558E+03  0.00000000000E+00 0. -1.
<scales pt_clust_5="13000.00000" pt_clust_6="13000.00000" pt_clust_7="13000.00000" pt_clust_8="13000.00000" pt_clust_9="49.24108"></scales>
<clustering>
<clus scale="   49.241">  1  9  2 -1</clus>
<clus scale="   80.480">  5  6 -1 -1</clus>
<clus scale="   90.520">  7  8 -1 -1</clus>
<clus scale="  195.987">  1  5  2 -1</clus>
<clus scale="   49.241">  1  5  2 -1</clus>
</clustering>
</event>
<event>
 9    1  0.7586638E-005  0.1393323E+03  0.7546771E-02  0.1216715E+00
          1   -1    0    0  502    0 -0.00000000000E+00  0.00000000000E+00  0.17394487076E+03  0.17394487076E+03  0.00000000000E+00 0. -1.
         21   -1    0    0  501  502  0.00000000000E+00 -0.00000000000E+00 -0.22123012668E+03  0.22123012668E+03  0.00000000000E+00 0.  1.
        -24    2    1    2    0    0  0.52877640022E+02 -0.70546783223E+02  0.31346665520E+02  0.12329259313E+03  0.80284224129E+02 0.  0.
         23    2    1    2    0    0 -0.82909523345E+02  0.13431164206E+03 -0.84630994641E+02  0.20114443630E+03  0.91559121587E+02 0.  0.
         13    1    3    3    0    0  0.46119424194E+02 -0.37522770754E+02  0.55886151561E+02  0.81597926134E+02  0.00000000000E+00 0. -1.
        -14    1    3    3    0    0  0.67582158273E+01 -0.33024012469E+02 -0.24539486041E+02  0.41694666996E+02  0.00000000000E+00 0.  1.
        -13    1    4    4    0    0 -0.65436215376E+02  0.89365495091E+02 -0.85800518882E+01  0.11109323691E+03  0.00000000000E+00 0.  1.
         13    1    4    4    0    0 -0.17473307968E+02  0.44946146972E+02 -0.76050942753E+02  0.90051199395E+02  0.00000000000E+00 0. -1.
          2    1    1    2  501    0  0.30031883323E+02 -0.63764858840E+02  0.59990732008E+01  0.70737968010E+02  0.00000000000E+00 0. -1.
<scales pt_clust_5="13000.00000" pt_clust_6="13000.00000" pt_clust_7="13000.00000" pt_clust_8="13000.00000" pt_clust_9="70.48316"></scales>
<clustering>
<clus scale="   70.483">  2  9  1 -1</clus>
<clus scale="   80.284">  5  6 -1 -1</clus>
<clus scale="   91.559">  7  8 -1 -1</clus>
<clus scale="  132.197">  1  5  2 -1</clus>
<clus scale="   70.483">  2  5  1 -1</clus>
</clustering>
</event>
<event>
 9    1  0.7586638E-005  0.1064946E+03  0.7546771E-02  0.1271036E+00
         21   -1    0    0  501  502  0.00000000000E+00  0.00000000000E+00  0.42634971953E+02  0.42634971953E+02  0.00000000000E+00 0. -1.
          1   -1    0    0  502    0 -0.00000000000E+00 -0.00000000000E+00 -0.35828692043E+03  0.35828692043E+03  0.00000000000E+00 0. -1.
         23    2    1    2    0    0 -0.60180491096E+02 -0.34673905146E+02 -0.13145812209E+03  0.17378185983E+03  0.89971805222E+02 0.  0.
        -24    2    1    2    0    0  0.39426507479E+02  0.22096721581E+02 -0.87306865976E+02  0.12726012226E+03  0.80808014918E+02 0.  0.
         13    1    4    4    0    0  0.48639538699E+02  0.86082064990E+01 -0.96578756031E+02  0.10847747259E+03  0.00000000000E+00 0. -1.
        -14    1    4    4    0    0 -0.92130312194E+01  0.13488515082E+02  0.92718900548E+01  0.18782649668E+02  0.00000000000E+00 0.  1.
        -13    1    3    3    0    0 -0.17786097739E+02 -0.60518821417E+02 -0.84455644961E+02  0.10541171180E+03  0.00000000000E+00 0. -1.
         13    1    3    3    0    0 -0.42394393357E+02  0.25844916271E+02 -0.47002477129E+02  0.68370148029E+02  0.00000000000E+00 0.  1.
          2    1    1    2  501    0  0.20753983617E+02  0.12577183565E+02 -0.96886960409E+02  0.99879910290E+02  0.00000000000E+00 0. -1.
<scales pt_clust_5="13000.00000" pt_clust_6="13000.00000" pt_clust_7="13000.00000" pt_clust_8="13000.00000" pt_clust_9="24.26755"></scales>
<clustering>
<clus scale="   24.268">  1  9  2 -1</clus>
<clus scale="   80.808">  5  6 -1 -1</clus>
<clus scale="   89.972">  7  8 -1 -1</clus>
<clus scale="   98.874">  1  5  2 -1</clus>
<clus scale="   24.268">  1  5  2 -1</clus>
</clustering>
</event>
<event>
 9    1  0.7586638E-005  0.1049948E+03  0.7546771E-02  0.1273928E+00
         21   -1    0    0  501  502  0.00000000000E+00  0.00000000000E+00  0.74373318795E+02  0.74373318795E+02  0.00000000000E+00 0.  1.
         -2   -1    0    0    0  501 -0.00000000000E+00 -0.00000000000E+00 -0.36313892879E+03  0.36313892879E+03  0.00000000000E+00 0.  1.
        -24    2    1    2    0    0 -0.54194444430E+02 -0.41166098728E+02 -0.24194291938E+03  0.26410336043E+03  0.81132750872E+02 0.  0.
         23    2    1    2    0    0  0.18616115314E+02  0.19388845309E+02 -0.77435960500E+02  0.12166684852E+03  0.89911105978E+02 0.  0.
         13    1    3    3    0    0 -0.37702664742E+02 -0.59268061455E+02 -0.11450389794E+03  0.13433293223E+03  0.00000000000E+00 0. -1.
        -14    1    3    3    0    0 -0.16491779688E+02  0.18101962727E+02 -0.12743902144E+03  0.12977042821E+03  0.00000000000E+00 0.  1.
        -11    1    4    4    0    0 -0.40859739093E+01 -0.34778832418E+02 -0.31552680068E+02  0.47136334039E+02  0.00000000000E+00 0.  1.
         11    1    4    4    0    0  0.22702089224E+02  0.54167677727E+02 -0.45883280432E+02  0.74530514480E+02  0.00000000000E+00 0. -1.
         -1    1    1    2    0  502  0.35578329116E+02  0.21777253419E+02  0.30613269881E+02  0.51742038634E+02  0.00000000000E+00 0.  1.
<scales pt_clust_5="13000.00000" pt_clust_6="13000.00000" pt_clust_7="13000.00000" pt_clust_8="13000.00000" pt_clust_9="41.71410"></scales>
<clustering>
<clus scale="   41.714">  1  9  2 -1</clus>
<clus scale="   81.133">  5  6 -1 -1</clus>
<clus scale="   89.911">  7  8 -1 -1</clus>
<clus scale="   97.583">  2  5  1 -1</clus>
<clus scale="   41.714">  1  5  2 -1</clus>
</clustering>
</event>
<event>
 9    1  0.7586638E-005  0.1280043E+03  0.7546771E-02  0.1234852E+00
         21   -1    0    0  501  502  0.00000000000E+00  0.00000000000E+00  0.16215077798E+03  0.16215077798E+03  0.00000000000E+00 0.  1.
          1   -1    0    0  502    0 -0.00000000000E+00 -0.00000000000E+00 -0.29609129674E+03  0.29609129674E+03  0.00000000000E+00 0. -1.
         23    2    1    2    0    0 -0.52435593206E+02  0.72676829098E+02 -0.24391816196E+03  0.27691397833E+03  0.95675852415E+02 0.  0.
        -24    2    1    2    0    0  0.14185050826E+02 -0.54678978006E+02  0.94702330003E+02  0.13637966117E+03  0.80248827835E+02 0.  0.
         13    1    4    4    0    0  0.15647435516E+02  0.12770940585E+02  0.11593416431E+00  0.20197836577E+02  0.00000000000E+00 0. -1.
        -14    1    4    4    0    0 -0.14623846903E+01 -0.67449918591E+02  0.94586395838E+02  0.11618182459E+03  0.00000000000E+00 0.  1.
        -13    1    3    3    0    0 -0.13687571801E+02  0.15896691185E+02  0.24642403472E+01  0.21121716146E+02  0.00000000000E+00 0.  1.
         13    1    3    3    0    0 -0.38748021405E+02  0.56780137913E+02 -0.24638240231E+03  0.25579226218E+03  0.00000000000E+00 0. -1.
          2    1    1    2  501    0  0.38250542381E+02 -0.17997851092E+02  0.15275313196E+02  0.44948435230E+02  0.00000000000E+00 0. -1.
<scales pt_clust_5="13000.00000" pt_clust_6="13000.00000" pt_clust_7="13000.00000" pt_clust_8="13000.00000" pt_clust_9="42.27324"></scales>
<clustering>
<clus scale="   42.273">  1  9  2 -1</clus>
<clus scale="   80.249">  5  6 -1 -1</clus>
<clus scale="   95.676">  7  8 -1 -1</clus>
<clus scale="  116.924">  1  5  2 -1</clus>
<clus scale="   42.273">  1  5  2 -1</clus>
</clustering>
</event>
<event>
 9    1  0.7586638E-005  0.1337911E+03  0.7546771E-02  0.1234844E+00
         21   -1    0    0  501  502  0.00000000000E+00  0.00000000000E+00  0.29077965338E+03  0.29077965338E+03  0.00000000000E+00 0.  1.
         -2   -1    0    0    0  501 -0.00000000000E+00 -0.00000000000E+00 -0.25919021568E+03  0.25919021568E+03  0.00000000000E+00 0.  1.
         23    2    1    2    0    0 -0.45888251262E+02 -0.19979664083E+01  0.92501533616E+02  0.13800437763E+03  0.91536610432E+02 0.  0.
        -24    2    1    2    0    0 -0.19174309403E+02  0.88863654706E+02 -0.20086366643E+03  0.23486318570E+03  0.80932689551E+02 0.  0.
         13    1    4    4    0    0  0.12855513509E+02  0.19078214724E+02 -0.37331472126E+01  0.23306198590E+02  0.00000000000E+00 0. -1.
        -14    1    4    4    0    0 -0.32029822912E+02  0.69785439983E+02 -0.19713051922E+03  0.21155698711E+03  0.00000000000E+00 0.  1.
        -11    1    3    3    0    0  0.13872205709E+01  0.33404083883E+02  0.64480797112E+02  0.72632846545E+02  0.00000000000E+00 0.  1.
         11    1    3    3    0    0 -0.47275471833E+02 -0.35402050292E+02  0.28020736504E+02  0.65371531082E+02  0.00000000000E+00 0. -1.
         -1    1    1    2    0  502  0.65062560665E+02 -0.86865688298E+02  0.13995157051E+03  0.17710230573E+03  0.00000000000E+00 0.  1.
<scales pt_clust_5="13000.00000" pt_clust_6="13000.00000" pt_clust_7="13000.00000" pt_clust_8="13000.00000" pt_clust_9="106.53619"></scales>
<clustering>
<clus scale="   80.933">  5  6 -1 -1</clus>
<clus scale="   91.537">  7  8 -1 -1</clus>
<clus scale="  102.414">  2  7  1 -1</clus>
<clus scale="  106.536">  1  9  2 -1</clus>
<clus scale="  106.536">  1  5  2 -1</clus>
</clustering>
</event>
<event>
 9    1  0.7586638E-005  0.1197600E+03  0.7546771E-02  0.1246902E+00
         21   -1    0    0  501  502  0.00000000000E+00  0.00000000000E+00  0.55883707697E+03  0.55883707697E+03  0.00000000000E+00 0. -1.
         -2   -1    0    0    0  501 -0.00000000000E+00 -0.00000000000E+00 -0.51057143439E+02  0.51057143439E+02  0.00000000000E+00 0.  1.
         23    2    1    2    0    0  0.25475290135E+01  0.81129122167E+02  0.48446143684E+02  0.13182150721E+03  0.91877399607E+02 0.  0.
        -24    2    1    2    0    0 -0.18324502124E+02 -0.56721440737E+02  0.39178430033E+03  0.40453645461E+03  0.81250820939E+02 0.  0.
         13    1    4    4    0    0 -0.23364108662E+02 -0.74587765882E+02  0.26134191429E+03  0.27277978767E+03  0.00000000000E+00 0. -1.
        -14    1    4    4    0    0  0.50396065378E+01  0.17866325145E+02  0.13044238604E+03  0.13175666694E+03  0.00000000000E+00 0.  1.
        -11    1    3    3    0    0 -0.20298871328E+01  0.30673326132E+02  0.70238136120E+02  0.76670523301E+02  0.00000000000E+00 0. -1.
         11    1    3    3    0    0  0.45774161463E+01  0.50455796036E+02 -0.21791992435E+02  0.55150983912E+02  0.00000000000E+00 0.  1.
         -1    1    1    2    0  502  0.15776973111E+02 -0.24407681431E+02  0.67549489518E+02  0.73536258590E+02  0.00000000000E+00 0.  1.
<scales pt_clust_5="13000.00000" pt_clust_6="13000.00000" pt_clust_7="13000.00000" pt_clust_8="13000.00000" pt_clust_9="29.06282"></scales>
<clustering>
<clus scale="   29.063">  1  9  2 -1</clus>
<clus scale="   81.251">  5  6 -1 -1</clus>
<clus scale="   91.877">  7  8 -1 -1</clus>
<clus scale="  111.815">  1  5  2 -1</clus>
<clus scale="   29.063">  1  5  2 -1</clus>
</clustering>
</event>
<event>
 9    1  0.7586638E-005  0.9653148E+02  0.7546771E-02  0.1293451E+00
         -2   -1    0    0    0  501 -0.00000000000E+00  0.00000000000E+00  0.19635783006E+03  0.19635783006E+03  0.00000000000E+00 0.  1.
         21   -1    0    0  501  502  0.00000000000E+00 -0.00000000000E+00 -0.10926933122E+03  0.10926933122E+03  0.00000000000E+00 0.  1.
        -24    2    1    2    0    0  0.19482262255E+02  0.17640692593E+02  0.13001682520E+03  0.15593367918E+03  0.81976733830E+02 0.  0.
         23    2    1    2    0    0 -0.47255744598E+02 -0.12226164466E+00 -0.11549696072E+02  0.10427454132E+03  0.92231578876E+02 0.  0.
         13    1    3    3    0    0  0.24237046938E+02 -0.25101924404E+02  0.26426910867E+02  0.43771253935E+02  0.00000000000E+00 0. -1.
        -14    1    3    3    0    0 -0.47547846830E+01  0.42742616997E+02  0.10358991433E+03  0.11216242524E+03  0.00000000000E+00 0.  1.
        -13    1    4    4    0    0 -0.25829028708E+02 -0.11903195192E+02 -0.50690584021E+02  0.58123662034E+02  0.00000000000E+00 0. -1.
         13    1    4    4    0    0 -0.21426715890E+02  0.11780933547E+02  0.39140887950E+02  0.46150879283E+02  0.00000000000E+00 0.  1.
         -1    1    1    2    0  502  0.27773482343E+02 -0.17518430949E+02 -0.31378630281E+02  0.45418940792E+02  0.00000000000E+00 0.  1.
<scales pt_clust_5="13000.00000" pt_clust_6="13000.00000" pt_clust_7="13000.00000" pt_clust_8="13000.00000" pt_clust_9="32.83690"></scales>
<clustering>
<clus scale="   32.837">  2  9  1 -1</clus>
<clus scale="   81.977">  5  6 -1 -1</clus>
<clus scale="   86.786">  1  5  2 -1</clus>
<clus scale="   92.232">  7  8 -1 -1</clus>
<clus scale="   32.837">  2  5  1 -1</clus>
</clustering>
</event>
<event>
 9    1  0.7586638E-005  0.1394466E+03  0.7546771E-02  0.1217281E+00
         21   -1    0    0  501  502  0.00000000000E+00  0.00000000000E+00  0.60798858607E+02  0.60798858607E+02  0.00000000000E+00 0. -1.
          3   -1    0    0  502    0 -0.00000000000E+00 -0.00000000000E+00 -0.64582174111E+03  0.64582174111E+03  0.00000000000E+00 0. -1.
        -24    2    1    2    0    0 -0.81404606958E+02 -0.52376769057E+02 -0.29566370437E+03  0.32125975585E+03  0.80129699107E+02 0.  0.
         23    2    1    2    0    0  0.12043343828E+03  0.40333935517E+02 -0.90249589901E+02  0.18210507484E+03  0.94266804323E+02 0.  0.
         13    1    3    3    0    0 -0.74115009669E+02 -0.71252055214E+02 -0.26753718200E+03  0.28661129388E+03  0.00000000000E+00 0. -1.
        -14    1    3    3    0    0 -0.72895972889E+01  0.18875286158E+02 -0.28126522374E+02  0.34648461972E+02  0.00000000000E+00 0.  1.
        -11    1    4    4    0    0  0.58560101502E+02 -0.18882196990E+02 -0.71689377239E+02  0.94473221920E+02  0.00000000000E+00 0. -1.
         11    1    4    4    0    0  0.61873336774E+02  0.59216132507E+02 -0.18560212661E+02  0.87631852923E+02  0.00000000000E+00 0.  1.
          4    1    1    2  501    0 -0.39028831317E+02  0.12042833539E+02 -0.19910958824E+03  0.20325576902E+03  0.00000000000E+00 0. -1.
<scales pt_clust_5="13000.00000" pt_clust_6="13000.00000" pt_clust_7="13000.00000" pt_clust_8="13000.00000" pt_clust_9="40.84460"></scales>
<clustering>
<clus scale="   40.845">  1  9  2 -1</clus>
<clus scale="   80.130">  5  6 -1 -1</clus>
<clus scale="   94.267">  7  8 -1 -1</clus>
<clus scale="  130.307">  2  5  1 -1</clus>
<clus scale="   40.845">  1  5  2 -1</clus>
</clustering>
</event>
<event>
 9    1  0.7586638E-005  0.1405376E+03  0.7546771E-02  0.1213256E+00
         -2   -1    0    0    0  501 -0.00000000000E+00  0.00000000000E+00  0.30504630760E+03  0.30504630760E+03  0.00000000000E+00 0.  1.
         21   -1    0    0  501  502  0.00000000000E+00 -0.00000000000E+00 -0.48774345758E+03  0.48774345758E+03  0.00000000000E+00 0.  1.
        -24    2    1    2    0    0 -0.53018822260E+02  0.10683417672E+03  0.24026193466E+03  0.28115085735E+03  0.84234615873E+02 0.  0.
         23    2    1    2    0    0 -0.18799235245E+02 -0.83362563543E+02 -0.51572823445E+02  0.13264483793E+03  0.87362283997E+02 0.  0.
         13    1    3    3    0    0  0.22108201962E+02  0.25804533196E+02  0.75155272676E+02  0.82480067523E+02  0.00000000000E+00 0. -1.
        -14    1    3    3    0    0 -0.75127024222E+02  0.81029643527E+02  0.16510666199E+03  0.19867078983E+03  0.00000000000E+00 0.  1.
        -11    1    4    4    0    0 -0.32903530569E+02  0.38321509458E+01 -0.76459768554E+01  0.33996892018E+02  0.00000000000E+00 0.  1.
         11    1    4    4    0    0  0.14104295324E+02 -0.87194714489E+02 -0.43926846590E+02  0.98647945912E+02  0.00000000000E+00 0. -1.
         -1    1    1    2    0  502  0.71818057505E+02 -0.23471613180E+02 -0.37138626120E+03  0.37899406990E+03  0.00000000000E+00 0.  1.
<scales pt_clust_5="13000.00000" pt_clust_6="13000.00000" pt_clust_7="13000.00000" pt_clust_8="13000.00000" pt_clust_9="75.55627"></scales>
<clustering>
<clus scale="   75.556">  2  9  1 -1</clus>
<clus scale="   84.235">  5  6 -1 -1</clus>
<clus scale="   87.362">  7  8 -1 -1</clus>
<clus scale="  138.615">  1  5  2 -1</clus>
<clus scale="   75.556">  2  5  1 -1</clus>
</clustering>
</event>
<event>
 9    1  0.7586638E-005  0.3101115E+03  0.7546771E-02  0.1080589E+00
         21   -1    0    0  501  502  0.00000000000E+00  0.00000000000E+00  0.14815393067E+04  0.14815393067E+04  0.00000000000E+00 0. -1.
          1   -1    0    0  502    0 -0.00000000000E+00 -0.00000000000E+00 -0.11333156638E+03  0.11333156638E+03  0.00000000000E+00 0. -1.
        -24    2    1    2    0    0  0.14436838070E+03  0.26459126115E+03  0.20773981151E+03  0.37533778672E+03  0.82896682900E+02 0.  0.
         23    2    1    2    0    0 -0.16803164545E+03 -0.22233798354E+03  0.11155538195E+04  0.11534833567E+04  0.91622689694E+02 0.  0.
         11    1    3    3    0    0  0.14891108232E+03  0.26073645833E+03  0.18693936516E+03  0.35370091516E+03  0.00000000000E+00 0. -1.
        -12    1    3    3    0    0 -0.45427016203E+01  0.38548028180E+01  0.20800446344E+02  0.21636871560E+02  0.00000000000E+00 0.  1.
        -13    1    4    4    0    0 -0.10144339755E+03 -0.77079192010E+02  0.38057300854E+03  0.40133250501E+03  0.00000000000E+00 0.  1.
         13    1    4    4    0    0 -0.66588247907E+02 -0.14525879153E+03  0.73498081093E+03  0.75215085170E+03  0.00000000000E+00 0. -1.
          2    1    1    2  501    0  0.23663264754E+02 -0.42253277612E+02  0.44914109299E+02  0.66049729612E+02  0.00000000000E+00 0. -1.
<scales pt_clust_5="13000.00000" pt_clust_6="13000.00000" pt_clust_7="13000.00000" pt_clust_8="13000.00000" pt_clust_9="48.42821"></scales>
<clustering>
<clus scale="   48.428">  1  9  2 -1</clus>
<clus scale="   82.897">  5  6 -1 -1</clus>
<clus scale="   91.623">  7  8 -1 -1</clus>
<clus scale="  307.646">  2  5  1 -1</clus>
<clus scale="   48.428">  1  5  2 -1</clus>
</clustering>
</event>
<event>
 9    1  0.2196082E-004  0.1707868E+03  0.7546771E-02  0.1178166E+00
         -4   -1    0    0    0  501 -0.00000000000E+00  0.00000000000E+00  0.35450311319E+03  0.35450311319E+03  0.00000000000E+00 0.  1.
         21   -1    0    0  501  502  0.00000000000E+00 -0.00000000000E+00 -0.46742384063E+03  0.46742384063E+03  0.00000000000E+00 0.  1.
        -24    2    1    2    0    0  0.10726292150E+03  0.95285118277E+02  0.23433556017E+03  0.28690297911E+03  0.82556505300E+02 0.  0.
         23    2    1    2    0    0 -0.14130124691E+03 -0.85226117709E+02 -0.41654155844E+03  0.45717643240E+03  0.90960908762E+02 0.  0.
         13    1    3    3    0    0  0.34633326120E+02 -0.10322047440E+02  0.38056061415E+02  0.52481194269E+02  0.00000000000E+00 0. -1.
        -14    1    3    3    0    0  0.72629595382E+02  0.10560716572E+03  0.19627949875E+03  0.23442178484E+03  0.00000000000E+00 0.  1.
        -11    1    4    4    0    0 -0.11164600804E+03 -0.10065759528E+03 -0.37394577998E+03  0.40302881902E+03  0.00000000000E+00 0.  1.
         11    1    4    4    0    0 -0.29655238874E+02  0.15431477570E+02 -0.42595778460E+02  0.54147613385E+02  0.00000000000E+00 0. -1.
         -3    1    1    2    0  502  0.34038325409E+02 -0.10059000568E+02  0.69285270834E+02  0.77847542309E+02  0.00000000000E+00 0.  1.
<scales pt_clust_5="13000.00000" pt_clust_6="13000.00000" pt_clust_7="13000.00000" pt_clust_8="13000.00000" pt_clust_9="35.49355"></scales>
<clustering>
<clus scale="   35.494">  2  9  1 -1</clus>
<clus scale="   82.557">  5  6 -1 -1</clus>
<clus scale="   90.961">  7  8 -1 -1</clus>
<clus scale="  166.463">  1  5  2 -1</clus>
<clus scale="   35.494">  2  5  1 -1</clus>
</clustering>
</event>
<event>
 9    1  0.7586638E-005  0.1219145E+03  0.7546771E-02  0.1241572E+00
         -2   -1    0    0    0  501 -0.00000000000E+00  0.00000000000E+00  0.13821290638E+03  0.13821290638E+03  0.00000000000E+00 0.  1.
         21   -1    0    0  501  502  0.00000000000E+00 -0.00000000000E+00 -0.28400923827E+03  0.28400923827E+03  0.00000000000E+00 0. -1.
        -24    2    1    2    0    0  0.12328062114E+01  0.83317475768E+02  0.86356033028E+02  0.14701643924E+03  0.84930250135E+02 0.  0.
         23    2    1    2    0    0  0.25605163010E+02 -0.72751179933E+02 -0.18052151474E+03  0.21606462080E+03  0.90263749764E+02 0.  0.
         13    1    3    3    0    0 -0.20216700054E+02 -0.10259648628E+02  0.12485281226E+02  0.25881607337E+02  0.00000000000E+00 0. -1.
        -14    1    3    3    0    0  0.21449506265E+02  0.93577124396E+02  0.73870751802E+02  0.12113483191E+03  0.00000000000E+00 0.  1.
        -11    1    4    4    0    0  0.34227030909E+02 -0.33387264404E+01 -0.17318005248E+02  0.38503896489E+02  0.00000000000E+00 0.  1.
         11    1    4    4    0    0 -0.86218678987E+01 -0.69412453493E+02 -0.16320350950E+03  0.17756072431E+03  0.00000000000E+00 0. -1.
         -1    1    1    2    0  502 -0.26837969221E+02 -0.10566295835E+02 -0.51630850169E+02  0.59141084609E+02  0.00000000000E+00 0.  1.
<scales pt_clust_5="13000.00000" pt_clust_6="13000.00000" pt_clust_7="13000.00000" pt_clust_8="13000.00000" pt_clust_9="28.84308"></scales>
<clustering>
<clus scale="   28.843">  2  9  1 -1</clus>
<clus scale="   84.930">  5  6 -1 -1</clus>
<clus scale="   90.264">  7  8 -1 -1</clus>
<clus scale="  118.020">  1  5  2 -1</clus>
<clus scale="   28.843">  2  5  1 -1</clus>
</clustering>
</event>
<event>
 9    1  0.7586638E-005  0.9197038E+02  0.7546771E-02  0.1305766E+00
         21   -1    0    0  501  502  0.00000000000E+00  0.00000000000E+00  0.52913189937E+02  0.52913189937E+02  0.00000000000E+00 0. -1.
         -4   -1    0    0    0  501 -0.00000000000E+00 -0.00000000000E+00 -0.24701857283E+03  0.24701857283E+03  0.00000000000E+00 0.  1.
         23    2    1    2    0    0 -0.65810517455E+01  0.68895345346E+01 -0.15405579562E+03  0.17947083890E+03  0.91574111647E+02 0.  0.
        -24    2    1    2    0    0 -0.22570891690E+02 -0.10718993370E+02 -0.36012570409E+02  0.90782681567E+02  0.79499987890E+02 0.  0.
         13    1    4    4    0    0  0.64134954664E+00 -0.25984367173E+02  0.16911617029E+02  0.31009699405E+02  0.00000000000E+00 0. -1.
        -14    1    4    4    0    0 -0.23212241236E+02  0.15265373804E+02 -0.52924187438E+02  0.59772982162E+02  0.00000000000E+00 0.  1.
        -13    1    3    3    0    0  0.11830622579E+02  0.37361907566E+02 -0.13175579450E+03  0.13746077678E+03  0.00000000000E+00 0.  1.
         13    1    3    3    0    0 -0.18411674325E+02 -0.30472373031E+02 -0.22300001112E+02  0.42010062118E+02  0.00000000000E+00 0. -1.
         -3    1    1    2    0  502  0.29151943435E+02  0.38294588353E+01 -0.40370168692E+01  0.29678242303E+02  0.00000000000E+00 0.  1.
<scales pt_clust_5="13000.00000" pt_clust_6="13000.00000" pt_clust_7="13000.00000" pt_clust_8="13000.00000" pt_clust_9="29.40239"></scales>
<clustering>
<clus scale="   29.402">  1  9  2 -1</clus>
<clus scale="   79.500">  5  6 -1 -1</clus>
<clus scale="   79.956">  1  5  2 -1</clus>
<clus scale="   91.574">  7  8 -1 -1</clus>
<clus scale="   29.402">  1  5  2 -1</clus>
</clustering>
</event>
<event>
 9    1  0.7586638E-005  0.1198066E+03  0.7546771E-02  0.1248220E+00
         21   -1    0    0  501  502  0.00000000000E+00  0.00000000000E+00  0.28684089668E+03  0.28684089668E+03  0.00000000000E+00 0. -1.
          1   -1    0    0  502    0 -0.00000000000E+00 -0.00000000000E+00 -0.10375354268E+03  0.10375354268E+03  0.00000000000E+00 0. -1.
        -24    2    1    2    0    0 -0.88656127939E+02  0.27926035194E+02  0.36458169975E+02  0.12664939523E+03  0.77917255415E+02 0.  0.
         23    2    1    2    0    0  0.42496017039E+02  0.14483354043E+02  0.16855718994E+03  0.19753608708E+03  0.92700056149E+02 0.  0.
         13    1    3    3    0    0 -0.51979566257E+02 -0.10423743455E+02  0.48924719481E+02  0.72139849682E+02  0.00000000000E+00 0. -1.
        -14    1    3    3    0    0 -0.36676561682E+02  0.38349778649E+02 -0.12466549507E+02  0.54509545548E+02  0.00000000000E+00 0.  1.
        -11    1    4    4    0    0  0.36291248856E+02 -0.18749780104E+02  0.15634083212E+03  0.16158918524E+03  0.00000000000E+00 0. -1.
         11    1    4    4    0    0  0.62047681833E+01  0.33233134148E+02  0.12216357812E+02  0.35946901837E+02  0.00000000000E+00 0.  1.
          2    1    1    2  501    0  0.46160110900E+02 -0.42409389238E+02 -0.21928005912E+02  0.66408957055E+02  0.00000000000E+00 0. -1.
<scales pt_clust_5="13000.00000" pt_clust_6="13000.00000" pt_clust_7="13000.00000" pt_clust_8="13000.00000" pt_clust_9="62.68426"></scales>
<clustering>
<clus scale="   62.684">  1  9  2 -1</clus>
<clus scale="   77.917">  5  6 -1 -1</clus>
<clus scale="   92.700">  7  8 -1 -1</clus>
<clus scale="  108.772">  2  5  1 -1</clus>
<clus scale="   62.684">  1  5  2 -1</clus>
</clustering>
</event>
<event>
 9    1  0.7586638E-005  0.1400989E+03  0.7546771E-02  0.1215076E+00
         -2   -1    0    0    0  501 -0.00000000000E+00  0.00000000000E+00  0.25487054029E+03  0.25487054029E+03  0.00000000000E+00 0.  1.
         21   -1    0    0  501  502  0.00000000000E+00 -0.00000000000E+00 -0.18339027464E+03  0.18339027464E+03  0.00000000000E+00 0. -1.
        -24    2    1    2    0    0  0.36431956912E+01  0.13523819809E+03  0.22254659933E+02  0.15937232227E+03  0.81250379207E+02 0.  0.
         23    2    1    2    0    0  0.25459936445E+02 -0.64363413631E+02 -0.72734133113E+02  0.13485931065E+03  0.90032894943E+02 0.  0.
         11    1    3    3    0    0  0.35189572100E+02  0.25192688245E+02  0.79870440750E+01  0.44008753659E+02  0.00000000000E+00 0. -1.
        -12    1    3    3    0    0 -0.31546376409E+02  0.11004550984E+03  0.14267615858E+02  0.11536356861E+03  0.00000000000E+00 0.  1.
        -11    1    4    4    0    0  0.19429483593E+02 -0.24993950370E+02 -0.86978122404E+02  0.92560229930E+02  0.00000000000E+00 0. -1.
         11    1    4    4    0    0  0.60304528520E+01 -0.39369463261E+02  0.14243989290E+02  0.42299080722E+02  0.00000000000E+00 0.  1.
         -1    1    1    2    0  502 -0.29103132136E+02 -0.70874784457E+02  0.12195973884E+03  0.14402918200E+03  0.00000000000E+00 0.  1.
<scales pt_clust_5="13000.00000" pt_clust_6="13000.00000" pt_clust_7="13000.00000" pt_clust_8="13000.00000" pt_clust_9="76.61745"></scales>
<clustering>
<clus scale="   76.617">  2  9  1 -1</clus>
<clus scale="   81.250">  5  6 -1 -1</clus>
<clus scale="   90.033">  7  8 -1 -1</clus>
<clus scale="  134.623">  1  5  2 -1</clus>
<clus scale="   76.617">  2  5  1 -1</clus>
</clustering>
</event>
<event>
 9    1  0.7586638E-005  0.9413621E+02  0.7546771E-02  0.1300196E+00
         21   -1    0    0  501  502  0.00000000000E+00  0.00000000000E+00  0.60151787529E+03  0.60151787529E+03  0.00000000000E+00 0.  1.
          3   -1    0    0  502    0 -0.00000000000E+00 -0.00000000000E+00 -0.38830275575E+02  0.38830275575E+02  0.00000000000E+00 0. -1.
        -24    2    1    2    0    0  0.10292194162E+02 -0.30515008456E+02  0.46048055838E+02  0.97354281547E+02  0.79500551490E+02 0.  0.
         23    2    1    2    0    0  0.84180083739E+01 -0.30064056056E+02  0.38414643670E+03  0.39611188205E+03  0.91440843922E+02 0.  0.
         13    1    3    3    0    0  0.35092091458E+02 -0.18993157819E+02  0.55557777752E+02  0.68402204611E+02  0.00000000000E+00 0. -1.
        -14    1    3    3    0    0 -0.24799897297E+02 -0.11521850637E+02 -0.95097219136E+01  0.28952076936E+02  0.00000000000E+00 0.  1.
        -11    1    4    4    0    0 -0.96535902797E+01  0.26601278161E+02  0.57405091720E+02  0.64001284053E+02  0.00000000000E+00 0. -1.
         11    1    4    4    0    0  0.18071598654E+02 -0.56665334217E+02  0.32674134498E+03  0.33211059799E+03  0.00000000000E+00 0.  1.
          4    1    1    2  501    0 -0.18710202535E+02  0.60579064512E+02  0.13249310718E+03  0.14688198728E+03  0.00000000000E+00 0. -1.
<scales pt_clust_5="13000.00000" pt_clust_6="13000.00000" pt_clust_7="13000.00000" pt_clust_8="13000.00000" pt_clust_9="63.40264"></scales>
<clustering>
<clus scale="   63.403">  1  9  2 -1</clus>
<clus scale="   79.501">  5  6 -1 -1</clus>
<clus scale="   82.587">  2  5  1 -1</clus>
<clus scale="   91.441">  7  8 -1 -1</clus>
<clus scale="   63.403">  1  5  2 -1</clus>
</clustering>
</event>
<event>
 9    1  0.7586638E-005  0.1154167E+03  0.7546771E-02  0.1253883E+00
         -2   -1    0    0    0  501 -0.00000000000E+00  0.00000000000E+00  0.26265353072E+03  0.26265353072E+03  0.00000000000E+00 0.  1.
         21   -1    0    0  501  502  0.00000000000E+00 -0.00000000000E+00 -0.84026913161E+02  0.84026913161E+02  0.00000000000E+00 0.  1.
         23    2    1    2    0    0 -0.28806690234E+02  0.63684257076E+02  0.80828562010E+02  0.13870232205E+03  0.88428319575E+02 0.  0.
        -24    2    1    2    0    0  0.78539797100E+02 -0.44995179697E+02  0.34343642653E+02  0.12521867496E+03  0.79417660772E+02 0.  0.
         13    1    4    4    0    0  0.19818766733E+02  0.15933450033E+02 -0.12675422084E+02  0.28413459307E+02  0.00000000000E+00 0. -1.
        -14    1    4    4    0    0  0.58721030367E+02 -0.60928629730E+02  0.47019064738E+02  0.96805215649E+02  0.00000000000E+00 0.  1.
        -11    1    3    3    0    0  0.81799304381E+00  0.66794119999E+02  0.18018116464E+02  0.69186531204E+02  0.00000000000E+00 0.  1.
         11    1    3    3    0    0 -0.29624683278E+02 -0.31098629239E+01  0.62810445546E+02  0.69515790843E+02  0.00000000000E+00 0. -1.
         -1    1    1    2    0  502 -0.49733106866E+02 -0.18689077378E+02  0.63454412891E+02  0.82759446875E+02  0.00000000000E+00 0.  1.
<scales pt_clust_5="13000.00000" pt_clust_6="13000.00000" pt_clust_7="13000.00000" pt_clust_8="13000.00000" pt_clust_9="53.12877"></scales>
<clustering>
<clus scale="   53.129">  2  9  1 -1</clus>
<clus scale="   79.418">  5  6 -1 -1</clus>
<clus scale="   88.428">  7  8 -1 -1</clus>
<clus scale="  108.667">  2  5  1 -1</clus>
<clus scale="   53.129">  2  5  1 -1</clus>
</clustering>
</event>
<event>
 9    1  0.7586638E-005  0.2161814E+03  0.7546771E-02  0.1136923E+00
         21   -1    0    0  501  502  0.00000000000E+00  0.00000000000E+00  0.76105412551E+03  0.76105412551E+03  0.00000000000E+00 0. -1.
         -2   -1    0    0    0  501 -0.00000000000E+00 -0.00000000000E+00 -0.85774194156E+02  0.85774194156E+02  0.00000000000E+00 0.  1.
         23    2    1    2    0    0  0.17873327623E+03 -0.77242287200E+02  0.18876706532E+03  0.28586900819E+03  0.90421954892E+02 0.  0.
        -24    2    1    2    0    0 -0.19947585145E+03  0.33897730266E+02  0.32855747635E+03  0.39585658536E+03  0.88389758901E+02 0.  0.
         11    1    4    4    0    0 -0.10729004347E+03 -0.10980079426E+02  0.22811899496E+03  0.25232913314E+03  0.00000000000E+00 0. -1.
        -12    1    4    4    0    0 -0.92185807976E+02  0.44877809692E+02  0.10043848139E+03  0.14352745221E+03  0.00000000000E+00 0.  1.
        -13    1    3    3    0    0  0.58827955084E+01 -0.34695612905E+02  0.44539118609E+02  0.56763772993E+02  0.00000000000E+00 0. -1.
         13    1    3    3    0    0  0.17285048073E+03 -0.42546674295E+02  0.14422794671E+03  0.22910523519E+03  0.00000000000E+00 0.  1.
         -1    1    1    2    0  502  0.20742575212E+02  0.43344556934E+02  0.15795538968E+03  0.16510272612E+03  0.00000000000E+00 0.  1.
<scales pt_clust_5="13000.00000" pt_clust_6="13000.00000" pt_clust_7="13000.00000" pt_clust_8="13000.00000" pt_clust_9="48.05211"></scales>
<clustering>
<clus scale="   48.052">  1  9  2 -1</clus>
<clus scale="   88.390">  5  6 -1 -1</clus>
<clus scale="   90.422">  7  8 -1 -1</clus>
<clus scale="  215.339">  1  5  2 -1</clus>
<clus scale="   48.052">  1  5  2 -1</clus>
</clustering>
</event>
<event>
 9    1  0.7586638E-005  0.1112654E+03  0.7546771E-02  0.1261174E+00
          3   -1    0    0  502    0 -0.00000000000E+00  0.00000000000E+00  0.14713415275E+03  0.14713415275E+03  0.00000000000E+00 0. -1.
         21   -1    0    0  501  502  0.00000000000E+00 -0.00000000000E+00 -0.31766841456E+03  0.31766841456E+03  0.00000000000E+00 0. -1.
         23    2    1    2    0    0  0.21399134996E+02  0.50708577413E+02  0.32674145529E+02  0.11000170965E+03  0.89462246441E+02 0.  0.
        -24    2    1    2    0    0  0.16296431991E+02  0.64251053075E+02 -0.20859692936E+03  0.23369879912E+03  0.81906521453E+02 0.  0.
         11    1    4    4    0    0  0.10296439875E+02  0.83430039274E+02 -0.15286087735E+03  0.17445066911E+03  0.00000000000E+00 0. -1.
        -12    1    4    4    0    0  0.59999921167E+01 -0.19178986198E+02 -0.55736052003E+02  0.59248130011E+02  0.00000000000E+00 0.  1.
        -11    1    3    3    0    0 -0.24727914984E+02 -0.88888261350E+01  0.21216104752E+02  0.33772830950E+02  0.00000000000E+00 0.  1.
         11    1    3    3    0    0  0.46127049980E+02  0.59597403548E+02  0.11458040777E+02  0.76228878701E+02  0.00000000000E+00 0. -1.
          4    1    1    2  501    0 -0.37695566987E+02 -0.11495963049E+03  0.53885220161E+01  0.12110205854E+03  0.00000000000E+00 0. -1.
<scales pt_clust_5="13000.00000" pt_clust_6="13000.00000" pt_clust_7="13000.00000" pt_clust_8="13000.00000" pt_clust_9="75.30820"></scales>
<clustering>
<clus scale="   81.907">  5  6 -1 -1</clus>
<clus scale="   89.462">  7  8 -1 -1</clus>
<clus scale="  105.037">  1  7  2 -1</clus>
<clus scale="   75.308">  2  9  1 -1</clus>
<clus scale="   75.308">  2  5  1 -1</clus>
</clustering>
</event>
<event>
 9    1  0.7586638E-005  0.9080553E+02  0.7546771E-02  0.1304622E+00
          3   -1    0    0  502    0 -0.00000000000E+00  0.00000000000E+00  0.26074074337E+03  0.26074074337E+03  0.00000000000E+00 0. -1.
         21   -1    0    0  501  502  0.00000000000E+00 -0.00000000000E+00 -0.28727325241E+03  0.28727325241E+03  0.00000000000E+00 0. -1.
         23    2    1    2    0    0  0.43317017904E+02 -0.11326045730E+02  0.13398393746E+03  0.16584168332E+03  0.86874191096E+02 0.  0.
        -24    2    1    2    0    0  0.25334465709E+02  0.37730363725E+02  0.85137452974E+02  0.12574288252E+03  0.80606892429E+02 0.  0.
         13    1    4    4    0    0  0.36753949962E+02  0.53224534849E+02  0.84592415070E+02  0.10648746703E+03  0.00000000000E+00 0. -1.
        -14    1    4    4    0    0 -0.11419484253E+02 -0.15494171124E+02  0.54503790405E+00  0.19255415492E+02  0.00000000000E+00 0.  1.
        -11    1    3    3    0    0  0.13474833109E+02 -0.34350428609E+02  0.12015487127E+03  0.12569294397E+03  0.00000000000E+00 0. -1.
         11    1    3    3    0    0  0.29842184796E+02  0.23024382880E+02  0.13829066191E+02  0.40148739359E+02  0.00000000000E+00 0.  1.
          4    1    1    2  501    0 -0.68651483613E+02 -0.26404317995E+02 -0.24565389947E+03  0.25642942993E+03  0.00000000000E+00 0. -1.
<scales pt_clust_5="13000.00000" pt_clust_6="13000.00000" pt_clust_7="13000.00000" pt_clust_8="13000.00000" pt_clust_9="73.55416"></scales>
<clustering>
<clus scale="   73.554">  2  9  1 -1</clus>
<clus scale="   80.607">  5  6 -1 -1</clus>
<clus scale="   84.829">  2  5  1 -1</clus>
<clus scale="   86.874">  7  8 -1 -1</clus>
<clus scale="   73.554">  2  5  1 -1</clus>
</clustering>
</event>
<event>
 9    1  0.7586638E-005  0.1668475E+03  0.7546771E-02  0.1182190E+00
         21   -1    0    0  501  502  0.00000000000E+00  0.00000000000E+00  0.21651474077E+03  0.21651474077E+03  0.00000000000E+00 0. -1.
          1   -1    0    0  502    0 -0.00000000000E+00 -0.00000000000E+00 -0.27310080499E+03  0.27310080499E+03  0.00000000000E+00 0. -1.
        -24    2    1    2    0    0  0.87734844098E+01 -0.16763336514E+03 -0.14455336307E+03  0.23650543645E+03  0.82832527162E+02 0.  0.
         23    2    1    2    0    0 -0.58708554851E+02  0.74106041671E+02  0.58739427053E+02  0.14313220250E+03  0.89989484259E+02 0.  0.
         11    1    3    3    0    0 -0.11510243773E+02 -0.45533595188E+02 -0.89429811880E+02  0.10101230250E+03  0.00000000000E+00 0. -1.
        -12    1    3    3    0    0  0.20283728182E+02 -0.12209976996E+03 -0.55123551189E+02  0.13549313395E+03  0.00000000000E+00 0.  1.
        -11    1    4    4    0    0  0.49805158889E+00  0.66293800193E+02  0.12174875917E+02  0.67404329260E+02  0.00000000000E+00 0.  1.
         11    1    4    4    0    0 -0.59206606440E+02  0.78122414786E+01  0.46564551135E+02  0.75727873240E+02  0.00000000000E+00 0. -1.
          2    1    1    2  501    0  0.49935070441E+02  0.93527323473E+02  0.29227871797E+02  0.10997790681E+03  0.00000000000E+00 0. -1.
<scales pt_clust_5="13000.00000" pt_clust_6="13000.00000" pt_clust_7="13000.00000" pt_clust_8="13000.00000" pt_clust_9="106.02298"></scales>
<clustering>
<clus scale="   82.833">  5  6 -1 -1</clus>
<clus scale="   89.989">  7  8 -1 -1</clus>
<clus scale="  106.023">  1  9  2 -1</clus>
<clus scale="  163.099">  2  5  1 -1</clus>
<clus scale="  106.023">  1  5  2 -1</clus>
</clustering>
</event>
<event>
 9    1  0.7586638E-005  0.1284838E+03  0.7546771E-02  0.1243789E+00
         21   -1    0    0  501  502  0.00000000000E+00  0.00000000000E+00  0.10538924451E+03  0.10538924451E+03  0.00000000000E+00 0. -1.
          1   -1    0    0  502    0 -0.00000000000E+00 -0.00000000000E+00 -0.35863953343E+03  0.35863953343E+03  0.00000000000E+00 0. -1.
         23    2    1    2    0    0  0.19477593022E+02  0.25129879411E+02  0.74972960513E+01  0.96699293356E+02  0.91014594535E+02 0.  0.
        -24    2    1    2    0    0 -0.56416245102E+02  0.78244728197E+02 -0.62077417502E+02  0.14034796781E+03  0.80863564737E+02 0.  0.
         11    1    4    4    0    0 -0.35867299953E+02  0.10458401289E+02 -0.58516022622E+02  0.69425976889E+02  0.00000000000E+00 0. -1.
        -12    1    4    4    0    0 -0.20548945149E+02  0.67786326908E+02 -0.35613948799E+01  0.70921990919E+02  0.00000000000E+00 0.  1.
        -11    1    3    3    0    0 -0.19034871479E+02  0.88173034417E+01  0.39036269646E+02  0.44315928514E+02  0.00000000000E+00 0. -1.
         11    1    3    3    0    0  0.38512464502E+02  0.16312575969E+02 -0.31538973595E+02  0.52383364842E+02  0.00000000000E+00 0.  1.
          2    1    1    2  501    0  0.36938652080E+02 -0.10337460761E+03 -0.19867016747E+03  0.22698151677E+03  0.00000000000E+00 0. -1.
<scales pt_clust_5="13000.00000" pt_clust_6="13000.00000" pt_clust_7="13000.00000" pt_clust_8="13000.00000" pt_clust_9="99.84577"></scales>
<clustering>
<clus scale="   80.864">  5  6 -1 -1</clus>
<clus scale="   91.015">  7  8 -1 -1</clus>
<clus scale="   96.408">  2  7  1 -1</clus>
<clus scale="   99.846">  1  9  2 -1</clus>
<clus scale="   99.846">  1  5  2 -1</clus>
</clustering>
</event>
<event>
 9    1  0.7586638E-005  0.1387743E+03  0.7546771E-02  0.1236693E+00
         21   -1    0    0  501  502  0.00000000000E+00  0.00000000000E+00  0.60600002936E+03  0.60600002936E+03  0.00000000000E+00 0. -1.
          1   -1    0    0  502    0 -0.00000000000E+00 -0.00000000000E+00 -0.51177858203E+02  0.51177858203E+02  0.00000000000E+00 0. -1.
        -24    2    1    2    0    0 -0.35470908266E+02 -0.57108215517E+01  0.20910250410E+03  0.22700812679E+03  0.80734339615E+02 0.  0.
         23    2    1    2    0    0 -0.27007785844E+02  0.10126819727E+03  0.23058754641E+03  0.26802721707E+03  0.87654459420E+02 0.  0.
         11    1    3    3    0    0  0.12276153482E+02 -0.29540858808E+02  0.10864511981E+03  0.11325691300E+03  0.00000000000E+00 0. -1.
        -12    1    3    3    0    0 -0.47747061748E+02  0.23830037256E+02  0.10045738428E+03  0.11375121379E+03  0.00000000000E+00 0.  1.
        -11    1    4    4    0    0 -0.21081883314E+02  0.53799186585E+00  0.10413935419E+03  0.10625318974E+03  0.00000000000E+00 0.  1.
         11    1    4    4    0    0 -0.59259025307E+01  0.10073020541E+03  0.12644819222E+03  0.16177402733E+03  0.00000000000E+00 0. -1.
          2    1    1    2  501    0  0.62478694111E+02 -0.95557375723E+02  0.11513212065E+03  0.16214254370E+03  0.00000000000E+00 0. -1.
<scales pt_clust_5="13000.00000" pt_clust_6="13000.00000" pt_clust_7="13000.00000" pt_clust_8="13000.00000" pt_clust_9="107.58726"></scales>
<clustering>
<clus scale="   80.734">  5  6 -1 -1</clus>
<clus scale="   87.654">  7  8 -1 -1</clus>
<clus scale="   88.368">  2  5  1 -1</clus>
<clus scale="  107.587">  1  9  2 -1</clus>
<clus scale="  107.587">  1  5  2 -1</clus>
</clustering>
</event>
<event>
 9    1  0.7586638E-005  0.9126422E+02  0.7546771E-02  0.1306981E+00
         21   -1    0    0  501  502  0.00000000000E+00  0.00000000000E+00  0.83999098494E+02  0.83999098494E+02  0.00000000000E+00 0.  1.
         -2   -1    0    0    0  501 -0.00000000000E+00 -0.00000000000E+00 -0.22673989569E+03  0.22673989569E+03  0.00000000000E+00 0.  1.
        -24    2    1    2    0    0 -0.54715436284E+01 -0.31680152122E+01 -0.15233868348E+03  0.17192755237E+03  0.79448314441E+02 0.  0.
         23    2    1    2    0    0  0.20632351626E+02  0.27036739518E+02  0.32713516498E+02  0.10228886717E+03  0.90753286262E+02 0.  0.
         11    1    3    3    0    0  0.31487273304E+02 -0.43512083461E+01 -0.28521574679E+02  0.42706692876E+02  0.00000000000E+00 0. -1.
        -12    1    3    3    0    0 -0.36958816933E+02  0.11831931339E+01 -0.12381710881E+03  0.12922085949E+03  0.00000000000E+00 0.  1.
        -13    1    4    4    0    0  0.34793352090E+02  0.44277723510E+02  0.49015500532E+02  0.74656636954E+02  0.00000000000E+00 0.  1.
         13    1    4    4    0    0 -0.14161000465E+02 -0.17240983992E+02 -0.16301984033E+02  0.27632230214E+02  0.00000000000E+00 0. -1.
         -1    1    1    2    0  502 -0.15160807997E+02 -0.23868724305E+02 -0.23115630214E+02  0.36522574653E+02  0.00000000000E+00 0.  1.
<scales pt_clust_5="13000.00000" pt_clust_6="13000.00000" pt_clust_7="13000.00000" pt_clust_8="13000.00000" pt_clust_9="28.27661"></scales>
<clustering>
<clus scale="   28.277">  1  9  2 -1</clus>
<clus scale="   79.448">  5  6 -1 -1</clus>
<clus scale="   80.031">  2  5  1 -1</clus>
<clus scale="   90.753">  7  8 -1 -1</clus>
<clus scale="   28.277">  1  5  2 -1</clus>
</clustering>
</event>
<event>
 9    1  0.7586638E-005  0.9743098E+02  0.7546771E-02  0.1291500E+00
          3   -1    0    0  502    0 -0.00000000000E+00  0.00000000000E+00  0.77181446597E+02  0.77181446597E+02  0.00000000000E+00 0. -1.
         21   -1    0    0  501  502  0.00000000000E+00 -0.00000000000E+00 -0.63421429356E+03  0.63421429356E+03  0.00000000000E+00 0. -1.
         23    2    1    2    0    0  0.35367329575E+01  0.50582289556E+02  0.13412912570E+02  0.10527929709E+03  0.91283885078E+02 0.  0.
        -24    2    1    2    0    0  0.38136231667E+02  0.26393864502E+02 -0.14874542101E+03  0.17542729788E+03  0.80613449999E+02 0.  0.
         13    1    4    4    0    0  0.78147174670E+01  0.52390582105E+02 -0.88653159707E+02  0.10327257927E+03  0.00000000000E+00 0. -1.
        -14    1    4    4    0    0  0.30321514200E+02 -0.25996717603E+02 -0.60092261302E+02  0.72154718611E+02  0.00000000000E+00 0.  1.
        -11    1    3    3    0    0 -0.31450130704E+00 -0.26824203927E+02  0.15116895807E+01  0.26868606826E+02  0.00000000000E+00 0.  1.
         11    1    3    3    0    0  0.38512342645E+01  0.77406493483E+02  0.11901222989E+02  0.78410690262E+02  0.00000000000E+00 0. -1.
          4    1    1    2  501    0 -0.41672964625E+02 -0.76976154058E+02 -0.42170033853E+03  0.43068914519E+03  0.00000000000E+00 0. -1.
<scales pt_clust_5="13000.00000" pt_clust_6="13000.00000" pt_clust_7="13000.00000" pt_clust_8="13000.00000" pt_clust_9="87.53265"></scales>
<clustering>
<clus scale="   80.613">  5  6 -1 -1</clus>
<clus scale="   87.533">  2  9  1 -1</clus>
<clus scale="   87.533">  2  5  1 -1</clus>
<clus scale="   91.284">  7  8 -1 -1</clus>
<clus scale="   87.533">  2  5  1 -1</clus>
</clustering>
</event>
<event>
 9    1  0.7586638E-005  0.1442143E+03  0.7546771E-02  0.1232849E+00
         21   -1    0    0  501  502  0.00000000000E+00  0.00000000000E+00  0.39078416828E+03  0.39078416828E+03  0.00000000000E+00 0. -1.
          1   -1    0    0  502    0 -0.00000000000E+00 -0.00000000000E+00 -0.10202780047E+03  0.10202780047E+03  0.00000000000E+00 0. -1.
        -24    2    1    2    0    0  0.20481680481E+02 -0.57964567082E+01  0.14287885165E+03  0.16634837056E+03  0.82488277911E+02 0.  0.
         23    2    1    2    0    0 -0.38054736040E+02  0.11222405692E+03  0.16032443085E+03  0.21763180269E+03  0.87277010312E+02 0.  0.
         11    1    3    3    0    0 -0.11340050888E+02  0.17643140032E+02  0.32374156894E+01  0.21221640009E+02  0.00000000000E+00 0. -1.
        -12    1    3    3    0    0  0.31821731369E+02 -0.23439596740E+02  0.13964143596E+03  0.14512673055E+03  0.00000000000E+00 0.  1.
        -13    1    4    4    0    0  0.26450753739E+02  0.52891274716E+02  0.56884968381E+02  0.82055036056E+02  0.00000000000E+00 0. -1.
         13    1    4    4    0    0 -0.64505489779E+02  0.59332782203E+02  0.10343946247E+03  0.13557676664E+03  0.00000000000E+00 0.  1.
          2    1    1    2  501    0  0.17573055559E+02 -0.10642760021E+03 -0.14446914696E+02  0.10883179550E+03  0.00000000000E+00 0. -1.
<scales pt_clust_5="13000.00000" pt_clust_6="13000.00000" pt_clust_7="13000.00000" pt_clust_8="13000.00000" pt_clust_9="114.80634"></scales>
<clustering>
<clus scale="   82.488">  5  6 -1 -1</clus>
<clus scale="   85.191">  2  5  1 -1</clus>
<clus scale="   87.277">  7  8 -1 -1</clus>
<clus scale="  114.806">  1  9  2 -1</clus>
<clus scale="  114.806">  1  5  2 -1</clus>
</clustering>
</event>
<event>
 9    1  0.7586638E-005  0.1573213E+03  0.7546771E-02  0.1193223E+00
         21   -1    0    0  501  502  0.00000000000E+00  0.00000000000E+00  0.65684523765E+03  0.65684523765E+03  0.00000000000E+00 0. -1.
          1   -1    0    0  502    0 -0.00000000000E+00 -0.00000000000E+00 -0.66154643980E+02  0.66154643980E+02  0.00000000000E+00 0. -1.
         23    2    1    2    0    0 -0.12036688504E+03 -0.17561090199E+02  0.87524426326E+02  0.17453934588E+03  0.89481166471E+02 0.  0.
        -24    2    1    2    0    0  0.14759489658E+03  0.19908846357E+02  0.30834638578E+03  0.35173325279E+03  0.80362751552E+02 0.  0.
         13    1    4    4    0    0  0.10971828642E+03 -0.90849620688E+01  0.14809823321E+03  0.18453651561E+03  0.00000000000E+00 0. -1.
        -14    1    4    4    0    0  0.37876610152E+02  0.28993808426E+02  0.16024815257E+03  0.16719673719E+03  0.00000000000E+00 0.  1.
        -11    1    3    3    0    0 -0.54846993961E+02  0.34951869101E+02  0.52407593241E+02  0.83524737231E+02  0.00000000000E+00 0.  1.
         11    1    3    3    0    0 -0.65519891084E+02 -0.52512959300E+02  0.35116833085E+02  0.91014608651E+02  0.00000000000E+00 0. -1.
          2    1    1    2  501    0 -0.27228011533E+02 -0.23477561587E+01  0.19481978156E+03  0.19672728295E+03  0.00000000000E+00 0. -1.
<scales pt_clust_5="13000.00000" pt_clust_6="13000.00000" pt_clust_7="13000.00000" pt_clust_8="13000.00000" pt_clust_9="27.32904"></scales>
<clustering>
<clus scale="   27.329">  1  9  2 -1</clus>
<clus scale="   80.363">  5  6 -1 -1</clus>
<clus scale="   89.481">  7  8 -1 -1</clus>
<clus scale="  152.320">  1  5  2 -1</clus>
<clus scale="   27.329">  1  5  2 -1</clus>
</clustering>
</event>
<event>
 9    1  0.7586638E-005  0.1292459E+03  0.7546771E-02  0.1232888E+00
         21   -1    0    0  501  502  0.00000000000E+00  0.00000000000E+00  0.13202367254E+03  0.13202367254E+03  0.00000000000E+00 0.  1.
          1   -1    0    0  502    0 -0.00000000000E+00 -0.00000000000E+00 -0.65046139406E+03  0.65046139406E+03  0.00000000000E+00 0. -1.
        -24    2    1    2    0    0 -0.82779638909E+02 -0.23354862393E+02 -0.58257663425E+03  0.59436417019E+03  0.80469334611E+02 0.  0.
         23    2    1    2    0    0  0.84645459715E+02  0.59081707035E+02  0.54522638349E+02  0.15107549928E+03  0.95893620403E+02 0.  0.
         13    1    3    3    0    0 -0.85504497916E+02  0.69344203535E+01 -0.46930772782E+03  0.47708369155E+03  0.00000000000E+00 0. -1.
        -14    1    3    3    0    0  0.27248590075E+01 -0.30289282747E+02 -0.11326890643E+03  0.11728047864E+03  0.00000000000E+00 0.  1.
        -13    1    4    4    0    0  0.69797324895E+02 -0.94052582601E+01  0.21729018690E+02  0.73703973425E+02  0.00000000000E+00 0.  1.
         13    1    4    4    0    0  0.14848134820E+02  0.68486965295E+02  0.32793619659E+02  0.77371525856E+02  0.00000000000E+00 0. -1.
          2    1    1    2  501    0 -0.18658208065E+01 -0.35726844642E+02  0.96162743841E+01  0.37045397128E+02  0.00000000000E+00 0. -1.
<scales pt_clust_5="13000.00000" pt_clust_6="13000.00000" pt_clust_7="13000.00000" pt_clust_8="13000.00000" pt_clust_9="35.77553"></scales>
<clustering>
<clus scale="   35.776">  1  9  2 -1</clus>
<clus scale="   80.469">  5  6 -1 -1</clus>
<clus scale="   95.894">  7  8 -1 -1</clus>
<clus scale="  118.255">  2  5  1 -1</clus>
<clus scale="   35.776">  1  5  2 -1</clus>
</clustering>
</event>
<event>
 9    1  0.7586638E-005  0.1295282E+03  0.7546771E-02  0.1241333E+00
          1   -1    0    0  502    0 -0.00000000000E+00  0.00000000000E+00  0.29192080984E+03  0.29192080984E+03  0.00000000000E+00 0. -1.
         21   -1    0    0  501  502  0.00000000000E+00 -0.00000000000E+00 -0.12704377942E+03  0.12704377942E+03  0.00000000000E+00 0. -1.
         23    2    1    2    0    0  0.39354664669E+02 -0.41682080872E+01 -0.30889283234E+02  0.10359852739E+03  0.90621981157E+02 0.  0.
        -24    2    1    2    0    0  0.69975541562E+02 -0.29206832610E+01  0.17140225429E+03  0.20312991009E+03  0.83533949941E+02 0.  0.
         13    1    4    4    0    0  0.16443703433E+02 -0.35822377235E+02  0.10281547098E+03  0.11011203007E+03  0.00000000000E+00 0. -1.
        -14    1    4    4    0    0  0.53531838129E+02  0.32901693974E+02  0.68586783306E+02  0.93017880024E+02  0.00000000000E+00 0.  1.
        -13    1    3    3    0    0  0.67343100337E+02  0.76518265253E+01 -0.15434490008E+02  0.69511632796E+02  0.00000000000E+00 0. -1.
         13    1    3    3    0    0 -0.27988435668E+02 -0.11820034613E+02 -0.15454793226E+02  0.34086894594E+02  0.00000000000E+00 0.  1.
          2    1    1    2  501    0 -0.10933020623E+03  0.70888913482E+01  0.24364059367E+02  0.11223615177E+03  0.00000000000E+00 0. -1.
<scales pt_clust_5="13000.00000" pt_clust_6="13000.00000" pt_clust_7="13000.00000" pt_clust_8="13000.00000" pt_clust_9="98.99315"></scales>
<clustering>
<clus scale="   83.534">  5  6 -1 -1</clus>
<clus scale="   90.622">  7  8 -1 -1</clus>
<clus scale="   98.886">  1  7  2 -1</clus>
<clus scale="   98.993">  2  9  1 -1</clus>
<clus scale="   98.993">  2  5  1 -1</clus>
</clustering>
</event>
<event>
 9    1  0.7586638E-005  0.1052244E+03  0.7546771E-02  0.1274091E+00
         21   -1    0    0  501  502  0.00000000000E+00  0.00000000000E+00  0.16706297566E+03  0.16706297566E+03  0.00000000000E+00 0. -1.
          1   -1    0    0  502    0 -0.00000000000E+00 -0.00000000000E+00 -0.86467087498E+02  0.86467087498E+02  0.00000000000E+00 0. -1.
        -24    2    1    2    0    0 -0.31657890484E+02 -0.50571437430E+02 -0.73468151598E+01  0.10009104937E+03  0.80028433425E+02 0.  0.
         23    2    1    2    0    0  0.11132975428E+02  0.41432608115E+02  0.84241910411E+02  0.13066872158E+03  0.90205383282E+02 0.  0.
         11    1    3    3    0    0 -0.23750499510E+02 -0.72030380235E+02 -0.11899598634E+02  0.76772796950E+02  0.00000000000E+00 0. -1.
        -12    1    3    3    0    0 -0.79073909739E+01  0.21458942806E+02  0.45527834739E+01  0.23318252416E+02  0.00000000000E+00 0.  1.
        -11    1    4    4    0    0  0.35073547998E+02  0.45383380063E+02  0.89059124765E+02  0.10593079184E+03  0.00000000000E+00 0. -1.
         11    1    4    4    0    0 -0.23940572570E+02 -0.39507719489E+01 -0.48172143537E+01  0.24737929746E+02  0.00000000000E+00 0.  1.
          2    1    1    2  501    0  0.20524915055E+02  0.91388293150E+01  0.37007929134E+01  0.22770292213E+02  0.00000000000E+00 0. -1.
<scales pt_clust_5="13000.00000" pt_clust_6="13000.00000" pt_clust_7="13000.00000" pt_clust_8="13000.00000" pt_clust_9="22.46755"></scales>
<clustering>
<clus scale="   22.468">  1  9  2 -1</clus>
<clus scale="   80.028">  5  6 -1 -1</clus>
<clus scale="   90.205">  7  8 -1 -1</clus>
<clus scale="   96.642">  2  5  1 -1</clus>
<clus scale="   22.468">  1  5  2 -1</clus>
</clustering>
</event>
<event>
 9    1  0.7586638E-005  0.1156675E+03  0.7546771E-02  0.1254711E+00
         21   -1    0    0  501  502  0.00000000000E+00  0.00000000000E+00  0.43152473575E+02  0.43152473575E+02  0.00000000000E+00 0. -1.
          1   -1    0    0  502    0 -0.00000000000E+00 -0.00000000000E+00 -0.42639250907E+03  0.42639250907E+03  0.00000000000E+00 0. -1.
         23    2    1    2    0    0  0.25831372446E+02  0.55467814831E+02 -0.14958612898E+03  0.18543351113E+03  0.90915558522E+02 0.  0.
        -24    2    1    2    0    0 -0.65682945530E+02 -0.57176575226E+02 -0.14201639670E+03  0.18416898333E+03  0.78524820292E+02 0.  0.
         13    1    4    4    0    0 -0.22955336878E+02 -0.69066299204E+02 -0.92351217228E+02  0.11758336830E+03  0.00000000000E+00 0. -1.
        -14    1    4    4    0    0 -0.42727608652E+02  0.11889723978E+02 -0.49665179469E+02  0.66585615032E+02  0.00000000000E+00 0.  1.
        -13    1    3    3    0    0 -0.23448618356E+02  0.53713222785E+02 -0.97101352642E+02  0.11341790286E+03  0.00000000000E+00 0. -1.
         13    1    3    3    0    0  0.49279990801E+02  0.17545920466E+01 -0.52484776336E+02  0.72015608265E+02  0.00000000000E+00 0.  1.
          2    1    1    2  501    0  0.39851573084E+02  0.17087603943E+01 -0.91637509821E+02  0.99942488189E+02  0.00000000000E+00 0. -1.
<scales pt_clust_5="13000.00000" pt_clust_6="13000.00000" pt_clust_7="13000.00000" pt_clust_8="13000.00000" pt_clust_9="39.88821"></scales>
<clustering>
<clus scale="   39.888">  1  9  2 -1</clus>
<clus scale="   78.525">  5  6 -1 -1</clus>
<clus scale="   90.916">  7  8 -1 -1</clus>
<clus scale="  106.205">  1  5  2 -1</clus>
<clus scale="   39.888">  1  5  2 -1</clus>
</clustering>
</event>
<event>
 9    1  0.7586638E-005  0.1286391E+03  0.7546771E-02  0.1230956E+00
         -2   -1    0    0    0  501 -0.00000000000E+00  0.00000000000E+00  0.51956851268E+03  0.51956851268E+03  0.00000000000E+00 0.  1.
         21   -1    0    0  501  502  0.00000000000E+00 -0.00000000000E+00 -0.58689023352E+02  0.58689023352E+02  0.00000000000E+00 0.  1.
         23    2    1    2    0    0  0.93906904143E+01  0.12160803454E+03  0.27751720101E+03  0.31541635051E+03  0.87149172018E+02 0.  0.
        -24    2    1    2    0    0  0.37438251155E+02 -0.64681179691E+02  0.13599029447E+03  0.17521857216E+03  0.81381264336E+02 0.  0.
         13    1    4    4    0    0 -0.14772241445E+02 -0.55236323026E+02  0.64577216188E+02  0.86252462859E+02  0.00000000000E+00 0. -1.
        -14    1    4    4    0    0  0.52210492599E+02 -0.94448566657E+01  0.71413078277E+02  0.88966109300E+02  0.00000000000E+00 0.  1.
        -11    1    3    3    0    0 -0.10463793169E+01  0.22853123060E+02  0.24925166851E+01  0.23012448429E+02  0.00000000000E+00 0. -1.
         11    1    3    3    0    0  0.10437069731E+02  0.98754911476E+02  0.27502468432E+03  0.29240390208E+03  0.00000000000E+00 0.  1.
         -1    1    1    2    0  502 -0.46828941569E+02 -0.56926854845E+02  0.47371993861E+02  0.87622613367E+02  0.00000000000E+00 0.  1.
<scales pt_clust_5="13000.00000" pt_clust_6="13000.00000" pt_clust_7="13000.00000" pt_clust_8="13000.00000" pt_clust_9="73.71307"></scales>
<clustering>
<clus scale="   73.713">  2  9  1 -1</clus>
<clus scale="   81.381">  5  6 -1 -1</clus>
<clus scale="   87.149">  7  8 -1 -1</clus>
<clus scale="  124.804">  2  5  1 -1</clus>
<clus scale="   73.713">  2  5  1 -1</clus>
</clustering>
</event>
<event>
 9    1  0.7586638E-005  0.1513889E+03  0.7546771E-02  0.1212385E+00
         -2   -1    0    0    0  501 -0.00000000000E+00  0.00000000000E+00  0.26691404059E+03  0.26691404059E+03  0.00000000000E+00 0.  1.
         21   -1    0    0  501  502  0.00000000000E+00 -0.00000000000E+00 -0.33619603117E+03  0.33619603117E+03  0.00000000000E+00 0.  1.
        -24    2    1    2    0    0  0.41093974401E+02 -0.71891302417E+02  0.52521846251E+02  0.12457738777E+03  0.76836886420E+02 0.  0.
         23    2    1    2    0    0 -0.66820416932E+02 -0.50962181218E+02  0.14063590736E+03  0.18762127545E+03  0.91439447324E+02 0.  0.
         11    1    3    3    0    0  0.18189174714E+02  0.12323860082E+02 -0.13547845187E+01  0.22012701906E+02  0.00000000000E+00 0. -1.
        -12    1    3    3    0    0  0.22904799687E+02 -0.84215162498E+02  0.53876630770E+02  0.10256468586E+03  0.00000000000E+00 0.  1.
        -13    1    4    4    0    0 -0.30856010779E+02 -0.22815431968E+02 -0.14236114483E+01  0.38401354229E+02  0.00000000000E+00 0. -1.
         13    1    4    4    0    0 -0.35964406154E+02 -0.28146749250E+02  0.14205951881E+03  0.14921992122E+03  0.00000000000E+00 0.  1.
         -1    1    1    2    0  502  0.25726442531E+02  0.12285348363E+03 -0.26243974419E+03  0.29091140854E+03  0.00000000000E+00 0.  1.
<scales pt_clust_5="13000.00000" pt_clust_6="13000.00000" pt_clust_7="13000.00000" pt_clust_8="13000.00000" pt_clust_9="120.65418"></scales>
<clustering>
<clus scale="   76.837">  5  6 -1 -1</clus>
<clus scale="   91.439">  7  8 -1 -1</clus>
<clus scale="  112.965">  1  5  2 -1</clus>
<clus scale="  120.654">  2  9  1 -1</clus>
<clus scale="  120.654">  2  5  1 -1</clus>
</clustering>
</event>
<event>
 9    1  0.7586638E-005  0.1607257E+03  0.7546771E-02  0.1188158E+00
         21   -1    0    0  501  502  0.00000000000E+00  0.00000000000E+00  0.31019276381E+03  0.31019276381E+03  0.00000000000E+00 0.  1.
          1   -1    0    0  502    0 -0.00000000000E+00 -0.00000000000E+00 -0.23912435701E+03  0.23912435701E+03  0.00000000000E+00 0. -1.
         23    2    1    2    0    0  0.99760227295E+02  0.58016033029E+02  0.57423550626E+02  0.15895993403E+03  0.93020607511E+02 0.  0.
        -24    2    1    2    0    0 -0.17547981481E+03  0.25627905084E+02  0.12208980034E+03  0.23386415106E+03  0.91304802057E+02 0.  0.
         11    1    4    4    0    0 -0.46514198255E+02  0.44444229791E+02  0.17269827019E+02  0.66611614049E+02  0.00000000000E+00 0. -1.
        -12    1    4    4    0    0 -0.12896561656E+03 -0.18816324707E+02  0.10481997332E+03  0.16725253701E+03  0.00000000000E+00 0.  1.
        -11    1    3    3    0    0  0.82089816971E+01  0.34934531235E+02 -0.16062040351E+02  0.39316637615E+02  0.00000000000E+00 0.  1.
         11    1    3    3    0    0  0.91551245598E+02  0.23081501794E+02  0.73485590977E+02  0.11964329641E+03  0.00000000000E+00 0. -1.
          2    1    1    2  501    0  0.75719587518E+02 -0.83643938112E+02 -0.10844494417E+03  0.15649303573E+03  0.00000000000E+00 0. -1.
<scales pt_clust_5="13000.00000" pt_clust_6="13000.00000" pt_clust_7="13000.00000" pt_clust_8="13000.00000" pt_clust_9="112.82631"></scales>
<clustering>
<clus scale="   91.305">  5  6 -1 -1</clus>
<clus scale="   93.021">  7  8 -1 -1</clus>
<clus scale="  112.826">  1  9  2 -1</clus>
<clus scale="  159.739">  1  5  2 -1</clus>
<clus scale="  112.826">  1  5  2 -1</clus>
</clustering>
</event>
<event>
 9    1  0.7586638E-005  0.1265194E+03  0.7546771E-02  0.1244185E+00
         -2   -1    0    0    0  501 -0.00000000000E+00  0.00000000000E+00  0.74475440310E+02  0.74475440310E+02  0.00000000000E+00 0.  1.
         21   -1    0    0  501  502  0.00000000000E+00 -0.00000000000E+00 -0.25514104476E+03  0.25514104476E+03  0.00000000000E+00 0.  1.
         23    2    1    2    0    0 -0.51079100528E+02  0.12360221855E+02 -0.74078407537E+02  0.14596399357E+03  0.11426297459E+03 0.  0.
        -24    2    1    2    0    0  0.58012107006E+02  0.20100437574E+02 -0.10849112683E+03  0.15040514666E+03  0.84154330792E+02 0.  0.
         11    1    4    4    0    0 -0.19692949912E+02 -0.65676229067E+01 -0.32069562151E+02  0.38202130352E+02  0.00000000000E+00 0. -1.
        -12    1    4    4    0    0  0.77705056919E+02  0.26668060481E+02 -0.76421564678E+02  0.11220301631E+03  0.00000000000E+00 0.  1.
        -13    1    3    3    0    0  0.21041596813E+02 -0.28171628106E+02 -0.37398319470E+00  0.35164318421E+02  0.00000000000E+00 0. -1.
         13    1    3    3    0    0 -0.72120697342E+02  0.40531849961E+02 -0.73704424343E+02  0.11079967515E+03  0.00000000000E+00 0.  1.
         -1    1    1    2    0  502 -0.69330064777E+01 -0.32460659429E+02  0.19039299187E+01  0.33247344834E+02  0.00000000000E+00 0.  1.
<scales pt_clust_5="13000.00000" pt_clust_6="13000.00000" pt_clust_7="13000.00000" pt_clust_8="13000.00000" pt_clust_9="33.19280"></scales>
<clustering>
<clus scale="   33.193">  2  9  1 -1</clus>
<clus scale="   84.154">  5  6 -1 -1</clus>
<clus scale="  100.165">  2  5  1 -1</clus>
<clus scale="  114.263">  7  8 -1 -1</clus>
<clus scale="   33.193">  2  5  1 -1</clus>
</clustering>
</event>
<event>
 9    1  0.7586638E-005  0.1921459E+03  0.7546771E-02  0.1157259E+00
         21   -1    0    0  501  502  0.00000000000E+00  0.00000000000E+00  0.15167879562E+03  0.15167879562E+03  0.00000000000E+00 0. -1.
          1   -1    0    0  502    0 -0.00000000000E+00 -0.00000000000E+00 -0.77554507005E+03  0.77554507005E+03  0.00000000000E+00 0. -1.
        -24    2    1    2    0    0 -0.33548603450E+02  0.16947270571E+03 -0.66398383268E+03  0.69062100275E+03  0.78970453973E+02 0.  0.
         23    2    1    2    0    0  0.56432621037E+02 -0.15568411554E+03 -0.19465837492E+01  0.18677119105E+03  0.86356841456E+02 0.  0.
         13    1    3    3    0    0 -0.57466386507E+02  0.12880180220E+03 -0.45408197349E+03  0.47548157533E+03  0.00000000000E+00 0. -1.
        -14    1    3    3    0    0  0.23917783056E+02  0.40670903512E+02 -0.20990185919E+03  0.21513942742E+03  0.00000000000E+00 0.  1.
        -13    1    4    4    0    0  0.10860166608E+01 -0.53069656720E+02  0.36029036294E+02  0.64153404842E+02  0.00000000000E+00 0.  1.
         13    1    4    4    0    0  0.55346604376E+02 -0.10261445882E+03 -0.37975620043E+02  0.12261778620E+03  0.00000000000E+00 0. -1.
          2    1    1    2  501    0 -0.22884017587E+02 -0.13788590168E+02  0.42064142002E+02  0.49831671878E+02  0.00000000000E+00 0. -1.
<scales pt_clust_5="13000.00000" pt_clust_6="13000.00000" pt_clust_7="13000.00000" pt_clust_8="13000.00000" pt_clust_9="26.71710"></scales>
<clustering>
<clus scale="   26.717">  1  9  2 -1</clus>
<clus scale="   78.970">  5  6 -1 -1</clus>
<clus scale="   86.357">  7  8 -1 -1</clus>
<clus scale="  188.941">  2  5  1 -1</clus>
<clus scale="   26.717">  1  5  2 -1</clus>
</clustering>
</event>
<event>
 9    1  0.7936380E-005  0.9455251E+02  0.7546771E-02  0.1300258E+00
         -2   -1    0    0    0  501 -0.00000000000E+00  0.00000000000E+00  0.42527085710E+03  0.42527085710E+03  0.00000000000E+00 0.  1.
         21   -1    0    0  501  502  0.00000000000E+00 -0.00000000000E+00 -0.26218020859E+03  0.26218020859E+03  0.00000000000E+00 0.  1.
        -24    2    1    2    0    0 -0.73487511847E+00  0.22321192975E+02  0.38545440826E+03  0.39411588753E+03  0.79078797810E+02 0.  0.
         23    2    1    2    0    0 -0.57804040806E+01  0.38622245315E+02 -0.53760612697E+02  0.11393737236E+03  0.92555013033E+02 0.  0.
         13    1    3    3    0    0  0.21336204359E+02  0.22253709801E+02  0.56020021176E+02  0.63942974508E+02  0.00000000000E+00 0. -1.
        -14    1    3    3    0    0 -0.22071079477E+02  0.67483173347E-01  0.32943438708E+03  0.33017291302E+03  0.00000000000E+00 0.  1.
        -13    1    4    4    0    0  0.35865990224E+02  0.40765652467E+02 -0.13451646991E+02  0.55938845918E+02  0.00000000000E+00 0.  1.
         13    1    4    4    0    0 -0.41646394305E+02 -0.21434071525E+01 -0.40308965707E+02  0.57998526439E+02  0.00000000000E+00 0. -1.
         -1    1    1    2    0  502  0.65152791990E+01 -0.60943438290E+02 -0.16860314705E+03  0.17939780580E+03  0.00000000000E+00 0.  1.
<scales pt_clust_5="13000.00000" pt_clust_6="13000.00000" pt_clust_7="13000.00000" pt_clust_8="13000.00000" pt_clust_9="61.29071"></scales>
<clustering>
<clus scale="   61.291">  2  9  1 -1</clus>
<clus scale="   79.079">  5  6 -1 -1</clus>
<clus scale="   81.408">  1  5  2 -1</clus>
<clus scale="   92.555">  7  8 -1 -1</clus>
<clus scale="   61.291">  2  5  1 -1</clus>
</clustering>
</event>
<event>
 9    1  0.7586638E-005  0.2166237E+03  0.7546771E-02  0.1136830E+00
         21   -1    0    0  501  502  0.00000000000E+00  0.00000000000E+00  0.68410329702E+02  0.68410329702E+02  0.00000000000E+00 0.  1.
          1   -1    0    0  502    0 -0.00000000000E+00 -0.00000000000E+00 -0.10230933027E+04  0.10230933027E+04  0.00000000000E+00 0. -1.
         23    2    1    2    0    0 -0.11236283681E+03 -0.15423304781E+03 -0.64730036209E+03  0.68107706552E+03  0.91950912339E+02 0.  0.
        -24    2    1    2    0    0  0.10692048164E+03  0.17864628176E+03 -0.31198036028E+03  0.38499500145E+03  0.86850000322E+02 0.  0.
         13    1    4    4    0    0  0.75953600208E+02  0.15438093750E+03 -0.29632544321E+03  0.34265316508E+03  0.00000000000E+00 0. -1.
        -14    1    4    4    0    0  0.30966881435E+02  0.24265344267E+02 -0.15654917068E+02  0.42341836363E+02  0.00000000000E+00 0.  1.
        -11    1    3    3    0    0 -0.66114141028E+02 -0.72701954755E+02 -0.18614086448E+03  0.21048770819E+03  0.00000000000E+00 0.  1.
         11    1    3    3    0    0 -0.46248695782E+02 -0.81531093057E+02 -0.46115949761E+03  0.47058935733E+03  0.00000000000E+00 0. -1.
          2    1    1    2  501    0  0.54423551675E+01 -0.24413233950E+02  0.45977493662E+01  0.25431565443E+02  0.00000000000E+00 0. -1.
<scales pt_clust_5="13000.00000" pt_clust_6="13000.00000" pt_clust_7="13000.00000" pt_clust_8="13000.00000" pt_clust_9="25.01250"></scales>
<clustering>
<clus scale="   25.013">  1  9  2 -1</clus>
<clus scale="   86.850">  5  6 -1 -1</clus>
<clus scale="   91.951">  7  8 -1 -1</clus>
<clus scale="  214.508">  1  5  2 -1</clus>
<clus scale="   25.013">  1  5  2 -1</clus>
</clustering>
</event>
<event>
 9    1  0.7586638E-005  0.2023895E+03  0.7546771E-02  0.1148814E+00
         21   -1    0    0  501  502  0.00000000000E+00  0.00000000000E+00  0.60750398856E+02  0.60750398856E+02  0.00000000000E+00 0. -1.
          1   -1    0    0  502    0 -0.00000000000E+00 -0.00000000000E+00 -0.12950491519E+04  0.12950491519E+04  0.00000000000E+00 0. -1.
        -24    2    1    2    0    0  0.14245221258E+03  0.13431596010E+03 -0.77365804312E+03  0.80200170178E+03  0.79539625082E+02 0.  0.
         23    2    1    2    0    0 -0.16005837533E+03 -0.28350477343E+02 -0.20865353442E+03  0.27987049161E+03  0.91480935543E+02 0.  0.
         13    1    3    3    0    0  0.95911460090E+02  0.61498123806E+02 -0.56103449657E+03  0.57248644853E+03  0.00000000000E+00 0. -1.
        -14    1    3    3    0    0  0.46540752488E+02  0.72817836289E+02 -0.21262354655E+03  0.22951525324E+03  0.00000000000E+00 0.  1.
        -13    1    4    4    0    0 -0.36214800885E+02 -0.34487133872E+02 -0.19453533708E+02  0.53659241326E+02  0.00000000000E+00 0. -1.
         13    1    4    4    0    0 -0.12384357444E+03  0.61366565291E+01 -0.18920000071E+03  0.22621125028E+03  0.00000000000E+00 0.  1.
          2    1    1    2  501    0  0.17606162750E+02 -0.10596548275E+03 -0.25198717550E+03  0.27392735738E+03  0.00000000000E+00 0. -1.
<scales pt_clust_5="13000.00000" pt_clust_6="13000.00000" pt_clust_7="13000.00000" pt_clust_8="13000.00000" pt_clust_9="107.41821"></scales>
<clustering>
<clus scale="   79.540">  5  6 -1 -1</clus>
<clus scale="   91.481">  7  8 -1 -1</clus>
<clus scale="  107.418">  1  9  2 -1</clus>
<clus scale="  197.280">  2  5  1 -1</clus>
<clus scale="  107.418">  1  5  2 -1</clus>
</clustering>
</event>
<event>
 9    1  0.7586638E-005  0.1099252E+03  0.7546771E-02  0.1265688E+00
         21   -1    0    0  501  502  0.00000000000E+00  0.00000000000E+00  0.22145048788E+02  0.22145048788E+02  0.00000000000E+00 0. -1.
          1   -1    0    0  502    0 -0.00000000000E+00 -0.00000000000E+00 -0.12106725972E+04  0.12106725972E+04  0.00000000000E+00 0. -1.
        -24    2    1    2    0    0 -0.34387611663E+02  0.23035389847E+02 -0.32104162899E+03  0.33277448030E+03  0.77188018326E+02 0.  0.
         23    2    1    2    0    0  0.11210690577E+03 -0.26053724220E+02 -0.39402834109E+03  0.42023958348E+03  0.89978992410E+02 0.  0.
         11    1    3    3    0    0 -0.30289580440E+02  0.43653249483E+02 -0.12796990680E+03  0.13856176211E+03  0.00000000000E+00 0. -1.
        -12    1    3    3    0    0 -0.40980312228E+01 -0.20617859635E+02 -0.19307172220E+03  0.19421271819E+03  0.00000000000E+00 0.  1.
        -11    1    4    4    0    0  0.47492681125E+02  0.31971309656E+02 -0.12374782751E+03  0.13634971293E+03  0.00000000000E+00 0.  1.
         11    1    4    4    0    0  0.64614224646E+02 -0.58025033876E+02 -0.27028051358E+03  0.28388987055E+03  0.00000000000E+00 0. -1.
          2    1    1    2  501    0 -0.77719294108E+02  0.30183343724E+01 -0.47345757836E+03  0.47980358224E+03  0.00000000000E+00 0. -1.
<scales pt_clust_5="13000.00000" pt_clust_6="13000.00000" pt_clust_7="13000.00000" pt_clust_8="13000.00000" pt_clust_9="77.77792"></scales>
<clustering>
<clus scale="   77.188">  5  6 -1 -1</clus>
<clus scale="   77.778">  1  9  2 -1</clus>
<clus scale="   89.979">  7  8 -1 -1</clus>
<clus scale="   99.726">  2  5  1 -1</clus>
<clus scale="   77.778">  1  5  2 -1</clus>
</clustering>
</event>
<event>
 9    1  0.7586638E-005  0.1649714E+03  0.7546771E-02  0.1202159E+00
          1   -1    0    0  502    0 -0.00000000000E+00  0.00000000000E+00  0.59861173771E+03  0.59861173771E+03  0.00000000000E+00 0. -1.
         21   -1    0    0  501  502  0.00000000000E+00 -0.00000000000E+00 -0.93740815876E+02  0.93740815876E+02  0.00000000000E+00 0. -1.
        -24    2    1    2    0    0  0.72648519918E+02  0.98977535380E+01  0.27146179634E+03  0.29241989253E+03  0.80262779076E+02 0.  0.
         23    2    1    2    0    0 -0.88451777415E+02  0.13369436860E+03  0.15501884275E+03  0.23557488997E+03  0.75939357750E+02 0.  0.
         11    1    3    3    0    0  0.31330103374E+02  0.27741577737E+02  0.22047223249E+03  0.22440850209E+03  0.00000000000E+00 0. -1.
        -12    1    3    3    0    0  0.41318416544E+02 -0.17843824199E+02  0.50989563848E+02  0.68011390437E+02  0.00000000000E+00 0.  1.
        -13    1    4    4    0    0 -0.22853598031E+02 -0.36245734678E+01  0.94942177220E+01  0.25011290369E+02  0.00000000000E+00 0.  1.
         13    1    4    4    0    0 -0.65598179384E+02  0.13731894206E+03  0.14552462503E+03  0.21056359960E+03  0.00000000000E+00 0. -1.
          2    1    1    2  501    0  0.15803257496E+02 -0.14359212213E+03  0.78390282745E+02  0.16435777108E+03  0.00000000000E+00 0. -1.
<scales pt_clust_5="13000.00000" pt_clust_6="13000.00000" pt_clust_7="13000.00000" pt_clust_8="13000.00000" pt_clust_9="146.45400"></scales>
<clustering>
<clus scale="   75.939">  7  8 -1 -1</clus>
<clus scale="   80.263">  5  6 -1 -1</clus>
<clus scale="  108.710">  1  5  2 -1</clus>
<clus scale="  146.454">  2  9  1 -1</clus>
<clus scale="  146.454">  2  5  1 -1</clus>
</clustering>
</event>
<event>
 9    1  0.7586638E-005  0.1137844E+03  0.7546771E-02  0.1256779E+00
          3   -1    0    0  502    0 -0.00000000000E+00  0.00000000000E+00  0.61827665915E+03  0.61827665915E+03  0.00000000000E+00 0. -1.
         21   -1    0    0  501  502  0.00000000000E+00 -0.00000000000E+00 -0.11803589373E+03  0.11803589373E+03  0.00000000000E+00 0.  1.
        -24    2    1    2    0    0  0.51103514279E+02 -0.46108154628E+02  0.55697453181E+03  0.56700503652E+03  0.80848940994E+02 0.  0.
         23    2    1    2    0    0 -0.76808567394E+02  0.55552288877E+02 -0.36938444761E+02  0.13551704157E+03  0.89525454646E+02 0.  0.
         11    1    3    3    0    0  0.66046725265E+02 -0.96141425256E+01  0.34852942173E+03  0.35486245148E+03  0.00000000000E+00 0. -1.
        -12    1    3    3    0    0 -0.14943210987E+02 -0.36494012103E+02  0.20844511008E+03  0.21214258505E+03  0.00000000000E+00 0.  1.
        -13    1    4    4    0    0  0.97826365370E+01  0.18804863649E+02 -0.35610248955E+02  0.41441678358E+02  0.00000000000E+00 0. -1.
         13    1    4    4    0    0 -0.86591203931E+02  0.36747425227E+02 -0.13281958059E+01  0.94075363211E+02  0.00000000000E+00 0.  1.
          4    1    1    2  501    0  0.25705053115E+02 -0.94441342484E+01 -0.19795321637E+02  0.33790474783E+02  0.00000000000E+00 0. -1.
<scales pt_clust_5="13000.00000" pt_clust_6="13000.00000" pt_clust_7="13000.00000" pt_clust_8="13000.00000" pt_clust_9="27.38506"></scales>
<clustering>
<clus scale="   27.385">  2  9  1 -1</clus>
<clus scale="   80.849">  5  6 -1 -1</clus>
<clus scale="   89.525">  7  8 -1 -1</clus>
<clus scale="  107.092">  1  5  2 -1</clus>
<clus scale="   27.385">  2  5  1 -1</clus>
</clustering>
</event>
<event>
 9    1  0.7586638E-005  0.1684271E+03  0.7546771E-02  0.1180913E+00
         21   -1    0    0  501  502  0.00000000000E+00  0.00000000000E+00  0.17421916998E+03  0.17421916998E+03  0.00000000000E+00 0. -1.
          1   -1    0    0  502    0 -0.00000000000E+00 -0.00000000000E+00 -0.23048912270E+03  0.23048912270E+03  0.00000000000E+00 0. -1.
         23    2    1    2    0    0  0.55002181415E+02 -0.14813495364E+03 -0.62210722717E+02  0.19268544004E+03  0.91040102869E+02 0.  0.
        -24    2    1    2    0    0 -0.32449326566E+00  0.12839687372E+03 -0.89689268947E+01  0.15201001700E+03  0.80874848649E+02 0.  0.
         11    1    4    4    0    0 -0.20868716131E+02  0.12948240728E+03 -0.85751157935E+01  0.13143336608E+03  0.00000000000E+00 0. -1.
        -12    1    4    4    0    0  0.20544222865E+02 -0.10855335603E+01 -0.39381110119E+00  0.20576650929E+02  0.00000000000E+00 0.  1.
        -11    1    3    3    0    0 -0.10957783598E+02 -0.75449792129E+02 -0.55502786958E+02  0.94304313337E+02  0.00000000000E+00 0.  1.
         11    1    3    3    0    0  0.65959965014E+02 -0.72685161513E+02 -0.67079357586E+01  0.98381126701E+02  0.00000000000E+00 0. -1.
          2    1    1    2  501    0 -0.54677688150E+02  0.19738079926E+02  0.14909696896E+02  0.60012835644E+02  0.00000000000E+00 0. -1.
<scales pt_clust_5="13000.00000" pt_clust_6="13000.00000" pt_clust_7="13000.00000" pt_clust_8="13000.00000" pt_clust_9="58.13124"></scales>
<clustering>
<clus scale="   58.131">  1  9  2 -1</clus>
<clus scale="   80.875">  5  6 -1 -1</clus>
<clus scale="   91.040">  7  8 -1 -1</clus>
<clus scale="  163.157">  1  5  2 -1</clus>
<clus scale="   58.131">  1  5  2 -1</clus>
</clustering>
</event>
<event>
 9    1  0.7586638E-005  0.1079993E+03  0.7546771E-02  0.1267751E+00
          3   -1    0    0  502    0 -0.00000000000E+00  0.00000000000E+00  0.16896654142E+03  0.16896654142E+03  0.00000000000E+00 0. -1.
         21   -1    0    0  501  502  0.00000000000E+00 -0.00000000000E+00 -0.35887462456E+03  0.35887462456E+03  0.00000000000E+00 0.  1.
        -24    2    1    2    0    0 -0.48690334022E+02  0.28973066437E+02 -0.10905728138E+02  0.99072512899E+02  0.80537200721E+02 0.  0.
         23    2    1    2    0    0  0.50145567713E+02 -0.76885019351E+02 -0.28501859989E+03  0.31241953569E+03  0.89131811603E+02 0.  0.
         13    1    3    3    0    0 -0.41614166252E+02 -0.21237953530E+02  0.19501653462E+01  0.46761016326E+02  0.00000000000E+00 0. -1.
        -14    1    3    3    0    0 -0.70761677694E+01  0.50211019967E+02 -0.12855893484E+02  0.52311496573E+02  0.00000000000E+00 0.  1.
        -13    1    4    4    0    0  0.25329144883E+02 -0.89614643222E+02 -0.25486012234E+03  0.27134117236E+03  0.00000000000E+00 0.  1.
         13    1    4    4    0    0  0.24816422829E+02  0.12729623872E+02 -0.30158477548E+02  0.41078363331E+02  0.00000000000E+00 0. -1.
          4    1    1    2  501    0 -0.14552336908E+01  0.47911952913E+02  0.10601624488E+03  0.11634911738E+03  0.00000000000E+00 0. -1.
<scales pt_clust_5="13000.00000" pt_clust_6="13000.00000" pt_clust_7="13000.00000" pt_clust_8="13000.00000" pt_clust_9="47.93407"></scales>
<clustering>
<clus scale="   47.934">  2  9  1 -1</clus>
<clus scale="   80.537">  5  6 -1 -1</clus>
<clus scale="   89.132">  7  8 -1 -1</clus>
<clus scale="  101.023">  1  5  2 -1</clus>
<clus scale="   47.934">  2  5  1 -1</clus>
</clustering>
</event>
<event>
 9    1  0.7586638E-005  0.1975922E+03  0.7546771E-02  0.1184567E+00
         21   -1    0    0  501  502  0.00000000000E+00  0.00000000000E+00  0.25672753575E+03  0.25672753575E+03  0.00000000000E+00 0.  1.
         -2   -1    0    0    0  501 -0.00000000000E+00 -0.00000000000E+00 -0.27487350226E+03  0.27487350226E+03  0.00000000000E+00 0.  1.
        -24    2    1    2    0    0 -0.19108231216E+02  0.43991889475E+02 -0.98209132427E+02  0.13533594421E+03  0.79814618106E+02 0.  0.
         23    2    1    2    0    0 -0.11858451613E+03  0.10425371727E+03  0.65479152752E+02  0.19341355688E+03  0.90499500047E+02 0.  0.
         13    1    3    3    0    0 -0.48673064359E+02  0.13208786441E+02 -0.53677066232E+02  0.73653015367E+02  0.00000000000E+00 0. -1.
        -14    1    3    3    0    0  0.29564833142E+02  0.30783103033E+02 -0.44532066195E+02  0.61682928843E+02  0.00000000000E+00 0.  1.
        -13    1    4    4    0    0 -0.10072322717E+03  0.29264513671E+02  0.39051198013E+02  0.11192218867E+03  0.00000000000E+00 0.  1.
         13    1    4    4    0    0 -0.17861288961E+02  0.74989203601E+02  0.26427954739E+02  0.81491368204E+02  0.00000000000E+00 0. -1.
         -1    1    1    2    0  502  0.13769274734E+03 -0.14824560675E+03  0.14584013159E+02  0.20285153692E+03  0.00000000000E+00 0.  1.
<scales pt_clust_5="13000.00000" pt_clust_6="13000.00000" pt_clust_7="13000.00000" pt_clust_8="13000.00000" pt_clust_9="175.64891"></scales>
<clustering>
<clus scale="   79.815">  5  6 -1 -1</clus>
<clus scale="   90.500">  7  8 -1 -1</clus>
<clus scale="   93.117">  2  5  1 -1</clus>
<clus scale="  175.649">  1  9  2 -1</clus>
<clus scale="  175.649">  1  5  2 -1</clus>
</clustering>
</event>
<event>
 9    1  0.7586638E-005  0.1391337E+03  0.7546771E-02  0.1216881E+00
         21   -1    0    0  501  502  0.00000000000E+00  0.00000000000E+00  0.74638003550E+02  0.74638003550E+02  0.00000000000E+00 0. -1.
          1   -1    0    0  502    0 -0.00000000000E+00 -0.00000000000E+00 -0.66525976716E+03  0.66525976716E+03  0.00000000000E+00 0. -1.
         23    2    1    2    0    0 -0.62402844732E+02  0.42624541248E+02 -0.25219255000E+03  0.27878062346E+03  0.91687442962E+02 0.  0.
        -24    2    1    2    0    0  0.15010036033E+03 -0.44085363129E+02 -0.32863473706E+03  0.37286228895E+03  0.80943552608E+02 0.  0.
         11    1    4    4    0    0  0.15202916605E+03 -0.57383131348E+02 -0.29841635103E+03  0.33979112651E+03  0.00000000000E+00 0. -1.
        -12    1    4    4    0    0 -0.19288057223E+01  0.13297768219E+02 -0.30218386031E+02  0.33071162445E+02  0.00000000000E+00 0.  1.
        -13    1    3    3    0    0 -0.48764647709E+02  0.67760747008E+02 -0.14000811031E+03  0.16300852939E+03  0.00000000000E+00 0. -1.
         13    1    3    3    0    0 -0.13638197024E+02 -0.25136205761E+02 -0.11218443969E+03  0.11577209407E+03  0.00000000000E+00 0.  1.
          2    1    1    2  501    0 -0.87697515597E+02  0.14608218814E+01 -0.97944765608E+01  0.88254858300E+02  0.00000000000E+00 0. -1.
<scales pt_clust_5="13000.00000" pt_clust_6="13000.00000" pt_clust_7="13000.00000" pt_clust_8="13000.00000" pt_clust_9="87.70968"></scales>
<clustering>
<clus scale="   80.944">  5  6 -1 -1</clus>
<clus scale="   87.710">  1  9  2 -1</clus>
<clus scale="   91.687">  7  8 -1 -1</clus>
<clus scale="  132.301">  1  5  2 -1</clus>
<clus scale="   87.710">  1  5  2 -1</clus>
</clustering>
</event>
<event>
 9    1  0.7586638E-005  0.2239320E+03  0.7546771E-02  0.1164991E+00
         21   -1    0    0  501  502  0.00000000000E+00  0.00000000000E+00  0.33058253846E+03  0.33058253846E+03  0.00000000000E+00 0.  1.
         -4   -1    0    0    0  501 -0.00000000000E+00 -0.00000000000E+00 -0.36488586816E+03  0.36488586816E+03  0.00000000000E+00 0.  1.
        -24    2    1    2    0    0 -0.18160953970E+02 -0.56954700192E+02  0.10881615064E+02  0.10032838107E+03  0.79835558357E+02 0.  0.
         23    2    1    2    0    0  0.16223774904E+03 -0.11823501478E+03  0.17290394410E+03  0.28047778988E+03  0.92040267262E+02 0.  0.
         11    1    3    3    0    0 -0.27165871990E+02 -0.29122797668E+02  0.41820423197E+02  0.57750062696E+02  0.00000000000E+00 0. -1.
        -12    1    3    3    0    0  0.90049180199E+01 -0.27831902524E+02 -0.30938808133E+02  0.42578318372E+02  0.00000000000E+00 0.  1.
        -13    1    4    4    0    0  0.10069759519E+03 -0.12156528614E+03  0.13786989422E+03  0.20958585879E+03  0.00000000000E+00 0.  1.
         13    1    4    4    0    0  0.61540153852E+02  0.33302713585E+01  0.35034049882E+02  0.70891931097E+02  0.00000000000E+00 0. -1.
         -3    1    1    2    0  502 -0.14407679507E+03  0.17518971498E+03 -0.21808888886E+03  0.31466223567E+03  0.00000000000E+00 0.  1.
<scales pt_clust_5="13000.00000" pt_clust_6="13000.00000" pt_clust_7="13000.00000" pt_clust_8="13000.00000" pt_clust_9="204.14247"></scales>
<clustering>
<clus scale="   79.836">  5  6 -1 -1</clus>
<clus scale="   92.040">  7  8 -1 -1</clus>
<clus scale="   99.737">  2  5  1 -1</clus>
<clus scale="  204.142">  1  9  2 -1</clus>
<clus scale="  204.142">  1  5  2 -1</clus>
</clustering>
</event>
<event>
 9    1  0.7586638E-005  0.2207092E+03  0.7546771E-02  0.1133903E+00
          1   -1    0    0  502    0 -0.00000000000E+00  0.00000000000E+00  0.45340788900E+03  0.45340788900E+03  0.00000000000E+00 0. -1.
         21   -1    0    0  501  502  0.00000000000E+00 -0.00000000000E+00 -0.13648676451E+03  0.13648676451E+03  0.00000000000E+00 0.  1.
         23    2    1    2    0    0 -0.20488481388E+03 -0.11848358862E+02  0.25096306600E+03  0.33638386043E+03  0.89741130453E+02 0.  0.
        -24    2    1    2    0    0  0.19186634496E+03  0.40543191029E+02  0.51326323286E+02  0.21876944018E+03  0.82275341538E+02 0.  0.
         13    1    4    4    0    0  0.32450029231E+02 -0.91242226203E+01  0.38694779385E+02  0.51318045435E+02  0.00000000000E+00 0. -1.
        -14    1    4    4    0    0  0.15941631573E+03  0.49667413650E+02  0.12631543900E+02  0.16745139474E+03  0.00000000000E+00 0.  1.
        -13    1    3    3    0    0 -0.36792504134E+02  0.50821020460E+01  0.42692977775E+01  0.37386401607E+02  0.00000000000E+00 0.  1.
         13    1    3    3    0    0 -0.16809230975E+03 -0.16930460908E+02  0.24669376822E+03  0.29899745883E+03  0.00000000000E+00 0. -1.
          2    1    1    2  501    0  0.13018468924E+02 -0.28694832167E+02  0.14631735212E+02  0.34741352903E+02  0.00000000000E+00 0. -1.
<scales pt_clust_5="13000.00000" pt_clust_6="13000.00000" pt_clust_7="13000.00000" pt_clust_8="13000.00000" pt_clust_9="31.50990"></scales>
<clustering>
<clus scale="   31.510">  2  9  1 -1</clus>
<clus scale="   82.275">  5  6 -1 -1</clus>
<clus scale="   89.741">  7  8 -1 -1</clus>
<clus scale="  217.780">  2  5  1 -1</clus>
<clus scale="   31.510">  2  5  1 -1</clus>
</clustering>
</event>
<event>
 9    1  0.7586638E-005  0.1450122E+03  0.7546771E-02  0.1233647E+00
         -4   -1    0    0    0  501 -0.00000000000E+00  0.00000000000E+00  0.80769599713E+03  0.80769599713E+03  0.00000000000E+00 0.  1.
         21   -1    0    0  501  502  0.00000000000E+00 -0.00000000000E+00 -0.76211129172E+02  0.76211129172E+02  0.00000000000E+00 0.  1.
        -24    2    1    2    0    0 -0.21037669784E+02  0.83551080873E+01  0.55691069918E+03  0.56297800120E+03  0.79261034495E+02 0.  0.
         23    2    1    2    0    0  0.95177506263E+01  0.10856993827E+03  0.13976016203E+03  0.19838856011E+03  0.89146501998E+02 0.  0.
         13    1    3    3    0    0 -0.14419667766E+02 -0.17788681721E+02  0.46276472481E+02  0.51632121021E+02  0.00000000000E+00 0. -1.
        -14    1    3    3    0    0 -0.66180020179E+01  0.26143789808E+02  0.51063422670E+03  0.51134588018E+03  0.00000000000E+00 0.  1.
        -13    1    4    4    0    0 -0.38567555147E+02  0.39175473175E+02  0.41758154358E+02  0.69035624600E+02  0.00000000000E+00 0.  1.
         13    1    4    4    0    0  0.48085305773E+02  0.69394465094E+02  0.98002007668E+02  0.12935293551E+03  0.00000000000E+00 0. -1.
         -3    1    1    2    0  502  0.11519919157E+02 -0.11692504636E+03  0.34814006742E+02  0.12254056499E+03  0.00000000000E+00 0.  1.
<scales pt_clust_5="13000.00000" pt_clust_6="13000.00000" pt_clust_7="13000.00000" pt_clust_8="13000.00000" pt_clust_9="114.37417"></scales>
<clustering>
<clus scale="   79.261">  5  6 -1 -1</clus>
<clus scale="   82.430">  1  5  2 -1</clus>
<clus scale="   89.147">  7  8 -1 -1</clus>
<clus scale="  114.374">  2  9  1 -1</clus>
<clus scale="  114.374">  2  5  1 -1</clus>
</clustering>
</event>
<event>
 9    1  0.7586638E-005  0.1188114E+03  0.7546771E-02  0.1256947E+00
         -2   -1    0    0    0  501 -0.00000000000E+00  0.00000000000E+00  0.15413435178E+03  0.15413435178E+03  0.00000000000E+00 0.  1.
         21   -1    0    0  501  502  0.00000000000E+00 -0.00000000000E+00 -0.24271286923E+03  0.24271286923E+03  0.00000000000E+00 0.  1.
         23    2    1    2    0    0  0.31031055921E+01 -0.52599724171E+02  0.11072246606E+03  0.16240644321E+03  0.10648956783E+03 0.  0.
        -24    2    1    2    0    0 -0.27971008052E+02  0.50390264382E+02 -0.17317334068E+03  0.19830287520E+03  0.77546556038E+02 0.  0.
         11    1    4    4    0    0  0.25850185084E+02  0.52886976536E+01 -0.45909013551E+02  0.52951297595E+02  0.00000000000E+00 0. -1.
        -12    1    4    4    0    0 -0.53821193136E+02  0.45101566728E+02 -0.12726432713E+03  0.14535157760E+03  0.00000000000E+00 0.  1.
        -11    1    3    3    0    0 -0.44299336776E+02 -0.38623597252E+02  0.92783097639E+02  0.10983131025E+03  0.00000000000E+00 0.  1.
         11    1    3    3    0    0  0.47402442369E+02 -0.13976126919E+02  0.17939368422E+02  0.52575132958E+02  0.00000000000E+00 0. -1.
         -1    1    1    2    0  502  0.24867902460E+02  0.22094597890E+01 -0.26127642829E+02  0.36137902610E+02  0.00000000000E+00 0.  1.
<scales pt_clust_5="13000.00000" pt_clust_6="13000.00000" pt_clust_7="13000.00000" pt_clust_8="13000.00000" pt_clust_9="24.96586"></scales>
<clustering>
<clus scale="   24.966">  2  9  1 -1</clus>
<clus scale="   77.547">  5  6 -1 -1</clus>
<clus scale="   93.753">  2  5  1 -1</clus>
<clus scale="  106.490">  7  8 -1 -1</clus>
<clus scale="   24.966">  2  5  1 -1</clus>
</clustering>
</event>
<event>
 9    1  0.7586638E-005  0.3598852E+03  0.7546771E-02  0.1058905E+00
         21   -1    0    0  501  502  0.00000000000E+00  0.00000000000E+00  0.82952111203E+03  0.82952111203E+03  0.00000000000E+00 0. -1.
          1   -1    0    0  502    0 -0.00000000000E+00 -0.00000000000E+00 -0.19391855749E+03  0.19391855749E+03  0.00000000000E+00 0. -1.
        -24    2    1    2    0    0  0.29284994041E+03 -0.12855890932E+03  0.21710817520E+03  0.39497706301E+03  0.81132236507E+02 0.  0.
         23    2    1    2    0    0 -0.35101508592E+03  0.15931728768E+03  0.31740646334E+03  0.50784739705E+03  0.92566338499E+02 0.  0.
         13    1    3    3    0    0  0.17152964584E+03 -0.10115800874E+03  0.94842190283E+02  0.22056836399E+03  0.00000000000E+00 0. -1.
        -14    1    3    3    0    0  0.12132029457E+03 -0.27400900584E+02  0.12226598491E+03  0.17440869902E+03  0.00000000000E+00 0.  1.
        -13    1    4    4    0    0 -0.24471778349E+03  0.15412888291E+03  0.21739669693E+03  0.36180634314E+03  0.00000000000E+00 0. -1.
         13    1    4    4    0    0 -0.10629730243E+03  0.51884047667E+01  0.10000976641E+03  0.14604105391E+03  0.00000000000E+00 0.  1.
          2    1    1    2  501    0  0.58165145510E+02 -0.30758378357E+02  0.10108791601E+03  0.12061520946E+03  0.00000000000E+00 0. -1.
<scales pt_clust_5="13000.00000" pt_clust_6="13000.00000" pt_clust_7="13000.00000" pt_clust_8="13000.00000" pt_clust_9="65.79713"></scales>
<clustering>
<clus scale="   65.797">  1  9  2 -1</clus>
<clus scale="   81.132">  5  6 -1 -1</clus>
<clus scale="   92.566">  7  8 -1 -1</clus>
<clus scale="  357.115">  2  5  1 -1</clus>
<clus scale="   65.797">  1  5  2 -1</clus>
</clustering>
</event>
<event>
 9    1  0.7586638E-005  0.2882080E+03  0.7546771E-02  0.1138825E+00
         21   -1    0    0  501  502  0.00000000000E+00  0.00000000000E+00  0.10310080818E+03  0.10310080818E+03  0.00000000000E+00 0.  1.
         -2   -1    0    0    0  501 -0.00000000000E+00 -0.00000000000E+00 -0.10351631841E+04  0.10351631841E+04  0.00000000000E+00 0.  1.
        -24    2    1    2    0    0 -0.57500057125E+01  0.31364109226E+02 -0.10183501742E+03  0.13380066697E+03  0.80718509621E+02 0.  0.
         23    2    1    2    0    0  0.20320768050E+03 -0.20035001630E+03 -0.37158619955E+03  0.47730349869E+03  0.91152815194E+02 0.  0.
         11    1    3    3    0    0 -0.26432146538E+02 -0.38383138925E+01 -0.85927193611E+02  0.89982629580E+02  0.00000000000E+00 0. -1.
        -12    1    3    3    0    0  0.20682140826E+02  0.35202423119E+02 -0.15907823812E+02  0.43818037393E+02  0.00000000000E+00 0.  1.
        -11    1    4    4    0    0  0.65820740891E+02 -0.97580264285E+02 -0.21454708487E+03  0.24471356631E+03  0.00000000000E+00 0.  1.
         11    1    4    4    0    0  0.13738693961E+03 -0.10276975202E+03 -0.15703911468E+03  0.23258993238E+03  0.00000000000E+00 0. -1.
         -1    1    1    2    0  502 -0.19745767479E+03  0.16898590707E+03 -0.45864115891E+03  0.52715982659E+03  0.00000000000E+00 0.  1.
<scales pt_clust_5="13000.00000" pt_clust_6="13000.00000" pt_clust_7="13000.00000" pt_clust_8="13000.00000" pt_clust_9="273.41380"></scales>
<clustering>
<clus scale="   80.719">  5  6 -1 -1</clus>
<clus scale="   86.789">  2  5  1 -1</clus>
<clus scale="   91.153">  7  8 -1 -1</clus>
<clus scale="  273.414">  1  9  2 -1</clus>
<clus scale="  273.414">  1  5  2 -1</clus>
</clustering>
</event>
<event>
 9    1  0.7586638E-005  0.1599648E+03  0.7546771E-02  0.1190427E+00
          1   -1    0    0  502    0 -0.00000000000E+00  0.00000000000E+00  0.10871887535E+04  0.10871887535E+04  0.00000000000E+00 0. -1.
         21   -1    0    0  501  502  0.00000000000E+00 -0.00000000000E+00 -0.45169652609E+02  0.45169652609E+02  0.00000000000E+00 0. -1.
        -24    2    1    2    0    0  0.10183162318E+03  0.38996576416E+02  0.34295812055E+03  0.36892238536E+03  0.81197546238E+02 0.  0.
         23    2    1    2    0    0 -0.18066875986E+03  0.22595401306E+02  0.41784800924E+03  0.46495720919E+03  0.91850392459E+02 0.  0.
         13    1    3    3    0    0  0.93717607168E+02  0.53789322902E+02  0.33113619473E+03  0.34832091613E+03  0.00000000000E+00 0. -1.
        -14    1    3    3    0    0  0.81140160111E+01 -0.14792746486E+02  0.11821925826E+02  0.20601469235E+02  0.00000000000E+00 0.  1.
        -13    1    4    4    0    0 -0.14156561130E+03 -0.19229095415E+01  0.37916799377E+03  0.40473804785E+03  0.00000000000E+00 0. -1.
         13    1    4    4    0    0 -0.39103148561E+02  0.24518310848E+02  0.38680015478E+02  0.60219161332E+02  0.00000000000E+00 0.  1.
          2    1    1    2  501    0  0.78837136683E+02 -0.61591977722E+02  0.28121297110E+03  0.29847881157E+03  0.00000000000E+00 0. -1.
<scales pt_clust_5="13000.00000" pt_clust_6="13000.00000" pt_clust_7="13000.00000" pt_clust_8="13000.00000" pt_clust_9="100.04437"></scales>
<clustering>
<clus scale="   81.198">  5  6 -1 -1</clus>
<clus scale="   91.850">  7  8 -1 -1</clus>
<clus scale="  100.044">  2  9  1 -1</clus>
<clus scale="  154.095">  1  5  2 -1</clus>
<clus scale="  100.044">  2  5  1 -1</clus>
</clustering>
</event>
<event>
 9    1  0.7586638E-005  0.1674971E+03  0.7546771E-02  0.1182337E+00
         21   -1    0    0  501  502  0.00000000000E+00  0.00000000000E+00  0.48063918707E+02  0.48063918707E+02  0.00000000000E+00 0. -1.
          1   -1    0    0  502    0 -0.00000000000E+00 -0.00000000000E+00 -0.16064234709E+04  0.16064234709E+04  0.00000000000E+00 0. -1.
        -24    2    1    2    0    0  0.13380237917E+03  0.69254150560E+01 -0.85706967682E+03  0.87085533224E+03  0.76612927885E+02 0.  0.
         23    2    1    2    0    0 -0.15611988073E+03  0.11696376022E+03 -0.52270549450E+03  0.56513954099E+03  0.90042925541E+02 0.  0.
         11    1    3    3    0    0  0.10602390989E+03  0.12119208701E+02 -0.43718540592E+03  0.45002113710E+03  0.00000000000E+00 0. -1.
        -12    1    3    3    0    0  0.27778469279E+02 -0.51937936451E+01 -0.41988427091E+03  0.42083419515E+03  0.00000000000E+00 0.  1.
        -13    1    4    4    0    0 -0.14731088353E+03  0.72664722797E+02 -0.45509220169E+03  0.48382803803E+03  0.00000000000E+00 0. -1.
         13    1    4    4    0    0 -0.88089972061E+01  0.44299037422E+02 -0.67613292809E+02  0.81311502955E+02  0.00000000000E+00 0.  1.
          2    1    1    2  501    0  0.22317501558E+02 -0.12388917527E+03 -0.17858438090E+03  0.21849251641E+03  0.00000000000E+00 0. -1.
<scales pt_clust_5="13000.00000" pt_clust_6="13000.00000" pt_clust_7="13000.00000" pt_clust_8="13000.00000" pt_clust_9="125.88327"></scales>
<clustering>
<clus scale="   76.613">  5  6 -1 -1</clus>
<clus scale="   90.043">  7  8 -1 -1</clus>
<clus scale="  125.883">  1  9  2 -1</clus>
<clus scale="  160.677">  2  5  1 -1</clus>
<clus scale="  125.883">  1  5  2 -1</clus>
</clustering>
</event>
<event>
 9    1  0.7586638E-005  0.1011429E+03  0.7546771E-02  0.1281802E+00
         21   -1    0    0  501  502  0.00000000000E+00  0.00000000000E+00  0.51016403566E+02  0.51016403566E+02  0.00000000000E+00 0. -1.
         -4   -1    0    0    0  501 -0.00000000000E+00 -0.00000000000E+00 -0.31737004715E+03  0.31737004715E+03  0.00000000000E+00 0.  1.
        -24    2    1    2    0    0  0.13999340469E+02  0.47046609416E+02 -0.18101415837E+03  0.20486472760E+03  0.82426125060E+02 0.  0.
         23    2    1    2    0    0 -0.26199899857E+02 -0.30692733725E+02 -0.98080986334E+02  0.13946660411E+03  0.90568069025E+02 0.  0.
         11    1    3    3    0    0  0.30889026331E+02  0.97413198691E+01 -0.18561768219E+02  0.37330476824E+02  0.00000000000E+00 0. -1.
        -12    1    3    3    0    0 -0.16889685863E+02  0.37305289547E+02 -0.16245239015E+03  0.16753425078E+03  0.00000000000E+00 0.  1.
        -13    1    4    4    0    0 -0.45613600960E+02 -0.64646761225E+01 -0.11493691349E+02  0.47481549793E+02  0.00000000000E+00 0. -1.
         13    1    4    4    0    0  0.19413701103E+02 -0.24228057602E+02 -0.86587294985E+02  0.91985054322E+02  0.00000000000E+00 0.  1.
         -3    1    1    2    0  502  0.12200559389E+02 -0.16353875691E+02  0.12741501119E+02  0.24055119004E+02  0.00000000000E+00 0.  1.
<scales pt_clust_5="13000.00000" pt_clust_6="13000.00000" pt_clust_7="13000.00000" pt_clust_8="13000.00000" pt_clust_9="20.40350"></scales>
<clustering>
<clus scale="   20.404">  1  9  2 -1</clus>
<clus scale="   82.426">  5  6 -1 -1</clus>
<clus scale="   90.568">  7  8 -1 -1</clus>
<clus scale="   93.922">  2  5  1 -1</clus>
<clus scale="   20.404">  1  5  2 -1</clus>
</clustering>
</event>
<event>
 9    1  0.7586638E-005  0.1379895E+03  0.7546771E-02  0.1224688E+00
         21   -1    0    0  501  502  0.00000000000E+00  0.00000000000E+00  0.56277945300E+03  0.56277945300E+03  0.00000000000E+00 0. -1.
          1   -1    0    0  502    0 -0.00000000000E+00 -0.00000000000E+00 -0.97310412817E+02  0.97310412817E+02  0.00000000000E+00 0. -1.
        -24    2    1    2    0    0  0.45009036357E+02  0.67024989494E+02 -0.10364706969E+02  0.11560402999E+03  0.82089597566E+02 0.  0.
         23    2    1    2    0    0  0.70540106403E+02 -0.75376717462E+02  0.17228982991E+03  0.21958544271E+03  0.88749225426E+02 0.  0.
         13    1    3    3    0    0  0.46130042383E+02  0.57275380982E+02 -0.40468231989E+02  0.83941216796E+02  0.00000000000E+00 0. -1.
        -14    1    3    3    0    0 -0.11210060263E+01  0.97496085128E+01  0.30103525020E+02  0.31662813193E+02  0.00000000000E+00 0.  1.
        -11    1    4    4    0    0  0.69035360628E+01 -0.20163450256E+02 -0.62125057802E+01  0.22199521717E+02  0.00000000000E+00 0.  1.
         11    1    4    4    0    0  0.63636570341E+02 -0.55213267207E+02  0.17850233569E+03  0.19738592099E+03  0.00000000000E+00 0. -1.
          2    1    1    2  501    0 -0.11554914276E+03  0.83517279678E+01  0.30354391724E+03  0.32490039312E+03  0.00000000000E+00 0. -1.
<scales pt_clust_5="13000.00000" pt_clust_6="13000.00000" pt_clust_7="13000.00000" pt_clust_8="13000.00000" pt_clust_9="105.66303"></scales>
<clustering>
<clus scale="   82.090">  5  6 -1 -1</clus>
<clus scale="   88.749">  7  8 -1 -1</clus>
<clus scale="  115.138">  2  5  1 -1</clus>
<clus scale="  105.663">  1  9  2 -1</clus>
<clus scale="  105.663">  1  5  2 -1</clus>
</clustering>
</event>
<event>
 9    1  0.7586638E-005  0.4155453E+03  0.7546771E-02  0.1038526E+00
          1   -1    0    0  502    0 -0.00000000000E+00  0.00000000000E+00  0.33375613890E+03  0.33375613890E+03  0.00000000000E+00 0. -1.
         21   -1    0    0  501  502  0.00000000000E+00 -0.00000000000E+00 -0.67732147977E+03  0.67732147977E+03  0.00000000000E+00 0. -1.
        -24    2    1    2    0    0 -0.17108045952E+02 -0.44066567874E+02 -0.10000787434E+02  0.93907874619E+02  0.80524067990E+02 0.  0.
         23    2    1    2    0    0 -0.16316871917E+02 -0.29866724019E+03  0.13099780037E+03  0.33889483633E+03  0.90669320694E+02 0.  0.
         13    1    3    3    0    0 -0.48929745932E+02 -0.18187561706E+02 -0.82987954615E+01  0.52856195890E+02  0.00000000000E+00 0. -1.
        -14    1    3    3    0    0  0.31821699980E+02 -0.25879006167E+02 -0.17019919729E+01  0.41051678729E+02  0.00000000000E+00 0.  1.
        -13    1    4    4    0    0 -0.47565959738E+02 -0.97943992647E+02  0.36388070760E+02  0.11480260413E+03  0.00000000000E+00 0.  1.
         13    1    4    4    0    0  0.31249087821E+02 -0.20072324754E+03  0.94609729609E+02  0.22409223220E+03  0.00000000000E+00 0. -1.
          2    1    1    2  501    0  0.33424917869E+02  0.34273380807E+03 -0.46456235381E+03  0.57827490772E+03  0.00000000000E+00 0. -1.
<scales pt_clust_5="13000.00000" pt_clust_6="13000.00000" pt_clust_7="13000.00000" pt_clust_8="13000.00000" pt_clust_9="344.35982"></scales>
<clustering>
<clus scale="   80.524">  5  6 -1 -1</clus>
<clus scale="   90.669">  7  8 -1 -1</clus>
<clus scale="   93.091">  5  7 -1 -1</clus>
<clus scale="  344.360">  2  9  1 -1</clus>
<clus scale="  344.360">  2  5  1 -1</clus>
</clustering>
</event>
<event>
 9    1  0.7586638E-005  0.1837668E+03  0.7546771E-02  0.1196644E+00
         21   -1    0    0  501  502  0.00000000000E+00  0.00000000000E+00  0.14383079030E+03  0.14383079030E+03  0.00000000000E+00 0. -1.
          1   -1    0    0  502    0 -0.00000000000E+00 -0.00000000000E+00 -0.40348078939E+03  0.40348078939E+03  0.00000000000E+00 0. -1.
        -24    2    1    2    0    0  0.33144841510E+02 -0.19694945481E+02  0.19113048398E+02  0.90704906210E+02  0.79847354341E+02 0.  0.
         23    2    1    2    0    0  0.40924985060E+02 -0.13246359950E+03 -0.22347452784E+03  0.27857470324E+03  0.91877859678E+02 0.  0.
         13    1    3    3    0    0  0.40151856279E+02 -0.13429493478E+02 -0.22567757157E+02  0.47977354250E+02  0.00000000000E+00 0. -1.
        -14    1    3    3    0    0 -0.70070147686E+01 -0.62654520035E+01  0.41680805555E+02  0.42727551960E+02  0.00000000000E+00 0.  1.
        -11    1    4    4    0    0  0.67548724789E+01 -0.40133469032E+02 -0.77254286963E+01  0.41424701415E+02  0.00000000000E+00 0.  1.
         11    1    4    4    0    0  0.34170112581E+02 -0.92330130470E+02 -0.21574909914E+03  0.23715000183E+03  0.00000000000E+00 0. -1.
          2    1    1    2  501    0 -0.74069826570E+02  0.15215854498E+03 -0.55288519654E+02  0.17803197023E+03  0.00000000000E+00 0. -1.
<scales pt_clust_5="13000.00000" pt_clust_6="13000.00000" pt_clust_7="13000.00000" pt_clust_8="13000.00000" pt_clust_9="159.14987"></scales>
<clustering>
<clus scale="   79.847">  5  6 -1 -1</clus>
<clus scale="   88.668">  2  5  1 -1</clus>
<clus scale="   91.878">  7  8 -1 -1</clus>
<clus scale="  159.150">  1  9  2 -1</clus>
<clus scale="  159.150">  1  5  2 -1</clus>
</clustering>
</event>
<event>
 9    1  0.7586638E-005  0.1309092E+03  0.7546771E-02  0.1243072E+00
          1   -1    0    0  502    0 -0.00000000000E+00  0.00000000000E+00  0.22856656698E+03  0.22856656698E+03  0.00000000000E+00 0. -1.
         21   -1    0    0  501  502  0.00000000000E+00 -0.00000000000E+00 -0.16111766196E+03  0.16111766196E+03  0.00000000000E+00 0. -1.
        -24    2    1    2    0    0  0.21943125909E+02  0.40787974330E+02  0.12045921548E+03  0.15186326147E+03  0.80042913281E+02 0.  0.
         23    2    1    2    0    0 -0.96981619356E+02  0.19156734545E+02 -0.16656862995E+02  0.13512862713E+03  0.90608387100E+02 0.  0.
         13    1    3    3    0    0  0.24634206786E+02  0.62670932070E+02  0.10571357340E+03  0.12533893837E+03  0.00000000000E+00 0. -1.
        -14    1    3    3    0    0 -0.26910808766E+01 -0.21882957740E+02  0.14745642077E+02  0.26524323102E+02  0.00000000000E+00 0.  1.
        -13    1    4    4    0    0 -0.10080754284E+02  0.42853153330E+02 -0.51739488260E+01  0.44325885255E+02  0.00000000000E+00 0. -1.
         13    1    4    4    0    0 -0.86900865072E+02 -0.23696418784E+02 -0.11482914169E+02  0.90802741871E+02  0.00000000000E+00 0.  1.
          2    1    1    2  501    0  0.75038493447E+02 -0.59944708876E+02 -0.36353447470E+02  0.10269234034E+03  0.00000000000E+00 0. -1.
<scales pt_clust_5="13000.00000" pt_clust_6="13000.00000" pt_clust_7="13000.00000" pt_clust_8="13000.00000" pt_clust_9="94.48457"></scales>
<clustering>
<clus scale="   80.043">  5  6 -1 -1</clus>
<clus scale="   90.608">  7  8 -1 -1</clus>
<clus scale="   92.477">  1  5  2 -1</clus>
<clus scale="   94.485">  2  9  1 -1</clus>
<clus scale="   94.485">  2  5  1 -1</clus>
</clustering>
</event>
<event>
 9    1  0.7586638E-005  0.9858786E+02  0.7546771E-02  0.1286637E+00
         -2   -1    0    0    0  501 -0.00000000000E+00  0.00000000000E+00  0.99483459664E+02  0.99483459664E+02  0.00000000000E+00 0.  1.
         21   -1    0    0  501  502  0.00000000000E+00 -0.00000000000E+00 -0.19810678298E+03  0.19810678298E+03  0.00000000000E+00 0. -1.
         23    2    1    2    0    0  0.11305201913E+01  0.49237106843E+02  0.31333001584E+02  0.10616495554E+03  0.88677336627E+02 0.  0.
        -24    2    1    2    0    0  0.15165758351E+02 -0.19036657129E+02 -0.13177443666E+03  0.15706045933E+03  0.81921249908E+02 0.  0.
         11    1    4    4    0    0  0.21389632574E+02  0.12694874796E+02 -0.12015119169E+03  0.12269875750E+03  0.00000000000E+00 0. -1.
        -12    1    4    4    0    0 -0.62238742225E+01 -0.31731531925E+02 -0.11623244963E+02  0.34361701822E+02  0.00000000000E+00 0.  1.
        -13    1    3    3    0    0 -0.28822511059E+02  0.48788337748E+02 -0.74566383453E+01  0.57154531748E+02  0.00000000000E+00 0.  1.
         13    1    3    3    0    0  0.29953031251E+02  0.44876909500E+00  0.38789639929E+02  0.49010423796E+02  0.00000000000E+00 0. -1.
         -1    1    1    2    0  502 -0.16296278542E+02 -0.30200449714E+02  0.18181117616E+01  0.34364827770E+02  0.00000000000E+00 0.  1.
<scales pt_clust_5="13000.00000" pt_clust_6="13000.00000" pt_clust_7="13000.00000" pt_clust_8="13000.00000" pt_clust_9="34.31672"></scales>
<clustering>
<clus scale="   34.317">  2  9  1 -1</clus>
<clus scale="   81.921">  5  6 -1 -1</clus>
<clus scale="   88.677">  7  8 -1 -1</clus>
<clus scale="   92.558">  2  5  1 -1</clus>
<clus scale="   34.317">  2  5  1 -1</clus>
</clustering>
</event>
<event>
 9    1  0.7586638E-005  0.1018357E+03  0.7546771E-02  0.1283016E+00
         21   -1    0    0  501  502  0.00000000000E+00  0.00000000000E+00  0.68624807098E+02  0.68624807098E+02  0.00000000000E+00 0.  1.
          3   -1    0    0  502    0 -0.00000000000E+00 -0.00000000000E+00 -0.24372196747E+03  0.24372196747E+03  0.00000000000E+00 0. -1.
        -24    2    1    2    0    0  0.32731596611E+02  0.19389718043E+02 -0.10105319858E+03  0.13392078207E+03  0.79219368489E+02 0.  0.
         23    2    1    2    0    0 -0.53717870993E+02 -0.19394224157E+02 -0.78778053473E+01  0.10901141196E+03  0.92518552335E+02 0.  0.
         13    1    3    3    0    0  0.33343810434E+02  0.14133583769E+02 -0.36779503615E+01  0.36401857141E+02  0.00000000000E+00 0. -1.
        -14    1    3    3    0    0 -0.61221382305E+00  0.52561342744E+01 -0.97375248218E+02  0.97518924926E+02  0.00000000000E+00 0.  1.
        -11    1    4    4    0    0 -0.12212316466E+02 -0.41465459499E+02  0.26563241160E+02  0.50735892481E+02  0.00000000000E+00 0.  1.
         11    1    4    4    0    0 -0.41505554527E+02  0.22071235343E+02 -0.34441046507E+02  0.58275519480E+02  0.00000000000E+00 0. -1.
          4    1    1    2  501    0  0.20986274382E+02  0.45061132700E-02 -0.66166156445E+02  0.69414580539E+02  0.00000000000E+00 0. -1.
<scales pt_clust_5="13000.00000" pt_clust_6="13000.00000" pt_clust_7="13000.00000" pt_clust_8="13000.00000" pt_clust_9="20.98629"></scales>
<clustering>
<clus scale="   20.986">  1  9  2 -1</clus>
<clus scale="   79.219">  5  6 -1 -1</clus>
<clus scale="   89.925">  2  5  1 -1</clus>
<clus scale="   92.519">  7  8 -1 -1</clus>
<clus scale="   20.986">  1  5  2 -1</clus>
</clustering>
</event>
<event>
 9    1  0.7586638E-005  0.1031772E+03  0.7546771E-02  0.1279734E+00
          1   -1    0    0  502    0 -0.00000000000E+00  0.00000000000E+00  0.43137938947E+03  0.43137938947E+03  0.00000000000E+00 0. -1.
         21   -1    0    0  501  502  0.00000000000E+00 -0.00000000000E+00 -0.48433456084E+02  0.48433456084E+02  0.00000000000E+00 0. -1.
        -24    2    1    2    0    0  0.63789187613E+02 -0.45963511394E+01  0.16298474101E+03  0.19243309538E+03  0.79851634264E+02 0.  0.
         23    2    1    2    0    0 -0.10975788777E+02 -0.52703325293E+02  0.12628374824E+03  0.16552749720E+03  0.92485992573E+02 0.  0.
         11    1    3    3    0    0  0.26375897795E+02 -0.15313157717E+02  0.14738099778E+03  0.15050361886E+03  0.00000000000E+00 0. -1.
        -12    1    3    3    0    0  0.37413289819E+02  0.10716806578E+02  0.15603743232E+02  0.41929476518E+02  0.00000000000E+00 0.  1.
        -11    1    4    4    0    0 -0.28732527518E+02  0.17775207485E+02  0.48085578905E+02  0.58768520802E+02  0.00000000000E+00 0.  1.
         11    1    4    4    0    0  0.17756738740E+02 -0.70478532778E+02  0.78198169339E+02  0.10675897640E+03  0.00000000000E+00 0. -1.
          2    1    1    2  501    0 -0.52813398836E+02  0.57299676433E+02  0.93677444126E+02  0.12185225297E+03  0.00000000000E+00 0. -1.
<scales pt_clust_5="13000.00000" pt_clust_6="13000.00000" pt_clust_7="13000.00000" pt_clust_8="13000.00000" pt_clust_9="77.92630"></scales>
<clustering>
<clus scale="   77.926">  2  9  1 -1</clus>
<clus scale="   79.852">  5  6 -1 -1</clus>
<clus scale="   92.023">  1  5  2 -1</clus>
<clus scale="   92.486">  7  8 -1 -1</clus>
<clus scale="   77.926">  2  5  1 -1</clus>
</clustering>
</event>
<event>
 9    1  0.7586638E-005  0.1056636E+03  0.7546771E-02  0.1274361E+00
         21   -1    0    0  501  502  0.00000000000E+00  0.00000000000E+00  0.43363734224E+02  0.43363734224E+02  0.00000000000E+00 0.  1.
         -4   -1    0    0    0  501 -0.00000000000E+00 -0.00000000000E+00 -0.89592595935E+03  0.89592595935E+03  0.00000000000E+00 0.  1.
        -24    2    1    2    0    0  0.59766844080E+02  0.97288352202E+01 -0.61651135815E+03  0.62461767328E+03  0.79964099218E+02 0.  0.
         23    2    1    2    0    0 -0.25461543488E+02 -0.23205812693E+02 -0.25486566969E+03  0.27328990613E+03  0.92434102287E+02 0.  0.
         13    1    3    3    0    0  0.42966301594E+02  0.43991663638E+02 -0.34493497267E+03  0.35037337929E+03  0.00000000000E+00 0. -1.
        -14    1    3    3    0    0  0.16800542486E+02 -0.34262828417E+02 -0.27157638548E+03  0.27424429399E+03  0.00000000000E+00 0.  1.
        -11    1    4    4    0    0  0.31553212245E+02  0.10415261465E+01 -0.48885049007E+02  0.58193109524E+02  0.00000000000E+00 0.  1.
         11    1    4    4    0    0 -0.57014755734E+02 -0.24247338839E+02 -0.20598062069E+03  0.21509679661E+03  0.00000000000E+00 0. -1.
         -3    1    1    2    0  502 -0.34305300592E+02  0.13476977473E+02  0.18814802722E+02  0.41382114155E+02  0.00000000000E+00 0.  1.
<scales pt_clust_5="13000.00000" pt_clust_6="13000.00000" pt_clust_7="13000.00000" pt_clust_8="13000.00000" pt_clust_9="36.85760"></scales>
<clustering>
<clus scale="   36.858">  1  9  2 -1</clus>
<clus scale="   79.964">  5  6 -1 -1</clus>
<clus scale="   92.434">  7  8 -1 -1</clus>
<clus scale="   94.947">  2  5  1 -1</clus>
<clus scale="   36.858">  1  5  2 -1</clus>
</clustering>
</event>
<event>
 9    1  0.7586638E-005  0.1114646E+03  0.7546771E-02  0.1264417E+00
          1   -1    0    0  502    0 -0.00000000000E+00  0.00000000000E+00  0.23597262025E+03  0.23597262025E+03  0.00000000000E+00 0. -1.
         21   -1    0    0  501  502  0.00000000000E+00 -0.00000000000E+00 -0.86952771466E+02  0.86952771466E+02  0.00000000000E+00 0.  1.
         23    2    1    2    0    0 -0.52903874026E+02  0.47023499565E+02  0.15894673493E+03  0.19618529481E+03  0.90634297894E+02 0.  0.
        -24    2    1    2    0    0  0.49915600904E+02 -0.21492935947E+02  0.12944005056E+02  0.92333453378E+02  0.73514664093E+02 0.  0.
         11    1    4    4    0    0 -0.16008176138E+02 -0.19712406299E+02  0.18716498611E+01  0.25462594891E+02  0.00000000000E+00 0. -1.
        -12    1    4    4    0    0  0.65923777042E+02 -0.17805296481E+01  0.11072355195E+02  0.66870858488E+02  0.00000000000E+00 0.  1.
        -11    1    3    3    0    0 -0.23656509922E+02  0.66968258328E+02  0.13759429336E+03  0.15484368780E+03  0.00000000000E+00 0. -1.
         11    1    3    3    0    0 -0.29247364104E+02 -0.19944758762E+02  0.21352441571E+02  0.41341607010E+02  0.00000000000E+00 0.  1.
          2    1    1    2  501    0  0.29882731224E+01 -0.25530563618E+02 -0.22870891200E+02  0.34406643533E+02  0.00000000000E+00 0. -1.
<scales pt_clust_5="13000.00000" pt_clust_6="13000.00000" pt_clust_7="13000.00000" pt_clust_8="13000.00000" pt_clust_9="25.70485"></scales>
<clustering>
<clus scale="   25.705">  2  9  1 -1</clus>
<clus scale="   73.515">  5  6 -1 -1</clus>
<clus scale="   90.634">  7  8 -1 -1</clus>
<clus scale="   98.052">  2  5  1 -1</clus>
<clus scale="   25.705">  2  5  1 -1</clus>
</clustering>
</event>
<event>
 9    1  0.7586638E-005  0.1093492E+03  0.7546771E-02  0.1265599E+00
          3   -1    0    0  502    0 -0.00000000000E+00  0.00000000000E+00  0.18151198574E+03  0.18151198574E+03  0.00000000000E+00 0. -1.
         21   -1    0    0  501  502  0.00000000000E+00 -0.00000000000E+00 -0.88191014244E+02  0.88191014244E+02  0.00000000000E+00 0.  1.
         23    2    1    2    0    0  0.46762881326E+02  0.42096496457E+02  0.87387072991E+02  0.14006425309E+03  0.89569036963E+02 0.  0.
        -24    2    1    2    0    0 -0.28209252017E+02 -0.59174514277E+02  0.11241568624E+02  0.10386924525E+03  0.79781339950E+02 0.  0.
         11    1    4    4    0    0 -0.53702016719E+02 -0.31013116340E+02  0.19477164729E+02  0.65000614849E+02  0.00000000000E+00 0. -1.
        -12    1    4    4    0    0  0.25492764703E+02 -0.28161397937E+02 -0.82355961053E+01  0.38868630400E+02  0.00000000000E+00 0.  1.
        -11    1    3    3    0    0  0.31312625731E+02 -0.24469498544E+02  0.21703995195E+02  0.45280241790E+02  0.00000000000E+00 0.  1.
         11    1    3    3    0    0  0.15450255595E+02  0.66565995001E+02  0.65683077797E+02  0.94784011296E+02  0.00000000000E+00 0. -1.
          4    1    1    2  501    0 -0.18553629309E+02  0.17078017820E+02 -0.53076701185E+01  0.25769501650E+02  0.00000000000E+00 0. -1.
<scales pt_clust_5="13000.00000" pt_clust_6="13000.00000" pt_clust_7="13000.00000" pt_clust_8="13000.00000" pt_clust_9="25.21698"></scales>
<clustering>
<clus scale="   25.217">  2  9  1 -1</clus>
<clus scale="   79.781">  5  6 -1 -1</clus>
<clus scale="   89.569">  7  8 -1 -1</clus>
<clus scale="  101.487">  2  5  1 -1</clus>
<clus scale="   25.217">  2  5  1 -1</clus>
</clustering>
</event>
<event>
 9    1  0.7586638E-005  0.9114811E+02  0.7546771E-02  0.1306692E+00
         21   -1    0    0  501  502  0.00000000000E+00  0.00000000000E+00  0.47318525888E+02  0.47318525888E+02  0.00000000000E+00 0.  1.
         -2   -1    0    0    0  501 -0.00000000000E+00 -0.00000000000E+00 -0.52283500835E+03  0.52283500835E+03  0.00000000000E+00 0.  1.
         23    2    1    2    0    0 -0.22712503998E+02 -0.51186387139E+01 -0.20712725337E+03  0.22733118224E+03  0.90750807345E+02 0.  0.
        -24    2    1    2    0    0 -0.39356729549E+02 -0.30725019011E+02 -0.38651066768E+02  0.10216288141E+03  0.80314198130E+02 0.  0.
         11    1    4    4    0    0 -0.63217282322E+02 -0.15369194460E+02 -0.19456947262E+02  0.67905888693E+02  0.00000000000E+00 0. -1.
        -12    1    4    4    0    0  0.23860552772E+02 -0.15355824551E+02 -0.19194119506E+02  0.34256992715E+02  0.00000000000E+00 0.  1.
        -13    1    3    3    0    0  0.85861562862E+01 -0.29887536222E+02 -0.16999568501E+03  0.17281643389E+03  0.00000000000E+00 0. -1.
         13    1    3    3    0    0 -0.31298660285E+02  0.24768897509E+02 -0.37131568357E+02  0.54514748354E+02  0.00000000000E+00 0.  1.
         -1    1    1    2    0  502  0.62069233548E+02  0.35843657725E+02 -0.22973816233E+03  0.24065947058E+03  0.00000000000E+00 0.  1.
<scales pt_clust_5="13000.00000" pt_clust_6="13000.00000" pt_clust_7="13000.00000" pt_clust_8="13000.00000" pt_clust_9="71.67540"></scales>
<clustering>
<clus scale="   71.675">  1  9  2 -1</clus>
<clus scale="   80.314">  5  6 -1 -1</clus>
<clus scale="   80.763">  1  5  2 -1</clus>
<clus scale="   90.751">  7  8 -1 -1</clus>
<clus scale="   71.675">  1  5  2 -1</clus>
</clustering>
</event>
<event>
 9    1  0.7586638E-005  0.2027922E+03  0.7546771E-02  0.1169834E+00
          1   -1    0    0  502    0 -0.00000000000E+00  0.00000000000E+00  0.55619393666E+03  0.55619393666E+03  0.00000000000E+00 0. -1.
         21   -1    0    0  501  502  0.00000000000E+00 -0.00000000000E+00 -0.15034193451E+03  0.15034193451E+03  0.00000000000E+00 0. -1.
        -24    2    1    2    0    0 -0.83652236380E+02  0.29446767473E+02  0.19117367205E+03  0.22579427156E+03  0.81060911775E+02 0.  0.
         23    2    1    2    0    0  0.75322785727E+01  0.15020103538E+03  0.22385505942E+03  0.28541675888E+03  0.93458827118E+02 0.  0.
         13    1    3    3    0    0 -0.95685259738E+02  0.92976769757E+01  0.16168274334E+03  0.18810482509E+03  0.00000000000E+00 0. -1.
        -14    1    3    3    0    0  0.12033023357E+02  0.20149090497E+02  0.29490928714E+02  0.37689446472E+02  0.00000000000E+00 0.  1.
        -13    1    4    4    0    0  0.20423043307E+02  0.36527705061E+02  0.13269054732E+03  0.13913358791E+03  0.00000000000E+00 0.  1.
         13    1    4    4    0    0 -0.12890764734E+02  0.11367333032E+03  0.91164512102E+02  0.14628317097E+03  0.00000000000E+00 0. -1.
          2    1    1    2  501    0  0.76119957808E+02 -0.17964780286E+03 -0.91767293211E+01  0.19532484074E+03  0.00000000000E+00 0. -1.
<scales pt_clust_5="13000.00000" pt_clust_6="13000.00000" pt_clust_7="13000.00000" pt_clust_8="13000.00000" pt_clust_9="179.97257"></scales>
<clustering>
<clus scale="   81.061">  5  6 -1 -1</clus>
<clus scale="   93.459">  7  8 -1 -1</clus>
<clus scale="  120.149">  1  5  2 -1</clus>
<clus scale="  179.973">  2  9  1 -1</clus>
<clus scale="  179.973">  2  5  1 -1</clus>
</clustering>
</event>
<event>
 9    1  0.7586638E-005  0.1236199E+03  0.7546771E-02  0.1256379E+00
         21   -1    0    0  501  502  0.00000000000E+00  0.00000000000E+00  0.46463515346E+02  0.46463515346E+02  0.00000000000E+00 0. -1.
          1   -1    0    0  502    0 -0.00000000000E+00 -0.00000000000E+00 -0.73496250558E+03  0.73496250558E+03  0.00000000000E+00 0. -1.
        -24    2    1    2    0    0 -0.26194778543E+02  0.10422765050E+01 -0.39125265907E+03  0.40020431569E+03  0.79984987995E+02 0.  0.
         23    2    1    2    0    0 -0.55695960796E+02 -0.32037018982E+02 -0.26551288958E+03  0.28808858242E+03  0.91485114385E+02 0.  0.
         13    1    3    3    0    0 -0.50924353294E+02 -0.16441336925E+02 -0.23128071142E+03  0.23739076391E+03  0.00000000000E+00 0. -1.
        -14    1    3    3    0    0  0.24729574752E+02  0.17483613430E+02 -0.15997194766E+03  0.16281355178E+03  0.00000000000E+00 0.  1.
        -11    1    4    4    0    0  0.10798892695E+02  0.22721883576E+02 -0.72027992972E+02  0.76295031610E+02  0.00000000000E+00 0.  1.
         11    1    4    4    0    0 -0.66494853491E+02 -0.54758902558E+02 -0.19348489661E+03  0.21179355081E+03  0.00000000000E+00 0. -1.
          2    1    1    2  501    0  0.81890739339E+02  0.30994742477E+02 -0.31733441585E+02  0.93133122816E+02  0.00000000000E+00 0. -1.
<scales pt_clust_5="13000.00000" pt_clust_6="13000.00000" pt_clust_7="13000.00000" pt_clust_8="13000.00000" pt_clust_9="83.14058"></scales>
<clustering>
<clus scale="   79.985">  5  6 -1 -1</clus>
<clus scale="   84.172">  2  5  1 -1</clus>
<clus scale="   83.141">  1  9  2 -1</clus>
<clus scale="   91.485">  7  8 -1 -1</clus>
<clus scale="   83.141">  1  5  2 -1</clus>
</clustering>
</event>
<event>
 9    1  0.7586638E-005  0.9961983E+02  0.7546771E-02  0.1286229E+00
         21   -1    0    0  501  502  0.00000000000E+00  0.00000000000E+00  0.16542424219E+03  0.16542424219E+03  0.00000000000E+00 0.  1.
          1   -1    0    0  502    0 -0.00000000000E+00 -0.00000000000E+00 -0.21954848568E+03  0.21954848568E+03  0.00000000000E+00 0. -1.
         23    2    1    2    0    0  0.15028006972E+02  0.48444107865E+02 -0.16455649388E+03  0.19368044609E+03  0.88660041389E+02 0.  0.
        -24    2    1    2    0    0 -0.45400447399E+02  0.75240776921E+01  0.78983269084E+02  0.12027143021E+03  0.78160397646E+02 0.  0.
         13    1    4    4    0    0  0.20542311126E+01 -0.27914848406E+02  0.10915364001E+02  0.30043365296E+02  0.00000000000E+00 0. -1.
        -14    1    4    4    0    0 -0.47454678511E+02  0.35438926098E+02  0.68067905083E+02  0.90228064913E+02  0.00000000000E+00 0.  1.
        -13    1    3    3    0    0  0.38208280711E+02  0.12092380716E+02 -0.13645213104E+03  0.14221561958E+03  0.00000000000E+00 0. -1.
         13    1    3    3    0    0 -0.23180273739E+02  0.36351727149E+02 -0.28104362840E+02  0.51464826513E+02  0.00000000000E+00 0.  1.
          2    1    1    2  501    0  0.30372440427E+02 -0.55968185557E+02  0.31448981315E+02  0.71020851571E+02  0.00000000000E+00 0. -1.
<scales pt_clust_5="13000.00000" pt_clust_6="13000.00000" pt_clust_7="13000.00000" pt_clust_8="13000.00000" pt_clust_9="63.67828"></scales>
<clustering>
<clus scale="   63.678">  1  9  2 -1</clus>
<clus scale="   78.160">  5  6 -1 -1</clus>
<clus scale="   88.660">  7  8 -1 -1</clus>
<clus scale="   90.402">  1  5  2 -1</clus>
<clus scale="   63.678">  1  5  2 -1</clus>
</clustering>
</event>
<event>
 9    1  0.7586638E-005  0.1148718E+03  0.7546771E-02  0.1254020E+00
          1   -1    0    0  502    0 -0.00000000000E+00  0.00000000000E+00  0.14333957678E+03  0.14333957678E+03  0.00000000000E+00 0. -1.
         21   -1    0    0  501  502  0.00000000000E+00 -0.00000000000E+00 -0.15123752242E+03  0.15123752242E+03  0.00000000000E+00 0.  1.
        -24    2    1    2    0    0 -0.56285179977E+02  0.31250926709E+02  0.10990046621E+01  0.10343606039E+03  0.80951645268E+02 0.  0.
         23    2    1    2    0    0  0.82410574331E+02 -0.43247828195E+02 -0.53199789349E+02  0.13841198747E+03  0.87554458965E+02 0.  0.
         11    1    3    3    0    0 -0.11768058931E+02 -0.17501228881E+02  0.25464614027E+02  0.33063980264E+02  0.00000000000E+00 0. -1.
        -12    1    3    3    0    0 -0.44517121045E+02  0.48752155589E+02 -0.24365609365E+02  0.70372080121E+02  0.00000000000E+00 0.  1.
        -11    1    4    4    0    0  0.75984730494E+02 -0.65523957949E+02 -0.56251817897E+02  0.11502754170E+03  0.00000000000E+00 0.  1.
         11    1    4    4    0    0  0.64258438375E+01  0.22276129753E+02  0.30520285479E+01  0.23384445772E+02  0.00000000000E+00 0. -1.
          2    1    1    2  501    0 -0.26125394354E+02  0.11996901487E+02  0.44202839051E+02  0.52729051344E+02  0.00000000000E+00 0. -1.
<scales pt_clust_5="13000.00000" pt_clust_6="13000.00000" pt_clust_7="13000.00000" pt_clust_8="13000.00000" pt_clust_9="28.74826"></scales>
<clustering>
<clus scale="   28.748">  2  9  1 -1</clus>
<clus scale="   80.952">  5  6 -1 -1</clus>
<clus scale="   87.554">  7  8 -1 -1</clus>
<clus scale="  109.922">  1  5  2 -1</clus>
<clus scale="   28.748">  2  5  1 -1</clus>
</clustering>
</event>
<event>
 9    1  0.7586638E-005  0.1179608E+03  0.7546771E-02  0.1251969E+00
         21   -1    0    0  501  502  0.00000000000E+00  0.00000000000E+00  0.28498594395E+02  0.28498594395E+02  0.00000000000E+00 0. -1.
          1   -1    0    0  502    0 -0.00000000000E+00 -0.00000000000E+00 -0.69524850468E+03  0.69524850468E+03  0.00000000000E+00 0. -1.
        -24    2    1    2    0    0  0.65363062217E+02  0.53250386042E+02 -0.44863002666E+03  0.46238418684E+03  0.73636281151E+02 0.  0.
         23    2    1    2    0    0 -0.51980672029E+02 -0.20861550337E+02 -0.14021862356E+03  0.17594200516E+03  0.90316843613E+02 0.  0.
         13    1    3    3    0    0  0.71518668770E+02  0.57063730402E+02 -0.30151902350E+03  0.31509508223E+03  0.00000000000E+00 0. -1.
        -14    1    3    3    0    0 -0.61556065526E+01 -0.38133443601E+01 -0.14711100316E+03  0.14728910461E+03  0.00000000000E+00 0.  1.
        -13    1    4    4    0    0 -0.65639802254E+01 -0.51189787873E+02 -0.65331773377E+02  0.83256956655E+02  0.00000000000E+00 0. -1.
         13    1    4    4    0    0 -0.45416691804E+02  0.30328237535E+02 -0.74886850183E+02  0.92685048507E+02  0.00000000000E+00 0.  1.
          2    1    1    2  501    0 -0.13382390188E+02 -0.32388835705E+02 -0.77901260062E+02  0.85420907071E+02  0.00000000000E+00 0. -1.
<scales pt_clust_5="13000.00000" pt_clust_6="13000.00000" pt_clust_7="13000.00000" pt_clust_8="13000.00000" pt_clust_9="35.04462"></scales>
<clustering>
<clus scale="   35.045">  1  9  2 -1</clus>
<clus scale="   73.636">  5  6 -1 -1</clus>
<clus scale="   90.317">  7  8 -1 -1</clus>
<clus scale="  105.735">  2  5  1 -1</clus>
<clus scale="   35.045">  1  5  2 -1</clus>
</clustering>
</event>
<event>
 9    1  0.7586638E-005  0.1479095E+03  0.7546771E-02  0.1207495E+00
          3   -1    0    0  502    0 -0.00000000000E+00  0.00000000000E+00  0.32429678511E+03  0.32429678511E+03  0.00000000000E+00 0. -1.
         21   -1    0    0  501  502  0.00000000000E+00 -0.00000000000E+00 -0.23993375580E+03  0.23993375580E+03  0.00000000000E+00 0. -1.
        -24    2    1    2    0    0 -0.89450985370E+02 -0.15762370047E+02  0.92111575960E+02  0.14854186544E+03  0.73008302744E+02 0.  0.
         23    2    1    2    0    0  0.14306559632E+03 -0.16727530486E+01  0.16231254296E+03  0.23652594436E+03  0.95543695761E+02 0.  0.
         11    1    3    3    0    0 -0.22183786020E+02 -0.33039323950E+02  0.60069958072E+02  0.72056347063E+02  0.00000000000E+00 0. -1.
        -12    1    3    3    0    0 -0.67267199350E+02  0.17276953903E+02  0.32041617888E+02  0.76485518378E+02  0.00000000000E+00 0.  1.
        -13    1    4    4    0    0  0.94467828900E+02  0.86162942738E+01  0.37165890429E+02  0.10188088454E+03  0.00000000000E+00 0.  1.
         13    1    4    4    0    0  0.48597767419E+02 -0.10289047322E+02  0.12514665253E+03  0.13464505981E+03  0.00000000000E+00 0. -1.
          4    1    1    2  501    0 -0.53614610948E+02  0.17435123096E+02 -0.17006108961E+03  0.17916273112E+03  0.00000000000E+00 0. -1.
<scales pt_clust_5="13000.00000" pt_clust_6="13000.00000" pt_clust_7="13000.00000" pt_clust_8="13000.00000" pt_clust_9="56.37828"></scales>
<clustering>
<clus scale="   56.378">  2  9  1 -1</clus>
<clus scale="   73.008">  5  6 -1 -1</clus>
<clus scale="   95.544">  7  8 -1 -1</clus>
<clus scale="  134.458">  1  5  2 -1</clus>
<clus scale="   56.378">  2  5  1 -1</clus>
</clustering>
</event>
<event>
 9    1  0.7586638E-005  0.9224622E+02  0.7546771E-02  0.1304669E+00
          1   -1    0    0  502    0 -0.00000000000E+00  0.00000000000E+00  0.26948836367E+03  0.26948836367E+03  0.00000000000E+00 0. -1.
         21   -1    0    0  501  502  0.00000000000E+00 -0.00000000000E+00 -0.67792747731E+02  0.67792747731E+02  0.00000000000E+00 0. -1.
         23    2    1    2    0    0 -0.66774649116E+01 -0.10787856656E+02  0.13548241670E+03  0.16353790928E+03  0.90709404961E+02 0.  0.
        -24    2    1    2    0    0  0.36307541436E+02 -0.44601624685E+02  0.41860393071E+02  0.10637113635E+03  0.79088454593E+02 0.  0.
         13    1    4    4    0    0  0.60889895871E+02 -0.39704655104E+02  0.32297863557E+02  0.79543642401E+02  0.00000000000E+00 0. -1.
        -14    1    4    4    0    0 -0.24582354435E+02 -0.48969695818E+01  0.95625295142E+01  0.26827493945E+02  0.00000000000E+00 0.  1.
        -13    1    3    3    0    0  0.38135250970E+02  0.80519798454E+01  0.37145323176E+02  0.53841496820E+02  0.00000000000E+00 0.  1.
         13    1    3    3    0    0 -0.44812715882E+02 -0.18839836502E+02  0.98337093522E+02  0.10969641246E+03  0.00000000000E+00 0. -1.
          2    1    1    2  501    0 -0.29630076524E+02  0.55389481342E+02  0.24352806166E+02  0.67372065771E+02  0.00000000000E+00 0. -1.
<scales pt_clust_5="13000.00000" pt_clust_6="13000.00000" pt_clust_7="13000.00000" pt_clust_8="13000.00000" pt_clust_9="62.81669"></scales>
<clustering>
<clus scale="   62.817">  2  9  1 -1</clus>
<clus scale="   79.088">  5  6 -1 -1</clus>
<clus scale="   80.846">  2  5  1 -1</clus>
<clus scale="   90.709">  7  8 -1 -1</clus>
<clus scale="   62.817">  2  5  1 -1</clus>
</clustering>
</event>
<event>
 9    1  0.7586638E-005  0.9673124E+02  0.7546771E-02  0.1291345E+00
         21   -1    0    0  501  502  0.00000000000E+00  0.00000000000E+00  0.10503120344E+04  0.10503120344E+04  0.00000000000E+00 0. -1.
          1   -1    0    0  502    0 -0.00000000000E+00 -0.00000000000E+00 -0.24783272840E+02  0.24783272840E+02  0.00000000000E+00 0. -1.
         23    2    1    2    0    0 -0.39067687488E+02  0.21892081873E+02  0.17751188901E+03  0.20458371309E+03  0.91315264149E+02 0.  0.
        -24    2    1    2    0    0 -0.47130675375E+02 -0.46733301709E+02  0.38211970277E+03  0.39605673142E+03  0.80250639916E+02 0.  0.
         11    1    4    4    0    0 -0.68238847769E+02 -0.46923518576E+02  0.31433162366E+03  0.32505803570E+03  0.00000000000E+00 0. -1.
        -12    1    4    4    0    0  0.21108172394E+02  0.19021686770E+00  0.67788079113E+02  0.70998695721E+02  0.00000000000E+00 0.  1.
        -11    1    3    3    0    0  0.76090427350E+01  0.28414465024E+02  0.10796267963E+02  0.31334306373E+02  0.00000000000E+00 0.  1.
         11    1    3    3    0    0 -0.46676730223E+02 -0.65223831512E+01  0.16671562104E+03  0.17324940671E+03  0.00000000000E+00 0. -1.
          2    1    1    2  501    0  0.86198362863E+02  0.24841219836E+02  0.46589716977E+03  0.47445486272E+03  0.00000000000E+00 0. -1.
<scales pt_clust_5="13000.00000" pt_clust_6="13000.00000" pt_clust_7="13000.00000" pt_clust_8="13000.00000" pt_clust_9="89.70643"></scales>
<clustering>
<clus scale="   80.251">  5  6 -1 -1</clus>
<clus scale="   89.706">  1  9  2 -1</clus>
<clus scale="   89.706">  1  5  2 -1</clus>
<clus scale="   91.315">  7  8 -1 -1</clus>
<clus scale="   89.706">  1  5  2 -1</clus>
</clustering>
</event>
<event>
 9    1  0.7586638E-005  0.2023788E+03  0.7546771E-02  0.1148954E+00
         21   -1    0    0  501  502  0.00000000000E+00  0.00000000000E+00  0.22238557179E+03  0.22238557179E+03  0.00000000000E+00 0. -1.
          1   -1    0    0  502    0 -0.00000000000E+00 -0.00000000000E+00 -0.47229050266E+03  0.47229050266E+03  0.00000000000E+00 0. -1.
        -24    2    1    2    0    0  0.13084293019E+03 -0.12640728002E+03 -0.15692223239E+03  0.25254383123E+03  0.77814695601E+02 0.  0.
         23    2    1    2    0    0 -0.75376451724E+01  0.22183840926E+03  0.32214114580E+02  0.24216840713E+03  0.91316440555E+02 0.  0.
         13    1    3    3    0    0  0.12865608478E+03 -0.12330048321E+03 -0.16547714053E+03  0.24318322588E+03  0.00000000000E+00 0. -1.
        -14    1    3    3    0    0  0.21868454105E+01 -0.31067968113E+01  0.85549081404E+01  0.93606053526E+01  0.00000000000E+00 0.  1.
        -13    1    4    4    0    0 -0.28666692623E+02  0.58206544819E+02 -0.21981083261E+02  0.68505103073E+02  0.00000000000E+00 0.  1.
         13    1    4    4    0    0  0.21129047450E+02  0.16363186445E+03  0.54195197842E+02  0.17366330406E+03  0.00000000000E+00 0. -1.
          2    1    1    2  501    0 -0.12330528502E+03 -0.95431129247E+02 -0.12519681306E+03  0.19996383609E+03  0.00000000000E+00 0. -1.
<scales pt_clust_5="13000.00000" pt_clust_6="13000.00000" pt_clust_7="13000.00000" pt_clust_8="13000.00000" pt_clust_9="155.92087"></scales>
<clustering>
<clus scale="   77.815">  5  6 -1 -1</clus>
<clus scale="   91.316">  7  8 -1 -1</clus>
<clus scale="  155.921">  1  9  2 -1</clus>
<clus scale="  196.656">  2  5  1 -1</clus>
<clus scale="  155.921">  1  5  2 -1</clus>
</clustering>
</event>
<event>
 9    1  0.7586638E-005  0.1831574E+03  0.7546771E-02  0.1196961E+00
          1   -1    0    0  502    0 -0.00000000000E+00  0.00000000000E+00  0.89959244990E+03  0.89959244990E+03  0.00000000000E+00 0. -1.
         21   -1    0    0  501  502  0.00000000000E+00 -0.00000000000E+00 -0.72563223030E+02  0.72563223030E+02  0.00000000000E+00 0. -1.
        -24    2    1    2    0    0 -0.25253012192E+02  0.20425369409E+02  0.26456853512E+03  0.27911726568E+03  0.82795095791E+02 0.  0.
         23    2    1    2    0    0 -0.14610813515E+03 -0.48422544840E+02  0.11437326203E+03  0.21248577816E+03  0.91523946841E+02 0.  0.
         13    1    3    3    0    0 -0.43589381289E+02 -0.17245569812E+02  0.14814571776E+03  0.15538531954E+03  0.00000000000E+00 0. -1.
        -14    1    3    3    0    0  0.18336369096E+02  0.37670939221E+02  0.11642281736E+03  0.12373194614E+03  0.00000000000E+00 0.  1.
        -13    1    4    4    0    0 -0.82091950314E+02 -0.72772231957E+02  0.80541516778E+02  0.13609490062E+03  0.00000000000E+00 0. -1.
         13    1    4    4    0    0 -0.64016184840E+02  0.24349687117E+02  0.33831745257E+02  0.76390877540E+02  0.00000000000E+00 0.  1.
          2    1    1    2  501    0  0.17136114735E+03  0.27997175431E+02  0.44808742971E+03  0.48055262908E+03  0.00000000000E+00 0. -1.
<scales pt_clust_5="13000.00000" pt_clust_6="13000.00000" pt_clust_7="13000.00000" pt_clust_8="13000.00000" pt_clust_9="158.65064"></scales>
<clustering>
<clus scale="   82.795">  5  6 -1 -1</clus>
<clus scale="   88.938">  1  5  2 -1</clus>
<clus scale="   91.524">  7  8 -1 -1</clus>
<clus scale="  158.651">  2  9  1 -1</clus>
<clus scale="  158.651">  2  5  1 -1</clus>
</clustering>
</event>
<event>
 9    1  0.7586638E-005  0.1786452E+03  0.7546771E-02  0.1175506E+00
          3   -1    0    0  502    0 -0.00000000000E+00  0.00000000000E+00  0.34324424237E+03  0.34324424237E+03  0.00000000000E+00 0. -1.
         21   -1    0    0  501  502  0.00000000000E+00 -0.00000000000E+00 -0.22677650470E+03  0.22677650470E+03  0.00000000000E+00 0. -1.
        -24    2    1    2    0    0 -0.10049435018E+03  0.85706819897E+02  0.31261101511E+02  0.15759281808E+03  0.80084121081E+02 0.  0.
         23    2    1    2    0    0 -0.93627716186E+02 -0.12483420863E+03 -0.35995868550E+02  0.18025476872E+03  0.82742674671E+02 0.  0.
         13    1    3    3    0    0 -0.10129800416E+03  0.46893393164E+02  0.38545999653E+02  0.11809348017E+03  0.00000000000E+00 0. -1.
        -14    1    3    3    0    0  0.80365398566E+00  0.38813426734E+02 -0.72848981413E+01  0.39499337912E+02  0.00000000000E+00 0.  1.
        -11    1    4    4    0    0 -0.14904521968E+02 -0.26968191543E+02 -0.44771131314E+02  0.54349630444E+02  0.00000000000E+00 0. -1.
         11    1    4    4    0    0 -0.78723194218E+02 -0.97866017084E+02  0.87752627645E+01  0.12590513828E+03  0.00000000000E+00 0.  1.
          4    1    1    2  501    0  0.19412206636E+03  0.39127388730E+02  0.12120250472E+03  0.23217316026E+03  0.00000000000E+00 0. -1.
<scales pt_clust_5="13000.00000" pt_clust_6="13000.00000" pt_clust_7="13000.00000" pt_clust_8="13000.00000" pt_clust_9="158.32806"></scales>
<clustering>
<clus scale="   80.084">  5  6 -1 -1</clus>
<clus scale="   82.743">  7  8 -1 -1</clus>
<clus scale="  154.461">  1  5  2 -1</clus>
<clus scale="  158.328">  2  9  1 -1</clus>
<clus scale="  158.328">  2  5  1 -1</clus>
</clustering>
</event>
<event>
 9    1  0.7586638E-005  0.1064439E+03  0.7546771E-02  0.1273574E+00
          1   -1    0    0  502    0 -0.00000000000E+00  0.00000000000E+00  0.58457605356E+03  0.58457605356E+03  0.00000000000E+00 0. -1.
         21   -1    0    0  501  502  0.00000000000E+00 -0.00000000000E+00 -0.26775623855E+03  0.26775623855E+03  0.00000000000E+00 0. -1.
        -24    2    1    2    0    0  0.43474500411E+02 -0.16106194707E+02  0.42415888291E+03  0.43416508355E+03  0.80244128285E+02 0.  0.
         23    2    1    2    0    0 -0.68378013665E+02 -0.70204628212E+01  0.13216142348E+03  0.17626740982E+03  0.94226950800E+02 0.  0.
         11    1    3    3    0    0  0.51861244603E+02  0.14875239650E+02  0.18018709230E+03  0.18809106751E+03  0.00000000000E+00 0. -1.
        -12    1    3    3    0    0 -0.83867441916E+01 -0.30981434357E+02  0.24397179062E+03  0.24607401604E+03  0.00000000000E+00 0.  1.
        -11    1    4    4    0    0 -0.40275838736E+02 -0.89094383860E+01  0.11411076729E+00  0.41249658175E+02  0.00000000000E+00 0.  1.
         11    1    4    4    0    0 -0.28102174929E+02  0.18889755647E+01  0.13204731271E+03  0.13501775164E+03  0.00000000000E+00 0. -1.
          2    1    1    2  501    0  0.24903513254E+02  0.23126657528E+02 -0.23950049138E+03  0.24189979874E+03  0.00000000000E+00 0. -1.
<scales pt_clust_5="13000.00000" pt_clust_6="13000.00000" pt_clust_7="13000.00000" pt_clust_8="13000.00000" pt_clust_9="33.98569"></scales>
<clustering>
<clus scale="   33.986">  2  9  1 -1</clus>
<clus scale="   80.244">  5  6 -1 -1</clus>
<clus scale="   94.227">  7  8 -1 -1</clus>
<clus scale="   94.291">  1  5  2 -1</clus>
<clus scale="   33.986">  2  5  1 -1</clus>
</clustering>
</event>
<event>
 9    1  0.7586638E-005  0.9297470E+02  0.7546771E-02  0.1302404E+00
          3   -1    0    0  502    0 -0.00000000000E+00  0.00000000000E+00  0.12296074104E+03  0.12296074104E+03  0.00000000000E+00 0. -1.
         21   -1    0    0  501  502  0.00000000000E+00 -0.00000000000E+00 -0.12908925426E+03  0.12908925426E+03  0.00000000000E+00 0. -1.
         23    2    1    2    0    0 -0.48899858485E+01 -0.10186744421E+02  0.46284701369E+01  0.91372414165E+02  0.90552822214E+02 0.  0.
        -24    2    1    2    0    0  0.29312247640E+02  0.27706628776E+02 -0.56757072071E+02  0.10572850125E+03  0.79563091990E+02 0.  0.
         13    1    4    4    0    0  0.51696460448E+02  0.12873454813E+02 -0.13740695973E+02  0.55018693073E+02  0.00000000000E+00 0. -1.
        -14    1    4    4    0    0 -0.22384212808E+02  0.14833173963E+02 -0.43016376098E+02  0.50709808178E+02  0.00000000000E+00 0.  1.
        -13    1    3    3    0    0  0.24739865283E+02  0.25378937341E+02  0.22242630518E+02  0.41843589798E+02  0.00000000000E+00 0.  1.
         13    1    3    3    0    0 -0.29629851131E+02 -0.35565681762E+02 -0.17614160381E+02  0.49528824367E+02  0.00000000000E+00 0. -1.
          4    1    1    2  501    0 -0.24422261791E+02 -0.17519884355E+02  0.46000088711E+02  0.54949079886E+02  0.00000000000E+00 0. -1.
<scales pt_clust_5="13000.00000" pt_clust_6="13000.00000" pt_clust_7="13000.00000" pt_clust_8="13000.00000" pt_clust_9="30.05652"></scales>
<clustering>
<clus scale="   30.057">  2  9  1 -1</clus>
<clus scale="   79.563">  5  6 -1 -1</clus>
<clus scale="   82.309">  2  5  1 -1</clus>
<clus scale="   90.553">  7  8 -1 -1</clus>
<clus scale="   30.057">  2  5  1 -1</clus>
</clustering>
</event>
<event>
 9    1  0.7586638E-005  0.1086830E+03  0.7546771E-02  0.1265007E+00
          1   -1    0    0  502    0 -0.00000000000E+00  0.00000000000E+00  0.42422784044E+03  0.42422784044E+03  0.00000000000E+00 0. -1.
         21   -1    0    0  501  502  0.00000000000E+00 -0.00000000000E+00 -0.54114868063E+02  0.54114868063E+02  0.00000000000E+00 0. -1.
        -24    2    1    2    0    0  0.31863362674E+02  0.82113611871E+02  0.24685470795E+03  0.27418184835E+03  0.80501676970E+02 0.  0.
         23    2    1    2    0    0 -0.23740738149E+02 -0.34662431299E+02  0.12336105973E+03  0.15601937976E+03  0.85784549962E+02 0.  0.
         13    1    3    3    0    0 -0.27005662226E+02  0.33107200767E+02  0.89279896955E+02  0.98976222070E+02  0.00000000000E+00 0. -1.
        -14    1    3    3    0    0  0.58869024900E+02  0.49006411104E+02  0.15757481099E+03  0.17520562628E+03  0.00000000000E+00 0.  1.
        -13    1    4    4    0    0 -0.56292367431E+02 -0.24721821649E+02  0.78830420668E+02  0.99971167440E+02  0.00000000000E+00 0.  1.
         13    1    4    4    0    0  0.32551629283E+02 -0.99406096491E+01  0.44530639063E+02  0.56048212322E+02  0.00000000000E+00 0. -1.
          2    1    1    2  501    0 -0.81226245249E+01 -0.47451180572E+02 -0.10279530254E+00  0.48141480386E+02  0.00000000000E+00 0. -1.
<scales pt_clust_5="13000.00000" pt_clust_6="13000.00000" pt_clust_7="13000.00000" pt_clust_8="13000.00000" pt_clust_9="48.14137"></scales>
<clustering>
<clus scale="   48.141">  2  9  1 -1</clus>
<clus scale="   80.502">  5  6 -1 -1</clus>
<clus scale="   85.785">  7  8 -1 -1</clus>
<clus scale="  104.563">  1  5  2 -1</clus>
<clus scale="   48.141">  2  5  1 -1</clus>
</clustering>
</event>
<event>
 9    1  0.7586638E-005  0.1127860E+03  0.7546771E-02  0.1260480E+00
         -2   -1    0    0    0  501 -0.00000000000E+00  0.00000000000E+00  0.67042606454E+03  0.67042606454E+03  0.00000000000E+00 0.  1.
         21   -1    0    0  501  502  0.00000000000E+00 -0.00000000000E+00 -0.32995052529E+02  0.32995052529E+02  0.00000000000E+00 0. -1.
        -24    2    1    2    0    0  0.41514345887E+02 -0.46588002702E+02  0.43841585805E+03  0.44950763073E+03  0.77167108136E+02 0.  0.
         23    2    1    2    0    0 -0.72329891730E+02  0.46962855194E+02  0.17337595536E+03  0.21382474871E+03  0.90690011903E+02 0.  0.
         11    1    3    3    0    0  0.31045855698E+02  0.64048202228E+01  0.66264126310E+02  0.73456118287E+02  0.00000000000E+00 0. -1.
        -12    1    3    3    0    0  0.10468490188E+02 -0.52992822925E+02  0.37215173174E+03  0.37605151244E+03  0.00000000000E+00 0.  1.
        -11    1    4    4    0    0 -0.41367545823E+02 -0.20973905129E+02  0.94203029253E+02  0.10500185362E+03  0.00000000000E+00 0.  1.
         11    1    4    4    0    0 -0.30962345907E+02  0.67936760323E+02  0.79172926107E+02  0.10882289509E+03  0.00000000000E+00 0. -1.
         -1    1    1    2    0  502  0.30815545843E+02 -0.37485249157E+00  0.25639198595E+02  0.40088737628E+02  0.00000000000E+00 0.  1.
<scales pt_clust_5="13000.00000" pt_clust_6="13000.00000" pt_clust_7="13000.00000" pt_clust_8="13000.00000" pt_clust_9="30.81783"></scales>
<clustering>
<clus scale="   30.818">  2  9  1 -1</clus>
<clus scale="   77.167">  5  6 -1 -1</clus>
<clus scale="   90.690">  7  8 -1 -1</clus>
<clus scale="  102.229">  1  5  2 -1</clus>
<clus scale="   30.818">  2  5  1 -1</clus>
</clustering>
</event>
<event>
 9    1  0.7586638E-005  0.1037219E+03  0.7546771E-02  0.1276711E+00
          1   -1    0    0  502    0 -0.00000000000E+00  0.00000000000E+00  0.58011255515E+03  0.58011255515E+03  0.00000000000E+00 0. -1.
         21   -1    0    0  501  502  0.00000000000E+00 -0.00000000000E+00 -0.87153768052E+02  0.87153768052E+02  0.00000000000E+00 0. -1.
         23    2    1    2    0    0 -0.11721166527E+02  0.58833264828E+02  0.48235005851E+03  0.49412264892E+03  0.88864359740E+02 0.  0.
        -24    2    1    2    0    0  0.78488660564E+01 -0.29736924793E+02  0.67680900926E+02  0.10896560506E+03  0.79667492378E+02 0.  0.
         13    1    4    4    0    0 -0.27050442158E+02  0.47625848249E+01  0.49543776592E+02  0.56647987027E+02  0.00000000000E+00 0. -1.
        -14    1    4    4    0    0  0.34899308215E+02 -0.34499509618E+02  0.18137124334E+02  0.52317618035E+02  0.00000000000E+00 0.  1.
        -11    1    3    3    0    0 -0.49797290910E+02  0.42592470290E+02  0.31314610802E+03  0.31992870093E+03  0.00000000000E+00 0. -1.
         11    1    3    3    0    0  0.38076124383E+02  0.16240794539E+02  0.16920395049E+03  0.17419394799E+03  0.00000000000E+00 0.  1.
          2    1    1    2  501    0  0.38723004706E+01 -0.29096340036E+02 -0.57072172337E+02  0.64178069226E+02  0.00000000000E+00 0. -1.
<scales pt_clust_5="13000.00000" pt_clust_6="13000.00000" pt_clust_7="13000.00000" pt_clust_8="13000.00000" pt_clust_9="29.35288"></scales>
<clustering>
<clus scale="   29.353">  2  9  1 -1</clus>
<clus scale="   79.667">  5  6 -1 -1</clus>
<clus scale="   88.864">  7  8 -1 -1</clus>
<clus scale="   95.960">  2  5  1 -1</clus>
<clus scale="   29.353">  2  5  1 -1</clus>
</clustering>
</event>
<event>
 9    1  0.7586638E-005  0.1172931E+03  0.7546771E-02  0.1251324E+00
         21   -1    0    0  501  502  0.00000000000E+00  0.00000000000E+00  0.35924780880E+02  0.35924780880E+02  0.00000000000E+00 0. -1.
          1   -1    0    0  502    0 -0.00000000000E+00 -0.00000000000E+00 -0.75253360321E+03  0.75253360321E+03  0.00000000000E+00 0. -1.
         23    2    1    2    0    0 -0.46662061942E+02 -0.85385686022E+02 -0.50354356811E+03  0.52145850199E+03  0.94312146148E+02 0.  0.
        -24    2    1    2    0    0  0.48389800505E+01  0.25061628756E+02 -0.11548080312E+03  0.14488973854E+03  0.83700176108E+02 0.  0.
         11    1    4    4    0    0 -0.31907833177E+01 -0.25929659749E+02 -0.10987500742E+02  0.28341727637E+02  0.00000000000E+00 0. -1.
        -12    1    4    4    0    0  0.80297633682E+01  0.50991288505E+02 -0.10449330238E+03  0.11654801090E+03  0.00000000000E+00 0.  1.
        -11    1    3    3    0    0  0.25853980377E+02 -0.29526327134E+02 -0.95026162992E+02  0.10281149716E+03  0.00000000000E+00 0.  1.
         11    1    3    3    0    0 -0.72516042319E+02 -0.55859358889E+02 -0.40851740512E+03  0.41864700483E+03  0.00000000000E+00 0. -1.
          2    1    1    2  501    0  0.41823081892E+02  0.60324057267E+02 -0.97584451097E+02  0.12211014356E+03  0.00000000000E+00 0. -1.
<scales pt_clust_5="13000.00000" pt_clust_6="13000.00000" pt_clust_7="13000.00000" pt_clust_8="13000.00000" pt_clust_9="73.40410"></scales>
<clustering>
<clus scale="   73.404">  1  9  2 -1</clus>
<clus scale="   83.700">  5  6 -1 -1</clus>
<clus scale="   94.312">  7  8 -1 -1</clus>
<clus scale="  108.943">  1  5  2 -1</clus>
<clus scale="   73.404">  1  5  2 -1</clus>
</clustering>
</event>
<event>
 9    1  0.7586638E-005  0.1175376E+03  0.7546771E-02  0.1250982E+00
          1   -1    0    0  502    0 -0.00000000000E+00  0.00000000000E+00  0.34871628838E+03  0.34871628838E+03  0.00000000000E+00 0. -1.
         21   -1    0    0  501  502  0.00000000000E+00 -0.00000000000E+00 -0.94369976613E+02  0.94369976613E+02  0.00000000000E+00 0.  1.
        -24    2    1    2    0    0  0.79389129795E+02 -0.86591567819E+01  0.10964715277E+03  0.15769429315E+03  0.80420004082E+02 0.  0.
         23    2    1    2    0    0 -0.55577144596E+02  0.14973336851E+01 -0.28095159563E+02  0.11081769288E+03  0.91652397973E+02 0.  0.
         11    1    3    3    0    0  0.54946068333E+02  0.27926895844E+02  0.34556615773E+02  0.70662165481E+02  0.00000000000E+00 0. -1.
        -12    1    3    3    0    0  0.24443061461E+02 -0.36586052626E+02  0.75090537000E+02  0.87032127673E+02  0.00000000000E+00 0.  1.
        -11    1    4    4    0    0 -0.67205242154E+02 -0.29305256742E+02 -0.26133018888E+02  0.77834936384E+02  0.00000000000E+00 0.  1.
         11    1    4    4    0    0  0.11628097558E+02  0.30802590428E+02 -0.19621406753E+01  0.32982756493E+02  0.00000000000E+00 0. -1.
          2    1    1    2  501    0 -0.23811985199E+02  0.71618230968E+01  0.17279431856E+03  0.17457427896E+03  0.00000000000E+00 0. -1.
<scales pt_clust_5="13000.00000" pt_clust_6="13000.00000" pt_clust_7="13000.00000" pt_clust_8="13000.00000" pt_clust_9="24.86570"></scales>
<clustering>
<clus scale="   24.866">  2  9  1 -1</clus>
<clus scale="   80.420">  5  6 -1 -1</clus>
<clus scale="   91.652">  7  8 -1 -1</clus>
<clus scale="  109.006">  1  5  2 -1</clus>
<clus scale="   24.866">  2  5  1 -1</clus>
</clustering>
</event>
<event>
 9    1  0.7586638E-005  0.9450938E+02  0.7546771E-02  0.1299049E+00
         21   -1    0    0  501  502  0.00000000000E+00  0.00000000000E+00  0.38124001012E+02  0.38124001012E+02  0.00000000000E+00 0.  1.
          1   -1    0    0  502    0 -0.00000000000E+00 -0.00000000000E+00 -0.32807703350E+03  0.32807703350E+03  0.00000000000E+00 0. -1.
         23    2    1    2    0    0  0.12671747203E+02 -0.36762392337E+01 -0.18950871246E+03  0.21094969613E+03  0.91717687962E+02 0.  0.
        -24    2    1    2    0    0 -0.36737895239E+02  0.18014566225E+02 -0.81538364952E+02  0.12145485574E+03  0.80178422785E+02 0.  0.
         13    1    4    4    0    0  0.45066262052E+01  0.30273153848E+02 -0.70762933463E+02  0.77098419412E+02  0.00000000000E+00 0. -1.
        -14    1    4    4    0    0 -0.41244521444E+02 -0.12258587623E+02 -0.10775431490E+02  0.44356436325E+02  0.00000000000E+00 0.  1.
        -11    1    3    3    0    0 -0.16852354025E+01 -0.32336976478E+02 -0.19188804856E+02  0.37639477918E+02  0.00000000000E+00 0.  1.
         11    1    3    3    0    0  0.14356982605E+02  0.28660737245E+02 -0.17031990760E+03  0.17331021821E+03  0.00000000000E+00 0. -1.
          2    1    1    2  501    0  0.24066148036E+02 -0.14338326991E+02 -0.18905955076E+02  0.33796482650E+02  0.00000000000E+00 0. -1.
<scales pt_clust_5="13000.00000" pt_clust_6="13000.00000" pt_clust_7="13000.00000" pt_clust_8="13000.00000" pt_clust_9="28.01369"></scales>
<clustering>
<clus scale="   28.014">  1  9  2 -1</clus>
<clus scale="   80.178">  5  6 -1 -1</clus>
<clus scale="   83.357">  1  5  2 -1</clus>
<clus scale="   91.718">  7  8 -1 -1</clus>
<clus scale="   28.014">  1  5  2 -1</clus>
</clustering>
</event>
<event>
 9    1  0.7586638E-005  0.1991837E+03  0.7546771E-02  0.1151012E+00
         21   -1    0    0  501  502  0.00000000000E+00  0.00000000000E+00  0.14566527919E+03  0.14566527919E+03  0.00000000000E+00 0.  1.
         -2   -1    0    0    0  501 -0.00000000000E+00 -0.00000000000E+00 -0.55917727963E+03  0.55917727963E+03  0.00000000000E+00 0.  1.
        -24    2    1    2    0    0 -0.79144931701E+02  0.16009876817E+03 -0.31779163895E+03  0.37426583415E+03  0.84781206871E+02 0.  0.
         23    2    1    2    0    0  0.42323723032E+02 -0.17244002863E+03 -0.15983402962E+03  0.25561893283E+03  0.90924478514E+02 0.  0.
         13    1    3    3    0    0 -0.66765079600E+02  0.55204346833E+02 -0.10065377495E+03  0.13280164974E+03  0.00000000000E+00 0. -1.
        -14    1    3    3    0    0 -0.12379852101E+02  0.10489442133E+03 -0.21713786400E+03  0.24146418440E+03  0.00000000000E+00 0.  1.
        -13    1    4    4    0    0  0.38490390733E+01 -0.12549741907E+03 -0.14746557413E+03  0.19367630946E+03  0.00000000000E+00 0.  1.
         13    1    4    4    0    0  0.38474683959E+02 -0.46942609562E+02 -0.12368455485E+02  0.61942623365E+02  0.00000000000E+00 0. -1.
         -1    1    1    2    0  502  0.36821208669E+02  0.12341260461E+02  0.64113668128E+02  0.74957791847E+02  0.00000000000E+00 0.  1.
<scales pt_clust_5="13000.00000" pt_clust_6="13000.00000" pt_clust_7="13000.00000" pt_clust_8="13000.00000" pt_clust_9="38.83437"></scales>
<clustering>
<clus scale="   38.834">  1  9  2 -1</clus>
<clus scale="   84.781">  5  6 -1 -1</clus>
<clus scale="   90.924">  7  8 -1 -1</clus>
<clus scale="  196.455">  2  5  1 -1</clus>
<clus scale="   38.834">  1  5  2 -1</clus>
</clustering>
</event>
<event>
 9    1  0.7586638E-005  0.9854269E+02  0.7546771E-02  0.1289397E+00
         21   -1    0    0  501  502  0.00000000000E+00  0.00000000000E+00  0.13982115774E+03  0.13982115774E+03  0.00000000000E+00 0. -1.
         -4   -1    0    0    0  501 -0.00000000000E+00 -0.00000000000E+00 -0.86172499901E+02  0.86172499901E+02  0.00000000000E+00 0.  1.
        -24    2    1    2    0    0  0.38156638276E+02  0.22635964434E+02 -0.34405771043E+01  0.91827149657E+02  0.80324790152E+02 0.  0.
         23    2    1    2    0    0 -0.20527021391E+02 -0.12037377776E+02  0.28564495119E+02  0.98998422840E+02  0.91752385650E+02 0.  0.
         13    1    3    3    0    0  0.18959630236E+02 -0.88284306394E+01  0.33596935558E+02  0.39574775364E+02  0.00000000000E+00 0. -1.
        -14    1    3    3    0    0  0.19197008040E+02  0.31464395073E+02 -0.37037512663E+02  0.52252374293E+02  0.00000000000E+00 0.  1.
        -13    1    4    4    0    0 -0.23208673594E+01  0.33930104033E+02 -0.10926114841E+02  0.35721399336E+02  0.00000000000E+00 0.  1.
         13    1    4    4    0    0 -0.18206154032E+02 -0.45967481809E+02  0.39490609961E+02  0.63277023504E+02  0.00000000000E+00 0. -1.
         -3    1    1    2    0  502 -0.17629616885E+02 -0.10598586657E+02  0.28524739820E+02  0.35168085140E+02  0.00000000000E+00 0.  1.
<scales pt_clust_5="13000.00000" pt_clust_6="13000.00000" pt_clust_7="13000.00000" pt_clust_8="13000.00000" pt_clust_9="20.57021"></scales>
<clustering>
<clus scale="   20.570">  1  9  2 -1</clus>
<clus scale="   80.325">  5  6 -1 -1</clus>
<clus scale="   88.001">  2  5  1 -1</clus>
<clus scale="   91.752">  7  8 -1 -1</clus>
<clus scale="   20.570">  1  5  2 -1</clus>
</clustering>
</event>
<event>
 9    1  0.7586638E-005  0.1726362E+03  0.7546771E-02  0.1193780E+00
         -2   -1    0    0    0  501 -0.00000000000E+00  0.00000000000E+00  0.52699444175E+02  0.52699444175E+02  0.00000000000E+00 0.  1.
         21   -1    0    0  501  502  0.00000000000E+00 -0.00000000000E+00 -0.14590819966E+04  0.14590819966E+04  0.00000000000E+00 0.  1.
        -24    2    1    2    0    0 -0.56338655250E+01 -0.80204786859E+02 -0.22547699718E+03  0.25259882139E+03  0.80633367993E+02 0.  0.
         23    2    1    2    0    0 -0.45680679484E+01 -0.76213796463E+02 -0.74143807626E+02  0.14137565097E+03  0.93061057704E+02 0.  0.
         13    1    3    3    0    0  0.88844127292E+01 -0.70854273281E+02 -0.84781381206E+02  0.11084738802E+03  0.00000000000E+00 0. -1.
        -14    1    3    3    0    0 -0.14518278254E+02 -0.93505135781E+01 -0.14069561598E+03  0.14175143337E+03  0.00000000000E+00 0.  1.
        -11    1    4    4    0    0  0.17911227050E+02 -0.34324594253E+02  0.14048109384E+02  0.41186638638E+02  0.00000000000E+00 0.  1.
         11    1    4    4    0    0 -0.22479294998E+02 -0.41889202211E+02 -0.88191917011E+02  0.10018901233E+03  0.00000000000E+00 0. -1.
         -1    1    1    2    0  502  0.10201933473E+02  0.15641858332E+03 -0.11067617477E+04  0.11178069685E+04  0.00000000000E+00 0.  1.
<scales pt_clust_5="13000.00000" pt_clust_6="13000.00000" pt_clust_7="13000.00000" pt_clust_8="13000.00000" pt_clust_9="145.40596"></scales>
<clustering>
<clus scale="   80.633">  5  6 -1 -1</clus>
<clus scale="   93.061">  7  8 -1 -1</clus>
<clus scale="  113.870">  1  5  2 -1</clus>
<clus scale="  145.406">  2  9  1 -1</clus>
<clus scale="  145.406">  2  5  1 -1</clus>
</clustering>
</event>
<event>
 9    1  0.7586638E-005  0.1632951E+03  0.7546771E-02  0.1186007E+00
         -2   -1    0    0    0  501 -0.00000000000E+00  0.00000000000E+00  0.32641890860E+03  0.32641890860E+03  0.00000000000E+00 0.  1.
         21   -1    0    0  501  502  0.00000000000E+00 -0.00000000000E+00 -0.29289200637E+03  0.29289200637E+03  0.00000000000E+00 0.  1.
         23    2    1    2    0    0  0.13903954923E+03 -0.42355182274E+02  0.27277651914E+03  0.32102696438E+03  0.86748629662E+02 0.  0.
        -24    2    1    2    0    0 -0.87456521635E+02  0.14784302451E+02 -0.15287296910E+03  0.19396766501E+03  0.79913025299E+02 0.  0.
         13    1    4    4    0    0 -0.98190509513E+02  0.11972726624E+02 -0.10273128706E+03  0.14261290153E+03  0.00000000000E+00 0. -1.
        -14    1    4    4    0    0  0.10733987878E+02  0.28115758266E+01 -0.50141682041E+02  0.51354763482E+02  0.00000000000E+00 0.  1.
        -11    1    3    3    0    0  0.37383045888E+02  0.24283748059E+02  0.48119250235E+02  0.65594624649E+02  0.00000000000E+00 0. -1.
         11    1    3    3    0    0  0.10165650334E+03 -0.66638930333E+02  0.22465726891E+03  0.25543233973E+03  0.00000000000E+00 0.  1.
         -1    1    1    2    0  502 -0.51583027592E+02  0.27570879823E+02 -0.86376647820E+02  0.10431628559E+03  0.00000000000E+00 0.  1.
<scales pt_clust_5="13000.00000" pt_clust_6="13000.00000" pt_clust_7="13000.00000" pt_clust_8="13000.00000" pt_clust_9="58.48899"></scales>
<clustering>
<clus scale="   58.489">  2  9  1 -1</clus>
<clus scale="   79.913">  5  6 -1 -1</clus>
<clus scale="   86.749">  7  8 -1 -1</clus>
<clus scale="  159.769">  2  5  1 -1</clus>
<clus scale="   58.489">  2  5  1 -1</clus>
</clustering>
</event>
<event>
 9    1  0.7586638E-005  0.4018184E+03  0.7546771E-02  0.1093940E+00
         21   -1    0    0  501  502  0.00000000000E+00  0.00000000000E+00  0.54573620604E+03  0.54573620604E+03  0.00000000000E+00 0.  1.
          3   -1    0    0  502    0 -0.00000000000E+00 -0.00000000000E+00 -0.37544315050E+03  0.37544315050E+03  0.00000000000E+00 0. -1.
        -24    2    1    2    0    0 -0.55836031844E+02 -0.32457311649E+02  0.59956787817E+01  0.99364305002E+02  0.75274015523E+02 0.  0.
         23    2    1    2    0    0 -0.34188798601E+03  0.13280161319E+03 -0.53212917288E+01  0.37794134661E+03  0.91036706273E+02 0.  0.
         11    1    3    3    0    0  0.35778820863E+01 -0.21484250885E+02 -0.23576108185E+02  0.32096840241E+02  0.00000000000E+00 0. -1.
        -12    1    3    3    0    0 -0.59413913930E+02 -0.10973060765E+02  0.29571786966E+02  0.67267464761E+02  0.00000000000E+00 0.  1.
        -13    1    4    4    0    0 -0.17962597549E+03  0.11539145351E+03  0.11987769731E+02  0.21383261033E+03  0.00000000000E+00 0.  1.
         13    1    4    4    0    0 -0.16226201052E+03  0.17410159680E+02 -0.17309061460E+02  0.16410873629E+03  0.00000000000E+00 0. -1.
          4    1    1    2  501    0  0.39772401785E+03 -0.10034430154E+03  0.16961866848E+03  0.44387370493E+03  0.00000000000E+00 0. -1.
<scales pt_clust_5="13000.00000" pt_clust_6="13000.00000" pt_clust_7="13000.00000" pt_clust_8="13000.00000" pt_clust_9="391.36985"></scales>
<clustering>
<clus scale="   75.274">  5  6 -1 -1</clus>
<clus scale="   91.037">  7  8 -1 -1</clus>
<clus scale="   99.183">  2  5  1 -1</clus>
<clus scale="  391.370">  1  9  2 -1</clus>
<clus scale="  391.370">  1  5  2 -1</clus>
</clustering>
</event>
<event>
 9    1  0.7586638E-005  0.1458149E+03  0.7546771E-02  0.1230437E+00
          1   -1    0    0  502    0 -0.00000000000E+00  0.00000000000E+00  0.42823660263E+03  0.42823660263E+03  0.00000000000E+00 0. -1.
         21   -1    0    0  501  502  0.00000000000E+00 -0.00000000000E+00 -0.33624206819E+03  0.33624206819E+03  0.00000000000E+00 0. -1.
        -24    2    1    2    0    0  0.81389744938E+01 -0.36859470265E+02  0.37751158653E+03  0.38732006011E+03  0.77954907106E+02 0.  0.
         23    2    1    2    0    0  0.82636185018E+02  0.22548234897E+02 -0.11805870201E+03  0.18614227619E+03  0.11564569986E+03 0.  0.
         13    1    3    3    0    0  0.28153407008E+02 -0.41835106367E+02  0.13803935882E+03  0.14696140661E+03  0.00000000000E+00 0. -1.
        -14    1    3    3    0    0 -0.20014432514E+02  0.49756361012E+01  0.23947222771E+03  0.24035865349E+03  0.00000000000E+00 0.  1.
        -13    1    4    4    0    0  0.28155459892E+02  0.66727320409E+02 -0.47254113705E+02  0.86476681670E+02  0.00000000000E+00 0.  1.
         13    1    4    4    0    0  0.54480725126E+02 -0.44179085511E+02 -0.70804588303E+02  0.99665594523E+02  0.00000000000E+00 0. -1.
          2    1    1    2  501    0 -0.90775159512E+02  0.14311235368E+02 -0.16745835008E+03  0.19101633452E+03  0.00000000000E+00 0. -1.
<scales pt_clust_5="13000.00000" pt_clust_6="13000.00000" pt_clust_7="13000.00000" pt_clust_8="13000.00000" pt_clust_9="88.81465"></scales>
<clustering>
<clus scale="   77.955">  5  6 -1 -1</clus>
<clus scale="   86.613">  1  5  2 -1</clus>
<clus scale="   88.815">  2  9  1 -1</clus>
<clus scale="  115.646">  7  8 -1 -1</clus>
<clus scale="   88.815">  2  5  1 -1</clus>
</clustering>
</event>
<event>
 9    1  0.7586638E-005  0.1750935E+03  0.7546771E-02  0.1184761E+00
         21   -1    0    0  501  502  0.00000000000E+00  0.00000000000E+00  0.15238964244E+03  0.15238964244E+03  0.00000000000E+00 0.  1.
          3   -1    0    0  502    0 -0.00000000000E+00 -0.00000000000E+00 -0.50992600801E+03  0.50992600801E+03  0.00000000000E+00 0. -1.
         23    2    1    2    0    0  0.64695691438E+02 -0.72830780770E+02 -0.19116404811E+03  0.23301926464E+03  0.90908906527E+02 0.  0.
        -24    2    1    2    0    0  0.86756894411E+02  0.13464824183E+03  0.20799106031E+02  0.18071556188E+03  0.81046923079E+02 0.  0.
         11    1    4    4    0    0  0.52096836060E+02  0.42766241239E+02 -0.25605114199E+02  0.72101689234E+02  0.00000000000E+00 0. -1.
        -12    1    4    4    0    0  0.34660058350E+02  0.91882000587E+02  0.46404220231E+02  0.10861387265E+03  0.00000000000E+00 0.  1.
        -13    1    3    3    0    0  0.46452033346E+01 -0.39902667403E+02 -0.13124344241E+02  0.42261675211E+02  0.00000000000E+00 0.  1.
         13    1    3    3    0    0  0.60050488104E+02 -0.32928113367E+02 -0.17803970387E+03  0.19075758943E+03  0.00000000000E+00 0. -1.
          4    1    1    2  501    0 -0.15145258585E+03 -0.61817461056E+02 -0.18717142350E+03  0.24858082393E+03  0.00000000000E+00 0. -1.
<scales pt_clust_5="13000.00000" pt_clust_6="13000.00000" pt_clust_7="13000.00000" pt_clust_8="13000.00000" pt_clust_9="155.20681"></scales>
<clustering>
<clus scale="   81.047">  5  6 -1 -1</clus>
<clus scale="   90.909">  7  8 -1 -1</clus>
<clus scale="  133.245">  2  7  1 -1</clus>
<clus scale="  155.207">  1  9  2 -1</clus>
<clus scale="  155.207">  1  5  2 -1</clus>
</clustering>
</event>
<event>
 9    1  0.7586638E-005  0.1443911E+03  0.7546771E-02  0.1209849E+00
          3   -1    0    0  502    0 -0.00000000000E+00  0.00000000000E+00  0.33340853920E+03  0.33340853920E+03  0.00000000000E+00 0. -1.
         21   -1    0    0  501  502  0.00000000000E+00 -0.00000000000E+00 -0.10798400879E+03  0.10798400879E+03  0.00000000000E+00 0. -1.
        -24    2    1    2    0    0 -0.10925231496E+03 -0.99697747074E+01  0.12933808693E+03  0.18655915042E+03  0.77720725294E+02 0.  0.
         23    2    1    2    0    0  0.10939561191E+03  0.54229674478E+02  0.12963995007E+03  0.19929244812E+03  0.89457843283E+02 0.  0.
         11    1    3    3    0    0 -0.47352505556E+02  0.60691730650E+01  0.10974779253E+03  0.11968154665E+03  0.00000000000E+00 0. -1.
        -12    1    3    3    0    0 -0.61899809408E+02 -0.16038947772E+02  0.19590294401E+02  0.66877603763E+02  0.00000000000E+00 0.  1.
        -13    1    4    4    0    0  0.41194686395E+02 -0.23431640094E+02  0.32617867636E+02  0.57532332073E+02  0.00000000000E+00 0.  1.
         13    1    4    4    0    0  0.68200925517E+02  0.77661314572E+02  0.97022082431E+02  0.14176011605E+03  0.00000000000E+00 0. -1.
          4    1    1    2  501    0 -0.14329694868E+00 -0.44259899771E+02 -0.33553506583E+02  0.55540949450E+02  0.00000000000E+00 0. -1.
<scales pt_clust_5="13000.00000" pt_clust_6="13000.00000" pt_clust_7="13000.00000" pt_clust_8="13000.00000" pt_clust_9="44.26013"></scales>
<clustering>
<clus scale="   44.260">  2  9  1 -1</clus>
<clus scale="   77.721">  5  6 -1 -1</clus>
<clus scale="   89.458">  7  8 -1 -1</clus>
<clus scale="  137.428">  1  5  2 -1</clus>
<clus scale="   44.260">  2  5  1 -1</clus>
</clustering>
</event>
<event>
 9    1  0.7586638E-005  0.1147053E+03  0.7546771E-02  0.1256048E+00
         21   -1    0    0  501  502  0.00000000000E+00  0.00000000000E+00  0.69945917428E+02  0.69945917428E+02  0.00000000000E+00 0. -1.
          3   -1    0    0  502    0 -0.00000000000E+00 -0.00000000000E+00 -0.29121623288E+03  0.29121623288E+03  0.00000000000E+00 0. -1.
         23    2    1    2    0    0  0.79618421312E+02 -0.90358436506E+01 -0.19168991737E+03  0.22709244161E+03  0.91679949466E+02 0.  0.
        -24    2    1    2    0    0 -0.47838932707E+02  0.97978556562E+01 -0.37316413042E+02  0.10135331394E+03  0.80594156774E+02 0.  0.
         11    1    4    4    0    0  0.13334146643E+02  0.25694528392E+02 -0.21890484270E+02  0.36293271519E+02  0.00000000000E+00 0. -1.
        -12    1    4    4    0    0 -0.61173079350E+02 -0.15896672736E+02 -0.15425928772E+02  0.65060042420E+02  0.00000000000E+00 0.  1.
        -13    1    3    3    0    0 -0.18073716354E+02  0.10471005032E+02 -0.46904252228E+02  0.51345009946E+02  0.00000000000E+00 0.  1.
         13    1    3    3    0    0  0.97692137666E+02 -0.19506848683E+02 -0.14478566514E+03  0.17574743167E+03  0.00000000000E+00 0. -1.
          4    1    1    2  501    0 -0.31779488605E+02 -0.76201200563E+00  0.77360149607E+01  0.32716394755E+02  0.00000000000E+00 0. -1.
<scales pt_clust_5="13000.00000" pt_clust_6="13000.00000" pt_clust_7="13000.00000" pt_clust_8="13000.00000" pt_clust_9="31.78862"></scales>
<clustering>
<clus scale="   31.789">  1  9  2 -1</clus>
<clus scale="   80.594">  5  6 -1 -1</clus>
<clus scale="   91.680">  7  8 -1 -1</clus>
<clus scale="  106.054">  1  5  2 -1</clus>
<clus scale="   31.789">  1  5  2 -1</clus>
</clustering>
</event>
<event>
 9    1  0.7586638E-005  0.1533595E+03  0.7546771E-02  0.1198554E+00
          1   -1    0    0  502    0 -0.00000000000E+00  0.00000000000E+00  0.40782505529E+03  0.40782505529E+03  0.00000000000E+00 0. -1.
         21   -1    0    0  501  502  0.00000000000E+00 -0.00000000000E+00 -0.15154819131E+03  0.15154819131E+03  0.00000000000E+00 0.  1.
         23    2    1    2    0    0  0.13425681286E+03  0.12056795464E+02  0.19458526571E+03  0.25416775104E+03  0.92561125343E+02 0.  0.
        -24    2    1    2    0    0 -0.64555928767E+02 -0.95282628830E+02 -0.50402615844E+02  0.14916106143E+03  0.80388750876E+02 0.  0.
         13    1    4    4    0    0 -0.18255625978E+02 -0.50472640737E+02  0.16622595613E+02  0.56187774718E+02  0.00000000000E+00 0. -1.
        -14    1    4    4    0    0 -0.46300302790E+02 -0.44809988093E+02 -0.67025211457E+02  0.92973286713E+02  0.00000000000E+00 0.  1.
        -11    1    3    3    0    0  0.10163907326E+03 -0.33846910077E+02  0.12377805695E+03  0.16369826486E+03  0.00000000000E+00 0. -1.
         11    1    3    3    0    0  0.32617739598E+02  0.45903705540E+02  0.70807208754E+02  0.90469486184E+02  0.00000000000E+00 0.  1.
          2    1    1    2  501    0 -0.69700884095E+02  0.83225833367E+02  0.11209421412E+03  0.15604443413E+03  0.00000000000E+00 0. -1.
<scales pt_clust_5="13000.00000" pt_clust_6="13000.00000" pt_clust_7="13000.00000" pt_clust_8="13000.00000" pt_clust_9="108.55765"></scales>
<clustering>
<clus scale="   80.389">  5  6 -1 -1</clus>
<clus scale="   92.561">  7  8 -1 -1</clus>
<clus scale="  108.558">  2  9  1 -1</clus>
<clus scale="  146.335">  2  5  1 -1</clus>
<clus scale="  108.558">  2  5  1 -1</clus>
</clustering>
</event>
<event>
 9    1  0.7586638E-005  0.8285585E+02  0.7546771E-02  0.1321437E+00
         21   -1    0    0  501  502  0.00000000000E+00  0.00000000000E+00  0.12395457631E+02  0.12395457631E+02  0.00000000000E+00 0.  1.
          1   -1    0    0  502    0 -0.00000000000E+00 -0.00000000000E+00 -0.10102566334E+04  0.10102566334E+04  0.00000000000E+00 0. -1.
        -24    2    1    2    0    0  0.16817899450E+02  0.29230423338E+01 -0.62733435892E+03  0.63272463409E+03  0.80626787025E+02 0.  0.
         23    2    1    2    0    0 -0.86967261352E+01 -0.25905003348E+02 -0.19810912337E+03  0.21579536624E+03  0.81078437840E+02 0.  0.
         13    1    3    3    0    0  0.11296525776E+02  0.32440270038E+02 -0.12928071092E+03  0.13376653106E+03  0.00000000000E+00 0. -1.
        -14    1    3    3    0    0  0.55213736733E+01 -0.29517227704E+02 -0.49805364799E+03  0.49895810303E+03  0.00000000000E+00 0.  1.
        -11    1    4    4    0    0 -0.31242214517E+02 -0.31516015819E+02 -0.18247011492E+03  0.18778891890E+03  0.00000000000E+00 0. -1.
         11    1    4    4    0    0  0.22545488382E+02  0.56110124706E+01 -0.15639008449E+02  0.28006447340E+02  0.00000000000E+00 0.  1.
          2    1    1    2  501    0 -0.81211733143E+01  0.22981961014E+02 -0.17241769344E+03  0.17413209066E+03  0.00000000000E+00 0. -1.
<scales pt_clust_5="13000.00000" pt_clust_6="13000.00000" pt_clust_7="13000.00000" pt_clust_8="13000.00000" pt_clust_9="24.37467"></scales>
<clustering>
<clus scale="   24.375">  1  9  2 -1</clus>
<clus scale="   80.627">  5  6 -1 -1</clus>
<clus scale="   81.078">  7  8 -1 -1</clus>
<clus scale="   82.414">  2  5  1 -1</clus>
<clus scale="   24.375">  1  5  2 -1</clus>
</clustering>
</event>
<event>
 9    1  0.7586638E-005  0.1303199E+03  0.7546771E-02  0.1227065E+00
         21   -1    0    0  501  502  0.00000000000E+00  0.00000000000E+00  0.14996877590E+03  0.14996877590E+03  0.00000000000E+00 0. -1.
         -2   -1    0    0    0  501 -0.00000000000E+00 -0.00000000000E+00 -0.16405754312E+03  0.16405754312E+03  0.00000000000E+00 0.  1.
        -24    2    1    2    0    0  0.64516641715E+02  0.62072301401E+02 -0.23363822301E+02  0.12455242624E+03  0.83379080290E+02 0.  0.
         23    2    1    2    0    0 -0.83483524044E+02 -0.73539198806E+02 -0.31776538198E+02  0.14282128651E+03  0.83729677854E+02 0.  0.
         11    1    3    3    0    0  0.72487336276E+02  0.61673716903E+02  0.47850855895E+01  0.95294062360E+02  0.00000000000E+00 0. -1.
        -12    1    3    3    0    0 -0.79706945604E+01  0.39858449734E+00 -0.28148907891E+02  0.29258363878E+02  0.00000000000E+00 0.  1.
        -13    1    4    4    0    0 -0.68866320812E+02 -0.57788483319E+02 -0.59453950525E+02  0.10778149739E+03  0.00000000000E+00 0.  1.
         13    1    4    4    0    0 -0.14617203232E+02 -0.15750715487E+02  0.27677412327E+02  0.35039789123E+02  0.00000000000E+00 0. -1.
         -1    1    1    2    0  502  0.18966882329E+02  0.11466897406E+02  0.41051593277E+02  0.46652606272E+02  0.00000000000E+00 0.  1.
<scales pt_clust_5="13000.00000" pt_clust_6="13000.00000" pt_clust_7="13000.00000" pt_clust_8="13000.00000" pt_clust_9="22.16376"></scales>
<clustering>
<clus scale="   22.164">  1  9  2 -1</clus>
<clus scale="   83.379">  5  6 -1 -1</clus>
<clus scale="   83.730">  7  8 -1 -1</clus>
<clus scale="  130.095">  2  5  1 -1</clus>
<clus scale="   22.164">  1  5  2 -1</clus>
</clustering>
</event>
<event>
 9    1  0.7586638E-005  0.1343647E+03  0.7546771E-02  0.1236796E+00
         21   -1    0    0  501  502  0.00000000000E+00  0.00000000000E+00  0.84000620572E+02  0.84000620572E+02  0.00000000000E+00 0. -1.
         -2   -1    0    0    0  501 -0.00000000000E+00 -0.00000000000E+00 -0.36505926222E+03  0.36505926222E+03  0.00000000000E+00 0.  1.
         23    2    1    2    0    0 -0.27689778100E+02 -0.32367671163E+02 -0.11270557225E+03  0.14879867396E+03  0.87316146318E+02 0.  0.
        -24    2    1    2    0    0 -0.46203435178E+02  0.10935200737E+03 -0.10174091402E+03  0.17446782970E+03  0.77428619226E+02 0.  0.
         13    1    4    4    0    0 -0.48095559477E+00  0.92252284708E+02 -0.58369164871E+02  0.10916810322E+03  0.00000000000E+00 0. -1.
        -14    1    4    4    0    0 -0.45722479583E+02  0.17099722667E+02 -0.43371749153E+02  0.65299726485E+02  0.00000000000E+00 0.  1.
        -13    1    3    3    0    0  0.74173327813E+01  0.20778050914E+02 -0.66625856773E+02  0.70183680554E+02  0.00000000000E+00 0.  1.
         13    1    3    3    0    0 -0.35107110881E+02 -0.53145722077E+02 -0.46079715477E+02  0.78614993404E+02  0.00000000000E+00 0. -1.
         -1    1    1    2    0  502  0.73893213277E+02 -0.76984336212E+02 -0.66612155381E+02  0.12579337914E+03  0.00000000000E+00 0.  1.
<scales pt_clust_5="13000.00000" pt_clust_6="13000.00000" pt_clust_7="13000.00000" pt_clust_8="13000.00000" pt_clust_9="109.81198"></scales>
<clustering>
<clus scale="   77.429">  5  6 -1 -1</clus>
<clus scale="   87.316">  7  8 -1 -1</clus>
<clus scale="   97.152">  2  7  1 -1</clus>
<clus scale="  109.812">  1  9  2 -1</clus>
<clus scale="  109.812">  1  5  2 -1</clus>
</clustering>
</event>
<event>
 9    1  0.7586638E-005  0.2828002E+03  0.7546771E-02  0.1120921E+00
         21   -1    0    0  501  502  0.00000000000E+00  0.00000000000E+00  0.13786430444E+03  0.13786430444E+03  0.00000000000E+00 0.  1.
         -2   -1    0    0    0  501 -0.00000000000E+00 -0.00000000000E+00 -0.92808616749E+03  0.92808616749E+03  0.00000000000E+00 0.  1.
         23    2    1    2    0    0  0.10866840664E+03  0.87454969419E+01 -0.16330431094E+03  0.21680975151E+03  0.91939458651E+02 0.  0.
        -24    2    1    2    0    0 -0.24776943593E+03 -0.20571892057E+03 -0.37399690942E+03  0.49968903926E+03  0.78137571264E+02 0.  0.
         11    1    4    4    0    0 -0.36192435664E+02 -0.33753152153E+02 -0.21257069500E+02  0.53861216875E+02  0.00000000000E+00 0. -1.
        -12    1    4    4    0    0 -0.21157700027E+03 -0.17196576841E+03 -0.35273983992E+03  0.44582782239E+03  0.00000000000E+00 0.  1.
        -11    1    3    3    0    0  0.33070280265E+02 -0.13027573293E+02 -0.28461151179E-03  0.35543791340E+02  0.00000000000E+00 0.  1.
         11    1    3    3    0    0  0.75598126379E+02  0.21773070235E+02 -0.16330402633E+03  0.18126596017E+03  0.00000000000E+00 0. -1.
         -1    1    1    2    0  502  0.13910102929E+03  0.19697342362E+03 -0.25292064269E+03  0.34945168115E+03  0.00000000000E+00 0.  1.
<scales pt_clust_5="13000.00000" pt_clust_6="13000.00000" pt_clust_7="13000.00000" pt_clust_8="13000.00000" pt_clust_9="271.79121"></scales>
<clustering>
<clus scale="   78.138">  5  6 -1 -1</clus>
<clus scale="   91.939">  7  8 -1 -1</clus>
<clus scale="  142.612">  2  7  1 -1</clus>
<clus scale="  271.791">  1  9  2 -1</clus>
<clus scale="  271.791">  1  5  2 -1</clus>
</clustering>
</event>
<event>
 9    1  0.7586638E-005  0.9909982E+02  0.7546771E-02  0.1288953E+00
         21   -1    0    0  501  502  0.00000000000E+00  0.00000000000E+00  0.12585907710E+03  0.12585907710E+03  0.00000000000E+00 0.  1.
          1   -1    0    0  502    0 -0.00000000000E+00 -0.00000000000E+00 -0.51514196931E+03  0.51514196931E+03  0.00000000000E+00 0. -1.
        -24    2    1    2    0    0 -0.21618951884E+02 -0.28076405081E+02 -0.43102490143E+03  0.44001372240E+03  0.81079878175E+02 0.  0.
         23    2    1    2    0    0  0.80094975276E+01 -0.48302793949E+02  0.59601884110E+02  0.12137592770E+03  0.93714562798E+02 0.  0.
         11    1    3    3    0    0 -0.26979806472E+02  0.23192548310E+02 -0.21498528093E+03  0.21790932810E+03  0.00000000000E+00 0. -1.
        -12    1    3    3    0    0  0.53608545880E+01 -0.51268953391E+02 -0.21603962050E+03  0.22210439430E+03  0.00000000000E+00 0.  1.
        -13    1    4    4    0    0  0.16973178967E+02 -0.75344401116E+02  0.42687733068E+02  0.88244604018E+02  0.00000000000E+00 0.  1.
         13    1    4    4    0    0 -0.89636814395E+01  0.27041607167E+02  0.16914151042E+02  0.33131323677E+02  0.00000000000E+00 0. -1.
          2    1    1    2  501    0  0.13609454357E+02  0.76379199031E+02 -0.17859874893E+02  0.79611396318E+02  0.00000000000E+00 0. -1.
<scales pt_clust_5="13000.00000" pt_clust_6="13000.00000" pt_clust_7="13000.00000" pt_clust_8="13000.00000" pt_clust_9="77.58221"></scales>
<clustering>
<clus scale="   77.582">  1  9  2 -1</clus>
<clus scale="   81.080">  5  6 -1 -1</clus>
<clus scale="   87.248">  2  5  1 -1</clus>
<clus scale="   93.715">  7  8 -1 -1</clus>
<clus scale="   77.582">  1  5  2 -1</clus>
</clustering>
</event>
<event>
 9    1  0.7586638E-005  0.1058258E+03  0.7546771E-02  0.1272565E+00
         21   -1    0    0  501  502  0.00000000000E+00  0.00000000000E+00  0.41626396522E+02  0.41626396522E+02  0.00000000000E+00 0. -1.
          1   -1    0    0  502    0 -0.00000000000E+00 -0.00000000000E+00 -0.33266898984E+03  0.33266898984E+03  0.00000000000E+00 0. -1.
        -24    2    1    2    0    0 -0.15675759251E+02 -0.61009863075E+02 -0.16040374205E+03  0.19092849059E+03  0.82197294577E+02 0.  0.
         23    2    1    2    0    0 -0.40036554809E+01  0.41647912057E+02 -0.10821171786E+03  0.14779807762E+03  0.91563737531E+02 0.  0.
         11    1    3    3    0    0 -0.17496821385E+02 -0.34087013295E+02 -0.15938412254E+03  0.16392486618E+03  0.00000000000E+00 0. -1.
        -12    1    3    3    0    0  0.18210621333E+01 -0.26922849780E+02 -0.10196195103E+01  0.27003624414E+02  0.00000000000E+00 0.  1.
        -11    1    4    4    0    0 -0.12918706544E+02 -0.26070230356E+02 -0.16506098924E+02  0.33451475173E+02  0.00000000000E+00 0. -1.
         11    1    4    4    0    0  0.89150510629E+01  0.67718142412E+02 -0.91705618937E+02  0.11434660245E+03  0.00000000000E+00 0.  1.
          2    1    1    2  501    0  0.19679414732E+02  0.19361951018E+02 -0.22427133407E+02  0.35568818146E+02  0.00000000000E+00 0. -1.
<scales pt_clust_5="13000.00000" pt_clust_6="13000.00000" pt_clust_7="13000.00000" pt_clust_8="13000.00000" pt_clust_9="27.60733"></scales>
<clustering>
<clus scale="   27.607">  1  9  2 -1</clus>
<clus scale="   82.197">  5  6 -1 -1</clus>
<clus scale="   91.564">  7  8 -1 -1</clus>
<clus scale="   97.834">  2  5  1 -1</clus>
<clus scale="   27.607">  1  5  2 -1</clus>
</clustering>
</event>
<event>
 9    1  0.7586638E-005  0.1038713E+03  0.7546771E-02  0.1273422E+00
         -4   -1    0    0    0  501 -0.00000000000E+00  0.00000000000E+00  0.10371140549E+03  0.10371140549E+03  0.00000000000E+00 0.  1.
         21   -1    0    0  501  502  0.00000000000E+00 -0.00000000000E+00 -0.19268946227E+03  0.19268946227E+03  0.00000000000E+00 0. -1.
        -24    2    1    2    0    0 -0.35580231816E+02  0.49158986953E+02 -0.79708027438E-01  0.10181826392E+03  0.81758140996E+02 0.  0.
         23    2    1    2    0    0 -0.14778481904E+02 -0.72848079272E+02 -0.36683266370E+02  0.11827016731E+03  0.84361864976E+02 0.  0.
         11    1    3    3    0    0 -0.57465048389E+02  0.53906750695E+02 -0.47785469116E+01  0.78936709251E+02  0.00000000000E+00 0. -1.
        -12    1    3    3    0    0  0.21884816573E+02 -0.47477637420E+01  0.46988388842E+01  0.22881554664E+02  0.00000000000E+00 0.  1.
        -11    1    4    4    0    0 -0.32508241197E+02 -0.88879793504E+01  0.12197741526E+02  0.35840854077E+02  0.00000000000E+00 0.  1.
         11    1    4    4    0    0  0.17729759293E+02 -0.63960099922E+02 -0.48881007896E+02  0.82429313230E+02  0.00000000000E+00 0. -1.
         -3    1    1    2    0  502  0.50358713720E+02  0.23689092319E+02 -0.52215082377E+02  0.76312436536E+02  0.00000000000E+00 0.  1.
<scales pt_clust_5="13000.00000" pt_clust_6="13000.00000" pt_clust_7="13000.00000" pt_clust_8="13000.00000" pt_clust_9="55.65225"></scales>
<clustering>
<clus scale="   55.652">  2  9  1 -1</clus>
<clus scale="   81.758">  5  6 -1 -1</clus>
<clus scale="   84.362">  7  8 -1 -1</clus>
<clus scale="  101.768">  1  5  2 -1</clus>
<clus scale="   55.652">  2  5  1 -1</clus>
</clustering>
</event>
<event>
 9    1  0.7586638E-005  0.1286931E+03  0.7546771E-02  0.1232769E+00
          3   -1    0    0  502    0 -0.00000000000E+00  0.00000000000E+00  0.49015806853E+03  0.49015806853E+03  0.00000000000E+00 0. -1.
         21   -1    0    0  501  502  0.00000000000E+00 -0.00000000000E+00 -0.80159449830E+02  0.80159449830E+02  0.00000000000E+00 0.  1.
        -24    2    1    2    0    0  0.58778129807E+02 -0.74490046119E+02  0.37228801339E+03  0.39243455467E+03  0.80017993418E+02 0.  0.
         23    2    1    2    0    0 -0.48815174499E+02  0.53118455953E+02  0.71006132299E+02  0.13708348498E+03  0.92441978585E+02 0.  0.
         13    1    3    3    0    0  0.35473340555E+02  0.38061223758E+01  0.61594202574E+02  0.71180687328E+02  0.00000000000E+00 0. -1.
        -14    1    3    3    0    0  0.23304789252E+02 -0.78296168495E+02  0.31069381082E+03  0.32125386735E+03  0.00000000000E+00 0.  1.
        -13    1    4    4    0    0 -0.94788387615E+01 -0.26603023791E+02  0.14491349935E+02  0.31742219236E+02  0.00000000000E+00 0.  1.
         13    1    4    4    0    0 -0.39336335738E+02  0.79721479744E+02  0.56514782363E+02  0.10534126574E+03  0.00000000000E+00 0. -1.
          4    1    1    2  501    0 -0.99629553079E+01  0.21371590166E+02 -0.33295526998E+02  0.40799478706E+02  0.00000000000E+00 0. -1.
<scales pt_clust_5="13000.00000" pt_clust_6="13000.00000" pt_clust_7="13000.00000" pt_clust_8="13000.00000" pt_clust_9="23.57977"></scales>
<clustering>
<clus scale="   23.580">  2  9  1 -1</clus>
<clus scale="   80.018">  5  6 -1 -1</clus>
<clus scale="   92.442">  7  8 -1 -1</clus>
<clus scale="  120.080">  1  5  2 -1</clus>
<clus scale="   23.580">  2  5  1 -1</clus>
</clustering>
</event>
<event>
 9    1  0.7586638E-005  0.9249322E+02  0.7546771E-02  0.1303522E+00
         21   -1    0    0  501  502  0.00000000000E+00  0.00000000000E+00  0.33839857107E+02  0.33839857107E+02  0.00000000000E+00 0. -1.
         -2   -1    0    0    0  501 -0.00000000000E+00 -0.00000000000E+00 -0.58380365017E+03  0.58380365017E+03  0.00000000000E+00 0.  1.
        -24    2    1    2    0    0 -0.24558996494E+01 -0.15059854541E+02 -0.30962915941E+03  0.32000512047E+03  0.79373988892E+02 0.  0.
         23    2    1    2    0    0  0.25622621044E+01  0.46218933812E+02 -0.67100369591E+02  0.12162415505E+03  0.90261954677E+02 0.  0.
         13    1    3    3    0    0 -0.38349766759E+02  0.30265911523E+01 -0.11482302986E+03  0.12109580113E+03  0.00000000000E+00 0. -1.
        -14    1    3    3    0    0  0.35893867110E+02 -0.18086445694E+02 -0.19480612954E+03  0.19890931934E+03  0.00000000000E+00 0.  1.
        -13    1    4    4    0    0  0.33216292303E+02  0.84186461805E+01 -0.64318620143E+02  0.72877160860E+02  0.00000000000E+00 0.  1.
         13    1    4    4    0    0 -0.30654030198E+02  0.37800287632E+02 -0.27817494480E+01  0.48746994189E+02  0.00000000000E+00 0. -1.
         -1    1    1    2    0  502 -0.10636245500E+00 -0.31159079271E+02 -0.17323426407E+03  0.17601423176E+03  0.00000000000E+00 0.  1.
<scales pt_clust_5="13000.00000" pt_clust_6="13000.00000" pt_clust_7="13000.00000" pt_clust_8="13000.00000" pt_clust_9="31.15928"></scales>
<clustering>
<clus scale="   31.159">  1  9  2 -1</clus>
<clus scale="   79.374">  5  6 -1 -1</clus>
<clus scale="   81.902">  2  5  1 -1</clus>
<clus scale="   90.262">  7  8 -1 -1</clus>
<clus scale="   31.159">  1  5  2 -1</clus>
</clustering>
</event>
<event>
 9    1  0.7586638E-005  0.1164407E+03  0.7546771E-02  0.1266196E+00
         21   -1    0    0  501  502  0.00000000000E+00  0.00000000000E+00  0.40975697217E+02  0.40975697217E+02  0.00000000000E+00 0.  1.
          1   -1    0    0  502    0 -0.00000000000E+00 -0.00000000000E+00 -0.68613956077E+03  0.68613956077E+03  0.00000000000E+00 0. -1.
        -24    2    1    2    0    0  0.24439793903E+02  0.35556125223E+01 -0.41228408967E+03  0.42057147314E+03  0.79323688250E+02 0.  0.
         23    2    1    2    0    0  0.42381812397E+02 -0.53311399721E+02 -0.10391950977E+03  0.15301360818E+03  0.89306082740E+02 0.  0.
         11    1    3    3    0    0  0.34927563168E+02  0.32824404121E+02 -0.18231972436E+03  0.18851487492E+03  0.00000000000E+00 0. -1.
        -12    1    3    3    0    0 -0.10487769264E+02 -0.29268791599E+02 -0.22996436530E+03  0.23205659822E+03  0.00000000000E+00 0.  1.
        -11    1    4    4    0    0  0.11529220785E+02 -0.66117142676E+02 -0.33365092090E+02  0.74950842942E+02  0.00000000000E+00 0.  1.
         11    1    4    4    0    0  0.30852591613E+02  0.12805742956E+02 -0.70554417682E+02  0.78062765236E+02  0.00000000000E+00 0. -1.
          2    1    1    2  501    0 -0.66821606300E+02  0.49755787198E+02 -0.12896026411E+03  0.15353017667E+03  0.00000000000E+00 0. -1.
<scales pt_clust_5="13000.00000" pt_clust_6="13000.00000" pt_clust_7="13000.00000" pt_clust_8="13000.00000" pt_clust_9="74.71855"></scales>
<clustering>
<clus scale="   79.324">  5  6 -1 -1</clus>
<clus scale="   83.079">  2  5  1 -1</clus>
<clus scale="   74.719">  1  9  2 -1</clus>
<clus scale="   89.306">  7  8 -1 -1</clus>
<clus scale="   74.719">  1  5  2 -1</clus>
</clustering>
</event>
<event>
 9    1  0.7586638E-005  0.1436171E+03  0.7546771E-02  0.1211429E+00
         21   -1    0    0  501  502  0.00000000000E+00  0.00000000000E+00  0.36935487864E+03  0.36935487864E+03  0.00000000000E+00 0. -1.
         -2   -1    0    0    0  501 -0.00000000000E+00 -0.00000000000E+00 -0.73412751093E+02  0.73412751093E+02  0.00000000000E+00 0.  1.
        -24    2    1    2    0    0 -0.42324077659E+01 -0.10496541965E+03  0.91704212269E+02  0.16118277312E+03  0.80836694678E+02 0.  0.
         23    2    1    2    0    0  0.23071531051E+02  0.11258409295E+03  0.21270360230E+03  0.25957066561E+03  0.94480868341E+02 0.  0.
         13    1    3    3    0    0 -0.38924983666E+02 -0.63253560318E+02  0.72056842964E+02  0.10348118604E+03  0.00000000000E+00 0. -1.
        -14    1    3    3    0    0  0.34692575900E+02 -0.41711859331E+02  0.19647369304E+02  0.57701587084E+02  0.00000000000E+00 0.  1.
        -11    1    4    4    0    0  0.24138325382E+01  0.11370857539E+03  0.12305088302E+03  0.16756188862E+03  0.00000000000E+00 0.  1.
         11    1    4    4    0    0  0.20657698513E+02 -0.11244824463E+01  0.89652719280E+02  0.92008776988E+02  0.00000000000E+00 0. -1.
         -1    1    1    2    0  502 -0.18839123285E+02 -0.76186732963E+01 -0.84656870190E+01  0.22014191006E+02  0.00000000000E+00 0.  1.
<scales pt_clust_5="13000.00000" pt_clust_6="13000.00000" pt_clust_7="13000.00000" pt_clust_8="13000.00000" pt_clust_9="20.32135"></scales>
<clustering>
<clus scale="   20.321">  1  9  2 -1</clus>
<clus scale="   80.837">  5  6 -1 -1</clus>
<clus scale="   94.481">  7  8 -1 -1</clus>
<clus scale="  135.033">  2  5  1 -1</clus>
<clus scale="   20.321">  1  5  2 -1</clus>
</clustering>
</event>
<event>
 9    1  0.7586638E-005  0.1436691E+03  0.7546771E-02  0.1208511E+00
         -4   -1    0    0    0  501 -0.00000000000E+00  0.00000000000E+00  0.15696971919E+03  0.15696971919E+03  0.00000000000E+00 0.  1.
         21   -1    0    0  501  502  0.00000000000E+00 -0.00000000000E+00 -0.20348969789E+03  0.20348969789E+03  0.00000000000E+00 0.  1.
         23    2    1    2    0    0  0.90489925022E+02  0.86961422232E+02  0.60978104298E+02  0.16166392323E+03  0.81646674041E+02 0.  0.
        -24    2    1    2    0    0 -0.62113497967E+02 -0.76667399931E+02 -0.10968790235E+03  0.16853026932E+03  0.81455748198E+02 0.  0.
         13    1    4    4    0    0  0.14609024585E+01 -0.29952133972E+02  0.38919672527E+01  0.30239245602E+02  0.00000000000E+00 0. -1.
        -14    1    4    4    0    0 -0.63574400425E+02 -0.46715265959E+02 -0.11357986960E+03  0.13829102372E+03  0.00000000000E+00 0.  1.
        -13    1    3    3    0    0  0.92150554729E+02  0.48551740920E+02  0.65363528415E+02  0.12296904948E+03  0.00000000000E+00 0.  1.
         13    1    3    3    0    0 -0.16606297068E+01  0.38409681312E+02 -0.43854241172E+01  0.38694873746E+02  0.00000000000E+00 0. -1.
         -3    1    1    2    0  502 -0.28376427055E+02 -0.10294022301E+02  0.21898193521E+01  0.30265224538E+02  0.00000000000E+00 0.  1.
<scales pt_clust_5="13000.00000" pt_clust_6="13000.00000" pt_clust_7="13000.00000" pt_clust_8="13000.00000" pt_clust_9="30.18591"></scales>
<clustering>
<clus scale="   30.186">  2  9  1 -1</clus>
<clus scale="   81.456">  5  6 -1 -1</clus>
<clus scale="   81.647">  7  8 -1 -1</clus>
<clus scale="  143.561">  2  5  1 -1</clus>
<clus scale="   30.186">  2  5  1 -1</clus>
</clustering>
</event>
<event>
 9    1  0.7586638E-005  0.1506471E+03  0.7546771E-02  0.1229349E+00
         -4   -1    0    0    0  501 -0.00000000000E+00  0.00000000000E+00  0.49906358626E+02  0.49906358626E+02  0.00000000000E+00 0.  1.
         21   -1    0    0  501  502  0.00000000000E+00 -0.00000000000E+00 -0.10180566901E+04  0.10180566901E+04  0.00000000000E+00 0.  1.
        -24    2    1    2    0    0 -0.10034392620E+02  0.58137755627E+00 -0.22353182822E+02  0.83379853623E+02  0.79696349809E+02 0.  0.
         23    2    1    2    0    0 -0.94061013779E+02 -0.54910314802E+02 -0.64339947615E+03  0.66018862149E+03  0.10011749619E+03 0.  0.
         13    1    3    3    0    0  0.14945546644E+02 -0.16786497849E+02  0.20770874124E+02  0.30603677661E+02  0.00000000000E+00 0. -1.
        -14    1    3    3    0    0 -0.24979939264E+02  0.17367875405E+02 -0.43124056946E+02  0.52776175962E+02  0.00000000000E+00 0.  1.
        -13    1    4    4    0    0 -0.60195908216E+02 -0.77871369347E+02 -0.54166668218E+03  0.55053636766E+03  0.00000000000E+00 0.  1.
         13    1    4    4    0    0 -0.33865105563E+02  0.22961054545E+02 -0.10173279397E+03  0.10965225383E+03  0.00000000000E+00 0. -1.
         -3    1    1    2    0  502  0.10409540640E+03  0.54328937246E+02 -0.30239767246E+03  0.32439457357E+03  0.00000000000E+00 0.  1.
<scales pt_clust_5="13000.00000" pt_clust_6="13000.00000" pt_clust_7="13000.00000" pt_clust_8="13000.00000" pt_clust_9="112.56571"></scales>
<clustering>
<clus scale="   79.696">  5  6 -1 -1</clus>
<clus scale="   80.328">  1  5  2 -1</clus>
<clus scale="  100.117">  7  8 -1 -1</clus>
<clus scale="  112.566">  2  9  1 -1</clus>
<clus scale="  112.566">  2  5  1 -1</clus>
</clustering>
</event>
<event>
 9    1  0.7586638E-005  0.1087080E+03  0.7546771E-02  0.1263573E+00
         21   -1    0    0  501  502  0.00000000000E+00  0.00000000000E+00  0.65686737622E+02  0.65686737622E+02  0.00000000000E+00 0.  1.
          3   -1    0    0  502    0 -0.00000000000E+00 -0.00000000000E+00 -0.79206512292E+03  0.79206512292E+03  0.00000000000E+00 0. -1.
         23    2    1    2    0    0 -0.68769976773E+02 -0.31570911310E+02 -0.55762111337E+03  0.56905884473E+03  0.84620508992E+02 0.  0.
        -24    2    1    2    0    0 -0.23617290432E+02  0.90047213311E+02 -0.11029035399E+03  0.16470404239E+03  0.79354787907E+02 0.  0.
         11    1    4    4    0    0 -0.21974134726E+02  0.41636831792E+01 -0.62553634049E+02  0.66431588776E+02  0.00000000000E+00 0. -1.
        -12    1    4    4    0    0 -0.16431557062E+01  0.85883530132E+02 -0.47736719945E+02  0.98272453616E+02  0.00000000000E+00 0.  1.
        -13    1    3    3    0    0 -0.69583700901E+02 -0.55839588792E+02 -0.44249225043E+03  0.45139710101E+03  0.00000000000E+00 0.  1.
         13    1    3    3    0    0  0.81372412780E+00  0.24268677482E+02 -0.11512886294E+03  0.11766174372E+03  0.00000000000E+00 0. -1.
          4    1    1    2  501    0  0.92387267206E+02 -0.58476302002E+02 -0.58466917935E+02  0.12398897342E+03  0.00000000000E+00 0. -1.
<scales pt_clust_5="13000.00000" pt_clust_6="13000.00000" pt_clust_7="13000.00000" pt_clust_8="13000.00000" pt_clust_9="109.33840"></scales>
<clustering>
<clus scale="   79.355">  5  6 -1 -1</clus>
<clus scale="   84.621">  7  8 -1 -1</clus>
<clus scale="  109.338">  1  9  2 -1</clus>
<clus scale="  109.338">  1  5  2 -1</clus>
<clus scale="  108.708">  1  5  2 -1</clus>
</clustering>
</event>
<event>
 9    1  0.7586638E-005  0.1388574E+03  0.7546771E-02  0.1237342E+00
         21   -1    0    0  501  502  0.00000000000E+00  0.00000000000E+00  0.59305501336E+03  0.59305501336E+03  0.00000000000E+00 0.  1.
         -4   -1    0    0    0  501 -0.00000000000E+00 -0.00000000000E+00 -0.77238805963E+02  0.77238805963E+02  0.00000000000E+00 0.  1.
        -24    2    1    2    0    0  0.11354534394E+02 -0.32109829070E+02  0.53481168435E+02  0.10216440931E+03  0.80108455099E+02 0.  0.
         23    2    1    2    0    0 -0.97157757787E+02 -0.46063766960E+02  0.42393791325E+03  0.44586885413E+03  0.86684371568E+02 0.  0.
         13    1    3    3    0    0  0.27587286719E+02 -0.31605091176E+02  0.68315749940E+02  0.80168459300E+02  0.00000000000E+00 0. -1.
        -14    1    3    3    0    0 -0.16232752325E+02 -0.50473789351E+00 -0.14834581505E+02  0.21995950010E+02  0.00000000000E+00 0.  1.
        -11    1    4    4    0    0 -0.59024655568E+02 -0.67004834093E+02  0.33732675518E+03  0.34894540765E+03  0.00000000000E+00 0.  1.
         11    1    4    4    0    0 -0.38133102219E+02  0.20941067133E+02  0.86611158064E+02  0.96923446486E+02  0.00000000000E+00 0. -1.
         -3    1    1    2    0  502  0.85803223393E+02  0.78173596030E+02  0.38397125718E+02  0.12226055588E+03  0.00000000000E+00 0.  1.
<scales pt_clust_5="13000.00000" pt_clust_6="13000.00000" pt_clust_7="13000.00000" pt_clust_8="13000.00000" pt_clust_9="108.47679"></scales>
<clustering>
<clus scale="   80.108">  5  6 -1 -1</clus>
<clus scale="   86.684">  7  8 -1 -1</clus>
<clus scale="   87.048">  2  5  1 -1</clus>
<clus scale="  108.477">  1  9  2 -1</clus>
<clus scale="  108.477">  1  5  2 -1</clus>
</clustering>
</event>
<event>
 9    1  0.7586638E-005  0.9148189E+02  0.7546771E-02  0.1304762E+00
         21   -1    0    0  501  502  0.00000000000E+00  0.00000000000E+00  0.14156163549E+03  0.14156163549E+03  0.00000000000E+00 0.  1.
          3   -1    0    0  502    0 -0.00000000000E+00 -0.00000000000E+00 -0.35599112263E+03  0.35599112263E+03  0.00000000000E+00 0. -1.
        -24    2    1    2    0    0 -0.16067394491E+01  0.10662403473E+01 -0.30742632974E+03  0.31836719977E+03  0.82722470911E+02 0.  0.
         23    2    1    2    0    0 -0.36004518383E+02 -0.76172163549E+01  0.25806340393E+02  0.10190628824E+03  0.91458061698E+02 0.  0.
         13    1    3    3    0    0  0.20039303406E+02 -0.94410088300E+01 -0.19723993099E+02  0.29660448960E+02  0.00000000000E+00 0. -1.
        -14    1    3    3    0    0 -0.21646042855E+02  0.10507249177E+02 -0.28770233664E+03  0.28870675081E+03  0.00000000000E+00 0.  1.
        -11    1    4    4    0    0 -0.42975264865E+02  0.34477152402E+02  0.21026737576E+02  0.58971782414E+02  0.00000000000E+00 0.  1.
         11    1    4    4    0    0  0.69707464823E+01 -0.42094368757E+02  0.47796028169E+01  0.42934505827E+02  0.00000000000E+00 0. -1.
          4    1    1    2  501    0  0.37611257832E+02  0.65509760075E+01  0.67190502199E+02  0.77279270106E+02  0.00000000000E+00 0. -1.
<scales pt_clust_5="13000.00000" pt_clust_6="13000.00000" pt_clust_7="13000.00000" pt_clust_8="13000.00000" pt_clust_9="38.17751"></scales>
<clustering>
<clus scale="   38.178">  1  9  2 -1</clus>
<clus scale="   82.722">  5  6 -1 -1</clus>
<clus scale="   82.749">  2  5  1 -1</clus>
<clus scale="   91.458">  7  8 -1 -1</clus>
<clus scale="   38.178">  1  5  2 -1</clus>
</clustering>
</event>
<event>
 9    1  0.7586638E-005  0.1740791E+03  0.7546771E-02  0.1202069E+00
          1   -1    0    0  502    0 -0.00000000000E+00  0.00000000000E+00  0.12034188827E+03  0.12034188827E+03  0.00000000000E+00 0. -1.
         21   -1    0    0  501  502  0.00000000000E+00 -0.00000000000E+00 -0.49250740371E+03  0.49250740371E+03  0.00000000000E+00 0.  1.
        -24    2    1    2    0    0  0.48370418280E+02  0.11141886888E+02  0.41764570176E+01  0.92798247141E+02  0.78295803663E+02 0.  0.
         23    2    1    2    0    0 -0.16153710792E+03  0.11263185172E+02 -0.35708422536E+03  0.40309144617E+03  0.93554654605E+02 0.  0.
         11    1    3    3    0    0  0.48893590593E+01  0.38586625689E+02  0.12187448187E+02  0.40759874968E+02  0.00000000000E+00 0. -1.
        -12    1    3    3    0    0  0.43481059221E+02 -0.27444738802E+02 -0.80109911697E+01  0.52038372173E+02  0.00000000000E+00 0.  1.
        -11    1    4    4    0    0 -0.85470687722E+02 -0.23893531734E+01 -0.28448905967E+03  0.29706055366E+03  0.00000000000E+00 0.  1.
         11    1    4    4    0    0 -0.76066420199E+02  0.13652538345E+02 -0.72595165693E+02  0.10603089251E+03  0.00000000000E+00 0. -1.
          2    1    1    2  501    0  0.11316668964E+03 -0.22405072060E+02 -0.19257747089E+02  0.11695959867E+03  0.00000000000E+00 0. -1.
<scales pt_clust_5="13000.00000" pt_clust_6="13000.00000" pt_clust_7="13000.00000" pt_clust_8="13000.00000" pt_clust_9="146.80281"></scales>
<clustering>
<clus scale="   78.296">  5  6 -1 -1</clus>
<clus scale="   92.704">  1  5  2 -1</clus>
<clus scale="   93.555">  7  8 -1 -1</clus>
<clus scale="  146.803">  2  9  1 -1</clus>
<clus scale="  146.803">  2  5  1 -1</clus>
</clustering>
</event>
<event>
 9    1  0.7586638E-005  0.1833365E+03  0.7546771E-02  0.1179295E+00
          1   -1    0    0  502    0 -0.00000000000E+00  0.00000000000E+00  0.65833760571E+03  0.65833760571E+03  0.00000000000E+00 0. -1.
         21   -1    0    0  501  502  0.00000000000E+00 -0.00000000000E+00 -0.14552968470E+03  0.14552968470E+03  0.00000000000E+00 0. -1.
         23    2    1    2    0    0  0.17606895924E+02  0.92020454514E+02  0.29543789350E+03  0.32325398411E+03  0.91824955739E+02 0.  0.
        -24    2    1    2    0    0  0.13124822126E+03  0.66794476452E+02 -0.34974552432E+01  0.17051255953E+03  0.85876091525E+02 0.  0.
         13    1    4    4    0    0  0.13844530065E+03  0.42062043603E+02 -0.40038910288E+01  0.14474925882E+03  0.00000000000E+00 0. -1.
        -14    1    4    4    0    0 -0.71970793911E+01  0.24732432849E+02  0.50643578558E+00  0.25763300713E+02  0.00000000000E+00 0.  1.
        -13    1    3    3    0    0  0.39101746339E+02  0.95360297420E+02  0.27386966959E+03  0.29262113528E+03  0.00000000000E+00 0. -1.
         13    1    3    3    0    0 -0.21494850415E+02 -0.33398429054E+01  0.21568223903E+02  0.30632848828E+02  0.00000000000E+00 0.  1.
          2    1    1    2  501    0 -0.14885511719E+03 -0.15881493097E+03  0.22086748275E+03  0.31010074677E+03  0.00000000000E+00 0. -1.
<scales pt_clust_5="13000.00000" pt_clust_6="13000.00000" pt_clust_7="13000.00000" pt_clust_8="13000.00000" pt_clust_9="161.98020"></scales>
<clustering>
<clus scale="   85.876">  5  6 -1 -1</clus>
<clus scale="   91.825">  7  8 -1 -1</clus>
<clus scale="  131.185">  1  7  2 -1</clus>
<clus scale="  161.980">  2  9  1 -1</clus>
<clus scale="  161.980">  2  5  1 -1</clus>
</clustering>
</event>
<event>
 9    1  0.7586638E-005  0.1644003E+03  0.7546771E-02  0.1185887E+00
          1   -1    0    0  502    0 -0.00000000000E+00  0.00000000000E+00  0.33472111574E+03  0.33472111574E+03  0.00000000000E+00 0. -1.
         21   -1    0    0  501  502  0.00000000000E+00 -0.00000000000E+00 -0.21685501344E+03  0.21685501344E+03  0.00000000000E+00 0.  1.
         23    2    1    2    0    0  0.28348007282E+02 -0.99601135152E+02  0.46863282923E+02  0.14956049394E+03  0.97201740836E+02 0.  0.
        -24    2    1    2    0    0 -0.62638531712E+02  0.20485580586E+03 -0.52635891540E+02  0.23606107335E+03  0.84052402829E+02 0.  0.
         11    1    4    4    0    0 -0.92415660635E+01  0.66915859254E+02 -0.56547216003E+02  0.88094985105E+02  0.00000000000E+00 0. -1.
        -12    1    4    4    0    0 -0.53396965648E+02  0.13793994661E+03  0.39113244627E+01  0.14796608824E+03  0.00000000000E+00 0.  1.
        -13    1    3    3    0    0  0.45387904711E+02 -0.11133919380E+03  0.33094572246E+02  0.12470657033E+03  0.00000000000E+00 0.  1.
         13    1    3    3    0    0 -0.17039897429E+02  0.11738058651E+02  0.13768710677E+02  0.24853923614E+02  0.00000000000E+00 0. -1.
          2    1    1    2  501    0  0.34290524430E+02 -0.10525467071E+03  0.12363871092E+03  0.16595456188E+03  0.00000000000E+00 0. -1.
<scales pt_clust_5="13000.00000" pt_clust_6="13000.00000" pt_clust_7="13000.00000" pt_clust_8="13000.00000" pt_clust_9="110.69958"></scales>
<clustering>
<clus scale="   84.052">  5  6 -1 -1</clus>
<clus scale="   97.202">  7  8 -1 -1</clus>
<clus scale="  110.700">  2  9  1 -1</clus>
<clus scale="  156.984">  2  5  1 -1</clus>
<clus scale="  110.700">  2  5  1 -1</clus>
</clustering>
</event>
<event>
 9    1  0.7586638E-005  0.1422209E+03  0.7546771E-02  0.1212283E+00
         -2   -1    0    0    0  501 -0.00000000000E+00  0.00000000000E+00  0.10370803894E+03  0.10370803894E+03  0.00000000000E+00 0.  1.
         21   -1    0    0  501  502  0.00000000000E+00 -0.00000000000E+00 -0.58885165331E+03  0.58885165331E+03  0.00000000000E+00 0.  1.
        -24    2    1    2    0    0  0.21969773752E+02  0.12040721248E+03 -0.45547879442E+02  0.15393655760E+03  0.81494089771E+02 0.  0.
         23    2    1    2    0    0 -0.65598925048E+02 -0.39248468663E+02 -0.42991213469E+03  0.44597316620E+03  0.90686052700E+02 0.  0.
         13    1    3    3    0    0  0.22696451437E+02 -0.27269026898E+01 -0.14062268242E+02  0.26838634358E+02  0.00000000000E+00 0. -1.
        -14    1    3    3    0    0 -0.72667768486E+00  0.12313411517E+03 -0.31485611200E+02  0.12709792324E+03  0.00000000000E+00 0.  1.
        -13    1    4    4    0    0 -0.86836341953E+02 -0.40294778834E+02 -0.37661266601E+03  0.38858888261E+03  0.00000000000E+00 0.  1.
         13    1    4    4    0    0  0.21237416905E+02  0.10463101706E+01 -0.53299468677E+02  0.57384283589E+02  0.00000000000E+00 0. -1.
         -1    1    1    2    0  502  0.43629151296E+02 -0.81158743821E+02 -0.96836002436E+01  0.92649968457E+02  0.00000000000E+00 0.  1.
<scales pt_clust_5="13000.00000" pt_clust_6="13000.00000" pt_clust_7="13000.00000" pt_clust_8="13000.00000" pt_clust_9="92.14257"></scales>
<clustering>
<clus scale="   81.494">  5  6 -1 -1</clus>
<clus scale="   90.686">  7  8 -1 -1</clus>
<clus scale="   92.143">  2  9  1 -1</clus>
<clus scale="  136.543">  1  5  2 -1</clus>
<clus scale="   92.143">  2  5  1 -1</clus>
</clustering>
</event>
<event>
 9    1  0.7586638E-005  0.1305664E+03  0.7546771E-02  0.1231232E+00
          1   -1    0    0  502    0 -0.00000000000E+00  0.00000000000E+00  0.87569965159E+03  0.87569965159E+03  0.00000000000E+00 0. -1.
         21   -1    0    0  501  502  0.00000000000E+00 -0.00000000000E+00 -0.38804936406E+02  0.38804936406E+02  0.00000000000E+00 0. -1.
         23    2    1    2    0    0 -0.98801150577E+02 -0.85507639785E+01  0.67428652544E+03  0.68782314518E+03  0.92755472844E+02 0.  0.
        -24    2    1    2    0    0  0.69201303659E+02 -0.32571758400E+02  0.10720372400E+03  0.15160236711E+03  0.75105921203E+02 0.  0.
         11    1    4    4    0    0  0.73537782421E+02 -0.37704499579E+01  0.94565499734E+02  0.11985264067E+03  0.00000000000E+00 0. -1.
        -12    1    4    4    0    0 -0.43364787628E+01 -0.28801308443E+02  0.12638224266E+02  0.31749726434E+02  0.00000000000E+00 0.  1.
        -11    1    3    3    0    0 -0.14003523951E+01  0.30657440318E+02  0.14161528186E+03  0.14490247648E+03  0.00000000000E+00 0.  1.
         11    1    3    3    0    0 -0.97400798182E+02 -0.39208204296E+02  0.53267124358E+03  0.54292066870E+03  0.00000000000E+00 0. -1.
          2    1    1    2  501    0  0.29599846919E+02  0.41122522379E+02  0.55404465750E+02  0.75079075710E+02  0.00000000000E+00 0. -1.
<scales pt_clust_5="13000.00000" pt_clust_6="13000.00000" pt_clust_7="13000.00000" pt_clust_8="13000.00000" pt_clust_9="50.66767"></scales>
<clustering>
<clus scale="   50.668">  2  9  1 -1</clus>
<clus scale="   75.106">  5  6 -1 -1</clus>
<clus scale="   92.755">  7  8 -1 -1</clus>
<clus scale="  118.680">  2  5  1 -1</clus>
<clus scale="   50.668">  2  5  1 -1</clus>
</clustering>
</event>
<event>
 9    1  0.7586638E-005  0.1277196E+03  0.7546771E-02  0.1251749E+00
         -4   -1    0    0    0  501 -0.00000000000E+00  0.00000000000E+00  0.24438069242E+03  0.24438069242E+03  0.00000000000E+00 0.  1.
         21   -1    0    0  501  502  0.00000000000E+00 -0.00000000000E+00 -0.12722252596E+03  0.12722252596E+03  0.00000000000E+00 0. -1.
        -24    2    1    2    0    0  0.30159156683E+01  0.25878464788E+02  0.13220811784E+03  0.15645934668E+03  0.79509433739E+02 0.  0.
         23    2    1    2    0    0  0.64757460998E+02  0.24010164314E+02 -0.34495528005E+02  0.12877121197E+03  0.10306341172E+03 0.  0.
         13    1    3    3    0    0  0.17429758644E+02  0.47755283244E+02  0.11320190843E+03  0.12409285087E+03  0.00000000000E+00 0. -1.
        -14    1    3    3    0    0 -0.14413842976E+02 -0.21876818457E+02  0.19006209414E+02  0.32366495816E+02  0.00000000000E+00 0.  1.
        -11    1    4    4    0    0  0.27446620851E+02 -0.28304644645E+01  0.35544413050E+02  0.44997042395E+02  0.00000000000E+00 0.  1.
         11    1    4    4    0    0  0.37310840148E+02  0.26840628779E+02 -0.70039941054E+02  0.83774169579E+02  0.00000000000E+00 0. -1.
         -3    1    1    2    0  502 -0.67773376667E+02 -0.49888629102E+02  0.19445576624E+02  0.86372659729E+02  0.00000000000E+00 0.  1.
<scales pt_clust_5="13000.00000" pt_clust_6="13000.00000" pt_clust_7="13000.00000" pt_clust_8="13000.00000" pt_clust_9="75.43372"></scales>
<clustering>
<clus scale="   79.509">  5  6 -1 -1</clus>
<clus scale="   83.669">  1  5  2 -1</clus>
<clus scale="   75.434">  2  9  1 -1</clus>
<clus scale="  103.063">  7  8 -1 -1</clus>
<clus scale="   75.434">  2  5  1 -1</clus>
</clustering>
</event>
<event>
 9    1  0.7586638E-005  0.2467375E+03  0.7546771E-02  0.1160291E+00
          1   -1    0    0  502    0 -0.00000000000E+00  0.00000000000E+00  0.10461692502E+04  0.10461692502E+04  0.00000000000E+00 0. -1.
         21   -1    0    0  501  502  0.00000000000E+00 -0.00000000000E+00 -0.78674845261E+02  0.78674845261E+02  0.00000000000E+00 0. -1.
        -24    2    1    2    0    0 -0.24390965016E+02 -0.41429920198E+01  0.19887561287E+03  0.21555310702E+03  0.79369698199E+02 0.  0.
         23    2    1    2    0    0  0.22437715174E+03  0.96656128868E+02  0.48068808043E+03  0.54672065035E+03  0.90304625437E+02 0.  0.
         13    1    3    3    0    0 -0.12460516038E+02  0.35686081471E+02  0.63111061356E+02  0.73564712575E+02  0.00000000000E+00 0. -1.
        -14    1    3    3    0    0 -0.11930448977E+02 -0.39829073491E+02  0.13576455152E+03  0.14198839444E+03  0.00000000000E+00 0.  1.
        -13    1    4    4    0    0  0.48997741436E+02  0.36710703945E+02  0.54467458933E+02  0.81946070880E+02  0.00000000000E+00 0.  1.
         13    1    4    4    0    0  0.17537941031E+03  0.59945424922E+02  0.42622062150E+03  0.46477457947E+03  0.00000000000E+00 0. -1.
          2    1    1    2  501    0 -0.19998618673E+03 -0.92513136848E+02  0.28793071167E+03  0.36257033813E+03  0.00000000000E+00 0. -1.
<scales pt_clust_5="13000.00000" pt_clust_6="13000.00000" pt_clust_7="13000.00000" pt_clust_8="13000.00000" pt_clust_9="229.61812"></scales>
<clustering>
<clus scale="   79.370">  5  6 -1 -1</clus>
<clus scale="   83.136">  1  5  2 -1</clus>
<clus scale="   90.305">  7  8 -1 -1</clus>
<clus scale="  229.618">  2  9  1 -1</clus>
<clus scale="  229.618">  2  5  1 -1</clus>
</clustering>
</event>
<event>
 9    1  0.7586638E-005  0.1108785E+03  0.7546771E-02  0.1263566E+00
         21   -1    0    0  501  502  0.00000000000E+00  0.00000000000E+00  0.55342907381E+03  0.55342907381E+03  0.00000000000E+00 0.  1.
         -4   -1    0    0    0  501 -0.00000000000E+00 -0.00000000000E+00 -0.41152343969E+02  0.41152343969E+02  0.00000000000E+00 0.  1.
         23    2    1    2    0    0  0.30503505208E+02 -0.36915010787E+02  0.93978304142E+02  0.14043224890E+03  0.92715225455E+02 0.  0.
        -24    2    1    2    0    0 -0.42069932667E+02  0.86605392786E+02  0.29480629561E+03  0.32053321735E+03  0.80996408570E+02 0.  0.
         11    1    4    4    0    0 -0.49707350640E+02  0.12566864631E+02  0.12710966936E+03  0.13706062468E+03  0.00000000000E+00 0. -1.
        -12    1    4    4    0    0  0.76374179731E+01  0.74038528155E+02  0.16769662625E+03  0.18347259267E+03  0.00000000000E+00 0.  1.
        -13    1    3    3    0    0 -0.27791843684E+02 -0.28410549210E+02  0.16337084570E+02  0.42970294553E+02  0.00000000000E+00 0. -1.
         13    1    3    3    0    0  0.58295348892E+02 -0.85044615779E+01  0.77641219572E+02  0.97461954350E+02  0.00000000000E+00 0.  1.
         -3    1    1    2    0  502  0.11566427459E+02 -0.49690381999E+02  0.12349213008E+03  0.13361595152E+03  0.00000000000E+00 0.  1.
<scales pt_clust_5="13000.00000" pt_clust_6="13000.00000" pt_clust_7="13000.00000" pt_clust_8="13000.00000" pt_clust_9="51.01878"></scales>
<clustering>
<clus scale="   51.019">  1  9  2 -1</clus>
<clus scale="   80.996">  5  6 -1 -1</clus>
<clus scale="   92.715">  7  8 -1 -1</clus>
<clus scale="  101.284">  1  5  2 -1</clus>
<clus scale="   51.019">  1  5  2 -1</clus>
</clustering>
</event>
<event>
 9    1  0.7586638E-005  0.1181329E+03  0.7546771E-02  0.1250425E+00
          3   -1    0    0  502    0 -0.00000000000E+00  0.00000000000E+00  0.70157991475E+02  0.70157991475E+02  0.00000000000E+00 0. -1.
         21   -1    0    0  501  502  0.00000000000E+00 -0.00000000000E+00 -0.27049145913E+03  0.27049145913E+03  0.00000000000E+00 0. -1.
         23    2    1    2    0    0  0.23533508838E+02  0.79336050797E+02 -0.59104361804E+02  0.13694583793E+03  0.91721327666E+02 0.  0.
        -24    2    1    2    0    0  0.16178562188E+02 -0.67476530585E+02 -0.10591614188E+03  0.14925453344E+03  0.79018090251E+02 0.  0.
         11    1    4    4    0    0  0.37603657027E+02 -0.59822908009E+02 -0.10490279553E+03  0.12648087545E+03  0.00000000000E+00 0. -1.
        -12    1    4    4    0    0 -0.21425094839E+02 -0.76536225761E+01 -0.10133463506E+01  0.22773657990E+02  0.00000000000E+00 0.  1.
        -13    1    3    3    0    0  0.56635892992E+02  0.37453871633E+02 -0.45881413218E+02  0.81948282192E+02  0.00000000000E+00 0.  1.
         13    1    3    3    0    0 -0.33102384155E+02  0.41882179164E+02 -0.13222948587E+02  0.54997555742E+02  0.00000000000E+00 0. -1.
          4    1    1    2  501    0 -0.39712071026E+02 -0.11859520212E+02 -0.35312963966E+02  0.54449079229E+02  0.00000000000E+00 0. -1.
<scales pt_clust_5="13000.00000" pt_clust_6="13000.00000" pt_clust_7="13000.00000" pt_clust_8="13000.00000" pt_clust_9="41.44511"></scales>
<clustering>
<clus scale="   41.445">  2  9  1 -1</clus>
<clus scale="   79.018">  5  6 -1 -1</clus>
<clus scale="   91.721">  7  8 -1 -1</clus>
<clus scale="  108.565">  2  5  1 -1</clus>
<clus scale="   41.445">  2  5  1 -1</clus>
</clustering>
</event>
<event>
 9    1  0.7586638E-005  0.1158579E+03  0.7546771E-02  0.1255454E+00
         -2   -1    0    0    0  501 -0.00000000000E+00  0.00000000000E+00  0.20705363687E+03  0.20705363687E+03  0.00000000000E+00 0.  1.
         21   -1    0    0  501  502  0.00000000000E+00 -0.00000000000E+00 -0.35205057987E+03  0.35205057987E+03  0.00000000000E+00 0. -1.
         23    2    1    2    0    0 -0.82332994714E+01  0.70106230410E+02  0.17835750479E+03  0.21300100029E+03  0.92603217261E+02 0.  0.
        -24    2    1    2    0    0  0.26456716486E+02 -0.52903885686E+02 -0.23890601328E+03  0.25801489893E+03  0.77439175608E+02 0.  0.
         13    1    4    4    0    0  0.46152399781E+02 -0.92040610663E+01 -0.14716174711E+03  0.15450352280E+03  0.00000000000E+00 0. -1.
        -14    1    4    4    0    0 -0.19695683295E+02 -0.43699824619E+02 -0.91744266174E+02  0.10351137613E+03  0.00000000000E+00 0.  1.
        -11    1    3    3    0    0 -0.34834404876E+02  0.38576892176E+02  0.15928972141E+03  0.16755544670E+03  0.00000000000E+00 0.  1.
         11    1    3    3    0    0  0.26601105404E+02  0.31529338234E+02  0.19067783390E+02  0.45445553595E+02  0.00000000000E+00 0. -1.
         -1    1    1    2    0  502 -0.18223417015E+02 -0.17202344724E+02 -0.84448434508E+02  0.88088317514E+02  0.00000000000E+00 0.  1.
<scales pt_clust_5="13000.00000" pt_clust_6="13000.00000" pt_clust_7="13000.00000" pt_clust_8="13000.00000" pt_clust_9="25.06020"></scales>
<clustering>
<clus scale="   25.060">  2  9  1 -1</clus>
<clus scale="   77.439">  5  6 -1 -1</clus>
<clus scale="   92.603">  7  8 -1 -1</clus>
<clus scale="  104.137">  2  5  1 -1</clus>
<clus scale="   25.060">  2  5  1 -1</clus>
</clustering>
</event>
<event>
 9    1  0.7586638E-005  0.2009667E+03  0.7546771E-02  0.1150086E+00
         21   -1    0    0  501  502  0.00000000000E+00  0.00000000000E+00  0.17069618901E+03  0.17069618901E+03  0.00000000000E+00 0. -1.
          1   -1    0    0  502    0 -0.00000000000E+00 -0.00000000000E+00 -0.63960913660E+03  0.63960913660E+03  0.00000000000E+00 0. -1.
        -24    2    1    2    0    0 -0.87125037251E+02  0.20208515288E+03 -0.47577024585E+03  0.53043470997E+03  0.81083127519E+02 0.  0.
         23    2    1    2    0    0  0.54635752342E+02 -0.87641469860E+02 -0.50029380575E+02  0.14800324118E+03  0.93466185362E+02 0.  0.
         11    1    3    3    0    0 -0.34806155685E+02  0.97674376832E+02 -0.13511472522E+03  0.17031659148E+03  0.00000000000E+00 0. -1.
        -12    1    3    3    0    0 -0.52318881566E+02  0.10441077605E+03 -0.34065552063E+03  0.36011811848E+03  0.00000000000E+00 0.  1.
        -11    1    4    4    0    0  0.18316388337E+02 -0.55434263094E+02  0.20937197130E+02  0.62022688028E+02  0.00000000000E+00 0. -1.
         11    1    4    4    0    0  0.36319364005E+02 -0.32207206766E+02 -0.70966577705E+02  0.85980553153E+02  0.00000000000E+00 0.  1.
          2    1    1    2  501    0  0.32489284909E+02 -0.11444368302E+03  0.56886678835E+02  0.13186737446E+03  0.00000000000E+00 0. -1.
<scales pt_clust_5="13000.00000" pt_clust_6="13000.00000" pt_clust_7="13000.00000" pt_clust_8="13000.00000" pt_clust_9="118.96600"></scales>
<clustering>
<clus scale="   81.083">  5  6 -1 -1</clus>
<clus scale="   93.466">  7  8 -1 -1</clus>
<clus scale="  118.966">  1  9  2 -1</clus>
<clus scale="  195.515">  2  5  1 -1</clus>
<clus scale="  118.966">  1  5  2 -1</clus>
</clustering>
</event>
<event>
 9    1  0.7586638E-005  0.9698089E+02  0.7546771E-02  0.1292623E+00
         21   -1    0    0  501  502  0.00000000000E+00  0.00000000000E+00  0.19997961599E+03  0.19997961599E+03  0.00000000000E+00 0. -1.
         -4   -1    0    0    0  501 -0.00000000000E+00 -0.00000000000E+00 -0.77482192935E+02  0.77482192935E+02  0.00000000000E+00 0.  1.
        -24    2    1    2    0    0 -0.11417500955E+02 -0.16102493824E+02  0.10195894429E+02  0.84648640025E+02  0.81681003663E+02 0.  0.
         23    2    1    2    0    0  0.28245315407E+02  0.50271384524E+02  0.10985384082E+03  0.15464669662E+03  0.92318603156E+02 0.  0.
         11    1    3    3    0    0 -0.21652276616E+02 -0.34879221083E+02  0.33523730601E+02  0.53002091085E+02  0.00000000000E+00 0. -1.
        -12    1    3    3    0    0  0.10234775661E+02  0.18776727258E+02 -0.23327836172E+02  0.31646548940E+02  0.00000000000E+00 0.  1.
        -11    1    4    4    0    0  0.57546256795E+02  0.37465934485E+02  0.44322502749E+02  0.81729750812E+02  0.00000000000E+00 0. -1.
         11    1    4    4    0    0 -0.29300941387E+02  0.12805450039E+02  0.65531338068E+02  0.72916945807E+02  0.00000000000E+00 0.  1.
         -3    1    1    2    0  502 -0.16827814453E+02 -0.34168890699E+02  0.24476878095E+01  0.38166472282E+02  0.00000000000E+00 0.  1.
<scales pt_clust_5="13000.00000" pt_clust_6="13000.00000" pt_clust_7="13000.00000" pt_clust_8="13000.00000" pt_clust_9="38.08792"></scales>
<clustering>
<clus scale="   38.088">  1  9  2 -1</clus>
<clus scale="   81.681">  5  6 -1 -1</clus>
<clus scale="   86.916">  2  5  1 -1</clus>
<clus scale="   92.319">  7  8 -1 -1</clus>
<clus scale="   38.088">  1  5  2 -1</clus>
</clustering>
</event>
<event>
 9    1  0.7586638E-005  0.1889529E+03  0.7546771E-02  0.1160653E+00
          1   -1    0    0  502    0 -0.00000000000E+00  0.00000000000E+00  0.84715785639E+03  0.84715785639E+03  0.00000000000E+00 0. -1.
         21   -1    0    0  501  502  0.00000000000E+00 -0.00000000000E+00 -0.14252463627E+03  0.14252463627E+03  0.00000000000E+00 0. -1.
        -24    2    1    2    0    0 -0.13284007168E+03 -0.86040203652E+02  0.63483547598E+03  0.65923495176E+03  0.80778949971E+02 0.  0.
         23    2    1    2    0    0  0.20193818698E+03  0.64106873568E+02  0.10009583478E+03  0.25187531424E+03  0.92375728316E+02 0.  0.
         13    1    3    3    0    0 -0.78205469506E+02 -0.66829828233E+02  0.52585084278E+03  0.53581846763E+03  0.00000000000E+00 0. -1.
        -14    1    3    3    0    0 -0.54634602177E+02 -0.19210375419E+02  0.10898463320E+03  0.12341648412E+03  0.00000000000E+00 0.  1.
        -13    1    4    4    0    0  0.22306060573E+02  0.41444605494E+02  0.49056529127E+01  0.47321042817E+02  0.00000000000E+00 0.  1.
         13    1    4    4    0    0  0.17963212641E+03  0.22662268074E+02  0.95190181870E+02  0.20455427142E+03  0.00000000000E+00 0. -1.
          2    1    1    2  501    0 -0.69098115301E+02  0.21933330084E+02 -0.30298090650E+02  0.78572226669E+02  0.00000000000E+00 0. -1.
<scales pt_clust_5="13000.00000" pt_clust_6="13000.00000" pt_clust_7="13000.00000" pt_clust_8="13000.00000" pt_clust_9="72.49566"></scales>
<clustering>
<clus scale="   72.496">  2  9  1 -1</clus>
<clus scale="   80.779">  5  6 -1 -1</clus>
<clus scale="   92.376">  7  8 -1 -1</clus>
<clus scale="  183.562">  1  5  2 -1</clus>
<clus scale="   72.496">  2  5  1 -1</clus>
</clustering>
</event>
<event>
 9    1  0.7586638E-005  0.9805417E+02  0.7546771E-02  0.1289122E+00
          1   -1    0    0  502    0 -0.00000000000E+00  0.00000000000E+00  0.61948054366E+03  0.61948054366E+03  0.00000000000E+00 0. -1.
         21   -1    0    0  501  502  0.00000000000E+00 -0.00000000000E+00 -0.22766846496E+02  0.22766846496E+02  0.00000000000E+00 0.  1.
        -24    2    1    2    0    0  0.16902943072E+02 -0.29592431831E+02  0.35160857621E+03  0.36258582997E+03  0.81721917050E+02 0.  0.
         23    2    1    2    0    0 -0.44887360824E+02  0.23564589369E+02  0.16960416175E+03  0.19891592648E+03  0.90729317699E+02 0.  0.
         13    1    3    3    0    0  0.36031930380E+02  0.15465902103E+02  0.17325973899E+03  0.17764129950E+03  0.00000000000E+00 0. -1.
        -14    1    3    3    0    0 -0.19128987308E+02 -0.45058333934E+02  0.17834883722E+03  0.18494453047E+03  0.00000000000E+00 0.  1.
        -11    1    4    4    0    0 -0.37641975105E+02 -0.28051016365E+02  0.50735401459E+02  0.69122057045E+02  0.00000000000E+00 0.  1.
         11    1    4    4    0    0 -0.72453857193E+01  0.51615605734E+02  0.11886876029E+03  0.12979386944E+03  0.00000000000E+00 0. -1.
          2    1    1    2  501    0  0.27984417752E+02  0.60278424613E+01  0.75500959201E+02  0.80745633702E+02  0.00000000000E+00 0. -1.
<scales pt_clust_5="13000.00000" pt_clust_6="13000.00000" pt_clust_7="13000.00000" pt_clust_8="13000.00000" pt_clust_9="28.62627"></scales>
<clustering>
<clus scale="   28.626">  2  9  1 -1</clus>
<clus scale="   81.722">  5  6 -1 -1</clus>
<clus scale="   89.785">  1  5  2 -1</clus>
<clus scale="   90.729">  7  8 -1 -1</clus>
<clus scale="   28.626">  2  5  1 -1</clus>
</clustering>
</event>
<event>
 9    1  0.7586638E-005  0.1452626E+03  0.7546771E-02  0.1229242E+00
         21   -1    0    0  501  502  0.00000000000E+00  0.00000000000E+00  0.68699149852E+02  0.68699149852E+02  0.00000000000E+00 0. -1.
          3   -1    0    0  502    0 -0.00000000000E+00 -0.00000000000E+00 -0.45827364028E+03  0.45827364028E+03  0.00000000000E+00 0. -1.
        -24    2    1    2    0    0  0.33821122131E+02 -0.20921701712E+02 -0.12088652427E+03  0.15058717415E+03  0.80506890167E+02 0.  0.
         23    2    1    2    0    0 -0.13118047269E+03  0.21020366785E+02 -0.12725747947E+03  0.20468402764E+03  0.89726879217E+02 0.  0.
         11    1    3    3    0    0  0.37903599047E+02  0.32973364113E+01 -0.13411252604E+02  0.40341256110E+02  0.00000000000E+00 0. -1.
        -12    1    3    3    0    0 -0.40824769158E+01 -0.24219038124E+02 -0.10747527166E+03  0.11024591804E+03  0.00000000000E+00 0.  1.
        -13    1    4    4    0    0 -0.12000648841E+03  0.48087466534E+02 -0.11467270510E+03  0.17281143189E+03  0.00000000000E+00 0. -1.
         13    1    4    4    0    0 -0.11173984276E+02 -0.27067099749E+02 -0.12584774374E+02  0.31872595745E+02  0.00000000000E+00 0.  1.
          4    1    1    2  501    0  0.97359350555E+02 -0.98665072953E-01 -0.14143048669E+03  0.17170158834E+03  0.00000000000E+00 0. -1.
<scales pt_clust_5="13000.00000" pt_clust_6="13000.00000" pt_clust_7="13000.00000" pt_clust_8="13000.00000" pt_clust_9="114.23806"></scales>
<clustering>
<clus scale="   80.507">  5  6 -1 -1</clus>
<clus scale="   89.727">  7  8 -1 -1</clus>
<clus scale="   89.794">  2  5  1 -1</clus>
<clus scale="  114.238">  1  9  2 -1</clus>
<clus scale="  114.238">  1  5  2 -1</clus>
</clustering>
</event>
<event>
 9    1  0.7586638E-005  0.1200373E+03  0.7546771E-02  0.1248098E+00
         21   -1    0    0  501  502  0.00000000000E+00  0.00000000000E+00  0.23314656846E+03  0.23314656846E+03  0.00000000000E+00 0. -1.
         -4   -1    0    0    0  501 -0.00000000000E+00 -0.00000000000E+00 -0.17761412584E+03  0.17761412584E+03  0.00000000000E+00 0.  1.
         23    2    1    2    0    0 -0.50243164170E+02 -0.45812709288E+02 -0.17510167596E+02  0.11846951505E+03  0.95421382026E+02 0.  0.
        -24    2    1    2    0    0  0.80242176601E+02  0.44691226534E+02  0.15947601365E+03  0.20079291862E+03  0.80306192821E+02 0.  0.
         11    1    4    4    0    0  0.88264502048E+02  0.14723998700E+02  0.13124488590E+03  0.15884784712E+03  0.00000000000E+00 0. -1.
        -12    1    4    4    0    0 -0.80223254465E+01  0.29967227834E+02  0.28231127749E+02  0.41945071505E+02  0.00000000000E+00 0.  1.
        -13    1    3    3    0    0 -0.36448097794E+02 -0.75637187481E+02 -0.16661419520E+02  0.85598194276E+02  0.00000000000E+00 0.  1.
         13    1    3    3    0    0 -0.13795066376E+02  0.29824478194E+02 -0.84874807578E+00  0.32871320770E+02  0.00000000000E+00 0. -1.
         -3    1    1    2    0  502 -0.29999012432E+02  0.11214827541E+01 -0.86433403425E+02  0.91498260629E+02  0.00000000000E+00 0.  1.
<scales pt_clust_5="13000.00000" pt_clust_6="13000.00000" pt_clust_7="13000.00000" pt_clust_8="13000.00000" pt_clust_9="30.01998"></scales>
<clustering>
<clus scale="   30.020">  1  9  2 -1</clus>
<clus scale="   80.306">  5  6 -1 -1</clus>
<clus scale="   95.421">  7  8 -1 -1</clus>
<clus scale="  108.410">  1  5  2 -1</clus>
<clus scale="   30.020">  1  5  2 -1</clus>
</clustering>
</event>
<event>
 9    1  0.7586638E-005  0.1159475E+03  0.7546771E-02  0.1255847E+00
         21   -1    0    0  501  502  0.00000000000E+00  0.00000000000E+00  0.56676894189E+02  0.56676894189E+02  0.00000000000E+00 0.  1.
          1   -1    0    0  502    0 -0.00000000000E+00 -0.00000000000E+00 -0.36839237146E+03  0.36839237146E+03  0.00000000000E+00 0. -1.
         23    2    1    2    0    0 -0.58284280787E+02 -0.98188759381E+01 -0.23914341468E+03  0.26428353435E+03  0.95722233734E+02 0.  0.
        -24    2    1    2    0    0  0.77571271911E+02  0.27110205698E+02 -0.71317843439E+02  0.13485213963E+03  0.79665546450E+02 0.  0.
         11    1    4    4    0    0  0.69663391574E+02  0.24639066812E+01 -0.81315995638E+02  0.10710438884E+03  0.00000000000E+00 0. -1.
        -12    1    4    4    0    0  0.79078803368E+01  0.24646299017E+02  0.99981521986E+01  0.27747750792E+02  0.00000000000E+00 0.  1.
        -11    1    3    3    0    0  0.19381901557E+02 -0.10441136333E+02 -0.13926759836E+02  0.26050529273E+02  0.00000000000E+00 0. -1.
         11    1    3    3    0    0 -0.77666182343E+02  0.62226039475E+00 -0.22521665484E+03  0.23823300507E+03  0.00000000000E+00 0.  1.
          2    1    1    2  501    0 -0.19286991125E+02 -0.17291329760E+02 -0.12542191560E+01  0.25933591676E+02  0.00000000000E+00 0. -1.
<scales pt_clust_5="13000.00000" pt_clust_6="13000.00000" pt_clust_7="13000.00000" pt_clust_8="13000.00000" pt_clust_9="25.90325"></scales>
<clustering>
<clus scale="   25.903">  1  9  2 -1</clus>
<clus scale="   79.666">  5  6 -1 -1</clus>
<clus scale="   95.722">  7  8 -1 -1</clus>
<clus scale="  103.091">  1  5  2 -1</clus>
<clus scale="   25.903">  1  5  2 -1</clus>
</clustering>
</event>
<event>
 9    1  0.1292188E-004  0.1090197E+03  0.7546771E-02  0.1267288E+00
         -2   -1    0    0    0  501 -0.00000000000E+00  0.00000000000E+00  0.21989275896E+03  0.21989275896E+03  0.00000000000E+00 0.  1.
         21   -1    0    0  501  502  0.00000000000E+00 -0.00000000000E+00 -0.32489307515E+03  0.32489307515E+03  0.00000000000E+00 0.  1.
        -24    2    1    2    0    0 -0.49427324489E+02 -0.28480319044E+02  0.19099076891E+03  0.21504723487E+03  0.80707189493E+02 0.  0.
         23    2    1    2    0    0  0.71151707403E+02  0.11232040746E+02 -0.24662584026E+03  0.27311369910E+03  0.92617834926E+02 0.  0.
         13    1    3    3    0    0  0.12372808197E+02 -0.27759105719E+02  0.30453752636E+02  0.43024241802E+02  0.00000000000E+00 0. -1.
        -14    1    3    3    0    0 -0.61800132687E+02 -0.72121332536E+00  0.16053701628E+03  0.17202299307E+03  0.00000000000E+00 0.  1.
        -11    1    4    4    0    0  0.79159857926E+02 -0.16481507323E+02 -0.21783412950E+03  0.23235668952E+03  0.00000000000E+00 0.  1.
         11    1    4    4    0    0 -0.80081505225E+01  0.27713548068E+02 -0.28791710762E+02  0.40757009581E+02  0.00000000000E+00 0. -1.
         -1    1    1    2    0  502 -0.21724382914E+02  0.17248278298E+02 -0.49365244841E+02  0.56624900136E+02  0.00000000000E+00 0.  1.
<scales pt_clust_5="13000.00000" pt_clust_6="13000.00000" pt_clust_7="13000.00000" pt_clust_8="13000.00000" pt_clust_9="27.73900"></scales>
<clustering>
<clus scale="   27.739">  2  9  1 -1</clus>
<clus scale="   80.707">  5  6 -1 -1</clus>
<clus scale="   92.618">  7  8 -1 -1</clus>
<clus scale="   99.100">  1  5  2 -1</clus>
<clus scale="   27.739">  2  5  1 -1</clus>
</clustering>
</event>
<event>
 9    1  0.7586638E-005  0.2541594E+03  0.7546771E-02  0.1110704E+00
          3   -1    0    0  502    0 -0.00000000000E+00  0.00000000000E+00  0.11061630595E+03  0.11061630595E+03  0.00000000000E+00 0. -1.
         21   -1    0    0  501  502  0.00000000000E+00 -0.00000000000E+00 -0.40725467139E+03  0.40725467139E+03  0.00000000000E+00 0.  1.
        -24    2    1    2    0    0  0.97610019459E+02  0.72553822299E+02 -0.13541445876E+03  0.19547326955E+03  0.71280785898E+02 0.  0.
         23    2    1    2    0    0  0.57743315863E+02 -0.16872570351E+02 -0.83556707050E+02  0.14000457603E+03  0.94871406970E+02 0.  0.
         11    1    3    3    0    0  0.21700402118E+02  0.38297673848E+02 -0.10352609817E+02  0.45219418442E+02  0.00000000000E+00 0. -1.
        -12    1    3    3    0    0  0.75909617341E+02  0.34256148451E+02 -0.12506184895E+03  0.15025385111E+03  0.00000000000E+00 0.  1.
        -11    1    4    4    0    0  0.17031322107E+02 -0.53902194048E+02 -0.34124575622E+02  0.66030289392E+02  0.00000000000E+00 0.  1.
         11    1    4    4    0    0  0.40711993756E+02  0.37029623697E+02 -0.49432131428E+02  0.73974286643E+02  0.00000000000E+00 0. -1.
          4    1    1    2  501    0 -0.15535333532E+03 -0.55681251948E+02 -0.77667199618E+02  0.18239313175E+03  0.00000000000E+00 0. -1.
<scales pt_clust_5="13000.00000" pt_clust_6="13000.00000" pt_clust_7="13000.00000" pt_clust_8="13000.00000" pt_clust_9="165.03057"></scales>
<clustering>
<clus scale="   71.281">  5  6 -1 -1</clus>
<clus scale="   94.871">  7  8 -1 -1</clus>
<clus scale="  109.419">  5  7 -1 -1</clus>
<clus scale="  165.031">  2  9  1 -1</clus>
<clus scale="  165.031">  2  5  1 -1</clus>
</clustering>
</event>
<event>
 9    1  0.7586638E-005  0.1026313E+03  0.7546771E-02  0.1281204E+00
         21   -1    0    0  501  502  0.00000000000E+00  0.00000000000E+00  0.13830675088E+03  0.13830675088E+03  0.00000000000E+00 0.  1.
          1   -1    0    0  502    0 -0.00000000000E+00 -0.00000000000E+00 -0.15321692618E+03  0.15321692618E+03  0.00000000000E+00 0. -1.
        -24    2    1    2    0    0  0.20905359159E+02  0.34238522379E+02 -0.10154678552E+03  0.13635274232E+03  0.81676252560E+02 0.  0.
         23    2    1    2    0    0 -0.12607696728E+01 -0.43872885751E+02  0.58488212240E+02  0.11951896197E+03  0.94538307872E+02 0.  0.
         11    1    3    3    0    0  0.44379861439E+02  0.46140109825E+02 -0.64210253609E+02  0.90672148450E+02  0.00000000000E+00 0. -1.
        -12    1    3    3    0    0 -0.23474502281E+02 -0.11901587446E+02 -0.37336531909E+02  0.45680593867E+02  0.00000000000E+00 0.  1.
        -11    1    4    4    0    0  0.17951580814E+02 -0.17538973661E+02  0.77719648404E+02  0.81671406250E+02  0.00000000000E+00 0.  1.
         11    1    4    4    0    0 -0.19212350487E+02 -0.26333912089E+02 -0.19231436163E+02  0.37847555721E+02  0.00000000000E+00 0. -1.
          2    1    1    2  501    0 -0.19644589486E+02  0.96343633716E+01  0.28148397975E+02  0.35651972767E+02  0.00000000000E+00 0. -1.
<scales pt_clust_5="13000.00000" pt_clust_6="13000.00000" pt_clust_7="13000.00000" pt_clust_8="13000.00000" pt_clust_9="21.87992"></scales>
<clustering>
<clus scale="   21.880">  1  9  2 -1</clus>
<clus scale="   81.676">  5  6 -1 -1</clus>
<clus scale="   90.921">  2  5  1 -1</clus>
<clus scale="   94.538">  7  8 -1 -1</clus>
<clus scale="   21.880">  1  5  2 -1</clus>
</clustering>
</event>
<event>
 9    1  0.7586638E-005  0.9670185E+02  0.7546771E-02  0.1293334E+00
         -4   -1    0    0    0  501 -0.00000000000E+00  0.00000000000E+00  0.20828912333E+03  0.20828912333E+03  0.00000000000E+00 0.  1.
         21   -1    0    0  501  502  0.00000000000E+00 -0.00000000000E+00 -0.53252963200E+02  0.53252963200E+02  0.00000000000E+00 0.  1.
        -24    2    1    2    0    0 -0.21201312472E+02 -0.36483847680E+02  0.89976049548E+02  0.12713348777E+03  0.79288507538E+02 0.  0.
         23    2    1    2    0    0  0.15070422519E+02  0.16494770292E+02  0.38657067259E+02  0.10072964802E+03  0.90293399864E+02 0.  0.
         11    1    3    3    0    0 -0.23003023211E+02  0.61547070331E+01 -0.37903798074E+01  0.24111957088E+02  0.00000000000E+00 0. -1.
        -12    1    3    3    0    0  0.18017107393E+01 -0.42638554713E+02  0.93766429355E+02  0.10302153068E+03  0.00000000000E+00 0.  1.
        -13    1    4    4    0    0  0.18598060594E+02 -0.14565568770E+02  0.58918357210E+02  0.63477684801E+02  0.00000000000E+00 0. -1.
         13    1    4    4    0    0 -0.35276380753E+01  0.31060339062E+02 -0.20261289951E+02  0.37251963217E+02  0.00000000000E+00 0.  1.
         -3    1    1    2    0  502  0.61308899531E+01  0.19989077388E+02  0.26403043321E+02  0.33678950742E+02  0.00000000000E+00 0.  1.
<scales pt_clust_5="13000.00000" pt_clust_6="13000.00000" pt_clust_7="13000.00000" pt_clust_8="13000.00000" pt_clust_9="20.90817"></scales>
<clustering>
<clus scale="   20.908">  2  9  1 -1</clus>
<clus scale="   79.289">  5  6 -1 -1</clus>
<clus scale="   86.516">  1  5  2 -1</clus>
<clus scale="   90.293">  7  8 -1 -1</clus>
<clus scale="   20.908">  2  5  1 -1</clus>
</clustering>
</event>
<event>
 9    1  0.7586638E-005  0.9146802E+02  0.7546771E-02  0.1304898E+00
         21   -1    0    0  501  502  0.00000000000E+00  0.00000000000E+00  0.20595903477E+03  0.20595903477E+03  0.00000000000E+00 0.  1.
          3   -1    0    0  502    0 -0.00000000000E+00 -0.00000000000E+00 -0.85394282995E+02  0.85394282995E+02  0.00000000000E+00 0. -1.
        -24    2    1    2    0    0  0.28455520334E+02 -0.15961716656E+02  0.57325622577E+02  0.10542462551E+03  0.82241301211E+02 0.  0.
         23    2    1    2    0    0  0.35927591931E+02 -0.25975981147E+01  0.67140290877E+02  0.11881049522E+03  0.91162359218E+02 0.  0.
         13    1    3    3    0    0 -0.28353032343E+02  0.31670434002E+01  0.18993436278E+02  0.34273535396E+02  0.00000000000E+00 0. -1.
        -14    1    3    3    0    0  0.56808552677E+02 -0.19128760056E+02  0.38332186299E+02  0.71151090118E+02  0.00000000000E+00 0.  1.
        -13    1    4    4    0    0 -0.27295974465E+02  0.22237720767E+01  0.42964977360E+02  0.50951002579E+02  0.00000000000E+00 0.  1.
         13    1    4    4    0    0  0.63223566395E+02 -0.48213701914E+01  0.24175313517E+02  0.67859492644E+02  0.00000000000E+00 0. -1.
          4    1    1    2  501    0 -0.64383112264E+02  0.18559314770E+02 -0.39011616799E+01  0.67118197026E+02  0.00000000000E+00 0. -1.
<scales pt_clust_5="13000.00000" pt_clust_6="13000.00000" pt_clust_7="13000.00000" pt_clust_8="13000.00000" pt_clust_9="67.00476"></scales>
<clustering>
<clus scale="   67.005">  1  9  2 -1</clus>
<clus scale="   82.241">  5  6 -1 -1</clus>
<clus scale="   82.580">  2  5  1 -1</clus>
<clus scale="   91.162">  7  8 -1 -1</clus>
<clus scale="   67.005">  1  5  2 -1</clus>
</clustering>
</event>
<event>
 9    1  0.7586638E-005  0.1719861E+03  0.7546771E-02  0.1176600E+00
         -2   -1    0    0    0  501 -0.00000000000E+00  0.00000000000E+00  0.20338574793E+03  0.20338574793E+03  0.00000000000E+00 0.  1.
         21   -1    0    0  501  502  0.00000000000E+00 -0.00000000000E+00 -0.26694892100E+03  0.26694892100E+03  0.00000000000E+00 0.  1.
         23    2    1    2    0    0 -0.15236221826E+03 -0.65021932236E+02  0.10528236715E+03  0.21429803971E+03  0.86006835570E+02 0.  0.
        -24    2    1    2    0    0  0.96510382402E+02  0.40897647691E+02 -0.11371628985E+03  0.17393521071E+03  0.79593915908E+02 0.  0.
         11    1    4    4    0    0  0.38253176183E+02  0.46910340838E+02 -0.94637324342E+02  0.11233925727E+03  0.00000000000E+00 0. -1.
        -12    1    4    4    0    0  0.58257206219E+02 -0.60126931471E+01 -0.19078965509E+02  0.61595953440E+02  0.00000000000E+00 0.  1.
        -11    1    3    3    0    0 -0.14572225480E+03 -0.27433480717E+02  0.87669719685E+02  0.17226012643E+03  0.00000000000E+00 0.  1.
         11    1    3    3    0    0 -0.66399634682E+01 -0.37588451519E+02  0.17612647468E+02  0.42037913284E+02  0.00000000000E+00 0. -1.
         -1    1    1    2    0  502  0.55851835862E+02  0.24124284545E+02 -0.55129250374E+02  0.82101418507E+02  0.00000000000E+00 0.  1.
<scales pt_clust_5="13000.00000" pt_clust_6="13000.00000" pt_clust_7="13000.00000" pt_clust_8="13000.00000" pt_clust_9="60.83920"></scales>
<clustering>
<clus scale="   60.839">  2  9  1 -1</clus>
<clus scale="   79.594">  5  6 -1 -1</clus>
<clus scale="   86.007">  7  8 -1 -1</clus>
<clus scale="  168.870">  2  5  1 -1</clus>
<clus scale="   60.839">  2  5  1 -1</clus>
</clustering>
</event>
<event>
 9    1  0.7586638E-005  0.1036268E+03  0.7546771E-02  0.1279353E+00
          3   -1    0    0  502    0 -0.00000000000E+00  0.00000000000E+00  0.12008296061E+04  0.12008296061E+04  0.00000000000E+00 0. -1.
         21   -1    0    0  501  502  0.00000000000E+00 -0.00000000000E+00 -0.38873060099E+02  0.38873060099E+02  0.00000000000E+00 0.  1.
        -24    2    1    2    0    0  0.10072441611E+02  0.45693905953E+02  0.10494903795E+04  0.10534392777E+04  0.78197622489E+02 0.  0.
         23    2    1    2    0    0  0.16820823930E+02 -0.60180692316E+02  0.10854589882E+03  0.15546593390E+03  0.92102055396E+02 0.  0.
         13    1    3    3    0    0  0.10667962763E+02  0.39260768596E+02  0.20894316511E+03  0.21286723474E+03  0.00000000000E+00 0. -1.
        -14    1    3    3    0    0 -0.59552115135E+00  0.64331373567E+01  0.84054721436E+03  0.84057204300E+03  0.00000000000E+00 0.  1.
        -11    1    4    4    0    0 -0.15242796256E+02 -0.20352658318E+02 -0.92449668574E+01  0.27056292254E+02  0.00000000000E+00 0.  1.
         11    1    4    4    0    0  0.32063620186E+02 -0.39828033998E+02  0.11779086567E+03  0.12840964165E+03  0.00000000000E+00 0. -1.
          4    1    1    2  501    0 -0.26893265541E+02  0.14486786364E+02  0.39202677554E+01  0.30797454601E+02  0.00000000000E+00 0. -1.
<scales pt_clust_5="13000.00000" pt_clust_6="13000.00000" pt_clust_7="13000.00000" pt_clust_8="13000.00000" pt_clust_9="30.54693"></scales>
<clustering>
<clus scale="   30.547">  2  9  1 -1</clus>
<clus scale="   78.198">  5  6 -1 -1</clus>
<clus scale="   91.491">  1  5  2 -1</clus>
<clus scale="   92.102">  7  8 -1 -1</clus>
<clus scale="   30.547">  2  5  1 -1</clus>
</clustering>
</event>
<event>
 9    1  0.7586638E-005  0.1485291E+03  0.7546771E-02  0.1204059E+00
          1   -1    0    0  502    0 -0.00000000000E+00  0.00000000000E+00  0.39749828071E+03  0.39749828071E+03  0.00000000000E+00 0. -1.
         21   -1    0    0  501  502  0.00000000000E+00 -0.00000000000E+00 -0.83941315029E+02  0.83941315029E+02  0.00000000000E+00 0.  1.
         23    2    1    2    0    0 -0.55730013562E+02 -0.94169164030E+02  0.16906665672E+03  0.22100061522E+03  0.91016875614E+02 0.  0.
        -24    2    1    2    0    0  0.10946783656E+03  0.83268428643E+02  0.91884689724E+02  0.18445259471E+03  0.81627967264E+02 0.  0.
         11    1    4    4    0    0  0.10425852218E+02  0.56342275217E+02  0.32511694332E+02  0.65879895563E+02  0.00000000000E+00 0. -1.
        -12    1    4    4    0    0  0.99041984346E+02  0.26926153426E+02  0.59372995393E+02  0.11857269915E+03  0.00000000000E+00 0.  1.
        -13    1    3    3    0    0 -0.64255303802E+02 -0.19553184846E+02  0.83123004194E+02  0.10686676252E+03  0.00000000000E+00 0.  1.
         13    1    3    3    0    0  0.85252902398E+01 -0.74615979184E+02  0.85943652523E+02  0.11413385270E+03  0.00000000000E+00 0. -1.
          2    1    1    2  501    0 -0.53737823002E+02  0.10900735387E+02  0.52605619237E+02  0.75986385809E+02  0.00000000000E+00 0. -1.
<scales pt_clust_5="13000.00000" pt_clust_6="13000.00000" pt_clust_7="13000.00000" pt_clust_8="13000.00000" pt_clust_9="54.83231"></scales>
<clustering>
<clus scale="   54.832">  2  9  1 -1</clus>
<clus scale="   81.628">  5  6 -1 -1</clus>
<clus scale="   91.017">  7  8 -1 -1</clus>
<clus scale="  142.968">  2  5  1 -1</clus>
<clus scale="   54.832">  2  5  1 -1</clus>
</clustering>
</event>
<event>
 9    1  0.7586638E-005  0.9659703E+02  0.7546771E-02  0.1293251E+00
         21   -1    0    0  501  502  0.00000000000E+00  0.00000000000E+00  0.23002026746E+02  0.23002026746E+02  0.00000000000E+00 0. -1.
          1   -1    0    0  502    0 -0.00000000000E+00 -0.00000000000E+00 -0.91310089932E+03  0.91310089932E+03  0.00000000000E+00 0. -1.
         23    2    1    2    0    0 -0.15563640541E+02 -0.14558072821E+02 -0.43505497011E+03  0.44511031146E+03  0.91630769732E+02 0.  0.
        -24    2    1    2    0    0 -0.12808898383E+02  0.71413080682E+02 -0.19612811987E+03  0.22439389863E+03  0.81378660391E+02 0.  0.
         13    1    4    4    0    0 -0.45500671899E+02  0.57914695231E+02 -0.13147824291E+03  0.15070153093E+03  0.00000000000E+00 0. -1.
        -14    1    4    4    0    0  0.32691773515E+02  0.13498385451E+02 -0.64649876963E+02  0.73692367697E+02  0.00000000000E+00 0.  1.
        -13    1    3    3    0    0 -0.39177296371E+02 -0.40158689023E+02 -0.32066175954E+03  0.32553270939E+03  0.00000000000E+00 0. -1.
         13    1    3    3    0    0  0.23613655830E+02  0.25600616202E+02 -0.11439321057E+03  0.11957760207E+03  0.00000000000E+00 0.  1.
          2    1    1    2  501    0  0.28372538924E+02 -0.56855007861E+02 -0.25891578260E+03  0.26659871598E+03  0.00000000000E+00 0. -1.
<scales pt_clust_5="13000.00000" pt_clust_6="13000.00000" pt_clust_7="13000.00000" pt_clust_8="13000.00000" pt_clust_9="63.54130"></scales>
<clustering>
<clus scale="   63.541">  1  9  2 -1</clus>
<clus scale="   81.379">  5  6 -1 -1</clus>
<clus scale="   86.933">  1  5  2 -1</clus>
<clus scale="   91.631">  7  8 -1 -1</clus>
<clus scale="   63.541">  1  5  2 -1</clus>
</clustering>
</event>
<event>
 9    1  0.7586638E-005  0.9522925E+02  0.7546771E-02  0.1298058E+00
         21   -1    0    0  501  502  0.00000000000E+00  0.00000000000E+00  0.18214022428E+03  0.18214022428E+03  0.00000000000E+00 0.  1.
         -2   -1    0    0    0  501 -0.00000000000E+00 -0.00000000000E+00 -0.13041645159E+03  0.13041645159E+03  0.00000000000E+00 0.  1.
         23    2    1    2    0    0  0.53646418050E+01 -0.18722217233E+02 -0.81301532185E+02  0.12471048175E+03  0.92538988122E+02 0.  0.
        -24    2    1    2    0    0  0.24157108409E+02  0.43073628693E+02  0.10127576813E+03  0.13812137075E+03  0.79886347214E+02 0.  0.
         11    1    4    4    0    0 -0.29389546954E+02  0.13528585902E+02  0.29054174195E+02  0.43484631133E+02  0.00000000000E+00 0. -1.
        -12    1    4    4    0    0  0.53546655363E+02  0.29545042791E+02  0.72221593937E+02  0.94636739615E+02  0.00000000000E+00 0.  1.
        -11    1    3    3    0    0  0.35291200444E+02  0.23762558793E+02 -0.34511972319E+02  0.54783248010E+02  0.00000000000E+00 0.  1.
         11    1    3    3    0    0 -0.29926558639E+02 -0.42484776027E+02 -0.46789559866E+02  0.69927233740E+02  0.00000000000E+00 0. -1.
         -1    1    1    2    0  502 -0.29521750214E+02 -0.24351411459E+02  0.31749536741E+02  0.49724823369E+02  0.00000000000E+00 0.  1.
<scales pt_clust_5="13000.00000" pt_clust_6="13000.00000" pt_clust_7="13000.00000" pt_clust_8="13000.00000" pt_clust_9="38.26911"></scales>
<clustering>
<clus scale="   38.269">  1  9  2 -1</clus>
<clus scale="   79.886">  5  6 -1 -1</clus>
<clus scale="   82.988">  1  5  2 -1</clus>
<clus scale="   92.539">  7  8 -1 -1</clus>
<clus scale="   38.269">  1  5  2 -1</clus>
</clustering>
</event>
<event>
 9    1  0.7586638E-005  0.1183404E+03  0.7546771E-02  0.1249125E+00
          1   -1    0    0  502    0 -0.00000000000E+00  0.00000000000E+00  0.41410920778E+03  0.41410920778E+03  0.00000000000E+00 0. -1.
         21   -1    0    0  501  502  0.00000000000E+00 -0.00000000000E+00 -0.71532311264E+02  0.71532311264E+02  0.00000000000E+00 0. -1.
        -24    2    1    2    0    0 -0.94916784834E+02 -0.12949574262E+02  0.21673112016E+03  0.25029667900E+03  0.80617377521E+02 0.  0.
         23    2    1    2    0    0  0.30822920753E+02 -0.37733890249E+02  0.25675122726E+02  0.10607381917E+03  0.90656187156E+02 0.  0.
         11    1    3    3    0    0 -0.68887524134E+02 -0.25624860704E+02  0.20714730684E+03  0.21980020746E+03  0.00000000000E+00 0. -1.
        -12    1    3    3    0    0 -0.26029260700E+02  0.12675286443E+02  0.95838133177E+01  0.30496471545E+02  0.00000000000E+00 0.  1.
        -11    1    4    4    0    0  0.44722167993E+02  0.13241827907E+02  0.25666640808E+02  0.53237155885E+02  0.00000000000E+00 0.  1.
         11    1    4    4    0    0 -0.13899247241E+02 -0.50975718156E+02  0.84819180396E-02  0.52836663287E+02  0.00000000000E+00 0. -1.
          2    1    1    2  501    0  0.64093864081E+02  0.50683464511E+02  0.10017065364E+03  0.12927102087E+03  0.00000000000E+00 0. -1.
<scales pt_clust_5="13000.00000" pt_clust_6="13000.00000" pt_clust_7="13000.00000" pt_clust_8="13000.00000" pt_clust_9="81.71196"></scales>
<clustering>
<clus scale="   80.617">  5  6 -1 -1</clus>
<clus scale="   81.712">  2  9  1 -1</clus>
<clus scale="   90.656">  7  8 -1 -1</clus>
<clus scale="  110.838">  1  5  2 -1</clus>
<clus scale="   81.712">  2  5  1 -1</clus>
</clustering>
</event>
<event>
 9    1  0.7586638E-005  0.1415405E+03  0.7546771E-02  0.1213596E+00
         21   -1    0    0  501  502  0.00000000000E+00  0.00000000000E+00  0.92683372698E+02  0.92683372698E+02  0.00000000000E+00 0. -1.
          1   -1    0    0  502    0 -0.00000000000E+00 -0.00000000000E+00 -0.38245452995E+03  0.38245452995E+03  0.00000000000E+00 0. -1.
        -24    2    1    2    0    0 -0.75543586604E+02 -0.24780710536E+02 -0.85461562490E+02  0.14171866096E+03  0.80371531719E+02 0.  0.
         23    2    1    2    0    0  0.11474121863E+03  0.95341424102E+02 -0.17528613350E+03  0.24764261340E+03  0.91356997406E+02 0.  0.
         13    1    3    3    0    0 -0.90653558919E+02 -0.97118225856E+01 -0.74434569182E+02  0.11769831066E+03  0.00000000000E+00 0. -1.
        -14    1    3    3    0    0  0.15109972315E+02 -0.15068887950E+02 -0.11026993308E+02  0.24020350306E+02  0.00000000000E+00 0.  1.
        -11    1    4    4    0    0  0.32082455445E+02  0.84629976704E+02 -0.10490971972E+03  0.13855528209E+03  0.00000000000E+00 0.  1.
         11    1    4    4    0    0  0.82658763182E+02  0.10711447397E+02 -0.70376413779E+02  0.10908733131E+03  0.00000000000E+00 0. -1.
          2    1    1    2  501    0 -0.39197632023E+02 -0.70560713566E+02 -0.29023461266E+02  0.85776628279E+02  0.00000000000E+00 0. -1.
<scales pt_clust_5="13000.00000" pt_clust_6="13000.00000" pt_clust_7="13000.00000" pt_clust_8="13000.00000" pt_clust_9="80.71721"></scales>
<clustering>
<clus scale="   80.372">  5  6 -1 -1</clus>
<clus scale="   80.717">  1  9  2 -1</clus>
<clus scale="   91.357">  7  8 -1 -1</clus>
<clus scale="  134.712">  2  5  1 -1</clus>
<clus scale="   80.717">  1  5  2 -1</clus>
</clustering>
</event>
<event>
 9    1  0.7586638E-005  0.1443887E+03  0.7546771E-02  0.1210247E+00
          1   -1    0    0  502    0 -0.00000000000E+00  0.00000000000E+00  0.37805648585E+03  0.37805648585E+03  0.00000000000E+00 0. -1.
         21   -1    0    0  501  502  0.00000000000E+00 -0.00000000000E+00 -0.14631399297E+03  0.14631399297E+03  0.00000000000E+00 0.  1.
         23    2    1    2    0    0  0.74851388199E+02 -0.87780425925E+02  0.27380020490E+03  0.31150339184E+03  0.93593148432E+02 0.  0.
        -24    2    1    2    0    0 -0.99580069827E+02  0.32323045880E+02  0.10596009455E+02  0.13249642639E+03  0.80511228960E+02 0.  0.
         11    1    4    4    0    0 -0.53472726453E+02  0.24906322922E+02  0.45248304484E+02  0.74344242915E+02  0.00000000000E+00 0. -1.
        -12    1    4    4    0    0 -0.46107343374E+02  0.74167229583E+01 -0.34652295030E+02  0.58152183478E+02  0.00000000000E+00 0.  1.
        -13    1    3    3    0    0 -0.18137823085E+02 -0.23701235199E+02  0.27652748336E+02  0.40686652194E+02  0.00000000000E+00 0.  1.
         13    1    3    3    0    0  0.92989211284E+02 -0.64079190727E+02  0.24614745657E+03  0.27081673965E+03  0.00000000000E+00 0. -1.
          2    1    1    2  501    0  0.24728681629E+02  0.55457380046E+02 -0.52653721479E+02  0.80370660581E+02  0.00000000000E+00 0. -1.
<scales pt_clust_5="13000.00000" pt_clust_6="13000.00000" pt_clust_7="13000.00000" pt_clust_8="13000.00000" pt_clust_9="60.72091"></scales>
<clustering>
<clus scale="   60.721">  2  9  1 -1</clus>
<clus scale="   80.511">  5  6 -1 -1</clus>
<clus scale="   93.593">  7  8 -1 -1</clus>
<clus scale="  136.274">  2  5  1 -1</clus>
<clus scale="   60.721">  2  5  1 -1</clus>
</clustering>
</event>
<event>
 9    1  0.7586638E-005  0.1698342E+03  0.7546771E-02  0.1179533E+00
         -2   -1    0    0    0  501 -0.00000000000E+00  0.00000000000E+00  0.90831634925E+03  0.90831634925E+03  0.00000000000E+00 0.  1.
         21   -1    0    0  501  502  0.00000000000E+00 -0.00000000000E+00 -0.46265081843E+02  0.46265081843E+02  0.00000000000E+00 0. -1.
        -24    2    1    2    0    0  0.10075317349E+03  0.10834257373E+03  0.54140570445E+03  0.56696293274E+03  0.80234126433E+02 0.  0.
         23    2    1    2    0    0 -0.63070039469E+02 -0.12342084975E+03  0.29809752305E+03  0.34118804390E+03  0.91305049253E+02 0.  0.
         13    1    3    3    0    0  0.96479478922E+02  0.47962756700E+02  0.35185983108E+03  0.36798648972E+03  0.00000000000E+00 0. -1.
        -14    1    3    3    0    0  0.42736945637E+01  0.60379817028E+02  0.18954587336E+03  0.19897644302E+03  0.00000000000E+00 0.  1.
        -11    1    4    4    0    0 -0.40725062063E+02 -0.10056755381E+02  0.13458225809E+03  0.14096827020E+03  0.00000000000E+00 0.  1.
         11    1    4    4    0    0 -0.22344977405E+02 -0.11336409437E+03  0.16351526496E+03  0.20021977370E+03  0.00000000000E+00 0. -1.
         -1    1    1    2    0  502 -0.37683134017E+02  0.15078276021E+02  0.22548039910E+02  0.46430454455E+02  0.00000000000E+00 0.  1.
<scales pt_clust_5="13000.00000" pt_clust_6="13000.00000" pt_clust_7="13000.00000" pt_clust_8="13000.00000" pt_clust_9="40.58784"></scales>
<clustering>
<clus scale="   40.588">  2  9  1 -1</clus>
<clus scale="   80.234">  5  6 -1 -1</clus>
<clus scale="   91.305">  7  8 -1 -1</clus>
<clus scale="  164.148">  1  5  2 -1</clus>
<clus scale="   40.588">  2  5  1 -1</clus>
</clustering>
</event>
<event>
 9    1  0.7586638E-005  0.9190275E+02  0.7546771E-02  0.1304894E+00
         -2   -1    0    0    0  501 -0.00000000000E+00  0.00000000000E+00  0.30184126087E+03  0.30184126087E+03  0.00000000000E+00 0.  1.
         21   -1    0    0  501  502  0.00000000000E+00 -0.00000000000E+00 -0.56576608051E+02  0.56576608051E+02  0.00000000000E+00 0. -1.
        -24    2    1    2    0    0  0.10009885245E+02  0.13634777689E+02  0.19661162046E+03  0.21321821263E+03  0.80745104708E+02 0.  0.
         23    2    1    2    0    0 -0.55481119167E+00  0.10820739236E+02  0.66507151452E+02  0.11347836530E+03  0.91305760955E+02 0.  0.
         11    1    3    3    0    0  0.58769641695E+01 -0.33310764166E+02  0.10302156643E+03  0.10843241613E+03  0.00000000000E+00 0. -1.
        -12    1    3    3    0    0  0.41329210758E+01  0.46945541856E+02  0.93590054023E+02  0.10478579650E+03  0.00000000000E+00 0.  1.
        -11    1    4    4    0    0 -0.22222517245E+01 -0.35130237406E+02  0.56267249502E+02  0.66370741667E+02  0.00000000000E+00 0. -1.
         11    1    4    4    0    0  0.16674405328E+01  0.45950976642E+02  0.10239901950E+02  0.47107623632E+02  0.00000000000E+00 0.  1.
         -1    1    1    2    0  502 -0.94550740537E+01 -0.24455516925E+02 -0.17854119090E+02  0.31721290988E+02  0.00000000000E+00 0.  1.
<scales pt_clust_5="13000.00000" pt_clust_6="13000.00000" pt_clust_7="13000.00000" pt_clust_8="13000.00000" pt_clust_9="26.21966"></scales>
<clustering>
<clus scale="   26.220">  2  9  1 -1</clus>
<clus scale="   80.745">  5  6 -1 -1</clus>
<clus scale="   81.420">  1  5  2 -1</clus>
<clus scale="   91.306">  7  8 -1 -1</clus>
<clus scale="   26.220">  2  5  1 -1</clus>
</clustering>
</event>
<event>
 9    1  0.7586638E-005  0.1386513E+03  0.7546771E-02  0.1234517E+00
          1   -1    0    0  502    0 -0.00000000000E+00  0.00000000000E+00  0.19670473505E+03  0.19670473505E+03  0.00000000000E+00 0. -1.
         21   -1    0    0  501  502  0.00000000000E+00 -0.00000000000E+00 -0.18864568414E+03  0.18864568414E+03  0.00000000000E+00 0.  1.
         23    2    1    2    0    0  0.94109511934E+00  0.29463954002E+01  0.77083389016E+02  0.12051260016E+03  0.92584399495E+02 0.  0.
        -24    2    1    2    0    0 -0.70948970029E+02 -0.89718971381E+02 -0.62704492176E+02  0.15316632336E+03  0.80279630662E+02 0.  0.
         11    1    4    4    0    0 -0.55885851989E+02 -0.39615478216E+02  0.37297482820E+01  0.68604122245E+02  0.00000000000E+00 0. -1.
        -12    1    4    4    0    0 -0.15063118040E+02 -0.50103493165E+02 -0.66434240458E+02  0.84562201117E+02  0.00000000000E+00 0.  1.
        -13    1    3    3    0    0  0.40001667632E+02 -0.15259050453E+02  0.60977255209E+02  0.74506360043E+02  0.00000000000E+00 0. -1.
         13    1    3    3    0    0 -0.39060572513E+02  0.18205445853E+02  0.16106133807E+02  0.46006240120E+02  0.00000000000E+00 0.  1.
          2    1    1    2  501    0  0.70007874910E+02  0.86772575981E+02 -0.63198459225E+01  0.11167149567E+03  0.00000000000E+00 0. -1.
<scales pt_clust_5="13000.00000" pt_clust_6="13000.00000" pt_clust_7="13000.00000" pt_clust_8="13000.00000" pt_clust_9="113.04586"></scales>
<clustering>
<clus scale="   80.280">  5  6 -1 -1</clus>
<clus scale="   92.584">  7  8 -1 -1</clus>
<clus scale="   92.636">  1  7  2 -1</clus>
<clus scale="  113.046">  2  9  1 -1</clus>
<clus scale="  113.046">  2  5  1 -1</clus>
</clustering>
</event>
<event>
 9    1  0.7586638E-005  0.1463724E+03  0.7546771E-02  0.1228340E+00
         21   -1    0    0  501  502  0.00000000000E+00  0.00000000000E+00  0.42303972119E+03  0.42303972119E+03  0.00000000000E+00 0. -1.
          3   -1    0    0  502    0 -0.00000000000E+00 -0.00000000000E+00 -0.79414940073E+02  0.79414940073E+02  0.00000000000E+00 0. -1.
        -24    2    1    2    0    0 -0.54736092471E+01 -0.32186690586E+02  0.36314637932E+02  0.96513817662E+02  0.83247946656E+02 0.  0.
         23    2    1    2    0    0  0.11278267550E+03 -0.21740230897E+02  0.15885855632E+03  0.21499262495E+03  0.88279206709E+02 0.  0.
         13    1    3    3    0    0  0.36677341868E+01 -0.21752013225E+02 -0.25178824903E+02  0.33474999281E+02  0.00000000000E+00 0. -1.
        -14    1    3    3    0    0 -0.91413434340E+01 -0.10434677361E+02  0.61493462835E+02  0.63038818381E+02  0.00000000000E+00 0.  1.
        -11    1    4    4    0    0  0.10623497469E+03 -0.44235579038E+02  0.10307927307E+03  0.15449269509E+03  0.00000000000E+00 0. -1.
         11    1    4    4    0    0  0.65477008112E+01  0.22495348141E+02  0.55779283246E+02  0.60499929862E+02  0.00000000000E+00 0.  1.
          4    1    1    2  501    0 -0.10730906625E+03  0.53926921483E+02  0.14845158687E+03  0.19094821865E+03  0.00000000000E+00 0. -1.
<scales pt_clust_5="13000.00000" pt_clust_6="13000.00000" pt_clust_7="13000.00000" pt_clust_8="13000.00000" pt_clust_9="116.75468"></scales>
<clustering>
<clus scale="   83.248">  5  6 -1 -1</clus>
<clus scale="   88.279">  7  8 -1 -1</clus>
<clus scale="   89.421">  2  5  1 -1</clus>
<clus scale="  116.755">  1  9  2 -1</clus>
<clus scale="  116.755">  1  5  2 -1</clus>
</clustering>
</event>
<event>
 9    1  0.7586638E-005  0.1003411E+03  0.7546771E-02  0.1284899E+00
          3   -1    0    0  502    0 -0.00000000000E+00  0.00000000000E+00  0.12328210066E+03  0.12328210066E+03  0.00000000000E+00 0. -1.
         21   -1    0    0  501  502  0.00000000000E+00 -0.00000000000E+00 -0.28568251154E+03  0.28568251154E+03  0.00000000000E+00 0.  1.
        -24    2    1    2    0    0  0.50126140768E+02  0.93201802421E+00  0.70550093777E+02  0.11835851876E+03  0.80733664514E+02 0.  0.
         23    2    1    2    0    0  0.10013791990E+02 -0.39138212028E+02 -0.11098698355E+03  0.14935587130E+03  0.91416574549E+02 0.  0.
         13    1    3    3    0    0  0.41957108165E+02  0.32584653242E+02  0.66957341807E+02  0.85471891136E+02  0.00000000000E+00 0. -1.
        -14    1    3    3    0    0  0.81690326028E+01 -0.31652635218E+02  0.35927519695E+01  0.32886627626E+02  0.00000000000E+00 0.  1.
        -13    1    4    4    0    0  0.44660490048E+02 -0.40237508967E+02 -0.91814352667E+02  0.10974284421E+03  0.00000000000E+00 0.  1.
         13    1    4    4    0    0 -0.34646698058E+02  0.10992969390E+01 -0.19172630882E+02  0.39613027088E+02  0.00000000000E+00 0. -1.
          4    1    1    2  501    0 -0.60139932757E+02  0.38206194004E+02 -0.12196352111E+03  0.14125022213E+03  0.00000000000E+00 0. -1.
<scales pt_clust_5="13000.00000" pt_clust_6="13000.00000" pt_clust_7="13000.00000" pt_clust_8="13000.00000" pt_clust_9="71.24974"></scales>
<clustering>
<clus scale="   71.250">  2  9  1 -1</clus>
<clus scale="   80.734">  5  6 -1 -1</clus>
<clus scale="   90.715">  1  5  2 -1</clus>
<clus scale="   91.417">  7  8 -1 -1</clus>
<clus scale="   71.250">  2  5  1 -1</clus>
</clustering>
</event>
<event>
 9    1  0.7586638E-005  0.1739390E+03  0.7546771E-02  0.1199627E+00
         21   -1    0    0  501  502  0.00000000000E+00  0.00000000000E+00  0.24343777567E+03  0.24343777567E+03  0.00000000000E+00 0.  1.
          3   -1    0    0  502    0 -0.00000000000E+00 -0.00000000000E+00 -0.35220291069E+03  0.35220291069E+03  0.00000000000E+00 0. -1.
         23    2    1    2    0    0 -0.23492108431E+02 -0.13085614117E+02 -0.53616237916E+02  0.11169410894E+03  0.94221868737E+02 0.  0.
        -24    2    1    2    0    0 -0.15073829782E+03  0.20573997648E+02  0.14086198845E+03  0.22158694332E+03  0.78187913709E+02 0.  0.
         13    1    4    4    0    0 -0.64948087665E+02  0.17624783261E+02  0.14525524732E+02  0.68846771494E+02  0.00000000000E+00 0. -1.
        -14    1    4    4    0    0 -0.85790210150E+02  0.29492143873E+01  0.12633646372E+03  0.15274017182E+03  0.00000000000E+00 0.  1.
        -11    1    3    3    0    0 -0.61882682572E+00  0.38740165087E+02 -0.94983161725E+01  0.39892372049E+02  0.00000000000E+00 0.  1.
         11    1    3    3    0    0 -0.22873281605E+02 -0.51825779204E+02 -0.44117921743E+02  0.71801736890E+02  0.00000000000E+00 0. -1.
          4    1    1    2  501    0  0.17423040625E+03 -0.74883835310E+01 -0.19601088555E+03  0.26235963410E+03  0.00000000000E+00 0. -1.
<scales pt_clust_5="13000.00000" pt_clust_6="13000.00000" pt_clust_7="13000.00000" pt_clust_8="13000.00000" pt_clust_9="155.37520"></scales>
<clustering>
<clus scale="   78.188">  5  6 -1 -1</clus>
<clus scale="   94.222">  7  8 -1 -1</clus>
<clus scale="   97.984">  2  7  1 -1</clus>
<clus scale="  155.375">  1  9  2 -1</clus>
<clus scale="  155.375">  1  5  2 -1</clus>
</clustering>
</event>
<event>
 9    1  0.7586638E-005  0.1175409E+03  0.7546771E-02  0.1251366E+00
         21   -1    0    0  501  502  0.00000000000E+00  0.00000000000E+00  0.28618642489E+02  0.28618642489E+02  0.00000000000E+00 0. -1.
          3   -1    0    0  502    0 -0.00000000000E+00 -0.00000000000E+00 -0.63329711682E+03  0.63329711682E+03  0.00000000000E+00 0. -1.
        -24    2    1    2    0    0  0.79633414461E+02  0.86856610661E+01 -0.36950580126E+03  0.38612864762E+03  0.78382867652E+02 0.  0.
         23    2    1    2    0    0 -0.58869751856E+02 -0.29848719797E+02 -0.16495161101E+03  0.19956374062E+03  0.90884865844E+02 0.  0.
         13    1    3    3    0    0  0.93295642474E+02  0.33071200812E+01 -0.34634545158E+03  0.35870626671E+03  0.00000000000E+00 0. -1.
        -14    1    3    3    0    0 -0.13662228013E+02  0.53785409849E+01 -0.23160349681E+02  0.27422380910E+02  0.00000000000E+00 0.  1.
        -11    1    4    4    0    0 -0.38055566088E+01  0.27598242658E+02 -0.20306588781E+02  0.34474669061E+02  0.00000000000E+00 0. -1.
         11    1    4    4    0    0 -0.55064195247E+02 -0.57446962455E+02 -0.14464502223E+03  0.16508907156E+03  0.00000000000E+00 0.  1.
          4    1    1    2  501    0 -0.20763662605E+02  0.21163058731E+02 -0.70221062062E+02  0.76223371067E+02  0.00000000000E+00 0. -1.
<scales pt_clust_5="13000.00000" pt_clust_6="13000.00000" pt_clust_7="13000.00000" pt_clust_8="13000.00000" pt_clust_9="29.64803"></scales>
<clustering>
<clus scale="   29.648">  1  9  2 -1</clus>
<clus scale="   78.383">  5  6 -1 -1</clus>
<clus scale="   90.885">  7  8 -1 -1</clus>
<clus scale="  108.165">  2  5  1 -1</clus>
<clus scale="   29.648">  1  5  2 -1</clus>
</clustering>
</event>
<event>
 9    1  0.7586638E-005  0.2525740E+03  0.7546771E-02  0.1115679E+00
         -2   -1    0    0    0  501 -0.00000000000E+00  0.00000000000E+00  0.97152704729E+03  0.97152704729E+03  0.00000000000E+00 0.  1.
         21   -1    0    0  501  502  0.00000000000E+00 -0.00000000000E+00 -0.99894500398E+02  0.99894500398E+02  0.00000000000E+00 0.  1.
        -24    2    1    2    0    0 -0.37306928895E+02 -0.17967237351E+03  0.19080927560E+03  0.27198236134E+03  0.62387951351E+02 0.  0.
         23    2    1    2    0    0  0.85265838992E+01  0.26821835952E+03  0.36341836211E+03  0.46866044419E+03  0.12472335394E+03 0.  0.
         11    1    3    3    0    0  0.11349354328E+02 -0.72139088605E+02  0.95830730815E+02  0.12048396124E+03  0.00000000000E+00 0. -1.
        -12    1    3    3    0    0 -0.48656283223E+02 -0.10753328491E+03  0.94978544790E+02  0.15149840009E+03  0.00000000000E+00 0.  1.
        -11    1    4    4    0    0  0.32604833476E+02  0.72686068316E+02  0.38023077851E+02  0.88272839212E+02  0.00000000000E+00 0. -1.
         11    1    4    4    0    0 -0.24078249577E+02  0.19553229120E+03  0.32539528426E+03  0.38038760498E+03  0.00000000000E+00 0.  1.
         -1    1    1    2    0  502  0.28780344996E+02 -0.88545986001E+02  0.31740490917E+03  0.33077874216E+03  0.00000000000E+00 0.  1.
<scales pt_clust_5="13000.00000" pt_clust_6="13000.00000" pt_clust_7="13000.00000" pt_clust_8="13000.00000" pt_clust_9="93.10590"></scales>
<clustering>
<clus scale="   62.388">  5  6 -1 -1</clus>
<clus scale="   93.106">  2  9  1 -1</clus>
<clus scale="  124.723">  7  8 -1 -1</clus>
<clus scale="  228.320">  1  5  2 -1</clus>
<clus scale="   93.106">  2  5  1 -1</clus>
</clustering>
</event>
<event>
 9    1  0.7586638E-005  0.1783698E+03  0.7546771E-02  0.1170100E+00
         21   -1    0    0  501  502  0.00000000000E+00  0.00000000000E+00  0.52869225711E+03  0.52869225711E+03  0.00000000000E+00 0.  1.
          1   -1    0    0  502    0 -0.00000000000E+00 -0.00000000000E+00 -0.13226377457E+03  0.13226377457E+03  0.00000000000E+00 0. -1.
         23    2    1    2    0    0 -0.13647864250E+03  0.78462926400E+02 -0.39840688833E+02  0.18491693087E+03  0.88454169820E+02 0.  0.
        -24    2    1    2    0    0  0.13082763337E+03 -0.57243681655E+02  0.34833188107E+03  0.38540159599E+03  0.82502012593E+02 0.  0.
         13    1    4    4    0    0  0.61229816734E+02  0.16043361041E+01  0.21744922629E+03  0.22591111165E+03  0.00000000000E+00 0. -1.
        -14    1    4    4    0    0  0.69597816638E+02 -0.58848017759E+02  0.13088265478E+03  0.15949048435E+03  0.00000000000E+00 0.  1.
        -11    1    3    3    0    0 -0.97681925173E+02  0.28884320247E+02 -0.60723941145E+02  0.11858945775E+03  0.00000000000E+00 0. -1.
         11    1    3    3    0    0 -0.38796717330E+02  0.49578606154E+02  0.20883252312E+02  0.66327473123E+02  0.00000000000E+00 0.  1.
          2    1    1    2  501    0  0.56510091320E+01 -0.21219244745E+02  0.87937290311E+02  0.90637504814E+02  0.00000000000E+00 0. -1.
<scales pt_clust_5="13000.00000" pt_clust_6="13000.00000" pt_clust_7="13000.00000" pt_clust_8="13000.00000" pt_clust_9="21.95883"></scales>
<clustering>
<clus scale="   21.959">  1  9  2 -1</clus>
<clus scale="   82.502">  5  6 -1 -1</clus>
<clus scale="   88.454">  7  8 -1 -1</clus>
<clus scale="  175.494">  1  5  2 -1</clus>
<clus scale="   21.959">  1  5  2 -1</clus>
</clustering>
</event>
<event>
 9    1  0.7586638E-005  0.1179574E+03  0.7546771E-02  0.1250697E+00
         21   -1    0    0  501  502  0.00000000000E+00  0.00000000000E+00  0.30843359694E+03  0.30843359694E+03  0.00000000000E+00 0.  1.
         -4   -1    0    0    0  501 -0.00000000000E+00 -0.00000000000E+00 -0.22113514989E+03  0.22113514989E+03  0.00000000000E+00 0.  1.
        -24    2    1    2    0    0  0.53044211539E+02 -0.47456645506E+02 -0.14569494632E+03  0.18073795004E+03  0.79833374117E+02 0.  0.
         23    2    1    2    0    0 -0.89361580786E+02  0.64118062611E+02  0.26246628974E+03  0.29917995843E+03  0.92322674351E+02 0.  0.
         13    1    3    3    0    0 -0.15075860069E+02 -0.33306656337E+02 -0.61158347185E+02  0.71252777795E+02  0.00000000000E+00 0. -1.
        -14    1    3    3    0    0  0.68120071607E+02 -0.14149989169E+02 -0.84536599132E+02  0.10948517225E+03  0.00000000000E+00 0.  1.
        -11    1    4    4    0    0 -0.10692222407E+03  0.50779157626E+02  0.24051804133E+03  0.26806680707E+03  0.00000000000E+00 0.  1.
         11    1    4    4    0    0  0.17560643285E+02  0.13338904985E+02  0.21948248416E+02  0.31113151356E+02  0.00000000000E+00 0. -1.
         -3    1    1    2    0  502  0.36317369248E+02 -0.16661417104E+02 -0.29472896374E+02  0.49650838358E+02  0.00000000000E+00 0.  1.
<scales pt_clust_5="13000.00000" pt_clust_6="13000.00000" pt_clust_7="13000.00000" pt_clust_8="13000.00000" pt_clust_9="39.95692"></scales>
<clustering>
<clus scale="   39.957">  1  9  2 -1</clus>
<clus scale="   79.833">  5  6 -1 -1</clus>
<clus scale="   92.323">  7  8 -1 -1</clus>
<clus scale="  108.461">  2  5  1 -1</clus>
<clus scale="   39.957">  1  5  2 -1</clus>
</clustering>
</event>
<event>
 9    1  0.7586638E-005  0.1187886E+03  0.7546771E-02  0.1248584E+00
          1   -1    0    0  502    0 -0.00000000000E+00  0.00000000000E+00  0.39621437187E+03  0.39621437187E+03  0.00000000000E+00 0. -1.
         21   -1    0    0  501  502  0.00000000000E+00 -0.00000000000E+00 -0.83610777422E+02  0.83610777422E+02  0.00000000000E+00 0.  1.
        -24    2    1    2    0    0 -0.80562289927E+02 -0.72230976322E+01  0.22750316850E+03  0.25470563906E+03  0.81085234131E+02 0.  0.
         23    2    1    2    0    0  0.53471844811E+02 -0.57881423627E+02  0.88301859338E+01  0.12124631630E+03  0.91723495601E+02 0.  0.
         13    1    3    3    0    0 -0.50287701668E+02  0.33946920553E+02  0.15069262011E+03  0.16244849063E+03  0.00000000000E+00 0. -1.
        -14    1    3    3    0    0 -0.30274588259E+02 -0.41170018185E+02  0.76810548391E+02  0.92257148426E+02  0.00000000000E+00 0.  1.
        -13    1    4    4    0    0  0.19617362766E+02 -0.43815835639E+02 -0.38387593026E+02  0.61467679905E+02  0.00000000000E+00 0.  1.
         13    1    4    4    0    0  0.33854482044E+02 -0.14065587988E+02  0.47217778959E+02  0.59778636400E+02  0.00000000000E+00 0. -1.
          2    1    1    2  501    0  0.27090445117E+02  0.65104521259E+02  0.76270240018E+02  0.10387319393E+03  0.00000000000E+00 0. -1.
<scales pt_clust_5="13000.00000" pt_clust_6="13000.00000" pt_clust_7="13000.00000" pt_clust_8="13000.00000" pt_clust_9="70.51593"></scales>
<clustering>
<clus scale="   70.516">  2  9  1 -1</clus>
<clus scale="   81.085">  5  6 -1 -1</clus>
<clus scale="   91.723">  7  8 -1 -1</clus>
<clus scale="  110.781">  1  5  2 -1</clus>
<clus scale="   70.516">  2  5  1 -1</clus>
</clustering>
</event>
<event>
 9    1  0.7586638E-005  0.9250735E+02  0.7546771E-02  0.1303168E+00
         21   -1    0    0  501  502  0.00000000000E+00  0.00000000000E+00  0.35392801937E+02  0.35392801937E+02  0.00000000000E+00 0.  1.
          1   -1    0    0  502    0 -0.00000000000E+00 -0.00000000000E+00 -0.48753668362E+03  0.48753668362E+03  0.00000000000E+00 0. -1.
         23    2    1    2    0    0 -0.25827796078E+01 -0.10564084005E+02 -0.33820400902E+03  0.35045767219E+03  0.91215994514E+02 0.  0.
        -24    2    1    2    0    0  0.27094227599E+02  0.26465664361E+02 -0.50555419709E+02  0.10267739943E+03  0.80946089056E+02 0.  0.
         11    1    4    4    0    0  0.41084150678E+02 -0.16222163745E+02 -0.21032917690E+02  0.48922895050E+02  0.00000000000E+00 0. -1.
        -12    1    4    4    0    0 -0.13989923078E+02  0.42687828107E+02 -0.29522502020E+02  0.53754504385E+02  0.00000000000E+00 0.  1.
        -13    1    3    3    0    0 -0.46468822324E+02 -0.11355942399E+02 -0.16694885629E+03  0.17366700750E+03  0.00000000000E+00 0.  1.
         13    1    3    3    0    0  0.43886042716E+02  0.79185839340E+00 -0.17125515273E+03  0.17679066469E+03  0.00000000000E+00 0. -1.
          2    1    1    2  501    0 -0.24511447992E+02 -0.15901580356E+02 -0.63384452950E+02  0.69794413933E+02  0.00000000000E+00 0. -1.
<scales pt_clust_5="13000.00000" pt_clust_6="13000.00000" pt_clust_7="13000.00000" pt_clust_8="13000.00000" pt_clust_9="29.21767"></scales>
<clustering>
<clus scale="   29.218">  1  9  2 -1</clus>
<clus scale="   80.946">  5  6 -1 -1</clus>
<clus scale="   82.399">  1  5  2 -1</clus>
<clus scale="   91.216">  7  8 -1 -1</clus>
<clus scale="   29.218">  1  5  2 -1</clus>
</clustering>
</event>
<event>
 9    1  0.7586638E-005  0.1594231E+03  0.7546771E-02  0.1207587E+00
          1   -1    0    0  502    0 -0.00000000000E+00  0.00000000000E+00  0.41568357743E+03  0.41568357743E+03  0.00000000000E+00 0. -1.
         21   -1    0    0  501  502  0.00000000000E+00 -0.00000000000E+00 -0.12478167745E+03  0.12478167745E+03  0.00000000000E+00 0. -1.
        -24    2    1    2    0    0 -0.50299961802E+02 -0.37523767359E+02  0.20752027950E+03  0.23355903241E+03  0.86873678077E+02 0.  0.
         23    2    1    2    0    0 -0.68752728393E+02 -0.62839458508E+02  0.72725159924E+02  0.15082970182E+03  0.93727876625E+02 0.  0.
         11    1    3    3    0    0 -0.74584515315E+02 -0.28122279837E+02  0.13864765131E+03  0.15992774544E+03  0.00000000000E+00 0. -1.
        -12    1    3    3    0    0  0.24284553513E+02 -0.94014875223E+01  0.68872628191E+02  0.73631286970E+02  0.00000000000E+00 0.  1.
        -11    1    4    4    0    0 -0.37479065617E+02  0.15046857452E+02  0.49222696650E+02  0.63670732241E+02  0.00000000000E+00 0.  1.
         11    1    4    4    0    0 -0.31273662776E+02 -0.77886315960E+02  0.23502463275E+02  0.87158969574E+02  0.00000000000E+00 0. -1.
          2    1    1    2  501    0  0.11905269019E+03  0.10036322587E+03  0.10656460558E+02  0.15607652066E+03  0.00000000000E+00 0. -1.
<scales pt_clust_5="13000.00000" pt_clust_6="13000.00000" pt_clust_7="13000.00000" pt_clust_8="13000.00000" pt_clust_9="128.96055"></scales>
<clustering>
<clus scale="   86.874">  5  6 -1 -1</clus>
<clus scale="   93.728">  7  8 -1 -1</clus>
<clus scale="  107.169">  1  5  2 -1</clus>
<clus scale="  128.961">  2  9  1 -1</clus>
<clus scale="  128.961">  2  5  1 -1</clus>
</clustering>
</event>
<event>
 9    1  0.7586638E-005  0.1176530E+03  0.7546771E-02  0.1252685E+00
          1   -1    0    0  502    0 -0.00000000000E+00  0.00000000000E+00  0.56140629731E+03  0.56140629731E+03  0.00000000000E+00 0. -1.
         21   -1    0    0  501  502  0.00000000000E+00 -0.00000000000E+00 -0.38432594464E+02  0.38432594464E+02  0.00000000000E+00 0.  1.
        -24    2    1    2    0    0 -0.61603304403E+02  0.28356185667E+02  0.31961218473E+03  0.33490655666E+03  0.73562304801E+02 0.  0.
         23    2    1    2    0    0  0.90714381710E+02 -0.42295567413E+02  0.14429937358E+03  0.19762633164E+03  0.90641291212E+02 0.  0.
         11    1    3    3    0    0 -0.74649664709E+02  0.13265331275E+02  0.28543888886E+03  0.29533692748E+03  0.00000000000E+00 0. -1.
        -12    1    3    3    0    0  0.13046360306E+02  0.15090854391E+02  0.34173295868E+02  0.39569629187E+02  0.00000000000E+00 0.  1.
        -13    1    4    4    0    0  0.56296736444E+02 -0.58399300737E+02  0.13657942104E+03  0.15885131134E+03  0.00000000000E+00 0. -1.
         13    1    4    4    0    0  0.34417645266E+02  0.16103733324E+02  0.77199525315E+01  0.38775020306E+02  0.00000000000E+00 0.  1.
          2    1    1    2  501    0 -0.29111077307E+02  0.13939381747E+02  0.59062144541E+02  0.67306003471E+02  0.00000000000E+00 0. -1.
<scales pt_clust_5="13000.00000" pt_clust_6="13000.00000" pt_clust_7="13000.00000" pt_clust_8="13000.00000" pt_clust_9="32.27634"></scales>
<clustering>
<clus scale="   32.276">  2  9  1 -1</clus>
<clus scale="   73.562">  5  6 -1 -1</clus>
<clus scale="   90.641">  7  8 -1 -1</clus>
<clus scale="  105.061">  1  5  2 -1</clus>
<clus scale="   32.276">  2  5  1 -1</clus>
</clustering>
</event>
<event>
 9    1  0.7586638E-005  0.9048723E+02  0.7546771E-02  0.1307315E+00
         21   -1    0    0  501  502  0.00000000000E+00  0.00000000000E+00  0.32394609133E+02  0.32394609133E+02  0.00000000000E+00 0. -1.
          1   -1    0    0  502    0 -0.00000000000E+00 -0.00000000000E+00 -0.42395736990E+03  0.42395736990E+03  0.00000000000E+00 0. -1.
         23    2    1    2    0    0 -0.35731016399E+01  0.87634355141E+01 -0.29628520418E+03  0.30988133189E+03  0.90288165224E+02 0.  0.
        -24    2    1    2    0    0  0.11276495400E+02  0.16196352473E+02 -0.81828895072E+02  0.11709038526E+03  0.81392315793E+02 0.  0.
         11    1    4    4    0    0 -0.85552750084E+01  0.34844509231E+02 -0.82388761529E+02  0.89862342393E+02  0.00000000000E+00 0. -1.
        -12    1    4    4    0    0  0.19831770408E+02 -0.18648156758E+02  0.55986645789E+00  0.27228042868E+02  0.00000000000E+00 0.  1.
        -11    1    3    3    0    0 -0.32324991010E+01 -0.33703342603E+02 -0.52820664235E+02  0.62740632155E+02  0.00000000000E+00 0.  1.
         11    1    3    3    0    0 -0.34060253889E+00  0.42466778117E+02 -0.24346453995E+03  0.24714069974E+03  0.00000000000E+00 0. -1.
          2    1    1    2  501    0 -0.77033937600E+01 -0.24959787988E+02 -0.13448661517E+02  0.29380261884E+02  0.00000000000E+00 0. -1.
<scales pt_clust_5="13000.00000" pt_clust_6="13000.00000" pt_clust_7="13000.00000" pt_clust_8="13000.00000" pt_clust_9="26.12151"></scales>
<clustering>
<clus scale="   26.122">  1  9  2 -1</clus>
<clus scale="   81.392">  5  6 -1 -1</clus>
<clus scale="   81.613">  1  5  2 -1</clus>
<clus scale="   90.288">  7  8 -1 -1</clus>
<clus scale="   26.122">  1  5  2 -1</clus>
</clustering>
</event>
<event>
 9    1  0.7586638E-005  0.1108567E+03  0.7546771E-02  0.1263527E+00
         21   -1    0    0  501  502  0.00000000000E+00  0.00000000000E+00  0.14628103200E+03  0.14628103200E+03  0.00000000000E+00 0. -1.
          1   -1    0    0  502    0 -0.00000000000E+00 -0.00000000000E+00 -0.16620663019E+03  0.16620663019E+03  0.00000000000E+00 0. -1.
        -24    2    1    2    0    0 -0.58563332109E+02 -0.56411457595E+01 -0.39606331174E+02  0.10615508481E+03  0.78985784604E+02 0.  0.
         23    2    1    2    0    0  0.74266645798E+02 -0.55523482619E+02  0.46330279509E+02  0.13779131859E+03  0.90783042912E+02 0.  0.
         11    1    3    3    0    0 -0.42663584227E+02 -0.39243496397E+02 -0.10429553773E+02  0.58898293867E+02  0.00000000000E+00 0. -1.
        -12    1    3    3    0    0 -0.15899747883E+02  0.33602350637E+02 -0.29176777402E+02  0.47256790947E+02  0.00000000000E+00 0.  1.
        -11    1    4    4    0    0  0.66567217655E+02 -0.23727585476E+02  0.68382549690E+02  0.98338018492E+02  0.00000000000E+00 0. -1.
         11    1    4    4    0    0  0.76994281425E+01 -0.31795897143E+02 -0.22052270180E+02  0.39453300103E+02  0.00000000000E+00 0.  1.
          2    1    1    2  501    0 -0.15703313689E+02  0.61164628379E+02 -0.26649546527E+02  0.68541258783E+02  0.00000000000E+00 0. -1.
<scales pt_clust_5="13000.00000" pt_clust_6="13000.00000" pt_clust_7="13000.00000" pt_clust_8="13000.00000" pt_clust_9="63.14832"></scales>
<clustering>
<clus scale="   63.148">  1  9  2 -1</clus>
<clus scale="   78.986">  5  6 -1 -1</clus>
<clus scale="   90.783">  7  8 -1 -1</clus>
<clus scale="  101.422">  2  5  1 -1</clus>
<clus scale="   63.148">  1  5  2 -1</clus>
</clustering>
</event>
<event>
 9    1  0.7586638E-005  0.1304462E+03  0.7546771E-02  0.1244086E+00
         21   -1    0    0  501  502  0.00000000000E+00  0.00000000000E+00  0.77048307269E+03  0.77048307269E+03  0.00000000000E+00 0.  1.
          3   -1    0    0  502    0 -0.00000000000E+00 -0.00000000000E+00 -0.77627448325E+02  0.77627448325E+02  0.00000000000E+00 0. -1.
        -24    2    1    2    0    0  0.36504330405E+02  0.22273746003E+02  0.59381856742E+03  0.60083755510E+03  0.80972777525E+02 0.  0.
         23    2    1    2    0    0  0.68423978618E+02 -0.21516829997E+02  0.28544035107E+02  0.12086177542E+03  0.92994580454E+02 0.  0.
         13    1    3    3    0    0  0.14293825572E+02 -0.17007992556E+02  0.45186935691E+02  0.50353196695E+02  0.00000000000E+00 0. -1.
        -14    1    3    3    0    0  0.22210504832E+02  0.39281738558E+02  0.54863163173E+03  0.55048435840E+03  0.00000000000E+00 0.  1.
        -11    1    4    4    0    0  0.58036269460E+02 -0.40736159940E+02  0.52659896562E+02  0.88321616863E+02  0.00000000000E+00 0.  1.
         11    1    4    4    0    0  0.10387709158E+02  0.19219329943E+02 -0.24115861455E+02  0.32540158554E+02  0.00000000000E+00 0. -1.
          4    1    1    2  501    0 -0.10492830902E+03 -0.75691600612E+00  0.70493021835E+02  0.12641119050E+03  0.00000000000E+00 0. -1.
<scales pt_clust_5="13000.00000" pt_clust_6="13000.00000" pt_clust_7="13000.00000" pt_clust_8="13000.00000" pt_clust_9="91.47803"></scales>
<clustering>
<clus scale="   80.973">  5  6 -1 -1</clus>
<clus scale="   91.571">  2  5  1 -1</clus>
<clus scale="   91.478">  1  9  2 -1</clus>
<clus scale="   92.995">  7  8 -1 -1</clus>
<clus scale="   91.478">  1  5  2 -1</clus>
</clustering>
</event>
<event>
 9    1  0.7586638E-005  0.1767862E+03  0.7546771E-02  0.1173117E+00
         21   -1    0    0  501  502  0.00000000000E+00  0.00000000000E+00  0.86567924496E+02  0.86567924496E+02  0.00000000000E+00 0.  1.
          1   -1    0    0  502    0 -0.00000000000E+00 -0.00000000000E+00 -0.94111723701E+03  0.94111723701E+03  0.00000000000E+00 0. -1.
        -24    2    1    2    0    0  0.57455525353E+02 -0.14093415910E+03 -0.47882057792E+03  0.50728003691E+03  0.70002252909E+02 0.  0.
         23    2    1    2    0    0  0.78957968572E+02  0.18229518165E+03 -0.22984167772E+03  0.31643843890E+03  0.88544874164E+02 0.  0.
         13    1    3    3    0    0  0.49963815632E+02 -0.14854336531E+03 -0.45273762345E+03  0.47909588804E+03  0.00000000000E+00 0. -1.
        -14    1    3    3    0    0  0.74917097213E+01  0.76092062066E+01 -0.26082954471E+02  0.28184148871E+02  0.00000000000E+00 0.  1.
        -11    1    4    4    0    0 -0.16362604393E+00  0.80859502077E+02 -0.13206691271E+03  0.15485462629E+03  0.00000000000E+00 0. -1.
         11    1    4    4    0    0  0.79121594615E+02  0.10143567958E+03 -0.97774765012E+02  0.16158381261E+03  0.00000000000E+00 0.  1.
          2    1    1    2  501    0 -0.13641349393E+03 -0.41361022555E+02 -0.14588705687E+03  0.20396668570E+03  0.00000000000E+00 0. -1.
<scales pt_clust_5="13000.00000" pt_clust_6="13000.00000" pt_clust_7="13000.00000" pt_clust_8="13000.00000" pt_clust_9="142.54605"></scales>
<clustering>
<clus scale="   70.002">  5  6 -1 -1</clus>
<clus scale="   88.545">  7  8 -1 -1</clus>
<clus scale="  142.546">  1  9  2 -1</clus>
<clus scale="  168.266">  2  5  1 -1</clus>
<clus scale="  142.546">  1  5  2 -1</clus>
</clustering>
</event>
<event>
 9    1  0.7586638E-005  0.1105948E+03  0.7546771E-02  0.1274102E+00
         21   -1    0    0  501  502  0.00000000000E+00  0.00000000000E+00  0.29913961490E+03  0.29913961490E+03  0.00000000000E+00 0.  1.
          3   -1    0    0  502    0 -0.00000000000E+00 -0.00000000000E+00 -0.65477844352E+02  0.65477844352E+02  0.00000000000E+00 0. -1.
        -24    2    1    2    0    0  0.69140141831E+00 -0.27828426722E+02  0.17674069723E+01  0.85473829133E+02  0.80794507051E+02 0.  0.
         23    2    1    2    0    0  0.12729153429E+02 -0.14690394070E+02  0.17286796069E+03  0.20517013722E+03  0.10878241746E+03 0.  0.
         11    1    3    3    0    0 -0.19351587195E+02 -0.50945833859E+02  0.49018023662E+01  0.54717360874E+02  0.00000000000E+00 0. -1.
        -12    1    3    3    0    0  0.20042988613E+02  0.23117407138E+02 -0.31343953940E+01  0.30756468259E+02  0.00000000000E+00 0.  1.
        -13    1    4    4    0    0 -0.23844977233E+01 -0.43754295095E+02  0.18840949009E+02  0.47698066294E+02  0.00000000000E+00 0. -1.
         13    1    4    4    0    0  0.15113651152E+02  0.29063901025E+02  0.15402701168E+03  0.15747207093E+03  0.00000000000E+00 0.  1.
          4    1    1    2  501    0 -0.13420554847E+02  0.42518820792E+02  0.59026402881E+02  0.73973492894E+02  0.00000000000E+00 0. -1.
<scales pt_clust_5="13000.00000" pt_clust_6="13000.00000" pt_clust_7="13000.00000" pt_clust_8="13000.00000" pt_clust_9="44.58656"></scales>
<clustering>
<clus scale="   44.587">  1  9  2 -1</clus>
<clus scale="   80.795">  5  6 -1 -1</clus>
<clus scale="   83.219">  2  5  1 -1</clus>
<clus scale="  108.782">  7  8 -1 -1</clus>
<clus scale="   44.587">  1  5  2 -1</clus>
</clustering>
</event>
<event>
 9    1  0.7586638E-005  0.1565526E+03  0.7546771E-02  0.1199820E+00
         21   -1    0    0  501  502  0.00000000000E+00  0.00000000000E+00  0.13610100629E+03  0.13610100629E+03  0.00000000000E+00 0. -1.
          1   -1    0    0  502    0 -0.00000000000E+00 -0.00000000000E+00 -0.36382532695E+03  0.36382532695E+03  0.00000000000E+00 0. -1.
        -24    2    1    2    0    0 -0.97105246013E+02  0.51957553421E+02 -0.27090080394E+02  0.13653937171E+03  0.76027043949E+02 0.  0.
         23    2    1    2    0    0  0.26553829470E+02  0.95175780244E+02 -0.11942760202E+03  0.18112276222E+03  0.93696146485E+02 0.  0.
         11    1    3    3    0    0 -0.87467610385E+02  0.70870850555E+02 -0.23696911138E+02  0.11504261785E+03  0.00000000000E+00 0. -1.
        -12    1    3    3    0    0 -0.96376356279E+01 -0.18913297134E+02 -0.33931692565E+01  0.21496753862E+02  0.00000000000E+00 0.  1.
        -11    1    4    4    0    0  0.61614384556E+02  0.58078503961E+02 -0.67246232899E+02  0.10812724377E+03  0.00000000000E+00 0. -1.
         11    1    4    4    0    0 -0.35060555086E+02  0.37097276283E+02 -0.52181369119E+02  0.72995518449E+02  0.00000000000E+00 0.  1.
          2    1    1    2  501    0  0.70551416544E+02 -0.14713333366E+03 -0.81206638248E+02  0.18226419930E+03  0.00000000000E+00 0. -1.
<scales pt_clust_5="13000.00000" pt_clust_6="13000.00000" pt_clust_7="13000.00000" pt_clust_8="13000.00000" pt_clust_9="125.41836"></scales>
<clustering>
<clus scale="   76.027">  5  6 -1 -1</clus>
<clus scale="   93.696">  7  8 -1 -1</clus>
<clus scale="  133.825">  2  5  1 -1</clus>
<clus scale="  125.418">  1  9  2 -1</clus>
<clus scale="  125.418">  1  5  2 -1</clus>
</clustering>
</event>
<event>
 9    1  0.7586638E-005  0.1603921E+03  0.7546771E-02  0.1190079E+00
         -2   -1    0    0    0  501 -0.00000000000E+00  0.00000000000E+00  0.45827276321E+02  0.45827276321E+02  0.00000000000E+00 0.  1.
         21   -1    0    0  501  502  0.00000000000E+00 -0.00000000000E+00 -0.68516784381E+03  0.68516784381E+03  0.00000000000E+00 0. -1.
         23    2    1    2    0    0 -0.12219725439E+03  0.31622530543E+02 -0.23524818792E+03  0.28232708969E+03  0.91840743868E+02 0.  0.
        -24    2    1    2    0    0  0.14055766604E+03 -0.41331477449E+01 -0.33420591090E+03  0.37135768582E+03  0.80245869322E+02 0.  0.
         11    1    4    4    0    0  0.30288675254E+02  0.33676720740E+02 -0.97221868592E+02  0.10725491644E+03  0.00000000000E+00 0. -1.
        -12    1    4    4    0    0  0.11026899079E+03 -0.37809868485E+02 -0.23698404231E+03  0.26410276938E+03  0.00000000000E+00 0.  1.
        -11    1    3    3    0    0 -0.64320295247E+02  0.16788815017E+02 -0.38747319397E+02  0.76943612150E+02  0.00000000000E+00 0.  1.
         11    1    3    3    0    0 -0.57876959146E+02  0.14833715526E+02 -0.19650086852E+03  0.20538347754E+03  0.00000000000E+00 0. -1.
         -1    1    1    2    0  502 -0.18360411647E+02 -0.27489382798E+02 -0.69886468669E+02  0.77310344621E+02  0.00000000000E+00 0.  1.
<scales pt_clust_5="13000.00000" pt_clust_6="13000.00000" pt_clust_7="13000.00000" pt_clust_8="13000.00000" pt_clust_9="33.05709"></scales>
<clustering>
<clus scale="   33.057">  2  9  1 -1</clus>
<clus scale="   80.246">  5  6 -1 -1</clus>
<clus scale="   91.841">  7  8 -1 -1</clus>
<clus scale="  154.046">  2  5  1 -1</clus>
<clus scale="   33.057">  2  5  1 -1</clus>
</clustering>
</event>
<event>
 9    1  0.7586638E-005  0.1820784E+03  0.7546771E-02  0.1167609E+00
          1   -1    0    0  502    0 -0.00000000000E+00  0.00000000000E+00  0.19011282657E+03  0.19011282657E+03  0.00000000000E+00 0. -1.
         21   -1    0    0  501  502  0.00000000000E+00 -0.00000000000E+00 -0.23922835859E+03  0.23922835859E+03  0.00000000000E+00 0. -1.
         23    2    1    2    0    0  0.16985993828E+03  0.17758791945E+01  0.56318404651E+02  0.20272421223E+03  0.95235451079E+02 0.  0.
        -24    2    1    2    0    0 -0.13234555418E+03  0.11524674580E+02 -0.60402610306E+02  0.16651660604E+03  0.80194394571E+02 0.  0.
         11    1    4    4    0    0 -0.10394924749E+03  0.41147485311E+02 -0.30937237549E+02  0.11599859598E+03  0.00000000000E+00 0. -1.
        -12    1    4    4    0    0 -0.28396306686E+02 -0.29622810730E+02 -0.29465372758E+02  0.50518010063E+02  0.00000000000E+00 0.  1.
        -11    1    3    3    0    0  0.31794778191E+02 -0.55895018600E+01  0.55795751107E+02  0.64461742863E+02  0.00000000000E+00 0.  1.
         11    1    3    3    0    0  0.13806516009E+03  0.73653810545E+01  0.52265354314E+00  0.13826246937E+03  0.00000000000E+00 0. -1.
          2    1    1    2  501    0 -0.37514384103E+02 -0.13300553775E+02 -0.45031326366E+02  0.60100366884E+02  0.00000000000E+00 0. -1.
<scales pt_clust_5="13000.00000" pt_clust_6="13000.00000" pt_clust_7="13000.00000" pt_clust_8="13000.00000" pt_clust_9="39.80243"></scales>
<clustering>
<clus scale="   39.802">  2  9  1 -1</clus>
<clus scale="   80.194">  5  6 -1 -1</clus>
<clus scale="   95.235">  7  8 -1 -1</clus>
<clus scale="  174.682">  2  5  1 -1</clus>
<clus scale="   39.802">  2  5  1 -1</clus>
</clustering>
</event>
<event>
 9    1  0.7586638E-005  0.1247173E+03  0.7546771E-02  0.1238772E+00
         -2   -1    0    0    0  501 -0.00000000000E+00  0.00000000000E+00  0.48081862003E+03  0.48081862003E+03  0.00000000000E+00 0.  1.
         21   -1    0    0  501  502  0.00000000000E+00 -0.00000000000E+00 -0.13016079361E+03  0.13016079361E+03  0.00000000000E+00 0. -1.
         23    2    1    2    0    0  0.81190999609E+02  0.39367701349E+02  0.41414855308E+03  0.43343792271E+03  0.90595885648E+02 0.  0.
        -24    2    1    2    0    0 -0.21743626153E+02 -0.53177604735E+02 -0.63280128399E+02  0.11651077740E+03  0.79181713021E+02 0.  0.
         13    1    4    4    0    0  0.10040515836E+02 -0.62879558670E+02 -0.33817803727E+02  0.72099200451E+02  0.00000000000E+00 0. -1.
        -14    1    4    4    0    0 -0.31784141989E+02  0.97019539353E+01 -0.29462324672E+02  0.44411576950E+02  0.00000000000E+00 0.  1.
        -11    1    3    3    0    0  0.26584540236E+02  0.58776161362E+02  0.15499127475E+03  0.16787992784E+03  0.00000000000E+00 0. -1.
         11    1    3    3    0    0  0.54606459373E+02 -0.19408460013E+02  0.25915727833E+03  0.26555799487E+03  0.00000000000E+00 0.  1.
         -1    1    1    2    0  502 -0.59447373455E+02  0.13809903385E+02 -0.21059826886E+00  0.61030713529E+02  0.00000000000E+00 0.  1.
<scales pt_clust_5="13000.00000" pt_clust_6="13000.00000" pt_clust_7="13000.00000" pt_clust_8="13000.00000" pt_clust_9="61.03035"></scales>
<clustering>
<clus scale="   61.030">  2  9  1 -1</clus>
<clus scale="   79.182">  5  6 -1 -1</clus>
<clus scale="   90.596">  7  8 -1 -1</clus>
<clus scale="  116.690">  2  5  1 -1</clus>
<clus scale="   61.030">  2  5  1 -1</clus>
</clustering>
</event>
<event>
 9    1  0.7586638E-005  0.8991135E+02  0.7546771E-02  0.1308351E+00
         -2   -1    0    0    0  501 -0.00000000000E+00  0.00000000000E+00  0.31192997563E+03  0.31192997563E+03  0.00000000000E+00 0.  1.
         21   -1    0    0  501  502  0.00000000000E+00 -0.00000000000E+00 -0.46874802347E+02  0.46874802347E+02  0.00000000000E+00 0. -1.
        -24    2    1    2    0    0 -0.10950143927E+02  0.11205004175E+02  0.22110737053E+03  0.23591727974E+03  0.80765313140E+02 0.  0.
         23    2    1    2    0    0 -0.67263483983E+01  0.18043400172E+01  0.22459369827E+02  0.92171799206E+02  0.89121926989E+02 0.  0.
         11    1    3    3    0    0  0.27669865984E+02 -0.18662834193E+02  0.84925107018E+02  0.91247995406E+02  0.00000000000E+00 0. -1.
        -12    1    3    3    0    0 -0.38620009912E+02  0.29867838367E+02  0.13618226351E+03  0.14466928433E+03  0.00000000000E+00 0.  1.
        -11    1    4    4    0    0 -0.10279773281E+02  0.23891483974E+02  0.50198100491E+02  0.56536059626E+02  0.00000000000E+00 0.  1.
         11    1    4    4    0    0  0.35534248824E+01 -0.22087143957E+02 -0.27738730664E+02  0.35635739580E+02  0.00000000000E+00 0. -1.
         -1    1    1    2    0  502  0.17676492326E+02 -0.13009344192E+02  0.21488432923E+02  0.30715699027E+02  0.00000000000E+00 0.  1.
<scales pt_clust_5="13000.00000" pt_clust_6="13000.00000" pt_clust_7="13000.00000" pt_clust_8="13000.00000" pt_clust_9="21.94770"></scales>
<clustering>
<clus scale="   21.948">  2  9  1 -1</clus>
<clus scale="   80.765">  5  6 -1 -1</clus>
<clus scale="   81.636">  1  5  2 -1</clus>
<clus scale="   89.122">  7  8 -1 -1</clus>
<clus scale="   21.948">  2  5  1 -1</clus>
</clustering>
</event>
<event>
 9    1  0.7586638E-005  0.1135386E+03  0.7546771E-02  0.1259795E+00
         -2   -1    0    0    0  501 -0.00000000000E+00  0.00000000000E+00  0.12969281535E+03  0.12969281535E+03  0.00000000000E+00 0.  1.
         21   -1    0    0  501  502  0.00000000000E+00 -0.00000000000E+00 -0.14466820746E+03  0.14466820746E+03  0.00000000000E+00 0.  1.
        -24    2    1    2    0    0  0.51532520688E+02  0.38622454602E+02  0.42938101022E+02  0.10794757703E+03  0.75244296652E+02 0.  0.
         23    2    1    2    0    0 -0.79924365394E+02 -0.21528493804E+02 -0.47058674768E+02  0.13154042722E+03  0.90757836544E+02 0.  0.
         13    1    3    3    0    0 -0.18786945627E+02  0.73813450172E+01  0.18042811115E+02  0.27073540832E+02  0.00000000000E+00 0. -1.
        -14    1    3    3    0    0  0.70319466315E+02  0.31241109585E+02  0.24895289907E+02  0.80874036195E+02  0.00000000000E+00 0.  1.
        -13    1    4    4    0    0  0.40657712914E+01 -0.26970537737E+02 -0.38159378388E+02  0.46904995053E+02  0.00000000000E+00 0. -1.
         13    1    4    4    0    0 -0.83990136685E+02  0.54420439332E+01 -0.88992963802E+01  0.84635432170E+02  0.00000000000E+00 0.  1.
         -1    1    1    2    0  502  0.28391844706E+02 -0.17093960799E+02 -0.10854818358E+02  0.34873018555E+02  0.00000000000E+00 0.  1.
<scales pt_clust_5="13000.00000" pt_clust_6="13000.00000" pt_clust_7="13000.00000" pt_clust_8="13000.00000" pt_clust_9="33.14061"></scales>
<clustering>
<clus scale="   33.141">  2  9  1 -1</clus>
<clus scale="   75.244">  5  6 -1 -1</clus>
<clus scale="   90.758">  7  8 -1 -1</clus>
<clus scale="  101.566">  1  5  2 -1</clus>
<clus scale="   33.141">  2  5  1 -1</clus>
</clustering>
</event>
<event>
 9    1  0.7586638E-005  0.1018855E+03  0.7546771E-02  0.1281721E+00
         21   -1    0    0  501  502  0.00000000000E+00  0.00000000000E+00  0.52906897797E+02  0.52906897797E+02  0.00000000000E+00 0. -1.
         -4   -1    0    0    0  501 -0.00000000000E+00 -0.00000000000E+00 -0.57339493994E+03  0.57339493994E+03  0.00000000000E+00 0.  1.
         23    2    1    2    0    0  0.24394762925E+02 -0.29555352168E+02 -0.41200869525E+03  0.42380938794E+03  0.91622099067E+02 0.  0.
        -24    2    1    2    0    0 -0.38073014367E+02  0.50176383445E+02 -0.13294003905E+03  0.16769809747E+03  0.80513191676E+02 0.  0.
         11    1    4    4    0    0 -0.55435386008E+02  0.42073553546E+02 -0.13112945031E+03  0.14845268158E+03  0.00000000000E+00 0. -1.
        -12    1    4    4    0    0  0.17362371641E+02  0.81028298993E+01 -0.18105887463E+01  0.19245415895E+02  0.00000000000E+00 0.  1.
        -11    1    3    3    0    0  0.49711639989E+02 -0.46777310791E+02 -0.26540521074E+03  0.27404249642E+03  0.00000000000E+00 0.  1.
         11    1    3    3    0    0 -0.25316877064E+02  0.17221958623E+02 -0.14660348451E+03  0.14976689152E+03  0.00000000000E+00 0. -1.
         -3    1    1    2    0  502  0.13678251442E+02 -0.20621031277E+02  0.24460692159E+02  0.34794352334E+02  0.00000000000E+00 0.  1.
<scales pt_clust_5="13000.00000" pt_clust_6="13000.00000" pt_clust_7="13000.00000" pt_clust_8="13000.00000" pt_clust_9="24.74513"></scales>
<clustering>
<clus scale="   24.745">  1  9  2 -1</clus>
<clus scale="   80.513">  5  6 -1 -1</clus>
<clus scale="   91.622">  7  8 -1 -1</clus>
<clus scale="   92.024">  1  5  2 -1</clus>
<clus scale="   24.745">  1  5  2 -1</clus>
</clustering>
</event>
<event>
 9    1  0.7586638E-005  0.9137858E+02  0.7546771E-02  0.1299615E+00
         21   -1    0    0  501  502  0.00000000000E+00  0.00000000000E+00  0.17731039225E+03  0.17731039225E+03  0.00000000000E+00 0. -1.
         -2   -1    0    0    0  501 -0.00000000000E+00 -0.00000000000E+00 -0.15656992182E+03  0.15656992182E+03  0.00000000000E+00 0.  1.
        -24    2    1    2    0    0  0.78128468415E+01 -0.44991531672E+02 -0.11449746938E+03  0.14736619036E+03  0.80757941214E+02 0.  0.
         23    2    1    2    0    0 -0.32434549891E+02  0.19229749906E+02  0.74408917605E+02  0.11601541731E+03  0.80629440817E+02 0.  0.
         11    1    3    3    0    0 -0.29893284197E+02  0.37385618435E+01 -0.48352012389E+02  0.56969310921E+02  0.00000000000E+00 0. -1.
        -12    1    3    3    0    0  0.37706131039E+02 -0.48730093516E+02 -0.66145456995E+02  0.90396879444E+02  0.00000000000E+00 0.  1.
        -13    1    4    4    0    0 -0.46539467352E+02  0.41391575835E+02  0.46806245554E+02  0.77910263729E+02  0.00000000000E+00 0. -1.
         13    1    4    4    0    0  0.14104917461E+02 -0.22161825929E+02  0.27602672051E+02  0.38105153581E+02  0.00000000000E+00 0.  1.
         -1    1    1    2    0  502  0.24621703050E+02  0.25761781766E+02  0.60829022209E+02  0.70498706397E+02  0.00000000000E+00 0.  1.
<scales pt_clust_5="13000.00000" pt_clust_6="13000.00000" pt_clust_7="13000.00000" pt_clust_8="13000.00000" pt_clust_9="35.63562"></scales>
<clustering>
<clus scale="   35.636">  1  9  2 -1</clus>
<clus scale="   80.629">  7  8 -1 -1</clus>
<clus scale="   80.758">  5  6 -1 -1</clus>
<clus scale="   91.265">  1  7  2 -1</clus>
<clus scale="   35.636">  1  5  2 -1</clus>
</clustering>
</event>
<event>
 9    1  0.7586638E-005  0.9760532E+02  0.7546771E-02  0.1287372E+00
         21   -1    0    0  501  502  0.00000000000E+00  0.00000000000E+00  0.14931669996E+03  0.14931669996E+03  0.00000000000E+00 0.  1.
         -2   -1    0    0    0  501 -0.00000000000E+00 -0.00000000000E+00 -0.15494730371E+03  0.15494730371E+03  0.00000000000E+00 0.  1.
        -24    2    1    2    0    0 -0.10856042966E+02  0.32030820287E+02 -0.57067227122E+02  0.11059655160E+03  0.88493512177E+02 0.  0.
         23    2    1    2    0    0 -0.21323939421E+02 -0.29346336891E+02  0.96428839895E+02  0.13828643307E+03  0.92242606898E+02 0.  0.
         11    1    3    3    0    0 -0.48943688062E+02  0.12004351587E+02 -0.21583759698E+02  0.54821964037E+02  0.00000000000E+00 0. -1.
        -12    1    3    3    0    0  0.38087645096E+02  0.20026468700E+02 -0.35483467424E+02  0.55774587564E+02  0.00000000000E+00 0.  1.
        -11    1    4    4    0    0 -0.49489783005E+02 -0.16850861741E+01  0.82884819945E+02  0.96550357403E+02  0.00000000000E+00 0.  1.
         11    1    4    4    0    0  0.28165843583E+02 -0.27661250717E+02  0.13544019949E+02  0.41736075670E+02  0.00000000000E+00 0. -1.
         -1    1    1    2    0  502  0.32179982387E+02 -0.26844833964E+01 -0.44992216517E+02  0.55381018992E+02  0.00000000000E+00 0.  1.
<scales pt_clust_5="13000.00000" pt_clust_6="13000.00000" pt_clust_7="13000.00000" pt_clust_8="13000.00000" pt_clust_9="32.29178"></scales>
<clustering>
<clus scale="   32.292">  1  9  2 -1</clus>
<clus scale="   88.494">  5  6 -1 -1</clus>
<clus scale="   92.243">  7  8 -1 -1</clus>
<clus scale="   94.070">  2  5  1 -1</clus>
<clus scale="   32.292">  1  5  2 -1</clus>
</clustering>
</event>
<event>
 9    1  0.7586638E-005  0.1023310E+03  0.7546771E-02  0.1282186E+00
          3   -1    0    0  502    0 -0.00000000000E+00  0.00000000000E+00  0.47811397313E+03  0.47811397313E+03  0.00000000000E+00 0. -1.
         21   -1    0    0  501  502  0.00000000000E+00 -0.00000000000E+00 -0.40237120009E+02  0.40237120009E+02  0.00000000000E+00 0. -1.
        -24    2    1    2    0    0 -0.16492304216E+01 -0.53227666482E+02  0.19997599646E+03  0.22110711882E+03  0.77859195949E+02 0.  0.
         23    2    1    2    0    0 -0.19556608013E+02  0.23357824332E+02  0.56161030427E+02  0.11184909981E+03  0.91804743423E+02 0.  0.
         13    1    3    3    0    0  0.26243732481E+02 -0.54820399527E+02  0.97512724252E+02  0.11490318137E+03  0.00000000000E+00 0. -1.
        -14    1    3    3    0    0 -0.27892962902E+02  0.15927330459E+01  0.10246327221E+03  0.10620393745E+03  0.00000000000E+00 0.  1.
        -13    1    4    4    0    0  0.29188121762E+02 -0.13133009572E+02  0.34898373076E+02  0.47353129102E+02  0.00000000000E+00 0.  1.
         13    1    4    4    0    0 -0.48744729774E+02  0.36490833904E+02  0.21262657351E+02  0.64495970707E+02  0.00000000000E+00 0. -1.
          4    1    1    2  501    0  0.21205838434E+02  0.29869842149E+02  0.18173982624E+03  0.18539487451E+03  0.00000000000E+00 0. -1.
<scales pt_clust_5="13000.00000" pt_clust_6="13000.00000" pt_clust_7="13000.00000" pt_clust_8="13000.00000" pt_clust_9="36.63190"></scales>
<clustering>
<clus scale="   36.632">  2  9  1 -1</clus>
<clus scale="   77.859">  5  6 -1 -1</clus>
<clus scale="   90.031">  1  5  2 -1</clus>
<clus scale="   91.805">  7  8 -1 -1</clus>
<clus scale="   36.632">  2  5  1 -1</clus>
</clustering>
</event>
<event>
 9    1  0.7586638E-005  0.1059000E+03  0.7546771E-02  0.1275358E+00
         21   -1    0    0  501  502  0.00000000000E+00  0.00000000000E+00  0.21132860121E+03  0.21132860121E+03  0.00000000000E+00 0.  1.
         -2   -1    0    0    0  501 -0.00000000000E+00 -0.00000000000E+00 -0.32637857456E+03  0.32637857456E+03  0.00000000000E+00 0.  1.
        -24    2    1    2    0    0  0.42001756768E+02  0.14284751124E+02 -0.15633427183E+03  0.18118983598E+03  0.80132081140E+02 0.  0.
         23    2    1    2    0    0 -0.27933460777E+02 -0.50792235649E+02 -0.13548262800E+03  0.17547242913E+03  0.95262277222E+02 0.  0.
         11    1    3    3    0    0  0.56248865847E+02  0.98234672867E+01 -0.56792028656E+02  0.80534278028E+02  0.00000000000E+00 0. -1.
        -12    1    3    3    0    0 -0.14247109079E+02  0.44612838372E+01 -0.99542243176E+02  0.10065555795E+03  0.00000000000E+00 0.  1.
        -11    1    4    4    0    0  0.27299705446E+02 -0.39490921176E+02 -0.93756886080E+02  0.10533356759E+03  0.00000000000E+00 0. -1.
         11    1    4    4    0    0 -0.55233166223E+02 -0.11301314473E+02 -0.41725741917E+02  0.70138861542E+02  0.00000000000E+00 0.  1.
         -1    1    1    2    0  502 -0.14068295990E+02  0.36507484525E+02  0.17676692648E+03  0.18104491065E+03  0.00000000000E+00 0.  1.
<scales pt_clust_5="13000.00000" pt_clust_6="13000.00000" pt_clust_7="13000.00000" pt_clust_8="13000.00000" pt_clust_9="39.12433"></scales>
<clustering>
<clus scale="   39.124">  1  9  2 -1</clus>
<clus scale="   80.132">  5  6 -1 -1</clus>
<clus scale="   92.526">  2  5  1 -1</clus>
<clus scale="   95.262">  7  8 -1 -1</clus>
<clus scale="   39.124">  1  5  2 -1</clus>
</clustering>
</event>
<event>
 9    1  0.7586638E-005  0.2307079E+03  0.7546771E-02  0.1164705E+00
          1   -1    0    0  502    0 -0.00000000000E+00  0.00000000000E+00  0.59858992478E+03  0.59858992478E+03  0.00000000000E+00 0. -1.
         21   -1    0    0  501  502  0.00000000000E+00 -0.00000000000E+00 -0.14465848767E+03  0.14465848767E+03  0.00000000000E+00 0. -1.
        -24    2    1    2    0    0  0.52660109138E+01  0.46224145807E+02  0.22399170973E+03  0.24207647433E+03  0.79147526009E+02 0.  0.
         23    2    1    2    0    0 -0.11591905259E+03 -0.20138903336E+03  0.94016629591E+02  0.26708792228E+03  0.92206627074E+02 0.  0.
         13    1    3    3    0    0  0.23936568912E+02 -0.12684033955E+02  0.99053129760E+02  0.10269063523E+03  0.00000000000E+00 0. -1.
        -14    1    3    3    0    0 -0.18670557998E+02  0.58908179762E+02  0.12493857997E+03  0.13938583910E+03  0.00000000000E+00 0.  1.
        -11    1    4    4    0    0 -0.79970882109E+02 -0.14982719924E+03  0.10985594184E+03  0.20226680295E+03  0.00000000000E+00 0.  1.
         11    1    4    4    0    0 -0.35948170478E+02 -0.51561834122E+02 -0.15839312249E+02  0.64821119331E+02  0.00000000000E+00 0. -1.
          2    1    1    2  501    0  0.11065304167E+03  0.15516488755E+03  0.13592309779E+03  0.23408401584E+03  0.00000000000E+00 0. -1.
<scales pt_clust_5="13000.00000" pt_clust_6="13000.00000" pt_clust_7="13000.00000" pt_clust_8="13000.00000" pt_clust_9="211.48082"></scales>
<clustering>
<clus scale="   79.148">  5  6 -1 -1</clus>
<clus scale="   91.808">  1  5  2 -1</clus>
<clus scale="   92.207">  7  8 -1 -1</clus>
<clus scale="  211.481">  2  9  1 -1</clus>
<clus scale="  211.481">  2  5  1 -1</clus>
</clustering>
</event>
<event>
 9    1  0.7586638E-005  0.1349960E+03  0.7546771E-02  0.1222825E+00
          3   -1    0    0  502    0 -0.00000000000E+00  0.00000000000E+00  0.42333025147E+02  0.42333025147E+02  0.00000000000E+00 0. -1.
         21   -1    0    0  501  502  0.00000000000E+00 -0.00000000000E+00 -0.58311596535E+03  0.58311596535E+03  0.00000000000E+00 0.  1.
         23    2    1    2    0    0 -0.19676544803E+02  0.93921298817E+02 -0.13973118382E+03  0.19251860439E+03  0.91270107455E+02 0.  0.
        -24    2    1    2    0    0  0.47131057564E+02 -0.98118768238E+02 -0.33422389375E+03  0.36056097100E+03  0.80311726322E+02 0.  0.
         11    1    4    4    0    0  0.37629848511E+02 -0.10554640189E+03 -0.23216328434E+03  0.25779030053E+03  0.00000000000E+00 0. -1.
        -12    1    4    4    0    0  0.95012090535E+01  0.74276336548E+01 -0.10206060941E+03  0.10277067047E+03  0.00000000000E+00 0.  1.
        -11    1    3    3    0    0  0.19935516935E+02  0.59521682671E+02 -0.12189085145E+03  0.13710446823E+03  0.00000000000E+00 0.  1.
         11    1    3    3    0    0 -0.39612061738E+02  0.34399616146E+02 -0.17840332379E+02  0.55414136152E+02  0.00000000000E+00 0. -1.
          4    1    1    2  501    0 -0.27454512761E+02  0.41974694210E+01 -0.66827862624E+02  0.72369415110E+02  0.00000000000E+00 0. -1.
<scales pt_clust_5="13000.00000" pt_clust_6="13000.00000" pt_clust_7="13000.00000" pt_clust_8="13000.00000" pt_clust_9="27.77353"></scales>
<clustering>
<clus scale="   27.774">  2  9  1 -1</clus>
<clus scale="   80.312">  5  6 -1 -1</clus>
<clus scale="   91.270">  7  8 -1 -1</clus>
<clus scale="  127.842">  2  5  1 -1</clus>
<clus scale="   27.774">  2  5  1 -1</clus>
</clustering>
</event>
<event>
 9    1  0.7586638E-005  0.1098101E+03  0.7546771E-02  0.1262019E+00
         -2   -1    0    0    0  501 -0.00000000000E+00  0.00000000000E+00  0.77902279789E+02  0.77902279789E+02  0.00000000000E+00 0.  1.
         21   -1    0    0  501  502  0.00000000000E+00 -0.00000000000E+00 -0.39082438046E+03  0.39082438046E+03  0.00000000000E+00 0.  1.
         23    2    1    2    0    0 -0.65539856860E+02  0.49573558037E+02 -0.31304324732E+02  0.12051141752E+03  0.82401641446E+02 0.  0.
        -24    2    1    2    0    0 -0.81115563475E+01 -0.69106354973E+02 -0.23822515238E+03  0.26052841018E+03  0.79261236666E+02 0.  0.
         11    1    4    4    0    0  0.25605318732E+02 -0.36152202530E+02 -0.51451099527E+02  0.67895726947E+02  0.00000000000E+00 0. -1.
        -12    1    4    4    0    0 -0.33716875080E+02 -0.32954152443E+02 -0.18677405286E+03  0.19263268323E+03  0.00000000000E+00 0.  1.
        -13    1    3    3    0    0 -0.20042330000E+02  0.78280329999E+01  0.27720314357E+02  0.35091151599E+02  0.00000000000E+00 0.  1.
         13    1    3    3    0    0 -0.45497526860E+02  0.41745525037E+02 -0.59024639089E+02  0.85420265925E+02  0.00000000000E+00 0. -1.
         -1    1    1    2    0  502  0.73651413208E+02  0.19532796936E+02 -0.43392623562E+02  0.87686832553E+02  0.00000000000E+00 0.  1.
<scales pt_clust_5="13000.00000" pt_clust_6="13000.00000" pt_clust_7="13000.00000" pt_clust_8="13000.00000" pt_clust_9="76.19755"></scales>
<clustering>
<clus scale="   76.198">  2  9  1 -1</clus>
<clus scale="   79.261">  5  6 -1 -1</clus>
<clus scale="   82.402">  7  8 -1 -1</clus>
<clus scale="  107.474">  2  5  1 -1</clus>
<clus scale="   76.198">  2  5  1 -1</clus>
</clustering>
</event>
<event>
 9    1  0.7586638E-005  0.1704833E+03  0.7546771E-02  0.1179271E+00
          1   -1    0    0  502    0 -0.00000000000E+00  0.00000000000E+00  0.89235804816E+03  0.89235804816E+03  0.00000000000E+00 0. -1.
         21   -1    0    0  501  502  0.00000000000E+00 -0.00000000000E+00 -0.47588727238E+02  0.47588727238E+02  0.00000000000E+00 0. -1.
         23    2    1    2    0    0 -0.13368780931E+03  0.61401389416E+02  0.54101364362E+03  0.56836489082E+03  0.93275535665E+02 0.  0.
        -24    2    1    2    0    0  0.10047945466E+03 -0.98206485374E+02  0.25702632476E+03  0.30345668883E+03  0.79264088949E+02 0.  0.
         11    1    4    4    0    0  0.69608423730E+02 -0.95775387505E+02  0.24117205597E+03  0.26866748610E+03  0.00000000000E+00 0. -1.
        -12    1    4    4    0    0  0.30871030929E+02 -0.24310978683E+01  0.15854268783E+02  0.34789202723E+02  0.00000000000E+00 0.  1.
        -13    1    3    3    0    0 -0.10225023104E+03  0.14025966586E+02  0.44471394559E+03  0.45653294612E+03  0.00000000000E+00 0.  1.
         13    1    3    3    0    0 -0.31437578270E+02  0.47375422829E+02  0.96299698029E+02  0.11183194470E+03  0.00000000000E+00 0. -1.
          2    1    1    2  501    0  0.33208354648E+02  0.36805095958E+02  0.46729352544E+02  0.68125195751E+02  0.00000000000E+00 0. -1.
<scales pt_clust_5="13000.00000" pt_clust_6="13000.00000" pt_clust_7="13000.00000" pt_clust_8="13000.00000" pt_clust_9="49.57227"></scales>
<clustering>
<clus scale="   49.572">  2  9  1 -1</clus>
<clus scale="   79.264">  5  6 -1 -1</clus>
<clus scale="   93.276">  7  8 -1 -1</clus>
<clus scale="  163.239">  2  5  1 -1</clus>
<clus scale="   49.572">  2  5  1 -1</clus>
</clustering>
</event>
<event>
 9    1  0.7586638E-005  0.9575878E+02  0.7546771E-02  0.1295889E+00
         21   -1    0    0  501  502  0.00000000000E+00  0.00000000000E+00  0.10370131896E+03  0.10370131896E+03  0.00000000000E+00 0.  1.
          1   -1    0    0  502    0 -0.00000000000E+00 -0.00000000000E+00 -0.19990555631E+03  0.19990555631E+03  0.00000000000E+00 0. -1.
        -24    2    1    2    0    0 -0.17430285277E+01  0.10375672357E+02 -0.61319895998E+02  0.10275847614E+03  0.81783140366E+02 0.  0.
         23    2    1    2    0    0 -0.11910006014E+02 -0.66457894682E+02  0.25113061006E+02  0.11759391394E+03  0.92947096532E+02 0.  0.
         13    1    3    3    0    0  0.34248669311E+02  0.20491462804E+02 -0.13658167907E+02  0.42183135825E+02  0.00000000000E+00 0. -1.
        -14    1    3    3    0    0 -0.35991697839E+02 -0.10115790447E+02 -0.47661728091E+02  0.60575340315E+02  0.00000000000E+00 0.  1.
        -11    1    4    4    0    0 -0.55672863969E+00  0.22786093875E+02 -0.37812307438E+01  0.23104409250E+02  0.00000000000E+00 0. -1.
         11    1    4    4    0    0 -0.11353277374E+02 -0.89243988557E+02  0.28894291750E+02  0.94489504689E+02  0.00000000000E+00 0.  1.
          2    1    1    2  501    0  0.13653034542E+02  0.56082222325E+02 -0.59997402358E+02  0.83254485181E+02  0.00000000000E+00 0. -1.
<scales pt_clust_5="13000.00000" pt_clust_6="13000.00000" pt_clust_7="13000.00000" pt_clust_8="13000.00000" pt_clust_9="57.72022"></scales>
<clustering>
<clus scale="   57.720">  1  9  2 -1</clus>
<clus scale="   81.783">  5  6 -1 -1</clus>
<clus scale="   84.965">  2  5  1 -1</clus>
<clus scale="   92.947">  7  8 -1 -1</clus>
<clus scale="   57.720">  1  5  2 -1</clus>
</clustering>
</event>
<event>
 9    1  0.7586638E-005  0.9583080E+02  0.7546771E-02  0.1296144E+00
         21   -1    0    0  501  502  0.00000000000E+00  0.00000000000E+00  0.80344260117E+02  0.80344260117E+02  0.00000000000E+00 0.  1.
          1   -1    0    0  502    0 -0.00000000000E+00 -0.00000000000E+00 -0.25953686957E+03  0.25953686957E+03  0.00000000000E+00 0. -1.
         23    2    1    2    0    0 -0.57618309016E+00 -0.31904442638E+02 -0.15280105623E+03  0.18085960789E+03  0.91344455410E+02 0.  0.
        -24    2    1    2    0    0 -0.54370991935E+02  0.72978072183E+01 -0.20457657560E+02  0.98524499821E+02  0.79240763234E+02 0.  0.
         11    1    4    4    0    0 -0.27434835244E+02  0.42561908156E+02 -0.26408956293E+01  0.50706612394E+02  0.00000000000E+00 0. -1.
        -12    1    4    4    0    0 -0.26936156691E+02 -0.35264100938E+02 -0.17816761931E+02  0.47817887427E+02  0.00000000000E+00 0.  1.
        -11    1    3    3    0    0  0.33499595750E+02 -0.98624199788E+01 -0.12936469286E+03  0.13399520141E+03  0.00000000000E+00 0. -1.
         11    1    3    3    0    0 -0.34075778840E+02 -0.22042022659E+02 -0.23436363373E+02  0.46864406479E+02  0.00000000000E+00 0.  1.
          2    1    1    2  501    0  0.54947175025E+02  0.24606635419E+02 -0.59338956580E+01  0.60497021973E+02  0.00000000000E+00 0. -1.
<scales pt_clust_5="13000.00000" pt_clust_6="13000.00000" pt_clust_7="13000.00000" pt_clust_8="13000.00000" pt_clust_9="60.20530"></scales>
<clustering>
<clus scale="   60.205">  1  9  2 -1</clus>
<clus scale="   79.241">  5  6 -1 -1</clus>
<clus scale="   84.373">  1  5  2 -1</clus>
<clus scale="   91.344">  7  8 -1 -1</clus>
<clus scale="   60.205">  1  5  2 -1</clus>
</clustering>
</event>
<event>
 9    1  0.7586638E-005  0.1530871E+03  0.7546771E-02  0.1199903E+00
          1   -1    0    0  502    0 -0.00000000000E+00  0.00000000000E+00  0.12574154972E+04  0.12574154972E+04  0.00000000000E+00 0. -1.
         21   -1    0    0  501  502  0.00000000000E+00 -0.00000000000E+00 -0.21798219946E+02  0.21798219946E+02  0.00000000000E+00 0. -1.
        -24    2    1    2    0    0  0.55434760837E+02  0.10262567156E+03  0.66561806565E+03  0.68059445482E+03  0.80971361842E+02 0.  0.
         23    2    1    2    0    0 -0.33505074381E+02 -0.11653141026E+03  0.46329424246E+03  0.48880017857E+03  0.97887179391E+02 0.  0.
         13    1    3    3    0    0  0.58634630172E+02  0.24454144355E+02  0.27938090250E+03  0.28651302538E+03  0.00000000000E+00 0. -1.
        -14    1    3    3    0    0 -0.31998693346E+01  0.78171527206E+02  0.38623716315E+03  0.39408142944E+03  0.00000000000E+00 0.  1.
        -11    1    4    4    0    0  0.29841795451E+02 -0.27012916767E+02  0.19210387999E+03  0.19627565090E+03  0.00000000000E+00 0.  1.
         11    1    4    4    0    0 -0.63346869831E+02 -0.89518493495E+02  0.27119036247E+03  0.29252452768E+03  0.00000000000E+00 0. -1.
          2    1    1    2  501    0 -0.21929686457E+02  0.13905738701E+02  0.10670496918E+03  0.10981908379E+03  0.00000000000E+00 0. -1.
<scales pt_clust_5="13000.00000" pt_clust_6="13000.00000" pt_clust_7="13000.00000" pt_clust_8="13000.00000" pt_clust_9="25.96693"></scales>
<clustering>
<clus scale="   25.967">  2  9  1 -1</clus>
<clus scale="   80.971">  5  6 -1 -1</clus>
<clus scale="   97.887">  7  8 -1 -1</clus>
<clus scale="  142.864">  1  5  2 -1</clus>
<clus scale="   25.967">  2  5  1 -1</clus>
</clustering>
</event>
<event>
 9    1  0.7586638E-005  0.1400979E+03  0.7546771E-02  0.1215553E+00
          1   -1    0    0  502    0 -0.00000000000E+00  0.00000000000E+00  0.10759263546E+04  0.10759263546E+04  0.00000000000E+00 0. -1.
         21   -1    0    0  501  502  0.00000000000E+00 -0.00000000000E+00 -0.55269851588E+02  0.55269851588E+02  0.00000000000E+00 0. -1.
         23    2    1    2    0    0  0.57941958179E+02  0.29745552615E+02  0.99993459179E+02  0.15107003199E+03  0.92635815253E+02 0.  0.
        -24    2    1    2    0    0 -0.14732547396E+03 -0.24126934461E+02  0.24396089643E+03  0.29752323100E+03  0.81952728791E+02 0.  0.
         13    1    4    4    0    0 -0.11109776865E+03  0.18458120551E+02  0.18236160793E+03  0.21433425405E+03  0.00000000000E+00 0. -1.
        -14    1    4    4    0    0 -0.36227705304E+02 -0.42585055013E+02  0.61599288494E+02  0.83188976944E+02  0.00000000000E+00 0.  1.
        -13    1    3    3    0    0  0.26892133353E+02 -0.24009957273E+02  0.76727508920E+02  0.84774851870E+02  0.00000000000E+00 0.  1.
         13    1    3    3    0    0  0.31049824826E+02  0.53755509889E+02  0.23265950259E+02  0.66295180116E+02  0.00000000000E+00 0. -1.
          2    1    1    2  501    0  0.89383515778E+02 -0.56186181540E+01  0.67670214737E+03  0.68260294316E+03  0.00000000000E+00 0. -1.
<scales pt_clust_5="13000.00000" pt_clust_6="13000.00000" pt_clust_7="13000.00000" pt_clust_8="13000.00000" pt_clust_9="89.55998"></scales>
<clustering>
<clus scale="   81.953">  5  6 -1 -1</clus>
<clus scale="   89.560">  2  9  1 -1</clus>
<clus scale="   92.636">  7  8 -1 -1</clus>
<clus scale="  133.275">  2  5  1 -1</clus>
<clus scale="   89.560">  2  5  1 -1</clus>
</clustering>
</event>
<event>
 9    1  0.7586638E-005  0.9692549E+02  0.7546771E-02  0.1293983E+00
          1   -1    0    0  502    0 -0.00000000000E+00  0.00000000000E+00  0.45544626233E+03  0.45544626233E+03  0.00000000000E+00 0. -1.
         21   -1    0    0  501  502  0.00000000000E+00 -0.00000000000E+00 -0.51519950433E+02  0.51519950433E+02  0.00000000000E+00 0. -1.
        -24    2    1    2    0    0  0.25547865608E+02 -0.19569257288E+02  0.34507321410E+03  0.35525089591E+03  0.78051436159E+02 0.  0.
         23    2    1    2    0    0 -0.13079107408E+02  0.45563719685E+02  0.66016653649E+02  0.12200843990E+03  0.90998600235E+02 0.  0.
         11    1    3    3    0    0  0.50275221372E+02  0.32718052625E+00  0.25045884768E+03  0.25545516106E+03  0.00000000000E+00 0. -1.
        -12    1    3    3    0    0 -0.24727355765E+02 -0.19896437814E+02  0.94614366419E+02  0.99795734847E+02  0.00000000000E+00 0.  1.
        -11    1    4    4    0    0 -0.22585083944E+02 -0.22752782277E+02  0.11389870358E+02  0.34022114351E+02  0.00000000000E+00 0.  1.
         11    1    4    4    0    0  0.95059765358E+01  0.68316501962E+02  0.54626783291E+02  0.87986325545E+02  0.00000000000E+00 0. -1.
          2    1    1    2  501    0 -0.12468758199E+02 -0.25994462397E+02 -0.71635558496E+01  0.29706876961E+02  0.00000000000E+00 0. -1.
<scales pt_clust_5="13000.00000" pt_clust_6="13000.00000" pt_clust_7="13000.00000" pt_clust_8="13000.00000" pt_clust_9="28.83023"></scales>
<clustering>
<clus scale="   28.830">  2  9  1 -1</clus>
<clus scale="   78.051">  5  6 -1 -1</clus>
<clus scale="   84.887">  1  5  2 -1</clus>
<clus scale="   90.999">  7  8 -1 -1</clus>
<clus scale="   28.830">  2  5  1 -1</clus>
</clustering>
</event>
<event>
 9    1  0.7586638E-005  0.4839278E+03  0.7546771E-02  0.1043511E+00
         21   -1    0    0  501  502  0.00000000000E+00  0.00000000000E+00  0.40839180852E+03  0.40839180852E+03  0.00000000000E+00 0. -1.
          1   -1    0    0  502    0 -0.00000000000E+00 -0.00000000000E+00 -0.12709269768E+04  0.12709269768E+04  0.00000000000E+00 0. -1.
         23    2    1    2    0    0  0.70012782943E+02 -0.19611437439E+03  0.95683938934E+02  0.24694459755E+03  0.91997719921E+02 0.  0.
        -24    2    1    2    0    0 -0.31804267132E+03 -0.25709770277E+03 -0.78264986466E+03  0.88671442994E+03  0.80444391103E+02 0.  0.
         11    1    4    4    0    0 -0.31802510474E+03 -0.23748490778E+03 -0.73849272275E+03  0.83839760867E+03  0.00000000000E+00 0. -1.
        -12    1    4    4    0    0 -0.17566582049E-01 -0.19612794997E+02 -0.44157141915E+02  0.48316821277E+02  0.00000000000E+00 0.  1.
        -11    1    3    3    0    0 -0.10027964535E+01 -0.81763342547E+02 -0.41924947997E-01  0.81769502523E+02  0.00000000000E+00 0.  1.
         11    1    3    3    0    0  0.71015579396E+02 -0.11435103184E+03  0.95725863882E+02  0.16517509502E+03  0.00000000000E+00 0. -1.
          2    1    1    2  501    0  0.24802988838E+03  0.45321207716E+03 -0.17556924259E+03  0.54565975787E+03  0.00000000000E+00 0. -1.
<scales pt_clust_5="13000.00000" pt_clust_6="13000.00000" pt_clust_7="13000.00000" pt_clust_8="13000.00000" pt_clust_9="477.19472"></scales>
<clustering>
<clus scale="   80.444">  5  6 -1 -1</clus>
<clus scale="   91.998">  7  8 -1 -1</clus>
<clus scale="  227.654">  2  7  1 -1</clus>
<clus scale="  477.195">  1  9  2 -1</clus>
<clus scale="  477.195">  1  5  2 -1</clus>
</clustering>
</event>
<event>
 9    1  0.7586638E-005  0.1376838E+03  0.7546771E-02  0.1218072E+00
         21   -1    0    0  501  502  0.00000000000E+00  0.00000000000E+00  0.38326671795E+03  0.38326671795E+03  0.00000000000E+00 0.  1.
          3   -1    0    0  502    0 -0.00000000000E+00 -0.00000000000E+00 -0.67337538880E+02  0.67337538880E+02  0.00000000000E+00 0. -1.
         23    2    1    2    0    0  0.88989862037E+02 -0.66286228967E+02  0.59899987613E+02  0.15491487239E+03  0.89986384943E+02 0.  0.
        -24    2    1    2    0    0 -0.79758952639E+02  0.43614521506E+02  0.20451123112E+03  0.23865153522E+03  0.82861297314E+02 0.  0.
         13    1    4    4    0    0 -0.49539783439E+02 -0.19044223303E+02  0.79502851000E+02  0.95590668486E+02  0.00000000000E+00 0. -1.
        -14    1    4    4    0    0 -0.30219169200E+02  0.62658744810E+02  0.12500838012E+03  0.14306086673E+03  0.00000000000E+00 0.  1.
        -13    1    3    3    0    0  0.48259999057E+02 -0.80607616598E+02  0.60485077810E+02  0.11173656519E+03  0.00000000000E+00 0.  1.
         13    1    3    3    0    0  0.40729862980E+02  0.14321387631E+02 -0.58509019654E+00  0.43178307199E+02  0.00000000000E+00 0. -1.
          4    1    1    2  501    0 -0.92309093975E+01  0.22671707460E+02  0.51517960335E+02  0.57037849228E+02  0.00000000000E+00 0. -1.
<scales pt_clust_5="13000.00000" pt_clust_6="13000.00000" pt_clust_7="13000.00000" pt_clust_8="13000.00000" pt_clust_9="24.47889"></scales>
<clustering>
<clus scale="   24.479">  1  9  2 -1</clus>
<clus scale="   82.861">  5  6 -1 -1</clus>
<clus scale="   89.986">  7  8 -1 -1</clus>
<clus scale="  133.136">  1  5  2 -1</clus>
<clus scale="   24.479">  1  5  2 -1</clus>
</clustering>
</event>
<event>
 9    1  0.7586638E-005  0.2211581E+03  0.7546771E-02  0.1173631E+00
          1   -1    0    0  502    0 -0.00000000000E+00  0.00000000000E+00  0.85045161334E+03  0.85045161334E+03  0.00000000000E+00 0. -1.
         21   -1    0    0  501  502  0.00000000000E+00 -0.00000000000E+00 -0.17389949342E+03  0.17389949342E+03  0.00000000000E+00 0. -1.
        -24    2    1    2    0    0 -0.17683650749E+02  0.21202469448E+02  0.41330028530E+03  0.42194006852E+03  0.80337036201E+02 0.  0.
         23    2    1    2    0    0 -0.53664401963E+01  0.18306340905E+03  0.32831570063E+03  0.38679758209E+03  0.90995383518E+02 0.  0.
         11    1    3    3    0    0 -0.34464271146E+02  0.41500502478E+02  0.20489914356E+03  0.21188142137E+03  0.00000000000E+00 0. -1.
        -12    1    3    3    0    0  0.16780620397E+02 -0.20298033030E+02  0.20840114174E+03  0.21005864715E+03  0.00000000000E+00 0.  1.
        -13    1    4    4    0    0 -0.45948673114E+02  0.12191094994E+03  0.22632480577E+03  0.26114455380E+03  0.00000000000E+00 0. -1.
         13    1    4    4    0    0  0.40582232918E+02  0.61152459115E+02  0.10199089486E+03  0.12565302829E+03  0.00000000000E+00 0.  1.
          2    1    1    2  501    0  0.23050090946E+02 -0.20426587850E+03 -0.65063866001E+02  0.21561345615E+03  0.00000000000E+00 0. -1.
<scales pt_clust_5="13000.00000" pt_clust_6="13000.00000" pt_clust_7="13000.00000" pt_clust_8="13000.00000" pt_clust_9="201.57064"></scales>
<clustering>
<clus scale="   80.337">  5  6 -1 -1</clus>
<clus scale="   84.949">  1  5  2 -1</clus>
<clus scale="   90.995">  7  8 -1 -1</clus>
<clus scale="  201.571">  2  9  1 -1</clus>
<clus scale="  201.571">  2  5  1 -1</clus>
</clustering>
</event>
<event>
 9    1  0.7586638E-005  0.9454916E+02  0.7546771E-02  0.1300679E+00
          1   -1    0    0  502    0 -0.00000000000E+00  0.00000000000E+00  0.27108914186E+03  0.27108914186E+03  0.00000000000E+00 0. -1.
         21   -1    0    0  501  502  0.00000000000E+00 -0.00000000000E+00 -0.15905675190E+03  0.15905675190E+03  0.00000000000E+00 0. -1.
        -24    2    1    2    0    0 -0.31296399352E+02  0.21840728253E+01  0.16737838873E+03  0.18787377495E+03  0.79352350397E+02 0.  0.
         23    2    1    2    0    0 -0.42677764094E+02  0.25801528975E+02  0.44589686793E+02  0.11482600465E+03  0.93325563109E+02 0.  0.
         13    1    3    3    0    0 -0.47505029321E+02  0.25792401858E+02  0.12996834981E+03  0.14076131485E+03  0.00000000000E+00 0. -1.
        -14    1    3    3    0    0  0.16208629969E+02 -0.23608329032E+02  0.37410038919E+02  0.47112460104E+02  0.00000000000E+00 0.  1.
        -11    1    4    4    0    0 -0.40015032288E+02 -0.26994830940E+01 -0.19528827073E+02  0.44607904062E+02  0.00000000000E+00 0. -1.
         11    1    4    4    0    0 -0.26627318063E+01  0.28501012069E+02  0.64118513865E+02  0.70218100586E+02  0.00000000000E+00 0.  1.
          2    1    1    2  501    0  0.73974163446E+02 -0.27985601800E+02 -0.99935685568E+02  0.12744611416E+03  0.00000000000E+00 0. -1.
<scales pt_clust_5="13000.00000" pt_clust_6="13000.00000" pt_clust_7="13000.00000" pt_clust_8="13000.00000" pt_clust_9="79.09090"></scales>
<clustering>
<clus scale="   79.091">  2  9  1 -1</clus>
<clus scale="   79.352">  5  6 -1 -1</clus>
<clus scale="   80.788">  1  5  2 -1</clus>
<clus scale="   93.326">  7  8 -1 -1</clus>
<clus scale="   79.091">  2  5  1 -1</clus>
</clustering>
</event>
<event>
 9    1  0.7586638E-005  0.2995376E+03  0.7546771E-02  0.1127277E+00
          1   -1    0    0  502    0 -0.00000000000E+00  0.00000000000E+00  0.23129724045E+04  0.23129724045E+04  0.00000000000E+00 0. -1.
         21   -1    0    0  501  502  0.00000000000E+00 -0.00000000000E+00 -0.55740693114E+02  0.55740693114E+02  0.00000000000E+00 0. -1.
         23    2    1    2    0    0 -0.31146768368E+02 -0.33284189811E+02  0.17097524421E+03  0.19934606452E+03  0.91806104572E+02 0.  0.
        -24    2    1    2    0    0 -0.60311150674E+02  0.29695823995E+03  0.11972888306E+04  0.12376202785E+04  0.79886036849E+02 0.  0.
         13    1    4    4    0    0 -0.68182541614E+02  0.26313717191E+03  0.95775732317E+03  0.99558481321E+03  0.00000000000E+00 0. -1.
        -14    1    4    4    0    0  0.78713909398E+01  0.33821068044E+02  0.23953150740E+03  0.24203546532E+03  0.00000000000E+00 0.  1.
        -11    1    3    3    0    0  0.10605472018E+02  0.27061645890E+02  0.51438041765E+02  0.59081984188E+02  0.00000000000E+00 0. -1.
         11    1    3    3    0    0 -0.41752240385E+02 -0.60345835700E+02  0.11953720245E+03  0.14026408034E+03  0.00000000000E+00 0.  1.
          2    1    1    2  501    0  0.91457919042E+02 -0.26367405014E+03  0.88896763657E+03  0.93174675451E+03  0.00000000000E+00 0. -1.
<scales pt_clust_5="13000.00000" pt_clust_6="13000.00000" pt_clust_7="13000.00000" pt_clust_8="13000.00000" pt_clust_9="288.68837"></scales>
<clustering>
<clus scale="   79.886">  5  6 -1 -1</clus>
<clus scale="   91.806">  7  8 -1 -1</clus>
<clus scale="  102.500">  1  7  2 -1</clus>
<clus scale="  288.688">  2  9  1 -1</clus>
<clus scale="  288.688">  2  5  1 -1</clus>
</clustering>
</event>
<event>
 9    1  0.7586638E-005  0.2015574E+03  0.7546771E-02  0.1149026E+00
         21   -1    0    0  501  502  0.00000000000E+00  0.00000000000E+00  0.36303037329E+03  0.36303037329E+03  0.00000000000E+00 0. -1.
          1   -1    0    0  502    0 -0.00000000000E+00 -0.00000000000E+00 -0.19965008535E+03  0.19965008535E+03  0.00000000000E+00 0. -1.
        -24    2    1    2    0    0  0.10081818413E+03 -0.11026410567E+03  0.11729984447E+03  0.21349298181E+03  0.97455223157E+02 0.  0.
         23    2    1    2    0    0 -0.73054436189E+02  0.19758105460E+03  0.91144476760E+02  0.24708046254E+03  0.91467018860E+02 0.  0.
         11    1    3    3    0    0  0.10118222178E+03 -0.41091364346E+02  0.71692167735E+02  0.13063731910E+03  0.00000000000E+00 0. -1.
        -12    1    3    3    0    0 -0.36403765568E+00 -0.69172741319E+02  0.45607676736E+02  0.82855662705E+02  0.00000000000E+00 0.  1.
        -11    1    4    4    0    0 -0.86752757470E+02  0.14587198984E+03  0.93050485192E+02  0.19355379393E+03  0.00000000000E+00 0.  1.
         11    1    4    4    0    0  0.13698321282E+02  0.51709064760E+02 -0.19060084325E+01  0.53526668610E+02  0.00000000000E+00 0. -1.
          2    1    1    2  501    0 -0.27763747936E+02 -0.87316948938E+02 -0.45064033284E+02  0.10210701429E+03  0.00000000000E+00 0. -1.
<scales pt_clust_5="13000.00000" pt_clust_6="13000.00000" pt_clust_7="13000.00000" pt_clust_8="13000.00000" pt_clust_9="91.62469"></scales>
<clustering>
<clus scale="   91.467">  7  8 -1 -1</clus>
<clus scale="   91.625">  1  9  2 -1</clus>
<clus scale="   97.455">  5  6 -1 -1</clus>
<clus scale="  198.731">  1  7  2 -1</clus>
<clus scale="   91.625">  1  5  2 -1</clus>
</clustering>
</event>
<event>
 9    1  0.7586638E-005  0.9563763E+02  0.7546771E-02  0.1294842E+00
         21   -1    0    0  501  502  0.00000000000E+00  0.00000000000E+00  0.20868305692E+03  0.20868305692E+03  0.00000000000E+00 0. -1.
          1   -1    0    0  502    0 -0.00000000000E+00 -0.00000000000E+00 -0.10500416550E+03  0.10500416550E+03  0.00000000000E+00 0. -1.
        -24    2    1    2    0    0 -0.19789976996E+02 -0.22451295618E+01  0.29720151515E+02  0.88490521255E+02  0.80935784111E+02 0.  0.
         23    2    1    2    0    0  0.60340138719E+02  0.34349486712E+01  0.12133967507E+03  0.16282135104E+03  0.90192817873E+02 0.  0.
         13    1    3    3    0    0 -0.30939643823E+02  0.49566717090E+01  0.53070989358E+02  0.61630836971E+02  0.00000000000E+00 0. -1.
        -14    1    3    3    0    0  0.11149666827E+02 -0.72018012708E+01 -0.23350837843E+02  0.26859684284E+02  0.00000000000E+00 0.  1.
        -11    1    4    4    0    0  0.55750644038E+02  0.39298966663E+02  0.56452453534E+02  0.88540513898E+02  0.00000000000E+00 0.  1.
         11    1    4    4    0    0  0.45894946807E+01 -0.35864017991E+02  0.64887221538E+02  0.74280837144E+02  0.00000000000E+00 0. -1.
          2    1    1    2  501    0 -0.40550161723E+02 -0.11898191094E+01 -0.47380935173E+02  0.62375350124E+02  0.00000000000E+00 0. -1.
<scales pt_clust_5="13000.00000" pt_clust_6="13000.00000" pt_clust_7="13000.00000" pt_clust_8="13000.00000" pt_clust_9="40.56763"></scales>
<clustering>
<clus scale="   40.568">  1  9  2 -1</clus>
<clus scale="   80.936">  5  6 -1 -1</clus>
<clus scale="   86.962">  2  5  1 -1</clus>
<clus scale="   90.193">  7  8 -1 -1</clus>
<clus scale="   40.568">  1  5  2 -1</clus>
</clustering>
</event>
<event>
 9    1  0.7586638E-005  0.1291750E+03  0.7546771E-02  0.1232021E+00
         21   -1    0    0  501  502  0.00000000000E+00  0.00000000000E+00  0.42872692163E+02  0.42872692163E+02  0.00000000000E+00 0. -1.
         -2   -1    0    0    0  501 -0.00000000000E+00 -0.00000000000E+00 -0.68103426900E+03  0.68103426900E+03  0.00000000000E+00 0.  1.
         23    2    1    2    0    0  0.24902777769E+02 -0.70269728867E+02 -0.17233801663E+03  0.20883225503E+03  0.91392207697E+02 0.  0.
        -24    2    1    2    0    0  0.22868686509E+02  0.11461766005E+03 -0.22429302361E+03  0.26490306124E+03  0.78778719188E+02 0.  0.
         11    1    4    4    0    0 -0.80642123454E+01  0.53361913427E+02 -0.36997502917E+02  0.65431953566E+02  0.00000000000E+00 0. -1.
        -12    1    4    4    0    0  0.30932898855E+02  0.61255746627E+02 -0.18729552069E+03  0.19947110768E+03  0.00000000000E+00 0.  1.
        -13    1    3    3    0    0 -0.33394145244E+02 -0.12453837914E+02 -0.46731748064E+02  0.58771789938E+02  0.00000000000E+00 0.  1.
         13    1    3    3    0    0  0.58296923013E+02 -0.57815890954E+02 -0.12560626857E+03  0.15006046509E+03  0.00000000000E+00 0. -1.
         -1    1    1    2    0  502 -0.47771464278E+02 -0.44347931187E+02 -0.24153053660E+03  0.25017164489E+03  0.00000000000E+00 0.  1.
<scales pt_clust_5="13000.00000" pt_clust_6="13000.00000" pt_clust_7="13000.00000" pt_clust_8="13000.00000" pt_clust_9="65.18325"></scales>
<clustering>
<clus scale="   65.183">  1  9  2 -1</clus>
<clus scale="   78.779">  5  6 -1 -1</clus>
<clus scale="   91.392">  7  8 -1 -1</clus>
<clus scale="  120.581">  1  5  2 -1</clus>
<clus scale="   65.183">  1  5  2 -1</clus>
</clustering>
</event>
<event>
 9    1  0.7586638E-005  0.3911036E+03  0.7546771E-02  0.1091029E+00
          1   -1    0    0  502    0 -0.00000000000E+00  0.00000000000E+00  0.17421748370E+04  0.17421748370E+04  0.00000000000E+00 0. -1.
         21   -1    0    0  501  502  0.00000000000E+00 -0.00000000000E+00 -0.15360168840E+03  0.15360168840E+03  0.00000000000E+00 0. -1.
        -24    2    1    2    0    0 -0.36118170424E+02 -0.75626230731E+02  0.29256279071E+03  0.31476597546E+03  0.80379000910E+02 0.  0.
         23    2    1    2    0    0  0.38234036846E+03 -0.54637632680E+02  0.24353145978E+03  0.46541639637E+03  0.90196573386E+02 0.  0.
         11    1    3    3    0    0 -0.21226485628E+02  0.13503195026E+02  0.51332767707E+02  0.57166012704E+02  0.00000000000E+00 0. -1.
        -12    1    3    3    0    0 -0.14891684796E+02 -0.89129425756E+02  0.24123002300E+03  0.25759996275E+03  0.00000000000E+00 0.  1.
        -13    1    4    4    0    0  0.11965422415E+03  0.24931794550E+01  0.12029348197E+03  0.16968756910E+03  0.00000000000E+00 0.  1.
         13    1    4    4    0    0  0.26268614431E+03 -0.57130812135E+02  0.12323797781E+03  0.29572882727E+03  0.00000000000E+00 0. -1.
          2    1    1    2  501    0 -0.34622219803E+03  0.13026386341E+03  0.10524788981E+04  0.11155941536E+04  0.00000000000E+00 0. -1.
<scales pt_clust_5="13000.00000" pt_clust_6="13000.00000" pt_clust_7="13000.00000" pt_clust_8="13000.00000" pt_clust_9="380.56105"></scales>
<clustering>
<clus scale="   80.379">  5  6 -1 -1</clus>
<clus scale="   90.197">  7  8 -1 -1</clus>
<clus scale="  116.123">  1  5  2 -1</clus>
<clus scale="  380.561">  2  9  1 -1</clus>
<clus scale="  380.561">  2  5  1 -1</clus>
</clustering>
</event>
<event>
 9    1  0.7586638E-005  0.2459634E+03  0.7546771E-02  0.1115883E+00
          1   -1    0    0  502    0 -0.00000000000E+00  0.00000000000E+00  0.79626421582E+03  0.79626421582E+03  0.00000000000E+00 0. -1.
         21   -1    0    0  501  502  0.00000000000E+00 -0.00000000000E+00 -0.13033301330E+03  0.13033301330E+03  0.00000000000E+00 0.  1.
        -24    2    1    2    0    0 -0.10709293687E+02 -0.13818649979E+02  0.42504408525E+02  0.93501945493E+02  0.81426930486E+02 0.  0.
         23    2    1    2    0    0 -0.64296178005E+02 -0.10422609101E+03 -0.42682730264E+02  0.15246154955E+03  0.80160040389E+02 0.  0.
         13    1    3    3    0    0 -0.15400605562E+02 -0.14462303154E+02  0.66121601895E+02  0.69414718189E+02  0.00000000000E+00 0. -1.
        -14    1    3    3    0    0  0.46913118757E+01  0.64365317508E+00 -0.23617193369E+02  0.24087227303E+02  0.00000000000E+00 0.  1.
        -13    1    4    4    0    0 -0.13014280483E+02 -0.28907710136E+02 -0.51963922691E+02  0.60870982111E+02  0.00000000000E+00 0.  1.
         13    1    4    4    0    0 -0.51281897521E+02 -0.75318380875E+02  0.92811924262E+01  0.91590567439E+02  0.00000000000E+00 0. -1.
          2    1    1    2  501    0  0.75005471691E+02  0.11804474099E+03  0.66610952426E+03  0.68063373408E+03  0.00000000000E+00 0. -1.
<scales pt_clust_5="13000.00000" pt_clust_6="13000.00000" pt_clust_7="13000.00000" pt_clust_8="13000.00000" pt_clust_9="139.85850"></scales>
<clustering>
<clus scale="   80.160">  7  8 -1 -1</clus>
<clus scale="   81.427">  5  6 -1 -1</clus>
<clus scale="   81.472">  5  7 -1 -1</clus>
<clus scale="  139.859">  2  9  1 -1</clus>
<clus scale="  139.859">  2  5  1 -1</clus>
</clustering>
</event>
<event>
 9    1  0.7586638E-005  0.2658555E+03  0.7546771E-02  0.1130627E+00
          1   -1    0    0  502    0 -0.00000000000E+00  0.00000000000E+00  0.14021145623E+04  0.14021145623E+04  0.00000000000E+00 0. -1.
         21   -1    0    0  501  502  0.00000000000E+00 -0.00000000000E+00 -0.15340726644E+03  0.15340726644E+03  0.00000000000E+00 0. -1.
        -24    2    1    2    0    0 -0.74707532958E+02  0.80445851382E+02 -0.48447543464E+02  0.14343332842E+03  0.78569744485E+02 0.  0.
         23    2    1    2    0    0 -0.15054126066E+03  0.93203921155E+02  0.91114945936E+03  0.93261856812E+03  0.90743673255E+02 0.  0.
         11    1    3    3    0    0 -0.18156403972E+02  0.72895387419E+02 -0.12927187083E+02  0.76226666450E+02  0.00000000000E+00 0. -1.
        -12    1    3    3    0    0 -0.56551128986E+02  0.75504639631E+01 -0.35520356381E+02  0.67206661969E+02  0.00000000000E+00 0.  1.
        -11    1    4    4    0    0 -0.13267928762E+03  0.47518212881E+02  0.77927832018E+03  0.79191948721E+03  0.00000000000E+00 0. -1.
         11    1    4    4    0    0 -0.17861973042E+02  0.45685708274E+02  0.13187113918E+03  0.14069908091E+03  0.00000000000E+00 0.  1.
          2    1    1    2  501    0  0.22524879362E+03 -0.17364977254E+03  0.38600538001E+03  0.47946993224E+03  0.00000000000E+00 0. -1.
<scales pt_clust_5="13000.00000" pt_clust_6="13000.00000" pt_clust_7="13000.00000" pt_clust_8="13000.00000" pt_clust_9="249.88948"></scales>
<clustering>
<clus scale="   78.570">  5  6 -1 -1</clus>
<clus scale="   90.744">  7  8 -1 -1</clus>
<clus scale="  135.004">  1  5  2 -1</clus>
<clus scale="  249.889">  2  9  1 -1</clus>
<clus scale="  249.889">  2  5  1 -1</clus>
</clustering>
</event>
<event>
 9    1  0.7586638E-005  0.9907594E+02  0.7546771E-02  0.1290697E+00
          1   -1    0    0  502    0 -0.00000000000E+00  0.00000000000E+00  0.70519496545E+03  0.70519496545E+03  0.00000000000E+00 0. -1.
         21   -1    0    0  501  502  0.00000000000E+00 -0.00000000000E+00 -0.96950487577E+02  0.96950487577E+02  0.00000000000E+00 0. -1.
         23    2    1    2    0    0  0.28016254334E+02  0.12219842986E+02  0.47827858312E+03  0.48935538483E+03  0.98914379710E+02 0.  0.
        -24    2    1    2    0    0  0.53055064436E+02  0.11620952221E+02  0.18644010582E+03  0.21115208927E+03  0.82918064095E+02 0.  0.
         11    1    4    4    0    0  0.53575362329E+02  0.40323969393E+02  0.15319464992E+03  0.16722721884E+03  0.00000000000E+00 0. -1.
        -12    1    4    4    0    0 -0.52029789363E+00 -0.28703017172E+02  0.33245455900E+02  0.43924870435E+02  0.00000000000E+00 0.  1.
        -11    1    3    3    0    0  0.23700744935E+01 -0.42665910860E+02  0.18244946382E+03  0.18738677662E+03  0.00000000000E+00 0.  1.
         11    1    3    3    0    0  0.25646179840E+02  0.54885753845E+02  0.29582911931E+03  0.30196860821E+03  0.00000000000E+00 0. -1.
          2    1    1    2  501    0 -0.81071318770E+02 -0.23840795207E+02 -0.56474211075E+02  0.10163797892E+03  0.00000000000E+00 0. -1.
<scales pt_clust_5="13000.00000" pt_clust_6="13000.00000" pt_clust_7="13000.00000" pt_clust_8="13000.00000" pt_clust_9="84.50410"></scales>
<clustering>
<clus scale="   82.918">  5  6 -1 -1</clus>
<clus scale="   84.504">  2  9  1 -1</clus>
<clus scale="   84.504">  2  5  1 -1</clus>
<clus scale="   98.914">  7  8 -1 -1</clus>
<clus scale="   84.504">  2  5  1 -1</clus>
</clustering>
</event>
<event>
 9    1  0.7586638E-005  0.9862760E+02  0.7546771E-02  0.1288965E+00
         -4   -1    0    0    0  501 -0.00000000000E+00  0.00000000000E+00  0.91934863424E+02  0.91934863424E+02  0.00000000000E+00 0.  1.
         21   -1    0    0  501  502  0.00000000000E+00 -0.00000000000E+00 -0.61492193847E+03  0.61492193847E+03  0.00000000000E+00 0. -1.
        -24    2    1    2    0    0  0.22872153624E+02 -0.34269665408E+02  0.48928383520E+02  0.10158038761E+03  0.78911615466E+02 0.  0.
         23    2    1    2    0    0  0.52330638446E+02  0.57644807060E+02 -0.36081028965E+03  0.37996052596E+03  0.90136100844E+02 0.  0.
         11    1    3    3    0    0  0.17238538661E+02  0.19234026996E+02  0.39145538931E+02  0.46898701771E+02  0.00000000000E+00 0. -1.
        -12    1    3    3    0    0  0.56336149635E+01 -0.53503692403E+02  0.97828445890E+01  0.54681685843E+02  0.00000000000E+00 0.  1.
        -13    1    4    4    0    0  0.60062775490E+02  0.74704131895E+01 -0.12677213868E+03  0.14047960427E+03  0.00000000000E+00 0.  1.
         13    1    4    4    0    0 -0.77321370446E+01  0.50174393871E+02 -0.23403815097E+03  0.23948092169E+03  0.00000000000E+00 0. -1.
         -3    1    1    2    0  502 -0.75202792070E+02 -0.23375141653E+02 -0.21110516892E+03  0.22531588831E+03  0.00000000000E+00 0.  1.
<scales pt_clust_5="13000.00000" pt_clust_6="13000.00000" pt_clust_7="13000.00000" pt_clust_8="13000.00000" pt_clust_9="78.75187"></scales>
<clustering>
<clus scale="   78.752">  2  9  1 -1</clus>
<clus scale="   78.912">  5  6 -1 -1</clus>
<clus scale="   88.487">  1  5  2 -1</clus>
<clus scale="   90.136">  7  8 -1 -1</clus>
<clus scale="   78.752">  2  5  1 -1</clus>
</clustering>
</event>
<event>
 9    1  0.7586638E-005  0.9405277E+02  0.7546771E-02  0.1301359E+00
         -2   -1    0    0    0  501 -0.00000000000E+00  0.00000000000E+00  0.32138653688E+03  0.32138653688E+03  0.00000000000E+00 0.  1.
         21   -1    0    0  501  502  0.00000000000E+00 -0.00000000000E+00 -0.58479744772E+02  0.58479744772E+02  0.00000000000E+00 0. -1.
        -24    2    1    2    0    0 -0.97550388794E+01 -0.57939727078E+01  0.23921173086E+03  0.25238417544E+03  0.79666736634E+02 0.  0.
         23    2    1    2    0    0  0.30497253082E+02  0.18291787759E+02  0.27006787203E+02  0.10304029041E+03  0.92861525657E+02 0.  0.
         11    1    3    3    0    0  0.20570193354E+02 -0.31557455513E+02  0.82394884205E+02  0.90597587143E+02  0.00000000000E+00 0. -1.
        -12    1    3    3    0    0 -0.30325232234E+02  0.25763482805E+02  0.15681684666E+03  0.16178658829E+03  0.00000000000E+00 0.  1.
        -13    1    4    4    0    0 -0.60462597190E+01 -0.25289056461E+02  0.37072305218E+02  0.45281888736E+02  0.00000000000E+00 0.  1.
         13    1    4    4    0    0  0.36543512801E+02  0.43580844220E+02 -0.10065518015E+02  0.57758401672E+02  0.00000000000E+00 0. -1.
         -1    1    1    2    0  502 -0.20742214203E+02 -0.12497815051E+02 -0.33117259575E+01  0.24441815806E+02  0.00000000000E+00 0.  1.
<scales pt_clust_5="13000.00000" pt_clust_6="13000.00000" pt_clust_7="13000.00000" pt_clust_8="13000.00000" pt_clust_9="24.21642"></scales>
<clustering>
<clus scale="   24.216">  2  9  1 -1</clus>
<clus scale="   79.667">  5  6 -1 -1</clus>
<clus scale="   81.052">  1  5  2 -1</clus>
<clus scale="   92.862">  7  8 -1 -1</clus>
<clus scale="   24.216">  2  5  1 -1</clus>
</clustering>
</event>
<event>
 9    1  0.7586638E-005  0.9921475E+02  0.7546771E-02  0.1288425E+00
          1   -1    0    0  502    0 -0.00000000000E+00  0.00000000000E+00  0.32565920722E+03  0.32565920722E+03  0.00000000000E+00 0. -1.
         21   -1    0    0  501  502  0.00000000000E+00 -0.00000000000E+00 -0.12187505683E+03  0.12187505683E+03  0.00000000000E+00 0. -1.
        -24    2    1    2    0    0 -0.18210982205E+02  0.40400012121E+02  0.23533986707E+03  0.25246973957E+03  0.79951957543E+02 0.  0.
         23    2    1    2    0    0  0.24064682277E+02  0.36941272738E+01  0.45744941153E+02  0.10587960067E+03  0.92331655933E+02 0.  0.
         11    1    3    3    0    0 -0.36695192701E+02  0.34840940433E+02  0.22490632346E+03  0.23052826861E+03  0.00000000000E+00 0. -1.
        -12    1    3    3    0    0  0.18484210496E+02  0.55590716877E+01  0.10433543615E+02  0.21941470963E+02  0.00000000000E+00 0.  1.
        -11    1    4    4    0    0  0.53767294441E+02 -0.17009790972E+02  0.14933267776E+02  0.58337444467E+02  0.00000000000E+00 0.  1.
         11    1    4    4    0    0 -0.29702612164E+02  0.20703918245E+02  0.30811673377E+02  0.47542156202E+02  0.00000000000E+00 0. -1.
          2    1    1    2  501    0 -0.58537000719E+01 -0.44094139394E+02 -0.77300657828E+02  0.89184923805E+02  0.00000000000E+00 0. -1.
<scales pt_clust_5="13000.00000" pt_clust_6="13000.00000" pt_clust_7="13000.00000" pt_clust_8="13000.00000" pt_clust_9="44.48100"></scales>
<clustering>
<clus scale="   44.481">  2  9  1 -1</clus>
<clus scale="   79.952">  5  6 -1 -1</clus>
<clus scale="   87.811">  1  5  2 -1</clus>
<clus scale="   92.332">  7  8 -1 -1</clus>
<clus scale="   44.481">  2  5  1 -1</clus>
</clustering>
</event>
<event>
 9    1  0.7586638E-005  0.9552213E+02  0.7546771E-02  0.1296120E+00
         -2   -1    0    0    0  501 -0.00000000000E+00  0.00000000000E+00  0.36952479194E+03  0.36952479194E+03  0.00000000000E+00 0.  1.
         21   -1    0    0  501  502  0.00000000000E+00 -0.00000000000E+00 -0.13758741979E+03  0.13758741979E+03  0.00000000000E+00 0.  1.
        -24    2    1    2    0    0 -0.25842509146E+02 -0.97457714609E+01  0.29213196166E+03  0.30431556425E+03  0.80647779162E+02 0.  0.
         23    2    1    2    0    0  0.73106507057E+01  0.46408860938E+02  0.27091771036E+02  0.10632633782E+03  0.91455443082E+02 0.  0.
         11    1    3    3    0    0  0.20609003701E+02 -0.26358464210E+02  0.15526385075E+03  0.15882809266E+03  0.00000000000E+00 0. -1.
        -12    1    3    3    0    0 -0.46451512847E+02  0.16612692749E+02  0.13686811091E+03  0.14548747159E+03  0.00000000000E+00 0.  1.
        -11    1    4    4    0    0  0.39340800448E+02  0.79151703080E+01 -0.12995068271E+02  0.42180804879E+02  0.00000000000E+00 0. -1.
         11    1    4    4    0    0 -0.32030149742E+02  0.38493690630E+02  0.40086839307E+02  0.64145532942E+02  0.00000000000E+00 0.  1.
         -1    1    1    2    0  502  0.18531858440E+02 -0.36663089477E+02 -0.87286360543E+02  0.96470309651E+02  0.00000000000E+00 0.  1.
<scales pt_clust_5="13000.00000" pt_clust_6="13000.00000" pt_clust_7="13000.00000" pt_clust_8="13000.00000" pt_clust_9="41.08055"></scales>
<clustering>
<clus scale="   41.081">  2  9  1 -1</clus>
<clus scale="   80.648">  5  6 -1 -1</clus>
<clus scale="   85.232">  1  5  2 -1</clus>
<clus scale="   91.455">  7  8 -1 -1</clus>
<clus scale="   41.081">  2  5  1 -1</clus>
</clustering>
</event>
<event>
 9    1  0.7586638E-005  0.1551573E+03  0.7546771E-02  0.1196319E+00
          1   -1    0    0  502    0 -0.00000000000E+00  0.00000000000E+00  0.60359245674E+03  0.60359245674E+03  0.00000000000E+00 0. -1.
         21   -1    0    0  501  502  0.00000000000E+00 -0.00000000000E+00 -0.73955893450E+02  0.73955893450E+02  0.00000000000E+00 0. -1.
        -24    2    1    2    0    0 -0.15720762496E+03 -0.13844772840E+02  0.37092811905E+03  0.41103809528E+03  0.80366231637E+02 0.  0.
         23    2    1    2    0    0  0.83649759884E+02  0.20397181325E+02  0.14349401445E+03  0.19111017238E+03  0.92299720859E+02 0.  0.
         13    1    3    3    0    0 -0.62724628627E+02 -0.44719214807E+02  0.14444680621E+03  0.16370420591E+03  0.00000000000E+00 0. -1.
        -14    1    3    3    0    0 -0.94482996334E+02  0.30874441967E+02  0.22648131284E+03  0.24733388937E+03  0.00000000000E+00 0.  1.
        -11    1    4    4    0    0  0.17943921276E+01  0.40988722299E+02  0.57273241256E+02  0.70452248812E+02  0.00000000000E+00 0. -1.
         11    1    4    4    0    0  0.81855367756E+02 -0.20591540973E+02  0.86220773196E+02  0.12065792357E+03  0.00000000000E+00 0.  1.
          2    1    1    2  501    0  0.73557865077E+02 -0.65524084853E+01  0.15214429791E+02  0.75400082530E+02  0.00000000000E+00 0. -1.
<scales pt_clust_5="13000.00000" pt_clust_6="13000.00000" pt_clust_7="13000.00000" pt_clust_8="13000.00000" pt_clust_9="73.84913"></scales>
<clustering>
<clus scale="   73.849">  2  9  1 -1</clus>
<clus scale="   80.366">  5  6 -1 -1</clus>
<clus scale="   92.300">  7  8 -1 -1</clus>
<clus scale="  148.369">  1  5  2 -1</clus>
<clus scale="   73.849">  2  5  1 -1</clus>
</clustering>
</event>
<event>
 9    1  0.7586638E-005  0.1047488E+03  0.7546771E-02  0.1275766E+00
          1   -1    0    0  502    0 -0.00000000000E+00  0.00000000000E+00  0.39270139536E+03  0.39270139536E+03  0.00000000000E+00 0. -1.
         21   -1    0    0  501  502  0.00000000000E+00 -0.00000000000E+00 -0.45024562379E+02  0.45024562379E+02  0.00000000000E+00 0.  1.
        -24    2    1    2    0    0  0.36997555962E+02 -0.42841944945E+02  0.27390745767E+03  0.29062628237E+03  0.78956248932E+02 0.  0.
         23    2    1    2    0    0 -0.18715857576E+02  0.31752466572E+02  0.37004835923E+02  0.10456935226E+03  0.90591882049E+02 0.  0.
         11    1    3    3    0    0  0.58298808210E+02 -0.43557884319E+02  0.17649999442E+03  0.19091434822E+03  0.00000000000E+00 0. -1.
        -12    1    3    3    0    0 -0.21301252247E+02  0.71593937367E+00  0.97407463245E+02  0.99711934152E+02  0.00000000000E+00 0.  1.
        -13    1    4    4    0    0 -0.43510241827E+02  0.28078944710E+02  0.53584089347E+02  0.74517265858E+02  0.00000000000E+00 0. -1.
         13    1    4    4    0    0  0.24794384251E+02  0.36735218621E+01 -0.16579253425E+02  0.30052086406E+02  0.00000000000E+00 0.  1.
          2    1    1    2  501    0 -0.18281698386E+02  0.11089478373E+02  0.36764539385E+02  0.42530323096E+02  0.00000000000E+00 0. -1.
<scales pt_clust_5="13000.00000" pt_clust_6="13000.00000" pt_clust_7="13000.00000" pt_clust_8="13000.00000" pt_clust_9="21.38218"></scales>
<clustering>
<clus scale="   21.382">  2  9  1 -1</clus>
<clus scale="   78.956">  5  6 -1 -1</clus>
<clus scale="   90.592">  7  8 -1 -1</clus>
<clus scale="   94.866">  1  5  2 -1</clus>
<clus scale="   21.382">  2  5  1 -1</clus>
</clustering>
</event>
<event>
 9    1  0.7586638E-005  0.1973693E+03  0.7546771E-02  0.1153031E+00
          3   -1    0    0  502    0 -0.00000000000E+00  0.00000000000E+00  0.12188471241E+03  0.12188471241E+03  0.00000000000E+00 0. -1.
         21   -1    0    0  501  502  0.00000000000E+00 -0.00000000000E+00 -0.58749788352E+03  0.58749788352E+03  0.00000000000E+00 0. -1.
         23    2    1    2    0    0 -0.51695880451E+02  0.20713467721E+03 -0.86326777535E+02  0.24778100997E+03  0.91465172736E+02 0.  0.
        -24    2    1    2    0    0  0.76866417070E+02 -0.10828368759E+03 -0.17995053022E+03  0.23768226907E+03  0.80478970109E+02 0.  0.
         13    1    4    4    0    0  0.92549820715E+02 -0.88426966523E+02 -0.13457796496E+03  0.18573105927E+03  0.00000000000E+00 0. -1.
        -14    1    4    4    0    0 -0.15683403645E+02 -0.19856721071E+02 -0.45372565261E+02  0.51951209802E+02  0.00000000000E+00 0.  1.
        -13    1    3    3    0    0  0.18090601501E+02  0.60402157660E+02  0.15200002670E+01  0.63071395366E+02  0.00000000000E+00 0.  1.
         13    1    3    3    0    0 -0.69786481952E+02  0.14673251955E+03 -0.87846777802E+02  0.18470961460E+03  0.00000000000E+00 0. -1.
          4    1    1    2  501    0 -0.25170536619E+02 -0.98850989613E+02 -0.19933586335E+03  0.22391931689E+03  0.00000000000E+00 0. -1.
<scales pt_clust_5="13000.00000" pt_clust_6="13000.00000" pt_clust_7="13000.00000" pt_clust_8="13000.00000" pt_clust_9="102.00526"></scales>
<clustering>
<clus scale="   80.479">  5  6 -1 -1</clus>
<clus scale="   91.465">  7  8 -1 -1</clus>
<clus scale="  102.005">  2  9  1 -1</clus>
<clus scale="  192.524">  2  5  1 -1</clus>
<clus scale="  102.005">  2  5  1 -1</clus>
</clustering>
</event>
<event>
 9    1  0.7586638E-005  0.1617805E+03  0.7546771E-02  0.1189798E+00
          1   -1    0    0  502    0 -0.00000000000E+00  0.00000000000E+00  0.95500890125E+03  0.95500890125E+03  0.00000000000E+00 0. -1.
         21   -1    0    0  501  502  0.00000000000E+00 -0.00000000000E+00 -0.10765881405E+03  0.10765881405E+03  0.00000000000E+00 0.  1.
         23    2    1    2    0    0 -0.10536733003E+03  0.80191972403E+02  0.86724459203E+03  0.88264010782E+03  0.96991498804E+02 0.  0.
        -24    2    1    2    0    0  0.76420156372E+02 -0.56288204455E+02 -0.49396013845E+02  0.13228173836E+03  0.77782323561E+02 0.  0.
         13    1    4    4    0    0  0.31644168480E+02 -0.52259256926E+02  0.54836114850E+01  0.61338840291E+02  0.00000000000E+00 0. -1.
        -14    1    4    4    0    0  0.44775987892E+02 -0.40289475287E+01 -0.54879625330E+02  0.70942898067E+02  0.00000000000E+00 0.  1.
        -13    1    3    3    0    0 -0.30245724153E+02  0.82212899606E+02  0.52331368753E+03  0.53059493048E+03  0.00000000000E+00 0. -1.
         13    1    3    3    0    0 -0.75121605873E+02 -0.20209272027E+01  0.34393090450E+03  0.35204517734E+03  0.00000000000E+00 0.  1.
          2    1    1    2  501    0  0.28947173654E+02 -0.23903767948E+02  0.29501509016E+02  0.47745869129E+02  0.00000000000E+00 0. -1.
<scales pt_clust_5="13000.00000" pt_clust_6="13000.00000" pt_clust_7="13000.00000" pt_clust_8="13000.00000" pt_clust_9="37.54103"></scales>
<clustering>
<clus scale="   37.541">  2  9  1 -1</clus>
<clus scale="   77.782">  5  6 -1 -1</clus>
<clus scale="   96.991">  7  8 -1 -1</clus>
<clus scale="  151.049">  2  5  1 -1</clus>
<clus scale="   37.541">  2  5  1 -1</clus>
</clustering>
</event>
<event>
 9    1  0.7586638E-005  0.9378635E+02  0.7546771E-02  0.1300897E+00
         21   -1    0    0  501  502  0.00000000000E+00  0.00000000000E+00  0.28759561731E+03  0.28759561731E+03  0.00000000000E+00 0. -1.
         -2   -1    0    0    0  501 -0.00000000000E+00 -0.00000000000E+00 -0.49765309113E+02  0.49765309113E+02  0.00000000000E+00 0.  1.
        -24    2    1    2    0    0 -0.30955417890E+01  0.21318939756E+02  0.54385100487E+02  0.10010345470E+03  0.81233508584E+02 0.  0.
         23    2    1    2    0    0  0.16002693438E+01  0.55300942497E+01  0.18826357586E+03  0.20993855633E+03  0.92724757384E+02 0.  0.
         11    1    3    3    0    0  0.90341652251E+01 -0.29987221225E+02  0.20634230294E+02  0.37504946846E+02  0.00000000000E+00 0. -1.
        -12    1    3    3    0    0 -0.12129707014E+02  0.51306160981E+02  0.33750870193E+02  0.62598507855E+02  0.00000000000E+00 0.  1.
        -13    1    4    4    0    0 -0.15750735131E+02 -0.40634450750E+02  0.89450015749E+02  0.99501505328E+02  0.00000000000E+00 0.  1.
         13    1    4    4    0    0  0.17351004475E+02  0.46164544999E+02  0.98813560112E+02  0.11043705100E+03  0.00000000000E+00 0. -1.
         -1    1    1    2    0  502  0.14952724453E+01 -0.26849034005E+02 -0.48183681518E+01  0.27318915395E+02  0.00000000000E+00 0.  1.
<scales pt_clust_5="13000.00000" pt_clust_6="13000.00000" pt_clust_7="13000.00000" pt_clust_8="13000.00000" pt_clust_9="26.89065"></scales>
<clustering>
<clus scale="   26.891">  1  9  2 -1</clus>
<clus scale="   81.234">  5  6 -1 -1</clus>
<clus scale="   82.443">  2  5  1 -1</clus>
<clus scale="   92.725">  7  8 -1 -1</clus>
<clus scale="   26.891">  1  5  2 -1</clus>
</clustering>
</event>
<event>
 9    1  0.7586638E-005  0.2392024E+03  0.7546771E-02  0.1121105E+00
         21   -1    0    0  501  502  0.00000000000E+00  0.00000000000E+00  0.12828811525E+04  0.12828811525E+04  0.00000000000E+00 0.  1.
         -2   -1    0    0    0  501 -0.00000000000E+00 -0.00000000000E+00 -0.87312708199E+02  0.87312708199E+02  0.00000000000E+00 0.  1.
        -24    2    1    2    0    0  0.14928382370E+03 -0.14464261317E+03  0.22738479238E+03  0.31824503785E+03  0.79805480693E+02 0.  0.
         23    2    1    2    0    0 -0.21593378783E+03  0.15721279579E+03  0.93431719634E+03  0.97613877060E+03  0.92493308900E+02 0.  0.
         13    1    3    3    0    0  0.34295327964E+01 -0.35879500449E+02  0.16263140407E+02  0.39542255671E+02  0.00000000000E+00 0. -1.
        -14    1    3    3    0    0  0.14585429090E+03 -0.10876311272E+03  0.21112165197E+03  0.27870278218E+03  0.00000000000E+00 0.  1.
        -13    1    4    4    0    0 -0.12605154303E+03  0.77460864804E+02  0.66454038878E+03  0.68081062373E+03  0.00000000000E+00 0. -1.
         13    1    4    4    0    0 -0.89882244807E+02  0.79751930990E+02  0.26977680757E+03  0.29532814686E+03  0.00000000000E+00 0.  1.
         -1    1    1    2    0  502  0.66649964136E+02 -0.12570182622E+02  0.33866455599E+02  0.75810052271E+02  0.00000000000E+00 0.  1.
<scales pt_clust_5="13000.00000" pt_clust_6="13000.00000" pt_clust_7="13000.00000" pt_clust_8="13000.00000" pt_clust_9="67.82501"></scales>
<clustering>
<clus scale="   67.825">  1  9  2 -1</clus>
<clus scale="   79.805">  5  6 -1 -1</clus>
<clus scale="   92.493">  7  8 -1 -1</clus>
<clus scale="  234.588">  2  5  1 -1</clus>
<clus scale="   67.825">  1  5  2 -1</clus>
</clustering>
</event>
<event>
 9    1  0.7586638E-005  0.1410931E+03  0.7546771E-02  0.1214940E+00
         21   -1    0    0  501  502  0.00000000000E+00  0.00000000000E+00  0.18496781606E+03  0.18496781606E+03  0.00000000000E+00 0. -1.
          3   -1    0    0  502    0 -0.00000000000E+00 -0.00000000000E+00 -0.20729729887E+03  0.20729729887E+03  0.00000000000E+00 0. -1.
        -24    2    1    2    0    0 -0.54548829968E+02  0.11022104718E+03 -0.11984408049E+03  0.18923102383E+03  0.79508003762E+02 0.  0.
         23    2    1    2    0    0  0.42044249430E+02 -0.46955150436E+02  0.52884084207E+02  0.12460692133E+03  0.93582334964E+02 0.  0.
         11    1    3    3    0    0 -0.45017382959E+02  0.10909758658E+03 -0.12977873519E+03  0.17541769658E+03  0.00000000000E+00 0. -1.
        -12    1    3    3    0    0 -0.95314470089E+01  0.11234605980E+01  0.99346547027E+01  0.13813327255E+02  0.00000000000E+00 0.  1.
        -13    1    4    4    0    0  0.69458114960E+02 -0.48446974497E+02  0.45695806944E+02  0.96227053597E+02  0.00000000000E+00 0. -1.
         13    1    4    4    0    0 -0.27413865530E+02  0.14918240605E+01  0.71882772625E+01  0.28379867729E+02  0.00000000000E+00 0.  1.
          4    1    1    2  501    0  0.12504580537E+02 -0.63265896739E+02  0.44630513473E+02  0.78427169766E+02  0.00000000000E+00 0. -1.
<scales pt_clust_5="13000.00000" pt_clust_6="13000.00000" pt_clust_7="13000.00000" pt_clust_8="13000.00000" pt_clust_9="64.48983"></scales>
<clustering>
<clus scale="   64.490">  1  9  2 -1</clus>
<clus scale="   79.508">  5  6 -1 -1</clus>
<clus scale="   93.582">  7  8 -1 -1</clus>
<clus scale="  132.178">  2  5  1 -1</clus>
<clus scale="   64.490">  1  5  2 -1</clus>
</clustering>
</event>
<event>
 9    1  0.7586638E-005  0.1198898E+03  0.7546771E-02  0.1246364E+00
         21   -1    0    0  501  502  0.00000000000E+00  0.00000000000E+00  0.28763007451E+02  0.28763007451E+02  0.00000000000E+00 0. -1.
          3   -1    0    0  502    0 -0.00000000000E+00 -0.00000000000E+00 -0.83340470547E+03  0.83340470547E+03  0.00000000000E+00 0. -1.
        -24    2    1    2    0    0 -0.59206194092E+02 -0.62547629554E+02 -0.55316972741E+03  0.56554271678E+03  0.80151343122E+02 0.  0.
         23    2    1    2    0    0  0.65697211833E+02  0.21176953381E+02 -0.20318789769E+03  0.23271085173E+03  0.90024617441E+02 0.  0.
         13    1    3    3    0    0 -0.73081457680E+02 -0.30055219179E+02 -0.31466592746E+03  0.32443622109E+03  0.00000000000E+00 0. -1.
        -14    1    3    3    0    0  0.13875263588E+02 -0.32492410375E+02 -0.23850379995E+03  0.24110649569E+03  0.00000000000E+00 0.  1.
        -11    1    4    4    0    0 -0.20953874320E+02  0.16112913994E+02 -0.53623920402E+02  0.59784744590E+02  0.00000000000E+00 0.  1.
         11    1    4    4    0    0  0.86651086153E+02  0.50640393875E+01 -0.14956397729E+03  0.17292610714E+03  0.00000000000E+00 0. -1.
          4    1    1    2  501    0 -0.64910177410E+01  0.41370676173E+02 -0.48284072918E+02  0.63914144412E+02  0.00000000000E+00 0. -1.
<scales pt_clust_5="13000.00000" pt_clust_6="13000.00000" pt_clust_7="13000.00000" pt_clust_8="13000.00000" pt_clust_9="41.87680"></scales>
<clustering>
<clus scale="   41.877">  1  9  2 -1</clus>
<clus scale="   80.151">  5  6 -1 -1</clus>
<clus scale="   90.025">  7  8 -1 -1</clus>
<clus scale="  112.665">  2  5  1 -1</clus>
<clus scale="   41.877">  1  5  2 -1</clus>
</clustering>
</event>
<event>
 9    1  0.7586638E-005  0.1123545E+03  0.7546771E-02  0.1262450E+00
         21   -1    0    0  501  502  0.00000000000E+00  0.00000000000E+00  0.14588421049E+03  0.14588421049E+03  0.00000000000E+00 0. -1.
         -2   -1    0    0    0  501 -0.00000000000E+00 -0.00000000000E+00 -0.18210062178E+03  0.18210062178E+03  0.00000000000E+00 0.  1.
        -24    2    1    2    0    0  0.58372885498E+02  0.59717009288E+00 -0.12680915194E+03  0.16089744043E+03  0.79997968402E+02 0.  0.
         23    2    1    2    0    0 -0.63266067615E+02  0.19900731789E+02  0.62658072879E+02  0.13209520876E+03  0.95522121223E+02 0.  0.
         11    1    3    3    0    0 -0.17344717630E+02 -0.11983826859E+02 -0.17886616359E+02  0.27647466079E+02  0.00000000000E+00 0. -1.
        -12    1    3    3    0    0  0.75717603127E+02  0.12580996952E+02 -0.10892253558E+03  0.13324997435E+03  0.00000000000E+00 0.  1.
        -11    1    4    4    0    0 -0.73546405604E+01 -0.32277133758E+02 -0.19446431968E+00  0.33105013484E+02  0.00000000000E+00 0.  1.
         11    1    4    4    0    0 -0.55911427054E+02  0.52177865546E+02  0.62852537198E+02  0.98990195275E+02  0.00000000000E+00 0. -1.
         -1    1    1    2    0  502  0.48931821171E+01 -0.20497901882E+02  0.27934667771E+02  0.34992183074E+02  0.00000000000E+00 0.  1.
<scales pt_clust_5="13000.00000" pt_clust_6="13000.00000" pt_clust_7="13000.00000" pt_clust_8="13000.00000" pt_clust_9="21.07385"></scales>
<clustering>
<clus scale="   21.074">  1  9  2 -1</clus>
<clus scale="   79.998">  5  6 -1 -1</clus>
<clus scale="   95.522">  7  8 -1 -1</clus>
<clus scale="   99.492">  2  5  1 -1</clus>
<clus scale="   21.074">  1  5  2 -1</clus>
</clustering>
</event>
<event>
 9    1  0.7586638E-005  0.1161022E+03  0.7546771E-02  0.1252406E+00
         -2   -1    0    0    0  501 -0.00000000000E+00  0.00000000000E+00  0.53142464161E+03  0.53142464161E+03  0.00000000000E+00 0.  1.
         21   -1    0    0  501  502  0.00000000000E+00 -0.00000000000E+00 -0.33268510736E+02  0.33268510736E+02  0.00000000000E+00 0.  1.
         23    2    1    2    0    0  0.37748163413E+02 -0.75599455149E+02  0.26471482006E+03  0.29171161831E+03  0.88777986245E+02 0.  0.
        -24    2    1    2    0    0 -0.16040065279E+02  0.60533323782E+02  0.12491593594E+03  0.16128557693E+03  0.80544889929E+02 0.  0.
         11    1    4    4    0    0 -0.36796619182E+01  0.78352414979E+02  0.83682517717E+02  0.11469701224E+03  0.00000000000E+00 0. -1.
        -12    1    4    4    0    0 -0.12360403361E+02 -0.17819091197E+02  0.41233418218E+02  0.46588564694E+02  0.00000000000E+00 0.  1.
        -13    1    3    3    0    0  0.65230110373E+02 -0.42511183592E+02  0.14632470796E+03  0.16575007749E+03  0.00000000000E+00 0.  1.
         13    1    3    3    0    0 -0.27481946960E+02 -0.33088271556E+02  0.11839011210E+03  0.12596154082E+03  0.00000000000E+00 0. -1.
         -1    1    1    2    0  502 -0.21708098134E+02  0.15066131367E+02  0.10852537488E+03  0.11169595710E+03  0.00000000000E+00 0.  1.
<scales pt_clust_5="13000.00000" pt_clust_6="13000.00000" pt_clust_7="13000.00000" pt_clust_8="13000.00000" pt_clust_9="26.42405"></scales>
<clustering>
<clus scale="   26.424">  2  9  1 -1</clus>
<clus scale="   80.545">  5  6 -1 -1</clus>
<clus scale="   88.778">  7  8 -1 -1</clus>
<clus scale="  109.935">  2  5  1 -1</clus>
<clus scale="   26.424">  2  5  1 -1</clus>
</clustering>
</event>
<event>
 9    1  0.7586638E-005  0.3761766E+03  0.7546771E-02  0.1052592E+00
          3   -1    0    0  502    0 -0.00000000000E+00  0.00000000000E+00  0.29837131265E+03  0.29837131265E+03  0.00000000000E+00 0. -1.
         21   -1    0    0  501  502  0.00000000000E+00 -0.00000000000E+00 -0.70704886567E+03  0.70704886567E+03  0.00000000000E+00 0. -1.
         23    2    1    2    0    0 -0.34905563663E+03  0.16652500949E+03  0.19179043716E+02  0.39767294689E+03  0.90584329351E+02 0.  0.
        -24    2    1    2    0    0  0.25781783816E+03 -0.18674476274E+03 -0.38223841634E+03  0.50375592085E+03  0.79499539534E+02 0.  0.
         13    1    4    4    0    0  0.21786758073E+03 -0.14065488817E+03 -0.34738869887E+03  0.43350777202E+03  0.00000000000E+00 0. -1.
        -14    1    4    4    0    0  0.39950257429E+02 -0.46089874578E+02 -0.34849717468E+02  0.70248148836E+02  0.00000000000E+00 0.  1.
        -13    1    3    3    0    0 -0.80820086127E+02  0.79707577443E+02  0.22483557838E+02  0.11571816883E+03  0.00000000000E+00 0.  1.
         13    1    3    3    0    0 -0.26823555050E+03  0.86817432042E+02 -0.33045141219E+01  0.28195477806E+03  0.00000000000E+00 0. -1.
          4    1    1    2  501    0  0.91237798473E+02  0.20219753258E+02 -0.45618180404E+02  0.10399131058E+03  0.00000000000E+00 0. -1.
<scales pt_clust_5="13000.00000" pt_clust_6="13000.00000" pt_clust_7="13000.00000" pt_clust_8="13000.00000" pt_clust_9="93.45145"></scales>
<clustering>
<clus scale="   79.500">  5  6 -1 -1</clus>
<clus scale="   90.584">  7  8 -1 -1</clus>
<clus scale="   93.451">  2  9  1 -1</clus>
<clus scale="  373.662">  2  5  1 -1</clus>
<clus scale="   93.451">  2  5  1 -1</clus>
</clustering>
</event>
<event>
 9    1  0.7586638E-005  0.1186492E+03  0.7546771E-02  0.1249048E+00
         -4   -1    0    0    0  501 -0.00000000000E+00  0.00000000000E+00  0.24557570390E+03  0.24557570390E+03  0.00000000000E+00 0.  1.
         21   -1    0    0  501  502  0.00000000000E+00 -0.00000000000E+00 -0.18928477709E+03  0.18928477709E+03  0.00000000000E+00 0. -1.
        -24    2    1    2    0    0  0.76411504240E+02  0.10220182307E+02  0.17459110682E+03  0.20710079319E+03  0.80408419053E+02 0.  0.
         23    2    1    2    0    0 -0.62996410052E+02  0.41731101667E+02 -0.12640890897E+03  0.17349503868E+03  0.91713050615E+02 0.  0.
         11    1    3    3    0    0  0.92686657187E+02  0.13339397947E+02  0.13619275890E+03  0.16527922899E+03  0.00000000000E+00 0. -1.
        -12    1    3    3    0    0 -0.16275152948E+02 -0.31192156405E+01  0.38398347919E+02  0.41821564205E+02  0.00000000000E+00 0.  1.
        -11    1    4    4    0    0 -0.78681311214E+00  0.39401884009E+02 -0.96889103792E+02  0.10459744725E+03  0.00000000000E+00 0. -1.
         11    1    4    4    0    0 -0.62209596940E+02  0.23292176581E+01 -0.29519805178E+02  0.68897591424E+02  0.00000000000E+00 0.  1.
         -3    1    1    2    0  502 -0.13415094188E+02 -0.51951283974E+02  0.81087289639E+01  0.54264649119E+02  0.00000000000E+00 0.  1.
<scales pt_clust_5="13000.00000" pt_clust_6="13000.00000" pt_clust_7="13000.00000" pt_clust_8="13000.00000" pt_clust_9="53.65541"></scales>
<clustering>
<clus scale="   53.655">  2  9  1 -1</clus>
<clus scale="   80.408">  5  6 -1 -1</clus>
<clus scale="   91.713">  7  8 -1 -1</clus>
<clus scale="  110.145">  1  5  2 -1</clus>
<clus scale="   53.655">  2  5  1 -1</clus>
</clustering>
</event>
<event>
 9    1  0.7586638E-005  0.1007779E+03  0.7546771E-02  0.1282652E+00
          3   -1    0    0  502    0 -0.00000000000E+00  0.00000000000E+00  0.89478789045E+02  0.89478789045E+02  0.00000000000E+00 0. -1.
         21   -1    0    0  501  502  0.00000000000E+00 -0.00000000000E+00 -0.18286463371E+03  0.18286463371E+03  0.00000000000E+00 0.  1.
         23    2    1    2    0    0  0.27077118801E+02  0.44628325190E+02  0.24436527262E+02  0.10727454597E+03  0.90475557891E+02 0.  0.
        -24    2    1    2    0    0 -0.21030980961E+02 -0.16963446688E+02 -0.80249303841E+02  0.11801957572E+03  0.82210758441E+02 0.  0.
         11    1    4    4    0    0  0.27341482160E+01 -0.22879703888E+02  0.95481239435E+01  0.24942395380E+02  0.00000000000E+00 0. -1.
        -12    1    4    4    0    0 -0.23765129177E+02  0.59162572003E+01 -0.89797427784E+02  0.93077180343E+02  0.00000000000E+00 0.  1.
        -13    1    3    3    0    0  0.56118091750E+02  0.43808183137E+02  0.30740449620E+02  0.77545937187E+02  0.00000000000E+00 0. -1.
         13    1    3    3    0    0 -0.29040972949E+02  0.82014205355E+00 -0.63039223582E+01  0.29728608778E+02  0.00000000000E+00 0.  1.
          4    1    1    2  501    0 -0.60461378408E+01 -0.27664878503E+02 -0.37573068087E+02  0.47049301067E+02  0.00000000000E+00 0. -1.
<scales pt_clust_5="13000.00000" pt_clust_6="13000.00000" pt_clust_7="13000.00000" pt_clust_8="13000.00000" pt_clust_9="28.31786"></scales>
<clustering>
<clus scale="   28.318">  2  9  1 -1</clus>
<clus scale="   82.211">  5  6 -1 -1</clus>
<clus scale="   90.476">  7  8 -1 -1</clus>
<clus scale="   93.429">  2  5  1 -1</clus>
<clus scale="   28.318">  2  5  1 -1</clus>
</clustering>
</event>
<event>
 9    1  0.7586638E-005  0.1668111E+03  0.7546771E-02  0.1182779E+00
          1   -1    0    0  502    0 -0.00000000000E+00  0.00000000000E+00  0.33288127774E+03  0.33288127774E+03  0.00000000000E+00 0. -1.
         21   -1    0    0  501  502  0.00000000000E+00 -0.00000000000E+00 -0.16456790949E+03  0.16456790949E+03  0.00000000000E+00 0. -1.
         23    2    1    2    0    0  0.90276875303E+02 -0.98400244201E+02  0.16020700015E+03  0.22685253625E+03  0.89237144910E+02 0.  0.
        -24    2    1    2    0    0 -0.98622845267E+02  0.13810630515E+03 -0.55782875228E+02  0.19491269030E+03  0.77970574836E+02 0.  0.
         13    1    4    4    0    0 -0.99850544654E+02  0.93395918945E+02 -0.21158302641E+02  0.13834956709E+03  0.00000000000E+00 0. -1.
        -14    1    4    4    0    0  0.12276993863E+01  0.44710386205E+02 -0.34624572588E+02  0.56563123210E+02  0.00000000000E+00 0.  1.
        -13    1    3    3    0    0  0.26179956446E+02 -0.92421761805E+02  0.90663140271E+02  0.13208700609E+03  0.00000000000E+00 0. -1.
         13    1    3    3    0    0  0.64096918857E+02 -0.59784823959E+01  0.69543859883E+02  0.94765530158E+02  0.00000000000E+00 0.  1.
          2    1    1    2  501    0  0.83459699644E+01 -0.39706060948E+02  0.63889243332E+02  0.75683960680E+02  0.00000000000E+00 0. -1.
<scales pt_clust_5="13000.00000" pt_clust_6="13000.00000" pt_clust_7="13000.00000" pt_clust_8="13000.00000" pt_clust_9="40.57374"></scales>
<clustering>
<clus scale="   40.574">  2  9  1 -1</clus>
<clus scale="   77.971">  5  6 -1 -1</clus>
<clus scale="   89.237">  7  8 -1 -1</clus>
<clus scale="  161.065">  2  5  1 -1</clus>
<clus scale="   40.574">  2  5  1 -1</clus>
</clustering>
</event>
<event>
 9    1  0.7586638E-005  0.1248960E+03  0.7546771E-02  0.1239663E+00
         -2   -1    0    0    0  501 -0.00000000000E+00  0.00000000000E+00  0.10889741000E+03  0.10889741000E+03  0.00000000000E+00 0.  1.
         21   -1    0    0  501  502  0.00000000000E+00 -0.00000000000E+00 -0.58659079668E+03  0.58659079668E+03  0.00000000000E+00 0. -1.
         23    2    1    2    0    0  0.21268251421E+02 -0.72769591831E+02  0.40649730239E+02  0.12860982875E+03  0.95605101694E+02 0.  0.
        -24    2    1    2    0    0 -0.76775514466E+02  0.82288588743E+02 -0.19861870478E+03  0.24223185127E+03  0.80999928516E+02 0.  0.
         11    1    4    4    0    0 -0.66946160020E+02  0.36427561562E+02 -0.17240732139E+03  0.18850209561E+03  0.00000000000E+00 0. -1.
        -12    1    4    4    0    0 -0.98293544455E+01  0.45861027181E+02 -0.26211383394E+02  0.53729755652E+02  0.00000000000E+00 0.  1.
        -11    1    3    3    0    0 -0.16773146910E+02  0.17246468510E+02  0.11254974268E+02  0.26560376110E+02  0.00000000000E+00 0. -1.
         11    1    3    3    0    0  0.38041398331E+02 -0.90016060342E+02  0.29394755971E+02  0.10204945264E+03  0.00000000000E+00 0.  1.
         -1    1    1    2    0  502  0.55507263045E+02 -0.95189969115E+01 -0.31972441214E+03  0.32464652666E+03  0.00000000000E+00 0.  1.
<scales pt_clust_5="13000.00000" pt_clust_6="13000.00000" pt_clust_7="13000.00000" pt_clust_8="13000.00000" pt_clust_9="56.31756"></scales>
<clustering>
<clus scale="   56.318">  2  9  1 -1</clus>
<clus scale="   81.000">  5  6 -1 -1</clus>
<clus scale="   95.605">  7  8 -1 -1</clus>
<clus scale="  114.104">  2  5  1 -1</clus>
<clus scale="   56.318">  2  5  1 -1</clus>
</clustering>
</event>
<event>
 9    1  0.7586638E-005  0.1051030E+03  0.7546771E-02  0.1271285E+00
         -2   -1    0    0    0  501 -0.00000000000E+00  0.00000000000E+00  0.12153799116E+03  0.12153799116E+03  0.00000000000E+00 0.  1.
         21   -1    0    0  501  502  0.00000000000E+00 -0.00000000000E+00 -0.30280749913E+03  0.30280749913E+03  0.00000000000E+00 0. -1.
         23    2    1    2    0    0  0.62694565157E+02 -0.13800910236E+02 -0.68751556890E+02  0.13079762180E+03  0.90885464563E+02 0.  0.
        -24    2    1    2    0    0 -0.28110366538E+02  0.11467618203E+02 -0.18845837369E+03  0.21007057319E+03  0.87700559490E+02 0.  0.
         11    1    4    4    0    0 -0.20095442967E+02 -0.22940755487E+02 -0.16468983892E+03  0.16748984487E+03  0.00000000000E+00 0. -1.
        -12    1    4    4    0    0 -0.80149235716E+01  0.34408373690E+02 -0.23768534770E+02  0.42580728329E+02  0.00000000000E+00 0.  1.
        -11    1    3    3    0    0 -0.18103020180E+01  0.26044990329E+02 -0.43776826367E+02  0.50970866595E+02  0.00000000000E+00 0.  1.
         11    1    3    3    0    0  0.64504867175E+02 -0.39845900565E+02 -0.24974730523E+02  0.79826755201E+02  0.00000000000E+00 0. -1.
         -1    1    1    2    0  502 -0.34584198619E+02  0.23332920332E+01  0.75940422604E+02  0.83477295303E+02  0.00000000000E+00 0.  1.
<scales pt_clust_5="13000.00000" pt_clust_6="13000.00000" pt_clust_7="13000.00000" pt_clust_8="13000.00000" pt_clust_9="34.66284"></scales>
<clustering>
<clus scale="   34.663">  2  9  1 -1</clus>
<clus scale="   87.701">  5  6 -1 -1</clus>
<clus scale="   90.885">  7  8 -1 -1</clus>
<clus scale="  102.361">  2  5  1 -1</clus>
<clus scale="   34.663">  2  5  1 -1</clus>
</clustering>
</event>
<event>
 9    1  0.7586638E-005  0.1342923E+03  0.7546771E-02  0.1223860E+00
         -2   -1    0    0    0  501 -0.00000000000E+00  0.00000000000E+00  0.35097709224E+03  0.35097709224E+03  0.00000000000E+00 0.  1.
         21   -1    0    0  501  502  0.00000000000E+00 -0.00000000000E+00 -0.73580212087E+02  0.73580212087E+02  0.00000000000E+00 0. -1.
        -24    2    1    2    0    0 -0.98082907593E+02  0.88159503526E+01  0.19809212036E+03  0.23543090929E+03  0.80555863584E+02 0.  0.
         23    2    1    2    0    0  0.92585147704E+02 -0.42759795588E+02  0.67750951579E+02  0.15285105248E+03  0.91503240991E+02 0.  0.
         11    1    3    3    0    0  0.50593892662E+01 -0.19582960488E+02  0.33141452805E+02  0.38825837470E+02  0.00000000000E+00 0. -1.
        -12    1    3    3    0    0 -0.10314229686E+03  0.28398910841E+02  0.16495066756E+03  0.19660507182E+03  0.00000000000E+00 0.  1.
        -13    1    4    4    0    0  0.70979033905E+02 -0.63162072424E+02  0.76379679308E+02  0.12190703859E+03  0.00000000000E+00 0. -1.
         13    1    4    4    0    0  0.21606113799E+02  0.20402276836E+02 -0.86287277294E+01  0.30944013893E+02  0.00000000000E+00 0.  1.
         -1    1    1    2    0  502  0.54977598890E+01  0.33943845235E+02  0.11553808217E+02  0.36275342555E+02  0.00000000000E+00 0.  1.
<scales pt_clust_5="13000.00000" pt_clust_6="13000.00000" pt_clust_7="13000.00000" pt_clust_8="13000.00000" pt_clust_9="34.38619"></scales>
<clustering>
<clus scale="   34.386">  2  9  1 -1</clus>
<clus scale="   80.556">  5  6 -1 -1</clus>
<clus scale="   91.503">  7  8 -1 -1</clus>
<clus scale="  127.086">  1  5  2 -1</clus>
<clus scale="   34.386">  2  5  1 -1</clus>
</clustering>
</event>
<event>
 9    1  0.7586638E-005  0.1419469E+03  0.7546771E-02  0.1213707E+00
         -4   -1    0    0    0  501 -0.00000000000E+00  0.00000000000E+00  0.16157342950E+03  0.16157342950E+03  0.00000000000E+00 0.  1.
         21   -1    0    0  501  502  0.00000000000E+00 -0.00000000000E+00 -0.85114119327E+03  0.85114119327E+03  0.00000000000E+00 0. -1.
         23    2    1    2    0    0  0.81651190432E+02  0.45264133262E+02 -0.20857700988E+03  0.24747621803E+03  0.94996583009E+02 0.  0.
        -24    2    1    2    0    0 -0.60311385575E+02 -0.14750332673E+03 -0.58864523474E+03  0.61524598094E+03  0.81423031537E+02 0.  0.
         13    1    4    4    0    0 -0.47450770228E+01 -0.10515505757E+03 -0.41332843463E+03  0.42652139075E+03  0.00000000000E+00 0. -1.
        -14    1    4    4    0    0 -0.55566308552E+02 -0.42348269159E+02 -0.17531680010E+03  0.18872459020E+03  0.00000000000E+00 0.  1.
        -13    1    3    3    0    0  0.31925966606E+02 -0.29297204500E+02 -0.61155131327E+02  0.74950274334E+02  0.00000000000E+00 0.  1.
         13    1    3    3    0    0  0.49725223826E+02  0.74561337762E+02 -0.14742187855E+03  0.17252594370E+03  0.00000000000E+00 0. -1.
         -3    1    1    2    0  502 -0.21339804857E+02  0.10223919346E+03  0.10765448084E+03  0.14999242380E+03  0.00000000000E+00 0.  1.
<scales pt_clust_5="13000.00000" pt_clust_6="13000.00000" pt_clust_7="13000.00000" pt_clust_8="13000.00000" pt_clust_9="104.44257"></scales>
<clustering>
<clus scale="   81.423">  5  6 -1 -1</clus>
<clus scale="   94.997">  7  8 -1 -1</clus>
<clus scale="  104.443">  2  9  1 -1</clus>
<clus scale="  133.245">  2  5  1 -1</clus>
<clus scale="  104.443">  2  5  1 -1</clus>
</clustering>
</event>
<event>
 9    1  0.7586638E-005  0.1659686E+03  0.7546771E-02  0.1183725E+00
         21   -1    0    0  501  502  0.00000000000E+00  0.00000000000E+00  0.33347507028E+03  0.33347507028E+03  0.00000000000E+00 0. -1.
          1   -1    0    0  502    0 -0.00000000000E+00 -0.00000000000E+00 -0.84925601865E+03  0.84925601865E+03  0.00000000000E+00 0. -1.
         23    2    1    2    0    0  0.13615022724E+03 -0.10048323925E+03 -0.57795934602E+03  0.60915809264E+03  0.91666844756E+02 0.  0.
        -24    2    1    2    0    0 -0.11164753175E+03  0.79640334191E+01 -0.22885826424E+03  0.26720308246E+03  0.80577819457E+02 0.  0.
         13    1    4    4    0    0 -0.23327521054E+02 -0.32726888717E+02 -0.77454598843E+02  0.87260743554E+02  0.00000000000E+00 0. -1.
        -14    1    4    4    0    0 -0.88320010698E+02  0.40690922136E+02 -0.15140366540E+03  0.17994233891E+03  0.00000000000E+00 0.  1.
        -13    1    3    3    0    0  0.41966670882E+02 -0.20513624357E+01 -0.57822070603E+02  0.71475879859E+02  0.00000000000E+00 0.  1.
         13    1    3    3    0    0  0.94183556355E+02 -0.98431876811E+02 -0.52013727542E+03  0.53768221278E+03  0.00000000000E+00 0. -1.
          2    1    1    2  501    0 -0.24502695485E+02  0.92519205828E+02  0.29103666190E+03  0.30636991383E+03  0.00000000000E+00 0. -1.
<scales pt_clust_5="13000.00000" pt_clust_6="13000.00000" pt_clust_7="13000.00000" pt_clust_8="13000.00000" pt_clust_9="95.70886"></scales>
<clustering>
<clus scale="   80.578">  5  6 -1 -1</clus>
<clus scale="   91.667">  7  8 -1 -1</clus>
<clus scale="   95.709">  1  9  2 -1</clus>
<clus scale="  160.111">  1  5  2 -1</clus>
<clus scale="   95.709">  1  5  2 -1</clus>
</clustering>
</event>
<event>
 9    1  0.7586638E-005  0.1193278E+03  0.7546771E-02  0.1252154E+00
         21   -1    0    0  501  502  0.00000000000E+00  0.00000000000E+00  0.13347851026E+03  0.13347851026E+03  0.00000000000E+00 0.  1.
         -4   -1    0    0    0  501 -0.00000000000E+00 -0.00000000000E+00 -0.40661535119E+03  0.40661535119E+03  0.00000000000E+00 0.  1.
         23    2    1    2    0    0 -0.60753729659E+02  0.64610896944E+02 -0.22958795661E+03  0.25948250981E+03  0.82188560070E+02 0.  0.
        -24    2    1    2    0    0  0.42743278117E+02 -0.73930838202E+02 -0.14530288234E+03  0.17685628534E+03  0.53595348549E+02 0.  0.
         11    1    4    4    0    0  0.48519394347E+02 -0.59435236445E+02 -0.14123679835E+03  0.16073117982E+03  0.00000000000E+00 0. -1.
        -12    1    4    4    0    0 -0.57761162295E+01 -0.14495601757E+02 -0.40660839953E+01  0.16125105520E+02  0.00000000000E+00 0.  1.
        -11    1    3    3    0    0 -0.40104684661E+02  0.81722546632E+02 -0.14961786193E+03  0.17513556169E+03  0.00000000000E+00 0. -1.
         11    1    3    3    0    0 -0.20649044998E+02 -0.17111649688E+02 -0.79970094676E+02  0.84346948119E+02  0.00000000000E+00 0.  1.
         -3    1    1    2    0  502  0.18010451542E+02  0.93199412581E+01  0.10175399802E+03  0.10375506630E+03  0.00000000000E+00 0.  1.
<scales pt_clust_5="13000.00000" pt_clust_6="13000.00000" pt_clust_7="13000.00000" pt_clust_8="13000.00000" pt_clust_9="20.27900"></scales>
<clustering>
<clus scale="   20.279">  1  9  2 -1</clus>
<clus scale="   53.595">  5  6 -1 -1</clus>
<clus scale="   82.189">  7  8 -1 -1</clus>
<clus scale="  101.768">  1  5  2 -1</clus>
<clus scale="   20.279">  1  5  2 -1</clus>
</clustering>
</event>
<event>
 9    1  0.7586638E-005  0.4389225E+03  0.7546771E-02  0.1056835E+00
         21   -1    0    0  501  502  0.00000000000E+00  0.00000000000E+00  0.19547203900E+03  0.19547203900E+03  0.00000000000E+00 0. -1.
          1   -1    0    0  502    0 -0.00000000000E+00 -0.00000000000E+00 -0.19812371266E+04  0.19812371266E+04  0.00000000000E+00 0. -1.
        -24    2    1    2    0    0 -0.19150069189E+03 -0.19585795909E+02 -0.11722704776E+03  0.23931417959E+03  0.80454816080E+02 0.  0.
         23    2    1    2    0    0  0.17497894799E+03  0.41837717357E+03 -0.41221031257E+03  0.61918905018E+03  0.88434419016E+02 0.  0.
         13    1    3    3    0    0 -0.15130641521E+03 -0.33873608932E+02 -0.12073123752E+03  0.19651230083E+03  0.00000000000E+00 0. -1.
        -14    1    3    3    0    0 -0.40194276685E+02  0.14287813023E+02  0.35041897661E+01  0.42801878757E+02  0.00000000000E+00 0.  1.
        -11    1    4    4    0    0  0.18138935861E+02  0.10593461524E+03 -0.60720302659E+02  0.12344277563E+03  0.00000000000E+00 0.  1.
         11    1    4    4    0    0  0.15684001213E+03  0.31244255833E+03 -0.35149000991E+03  0.49574627455E+03  0.00000000000E+00 0. -1.
          2    1    1    2  501    0  0.16521743906E+02 -0.39879137766E+03 -0.12563277273E+04  0.13182059358E+04  0.00000000000E+00 0. -1.
<scales pt_clust_5="13000.00000" pt_clust_6="13000.00000" pt_clust_7="13000.00000" pt_clust_8="13000.00000" pt_clust_9="429.92153"></scales>
<clustering>
<clus scale="   80.455">  5  6 -1 -1</clus>
<clus scale="   88.434">  7  8 -1 -1</clus>
<clus scale="  208.636">  2  5  1 -1</clus>
<clus scale="  429.922">  1  9  2 -1</clus>
<clus scale="  429.922">  1  5  2 -1</clus>
</clustering>
</event>
<event>
 9    1  0.7586638E-005  0.9721132E+02  0.7546771E-02  0.1291375E+00
          1   -1    0    0  502    0 -0.00000000000E+00  0.00000000000E+00  0.96108086444E+02  0.96108086444E+02  0.00000000000E+00 0. -1.
         21   -1    0    0  501  502  0.00000000000E+00 -0.00000000000E+00 -0.13672029497E+03  0.13672029497E+03  0.00000000000E+00 0.  1.
        -24    2    1    2    0    0  0.21599507825E+02  0.37410631281E+02  0.10156773175E+02  0.91493227259E+02  0.80010977508E+02 0.  0.
         23    2    1    2    0    0 -0.24322951801E+02 -0.13607085827E+02 -0.64277624878E+02  0.11383043885E+03  0.89716202443E+02 0.  0.
         11    1    3    3    0    0  0.63419832925E-01  0.56050953349E+02 -0.95485574166E+01  0.56858494020E+02  0.00000000000E+00 0. -1.
        -12    1    3    3    0    0  0.21536087992E+02 -0.18640322068E+02  0.19705330592E+02  0.34634733239E+02  0.00000000000E+00 0.  1.
        -13    1    4    4    0    0 -0.48829421655E+02  0.55056516133E+01 -0.66485531806E+02  0.82673759793E+02  0.00000000000E+00 0.  1.
         13    1    4    4    0    0  0.24506469853E+02 -0.19112737440E+02  0.22079069278E+01  0.31156679061E+02  0.00000000000E+00 0. -1.
          2    1    1    2  501    0  0.27234439763E+01 -0.23803545454E+02  0.13508643176E+02  0.27504715300E+02  0.00000000000E+00 0. -1.
<scales pt_clust_5="13000.00000" pt_clust_6="13000.00000" pt_clust_7="13000.00000" pt_clust_8="13000.00000" pt_clust_9="23.95885"></scales>
<clustering>
<clus scale="   23.959">  2  9  1 -1</clus>
<clus scale="   80.011">  5  6 -1 -1</clus>
<clus scale="   88.333">  1  5  2 -1</clus>
<clus scale="   89.716">  7  8 -1 -1</clus>
<clus scale="   23.959">  2  5  1 -1</clus>
</clustering>
</event>
<event>
 9    1  0.7586638E-005  0.1147042E+03  0.7546771E-02  0.1255850E+00
          3   -1    0    0  502    0 -0.00000000000E+00  0.00000000000E+00  0.19971808230E+03  0.19971808230E+03  0.00000000000E+00 0. -1.
         21   -1    0    0  501  502  0.00000000000E+00 -0.00000000000E+00 -0.14721082899E+03  0.14721082899E+03  0.00000000000E+00 0.  1.
         23    2    1    2    0    0  0.71116615775E+02  0.61426314473E+02  0.62975634450E+02  0.14545323410E+03  0.91432749195E+02 0.  0.
        -24    2    1    2    0    0  0.83706939369E+01 -0.36704855283E+02 -0.57246679430E+02  0.10598959370E+03  0.80865918337E+02 0.  0.
         11    1    4    4    0    0 -0.86677541254E+01 -0.59607268078E+02 -0.33939961033E+02  0.69138103273E+02  0.00000000000E+00 0. -1.
        -12    1    4    4    0    0  0.17038448062E+02  0.22902412795E+02 -0.23306718397E+02  0.36851490426E+02  0.00000000000E+00 0.  1.
        -11    1    3    3    0    0  0.26263925281E+02  0.42897592431E+02  0.79596005960E+02  0.94156897635E+02  0.00000000000E+00 0. -1.
         11    1    3    3    0    0  0.44852690494E+02  0.18528722042E+02 -0.16620371510E+02  0.51296336460E+02  0.00000000000E+00 0.  1.
          4    1    1    2  501    0 -0.79487309711E+02 -0.24721459190E+02  0.46778298298E+02  0.95486083496E+02  0.00000000000E+00 0. -1.
<scales pt_clust_5="13000.00000" pt_clust_6="13000.00000" pt_clust_7="13000.00000" pt_clust_8="13000.00000" pt_clust_9="83.24296"></scales>
<clustering>
<clus scale="   80.866">  5  6 -1 -1</clus>
<clus scale="   83.243">  2  9  1 -1</clus>
<clus scale="   91.433">  7  8 -1 -1</clus>
<clus scale="  106.473">  2  5  1 -1</clus>
<clus scale="   83.243">  2  5  1 -1</clus>
</clustering>
</event>
<event>
 9    1  0.7586638E-005  0.1011553E+03  0.7546771E-02  0.1283320E+00
         21   -1    0    0  501  502  0.00000000000E+00  0.00000000000E+00  0.41701829787E+03  0.41701829787E+03  0.00000000000E+00 0. -1.
          1   -1    0    0  502    0 -0.00000000000E+00 -0.00000000000E+00 -0.47505825829E+02  0.47505825829E+02  0.00000000000E+00 0. -1.
         23    2    1    2    0    0 -0.88468953190E+00 -0.50212032624E+02  0.32549783536E+02  0.10897898602E+03  0.91076342097E+02 0.  0.
        -24    2    1    2    0    0  0.91348825982E+01  0.23354325054E+02  0.22405629672E+03  0.23919542583E+03  0.79902171807E+02 0.  0.
         13    1    4    4    0    0  0.34759621158E+02 -0.10335855016E+01  0.17667681813E+03  0.18006664774E+03  0.00000000000E+00 0. -1.
        -14    1    4    4    0    0 -0.25624738560E+02  0.24387910555E+02  0.47379478586E+02  0.59128778092E+02  0.00000000000E+00 0.  1.
        -13    1    3    3    0    0  0.25635945332E+02  0.96717182511E+01 -0.11851759021E+02  0.29853107358E+02  0.00000000000E+00 0. -1.
         13    1    3    3    0    0 -0.26520634864E+02 -0.59883750876E+02  0.44401542557E+02  0.79125878662E+02  0.00000000000E+00 0.  1.
          2    1    1    2  501    0 -0.82501930663E+01  0.26857707571E+02  0.11290639179E+03  0.11634971185E+03  0.00000000000E+00 0. -1.
<scales pt_clust_5="13000.00000" pt_clust_6="13000.00000" pt_clust_7="13000.00000" pt_clust_8="13000.00000" pt_clust_9="28.09630"></scales>
<clustering>
<clus scale="   28.096">  1  9  2 -1</clus>
<clus scale="   79.902">  5  6 -1 -1</clus>
<clus scale="   91.076">  7  8 -1 -1</clus>
<clus scale="   91.224">  1  5  2 -1</clus>
<clus scale="   28.096">  1  5  2 -1</clus>
</clustering>
</event>
<event>
 9    1  0.7586638E-005  0.1397313E+03  0.7546771E-02  0.1216131E+00
          1   -1    0    0  502    0 -0.00000000000E+00  0.00000000000E+00  0.33350778899E+03  0.33350778899E+03  0.00000000000E+00 0. -1.
         21   -1    0    0  501  502  0.00000000000E+00 -0.00000000000E+00 -0.86086685598E+02  0.86086685598E+02  0.00000000000E+00 0. -1.
         23    2    1    2    0    0 -0.72291061575E+02  0.72909203496E+02  0.11742360837E+03  0.18069574016E+03  0.91218951816E+02 0.  0.
        -24    2    1    2    0    0  0.99256057241E+02 -0.55430635099E+02  0.42023584431E+02  0.14523967032E+03  0.80026620453E+02 0.  0.
         13    1    4    4    0    0  0.10025633736E+03 -0.18676244578E+02  0.26792626472E+02  0.10544183291E+03  0.00000000000E+00 0. -1.
        -14    1    4    4    0    0 -0.10002801235E+01 -0.36754390521E+02  0.15230957958E+02  0.39797837419E+02  0.00000000000E+00 0.  1.
        -13    1    3    3    0    0  0.18361930280E+02  0.32637926266E+02  0.40571766437E+02  0.55212887502E+02  0.00000000000E+00 0.  1.
         13    1    3    3    0    0 -0.90652991855E+02  0.40271277230E+02  0.76851841933E+02  0.12548285265E+03  0.00000000000E+00 0. -1.
          2    1    1    2  501    0 -0.26964995666E+02 -0.17478568397E+02  0.87973910591E+02  0.93659064105E+02  0.00000000000E+00 0. -1.
<scales pt_clust_5="13000.00000" pt_clust_6="13000.00000" pt_clust_7="13000.00000" pt_clust_8="13000.00000" pt_clust_9="32.13429"></scales>
<clustering>
<clus scale="   32.134">  2  9  1 -1</clus>
<clus scale="   80.027">  5  6 -1 -1</clus>
<clus scale="   91.219">  7  8 -1 -1</clus>
<clus scale="  132.696">  2  5  1 -1</clus>
<clus scale="   32.134">  2  5  1 -1</clus>
</clustering>
</event>
<event>
 9    1  0.7586638E-005  0.1433628E+03  0.7546771E-02  0.1210493E+00
         21   -1    0    0  501  502  0.00000000000E+00  0.00000000000E+00  0.12542020643E+03  0.12542020643E+03  0.00000000000E+00 0.  1.
         -4   -1    0    0    0  501 -0.00000000000E+00 -0.00000000000E+00 -0.29326662289E+03  0.29326662289E+03  0.00000000000E+00 0.  1.
         23    2    1    2    0    0  0.13738211983E+03 -0.32702085714E+02 -0.16332854491E+03  0.23462100597E+03  0.91801577325E+02 0.  0.
        -24    2    1    2    0    0 -0.67221568585E+02  0.20392571439E+02 -0.19651757335E+02  0.11124370039E+03  0.83990315260E+02 0.  0.
         11    1    4    4    0    0 -0.18460465976E+02 -0.30743525383E+02  0.54240820594E+01  0.36268082707E+02  0.00000000000E+00 0. -1.
        -12    1    4    4    0    0 -0.48761102609E+02  0.51136096822E+02 -0.25075839394E+02  0.74975617684E+02  0.00000000000E+00 0.  1.
        -11    1    3    3    0    0  0.11089541508E+03  0.12604318809E+02 -0.84800113893E+02  0.14017032943E+03  0.00000000000E+00 0. -1.
         11    1    3    3    0    0  0.26486704757E+02 -0.45306404523E+02 -0.78528431018E+02  0.94450676534E+02  0.00000000000E+00 0.  1.
         -3    1    1    2    0  502 -0.70160551249E+02  0.12309514275E+02  0.15133885784E+02  0.72822122958E+02  0.00000000000E+00 0.  1.
<scales pt_clust_5="13000.00000" pt_clust_6="13000.00000" pt_clust_7="13000.00000" pt_clust_8="13000.00000" pt_clust_9="71.23221"></scales>
<clustering>
<clus scale="   71.232">  1  9  2 -1</clus>
<clus scale="   83.990">  5  6 -1 -1</clus>
<clus scale="   91.802">  7  8 -1 -1</clus>
<clus scale="  138.491">  1  5  2 -1</clus>
<clus scale="   71.232">  1  5  2 -1</clus>
</clustering>
</event>
<event>
 9    1  0.7586638E-005  0.1174506E+03  0.7546771E-02  0.1249803E+00
         21   -1    0    0  501  502  0.00000000000E+00  0.00000000000E+00  0.28014527205E+03  0.28014527205E+03  0.00000000000E+00 0. -1.
          1   -1    0    0  502    0 -0.00000000000E+00 -0.00000000000E+00 -0.10820308200E+03  0.10820308200E+03  0.00000000000E+00 0. -1.
         23    2    1    2    0    0 -0.83888210281E+02 -0.15321164899E+01  0.94287152375E+00  0.12163955240E+03  0.88066523126E+02 0.  0.
        -24    2    1    2    0    0  0.62638814589E+02 -0.51905491593E+02  0.35946132488E+02  0.11992161614E+03  0.80444194480E+02 0.  0.
         13    1    4    4    0    0  0.90171456907E+01 -0.58514837445E+02  0.10217371956E+02  0.60080694131E+02  0.00000000000E+00 0. -1.
        -14    1    4    4    0    0  0.53621668898E+02  0.66093458519E+01  0.25728760532E+02  0.59840922006E+02  0.00000000000E+00 0.  1.
        -11    1    3    3    0    0 -0.51631129961E+02 -0.53720877543E+01 -0.42712867347E+02  0.67223671016E+02  0.00000000000E+00 0. -1.
         11    1    3    3    0    0 -0.32257080320E+02  0.38399712644E+01  0.43655738871E+02  0.54415881380E+02  0.00000000000E+00 0.  1.
          2    1    1    2  501    0  0.21249395692E+02  0.53437608083E+02  0.13505318603E+03  0.14678718552E+03  0.00000000000E+00 0. -1.
<scales pt_clust_5="13000.00000" pt_clust_6="13000.00000" pt_clust_7="13000.00000" pt_clust_8="13000.00000" pt_clust_9="57.50752"></scales>
<clustering>
<clus scale="   57.508">  1  9  2 -1</clus>
<clus scale="   80.444">  5  6 -1 -1</clus>
<clus scale="   88.067">  7  8 -1 -1</clus>
<clus scale="  111.849">  1  5  2 -1</clus>
<clus scale="   57.508">  1  5  2 -1</clus>
</clustering>
</event>
<event>
 9    1  0.7586638E-005  0.1021647E+03  0.7546771E-02  0.1279943E+00
         21   -1    0    0  501  502  0.00000000000E+00  0.00000000000E+00  0.69061340343E+02  0.69061340343E+02  0.00000000000E+00 0. -1.
          1   -1    0    0  502    0 -0.00000000000E+00 -0.00000000000E+00 -0.46506201311E+03  0.46506201311E+03  0.00000000000E+00 0. -1.
         23    2    1    2    0    0 -0.19598101471E+02  0.17690599954E+02 -0.18671636160E+03  0.20887941190E+03  0.89836329623E+02 0.  0.
        -24    2    1    2    0    0  0.87805383309E+02  0.10425874817E+02 -0.22016257096E+03  0.25067111818E+03  0.80907154402E+02 0.  0.
         11    1    4    4    0    0  0.92332457980E+02  0.13163350722E+02 -0.22496132807E+03  0.24352855217E+03  0.00000000000E+00 0. -1.
        -12    1    4    4    0    0 -0.45270746707E+01 -0.27374759057E+01  0.47987571039E+01  0.71425660061E+01  0.00000000000E+00 0.  1.
        -13    1    3    3    0    0 -0.24565426633E+01  0.44996903707E+02 -0.16229027714E+03  0.16843066822E+03  0.00000000000E+00 0.  1.
         13    1    3    3    0    0 -0.17141558808E+02 -0.27306303753E+02 -0.24426084458E+02  0.40448743676E+02  0.00000000000E+00 0. -1.
          2    1    1    2  501    0 -0.68207281838E+02 -0.28116474771E+02  0.10878259793E+02  0.74572823370E+02  0.00000000000E+00 0. -1.
<scales pt_clust_5="13000.00000" pt_clust_6="13000.00000" pt_clust_7="13000.00000" pt_clust_8="13000.00000" pt_clust_9="73.77513"></scales>
<clustering>
<clus scale="   73.775">  1  9  2 -1</clus>
<clus scale="   80.907">  5  6 -1 -1</clus>
<clus scale="   89.836">  7  8 -1 -1</clus>
<clus scale="   94.409">  1  5  2 -1</clus>
<clus scale="   73.775">  1  5  2 -1</clus>
</clustering>
</event>
<event>
 9    1  0.7586638E-005  0.1030562E+03  0.7546771E-02  0.1279106E+00
         21   -1    0    0  501  502  0.00000000000E+00  0.00000000000E+00  0.23834878695E+03  0.23834878695E+03  0.00000000000E+00 0.  1.
         -2   -1    0    0    0  501 -0.00000000000E+00 -0.00000000000E+00 -0.10005536281E+03  0.10005536281E+03  0.00000000000E+00 0.  1.
         23    2    1    2    0    0 -0.34608549533E+02 -0.19319536997E+02 -0.34909734425E+02  0.10583817919E+03  0.91717143468E+02 0.  0.
        -24    2    1    2    0    0  0.70282164842E+02  0.16085442679E+02  0.85942679729E+02  0.13823963617E+03  0.80781982204E+02 0.  0.
         11    1    4    4    0    0  0.59152166009E+02  0.46424973129E+02  0.52330195438E+02  0.91611714470E+02  0.00000000000E+00 0. -1.
        -12    1    4    4    0    0  0.11129998832E+02 -0.30339530450E+02  0.33612484292E+02  0.46627921702E+02  0.00000000000E+00 0.  1.
        -11    1    3    3    0    0  0.32538050343E+01  0.22620913010E+02 -0.43061691814E+02  0.48750407737E+02  0.00000000000E+00 0. -1.
         11    1    3    3    0    0 -0.37862354567E+02 -0.41940450007E+02  0.81519573891E+01  0.57087771453E+02  0.00000000000E+00 0.  1.
         -1    1    1    2    0  502 -0.35673615309E+02  0.32340943187E+01  0.87260478833E+02  0.94326334400E+02  0.00000000000E+00 0.  1.
<scales pt_clust_5="13000.00000" pt_clust_6="13000.00000" pt_clust_7="13000.00000" pt_clust_8="13000.00000" pt_clust_9="35.81991"></scales>
<clustering>
<clus scale="   35.820">  1  9  2 -1</clus>
<clus scale="   80.782">  5  6 -1 -1</clus>
<clus scale="   91.717">  7  8 -1 -1</clus>
<clus scale="   93.457">  1  5  2 -1</clus>
<clus scale="   35.820">  1  5  2 -1</clus>
</clustering>
</event>
<event>
 9    1  0.7586638E-005  0.1138235E+03  0.7546771E-02  0.1256851E+00
         21   -1    0    0  501  502  0.00000000000E+00  0.00000000000E+00  0.57073898365E+02  0.57073898365E+02  0.00000000000E+00 0. -1.
          1   -1    0    0  502    0 -0.00000000000E+00 -0.00000000000E+00 -0.54509465932E+03  0.54509465932E+03  0.00000000000E+00 0. -1.
        -24    2    1    2    0    0 -0.63317125847E+02  0.18367848062E+02 -0.31675645554E+03  0.33339158380E+03  0.80429222013E+02 0.  0.
         23    2    1    2    0    0  0.60288078059E+02 -0.65896207442E+02 -0.18038121856E+03  0.22028740613E+03  0.89510864021E+02 0.  0.
         11    1    3    3    0    0 -0.55432705573E+02  0.41090472456E+02 -0.15250787459E+03  0.16739134860E+03  0.00000000000E+00 0. -1.
        -12    1    3    3    0    0 -0.78844202740E+01 -0.22722624393E+02 -0.16424858095E+03  0.16600023520E+03  0.00000000000E+00 0.  1.
        -13    1    4    4    0    0  0.27609051668E+02 -0.38892360782E+02 -0.17010769935E+03  0.17666778099E+03  0.00000000000E+00 0. -1.
         13    1    4    4    0    0  0.32679026391E+02 -0.27003846660E+02 -0.10273519210E+02  0.43619625139E+02  0.00000000000E+00 0.  1.
          2    1    1    2  501    0  0.30290477880E+01  0.47528359380E+02  0.91169131486E+01  0.48489567756E+02  0.00000000000E+00 0. -1.
<scales pt_clust_5="13000.00000" pt_clust_6="13000.00000" pt_clust_7="13000.00000" pt_clust_8="13000.00000" pt_clust_9="47.62478"></scales>
<clustering>
<clus scale="   47.625">  1  9  2 -1</clus>
<clus scale="   80.429">  5  6 -1 -1</clus>
<clus scale="   89.511">  7  8 -1 -1</clus>
<clus scale="  106.829">  2  5  1 -1</clus>
<clus scale="   47.625">  1  5  2 -1</clus>
</clustering>
</event>
<event>
 9    1  0.7586638E-005  0.1185467E+03  0.7546771E-02  0.1248057E+00
         21   -1    0    0  501  502  0.00000000000E+00  0.00000000000E+00  0.45125864852E+03  0.45125864852E+03  0.00000000000E+00 0. -1.
          3   -1    0    0  502    0 -0.00000000000E+00 -0.00000000000E+00 -0.95926897145E+02  0.95926897145E+02  0.00000000000E+00 0. -1.
         23    2    1    2    0    0  0.32320610929E+02  0.57187055008E+02 -0.60238766585E+01  0.11120357794E+03  0.89526350904E+02 0.  0.
        -24    2    1    2    0    0 -0.19027339250E+02 -0.11437048363E+03  0.11443101941E+03  0.18217413111E+03  0.81549424753E+02 0.  0.
         11    1    4    4    0    0  0.26844960746E+02 -0.59216677339E+02  0.30658231652E+02  0.71883196650E+02  0.00000000000E+00 0. -1.
        -12    1    4    4    0    0 -0.45872299996E+02 -0.55153806294E+02  0.83772787761E+02  0.11029093446E+03  0.00000000000E+00 0.  1.
        -11    1    3    3    0    0  0.58855395898E+02  0.38469581525E+02 -0.23741027814E+02  0.74212551032E+02  0.00000000000E+00 0. -1.
         11    1    3    3    0    0 -0.26534784969E+02  0.18717473483E+02  0.17717151155E+02  0.36991026912E+02  0.00000000000E+00 0.  1.
          4    1    1    2  501    0 -0.13293271679E+02  0.57183428625E+02  0.24692460862E+03  0.25380783661E+03  0.00000000000E+00 0. -1.
<scales pt_clust_5="13000.00000" pt_clust_6="13000.00000" pt_clust_7="13000.00000" pt_clust_8="13000.00000" pt_clust_9="58.70822"></scales>
<clustering>
<clus scale="   58.708">  1  9  2 -1</clus>
<clus scale="   81.549">  5  6 -1 -1</clus>
<clus scale="   89.526">  7  8 -1 -1</clus>
<clus scale="  112.644">  1  5  2 -1</clus>
<clus scale="   58.708">  1  5  2 -1</clus>
</clustering>
</event>
<event>
 9    1  0.7586638E-005  0.9587707E+02  0.7546771E-02  0.1295435E+00
         21   -1    0    0  501  502  0.00000000000E+00  0.00000000000E+00  0.21099293971E+03  0.21099293971E+03  0.00000000000E+00 0.  1.
          1   -1    0    0  502    0 -0.00000000000E+00 -0.00000000000E+00 -0.17831579453E+03  0.17831579453E+03  0.00000000000E+00 0. -1.
         23    2    1    2    0    0  0.80455357532E+01  0.38358339050E+02 -0.13177048084E+03  0.16507813835E+03  0.91385115424E+02 0.  0.
        -24    2    1    2    0    0 -0.49070025766E+00  0.11981709886E+02  0.41521719304E+02  0.91181828119E+02  0.80288669479E+02 0.  0.
         13    1    4    4    0    0 -0.67523631872E+01 -0.31641500029E+02  0.27268502451E+01  0.32468671746E+02  0.00000000000E+00 0. -1.
        -14    1    4    4    0    0  0.62616629296E+01  0.43623209915E+02  0.38794869059E+02  0.58713156373E+02  0.00000000000E+00 0.  1.
        -11    1    3    3    0    0 -0.33626137126E+02  0.42487401485E+02 -0.52604592973E+02  0.75519133899E+02  0.00000000000E+00 0. -1.
         11    1    3    3    0    0  0.41671672879E+02 -0.41290624354E+01 -0.79165887863E+02  0.89559004451E+02  0.00000000000E+00 0.  1.
          2    1    1    2  501    0 -0.75548354956E+01 -0.50340048936E+02  0.12292590671E+03  0.13304876778E+03  0.00000000000E+00 0. -1.
<scales pt_clust_5="13000.00000" pt_clust_6="13000.00000" pt_clust_7="13000.00000" pt_clust_8="13000.00000" pt_clust_9="50.90379"></scales>
<clustering>
<clus scale="   50.904">  1  9  2 -1</clus>
<clus scale="   80.289">  5  6 -1 -1</clus>
<clus scale="   85.367">  1  5  2 -1</clus>
<clus scale="   91.385">  7  8 -1 -1</clus>
<clus scale="   50.904">  1  5  2 -1</clus>
</clustering>
</event>
<event>
 9    1  0.7586638E-005  0.1391813E+03  0.7546771E-02  0.1217757E+00
          1   -1    0    0  502    0 -0.00000000000E+00  0.00000000000E+00  0.65870260092E+03  0.65870260092E+03  0.00000000000E+00 0. -1.
         21   -1    0    0  501  502  0.00000000000E+00 -0.00000000000E+00 -0.55163888907E+02  0.55163888907E+02  0.00000000000E+00 0. -1.
        -24    2    1    2    0    0 -0.82574999397E+02 -0.37203315998E+02  0.31291213150E+03  0.33565968259E+03  0.80936414738E+02 0.  0.
         23    2    1    2    0    0  0.10111230628E+03  0.62804797481E+02  0.30686608872E+03  0.34267106147E+03  0.95333723775E+02 0.  0.
         11    1    3    3    0    0 -0.82066149334E+02  0.13467241371E+01  0.19381464942E+03  0.21047751628E+03  0.00000000000E+00 0. -1.
        -12    1    3    3    0    0 -0.50885006239E+00 -0.38550040136E+02  0.11909748208E+03  0.12518216630E+03  0.00000000000E+00 0.  1.
        -13    1    4    4    0    0  0.95731043822E+02  0.21329176780E+02  0.14197111493E+03  0.17255481450E+03  0.00000000000E+00 0. -1.
         13    1    4    4    0    0  0.53812624589E+01  0.41475620701E+02  0.16489497380E+03  0.17011624697E+03  0.00000000000E+00 0.  1.
          2    1    1    2  501    0 -0.18537306884E+02 -0.25601481482E+02 -0.16239508210E+02  0.35535745771E+02  0.00000000000E+00 0. -1.
<scales pt_clust_5="13000.00000" pt_clust_6="13000.00000" pt_clust_7="13000.00000" pt_clust_8="13000.00000" pt_clust_9="31.60803"></scales>
<clustering>
<clus scale="   31.608">  2  9  1 -1</clus>
<clus scale="   80.936">  5  6 -1 -1</clus>
<clus scale="   95.334">  7  8 -1 -1</clus>
<clus scale="  129.744">  1  5  2 -1</clus>
<clus scale="   31.608">  2  5  1 -1</clus>
</clustering>
</event>
<event>
 9    1  0.7586638E-005  0.1981043E+03  0.7546771E-02  0.1152440E+00
          1   -1    0    0  502    0 -0.00000000000E+00  0.00000000000E+00  0.18934760968E+03  0.18934760968E+03  0.00000000000E+00 0. -1.
         21   -1    0    0  501  502  0.00000000000E+00 -0.00000000000E+00 -0.37242308179E+03  0.37242308179E+03  0.00000000000E+00 0. -1.
         23    2    1    2    0    0  0.15402241466E+02  0.18106687207E+03  0.43102605486E+02  0.20773441619E+03  0.90957747697E+02 0.  0.
        -24    2    1    2    0    0  0.31393827784E+02 -0.15906747272E+03 -0.24018572492E+03  0.30046333572E+03  0.79378840746E+02 0.  0.
         13    1    4    4    0    0  0.12705235316E+00 -0.71329995207E+02 -0.16834848694E+03  0.18283653195E+03  0.00000000000E+00 0. -1.
        -14    1    4    4    0    0  0.31266775431E+02 -0.87737477515E+02 -0.71837237976E+02  0.11762680378E+03  0.00000000000E+00 0.  1.
        -13    1    3    3    0    0 -0.22545807417E+02  0.38273205137E+02  0.40270507947E+02  0.59957197014E+02  0.00000000000E+00 0.  1.
         13    1    3    3    0    0  0.37948048882E+02  0.14279366694E+03  0.28320975389E+01  0.14777721918E+03  0.00000000000E+00 0. -1.
          2    1    1    2  501    0 -0.46796069250E+02 -0.21999399350E+02  0.14007647323E+02  0.53572939555E+02  0.00000000000E+00 0. -1.
<scales pt_clust_5="13000.00000" pt_clust_6="13000.00000" pt_clust_7="13000.00000" pt_clust_8="13000.00000" pt_clust_9="51.70927"></scales>
<clustering>
<clus scale="   51.709">  2  9  1 -1</clus>
<clus scale="   79.379">  5  6 -1 -1</clus>
<clus scale="   90.958">  7  8 -1 -1</clus>
<clus scale="  193.062">  2  5  1 -1</clus>
<clus scale="   51.709">  2  5  1 -1</clus>
</clustering>
</event>
<event>
 9    1  0.1920683E-004  0.2018032E+03  0.7546771E-02  0.1149350E+00
          3   -1    0    0  502    0 -0.00000000000E+00  0.00000000000E+00  0.61630618768E+03  0.61630618768E+03  0.00000000000E+00 0. -1.
         21   -1    0    0  501  502  0.00000000000E+00 -0.00000000000E+00 -0.35549047934E+03  0.35549047934E+03  0.00000000000E+00 0. -1.
        -24    2    1    2    0    0 -0.17619949938E+03  0.44979559287E+02  0.47966722830E+03  0.51921975148E+03  0.80243853893E+02 0.  0.
         23    2    1    2    0    0  0.13386187200E+03 -0.32505404121E+02 -0.30982824926E+03  0.35145894229E+03  0.92489145347E+02 0.  0.
         11    1    3    3    0    0 -0.18070410735E+03  0.54069850421E+02  0.45464043766E+03  0.49221484201E+03  0.00000000000E+00 0. -1.
        -12    1    3    3    0    0  0.45046079702E+01 -0.90902911347E+01  0.25026790641E+02  0.27004909474E+02  0.00000000000E+00 0.  1.
        -13    1    4    4    0    0  0.33747392385E+02 -0.15593359480E+01 -0.12193549080E+02  0.35916579188E+02  0.00000000000E+00 0.  1.
         13    1    4    4    0    0  0.10011447961E+03 -0.30946068174E+02 -0.29763470018E+03  0.31554236310E+03  0.00000000000E+00 0. -1.
          4    1    1    2  501    0  0.42337627379E+02 -0.12474155165E+02  0.90976729297E+02  0.10111797324E+03  0.00000000000E+00 0. -1.
<scales pt_clust_5="13000.00000" pt_clust_6="13000.00000" pt_clust_7="13000.00000" pt_clust_8="13000.00000" pt_clust_9="44.13707"></scales>
<clustering>
<clus scale="   44.137">  2  9  1 -1</clus>
<clus scale="   80.244">  5  6 -1 -1</clus>
<clus scale="   92.489">  7  8 -1 -1</clus>
<clus scale="  196.493">  1  5  2 -1</clus>
<clus scale="   44.137">  2  5  1 -1</clus>
</clustering>
</event>
<event>
 9    1  0.7586638E-005  0.9662635E+02  0.7546771E-02  0.1292565E+00
         21   -1    0    0  501  502  0.00000000000E+00  0.00000000000E+00  0.18220601272E+03  0.18220601272E+03  0.00000000000E+00 0. -1.
         -2   -1    0    0    0  501 -0.00000000000E+00 -0.00000000000E+00 -0.19265357876E+03  0.19265357876E+03  0.00000000000E+00 0.  1.
        -24    2    1    2    0    0 -0.13706136595E+02 -0.28925608106E+02 -0.96171198111E+02  0.13082581611E+03  0.82716055459E+02 0.  0.
         23    2    1    2    0    0 -0.40114458933E+02  0.27650811507E+02  0.13543877617E+03  0.17075432966E+03  0.91867523181E+02 0.  0.
         13    1    3    3    0    0 -0.35792162915E+02 -0.47707825662E+02 -0.62448388396E+02  0.86353440978E+02  0.00000000000E+00 0. -1.
        -14    1    3    3    0    0  0.22086026320E+02  0.18782217556E+02 -0.33722809715E+02  0.44472375134E+02  0.00000000000E+00 0.  1.
        -11    1    4    4    0    0 -0.89140172151E+01 -0.21577921639E+02  0.42784370994E-01  0.23346696462E+02  0.00000000000E+00 0.  1.
         11    1    4    4    0    0 -0.31200441718E+02  0.49228733146E+02  0.13539599180E+03  0.14740763320E+03  0.00000000000E+00 0. -1.
         -1    1    1    2    0  502  0.53820595528E+02  0.12747965989E+01 -0.49715144098E+02  0.73279445700E+02  0.00000000000E+00 0.  1.
<scales pt_clust_5="13000.00000" pt_clust_6="13000.00000" pt_clust_7="13000.00000" pt_clust_8="13000.00000" pt_clust_9="53.83572"></scales>
<clustering>
<clus scale="   53.836">  1  9  2 -1</clus>
<clus scale="   82.716">  5  6 -1 -1</clus>
<clus scale="   87.971">  2  5  1 -1</clus>
<clus scale="   91.868">  7  8 -1 -1</clus>
<clus scale="   53.836">  1  5  2 -1</clus>
</clustering>
</event>
<event>
 9    1  0.7586638E-005  0.8905205E+02  0.7546771E-02  0.1309493E+00
         21   -1    0    0  501  502  0.00000000000E+00  0.00000000000E+00  0.16357407754E+03  0.16357407754E+03  0.00000000000E+00 0.  1.
          1   -1    0    0  502    0 -0.00000000000E+00 -0.00000000000E+00 -0.21430056613E+03  0.21430056613E+03  0.00000000000E+00 0. -1.
         23    2    1    2    0    0  0.61492109519E+01  0.41014830067E+02  0.30660453603E+02  0.10163692821E+03  0.87578380211E+02 0.  0.
        -24    2    1    2    0    0 -0.82217943261E+01  0.21992003665E+02  0.71830054812E+02  0.11055849265E+03  0.80699302320E+02 0.  0.
         13    1    4    4    0    0 -0.27673540907E+02 -0.58069790699E+01 -0.29615606425E+01  0.28430911236E+02  0.00000000000E+00 0. -1.
        -14    1    4    4    0    0  0.19451746581E+02  0.27798982735E+02  0.74791615454E+02  0.82127581411E+02  0.00000000000E+00 0.  1.
        -13    1    3    3    0    0  0.37164393399E+02  0.47796148388E+02  0.48819760707E+01  0.60741234988E+02  0.00000000000E+00 0. -1.
         13    1    3    3    0    0 -0.31015182447E+02 -0.67813183213E+01  0.25778477532E+02  0.40895693224E+02  0.00000000000E+00 0.  1.
          2    1    1    2  501    0  0.20725833742E+01 -0.63006833732E+02 -0.15321699701E+03  0.16567922281E+03  0.00000000000E+00 0. -1.
<scales pt_clust_5="13000.00000" pt_clust_6="13000.00000" pt_clust_7="13000.00000" pt_clust_8="13000.00000" pt_clust_9="63.04094"></scales>
<clustering>
<clus scale="   63.041">  1  9  2 -1</clus>
<clus scale="   80.699">  5  6 -1 -1</clus>
<clus scale="   82.296">  1  5  2 -1</clus>
<clus scale="   87.578">  7  8 -1 -1</clus>
<clus scale="   63.041">  1  5  2 -1</clus>
</clustering>
</event>
<event>
 9    1  0.7586638E-005  0.1299655E+03  0.7546771E-02  0.1229660E+00
         21   -1    0    0  501  502  0.00000000000E+00  0.00000000000E+00  0.72828346099E+02  0.72828346099E+02  0.00000000000E+00 0.  1.
         -2   -1    0    0    0  501 -0.00000000000E+00 -0.00000000000E+00 -0.49661257068E+03  0.49661257068E+03  0.00000000000E+00 0.  1.
        -24    2    1    2    0    0 -0.23943782910E+01  0.10227455480E+03 -0.39563130706E+03  0.41644695246E+03  0.80237868106E+02 0.  0.
         23    2    1    2    0    0  0.49258009446E+01 -0.60714840672E+02 -0.11939767227E+02  0.10831193011E+03  0.88760130518E+02 0.  0.
         13    1    3    3    0    0  0.28567054992E+02  0.20282180610E+02 -0.18535084574E+03  0.18863292263E+03  0.00000000000E+00 0. -1.
        -14    1    3    3    0    0 -0.30961433283E+02  0.81992374185E+02 -0.21028046132E+03  0.22781402983E+03  0.00000000000E+00 0.  1.
        -11    1    4    4    0    0 -0.39436732275E+02 -0.45727454582E+02 -0.11580952749E+02  0.61484749504E+02  0.00000000000E+00 0.  1.
         11    1    4    4    0    0  0.44362533219E+02 -0.14987386090E+02 -0.35881447755E+00  0.46827180603E+02  0.00000000000E+00 0. -1.
         -1    1    1    2    0  502 -0.25314226536E+01 -0.41559714124E+02 -0.16213150289E+02  0.44682034208E+02  0.00000000000E+00 0.  1.
<scales pt_clust_5="13000.00000" pt_clust_6="13000.00000" pt_clust_7="13000.00000" pt_clust_8="13000.00000" pt_clust_9="41.63674"></scales>
<clustering>
<clus scale="   41.637">  1  9  2 -1</clus>
<clus scale="   80.238">  5  6 -1 -1</clus>
<clus scale="   88.760">  7  8 -1 -1</clus>
<clus scale="  124.301">  2  5  1 -1</clus>
<clus scale="   41.637">  1  5  2 -1</clus>
</clustering>
</event>
<event>
 9    1  0.7586638E-005  0.3179932E+03  0.7546771E-02  0.1076577E+00
         21   -1    0    0  501  502  0.00000000000E+00  0.00000000000E+00  0.94998999758E+03  0.94998999758E+03  0.00000000000E+00 0. -1.
          3   -1    0    0  502    0 -0.00000000000E+00 -0.00000000000E+00 -0.10566098791E+03  0.10566098791E+03  0.00000000000E+00 0. -1.
        -24    2    1    2    0    0  0.85470422675E+02  0.12424476605E+03  0.18301772096E+03  0.25506393281E+03  0.93915752620E+02 0.  0.
         23    2    1    2    0    0  0.52975767690E+02  0.64665548597E+02  0.31193433832E+02  0.12834976895E+03  0.92263577518E+02 0.  0.
         11    1    3    3    0    0  0.10560943590E+03  0.94616568242E+02  0.14820386904E+03  0.20510981141E+03  0.00000000000E+00 0. -1.
        -12    1    3    3    0    0 -0.20139013227E+02  0.29628197810E+02  0.34813851926E+02  0.49954121403E+02  0.00000000000E+00 0.  1.
        -11    1    4    4    0    0  0.68839219801E+02  0.18425010212E+02  0.17540786561E+01  0.71283911060E+02  0.00000000000E+00 0. -1.
         11    1    4    4    0    0 -0.15863452111E+02  0.46240538385E+02  0.29439355176E+02  0.57065857885E+02  0.00000000000E+00 0.  1.
          4    1    1    2  501    0 -0.13844619037E+03 -0.18891031465E+03  0.63011785488E+03  0.67223728373E+03  0.00000000000E+00 0. -1.
<scales pt_clust_5="13000.00000" pt_clust_6="13000.00000" pt_clust_7="13000.00000" pt_clust_8="13000.00000" pt_clust_9="234.21028"></scales>
<clustering>
<clus scale="   92.264">  7  8 -1 -1</clus>
<clus scale="   93.916">  5  6 -1 -1</clus>
<clus scale="  123.470">  5  7 -1 -1</clus>
<clus scale="  234.210">  1  9  2 -1</clus>
<clus scale="  234.210">  1  5  2 -1</clus>
</clustering>
</event>
<event>
 9    1  0.7586638E-005  0.1711839E+03  0.7546771E-02  0.1177969E+00
         21   -1    0    0  501  502  0.00000000000E+00  0.00000000000E+00  0.21333145897E+03  0.21333145897E+03  0.00000000000E+00 0.  1.
         -2   -1    0    0    0  501 -0.00000000000E+00 -0.00000000000E+00 -0.56566073863E+03  0.56566073863E+03  0.00000000000E+00 0.  1.
         23    2    1    2    0    0  0.35489181676E+02  0.14686093767E+03 -0.44607701386E+03  0.47986693443E+03  0.91978016034E+02 0.  0.
        -24    2    1    2    0    0  0.45394773326E+02 -0.12706241160E+03 -0.18915941681E+02  0.15902779827E+03  0.82015156453E+02 0.  0.
         13    1    4    4    0    0 -0.52422015300E+00 -0.29767424453E+02  0.28720221601E+02  0.41366961383E+02  0.00000000000E+00 0. -1.
        -14    1    4    4    0    0  0.45918993479E+02 -0.97294987143E+02 -0.47636163282E+02  0.11766083689E+03  0.00000000000E+00 0.  1.
        -11    1    3    3    0    0  0.22486428157E+02  0.83764630862E+02 -0.12345068809E+03  0.15087155207E+03  0.00000000000E+00 0.  1.
         11    1    3    3    0    0  0.13002753519E+02  0.63096306808E+02 -0.32262632577E+03  0.32899538235E+03  0.00000000000E+00 0. -1.
         -1    1    1    2    0  502 -0.80883955002E+02 -0.19798526074E+02  0.11266367587E+03  0.14009746490E+03  0.00000000000E+00 0.  1.
<scales pt_clust_5="13000.00000" pt_clust_6="13000.00000" pt_clust_7="13000.00000" pt_clust_8="13000.00000" pt_clust_9="83.27182"></scales>
<clustering>
<clus scale="   82.015">  5  6 -1 -1</clus>
<clus scale="   83.272">  1  9  2 -1</clus>
<clus scale="   91.978">  7  8 -1 -1</clus>
<clus scale="  166.044">  1  5  2 -1</clus>
<clus scale="   83.272">  1  5  2 -1</clus>
</clustering>
</event>
<event>
 9    1  0.7586638E-005  0.1293452E+03  0.7546771E-02  0.1233236E+00
          1   -1    0    0  502    0 -0.00000000000E+00  0.00000000000E+00  0.27660628478E+03  0.27660628478E+03  0.00000000000E+00 0. -1.
         21   -1    0    0  501  502  0.00000000000E+00 -0.00000000000E+00 -0.26456274556E+03  0.26456274556E+03  0.00000000000E+00 0. -1.
        -24    2    1    2    0    0 -0.10525777865E+03  0.36181484136E+02  0.12497536819E+03  0.18628152499E+03  0.81814816127E+02 0.  0.
         23    2    1    2    0    0  0.55991351124E+02  0.60742997177E+02  0.66765628160E+02  0.14485724074E+03  0.98494811965E+02 0.  0.
         11    1    3    3    0    0 -0.11301946918E+03  0.22979826006E+02  0.12614683799E+03  0.17092248990E+03  0.00000000000E+00 0. -1.
        -12    1    3    3    0    0  0.77616905378E+01  0.13201658130E+02 -0.11714698015E+01  0.15359035089E+02  0.00000000000E+00 0.  1.
        -11    1    4    4    0    0  0.24422162903E+02 -0.26217566997E+02  0.22398427534E+02  0.42255087458E+02  0.00000000000E+00 0.  1.
         11    1    4    4    0    0  0.31569188221E+02  0.86960564174E+02  0.44367200626E+02  0.10260215328E+03  0.00000000000E+00 0. -1.
          2    1    1    2  501    0  0.49266427522E+02 -0.96924481312E+02 -0.17969745713E+03  0.21003026462E+03  0.00000000000E+00 0. -1.
<scales pt_clust_5="13000.00000" pt_clust_6="13000.00000" pt_clust_7="13000.00000" pt_clust_8="13000.00000" pt_clust_9="108.72689"></scales>
<clustering>
<clus scale="   81.815">  5  6 -1 -1</clus>
<clus scale="   98.495">  7  8 -1 -1</clus>
<clus scale="  108.727">  2  9  1 -1</clus>
<clus scale="  117.144">  1  5  2 -1</clus>
<clus scale="  108.727">  2  5  1 -1</clus>
</clustering>
</event>
<event>
 9    1  0.7586638E-005  0.1682214E+03  0.7546771E-02  0.1181246E+00
         21   -1    0    0  501  502  0.00000000000E+00  0.00000000000E+00  0.10375722775E+03  0.10375722775E+03  0.00000000000E+00 0. -1.
          1   -1    0    0  502    0 -0.00000000000E+00 -0.00000000000E+00 -0.62643105014E+03  0.62643105014E+03  0.00000000000E+00 0. -1.
         23    2    1    2    0    0  0.10849674352E+02 -0.14917431840E+03 -0.25838551541E+03  0.31256328584E+03  0.92531294032E+02 0.  0.
        -24    2    1    2    0    0  0.11777380322E+02  0.11605145807E+03  0.77478193865E+01  0.14264724473E+03  0.81740810595E+02 0.  0.
         13    1    4    4    0    0  0.10595685847E+02  0.97808179788E+02  0.39495411334E+02  0.10601224509E+03  0.00000000000E+00 0. -1.
        -14    1    4    4    0    0  0.11816944745E+01  0.18243278278E+02 -0.31747591948E+02  0.36634999640E+02  0.00000000000E+00 0.  1.
        -11    1    3    3    0    0  0.34775790842E+02 -0.82275384000E+02 -0.77619451421E+02  0.11833585120E+03  0.00000000000E+00 0. -1.
         11    1    3    3    0    0 -0.23926116490E+02 -0.66898934404E+02 -0.18076606399E+03  0.19422743464E+03  0.00000000000E+00 0.  1.
          2    1    1    2  501    0 -0.22627054674E+02  0.33122860338E+02 -0.27203612636E+03  0.27497774733E+03  0.00000000000E+00 0. -1.
<scales pt_clust_5="13000.00000" pt_clust_6="13000.00000" pt_clust_7="13000.00000" pt_clust_8="13000.00000" pt_clust_9="40.11370"></scales>
<clustering>
<clus scale="   40.114">  1  9  2 -1</clus>
<clus scale="   81.741">  5  6 -1 -1</clus>
<clus scale="   92.531">  7  8 -1 -1</clus>
<clus scale="  162.536">  1  5  2 -1</clus>
<clus scale="   40.114">  1  5  2 -1</clus>
</clustering>
</event>
<event>
 9    1  0.7586638E-005  0.1150802E+03  0.7546771E-02  0.1256246E+00
         21   -1    0    0  501  502  0.00000000000E+00  0.00000000000E+00  0.17569079197E+03  0.17569079197E+03  0.00000000000E+00 0.  1.
          1   -1    0    0  502    0 -0.00000000000E+00 -0.00000000000E+00 -0.17364424527E+03  0.17364424527E+03  0.00000000000E+00 0. -1.
        -24    2    1    2    0    0  0.27972190357E+02  0.62137057949E+02 -0.12495389679E+03  0.16333109057E+03  0.80125597779E+02 0.  0.
         23    2    1    2    0    0 -0.55829911512E+01 -0.64099420756E+02  0.10719810056E+03  0.15604964991E+03  0.93381769855E+02 0.  0.
         11    1    3    3    0    0  0.11533129783E+02  0.67568490919E+02 -0.12851791630E+03  0.14565496510E+03  0.00000000000E+00 0. -1.
        -12    1    3    3    0    0  0.16439060574E+02 -0.54314329695E+01  0.35640195084E+01  0.17676125472E+02  0.00000000000E+00 0.  1.
        -11    1    4    4    0    0  0.43268104000E+02 -0.21340089191E+02  0.40753270935E+02  0.63153442680E+02  0.00000000000E+00 0.  1.
         11    1    4    4    0    0 -0.48851095151E+02 -0.42759331565E+02  0.66444829626E+02  0.92896207229E+02  0.00000000000E+00 0. -1.
          2    1    1    2  501    0 -0.22389199205E+02  0.19623628063E+01  0.19802342932E+02  0.29954296761E+02  0.00000000000E+00 0. -1.
<scales pt_clust_5="13000.00000" pt_clust_6="13000.00000" pt_clust_7="13000.00000" pt_clust_8="13000.00000" pt_clust_9="22.47503"></scales>
<clustering>
<clus scale="   22.475">  1  9  2 -1</clus>
<clus scale="   80.126">  5  6 -1 -1</clus>
<clus scale="   93.382">  7  8 -1 -1</clus>
<clus scale="  104.611">  2  5  1 -1</clus>
<clus scale="   22.475">  1  5  2 -1</clus>
</clustering>
</event>
<event>
 9    1  0.7586638E-005  0.9859696E+02  0.7546771E-02  0.1287218E+00
          1   -1    0    0  502    0 -0.00000000000E+00  0.00000000000E+00  0.19128117221E+03  0.19128117221E+03  0.00000000000E+00 0. -1.
         21   -1    0    0  501  502  0.00000000000E+00 -0.00000000000E+00 -0.10994656503E+03  0.10994656503E+03  0.00000000000E+00 0.  1.
         23    2    1    2    0    0 -0.16603288068E+02  0.20120674932E+02  0.13497438618E+03  0.16665880242E+03  0.94215501726E+02 0.  0.
        -24    2    1    2    0    0  0.41152620336E+02 -0.19313013473E+02 -0.36207521326E+02  0.10444908024E+03  0.86787643780E+02 0.  0.
         11    1    4    4    0    0  0.50774538660E+02 -0.42404407329E+02 -0.42532432459E+02  0.78646012919E+02  0.00000000000E+00 0. -1.
        -12    1    4    4    0    0 -0.96219183240E+01  0.23091393856E+02  0.63249111333E+01  0.25803067324E+02  0.00000000000E+00 0.  1.
        -11    1    3    3    0    0 -0.14971417193E+02 -0.36560378599E+02  0.70346614692E+02  0.80681167658E+02  0.00000000000E+00 0. -1.
         11    1    3    3    0    0 -0.16318708748E+01  0.56681053531E+02  0.64627771487E+02  0.85977634763E+02  0.00000000000E+00 0.  1.
          2    1    1    2  501    0 -0.24549332269E+02 -0.80766145914E+00 -0.17432257678E+02  0.30119854575E+02  0.00000000000E+00 0. -1.
<scales pt_clust_5="13000.00000" pt_clust_6="13000.00000" pt_clust_7="13000.00000" pt_clust_8="13000.00000" pt_clust_9="24.56261"></scales>
<clustering>
<clus scale="   24.563">  2  9  1 -1</clus>
<clus scale="   86.788">  5  6 -1 -1</clus>
<clus scale="   91.525">  2  5  1 -1</clus>
<clus scale="   94.216">  7  8 -1 -1</clus>
<clus scale="   24.563">  2  5  1 -1</clus>
</clustering>
</event>
<event>
 9    1  0.7586638E-005  0.9422468E+02  0.7546771E-02  0.1300585E+00
          1   -1    0    0  502    0 -0.00000000000E+00  0.00000000000E+00  0.11267078816E+03  0.11267078816E+03  0.00000000000E+00 0. -1.
         21   -1    0    0  501  502  0.00000000000E+00 -0.00000000000E+00 -0.32536439751E+03  0.32536439751E+03  0.00000000000E+00 0.  1.
         23    2    1    2    0    0  0.87294726819E+01  0.17531185159E+02  0.81526061290E+02  0.12488309702E+03  0.92551299858E+02 0.  0.
        -24    2    1    2    0    0 -0.11694355053E+02  0.78153496416E+01 -0.20809782362E+03  0.22332887402E+03  0.79832600744E+02 0.  0.
         13    1    4    4    0    0 -0.39898093053E+02 -0.13827545514E+02 -0.80910573362E+02  0.91266531248E+02  0.00000000000E+00 0. -1.
        -14    1    4    4    0    0  0.28203738001E+02  0.21642895156E+02 -0.12718725026E+03  0.13206234277E+03  0.00000000000E+00 0.  1.
        -11    1    3    3    0    0  0.99545732735E+01 -0.37747067897E+02  0.29124363155E+02  0.48704858003E+02  0.00000000000E+00 0.  1.
         11    1    3    3    0    0 -0.12251005917E+01  0.55278253055E+02  0.52401698135E+02  0.76178239017E+02  0.00000000000E+00 0. -1.
          2    1    1    2  501    0  0.29648823707E+01 -0.25346534800E+02 -0.86121847012E+02  0.89823214630E+02  0.00000000000E+00 0. -1.
<scales pt_clust_5="13000.00000" pt_clust_6="13000.00000" pt_clust_7="13000.00000" pt_clust_8="13000.00000" pt_clust_9="25.51935"></scales>
<clustering>
<clus scale="   25.519">  2  9  1 -1</clus>
<clus scale="   79.833">  5  6 -1 -1</clus>
<clus scale="   81.767">  2  5  1 -1</clus>
<clus scale="   92.551">  7  8 -1 -1</clus>
<clus scale="   25.519">  2  5  1 -1</clus>
</clustering>
</event>
<event>
 9    1  0.7586638E-005  0.1156690E+03  0.7546771E-02  0.1256961E+00
         -4   -1    0    0    0  501 -0.00000000000E+00  0.00000000000E+00  0.18030461647E+03  0.18030461647E+03  0.00000000000E+00 0.  1.
         21   -1    0    0  501  502  0.00000000000E+00 -0.00000000000E+00 -0.89254503456E+02  0.89254503456E+02  0.00000000000E+00 0. -1.
        -24    2    1    2    0    0 -0.50884846542E+02 -0.60962234299E+02  0.45159286224E+02  0.11830662434E+03  0.75176024190E+02 0.  0.
         23    2    1    2    0    0  0.21600465381E+02  0.51723895852E+02  0.19187680981E+02  0.11055876298E+03  0.93344156019E+02 0.  0.
         11    1    3    3    0    0  0.18238936328E+02 -0.25825023929E+02  0.16280060908E+02  0.35561651290E+02  0.00000000000E+00 0. -1.
        -12    1    3    3    0    0 -0.69123782870E+02 -0.35137210370E+02  0.28879225317E+02  0.82744973054E+02  0.00000000000E+00 0.  1.
        -13    1    4    4    0    0 -0.17463505284E+02  0.61910560628E+02 -0.31819231929E+01  0.64405094280E+02  0.00000000000E+00 0. -1.
         13    1    4    4    0    0  0.39063970665E+02 -0.10186664775E+02  0.22369604174E+02  0.46153668698E+02  0.00000000000E+00 0.  1.
         -3    1    1    2    0  502  0.29284381161E+02  0.92383384461E+01  0.26703145811E+02  0.40693732606E+02  0.00000000000E+00 0.  1.
<scales pt_clust_5="13000.00000" pt_clust_6="13000.00000" pt_clust_7="13000.00000" pt_clust_8="13000.00000" pt_clust_9="30.70705"></scales>
<clustering>
<clus scale="   30.707">  2  9  1 -1</clus>
<clus scale="   75.176">  5  6 -1 -1</clus>
<clus scale="   93.344">  7  8 -1 -1</clus>
<clus scale="  101.576">  1  5  2 -1</clus>
<clus scale="   30.707">  2  5  1 -1</clus>
</clustering>
</event>
<event>
 9    1  0.7586638E-005  0.2995954E+03  0.7546771E-02  0.1124574E+00
          1   -1    0    0  502    0 -0.00000000000E+00  0.00000000000E+00  0.63860217500E+03  0.63860217500E+03  0.00000000000E+00 0. -1.
         21   -1    0    0  501  502  0.00000000000E+00 -0.00000000000E+00 -0.26548156126E+03  0.26548156126E+03  0.00000000000E+00 0. -1.
         23    2    1    2    0    0 -0.58644357796E+02 -0.16501841151E+02  0.28708263120E+03  0.30726548165E+03  0.91017402790E+02 0.  0.
        -24    2    1    2    0    0 -0.12113273917E+03 -0.23515474168E+03  0.73722340813E+02  0.28729844053E+03  0.84466072249E+02 0.  0.
         11    1    4    4    0    0 -0.93918335070E+02 -0.20903732284E+03  0.90014473548E+02  0.24621101001E+03  0.00000000000E+00 0. -1.
        -12    1    4    4    0    0 -0.27214404102E+02 -0.26117418841E+02 -0.16292132735E+02  0.41087430519E+02  0.00000000000E+00 0.  1.
        -11    1    3    3    0    0  0.18175549786E+02  0.17123043900E+02  0.81448999914E+02  0.85190896400E+02  0.00000000000E+00 0.  1.
         11    1    3    3    0    0 -0.76819907582E+02 -0.33624885051E+02  0.20563363129E+03  0.22207458525E+03  0.00000000000E+00 0. -1.
          2    1    1    2  501    0  0.17977709697E+03  0.25165658283E+03  0.12315641728E+02  0.30951981408E+03  0.00000000000E+00 0. -1.
<scales pt_clust_5="13000.00000" pt_clust_6="13000.00000" pt_clust_7="13000.00000" pt_clust_8="13000.00000" pt_clust_9="287.44194"></scales>
<clustering>
<clus scale="   84.466">  5  6 -1 -1</clus>
<clus scale="   91.017">  7  8 -1 -1</clus>
<clus scale="  109.525">  1  7  2 -1</clus>
<clus scale="  287.442">  2  9  1 -1</clus>
<clus scale="  287.442">  2  5  1 -1</clus>
</clustering>
</event>
<event>
 9    1  0.7586638E-005  0.2384882E+03  0.7546771E-02  0.1122440E+00
          1   -1    0    0  502    0 -0.00000000000E+00  0.00000000000E+00  0.85429990176E+03  0.85429990176E+03  0.00000000000E+00 0. -1.
         21   -1    0    0  501  502  0.00000000000E+00 -0.00000000000E+00 -0.13253503221E+03  0.13253503221E+03  0.00000000000E+00 0. -1.
        -24    2    1    2    0    0  0.19906937964E+03 -0.69814559884E+02  0.44928471224E+03  0.50276566901E+03  0.80086669281E+02 0.  0.
         23    2    1    2    0    0 -0.21391276535E+03  0.52669360833E+02  0.33687531438E+03  0.41579760025E+03  0.10425897649E+03 0.  0.
         13    1    3    3    0    0  0.14762964032E+03 -0.61275749172E+02  0.40106680654E+03  0.43174507693E+03  0.00000000000E+00 0. -1.
        -14    1    3    3    0    0  0.51439739323E+02 -0.85388107122E+01  0.48217905695E+02  0.71020592082E+02  0.00000000000E+00 0.  1.
        -11    1    4    4    0    0 -0.13287701584E+03  0.28755723844E+02  0.28728256759E+03  0.31782773107E+03  0.00000000000E+00 0. -1.
         11    1    4    4    0    0 -0.81035749511E+02  0.23913636989E+02  0.49592746791E+02  0.97969869180E+02  0.00000000000E+00 0.  1.
          2    1    1    2  501    0  0.14843385707E+02  0.17145199052E+02 -0.64395157071E+02  0.68271664722E+02  0.00000000000E+00 0. -1.
<scales pt_clust_5="13000.00000" pt_clust_6="13000.00000" pt_clust_7="13000.00000" pt_clust_8="13000.00000" pt_clust_9="22.67783"></scales>
<clustering>
<clus scale="   22.678">  2  9  1 -1</clus>
<clus scale="   80.087">  5  6 -1 -1</clus>
<clus scale="  104.259">  7  8 -1 -1</clus>
<clus scale="  228.955">  1  5  2 -1</clus>
<clus scale="   22.678">  2  5  1 -1</clus>
</clustering>
</event>
<event>
 9    1  0.7586638E-005  0.9740525E+02  0.7546771E-02  0.1291797E+00
          1   -1    0    0  502    0 -0.00000000000E+00  0.00000000000E+00  0.68130111559E+03  0.68130111559E+03  0.00000000000E+00 0. -1.
         21   -1    0    0  501  502  0.00000000000E+00 -0.00000000000E+00 -0.92055307982E+02  0.92055307982E+02  0.00000000000E+00 0. -1.
         23    2    1    2    0    0  0.37450915165E+02  0.11398663175E+02  0.41244549385E+03  0.42429622443E+03  0.91561455307E+02 0.  0.
        -24    2    1    2    0    0 -0.16282977482E+02 -0.26248388642E+02  0.25368361276E+03  0.26794523384E+03  0.80530489212E+02 0.  0.
         13    1    4    4    0    0  0.10262646601E+02  0.21252673460E+02  0.13921185403E+03  0.14119822360E+03  0.00000000000E+00 0. -1.
        -14    1    4    4    0    0 -0.26545624084E+02 -0.47501062102E+02  0.11447175873E+03  0.12674701024E+03  0.00000000000E+00 0.  1.
        -13    1    3    3    0    0  0.42555904697E+02 -0.33415084334E+02  0.20664021687E+03  0.21360653574E+03  0.00000000000E+00 0.  1.
         13    1    3    3    0    0 -0.51049895317E+01  0.44813747509E+02  0.20580527698E+03  0.21068968868E+03  0.00000000000E+00 0. -1.
          2    1    1    2  501    0 -0.21167937683E+02  0.14849725467E+02 -0.76883298997E+02  0.81114965308E+02  0.00000000000E+00 0. -1.
<scales pt_clust_5="13000.00000" pt_clust_6="13000.00000" pt_clust_7="13000.00000" pt_clust_8="13000.00000" pt_clust_9="25.85722"></scales>
<clustering>
<clus scale="   25.857">  2  9  1 -1</clus>
<clus scale="   80.530">  5  6 -1 -1</clus>
<clus scale="   87.117">  2  5  1 -1</clus>
<clus scale="   91.561">  7  8 -1 -1</clus>
<clus scale="   25.857">  2  5  1 -1</clus>
</clustering>
</event>
<event>
 9    1  0.7586638E-005  0.1410014E+03  0.7546771E-02  0.1212893E+00
         21   -1    0    0  501  502  0.00000000000E+00  0.00000000000E+00  0.15281810008E+03  0.15281810008E+03  0.00000000000E+00 0.  1.
         -2   -1    0    0    0  501 -0.00000000000E+00 -0.00000000000E+00 -0.17776621811E+03  0.17776621811E+03  0.00000000000E+00 0.  1.
        -24    2    1    2    0    0 -0.10057284288E+03 -0.31636337460E+02 -0.60483702560E+02  0.14673296871E+03  0.82198121983E+02 0.  0.
         23    2    1    2    0    0  0.12255593077E+03  0.26458792203E+02  0.45664191985E+02  0.15909954517E+03  0.86645386441E+02 0.  0.
         13    1    3    3    0    0 -0.20658744456E+02 -0.38503498022E+02 -0.49088451325E+02  0.65718940466E+02  0.00000000000E+00 0. -1.
        -14    1    3    3    0    0 -0.79914098427E+02  0.68671605616E+01 -0.11395251234E+02  0.81014028244E+02  0.00000000000E+00 0.  1.
        -11    1    4    4    0    0  0.64677660145E+02  0.20783771804E+02  0.68635595212E+02  0.96571268099E+02  0.00000000000E+00 0.  1.
         11    1    4    4    0    0  0.57878270624E+02  0.56750203982E+01 -0.22971403227E+02  0.62528277069E+02  0.00000000000E+00 0. -1.
         -1    1    1    2    0  502 -0.21983087886E+02  0.51775452574E+01 -0.10128607456E+02  0.24751804316E+02  0.00000000000E+00 0.  1.
<scales pt_clust_5="13000.00000" pt_clust_6="13000.00000" pt_clust_7="13000.00000" pt_clust_8="13000.00000" pt_clust_9="22.58459"></scales>
<clustering>
<clus scale="   22.585">  1  9  2 -1</clus>
<clus scale="   82.198">  5  6 -1 -1</clus>
<clus scale="   86.645">  7  8 -1 -1</clus>
<clus scale="  138.313">  2  5  1 -1</clus>
<clus scale="   22.585">  1  5  2 -1</clus>
</clustering>
</event>
<event>
 9    1  0.7586638E-005  0.4551793E+03  0.7546771E-02  0.1026189E+00
         -2   -1    0    0    0  501 -0.00000000000E+00  0.00000000000E+00  0.14851866657E+03  0.14851866657E+03  0.00000000000E+00 0.  1.
         21   -1    0    0  501  502  0.00000000000E+00 -0.00000000000E+00 -0.16301051816E+04  0.16301051816E+04  0.00000000000E+00 0.  1.
        -24    2    1    2    0    0 -0.29571326081E+03  0.14817154233E+03 -0.28897023229E+03  0.44607014848E+03  0.77933584798E+02 0.  0.
         23    2    1    2    0    0 -0.66119897573E+02  0.92762094855E+01 -0.43581010166E+02  0.11764831792E+03  0.86509729771E+02 0.  0.
         11    1    3    3    0    0 -0.15363900236E+03  0.40465030724E+02 -0.10853473925E+03  0.19241141178E+03  0.00000000000E+00 0. -1.
        -12    1    3    3    0    0 -0.14207425844E+03  0.10770651161E+03 -0.18043549304E+03  0.25365873670E+03  0.00000000000E+00 0.  1.
        -11    1    4    4    0    0 -0.37851626551E+02  0.36189916640E+02  0.79874977989E+01  0.52974105184E+02  0.00000000000E+00 0.  1.
         11    1    4    4    0    0 -0.28268271022E+02 -0.26913707155E+02 -0.51568507965E+02  0.64674212737E+02  0.00000000000E+00 0. -1.
         -1    1    1    2    0  502  0.36183315838E+03 -0.15744775182E+03 -0.11490352726E+04  0.12149053818E+04  0.00000000000E+00 0.  1.
<scales pt_clust_5="13000.00000" pt_clust_6="13000.00000" pt_clust_7="13000.00000" pt_clust_8="13000.00000" pt_clust_9="394.60490"></scales>
<clustering>
<clus scale="   77.934">  5  6 -1 -1</clus>
<clus scale="   86.510">  7  8 -1 -1</clus>
<clus scale="  102.584">  5  7 -1 -1</clus>
<clus scale="  394.605">  2  9  1 -1</clus>
<clus scale="  394.605">  2  5  1 -1</clus>
</clustering>
</event>
<event>
 9    1  0.7586638E-005  0.1667016E+03  0.7546771E-02  0.1200962E+00
          1   -1    0    0  502    0 -0.00000000000E+00  0.00000000000E+00  0.62077049803E+03  0.62077049803E+03  0.00000000000E+00 0. -1.
         21   -1    0    0  501  502  0.00000000000E+00 -0.00000000000E+00 -0.17730196618E+03  0.17730196618E+03  0.00000000000E+00 0. -1.
        -24    2    1    2    0    0 -0.72877288766E+02 -0.19455142913E+02  0.35373906593E+03  0.36989618734E+03  0.77474259206E+02 0.  0.
         23    2    1    2    0    0  0.27777558669E+02  0.15194782054E+03  0.18596676014E+03  0.25832365817E+03  0.91037044967E+02 0.  0.
         13    1    3    3    0    0 -0.76525342576E+02 -0.24068853816E+01  0.18441258211E+03  0.19967453917E+03  0.00000000000E+00 0. -1.
        -14    1    3    3    0    0  0.36480538105E+01 -0.17048257531E+02  0.16932648382E+03  0.17022164817E+03  0.00000000000E+00 0.  1.
        -11    1    4    4    0    0  0.23558251616E+01  0.15323951076E+03  0.16635779334E+03  0.22619198256E+03  0.00000000000E+00 0. -1.
         11    1    4    4    0    0  0.25421733508E+02 -0.12916902149E+01  0.19608966810E+02  0.32131675610E+02  0.00000000000E+00 0.  1.
          2    1    1    2  501    0  0.45099730097E+02 -0.13249267763E+03 -0.96237294228E+02  0.16985261871E+03  0.00000000000E+00 0. -1.
<scales pt_clust_5="13000.00000" pt_clust_6="13000.00000" pt_clust_7="13000.00000" pt_clust_8="13000.00000" pt_clust_9="139.64838"></scales>
<clustering>
<clus scale="   77.474">  5  6 -1 -1</clus>
<clus scale="   91.037">  7  8 -1 -1</clus>
<clus scale="  108.129">  1  5  2 -1</clus>
<clus scale="  139.648">  2  9  1 -1</clus>
<clus scale="  139.648">  2  5  1 -1</clus>
</clustering>
</event>
<event>
 9    1  0.7586638E-005  0.1360626E+03  0.7546771E-02  0.1221260E+00
          3   -1    0    0  502    0 -0.00000000000E+00  0.00000000000E+00  0.10449646590E+03  0.10449646590E+03  0.00000000000E+00 0. -1.
         21   -1    0    0  501  502  0.00000000000E+00 -0.00000000000E+00 -0.28494848296E+03  0.28494848296E+03  0.00000000000E+00 0. -1.
         23    2    1    2    0    0 -0.78896582418E+02 -0.90994241464E+02 -0.29566363204E+02  0.15391335558E+03  0.91162100111E+02 0.  0.
        -24    2    1    2    0    0  0.25540332158E+02  0.80459924143E+02 -0.63675321165E+02  0.13275268779E+03  0.80265943155E+02 0.  0.
         11    1    4    4    0    0 -0.27512971121E+02  0.29127271585E+02 -0.94803536498E+01  0.41173275741E+02  0.00000000000E+00 0. -1.
        -12    1    4    4    0    0  0.53053303280E+02  0.51332652558E+02 -0.54194967515E+02  0.91579412050E+02  0.00000000000E+00 0.  1.
        -11    1    3    3    0    0 -0.46268105518E+02 -0.18052648905E+02 -0.50994432040E+02  0.71183339482E+02  0.00000000000E+00 0.  1.
         11    1    3    3    0    0 -0.32628476900E+02 -0.72941592559E+02  0.21428068836E+02  0.82730016100E+02  0.00000000000E+00 0. -1.
          4    1    1    2  501    0  0.53356250260E+02  0.10534317321E+02 -0.87210332699E+02  0.10277890548E+03  0.00000000000E+00 0. -1.
<scales pt_clust_5="13000.00000" pt_clust_6="13000.00000" pt_clust_7="13000.00000" pt_clust_8="13000.00000" pt_clust_9="54.38622"></scales>
<clustering>
<clus scale="   54.386">  2  9  1 -1</clus>
<clus scale="   80.266">  5  6 -1 -1</clus>
<clus scale="   91.162">  7  8 -1 -1</clus>
<clus scale="  129.016">  2  5  1 -1</clus>
<clus scale="   54.386">  2  5  1 -1</clus>
</clustering>
</event>
<event>
 9    1  0.7586638E-005  0.1269631E+03  0.7546771E-02  0.1235021E+00
         21   -1    0    0  501  502  0.00000000000E+00  0.00000000000E+00  0.75948783512E+02  0.75948783512E+02  0.00000000000E+00 0.  1.
          1   -1    0    0  502    0 -0.00000000000E+00 -0.00000000000E+00 -0.40361750256E+03  0.40361750256E+03  0.00000000000E+00 0. -1.
         23    2    1    2    0    0  0.92724068751E+02  0.32329542441E+01 -0.30948802335E+03  0.33564775081E+03  0.90930583994E+02 0.  0.
        -24    2    1    2    0    0 -0.72034121578E+02 -0.26801517423E+02 -0.18789642460E+02  0.11255100587E+03  0.80046500548E+02 0.  0.
         13    1    4    4    0    0 -0.69569434237E+02  0.13120132584E+02 -0.15059562243E+02  0.72379793271E+02  0.00000000000E+00 0. -1.
        -14    1    4    4    0    0 -0.24646873415E+01 -0.39921650007E+02 -0.37300802171E+01  0.40171212595E+02  0.00000000000E+00 0.  1.
        -13    1    3    3    0    0  0.11420205295E+02 -0.25696838005E+02 -0.22645466421E+02  0.36104926560E+02  0.00000000000E+00 0.  1.
         13    1    3    3    0    0  0.81303863456E+02  0.28929792249E+02 -0.28684255693E+03  0.29954282425E+03  0.00000000000E+00 0. -1.
          2    1    1    2  501    0 -0.20689947173E+02  0.23568563179E+02  0.60894676459E+00  0.31367529397E+02  0.00000000000E+00 0. -1.
<scales pt_clust_5="13000.00000" pt_clust_6="13000.00000" pt_clust_7="13000.00000" pt_clust_8="13000.00000" pt_clust_9="31.36162"></scales>
<clustering>
<clus scale="   31.362">  1  9  2 -1</clus>
<clus scale="   80.047">  5  6 -1 -1</clus>
<clus scale="   90.931">  7  8 -1 -1</clus>
<clus scale="  119.410">  1  5  2 -1</clus>
<clus scale="   31.362">  1  5  2 -1</clus>
</clustering>
</event>
<event>
 9    1  0.7586638E-005  0.1012525E+03  0.7546771E-02  0.1283245E+00
         21   -1    0    0  501  502  0.00000000000E+00  0.00000000000E+00  0.24624406085E+03  0.24624406085E+03  0.00000000000E+00 0. -1.
          1   -1    0    0  502    0 -0.00000000000E+00 -0.00000000000E+00 -0.84199872166E+02  0.84199872166E+02  0.00000000000E+00 0. -1.
         23    2    1    2    0    0  0.21394362962E+02  0.43856060790E+02  0.20116212059E+02  0.10517950053E+03  0.90977978159E+02 0.  0.
        -24    2    1    2    0    0 -0.50621143850E+02 -0.55927210988E+01  0.14919965541E+03  0.17656982090E+03  0.79514688867E+02 0.  0.
         11    1    4    4    0    0 -0.11474218334E+02  0.31165040977E+02  0.26004925010E+02  0.42180251188E+02  0.00000000000E+00 0. -1.
        -12    1    4    4    0    0 -0.39146925516E+02 -0.36757762076E+02  0.12319473040E+03  0.13438956971E+03  0.00000000000E+00 0.  1.
        -13    1    3    3    0    0  0.40142019643E+02  0.58825448764E+02 -0.37817120288E+01  0.71317014163E+02  0.00000000000E+00 0.  1.
         13    1    3    3    0    0 -0.18747656680E+02 -0.14969387974E+02  0.23897924087E+02  0.33862486368E+02  0.00000000000E+00 0. -1.
          2    1    1    2  501    0  0.29226780888E+02 -0.38263339691E+02 -0.72716787786E+01  0.48694611587E+02  0.00000000000E+00 0. -1.
<scales pt_clust_5="13000.00000" pt_clust_6="13000.00000" pt_clust_7="13000.00000" pt_clust_8="13000.00000" pt_clust_9="48.14863"></scales>
<clustering>
<clus scale="   48.149">  1  9  2 -1</clus>
<clus scale="   79.515">  5  6 -1 -1</clus>
<clus scale="   90.978">  7  8 -1 -1</clus>
<clus scale="   91.091">  1  5  2 -1</clus>
<clus scale="   48.149">  1  5  2 -1</clus>
</clustering>
</event>
<event>
 9    1  0.7586638E-005  0.1590963E+03  0.7546771E-02  0.1211696E+00
         21   -1    0    0  501  502  0.00000000000E+00  0.00000000000E+00  0.95362485200E+02  0.95362485200E+02  0.00000000000E+00 0. -1.
          3   -1    0    0  502    0 -0.00000000000E+00 -0.00000000000E+00 -0.44765278863E+03  0.44765278863E+03  0.00000000000E+00 0. -1.
         23    2    1    2    0    0 -0.12594859372E+02  0.36459068160E+02 -0.10939365776E+03  0.14738307320E+03  0.90922515225E+02 0.  0.
        -24    2    1    2    0    0 -0.12386918940E+03 -0.63816760876E+02 -0.73273407416E+02  0.17621724463E+03  0.79166722932E+02 0.  0.
         11    1    4    4    0    0 -0.83287059342E+02 -0.81006435761E+02 -0.53674994479E+02  0.12798352207E+03  0.00000000000E+00 0. -1.
        -12    1    4    4    0    0 -0.40582130060E+02  0.17189674885E+02 -0.19598412937E+02  0.48233722565E+02  0.00000000000E+00 0.  1.
        -13    1    3    3    0    0  0.24364920897E+01 -0.29964437101E+02 -0.41243221252E+02  0.51037312662E+02  0.00000000000E+00 0. -1.
         13    1    3    3    0    0 -0.15031351461E+02  0.66423505261E+02 -0.68150436508E+02  0.96345760541E+02  0.00000000000E+00 0.  1.
          4    1    1    2  501    0  0.13646404877E+03  0.27357692717E+02 -0.16962323825E+03  0.21941495599E+03  0.00000000000E+00 0. -1.
<scales pt_clust_5="13000.00000" pt_clust_6="13000.00000" pt_clust_7="13000.00000" pt_clust_8="13000.00000" pt_clust_9="138.00100"></scales>
<clustering>
<clus scale="   79.167">  5  6 -1 -1</clus>
<clus scale="   90.923">  7  8 -1 -1</clus>
<clus scale="   98.766">  2  7  1 -1</clus>
<clus scale="  138.001">  1  9  2 -1</clus>
<clus scale="  138.001">  1  5  2 -1</clus>
</clustering>
</event>
<event>
 9    1  0.7586638E-005  0.1631305E+03  0.7546771E-02  0.1199492E+00
         21   -1    0    0  501  502  0.00000000000E+00  0.00000000000E+00  0.40511141468E+02  0.40511141468E+02  0.00000000000E+00 0.  1.
          1   -1    0    0  502    0 -0.00000000000E+00 -0.00000000000E+00 -0.12549274255E+04  0.12549274255E+04  0.00000000000E+00 0. -1.
        -24    2    1    2    0    0  0.57583010996E+02 -0.65991156698E+02 -0.40403784004E+03  0.42123370529E+03  0.80750370684E+02 0.  0.
         23    2    1    2    0    0 -0.92179848845E+02 -0.88089801153E+02 -0.29233917279E+03  0.33263070307E+03  0.94467216966E+02 0.  0.
         13    1    3    3    0    0  0.21166601812E+02  0.16772719561E+02 -0.66004917883E+02  0.71316185670E+02  0.00000000000E+00 0. -1.
        -14    1    3    3    0    0  0.36416409184E+02 -0.82763876259E+02 -0.33803292216E+03  0.34991751962E+03  0.00000000000E+00 0.  1.
        -13    1    4    4    0    0 -0.43040328007E+02 -0.93375163374E+02 -0.23753688363E+03  0.25883423664E+03  0.00000000000E+00 0. -1.
         13    1    4    4    0    0 -0.49139520837E+02  0.52853622200E+01 -0.54802289156E+02  0.73796466437E+02  0.00000000000E+00 0.  1.
          2    1    1    2  501    0  0.34596837849E+02  0.15408095785E+03 -0.51803927116E+03  0.54157415856E+03  0.00000000000E+00 0. -1.
<scales pt_clust_5="13000.00000" pt_clust_6="13000.00000" pt_clust_7="13000.00000" pt_clust_8="13000.00000" pt_clust_9="132.99448"></scales>
<clustering>
<clus scale="   80.750">  5  6 -1 -1</clus>
<clus scale="   94.467">  7  8 -1 -1</clus>
<clus scale="  119.127">  2  5  1 -1</clus>
<clus scale="  132.994">  1  9  2 -1</clus>
<clus scale="  132.994">  1  5  2 -1</clus>
</clustering>
</event>
<event>
 9    1  0.7586638E-005  0.1566162E+03  0.7546771E-02  0.1216232E+00
         21   -1    0    0  501  502  0.00000000000E+00  0.00000000000E+00  0.85360765346E+02  0.85360765346E+02  0.00000000000E+00 0. -1.
          1   -1    0    0  502    0 -0.00000000000E+00 -0.00000000000E+00 -0.49171244366E+03  0.49171244366E+03  0.00000000000E+00 0. -1.
        -24    2    1    2    0    0  0.47387128054E+02  0.16598461337E+01 -0.30452230335E+02  0.98843569448E+02  0.81206021295E+02 0.  0.
         23    2    1    2    0    0  0.27609245691E+02 -0.11308310255E+03 -0.26636545220E+03  0.30491693265E+03  0.92052828080E+02 0.  0.
         11    1    3    3    0    0  0.57885599122E+02  0.27354372845E+02 -0.30884934801E+02  0.71083637337E+02  0.00000000000E+00 0. -1.
        -12    1    3    3    0    0 -0.10498471068E+02 -0.25694526711E+02  0.43270446538E+00  0.27759932111E+02  0.00000000000E+00 0.  1.
        -11    1    4    4    0    0  0.50472485423E+02 -0.88183039825E+02 -0.13320689430E+03  0.16753446507E+03  0.00000000000E+00 0.  1.
         11    1    4    4    0    0 -0.22863239731E+02 -0.24900062730E+02 -0.13315855790E+03  0.13738246758E+03  0.00000000000E+00 0. -1.
          2    1    1    2  501    0 -0.74996373745E+02  0.11142325642E+03 -0.10953399578E+03  0.17331270691E+03  0.00000000000E+00 0. -1.
<scales pt_clust_5="13000.00000" pt_clust_6="13000.00000" pt_clust_7="13000.00000" pt_clust_8="13000.00000" pt_clust_9="126.70794"></scales>
<clustering>
<clus scale="   81.206">  5  6 -1 -1</clus>
<clus scale="   92.053">  7  8 -1 -1</clus>
<clus scale="   94.036">  2  5  1 -1</clus>
<clus scale="  126.708">  1  9  2 -1</clus>
<clus scale="  126.708">  1  5  2 -1</clus>
</clustering>
</event>
<event>
 9    1  0.7586638E-005  0.1082858E+03  0.7546771E-02  0.1267853E+00
          1   -1    0    0  502    0 -0.00000000000E+00  0.00000000000E+00  0.22667086735E+03  0.22667086735E+03  0.00000000000E+00 0. -1.
         21   -1    0    0  501  502  0.00000000000E+00 -0.00000000000E+00 -0.63696961748E+02  0.63696961748E+02  0.00000000000E+00 0. -1.
         23    2    1    2    0    0  0.57883193086E+02  0.12403705394E+02  0.97418576689E+02  0.14564210762E+03  0.90647275070E+02 0.  0.
        -24    2    1    2    0    0 -0.50420764161E+02 -0.36778459101E+02  0.42807765155E+02  0.11056041568E+03  0.80598959327E+02 0.  0.
         13    1    4    4    0    0 -0.31814234784E+02 -0.51790248469E+02 -0.84779228621E+00  0.60787285867E+02  0.00000000000E+00 0. -1.
        -14    1    4    4    0    0 -0.18606529377E+02  0.15011789368E+02  0.43655557442E+02  0.49773129809E+02  0.00000000000E+00 0.  1.
        -11    1    3    3    0    0  0.36057089446E+02 -0.23669968051E+02  0.42052877361E+01  0.43336653445E+02  0.00000000000E+00 0. -1.
         11    1    3    3    0    0  0.21826103640E+02  0.36073673445E+02  0.93213288953E+02  0.10230545417E+03  0.00000000000E+00 0.  1.
          2    1    1    2  501    0 -0.74624289253E+01  0.24374753707E+02  0.22747563758E+02  0.34165305804E+02  0.00000000000E+00 0. -1.
<scales pt_clust_5="13000.00000" pt_clust_6="13000.00000" pt_clust_7="13000.00000" pt_clust_8="13000.00000" pt_clust_9="25.49151"></scales>
<clustering>
<clus scale="   25.492">  2  9  1 -1</clus>
<clus scale="   80.599">  5  6 -1 -1</clus>
<clus scale="   90.647">  7  8 -1 -1</clus>
<clus scale="  100.025">  2  5  1 -1</clus>
<clus scale="   25.492">  2  5  1 -1</clus>
</clustering>
</event>
<event>
 9    1  0.7586638E-005  0.2031367E+03  0.7546771E-02  0.1178259E+00
          1   -1    0    0  502    0 -0.00000000000E+00  0.00000000000E+00  0.55766206809E+02  0.55766206809E+02  0.00000000000E+00 0. -1.
         21   -1    0    0  501  502  0.00000000000E+00 -0.00000000000E+00 -0.14934217288E+04  0.14934217288E+04  0.00000000000E+00 0. -1.
        -24    2    1    2    0    0  0.17784388233E+02  0.53066463718E+02 -0.21281846361E+03  0.23460058566E+03  0.81322827685E+02 0.  0.
         23    2    1    2    0    0  0.46707660079E+01  0.16963399973E+03 -0.89859935015E+03  0.91894764940E+03  0.90479170729E+02 0.  0.
         13    1    3    3    0    0  0.24256745974E+02  0.51533467451E+02 -0.64162022073E+02  0.85795414034E+02  0.00000000000E+00 0. -1.
        -14    1    3    3    0    0 -0.64723577412E+01  0.15329962670E+01 -0.14865644154E+03  0.14880517163E+03  0.00000000000E+00 0.  1.
        -11    1    4    4    0    0  0.42977131885E+02  0.80661270166E+02 -0.34305205202E+03  0.35501828793E+03  0.00000000000E+00 0.  1.
         11    1    4    4    0    0 -0.38306365877E+02  0.88972729565E+02 -0.55554729813E+03  0.56392936147E+03  0.00000000000E+00 0. -1.
          2    1    1    2  501    0 -0.22455154240E+02 -0.22270046345E+03 -0.32623770821E+03  0.39563970053E+03  0.00000000000E+00 0. -1.
<scales pt_clust_5="13000.00000" pt_clust_6="13000.00000" pt_clust_7="13000.00000" pt_clust_8="13000.00000" pt_clust_9="181.87373"></scales>
<clustering>
<clus scale="   81.323">  5  6 -1 -1</clus>
<clus scale="   90.479">  7  8 -1 -1</clus>
<clus scale="   98.720">  1  5  2 -1</clus>
<clus scale="  181.874">  2  9  1 -1</clus>
<clus scale="  181.874">  2  5  1 -1</clus>
</clustering>
</event>
<event>
 9    1  0.7586638E-005  0.1816819E+03  0.7546771E-02  0.1199472E+00
         -2   -1    0    0    0  501 -0.00000000000E+00  0.00000000000E+00  0.13512963701E+04  0.13512963701E+04  0.00000000000E+00 0.  1.
         21   -1    0    0  501  502  0.00000000000E+00 -0.00000000000E+00 -0.38389953640E+02  0.38389953640E+02  0.00000000000E+00 0. -1.
        -24    2    1    2    0    0  0.10084164592E+02 -0.31267073030E+01  0.14285478088E+03  0.16688428218E+03  0.85623644778E+02 0.  0.
         23    2    1    2    0    0 -0.16143501156E+03 -0.67823508244E+01  0.44273395161E+03  0.47983751904E+03  0.90130070035E+02 0.  0.
         13    1    3    3    0    0  0.15237662002E+02 -0.43140001889E+02  0.70574721430E+02  0.84107297015E+02  0.00000000000E+00 0. -1.
        -14    1    3    3    0    0 -0.51534974094E+01  0.40013294586E+02  0.72280059453E+02  0.82776985169E+02  0.00000000000E+00 0.  1.
        -13    1    4    4    0    0 -0.13864309746E+02  0.29336062738E+02  0.94151668548E+02  0.99585944551E+02  0.00000000000E+00 0.  1.
         13    1    4    4    0    0 -0.14757070182E+03 -0.36118413563E+02  0.34858228306E+03  0.38025157449E+03  0.00000000000E+00 0. -1.
         -1    1    1    2    0  502  0.15135084697E+03  0.99090581274E+01  0.72731768392E+03  0.74296452248E+03  0.00000000000E+00 0.  1.
<scales pt_clust_5="13000.00000" pt_clust_6="13000.00000" pt_clust_7="13000.00000" pt_clust_8="13000.00000" pt_clust_9="157.74948"></scales>
<clustering>
<clus scale="   85.624">  5  6 -1 -1</clus>
<clus scale="   86.272">  1  5  2 -1</clus>
<clus scale="   90.130">  7  8 -1 -1</clus>
<clus scale="  157.749">  2  9  1 -1</clus>
<clus scale="  157.749">  2  5  1 -1</clus>
</clustering>
</event>
<event>
 9    1  0.7586638E-005  0.1064798E+03  0.7546771E-02  0.1272037E+00
         21   -1    0    0  501  502  0.00000000000E+00  0.00000000000E+00  0.13860383703E+03  0.13860383703E+03  0.00000000000E+00 0.  1.
         -2   -1    0    0    0  501 -0.00000000000E+00 -0.00000000000E+00 -0.10087835914E+03  0.10087835914E+03  0.00000000000E+00 0.  1.
        -24    2    1    2    0    0 -0.32990776404E+01  0.56550102359E+02 -0.17785953246E+02  0.10010342177E+03  0.80595018008E+02 0.  0.
         23    2    1    2    0    0  0.20712735740E+02 -0.46323791468E+02  0.56596271985E+02  0.11915527810E+03  0.91760183190E+02 0.  0.
         13    1    3    3    0    0 -0.25045041782E+02 -0.78655791456E+01 -0.18495641379E+02  0.32112461805E+02  0.00000000000E+00 0. -1.
        -14    1    3    3    0    0  0.21745964142E+02  0.64415681505E+02  0.70968813232E+00  0.67990959969E+02  0.00000000000E+00 0.  1.
        -11    1    4    4    0    0 -0.29671136709E+02 -0.42284076853E+02  0.41911217879E+02  0.66519694024E+02  0.00000000000E+00 0.  1.
         11    1    4    4    0    0  0.50383872449E+02 -0.40397146143E+01  0.14685054105E+02  0.52635584077E+02  0.00000000000E+00 0. -1.
         -1    1    1    2    0  502 -0.17413658100E+02 -0.10226310892E+02 -0.10848408505E+01  0.20223496298E+02  0.00000000000E+00 0.  1.
<scales pt_clust_5="13000.00000" pt_clust_6="13000.00000" pt_clust_7="13000.00000" pt_clust_8="13000.00000" pt_clust_9="20.19439"></scales>
<clustering>
<clus scale="   20.194">  1  9  2 -1</clus>
<clus scale="   80.595">  5  6 -1 -1</clus>
<clus scale="   91.760">  7  8 -1 -1</clus>
<clus scale="   97.024">  2  5  1 -1</clus>
<clus scale="   20.194">  1  5  2 -1</clus>
</clustering>
</event>
<event>
 9    1  0.7586638E-005  0.1004787E+03  0.7546771E-02  0.1284921E+00
         21   -1    0    0  501  502  0.00000000000E+00  0.00000000000E+00  0.97274242091E+02  0.97274242091E+02  0.00000000000E+00 0.  1.
          1   -1    0    0  502    0 -0.00000000000E+00 -0.00000000000E+00 -0.21920918223E+03  0.21920918223E+03  0.00000000000E+00 0. -1.
        -24    2    1    2    0    0 -0.34494156619E+02  0.19641946651E+01 -0.97915307224E+02  0.13173612851E+03  0.81075861167E+02 0.  0.
         23    2    1    2    0    0  0.63701668763E+02  0.59576408374E+01  0.35679293317E+02  0.11781601735E+03  0.92272454638E+02 0.  0.
         11    1    3    3    0    0 -0.53036329256E+02 -0.12208114900E+02 -0.93199923229E+02  0.10792643782E+03  0.00000000000E+00 0. -1.
        -12    1    3    3    0    0  0.18542172637E+02  0.14172309565E+02 -0.47153839950E+01  0.23809690689E+02  0.00000000000E+00 0.  1.
        -11    1    4    4    0    0  0.65110310403E+02  0.38320739361E+02  0.94582950576E+01  0.76139943074E+02  0.00000000000E+00 0. -1.
         11    1    4    4    0    0 -0.14086416401E+01 -0.32363098523E+02  0.26220998259E+02  0.41676074276E+02  0.00000000000E+00 0.  1.
          2    1    1    2  501    0 -0.29207512143E+02 -0.79218355025E+01 -0.59698926233E+02  0.66931278463E+02  0.00000000000E+00 0. -1.
<scales pt_clust_5="13000.00000" pt_clust_6="13000.00000" pt_clust_7="13000.00000" pt_clust_8="13000.00000" pt_clust_9="30.26277"></scales>
<clustering>
<clus scale="   30.263">  1  9  2 -1</clus>
<clus scale="   81.076">  5  6 -1 -1</clus>
<clus scale="   90.305">  2  5  1 -1</clus>
<clus scale="   92.272">  7  8 -1 -1</clus>
<clus scale="   30.263">  1  5  2 -1</clus>
</clustering>
</event>
<event>
 9    1  0.7586638E-005  0.1074732E+03  0.7546771E-02  0.1271420E+00
         21   -1    0    0  501  502  0.00000000000E+00  0.00000000000E+00  0.48118878157E+02  0.48118878157E+02  0.00000000000E+00 0. -1.
         -4   -1    0    0    0  501 -0.00000000000E+00 -0.00000000000E+00 -0.51318170899E+03  0.51318170899E+03  0.00000000000E+00 0.  1.
         23    2    1    2    0    0  0.63218267019E+02  0.44096569107E+01 -0.30229336289E+03  0.32281051919E+03  0.93858189260E+02 0.  0.
        -24    2    1    2    0    0 -0.19631731457E+02  0.50670874369E+02 -0.59001586909E+02  0.11318474428E+03  0.79853971038E+02 0.  0.
         13    1    4    4    0    0 -0.32993267565E+02  0.34449346278E+02  0.29244140936E+01  0.47789803948E+02  0.00000000000E+00 0. -1.
        -14    1    4    4    0    0  0.13361536108E+02  0.16221528091E+02 -0.61926001003E+02  0.65394940332E+02  0.00000000000E+00 0.  1.
        -13    1    3    3    0    0  0.14109871549E+02  0.41981531485E+02 -0.73531577915E+02  0.85839562043E+02  0.00000000000E+00 0. -1.
         13    1    3    3    0    0  0.49108395471E+02 -0.37571874575E+02 -0.22876178498E+03  0.23697095715E+03  0.00000000000E+00 0.  1.
         -3    1    1    2    0  502 -0.43586535562E+02 -0.55080531280E+02 -0.10376788103E+03  0.12530532367E+03  0.00000000000E+00 0.  1.
<scales pt_clust_5="13000.00000" pt_clust_6="13000.00000" pt_clust_7="13000.00000" pt_clust_8="13000.00000" pt_clust_9="70.23995"></scales>
<clustering>
<clus scale="   70.240">  1  9  2 -1</clus>
<clus scale="   79.854">  5  6 -1 -1</clus>
<clus scale="   93.858">  7  8 -1 -1</clus>
<clus scale="   95.487">  1  5  2 -1</clus>
<clus scale="   70.240">  1  5  2 -1</clus>
</clustering>
</event>
<event>
 9    1  0.7586638E-005  0.1846174E+03  0.7546771E-02  0.1165087E+00
          1   -1    0    0  502    0 -0.00000000000E+00  0.00000000000E+00  0.61777954966E+03  0.61777954966E+03  0.00000000000E+00 0. -1.
         21   -1    0    0  501  502  0.00000000000E+00 -0.00000000000E+00 -0.13644190217E+03  0.13644190217E+03  0.00000000000E+00 0.  1.
        -24    2    1    2    0    0 -0.83460437918E+02 -0.13424887615E+03  0.36886818102E+03  0.40923669995E+03  0.80140727300E+02 0.  0.
         23    2    1    2    0    0  0.13381193336E+03  0.99988168267E+02  0.17348091041E+03  0.25877880378E+03  0.94697284578E+02 0.  0.
         13    1    3    3    0    0 -0.89262726289E+02 -0.78536369440E+02  0.21813655158E+03  0.24843379554E+03  0.00000000000E+00 0. -1.
        -14    1    3    3    0    0  0.58022883715E+01 -0.55712506707E+02  0.15073162944E+03  0.16080290441E+03  0.00000000000E+00 0.  1.
        -11    1    4    4    0    0  0.74240676152E+02  0.10868996061E+03  0.11364173324E+03  0.17389545441E+03  0.00000000000E+00 0.  1.
         11    1    4    4    0    0  0.59571257208E+02 -0.87017923399E+01  0.59839177167E+02  0.84883349364E+02  0.00000000000E+00 0. -1.
          2    1    1    2  501    0 -0.50351495442E+02  0.34260707881E+02 -0.61011443931E+02  0.86205948103E+02  0.00000000000E+00 0. -1.
<scales pt_clust_5="13000.00000" pt_clust_6="13000.00000" pt_clust_7="13000.00000" pt_clust_8="13000.00000" pt_clust_9="60.90213"></scales>
<clustering>
<clus scale="   60.902">  2  9  1 -1</clus>
<clus scale="   80.141">  5  6 -1 -1</clus>
<clus scale="   94.697">  7  8 -1 -1</clus>
<clus scale="  177.591">  1  5  2 -1</clus>
<clus scale="   60.902">  2  5  1 -1</clus>
</clustering>
</event>
<event>
 9    1  0.7586638E-005  0.1381661E+03  0.7546771E-02  0.1219408E+00
          3   -1    0    0  502    0 -0.00000000000E+00  0.00000000000E+00  0.13925064044E+03  0.13925064044E+03  0.00000000000E+00 0. -1.
         21   -1    0    0  501  502  0.00000000000E+00 -0.00000000000E+00 -0.27320472775E+03  0.27320472775E+03  0.00000000000E+00 0. -1.
         23    2    1    2    0    0  0.19200629663E+02  0.11228007349E+03  0.45945893260E+02  0.15577042963E+03  0.95801474712E+02 0.  0.
        -24    2    1    2    0    0  0.30412678302E+02 -0.73988581374E+02 -0.80578685235E+02  0.13924372603E+03  0.80601796184E+02 0.  0.
         11    1    4    4    0    0  0.30215642577E+02 -0.38318853888E+02 -0.89975242318E+02  0.10235655255E+03  0.00000000000E+00 0. -1.
        -12    1    4    4    0    0  0.19703572519E+00 -0.35669727486E+02  0.93965570839E+01  0.36887173476E+02  0.00000000000E+00 0.  1.
        -13    1    3    3    0    0 -0.15472714556E+02  0.68425780470E+02 -0.16384837421E+02  0.72041343866E+02  0.00000000000E+00 0.  1.
         13    1    3    3    0    0  0.34673344219E+02  0.43854293022E+02  0.62330730681E+02  0.83729085765E+02  0.00000000000E+00 0. -1.
          4    1    1    2  501    0 -0.49613307965E+02 -0.38291492118E+02 -0.99321295327E+02  0.11744121253E+03  0.00000000000E+00 0. -1.
<scales pt_clust_5="13000.00000" pt_clust_6="13000.00000" pt_clust_7="13000.00000" pt_clust_8="13000.00000" pt_clust_9="62.67151"></scales>
<clustering>
<clus scale="   62.672">  2  9  1 -1</clus>
<clus scale="   80.602">  5  6 -1 -1</clus>
<clus scale="   95.801">  7  8 -1 -1</clus>
<clus scale="  128.096">  2  5  1 -1</clus>
<clus scale="   62.672">  2  5  1 -1</clus>
</clustering>
</event>
<event>
 9    1  0.7586638E-005  0.9358954E+02  0.7546771E-02  0.1300033E+00
          3   -1    0    0  502    0 -0.00000000000E+00  0.00000000000E+00  0.27123790253E+03  0.27123790253E+03  0.00000000000E+00 0. -1.
         21   -1    0    0  501  502  0.00000000000E+00 -0.00000000000E+00 -0.97014751635E+02  0.97014751635E+02  0.00000000000E+00 0.  1.
        -24    2    1    2    0    0 -0.14130726864E+02 -0.32889940528E+02  0.16980938969E+03  0.19122328743E+03  0.80309969483E+02 0.  0.
         23    2    1    2    0    0  0.12269750490E+02 -0.34888625539E+01  0.61178168092E+02  0.10958251035E+03  0.90015772978E+02 0.  0.
         11    1    3    3    0    0 -0.44243353476E+02 -0.34621159351E+02  0.12683877784E+03  0.13872337426E+03  0.00000000000E+00 0. -1.
        -12    1    3    3    0    0  0.30112626612E+02  0.17312188238E+01  0.42970611848E+02  0.52499913169E+02  0.00000000000E+00 0.  1.
        -13    1    4    4    0    0  0.50571086795E+02  0.19897618687E+01  0.24339390905E+02  0.56158702991E+02  0.00000000000E+00 0.  1.
         13    1    4    4    0    0 -0.38301336305E+02 -0.54786244226E+01  0.36838777187E+02  0.53423807361E+02  0.00000000000E+00 0. -1.
          4    1    1    2  501    0  0.18609763743E+01  0.36378803082E+02 -0.56764406889E+02  0.67446856384E+02  0.00000000000E+00 0. -1.
<scales pt_clust_5="13000.00000" pt_clust_6="13000.00000" pt_clust_7="13000.00000" pt_clust_8="13000.00000" pt_clust_9="36.42637"></scales>
<clustering>
<clus scale="   36.426">  2  9  1 -1</clus>
<clus scale="   80.310">  5  6 -1 -1</clus>
<clus scale="   84.296">  1  5  2 -1</clus>
<clus scale="   90.016">  7  8 -1 -1</clus>
<clus scale="   36.426">  2  5  1 -1</clus>
</clustering>
</event>
<event>
 9    1  0.7586638E-005  0.1523630E+03  0.7546771E-02  0.1219746E+00
         21   -1    0    0  501  502  0.00000000000E+00  0.00000000000E+00  0.22499152705E+03  0.22499152705E+03  0.00000000000E+00 0.  1.
         -2   -1    0    0    0  501 -0.00000000000E+00 -0.00000000000E+00 -0.16026712054E+03  0.16026712054E+03  0.00000000000E+00 0.  1.
         23    2    1    2    0    0  0.70262657121E+01  0.24717405931E+02 -0.72003488896E+01  0.95117850721E+02  0.91297546166E+02 0.  0.
        -24    2    1    2    0    0  0.12266893910E+03 -0.27621790112E+02  0.31493818160E+02  0.15425870723E+03  0.83625691403E+02 0.  0.
         13    1    4    4    0    0  0.35143370865E+02 -0.32589071976E+02 -0.20726495899E+02  0.52217734155E+02  0.00000000000E+00 0. -1.
        -14    1    4    4    0    0  0.87525568239E+02  0.49672818640E+01  0.52220314060E+02  0.10204097307E+03  0.00000000000E+00 0.  1.
        -11    1    3    3    0    0 -0.21659679778E+02 -0.20045102060E+02 -0.25386043550E+02  0.38928126744E+02  0.00000000000E+00 0.  1.
         11    1    3    3    0    0  0.28685945491E+02  0.44762507991E+02  0.18185694661E+02  0.56189723977E+02  0.00000000000E+00 0. -1.
         -1    1    1    2    0  502 -0.12969520482E+03  0.29043841805E+01  0.40430937244E+02  0.13588208964E+03  0.00000000000E+00 0.  1.
<scales pt_clust_5="13000.00000" pt_clust_6="13000.00000" pt_clust_7="13000.00000" pt_clust_8="13000.00000" pt_clust_9="127.36253"></scales>
<clustering>
<clus scale="   83.626">  5  6 -1 -1</clus>
<clus scale="   91.298">  7  8 -1 -1</clus>
<clus scale="   94.845">  2  7  1 -1</clus>
<clus scale="  127.363">  1  9  2 -1</clus>
<clus scale="  127.363">  1  5  2 -1</clus>
</clustering>
</event>
<event>
 9    1  0.7586638E-005  0.1095310E+03  0.7546771E-02  0.1266097E+00
         -2   -1    0    0    0  501 -0.00000000000E+00  0.00000000000E+00  0.23220596504E+03  0.23220596504E+03  0.00000000000E+00 0.  1.
         21   -1    0    0  501  502  0.00000000000E+00 -0.00000000000E+00 -0.75210877714E+02  0.75210877714E+02  0.00000000000E+00 0.  1.
         23    2    1    2    0    0  0.30059535475E+01  0.72686274362E+02  0.11306790114E+03  0.16279581514E+03  0.91792139757E+02 0.  0.
        -24    2    1    2    0    0  0.12543706345E+02 -0.37487027288E+02  0.44835091881E+01  0.89515832103E+02  0.80189528984E+02 0.  0.
         13    1    4    4    0    0 -0.26349275259E+02 -0.31808107428E+00  0.20498195957E+02  0.33385049345E+02  0.00000000000E+00 0. -1.
        -14    1    4    4    0    0  0.38892981605E+02 -0.37168946214E+02 -0.16014686769E+02  0.56130782758E+02  0.00000000000E+00 0.  1.
        -11    1    3    3    0    0 -0.11492164304E+02  0.91635182399E+02  0.81112071267E+02  0.12291559949E+03  0.00000000000E+00 0.  1.
         11    1    3    3    0    0  0.14498117851E+02 -0.18948908037E+02  0.31955829877E+02  0.39880215648E+02  0.00000000000E+00 0. -1.
         -1    1    1    2    0  502 -0.15549659893E+02 -0.35199247074E+02  0.39443676997E+02  0.55105195512E+02  0.00000000000E+00 0.  1.
<scales pt_clust_5="13000.00000" pt_clust_6="13000.00000" pt_clust_7="13000.00000" pt_clust_8="13000.00000" pt_clust_9="38.48091"></scales>
<clustering>
<clus scale="   38.481">  2  9  1 -1</clus>
<clus scale="   80.190">  5  6 -1 -1</clus>
<clus scale="   91.792">  7  8 -1 -1</clus>
<clus scale="  100.008">  2  5  1 -1</clus>
<clus scale="   38.481">  2  5  1 -1</clus>
</clustering>
</event>
<event>
 9    1  0.7586638E-005  0.1617968E+03  0.7546771E-02  0.1188477E+00
         21   -1    0    0  501  502  0.00000000000E+00  0.00000000000E+00  0.41168302787E+03  0.41168302787E+03  0.00000000000E+00 0.  1.
          1   -1    0    0  502    0 -0.00000000000E+00 -0.00000000000E+00 -0.46243621462E+03  0.46243621462E+03  0.00000000000E+00 0. -1.
        -24    2    1    2    0    0  0.10580532825E+02 -0.12010381272E+03  0.72189054783E+02  0.16247947963E+03  0.81556410945E+02 0.  0.
         23    2    1    2    0    0 -0.12412886274E+03  0.13684736541E+03  0.24823303800E+03  0.32312379418E+03  0.93027787409E+02 0.  0.
         13    1    3    3    0    0 -0.32767595723E+02 -0.78948518917E+02  0.47674901702E+02  0.97874819136E+02  0.00000000000E+00 0. -1.
        -14    1    3    3    0    0  0.43348128547E+02 -0.41155293806E+02  0.24514153081E+02  0.64604660498E+02  0.00000000000E+00 0.  1.
        -13    1    4    4    0    0 -0.63890439335E+02  0.61810856829E+02  0.19222733867E+03  0.21178744059E+03  0.00000000000E+00 0.  1.
         13    1    4    4    0    0 -0.60238423408E+02  0.75036508580E+02  0.56005699329E+02  0.11133635360E+03  0.00000000000E+00 0. -1.
          2    1    1    2  501    0  0.11354832992E+03 -0.16743552686E+02 -0.37117527952E+03  0.38851596867E+03  0.00000000000E+00 0. -1.
<scales pt_clust_5="13000.00000" pt_clust_6="13000.00000" pt_clust_7="13000.00000" pt_clust_8="13000.00000" pt_clust_9="114.77623"></scales>
<clustering>
<clus scale="   81.556">  5  6 -1 -1</clus>
<clus scale="   93.028">  7  8 -1 -1</clus>
<clus scale="  114.776">  1  9  2 -1</clus>
<clus scale="  155.485">  2  5  1 -1</clus>
<clus scale="  114.776">  1  5  2 -1</clus>
</clustering>
</event>
<event>
 9    1  0.7586638E-005  0.1036183E+03  0.7546771E-02  0.1278062E+00
         -2   -1    0    0    0  501 -0.00000000000E+00  0.00000000000E+00  0.88844089898E+02  0.88844089898E+02  0.00000000000E+00 0.  1.
         21   -1    0    0  501  502  0.00000000000E+00 -0.00000000000E+00 -0.33647301883E+03  0.33647301883E+03  0.00000000000E+00 0. -1.
        -24    2    1    2    0    0 -0.39387386261E+02  0.64440421414E+02 -0.84371428180E+02  0.13915023072E+03  0.80872212202E+02 0.  0.
         23    2    1    2    0    0 -0.53415911014E+02 -0.22401328019E+02 -0.14718672916E+03  0.18302616317E+03  0.92084548743E+02 0.  0.
         13    1    3    3    0    0 -0.60241421074E+02  0.26895210511E+02 -0.38828871193E+02  0.76551044405E+02  0.00000000000E+00 0. -1.
        -14    1    3    3    0    0  0.20854034813E+02  0.37545210903E+02 -0.45542556987E+02  0.62599186310E+02  0.00000000000E+00 0.  1.
        -13    1    4    4    0    0 -0.40329698627E+02 -0.44818235767E+02 -0.39086987627E+02  0.71853680841E+02  0.00000000000E+00 0.  1.
         13    1    4    4    0    0 -0.13086212388E+02  0.22416907748E+02 -0.10809974153E+03  0.11117248233E+03  0.00000000000E+00 0. -1.
         -1    1    1    2    0  502  0.92803297276E+02 -0.42039093394E+02 -0.16070771589E+02  0.10314071484E+03  0.00000000000E+00 0.  1.
<scales pt_clust_5="13000.00000" pt_clust_6="13000.00000" pt_clust_7="13000.00000" pt_clust_8="13000.00000" pt_clust_9="101.88105"></scales>
<clustering>
<clus scale="   80.872">  5  6 -1 -1</clus>
<clus scale="   92.085">  7  8 -1 -1</clus>
<clus scale="  101.881">  2  9  1 -1</clus>
<clus scale="   93.795">  1  5  2 -1</clus>
<clus scale="  101.881">  2  5  1 -1</clus>
</clustering>
</event>
<event>
 9    1  0.7586638E-005  0.1144346E+03  0.7546771E-02  0.1256917E+00
         21   -1    0    0  501  502  0.00000000000E+00  0.00000000000E+00  0.48076719943E+02  0.48076719943E+02  0.00000000000E+00 0. -1.
          1   -1    0    0  502    0 -0.00000000000E+00 -0.00000000000E+00 -0.58951716197E+03  0.58951716197E+03  0.00000000000E+00 0. -1.
        -24    2    1    2    0    0  0.67648906823E+02  0.42385119960E+02 -0.37014048588E+03  0.38694752659E+03  0.79696524779E+02 0.  0.
         23    2    1    2    0    0 -0.24926853098E+02 -0.19452262730E+01 -0.33565846771E+02  0.10087571814E+03  0.91782964268E+02 0.  0.
         13    1    3    3    0    0  0.60824046010E+02  0.22044677533E+02 -0.12389790365E+03  0.13977203908E+03  0.00000000000E+00 0. -1.
        -14    1    3    3    0    0  0.68248608138E+01  0.20340442427E+02 -0.24624258223E+03  0.24717548751E+03  0.00000000000E+00 0.  1.
        -13    1    4    4    0    0 -0.21356724014E+02 -0.42509121988E+02  0.81895784464E+00  0.47579468311E+02  0.00000000000E+00 0. -1.
         13    1    4    4    0    0 -0.35701290846E+01  0.40563895715E+02 -0.34384804616E+02  0.53296249828E+02  0.00000000000E+00 0.  1.
          2    1    1    2  501    0 -0.42722053725E+02 -0.40439893687E+02 -0.13773410938E+03  0.14977063718E+03  0.00000000000E+00 0. -1.
<scales pt_clust_5="13000.00000" pt_clust_6="13000.00000" pt_clust_7="13000.00000" pt_clust_8="13000.00000" pt_clust_9="58.82654"></scales>
<clustering>
<clus scale="   58.827">  1  9  2 -1</clus>
<clus scale="   79.697">  5  6 -1 -1</clus>
<clus scale="   91.783">  7  8 -1 -1</clus>
<clus scale="  104.989">  2  5  1 -1</clus>
<clus scale="   58.827">  1  5  2 -1</clus>
</clustering>
</event>
<event>
 9    1  0.7586638E-005  0.1734116E+03  0.7546771E-02  0.1175867E+00
         21   -1    0    0  501  502  0.00000000000E+00  0.00000000000E+00  0.16982283878E+03  0.16982283878E+03  0.00000000000E+00 0. -1.
          3   -1    0    0  502    0 -0.00000000000E+00 -0.00000000000E+00 -0.34983713033E+03  0.34983713033E+03  0.00000000000E+00 0. -1.
         23    2    1    2    0    0  0.11489056207E+03 -0.14700352593E+03 -0.75998278335E+02  0.22206399328E+03  0.93417348048E+02 0.  0.
        -24    2    1    2    0    0 -0.18565628400E+02  0.11026244346E+03  0.15830237761E+02  0.13950889900E+03  0.81912437870E+02 0.  0.
         11    1    4    4    0    0 -0.30240689976E+02  0.52967583691E+02  0.43405547267E+02  0.74860575645E+02  0.00000000000E+00 0. -1.
        -12    1    4    4    0    0  0.11675061576E+02  0.57294859766E+02 -0.27575309506E+02  0.64648323356E+02  0.00000000000E+00 0.  1.
        -13    1    3    3    0    0  0.10468247860E+03 -0.60908375261E+02 -0.34403108986E+02  0.12590403254E+03  0.00000000000E+00 0.  1.
         13    1    3    3    0    0  0.10208083466E+02 -0.86095150668E+02 -0.41595169349E+02  0.96159960741E+02  0.00000000000E+00 0. -1.
          4    1    1    2  501    0 -0.96324933665E+02  0.36741082472E+02 -0.11984625097E+03  0.15808707683E+03  0.00000000000E+00 0. -1.
<scales pt_clust_5="13000.00000" pt_clust_6="13000.00000" pt_clust_7="13000.00000" pt_clust_8="13000.00000" pt_clust_9="103.09418"></scales>
<clustering>
<clus scale="   81.912">  5  6 -1 -1</clus>
<clus scale="   93.417">  7  8 -1 -1</clus>
<clus scale="  103.094">  1  9  2 -1</clus>
<clus scale="  167.495">  1  5  2 -1</clus>
<clus scale="  103.094">  1  5  2 -1</clus>
</clustering>
</event>
<event>
 9    1  0.7586638E-005  0.1311303E+03  0.7546771E-02  0.1227703E+00
         21   -1    0    0  501  502  0.00000000000E+00  0.00000000000E+00  0.84601535166E+02  0.84601535166E+02  0.00000000000E+00 0.  1.
          1   -1    0    0  502    0 -0.00000000000E+00 -0.00000000000E+00 -0.50014651475E+03  0.50014651475E+03  0.00000000000E+00 0. -1.
         23    2    1    2    0    0  0.79878334336E+02  0.45143954784E+02 -0.37923123343E+03  0.40037309689E+03  0.89798459642E+02 0.  0.
        -24    2    1    2    0    0 -0.11411676760E+03 -0.33837549670E+02 -0.31244742888E+02  0.14796341772E+03  0.82154261059E+02 0.  0.
         11    1    4    4    0    0 -0.57452106332E+02 -0.72159097748E+01 -0.56081796608E+02  0.80610060083E+02  0.00000000000E+00 0. -1.
        -12    1    4    4    0    0 -0.56664661271E+02 -0.26621639895E+02  0.24837053721E+02  0.67353357638E+02  0.00000000000E+00 0.  1.
        -11    1    3    3    0    0  0.36594259394E+02  0.67774558934E+02 -0.19193395239E+03  0.20681192601E+03  0.00000000000E+00 0. -1.
         11    1    3    3    0    0  0.43284074942E+02 -0.22630604150E+02 -0.18729728105E+03  0.19356117089E+03  0.00000000000E+00 0.  1.
          2    1    1    2  501    0  0.34238433267E+02 -0.11306405114E+02 -0.50690032660E+01  0.36411535305E+02  0.00000000000E+00 0. -1.
<scales pt_clust_5="13000.00000" pt_clust_6="13000.00000" pt_clust_7="13000.00000" pt_clust_8="13000.00000" pt_clust_9="36.05697"></scales>
<clustering>
<clus scale="   36.057">  1  9  2 -1</clus>
<clus scale="   82.154">  5  6 -1 -1</clus>
<clus scale="   89.798">  7  8 -1 -1</clus>
<clus scale="  126.019">  1  5  2 -1</clus>
<clus scale="   36.057">  1  5  2 -1</clus>
</clustering>
</event>
<event>
 9    1  0.7586638E-005  0.1242685E+03  0.7546771E-02  0.1239153E+00
         21   -1    0    0  501  502  0.00000000000E+00  0.00000000000E+00  0.25720047218E+03  0.25720047218E+03  0.00000000000E+00 0.  1.
          1   -1    0    0  502    0 -0.00000000000E+00 -0.00000000000E+00 -0.11448943626E+03  0.11448943626E+03  0.00000000000E+00 0. -1.
        -24    2    1    2    0    0 -0.60002499060E+00 -0.54282623997E+02  0.64451276799E+02  0.11741586350E+03  0.81765240918E+02 0.  0.
         23    2    1    2    0    0 -0.71635826967E+02  0.10218581164E+03  0.43773586440E+02  0.16098937417E+03  0.91803158538E+02 0.  0.
         11    1    3    3    0    0  0.21320272115E+02 -0.22668868507E+02 -0.10768007193E+02  0.32929949611E+02  0.00000000000E+00 0. -1.
        -12    1    3    3    0    0 -0.21920297106E+02 -0.31613755491E+02  0.75219283992E+02  0.84485913889E+02  0.00000000000E+00 0.  1.
        -11    1    4    4    0    0 -0.92409537395E+02  0.94036653543E+02  0.42940375133E+02  0.13865890028E+03  0.00000000000E+00 0. -1.
         11    1    4    4    0    0  0.20773710428E+02  0.81491581024E+01  0.83321130681E+00  0.22330473882E+02  0.00000000000E+00 0.  1.
          2    1    1    2  501    0  0.72235851958E+02 -0.47903187647E+02  0.34486172690E+02  0.93284670775E+02  0.00000000000E+00 0. -1.
<scales pt_clust_5="13000.00000" pt_clust_6="13000.00000" pt_clust_7="13000.00000" pt_clust_8="13000.00000" pt_clust_9="86.67607"></scales>
<clustering>
<clus scale="   81.765">  5  6 -1 -1</clus>
<clus scale="   86.676">  1  9  2 -1</clus>
<clus scale="   91.803">  7  8 -1 -1</clus>
<clus scale="  117.049">  2  5  1 -1</clus>
<clus scale="   86.676">  1  5  2 -1</clus>
</clustering>
</event>
<event>
 9    1  0.7586638E-005  0.1081012E+03  0.7546771E-02  0.1269217E+00
          1   -1    0    0  502    0 -0.00000000000E+00  0.00000000000E+00  0.26109685338E+03  0.26109685338E+03  0.00000000000E+00 0. -1.
         21   -1    0    0  501  502  0.00000000000E+00 -0.00000000000E+00 -0.21036456436E+03  0.21036456436E+03  0.00000000000E+00 0.  1.
        -24    2    1    2    0    0  0.52521057144E+02 -0.91754920511E+01  0.20625086220E+03  0.22764169416E+03  0.80241333883E+02 0.  0.
         23    2    1    2    0    0 -0.98478759519E+02  0.16033568896E+02 -0.13912704710E+03  0.19454675176E+03  0.92395681595E+02 0.  0.
         11    1    3    3    0    0  0.68931799913E+02 -0.12881902185E+02  0.11378991240E+03  0.13366256247E+03  0.00000000000E+00 0. -1.
        -12    1    3    3    0    0 -0.16410742769E+02  0.37064101340E+01  0.92460949798E+02  0.93979131683E+02  0.00000000000E+00 0.  1.
        -13    1    4    4    0    0 -0.93188949680E+01  0.40616410257E+02 -0.58659499078E+02  0.71954648340E+02  0.00000000000E+00 0.  1.
         13    1    4    4    0    0 -0.89159864551E+02 -0.24582841361E+02 -0.80467548019E+02  0.12259210342E+03  0.00000000000E+00 0. -1.
          2    1    1    2  501    0  0.45957702374E+02 -0.68580768449E+01 -0.16391526085E+02  0.49272971830E+02  0.00000000000E+00 0. -1.
<scales pt_clust_5="13000.00000" pt_clust_6="13000.00000" pt_clust_7="13000.00000" pt_clust_8="13000.00000" pt_clust_9="46.46659"></scales>
<clustering>
<clus scale="   46.467">  2  9  1 -1</clus>
<clus scale="   80.241">  5  6 -1 -1</clus>
<clus scale="   92.396">  7  8 -1 -1</clus>
<clus scale="   97.916">  1  5  2 -1</clus>
<clus scale="   46.467">  2  5  1 -1</clus>
</clustering>
</event>
<event>
 9    1  0.7586638E-005  0.1264687E+03  0.7546771E-02  0.1235410E+00
         -2   -1    0    0    0  501 -0.00000000000E+00  0.00000000000E+00  0.83913203326E+03  0.83913203326E+03  0.00000000000E+00 0.  1.
         21   -1    0    0  501  502  0.00000000000E+00 -0.00000000000E+00 -0.12652447530E+03  0.12652447530E+03  0.00000000000E+00 0.  1.
        -24    2    1    2    0    0 -0.24397875358E+02  0.98354437323E+02  0.73780891731E+03  0.74910173442E+03  0.80762357520E+02 0.  0.
         23    2    1    2    0    0  0.17545726188E+02 -0.21479186088E+02  0.51640443152E+02  0.10764463314E+03  0.90285235410E+02 0.  0.
         13    1    3    3    0    0 -0.90730035578E+01  0.34421915115E+02  0.74770946310E+02  0.82812330277E+02  0.00000000000E+00 0. -1.
        -14    1    3    3    0    0 -0.15324871800E+02  0.63932522208E+02  0.66303797100E+03  0.66628940415E+03  0.00000000000E+00 0.  1.
        -11    1    4    4    0    0  0.13415534389E+02 -0.46216321431E+02 -0.22789196730E+01  0.48177986721E+02  0.00000000000E+00 0.  1.
         11    1    4    4    0    0  0.41301917996E+01  0.24737135343E+02  0.53919362825E+02  0.59466646422E+02  0.00000000000E+00 0. -1.
         -1    1    1    2    0  502  0.68521491696E+01 -0.76875251235E+02 -0.76841802497E+02  0.10891014100E+03  0.00000000000E+00 0.  1.
<scales pt_clust_5="13000.00000" pt_clust_6="13000.00000" pt_clust_7="13000.00000" pt_clust_8="13000.00000" pt_clust_9="77.18002"></scales>
<clustering>
<clus scale="   77.180">  2  9  1 -1</clus>
<clus scale="   80.762">  5  6 -1 -1</clus>
<clus scale="   90.285">  7  8 -1 -1</clus>
<clus scale="  119.856">  1  5  2 -1</clus>
<clus scale="   77.180">  2  5  1 -1</clus>
</clustering>
</event>
<event>
 9    1  0.7586638E-005  0.9701798E+02  0.7546771E-02  0.1293524E+00
         21   -1    0    0  501  502  0.00000000000E+00  0.00000000000E+00  0.37823809662E+03  0.37823809662E+03  0.00000000000E+00 0. -1.
          3   -1    0    0  502    0 -0.00000000000E+00 -0.00000000000E+00 -0.86518724943E+02  0.86518724943E+02  0.00000000000E+00 0. -1.
        -24    2    1    2    0    0  0.21643792156E+02  0.19381133319E+02 -0.37922933353E+02  0.92261772473E+02  0.78930372596E+02 0.  0.
         23    2    1    2    0    0 -0.69040977641E+02 -0.17022183076E+01  0.16973772813E+03  0.20477948350E+03  0.91401238346E+02 0.  0.
         13    1    3    3    0    0 -0.97558421339E+01  0.36664793292E+02 -0.41514616634E+02  0.56240082834E+02  0.00000000000E+00 0. -1.
        -14    1    3    3    0    0  0.31399634290E+02 -0.17283659974E+02  0.35916832806E+01  0.36021689639E+02  0.00000000000E+00 0.  1.
        -13    1    4    4    0    0  0.17952840189E+02 -0.17432890102E+02  0.26427258715E+02  0.36395193795E+02  0.00000000000E+00 0.  1.
         13    1    4    4    0    0 -0.86993817831E+02  0.15730671794E+02  0.14331046942E+03  0.16838428971E+03  0.00000000000E+00 0. -1.
          4    1    1    2  501    0  0.47397185485E+02 -0.17678915011E+02  0.15990457690E+03  0.16771556559E+03  0.00000000000E+00 0. -1.
<scales pt_clust_5="13000.00000" pt_clust_6="13000.00000" pt_clust_7="13000.00000" pt_clust_8="13000.00000" pt_clust_9="50.58693"></scales>
<clustering>
<clus scale="   50.587">  1  9  2 -1</clus>
<clus scale="   78.930">  5  6 -1 -1</clus>
<clus scale="   85.372">  2  5  1 -1</clus>
<clus scale="   91.401">  7  8 -1 -1</clus>
<clus scale="   50.587">  1  5  2 -1</clus>
</clustering>
</event>
<event>
 9    1  0.7586638E-005  0.1801839E+03  0.7546771E-02  0.1168709E+00
         21   -1    0    0  501  502  0.00000000000E+00  0.00000000000E+00  0.33557551468E+03  0.33557551468E+03  0.00000000000E+00 0.  1.
          1   -1    0    0  502    0 -0.00000000000E+00 -0.00000000000E+00 -0.63679459542E+03  0.63679459542E+03  0.00000000000E+00 0. -1.
         23    2    1    2    0    0  0.95510287507E+02  0.12488336582E+03 -0.45433117737E+00  0.18049700464E+03  0.88661672613E+02 0.  0.
        -24    2    1    2    0    0 -0.20767776636E+03 -0.81813761316E+01  0.17900982115E+03  0.28552881901E+03  0.79279258732E+02 0.  0.
         11    1    4    4    0    0 -0.15820901678E+03  0.28404178972E+02  0.13452596971E+03  0.20960469198E+03  0.00000000000E+00 0. -1.
        -12    1    4    4    0    0 -0.49468749576E+02 -0.36585555104E+02  0.44483851436E+02  0.75924127031E+02  0.00000000000E+00 0.  1.
        -13    1    3    3    0    0  0.59363129206E+02  0.13854423192E+02 -0.15144946701E+02  0.62811587798E+02  0.00000000000E+00 0. -1.
         13    1    3    3    0    0  0.36147158302E+02  0.11102894262E+03  0.14690615524E+02  0.11768541684E+03  0.00000000000E+00 0.  1.
          2    1    1    2  501    0  0.11216747885E+03 -0.11670198968E+03 -0.47977457072E+03  0.50634428644E+03  0.00000000000E+00 0. -1.
<scales pt_clust_5="13000.00000" pt_clust_6="13000.00000" pt_clust_7="13000.00000" pt_clust_8="13000.00000" pt_clust_9="161.86699"></scales>
<clustering>
<clus scale="   79.279">  5  6 -1 -1</clus>
<clus scale="   88.662">  7  8 -1 -1</clus>
<clus scale="  161.867">  1  9  2 -1</clus>
<clus scale="  175.757">  1  5  2 -1</clus>
<clus scale="  161.867">  1  5  2 -1</clus>
</clustering>
</event>
<event>
 9    1  0.7586638E-005  0.9764522E+02  0.7546771E-02  0.1295152E+00
         21   -1    0    0  501  502  0.00000000000E+00  0.00000000000E+00  0.94409486445E+02  0.94409486445E+02  0.00000000000E+00 0. -1.
         -2   -1    0    0    0  501 -0.00000000000E+00 -0.00000000000E+00 -0.33367095264E+03  0.33367095264E+03  0.00000000000E+00 0.  1.
         23    2    1    2    0    0  0.22025883814E+02 -0.70840841294E+01 -0.29376731707E+03  0.30966566183E+03  0.95174900759E+02 0.  0.
        -24    2    1    2    0    0 -0.31354782028E+01  0.19909525743E+02  0.50343299350E+02  0.95205593469E+02  0.78252391654E+02 0.  0.
         13    1    4    4    0    0  0.22720984789E+02 -0.21958328233E+02  0.19782033937E+02  0.37279219350E+02  0.00000000000E+00 0. -1.
        -14    1    4    4    0    0 -0.25856462992E+02  0.41867853977E+02  0.30561265412E+02  0.57926374120E+02  0.00000000000E+00 0.  1.
        -13    1    3    3    0    0 -0.35888624115E+02 -0.87427600644E+01 -0.78809389908E+02  0.87036481616E+02  0.00000000000E+00 0. -1.
         13    1    3    3    0    0  0.57914507929E+02  0.16586759350E+01 -0.21495792716E+03  0.22262918022E+03  0.00000000000E+00 0.  1.
         -1    1    1    2    0  502 -0.18890405611E+02 -0.12825441614E+02  0.41625515243E+01  0.23209183784E+02  0.00000000000E+00 0.  1.
<scales pt_clust_5="13000.00000" pt_clust_6="13000.00000" pt_clust_7="13000.00000" pt_clust_8="13000.00000" pt_clust_9="22.83286"></scales>
<clustering>
<clus scale="   22.833">  1  9  2 -1</clus>
<clus scale="   78.252">  5  6 -1 -1</clus>
<clus scale="   81.239">  1  5  2 -1</clus>
<clus scale="   95.175">  7  8 -1 -1</clus>
<clus scale="   22.833">  1  5  2 -1</clus>
</clustering>
</event>
<event>
 9    1  0.7586638E-005  0.4524680E+03  0.7546771E-02  0.1026989E+00
          1   -1    0    0  502    0 -0.00000000000E+00  0.00000000000E+00  0.25123887586E+03  0.25123887586E+03  0.00000000000E+00 0. -1.
         21   -1    0    0  501  502  0.00000000000E+00 -0.00000000000E+00 -0.96306779801E+03  0.96306779801E+03  0.00000000000E+00 0. -1.
        -24    2    1    2    0    0 -0.21404347505E+03  0.30046659990E+02 -0.25288543244E+03  0.34266815663E+03  0.82176715934E+02 0.  0.
         23    2    1    2    0    0 -0.17702866507E+03 -0.55583251205E+02 -0.43281647768E+03  0.47886357273E+03  0.86899780600E+02 0.  0.
         13    1    3    3    0    0 -0.19516998368E+03 -0.36205430055E+00 -0.21956109609E+03  0.29376611195E+03  0.00000000000E+00 0. -1.
        -14    1    3    3    0    0 -0.18873491377E+02  0.30408714290E+02 -0.33324336343E+02  0.48902044684E+02  0.00000000000E+00 0.  1.
        -13    1    4    4    0    0 -0.42202922615E+02 -0.52319826009E+02 -0.10866210561E+03  0.12777286123E+03  0.00000000000E+00 0.  1.
         13    1    4    4    0    0 -0.13482574246E+03 -0.32634251961E+01 -0.32415437207E+03  0.35109071151E+03  0.00000000000E+00 0. -1.
          2    1    1    2  501    0  0.39107214013E+03  0.25536591216E+02 -0.26127012040E+02  0.39277494451E+03  0.00000000000E+00 0. -1.
<scales pt_clust_5="13000.00000" pt_clust_6="13000.00000" pt_clust_7="13000.00000" pt_clust_8="13000.00000" pt_clust_9="391.90521"></scales>
<clustering>
<clus scale="   82.177">  5  6 -1 -1</clus>
<clus scale="   86.900">  7  8 -1 -1</clus>
<clus scale="  163.872">  5  7 -1 -1</clus>
<clus scale="  391.905">  2  9  1 -1</clus>
<clus scale="  391.905">  2  5  1 -1</clus>
</clustering>
</event>
<event>
 9    1  0.7586638E-005  0.3499246E+03  0.7546771E-02  0.1089052E+00
         -2   -1    0    0    0  501 -0.00000000000E+00  0.00000000000E+00  0.13797364315E+04  0.13797364315E+04  0.00000000000E+00 0.  1.
         21   -1    0    0  501  502  0.00000000000E+00 -0.00000000000E+00 -0.29657813142E+03  0.29657813142E+03  0.00000000000E+00 0.  1.
        -24    2    1    2    0    0 -0.12895710722E+03  0.78120498275E+02  0.26926041281E+03  0.31887925527E+03  0.80312276657E+02 0.  0.
         23    2    1    2    0    0  0.13025708359E+03  0.26808066937E+03  0.93895304124E+03  0.98933786137E+03  0.91227392638E+02 0.  0.
         11    1    3    3    0    0 -0.98774522531E+02  0.13883513428E+02  0.15165577705E+03  0.18151758306E+03  0.00000000000E+00 0. -1.
        -12    1    3    3    0    0 -0.30182584685E+02  0.64236984847E+02  0.11760463576E+03  0.13736167221E+03  0.00000000000E+00 0.  1.
        -13    1    4    4    0    0  0.62473729630E+02  0.71558740386E+02  0.19532442991E+03  0.21719864902E+03  0.00000000000E+00 0. -1.
         13    1    4    4    0    0  0.67783353956E+02  0.19652192898E+03  0.74362861133E+03  0.77213921234E+03  0.00000000000E+00 0.  1.
         -1    1    1    2    0  502 -0.12999763698E+01 -0.34620116764E+03 -0.12505515398E+03  0.36809744627E+03  0.00000000000E+00 0.  1.
<scales pt_clust_5="13000.00000" pt_clust_6="13000.00000" pt_clust_7="13000.00000" pt_clust_8="13000.00000" pt_clust_9="337.82358"></scales>
<clustering>
<clus scale="   80.312">  5  6 -1 -1</clus>
<clus scale="   91.227">  7  8 -1 -1</clus>
<clus scale="  170.830">  1  5  2 -1</clus>
<clus scale="  337.824">  2  9  1 -1</clus>
<clus scale="  337.824">  2  5  1 -1</clus>
</clustering>
</event>
<event>
 9    1  0.7586638E-005  0.1412676E+03  0.7546771E-02  0.1213560E+00
         -2   -1    0    0    0  501 -0.00000000000E+00  0.00000000000E+00  0.85695782341E+02  0.85695782341E+02  0.00000000000E+00 0.  1.
         21   -1    0    0  501  502  0.00000000000E+00 -0.00000000000E+00 -0.44943428533E+03  0.44943428533E+03  0.00000000000E+00 0.  1.
         23    2    1    2    0    0  0.51758122382E+02  0.81011266246E+02 -0.55458481741E+02  0.14394154335E+03  0.91661312530E+02 0.  0.
        -24    2    1    2    0    0 -0.12534924648E+03 -0.71844443083E+02 -0.20576244233E+03  0.26465972056E+03  0.82659103661E+02 0.  0.
         11    1    4    4    0    0 -0.13421641409E+02 -0.27974093572E+02 -0.61340808115E+01  0.31627793421E+02  0.00000000000E+00 0. -1.
        -12    1    4    4    0    0 -0.11192760507E+03 -0.43870349511E+02 -0.19962836152E+03  0.23303192714E+03  0.00000000000E+00 0.  1.
        -11    1    3    3    0    0 -0.28068592513E+01  0.56428830165E+02  0.75968387949E+01  0.57007045988E+02  0.00000000000E+00 0.  1.
         11    1    3    3    0    0  0.54564981633E+02  0.24582436081E+02 -0.63055320536E+02  0.86934497365E+02  0.00000000000E+00 0. -1.
         -1    1    1    2    0  502  0.73591124098E+02 -0.91668231627E+01 -0.10251757891E+03  0.12652880375E+03  0.00000000000E+00 0.  1.
<scales pt_clust_5="13000.00000" pt_clust_6="13000.00000" pt_clust_7="13000.00000" pt_clust_8="13000.00000" pt_clust_9="74.15986"></scales>
<clustering>
<clus scale="   74.160">  2  9  1 -1</clus>
<clus scale="   82.659">  5  6 -1 -1</clus>
<clus scale="   91.661">  7  8 -1 -1</clus>
<clus scale="  135.600">  2  5  1 -1</clus>
<clus scale="   74.160">  2  5  1 -1</clus>
</clustering>
</event>
<event>
 9    1  0.7586638E-005  0.1814508E+03  0.7546771E-02  0.1167752E+00
          1   -1    0    0  502    0 -0.00000000000E+00  0.00000000000E+00  0.92575102829E+02  0.92575102829E+02  0.00000000000E+00 0. -1.
         21   -1    0    0  501  502  0.00000000000E+00 -0.00000000000E+00 -0.56666680561E+03  0.56666680561E+03  0.00000000000E+00 0.  1.
        -24    2    1    2    0    0  0.75870723304E+02 -0.17422420126E+03 -0.21413327968E+03  0.29746426629E+03  0.80755738475E+02 0.  0.
         23    2    1    2    0    0 -0.36180802945E+02  0.11583155943E+03 -0.24665055547E+03  0.28992995785E+03  0.92178540252E+02 0.  0.
         13    1    3    3    0    0  0.69093094478E+02 -0.58953753394E+02 -0.10045115680E+03  0.13542464933E+03  0.00000000000E+00 0. -1.
        -14    1    3    3    0    0  0.67776288260E+01 -0.11527044786E+03 -0.11368212288E+03  0.16203961696E+03  0.00000000000E+00 0.  1.
        -11    1    4    4    0    0  0.44235321430E+01  0.91269733018E+02 -0.21294629881E+03  0.23172366728E+03  0.00000000000E+00 0.  1.
         11    1    4    4    0    0 -0.40604335088E+02  0.24561826412E+02 -0.33704256663E+02  0.58206290569E+02  0.00000000000E+00 0. -1.
          2    1    1    2  501    0 -0.39689920359E+02  0.58392641826E+02 -0.13307867628E+02  0.71847684294E+02  0.00000000000E+00 0. -1.
<scales pt_clust_5="13000.00000" pt_clust_6="13000.00000" pt_clust_7="13000.00000" pt_clust_8="13000.00000" pt_clust_9="70.60450"></scales>
<clustering>
<clus scale="   70.604">  2  9  1 -1</clus>
<clus scale="   80.756">  5  6 -1 -1</clus>
<clus scale="   92.179">  7  8 -1 -1</clus>
<clus scale="  175.923">  1  5  2 -1</clus>
<clus scale="   70.604">  2  5  1 -1</clus>
</clustering>
</event>
<event>
 9    1  0.7586638E-005  0.1017582E+03  0.7546771E-02  0.1279178E+00
         -2   -1    0    0    0  501 -0.00000000000E+00  0.00000000000E+00  0.38061773615E+03  0.38061773615E+03  0.00000000000E+00 0.  1.
         21   -1    0    0  501  502  0.00000000000E+00 -0.00000000000E+00 -0.20274488669E+03  0.20274488669E+03  0.00000000000E+00 0.  1.
        -24    2    1    2    0    0 -0.54886468252E+01 -0.55589569345E+02  0.28189983826E+03  0.29811501329E+03  0.79276206221E+02 0.  0.
         23    2    1    2    0    0  0.58151055364E+02  0.45417890317E+02  0.49199956305E+02  0.12290448825E+03  0.85091406912E+02 0.  0.
         11    1    3    3    0    0 -0.30078425206E+02 -0.73710075749E+01  0.41987611636E+02  0.52172818080E+02  0.00000000000E+00 0. -1.
        -12    1    3    3    0    0  0.24589778381E+02 -0.48218561770E+02  0.23991222663E+03  0.24594219521E+03  0.00000000000E+00 0.  1.
        -13    1    4    4    0    0  0.20791016992E+01  0.55357336191E+02  0.19896004040E+02  0.58860923462E+02  0.00000000000E+00 0. -1.
         13    1    4    4    0    0  0.56071953665E+02 -0.99394458745E+01  0.29303952265E+02  0.64043564786E+02  0.00000000000E+00 0.  1.
         -1    1    1    2    0  502 -0.52662408539E+02  0.10171679028E+02 -0.15322694511E+03  0.16234312131E+03  0.00000000000E+00 0.  1.
<scales pt_clust_5="13000.00000" pt_clust_6="13000.00000" pt_clust_7="13000.00000" pt_clust_8="13000.00000" pt_clust_9="53.63574"></scales>
<clustering>
<clus scale="   53.636">  2  9  1 -1</clus>
<clus scale="   79.276">  5  6 -1 -1</clus>
<clus scale="   85.091">  7  8 -1 -1</clus>
<clus scale="   96.948">  1  5  2 -1</clus>
<clus scale="   53.636">  2  5  1 -1</clus>
</clustering>
</event>
<event>
 9    1  0.7586638E-005  0.1733848E+03  0.7546771E-02  0.1175796E+00
         21   -1    0    0  501  502  0.00000000000E+00  0.00000000000E+00  0.59938717927E+03  0.59938717927E+03  0.00000000000E+00 0.  1.
         -4   -1    0    0    0  501 -0.00000000000E+00 -0.00000000000E+00 -0.66014228447E+02  0.66014228447E+02  0.00000000000E+00 0.  1.
         23    2    1    2    0    0  0.11688322215E+03  0.51336717009E+02  0.23335257941E+03  0.28119059316E+03  0.91200752352E+02 0.  0.
        -24    2    1    2    0    0 -0.15627343611E+03 -0.69419339963E+02  0.27665678804E+03  0.33497234143E+03  0.80168943858E+02 0.  0.
         13    1    4    4    0    0 -0.22789549205E+02 -0.29519164929E+02  0.11837117456E+03  0.12410672672E+03  0.00000000000E+00 0. -1.
        -14    1    4    4    0    0 -0.13348388690E+03 -0.39900175034E+02  0.15828561348E+03  0.21086561471E+03  0.00000000000E+00 0.  1.
        -11    1    3    3    0    0  0.91628657042E+02  0.99962360868E+01  0.20570726726E+03  0.22541343201E+03  0.00000000000E+00 0.  1.
         11    1    3    3    0    0  0.25254565111E+02  0.41340480922E+02  0.27645312147E+02  0.55777161146E+02  0.00000000000E+00 0. -1.
         -3    1    1    2    0  502  0.39390213954E+02  0.18082622954E+02  0.23363583374E+02  0.49238473132E+02  0.00000000000E+00 0.  1.
<scales pt_clust_5="13000.00000" pt_clust_6="13000.00000" pt_clust_7="13000.00000" pt_clust_8="13000.00000" pt_clust_9="43.34250"></scales>
<clustering>
<clus scale="   43.342">  1  9  2 -1</clus>
<clus scale="   80.169">  5  6 -1 -1</clus>
<clus scale="   91.201">  7  8 -1 -1</clus>
<clus scale="  167.845">  1  5  2 -1</clus>
<clus scale="   43.342">  1  5  2 -1</clus>
</clustering>
</event>
<event>
 9    1  0.7586638E-005  0.1015881E+03  0.7546771E-02  0.1284051E+00
         21   -1    0    0  501  502  0.00000000000E+00  0.00000000000E+00  0.96928659729E+02  0.96928659729E+02  0.00000000000E+00 0. -1.
          1   -1    0    0  502    0 -0.00000000000E+00 -0.00000000000E+00 -0.35097880881E+03  0.35097880881E+03  0.00000000000E+00 0. -1.
         23    2    1    2    0    0  0.60954110527E+01  0.38039981417E+02 -0.25209324179E+03  0.27193889711E+03  0.94422280120E+02 0.  0.
        -24    2    1    2    0    0 -0.29963559767E+02 -0.28074866113E+02 -0.62655840856E+02  0.10998863068E+03  0.80534039159E+02 0.  0.
         13    1    4    4    0    0  0.18551738672E+01 -0.31672865463E+02  0.77351220660E+01  0.32656457096E+02  0.00000000000E+00 0. -1.
        -14    1    4    4    0    0 -0.31818733635E+02  0.35979993496E+01 -0.70390962922E+02  0.77332173579E+02  0.00000000000E+00 0.  1.
        -11    1    3    3    0    0 -0.10344224392E+02  0.62819570575E+02 -0.21592591827E+03  0.22511620023E+03  0.00000000000E+00 0. -1.
         11    1    3    3    0    0  0.16439635445E+02 -0.24779589159E+02 -0.36167323520E+02  0.46822696879E+02  0.00000000000E+00 0.  1.
          2    1    1    2  501    0  0.23868148715E+02 -0.99651153032E+01  0.60698933564E+02  0.65979940754E+02  0.00000000000E+00 0. -1.
<scales pt_clust_5="13000.00000" pt_clust_6="13000.00000" pt_clust_7="13000.00000" pt_clust_8="13000.00000" pt_clust_9="25.86488"></scales>
<clustering>
<clus scale="   25.865">  1  9  2 -1</clus>
<clus scale="   80.534">  5  6 -1 -1</clus>
<clus scale="   88.827">  1  5  2 -1</clus>
<clus scale="   94.422">  7  8 -1 -1</clus>
<clus scale="   25.865">  1  5  2 -1</clus>
</clustering>
</event>
<event>
 9    1  0.7586638E-005  0.1180830E+03  0.7546771E-02  0.1248772E+00
         21   -1    0    0  501  502  0.00000000000E+00  0.00000000000E+00  0.96715031742E+02  0.96715031742E+02  0.00000000000E+00 0.  1.
          1   -1    0    0  502    0 -0.00000000000E+00 -0.00000000000E+00 -0.55500378541E+03  0.55500378541E+03  0.00000000000E+00 0. -1.
         23    2    1    2    0    0  0.42939702023E+02 -0.63920212302E+02 -0.48958190241E+03  0.50348523930E+03  0.88754354723E+02 0.  0.
        -24    2    1    2    0    0 -0.30872451504E+02  0.84435783827E+02  0.28118078584E+02  0.12422132513E+03  0.80980253274E+02 0.  0.
         11    1    4    4    0    0 -0.38343737248E+02  0.21801998069E+02 -0.16353661241E+02  0.47042656621E+02  0.00000000000E+00 0. -1.
        -12    1    4    4    0    0  0.74712857441E+01  0.62633785758E+02  0.44471739825E+02  0.77178668504E+02  0.00000000000E+00 0.  1.
        -11    1    3    3    0    0  0.86410892924E+00 -0.64880415950E+02 -0.39021518907E+03  0.39557313968E+03  0.00000000000E+00 0. -1.
         11    1    3    3    0    0  0.42075593094E+02  0.96020364799E+00 -0.99366713340E+02  0.10791209962E+03  0.00000000000E+00 0.  1.
          2    1    1    2  501    0 -0.12067250519E+02 -0.20515571524E+02  0.31750701592E+01  0.24012252717E+02  0.00000000000E+00 0. -1.
<scales pt_clust_5="13000.00000" pt_clust_6="13000.00000" pt_clust_7="13000.00000" pt_clust_8="13000.00000" pt_clust_9="23.80141"></scales>
<clustering>
<clus scale="   23.801">  1  9  2 -1</clus>
<clus scale="   80.980">  5  6 -1 -1</clus>
<clus scale="   88.754">  7  8 -1 -1</clus>
<clus scale="  112.357">  1  5  2 -1</clus>
<clus scale="   23.801">  1  5  2 -1</clus>
</clustering>
</event>
<event>
 9    1  0.7586638E-005  0.1086514E+03  0.7546771E-02  0.1265287E+00
         21   -1    0    0  501  502  0.00000000000E+00  0.00000000000E+00  0.28037448150E+02  0.28037448150E+02  0.00000000000E+00 0.  1.
          1   -1    0    0  502    0 -0.00000000000E+00 -0.00000000000E+00 -0.88749461979E+03  0.88749461979E+03  0.00000000000E+00 0. -1.
        -24    2    1    2    0    0  0.30558095528E+02 -0.58741937411E+02 -0.68610110464E+03  0.69450587157E+03  0.84966272359E+02 0.  0.
         23    2    1    2    0    0 -0.34959923711E+02  0.22383567167E+02 -0.13756301095E+03  0.16981633366E+03  0.90502954923E+02 0.  0.
         13    1    3    3    0    0  0.57491292981E+02 -0.23219250423E+02 -0.34826171462E+03  0.35373804465E+03  0.00000000000E+00 0. -1.
        -14    1    3    3    0    0 -0.26933197453E+02 -0.35522686987E+02 -0.33783939002E+03  0.34076782692E+03  0.00000000000E+00 0.  1.
        -13    1    4    4    0    0 -0.13258348229E+02  0.55389489407E+02 -0.59719386743E+02  0.82523841934E+02  0.00000000000E+00 0.  1.
         13    1    4    4    0    0 -0.21701575482E+02 -0.33005922241E+02 -0.77843624208E+02  0.87292491723E+02  0.00000000000E+00 0. -1.
          2    1    1    2  501    0  0.44018281824E+01  0.36358370244E+02 -0.35793056048E+02  0.51209862716E+02  0.00000000000E+00 0. -1.
<scales pt_clust_5="13000.00000" pt_clust_6="13000.00000" pt_clust_7="13000.00000" pt_clust_8="13000.00000" pt_clust_9="36.62386"></scales>
<clustering>
<clus scale="   36.624">  1  9  2 -1</clus>
<clus scale="   84.966">  5  6 -1 -1</clus>
<clus scale="   90.503">  7  8 -1 -1</clus>
<clus scale="  104.085">  2  5  1 -1</clus>
<clus scale="   36.624">  1  5  2 -1</clus>
</clustering>
</event>
<event>
 9    1  0.7586638E-005  0.1017145E+03  0.7546771E-02  0.1281118E+00
          1   -1    0    0  502    0 -0.00000000000E+00  0.00000000000E+00  0.59024904936E+03  0.59024904936E+03  0.00000000000E+00 0. -1.
         21   -1    0    0  501  502  0.00000000000E+00 -0.00000000000E+00 -0.84900403861E+02  0.84900403861E+02  0.00000000000E+00 0. -1.
         23    2    1    2    0    0  0.24379373354E+02  0.50025906951E+02  0.35718124781E+03  0.37239707010E+03  0.89466132246E+02 0.  0.
        -24    2    1    2    0    0 -0.61329827006E+02  0.41381612844E+01  0.19675977592E+03  0.22114171266E+03  0.80067319170E+02 0.  0.
         11    1    4    4    0    0 -0.43508761405E+02  0.40131719206E+02  0.97452312143E+02  0.11401982436E+03  0.00000000000E+00 0. -1.
        -12    1    4    4    0    0 -0.17821065602E+02 -0.35993557922E+02  0.99307463773E+02  0.10712188830E+03  0.00000000000E+00 0.  1.
        -13    1    3    3    0    0  0.50659291408E+02  0.24801871227E+01  0.15807972725E+03  0.16601721387E+03  0.00000000000E+00 0.  1.
         13    1    3    3    0    0 -0.26279918054E+02  0.47545719828E+02  0.19910152057E+03  0.20637985623E+03  0.00000000000E+00 0. -1.
          2    1    1    2  501    0  0.36950453652E+02 -0.54164068235E+02 -0.48592378224E+02  0.81610670469E+02  0.00000000000E+00 0. -1.
<scales pt_clust_5="13000.00000" pt_clust_6="13000.00000" pt_clust_7="13000.00000" pt_clust_8="13000.00000" pt_clust_9="65.56739"></scales>
<clustering>
<clus scale="   65.567">  2  9  1 -1</clus>
<clus scale="   80.067">  5  6 -1 -1</clus>
<clus scale="   89.466">  7  8 -1 -1</clus>
<clus scale="   93.554">  2  5  1 -1</clus>
<clus scale="   65.567">  2  5  1 -1</clus>
</clustering>
</event>
<event>
 9    1  0.7586638E-005  0.9482789E+02  0.7546771E-02  0.1296295E+00
         21   -1    0    0  501  502  0.00000000000E+00  0.00000000000E+00  0.80076794742E+02  0.80076794742E+02  0.00000000000E+00 0.  1.
         -2   -1    0    0    0  501 -0.00000000000E+00 -0.00000000000E+00 -0.57187109527E+03  0.57187109527E+03  0.00000000000E+00 0.  1.
         23    2    1    2    0    0 -0.18578055837E+02  0.41728653133E+02 -0.41069829314E+03  0.42322845573E+03  0.91448417697E+02 0.  0.
        -24    2    1    2    0    0  0.74570203446E+01  0.44391169387E+02 -0.10301650147E+03  0.13916046308E+03  0.82018606648E+02 0.  0.
         11    1    4    4    0    0  0.35110689547E+02 -0.63691963147E+01 -0.41966653749E+02  0.55086542903E+02  0.00000000000E+00 0. -1.
        -12    1    4    4    0    0 -0.27653669202E+02  0.50760365702E+02 -0.61049847726E+02  0.84073920176E+02  0.00000000000E+00 0.  1.
        -11    1    3    3    0    0  0.11740416549E+02  0.57975039250E+02 -0.33362063371E+03  0.33882395103E+03  0.00000000000E+00 0.  1.
         11    1    3    3    0    0 -0.30318472386E+02 -0.16246386117E+02 -0.77077659438E+02  0.84404504703E+02  0.00000000000E+00 0. -1.
         -1    1    1    2    0  502  0.11121035493E+02 -0.86119822520E+02  0.21920494090E+02  0.89558971201E+02  0.00000000000E+00 0.  1.
<scales pt_clust_5="13000.00000" pt_clust_6="13000.00000" pt_clust_7="13000.00000" pt_clust_8="13000.00000" pt_clust_9="86.83491"></scales>
<clustering>
<clus scale="   82.019">  5  6 -1 -1</clus>
<clus scale="   86.835">  1  9  2 -1</clus>
<clus scale="   86.835">  1  5  2 -1</clus>
<clus scale="   91.448">  7  8 -1 -1</clus>
<clus scale="   86.835">  1  5  2 -1</clus>
</clustering>
</event>
<event>
 9    1  0.7586638E-005  0.1572362E+03  0.7546771E-02  0.1202057E+00
          1   -1    0    0  502    0 -0.00000000000E+00  0.00000000000E+00  0.27023168795E+04  0.27023168795E+04  0.00000000000E+00 0. -1.
         21   -1    0    0  501  502  0.00000000000E+00 -0.00000000000E+00 -0.25369439112E+02  0.25369439112E+02  0.00000000000E+00 0.  1.
         23    2    1    2    0    0 -0.46115516617E+02  0.73017779894E+02  0.25692041010E+03  0.28608087434E+03  0.91520120643E+02 0.  0.
        -24    2    1    2    0    0 -0.92928392038E+02  0.63104388625E+02  0.93872807951E+03  0.94758100174E+03  0.63886600308E+02 0.  0.
         13    1    4    4    0    0 -0.85406522079E+02  0.46704126074E+02  0.55809983268E+03  0.56652535040E+03  0.00000000000E+00 0. -1.
        -14    1    4    4    0    0 -0.75218699588E+01  0.16400262551E+02  0.38062824683E+03  0.38105565135E+03  0.00000000000E+00 0.  1.
        -13    1    3    3    0    0 -0.16830706414E+02  0.87950311380E+02  0.21429983261E+03  0.23225621241E+03  0.00000000000E+00 0.  1.
         13    1    3    3    0    0 -0.29284810203E+02 -0.14932531486E+02  0.42620577491E+02  0.53824661921E+02  0.00000000000E+00 0. -1.
          2    1    1    2  501    0  0.13904390865E+03 -0.13612216852E+03  0.14812989508E+04  0.14940244426E+04  0.00000000000E+00 0. -1.
<scales pt_clust_5="13000.00000" pt_clust_6="13000.00000" pt_clust_7="13000.00000" pt_clust_8="13000.00000" pt_clust_9="143.67238"></scales>
<clustering>
<clus scale="   63.887">  5  6 -1 -1</clus>
<clus scale="   91.520">  7  8 -1 -1</clus>
<clus scale="  125.834">  1  7  2 -1</clus>
<clus scale="  143.672">  2  9  1 -1</clus>
<clus scale="  143.672">  2  5  1 -1</clus>
</clustering>
</event>
<event>
 9    1  0.7586638E-005  0.1116070E+03  0.7546771E-02  0.1260483E+00
         21   -1    0    0  501  502  0.00000000000E+00  0.00000000000E+00  0.64020968728E+03  0.64020968728E+03  0.00000000000E+00 0. -1.
          1   -1    0    0  502    0 -0.00000000000E+00 -0.00000000000E+00 -0.56040187538E+02  0.56040187538E+02  0.00000000000E+00 0. -1.
         23    2    1    2    0    0 -0.37630875120E+02  0.52290867374E+02  0.24942799933E+02  0.11191355234E+03  0.88045910504E+02 0.  0.
        -24    2    1    2    0    0  0.55891006063E+02 -0.82025804798E+02  0.49572029242E+03  0.51187486607E+03  0.80157550989E+02 0.  0.
         13    1    4    4    0    0  0.61992000421E+02 -0.94720789257E+02  0.42904559502E+03  0.44372869936E+03  0.00000000000E+00 0. -1.
        -14    1    4    4    0    0 -0.61009943576E+01  0.12694984459E+02  0.66674697401E+02  0.68146166701E+02  0.00000000000E+00 0.  1.
        -11    1    3    3    0    0  0.27955673662E+02  0.75133646477E+01  0.12496641545E+02  0.31529928451E+02  0.00000000000E+00 0.  1.
         11    1    3    3    0    0 -0.65586548782E+02  0.44777502727E+02  0.12446158388E+02  0.80383623893E+02  0.00000000000E+00 0. -1.
          2    1    1    2  501    0 -0.18260130943E+02  0.29734937424E+02  0.63506407387E+02  0.72461456408E+02  0.00000000000E+00 0. -1.
<scales pt_clust_5="13000.00000" pt_clust_6="13000.00000" pt_clust_7="13000.00000" pt_clust_8="13000.00000" pt_clust_9="34.89411"></scales>
<clustering>
<clus scale="   34.894">  1  9  2 -1</clus>
<clus scale="   80.158">  5  6 -1 -1</clus>
<clus scale="   88.046">  7  8 -1 -1</clus>
<clus scale="  105.495">  1  5  2 -1</clus>
<clus scale="   34.894">  1  5  2 -1</clus>
</clustering>
</event>
<event>
 9    1  0.7586638E-005  0.3357836E+03  0.7546771E-02  0.1114753E+00
          1   -1    0    0  502    0 -0.00000000000E+00  0.00000000000E+00  0.81826048824E+03  0.81826048824E+03  0.00000000000E+00 0. -1.
         21   -1    0    0  501  502  0.00000000000E+00 -0.00000000000E+00 -0.21892880864E+03  0.21892880864E+03  0.00000000000E+00 0. -1.
        -24    2    1    2    0    0  0.50398396003E+02  0.21000036114E+02  0.21256634324E+03  0.23468729555E+03  0.83142507667E+02 0.  0.
         23    2    1    2    0    0  0.19966759485E+03  0.20634263627E+03  0.34958217936E+03  0.46250159305E+03  0.96205984559E+02 0.  0.
         11    1    3    3    0    0  0.48320737194E+02 -0.23886507911E+02  0.12893764379E+03  0.13975111767E+03  0.00000000000E+00 0. -1.
        -12    1    3    3    0    0  0.20776588089E+01  0.44886544025E+02  0.83628699445E+02  0.94936177886E+02  0.00000000000E+00 0.  1.
        -13    1    4    4    0    0  0.19685915643E+03  0.16136349504E+03  0.27016502290E+03  0.37118842197E+03  0.00000000000E+00 0. -1.
         13    1    4    4    0    0  0.28084384194E+01  0.44979141233E+02  0.79417156459E+02  0.91313171078E+02  0.00000000000E+00 0.  1.
          2    1    1    2  501    0 -0.25006599085E+03 -0.22734267239E+03  0.37183157002E+02  0.34000040829E+03  0.00000000000E+00 0. -1.
<scales pt_clust_5="13000.00000" pt_clust_6="13000.00000" pt_clust_7="13000.00000" pt_clust_8="13000.00000" pt_clust_9="321.70641"></scales>
<clustering>
<clus scale="   83.143">  5  6 -1 -1</clus>
<clus scale="   96.206">  7  8 -1 -1</clus>
<clus scale="   99.467">  1  5  2 -1</clus>
<clus scale="  321.706">  2  9  1 -1</clus>
<clus scale="  321.706">  2  5  1 -1</clus>
</clustering>
</event>
<event>
 9    1  0.7586638E-005  0.9010486E+02  0.7546771E-02  0.1308064E+00
         21   -1    0    0  501  502  0.00000000000E+00  0.00000000000E+00  0.30799758298E+02  0.30799758298E+02  0.00000000000E+00 0.  1.
         -4   -1    0    0    0  501 -0.00000000000E+00 -0.00000000000E+00 -0.45774644747E+03  0.45774644747E+03  0.00000000000E+00 0.  1.
         23    2    1    2    0    0  0.14338016412E+02 -0.38621069687E+01 -0.21723825048E+03  0.23542151999E+03  0.89500502895E+02 0.  0.
        -24    2    1    2    0    0  0.19533116739E+01 -0.23870098913E+02 -0.69534885438E+02  0.10930845705E+03  0.80868049566E+02 0.  0.
         11    1    4    4    0    0 -0.17337254700E+02  0.25699762731E+02 -0.28757781006E+02  0.42285555138E+02  0.00000000000E+00 0. -1.
        -12    1    4    4    0    0  0.19290566374E+02 -0.49569861644E+02 -0.40777104432E+02  0.67022901910E+02  0.00000000000E+00 0.  1.
        -11    1    3    3    0    0  0.17397438355E+02  0.41584448038E+02 -0.11351028810E+03  0.12213321695E+03  0.00000000000E+00 0.  1.
         11    1    3    3    0    0 -0.30594219432E+01 -0.45446555007E+02 -0.10372796238E+03  0.11328830303E+03  0.00000000000E+00 0. -1.
         -3    1    1    2    0  502 -0.16291328086E+02  0.27732205882E+02 -0.14017355325E+03  0.14381622873E+03  0.00000000000E+00 0.  1.
<scales pt_clust_5="13000.00000" pt_clust_6="13000.00000" pt_clust_7="13000.00000" pt_clust_8="13000.00000" pt_clust_9="32.16339"></scales>
<clustering>
<clus scale="   32.163">  1  9  2 -1</clus>
<clus scale="   80.868">  5  6 -1 -1</clus>
<clus scale="   81.536">  1  5  2 -1</clus>
<clus scale="   89.501">  7  8 -1 -1</clus>
<clus scale="   32.163">  1  5  2 -1</clus>
</clustering>
</event>
<event>
 9    1  0.7586638E-005  0.9381278E+02  0.7546771E-02  0.1297163E+00
         -4   -1    0    0    0  501 -0.00000000000E+00  0.00000000000E+00  0.48847583560E+03  0.48847583560E+03  0.00000000000E+00 0.  1.
         21   -1    0    0  501  502  0.00000000000E+00 -0.00000000000E+00 -0.31992684070E+02  0.31992684070E+02  0.00000000000E+00 0.  1.
        -24    2    1    2    0    0  0.34736789637E+02 -0.12594720719E+02  0.17293373257E+03  0.19592486934E+03  0.84351686530E+02 0.  0.
         23    2    1    2    0    0  0.16436607618E+02  0.35958704367E+02  0.14760602678E+03  0.17742057874E+03  0.90151717272E+02 0.  0.
         13    1    3    3    0    0 -0.19556457258E+02 -0.23945021136E+02  0.97562550619E+02  0.10234388277E+03  0.00000000000E+00 0. -1.
        -14    1    3    3    0    0  0.54293246895E+02  0.11350300417E+02  0.75371181953E+02  0.93580986568E+02  0.00000000000E+00 0.  1.
        -11    1    4    4    0    0  0.85914786240E+01 -0.28074959484E+02  0.73619744898E+02  0.79258335170E+02  0.00000000000E+00 0.  1.
         11    1    4    4    0    0  0.78451289945E+01  0.64033663851E+02  0.73986281886E+02  0.98162243568E+02  0.00000000000E+00 0. -1.
         -3    1    1    2    0  502 -0.51173397255E+02 -0.23363983648E+02  0.13594339217E+03  0.14712307159E+03  0.00000000000E+00 0.  1.
<scales pt_clust_5="13000.00000" pt_clust_6="13000.00000" pt_clust_7="13000.00000" pt_clust_8="13000.00000" pt_clust_9="56.25474"></scales>
<clustering>
<clus scale="   56.255">  2  9  1 -1</clus>
<clus scale="   84.352">  5  6 -1 -1</clus>
<clus scale="   88.254">  1  5  2 -1</clus>
<clus scale="   90.152">  7  8 -1 -1</clus>
<clus scale="   56.255">  2  5  1 -1</clus>
</clustering>
</event>
<event>
 9    1  0.7586638E-005  0.1046958E+03  0.7546771E-02  0.1275243E+00
         -4   -1    0    0    0  501 -0.00000000000E+00  0.00000000000E+00  0.32924640977E+03  0.32924640977E+03  0.00000000000E+00 0.  1.
         21   -1    0    0  501  502  0.00000000000E+00 -0.00000000000E+00 -0.84830095116E+02  0.84830095116E+02  0.00000000000E+00 0.  1.
         23    2    1    2    0    0  0.15318261496E+02 -0.28966966707E+02  0.10074886079E+03  0.13942081758E+03  0.90631656326E+02 0.  0.
        -24    2    1    2    0    0  0.79417874447E+00  0.11010026620E+03  0.40088310592E+02  0.14210055939E+03  0.80391523159E+02 0.  0.
         13    1    4    4    0    0 -0.16736052844E+02  0.18122063596E+02  0.41703321258E+02  0.48452777606E+02  0.00000000000E+00 0. -1.
        -14    1    4    4    0    0  0.17530231588E+02  0.91978202601E+02 -0.16150106662E+01  0.93647781782E+02  0.00000000000E+00 0.  1.
        -11    1    3    3    0    0  0.52278428420E+02 -0.25865329717E+02  0.51810008080E+02  0.78014910732E+02  0.00000000000E+00 0. -1.
         11    1    3    3    0    0 -0.36960166924E+02 -0.31016369901E+01  0.48938852706E+02  0.61405906843E+02  0.00000000000E+00 0.  1.
         -3    1    1    2    0  502 -0.16112440241E+02 -0.81133299490E+02  0.10357914328E+03  0.13255512793E+03  0.00000000000E+00 0.  1.
<scales pt_clust_5="13000.00000" pt_clust_6="13000.00000" pt_clust_7="13000.00000" pt_clust_8="13000.00000" pt_clust_9="82.71777"></scales>
<clustering>
<clus scale="   80.392">  5  6 -1 -1</clus>
<clus scale="   82.718">  2  9  1 -1</clus>
<clus scale="   90.632">  7  8 -1 -1</clus>
<clus scale="   95.968">  2  5  1 -1</clus>
<clus scale="   82.718">  2  5  1 -1</clus>
</clustering>
</event>
<event>
 9    1  0.7586638E-005  0.9306363E+02  0.7546771E-02  0.1300241E+00
         21   -1    0    0  501  502  0.00000000000E+00  0.00000000000E+00  0.11487456802E+03  0.11487456802E+03  0.00000000000E+00 0.  1.
         -4   -1    0    0    0  501 -0.00000000000E+00 -0.00000000000E+00 -0.18070504156E+03  0.18070504156E+03  0.00000000000E+00 0.  1.
         23    2    1    2    0    0  0.24906397594E+02 -0.19133068979E+02 -0.12353383956E+03  0.15625885356E+03  0.90387039054E+02 0.  0.
        -24    2    1    2    0    0  0.65196270805E+01 -0.43944505581E+01  0.20761222210E+02  0.85414715611E+02  0.82479261407E+02 0.  0.
         11    1    4    4    0    0 -0.34754451593E+02  0.13638026615E+02  0.48628732165E+01  0.37649903206E+02  0.00000000000E+00 0. -1.
        -12    1    4    4    0    0  0.41274078674E+02 -0.18032477173E+02  0.15898348994E+02  0.47764812405E+02  0.00000000000E+00 0.  1.
        -13    1    3    3    0    0  0.46232404582E+02 -0.55121481405E+01 -0.12236891684E+03  0.13092734939E+03  0.00000000000E+00 0.  1.
         13    1    3    3    0    0 -0.21326006988E+02 -0.13620920839E+02 -0.11649227271E+01  0.25331504170E+02  0.00000000000E+00 0. -1.
         -3    1    1    2    0  502 -0.31426024674E+02  0.23527519537E+02  0.36942143818E+02  0.53906040406E+02  0.00000000000E+00 0.  1.
<scales pt_clust_5="13000.00000" pt_clust_6="13000.00000" pt_clust_7="13000.00000" pt_clust_8="13000.00000" pt_clust_9="39.25735"></scales>
<clustering>
<clus scale="   39.257">  1  9  2 -1</clus>
<clus scale="   82.479">  5  6 -1 -1</clus>
<clus scale="   85.404">  1  5  2 -1</clus>
<clus scale="   90.387">  7  8 -1 -1</clus>
<clus scale="   39.257">  1  5  2 -1</clus>
</clustering>
</event>
<event>
 9    1  0.7586638E-005  0.1283537E+03  0.7546771E-02  0.1247453E+00
         -2   -1    0    0    0  501 -0.00000000000E+00  0.00000000000E+00  0.40722916189E+02  0.40722916189E+02  0.00000000000E+00 0.  1.
         21   -1    0    0  501  502  0.00000000000E+00 -0.00000000000E+00 -0.80314281224E+03  0.80314281224E+03  0.00000000000E+00 0. -1.
         23    2    1    2    0    0 -0.29153260947E+02  0.58979989570E+02 -0.10969750919E+03  0.14178398901E+03  0.61160479255E+02 0.  0.
        -24    2    1    2    0    0 -0.80541832600E+02  0.20271138534E+02 -0.38445350741E+03  0.40161219598E+03  0.81178511592E+02 0.  0.
         13    1    4    4    0    0 -0.40436487074E+02  0.41943500095E+02 -0.30035057885E+03  0.30594907567E+03  0.00000000000E+00 0. -1.
        -14    1    4    4    0    0 -0.40105345527E+02 -0.21672361561E+02 -0.84102928561E+02  0.95663120313E+02  0.00000000000E+00 0.  1.
        -11    1    3    3    0    0  0.10332851586E+02  0.45237513143E+02 -0.70974717249E+02  0.84797469926E+02  0.00000000000E+00 0.  1.
         11    1    3    3    0    0 -0.39486112533E+02  0.13742476427E+02 -0.38722791941E+02  0.56986519081E+02  0.00000000000E+00 0. -1.
         -1    1    1    2    0  502  0.10969509355E+03 -0.79251128104E+02 -0.26826887945E+03  0.30046954344E+03  0.00000000000E+00 0.  1.
<scales pt_clust_5="13000.00000" pt_clust_6="13000.00000" pt_clust_7="13000.00000" pt_clust_8="13000.00000" pt_clust_9="99.42204"></scales>
<clustering>
<clus scale="   61.160">  7  8 -1 -1</clus>
<clus scale="   81.179">  5  6 -1 -1</clus>
<clus scale="   89.828">  1  7  2 -1</clus>
<clus scale="   99.422">  2  9  1 -1</clus>
<clus scale="   99.422">  2  5  1 -1</clus>
</clustering>
</event>
<event>
 9    1  0.7586638E-005  0.1848631E+03  0.7546771E-02  0.1186341E+00
          1   -1    0    0  502    0 -0.00000000000E+00  0.00000000000E+00  0.23051993943E+04  0.23051993943E+04  0.00000000000E+00 0. -1.
         21   -1    0    0  501  502  0.00000000000E+00 -0.00000000000E+00 -0.24861452938E+02  0.24861452938E+02  0.00000000000E+00 0. -1.
         23    2    1    2    0    0  0.36997103992E+02 -0.43331959326E+02  0.35715098788E+03  0.37350187453E+03  0.93275815396E+02 0.  0.
        -24    2    1    2    0    0  0.14875000393E+03  0.47475362403E+01  0.85931318507E+03  0.87590262542E+03  0.81468744984E+02 0.  0.
         11    1    4    4    0    0  0.10091339101E+03  0.37175775772E+02  0.45844403043E+03  0.47088903132E+03  0.00000000000E+00 0. -1.
        -12    1    4    4    0    0  0.47836612921E+02 -0.32428239532E+02  0.40086915465E+03  0.40501359410E+03  0.00000000000E+00 0.  1.
        -13    1    3    3    0    0 -0.15047939474E+02 -0.17738496485E+02  0.17959614130E+02  0.29387794740E+02  0.00000000000E+00 0.  1.
         13    1    3    3    0    0  0.52045043466E+02 -0.25593462841E+02  0.33919137375E+03  0.34411407979E+03  0.00000000000E+00 0. -1.
          2    1    1    2  501    0 -0.18574710792E+03  0.38584423086E+02  0.10638737684E+04  0.10806563473E+04  0.00000000000E+00 0. -1.
<scales pt_clust_5="13000.00000" pt_clust_6="13000.00000" pt_clust_7="13000.00000" pt_clust_8="13000.00000" pt_clust_9="165.94344"></scales>
<clustering>
<clus scale="   81.469">  5  6 -1 -1</clus>
<clus scale="   93.276">  7  8 -1 -1</clus>
<clus scale="  109.302">  1  7  2 -1</clus>
<clus scale="  165.943">  2  9  1 -1</clus>
<clus scale="  165.943">  2  5  1 -1</clus>
</clustering>
</event>
<event>
 9    1  0.7586638E-005  0.1057169E+03  0.7546771E-02  0.1273575E+00
         21   -1    0    0  501  502  0.00000000000E+00  0.00000000000E+00  0.22143406805E+03  0.22143406805E+03  0.00000000000E+00 0.  1.
         -2   -1    0    0    0  501 -0.00000000000E+00 -0.00000000000E+00 -0.11746709146E+03  0.11746709146E+03  0.00000000000E+00 0.  1.
         23    2    1    2    0    0  0.36747719258E+02 -0.56847847173E+02 -0.78277521828E+01  0.11421042213E+03  0.91655192000E+02 0.  0.
        -24    2    1    2    0    0  0.51520187058E+02  0.45339804558E+02  0.57747831533E+02  0.12055272591E+03  0.80548867934E+02 0.  0.
         13    1    4    4    0    0  0.19476809377E+01 -0.20109355224E+02  0.50888302444E-01  0.20203519946E+02  0.00000000000E+00 0. -1.
        -14    1    4    4    0    0  0.49572506121E+02  0.65449159783E+02  0.57696943230E+02  0.10034920596E+03  0.00000000000E+00 0.  1.
        -11    1    3    3    0    0 -0.34375334807E+01 -0.35840230277E+02  0.36164999241E+02  0.51031812753E+02  0.00000000000E+00 0.  1.
         11    1    3    3    0    0  0.40185252739E+02 -0.21007616896E+02 -0.43992751424E+02  0.63178609380E+02  0.00000000000E+00 0. -1.
         -1    1    1    2    0  502 -0.88267906317E+02  0.11508042615E+02  0.54046897248E+02  0.10413801147E+03  0.00000000000E+00 0.  1.
<scales pt_clust_5="13000.00000" pt_clust_6="13000.00000" pt_clust_7="13000.00000" pt_clust_8="13000.00000" pt_clust_9="89.01493"></scales>
<clustering>
<clus scale="   80.549">  5  6 -1 -1</clus>
<clus scale="   89.015">  1  9  2 -1</clus>
<clus scale="   91.655">  7  8 -1 -1</clus>
<clus scale="   96.247">  1  5  2 -1</clus>
<clus scale="   89.015">  1  5  2 -1</clus>
</clustering>
</event>
<event>
 9    1  0.7586638E-005  0.1065318E+03  0.7546771E-02  0.1268686E+00
         21   -1    0    0  501  502  0.00000000000E+00  0.00000000000E+00  0.92954963528E+02  0.92954963528E+02  0.00000000000E+00 0. -1.
          3   -1    0    0  502    0 -0.00000000000E+00 -0.00000000000E+00 -0.24549845806E+03  0.24549845806E+03  0.00000000000E+00 0. -1.
        -24    2    1    2    0    0 -0.53485988024E+02  0.22349038655E+02 -0.13776134675E+03  0.17681444135E+03  0.94471834781E+02 0.  0.
         23    2    1    2    0    0  0.32800584016E+02  0.26827184449E+02  0.13620476027E+02  0.10119978851E+03  0.90886212872E+02 0.  0.
         13    1    3    3    0    0 -0.31617738012E+02  0.53505017195E+02 -0.11928147938E+03  0.13450107637E+03  0.00000000000E+00 0. -1.
        -14    1    3    3    0    0 -0.21868250012E+02 -0.31155978540E+02 -0.18479867364E+02  0.42313364971E+02  0.00000000000E+00 0.  1.
        -11    1    4    4    0    0 -0.25995571418E+02  0.27687075197E+02  0.18405155879E+02  0.42203004978E+02  0.00000000000E+00 0. -1.
         11    1    4    4    0    0  0.58796155434E+02 -0.85989074769E+00 -0.47846798519E+01  0.58996783532E+02  0.00000000000E+00 0.  1.
          4    1    1    2  501    0  0.20685404008E+02 -0.49176223104E+02 -0.28402623809E+02  0.60439191730E+02  0.00000000000E+00 0. -1.
<scales pt_clust_5="13000.00000" pt_clust_6="13000.00000" pt_clust_7="13000.00000" pt_clust_8="13000.00000" pt_clust_9="53.34969"></scales>
<clustering>
<clus scale="   53.350">  1  9  2 -1</clus>
<clus scale="   90.886">  7  8 -1 -1</clus>
<clus scale="   94.472">  5  6 -1 -1</clus>
<clus scale="  103.365">  1  7  2 -1</clus>
<clus scale="   53.350">  1  5  2 -1</clus>
</clustering>
</event>
<event>
 9    1  0.7586638E-005  0.1474532E+03  0.7546771E-02  0.1224953E+00
         -2   -1    0    0    0  501 -0.00000000000E+00  0.00000000000E+00  0.10193373211E+03  0.10193373211E+03  0.00000000000E+00 0.  1.
         21   -1    0    0  501  502  0.00000000000E+00 -0.00000000000E+00 -0.43918487614E+03  0.43918487614E+03  0.00000000000E+00 0. -1.
         23    2    1    2    0    0  0.94594378656E+01 -0.10267268500E+02 -0.49010037687E+02  0.10586937851E+03  0.92797864980E+02 0.  0.
        -24    2    1    2    0    0  0.77634760323E+01  0.13052894517E+03 -0.40109337350E+02  0.15897242213E+03  0.81027124875E+02 0.  0.
         13    1    4    4    0    0  0.37808494721E+02  0.10475004734E+03 -0.42768632318E+02  0.11929463777E+03  0.00000000000E+00 0. -1.
        -14    1    4    4    0    0 -0.30045018689E+02  0.25778897835E+02  0.26592949678E+01  0.39677784355E+02  0.00000000000E+00 0.  1.
        -11    1    3    3    0    0  0.42035841707E+02 -0.33531187341E+02 -0.29628436627E+02  0.61393784453E+02  0.00000000000E+00 0. -1.
         11    1    3    3    0    0 -0.32576403841E+02  0.23263918842E+02 -0.19381601060E+02  0.44475594057E+02  0.00000000000E+00 0.  1.
         -1    1    1    2    0  502 -0.17222913898E+02 -0.12026167667E+03 -0.24813176900E+03  0.27627680762E+03  0.00000000000E+00 0.  1.
<scales pt_clust_5="13000.00000" pt_clust_6="13000.00000" pt_clust_7="13000.00000" pt_clust_8="13000.00000" pt_clust_9="123.19519"></scales>
<clustering>
<clus scale="   81.027">  5  6 -1 -1</clus>
<clus scale="   92.798">  7  8 -1 -1</clus>
<clus scale="   93.842">  1  7  2 -1</clus>
<clus scale="  123.195">  2  9  1 -1</clus>
<clus scale="  123.195">  2  5  1 -1</clus>
</clustering>
</event>
<event>
 9    1  0.7586638E-005  0.9573029E+02  0.7546771E-02  0.1295844E+00
         -4   -1    0    0    0  501 -0.00000000000E+00  0.00000000000E+00  0.49255324307E+03  0.49255324307E+03  0.00000000000E+00 0.  1.
         21   -1    0    0  501  502  0.00000000000E+00 -0.00000000000E+00 -0.68716112861E+02  0.68716112861E+02  0.00000000000E+00 0. -1.
        -24    2    1    2    0    0  0.25685062419E+02 -0.18998066400E+02  0.37368821050E+03  0.38357139364E+03  0.80395810779E+02 0.  0.
         23    2    1    2    0    0  0.17678467707E+01 -0.25667215941E+02 -0.12588017961E+02  0.95938724175E+02  0.91563362453E+02 0.  0.
         13    1    3    3    0    0  0.18551308563E+01  0.26120522252E+02  0.56104098848E+02  0.61914401400E+02  0.00000000000E+00 0. -1.
        -14    1    3    3    0    0  0.23829931562E+02 -0.45118588652E+02  0.31758411165E+03  0.32165699224E+03  0.00000000000E+00 0.  1.
        -11    1    4    4    0    0  0.33229128695E+02 -0.35001795496E+02  0.17577427152E+02  0.51364059682E+02  0.00000000000E+00 0.  1.
         11    1    4    4    0    0 -0.31461281924E+02  0.93345795549E+01 -0.30165445112E+02  0.44574664493E+02  0.00000000000E+00 0. -1.
         -3    1    1    2    0  502 -0.27452909189E+02  0.44665282341E+02  0.62736937665E+02  0.81759238115E+02  0.00000000000E+00 0.  1.
<scales pt_clust_5="13000.00000" pt_clust_6="13000.00000" pt_clust_7="13000.00000" pt_clust_8="13000.00000" pt_clust_9="52.42759"></scales>
<clustering>
<clus scale="   52.428">  2  9  1 -1</clus>
<clus scale="   80.396">  5  6 -1 -1</clus>
<clus scale="   85.111">  1  5  2 -1</clus>
<clus scale="   91.563">  7  8 -1 -1</clus>
<clus scale="   52.428">  2  5  1 -1</clus>
</clustering>
</event>
<event>
 9    1  0.7586638E-005  0.1510212E+03  0.7546771E-02  0.1200961E+00
         21   -1    0    0  501  502  0.00000000000E+00  0.00000000000E+00  0.11577672111E+03  0.11577672111E+03  0.00000000000E+00 0. -1.
          1   -1    0    0  502    0 -0.00000000000E+00 -0.00000000000E+00 -0.48424036508E+03  0.48424036508E+03  0.00000000000E+00 0. -1.
        -24    2    1    2    0    0 -0.97928081645E+02 -0.75389578088E+02 -0.39070302837E+03  0.41776338448E+03  0.81264330254E+02 0.  0.
         23    2    1    2    0    0  0.84682832368E+02  0.52620826534E+02  0.50097764629E+02  0.14391387875E+03  0.90891611241E+02 0.  0.
         11    1    3    3    0    0 -0.52124682274E+02 -0.83652978073E+02 -0.22486515642E+03  0.24551810893E+03  0.00000000000E+00 0. -1.
        -12    1    3    3    0    0 -0.45803399371E+02  0.82633999853E+01 -0.16583787196E+03  0.17224527555E+03  0.00000000000E+00 0.  1.
        -13    1    4    4    0    0  0.50785271442E+02  0.70915802480E+02  0.57792312141E+02  0.10463338941E+03  0.00000000000E+00 0. -1.
         13    1    4    4    0    0  0.33897560927E+02 -0.18294975946E+02 -0.76945475119E+01  0.39280489343E+02  0.00000000000E+00 0.  1.
          2    1    1    2  501    0  0.13245249276E+02  0.22768751554E+02 -0.27858380233E+02  0.38339822964E+02  0.00000000000E+00 0. -1.
<scales pt_clust_5="13000.00000" pt_clust_6="13000.00000" pt_clust_7="13000.00000" pt_clust_8="13000.00000" pt_clust_9="26.34110"></scales>
<clustering>
<clus scale="   26.341">  1  9  2 -1</clus>
<clus scale="   81.264">  5  6 -1 -1</clus>
<clus scale="   90.892">  7  8 -1 -1</clus>
<clus scale="  145.430">  2  5  1 -1</clus>
<clus scale="   26.341">  1  5  2 -1</clus>
</clustering>
</event>
<event>
 9    1  0.7586638E-005  0.9731621E+02  0.7546771E-02  0.1292138E+00
         21   -1    0    0  501  502  0.00000000000E+00  0.00000000000E+00  0.48550579916E+02  0.48550579916E+02  0.00000000000E+00 0. -1.
         -4   -1    0    0    0  501 -0.00000000000E+00 -0.00000000000E+00 -0.70365392818E+03  0.70365392818E+03  0.00000000000E+00 0.  1.
        -24    2    1    2    0    0  0.13058606509E+02  0.41100257079E+02 -0.30116263101E+03  0.31424725657E+03  0.78693389845E+02 0.  0.
         23    2    1    2    0    0  0.12406896461E+02 -0.13515445532E+00 -0.11032455714E+02  0.91673109090E+02  0.90157054658E+02 0.  0.
         13    1    3    3    0    0 -0.30190949862E+02  0.53974135659E+01 -0.70821966648E+02  0.77177564659E+02  0.00000000000E+00 0. -1.
        -14    1    3    3    0    0  0.43249556372E+02  0.35702843513E+02 -0.23034066437E+03  0.23706969191E+03  0.00000000000E+00 0.  1.
        -11    1    4    4    0    0  0.28414563562E+02 -0.33172129639E+02 -0.27312257771E+02  0.51514435178E+02  0.00000000000E+00 0.  1.
         11    1    4    4    0    0 -0.16007667101E+02  0.33036975184E+02  0.16279802057E+02  0.40158673912E+02  0.00000000000E+00 0. -1.
         -3    1    1    2    0  502 -0.25465502970E+02 -0.40965102623E+02 -0.34290826153E+03  0.34628414244E+03  0.00000000000E+00 0.  1.
<scales pt_clust_5="13000.00000" pt_clust_6="13000.00000" pt_clust_7="13000.00000" pt_clust_8="13000.00000" pt_clust_9="48.23519"></scales>
<clustering>
<clus scale="   48.235">  1  9  2 -1</clus>
<clus scale="   78.693">  5  6 -1 -1</clus>
<clus scale="   86.803">  2  5  1 -1</clus>
<clus scale="   90.157">  7  8 -1 -1</clus>
<clus scale="   48.235">  1  5  2 -1</clus>
</clustering>
</event>
<event>
 9    1  0.7586638E-005  0.4630267E+03  0.7546771E-02  0.1064273E+00
         21   -1    0    0  501  502  0.00000000000E+00  0.00000000000E+00  0.26046014199E+03  0.26046014199E+03  0.00000000000E+00 0.  1.
          1   -1    0    0  502    0 -0.00000000000E+00 -0.00000000000E+00 -0.11109400998E+04  0.11109400998E+04  0.00000000000E+00 0. -1.
        -24    2    1    2    0    0  0.81916231995E+02  0.86753633846E+02 -0.86539374809E+02  0.16830816198E+03  0.81253381145E+02 0.  0.
         23    2    1    2    0    0 -0.45093825241E+03  0.14791619736E+03 -0.31717371742E+03  0.57791385450E+03  0.90336854463E+02 0.  0.
         13    1    3    3    0    0  0.57827885911E+02  0.87509514033E+02 -0.33598940152E+02  0.11014022069E+03  0.00000000000E+00 0. -1.
        -14    1    3    3    0    0  0.24088346084E+02 -0.75588018718E+00 -0.52940434657E+02  0.58167941287E+02  0.00000000000E+00 0.  1.
        -11    1    4    4    0    0 -0.13285916234E+03  0.69400303381E+01 -0.11268711498E+03  0.17435052888E+03  0.00000000000E+00 0. -1.
         11    1    4    4    0    0 -0.31807909006E+03  0.14097616702E+03 -0.20448660244E+03  0.40356332561E+03  0.00000000000E+00 0.  1.
          2    1    1    2  501    0  0.36902202041E+03 -0.23466983120E+03 -0.44676686558E+03  0.62517822532E+03  0.00000000000E+00 0. -1.
<scales pt_clust_5="13000.00000" pt_clust_6="13000.00000" pt_clust_7="13000.00000" pt_clust_8="13000.00000" pt_clust_9="454.12903"></scales>
<clustering>
<clus scale="   81.253">  5  6 -1 -1</clus>
<clus scale="   90.337">  7  8 -1 -1</clus>
<clus scale="  144.356">  2  5  1 -1</clus>
<clus scale="  454.129">  1  9  2 -1</clus>
<clus scale="  454.129">  1  5  2 -1</clus>
</clustering>
</event>
<event>
 9    1  0.7586638E-005  0.9931066E+02  0.7546771E-02  0.1286055E+00
         21   -1    0    0  501  502  0.00000000000E+00  0.00000000000E+00  0.88619917573E+02  0.88619917573E+02  0.00000000000E+00 0. -1.
          1   -1    0    0  502    0 -0.00000000000E+00 -0.00000000000E+00 -0.52711292210E+03  0.52711292210E+03  0.00000000000E+00 0. -1.
         23    2    1    2    0    0 -0.47123707666E+02 -0.96257683704E+01 -0.43778655949E+03  0.44979111664E+03  0.91332785471E+02 0.  0.
        -24    2    1    2    0    0  0.24886372842E+01  0.72715653444E+01 -0.51849913522E+02  0.98019074759E+02  0.82826665431E+02 0.  0.
         13    1    4    4    0    0  0.33966218251E+02  0.26371644462E+02 -0.41527189938E+02  0.59780223469E+02  0.00000000000E+00 0. -1.
        -14    1    4    4    0    0 -0.31477580967E+02 -0.19100079117E+02 -0.10322723584E+02  0.38238851290E+02  0.00000000000E+00 0.  1.
        -11    1    3    3    0    0 -0.48695707204E+02  0.30040482236E+02 -0.33007053472E+03  0.33499292584E+03  0.00000000000E+00 0. -1.
         11    1    3    3    0    0  0.15719995378E+01 -0.39666250606E+02 -0.10771602477E+03  0.11479819081E+03  0.00000000000E+00 0.  1.
          2    1    1    2  501    0  0.44635070382E+02  0.23542030260E+01  0.51143468482E+02  0.67922648272E+02  0.00000000000E+00 0. -1.
<scales pt_clust_5="13000.00000" pt_clust_6="13000.00000" pt_clust_7="13000.00000" pt_clust_8="13000.00000" pt_clust_9="44.69711"></scales>
<clustering>
<clus scale="   44.697">  1  9  2 -1</clus>
<clus scale="   82.827">  5  6 -1 -1</clus>
<clus scale="   91.333">  7  8 -1 -1</clus>
<clus scale="   91.549">  1  5  2 -1</clus>
<clus scale="   44.697">  1  5  2 -1</clus>
</clustering>
</event>
<event>
 9    1  0.7586638E-005  0.1200174E+03  0.7546771E-02  0.1247422E+00
          1   -1    0    0  502    0 -0.00000000000E+00  0.00000000000E+00  0.70254878095E+03  0.70254878095E+03  0.00000000000E+00 0. -1.
         21   -1    0    0  501  502  0.00000000000E+00 -0.00000000000E+00 -0.43001933535E+02  0.43001933535E+02  0.00000000000E+00 0.  1.
        -24    2    1    2    0    0  0.80888727067E+02  0.10606470371E+02  0.45777568978E+03  0.47198004925E+03  0.80938874229E+02 0.  0.
         23    2    1    2    0    0 -0.38197501791E+02 -0.24153554423E+02  0.50900905418E+02  0.11619246723E+03  0.94166575462E+02 0.  0.
         11    1    3    3    0    0  0.96384380004E+02  0.17497535058E+02  0.38941350347E+03  0.40154574973E+03  0.00000000000E+00 0. -1.
        -12    1    3    3    0    0 -0.15495652938E+02 -0.68910646867E+01  0.68362186308E+02  0.70434299523E+02  0.00000000000E+00 0.  1.
        -11    1    4    4    0    0  0.31167572650E+02 -0.15386536336E+01  0.19241877147E+02  0.36661081217E+02  0.00000000000E+00 0.  1.
         11    1    4    4    0    0 -0.69365074441E+02 -0.22614900790E+02  0.31659028272E+02  0.79531386012E+02  0.00000000000E+00 0. -1.
          2    1    1    2  501    0 -0.42691225276E+02  0.13547084052E+02  0.15087025222E+03  0.15737819800E+03  0.00000000000E+00 0. -1.
<scales pt_clust_5="13000.00000" pt_clust_6="13000.00000" pt_clust_7="13000.00000" pt_clust_8="13000.00000" pt_clust_9="44.78913"></scales>
<clustering>
<clus scale="   44.789">  2  9  1 -1</clus>
<clus scale="   80.939">  5  6 -1 -1</clus>
<clus scale="   94.167">  7  8 -1 -1</clus>
<clus scale="  109.945">  1  5  2 -1</clus>
<clus scale="   44.789">  2  5  1 -1</clus>
</clustering>
</event>
<event>
 9    1  0.7586638E-005  0.1482429E+03  0.7546771E-02  0.1204850E+00
          1   -1    0    0  502    0 -0.00000000000E+00  0.00000000000E+00  0.10206997434E+04  0.10206997434E+04  0.00000000000E+00 0. -1.
         21   -1    0    0  501  502  0.00000000000E+00 -0.00000000000E+00 -0.13762794685E+03  0.13762794685E+03  0.00000000000E+00 0. -1.
        -24    2    1    2    0    0 -0.91587613748E+02  0.72926922766E+02  0.86021754978E+03  0.87182990575E+03  0.80040768052E+02 0.  0.
         23    2    1    2    0    0  0.10435574316E+03 -0.49925189590E+02  0.11725941533E+03  0.18849553602E+03  0.91641425839E+02 0.  0.
         13    1    3    3    0    0  0.44413398386E+01  0.24771276326E+02  0.70869589549E+02  0.75205321309E+02  0.00000000000E+00 0. -1.
        -14    1    3    3    0    0 -0.96028953586E+02  0.48155646440E+02  0.78934796023E+03  0.79662458444E+03  0.00000000000E+00 0.  1.
        -13    1    4    4    0    0  0.28216986696E+02 -0.42256220540E+02  0.28991040137E+01  0.50893922197E+02  0.00000000000E+00 0.  1.
         13    1    4    4    0    0  0.76138756463E+02 -0.76689690500E+01  0.11436031132E+03  0.13760161382E+03  0.00000000000E+00 0. -1.
          2    1    1    2  501    0 -0.12768129412E+02 -0.23001733176E+02 -0.94405168553E+02  0.98002248481E+02  0.00000000000E+00 0. -1.
<scales pt_clust_5="13000.00000" pt_clust_6="13000.00000" pt_clust_7="13000.00000" pt_clust_8="13000.00000" pt_clust_9="26.30789"></scales>
<clustering>
<clus scale="   26.308">  2  9  1 -1</clus>
<clus scale="   80.041">  5  6 -1 -1</clus>
<clus scale="   91.641">  7  8 -1 -1</clus>
<clus scale="  141.366">  1  5  2 -1</clus>
<clus scale="   26.308">  2  5  1 -1</clus>
</clustering>
</event>
<event>
 9    1  0.7586638E-005  0.1137786E+03  0.7546771E-02  0.1257168E+00
          1   -1    0    0  502    0 -0.00000000000E+00  0.00000000000E+00  0.28185434322E+03  0.28185434322E+03  0.00000000000E+00 0. -1.
         21   -1    0    0  501  502  0.00000000000E+00 -0.00000000000E+00 -0.13374213373E+03  0.13374213373E+03  0.00000000000E+00 0. -1.
         23    2    1    2    0    0 -0.74937247056E+02 -0.17084193182E+02  0.18279388223E+03  0.21785547906E+03  0.90221647752E+02 0.  0.
        -24    2    1    2    0    0  0.13807948440E+02  0.66303590075E+02 -0.51961340327E+02  0.11737976911E+03  0.80568007360E+02 0.  0.
         13    1    4    4    0    0  0.41181325358E+02  0.40237509095E+02 -0.54785316145E+02  0.79475716804E+02  0.00000000000E+00 0. -1.
        -14    1    4    4    0    0 -0.27373376918E+02  0.26066080979E+02  0.28239758177E+01  0.37904052302E+02  0.00000000000E+00 0.  1.
        -13    1    3    3    0    0 -0.94086298534E+02 -0.51080429232E+01  0.16053579004E+03  0.18614527541E+03  0.00000000000E+00 0. -1.
         13    1    3    3    0    0  0.19149051478E+02 -0.11976150259E+02  0.22258092189E+02  0.31710203648E+02  0.00000000000E+00 0.  1.
          2    1    1    2  501    0  0.61129298616E+02 -0.49219396893E+02  0.17279667587E+02  0.80361228784E+02  0.00000000000E+00 0. -1.
<scales pt_clust_5="13000.00000" pt_clust_6="13000.00000" pt_clust_7="13000.00000" pt_clust_8="13000.00000" pt_clust_9="78.48146"></scales>
<clustering>
<clus scale="   78.481">  2  9  1 -1</clus>
<clus scale="   80.568">  5  6 -1 -1</clus>
<clus scale="   90.222">  7  8 -1 -1</clus>
<clus scale="  106.287">  2  5  1 -1</clus>
<clus scale="   78.481">  2  5  1 -1</clus>
</clustering>
</event>
<event>
 9    1  0.7586638E-005  0.1012804E+03  0.7546771E-02  0.1283483E+00
         21   -1    0    0  501  502  0.00000000000E+00  0.00000000000E+00  0.33320309045E+03  0.33320309045E+03  0.00000000000E+00 0.  1.
          3   -1    0    0  502    0 -0.00000000000E+00 -0.00000000000E+00 -0.10241235005E+03  0.10241235005E+03  0.00000000000E+00 0. -1.
         23    2    1    2    0    0  0.25738381793E+02  0.34571831491E+02 -0.55112523899E+02  0.11536078676E+03  0.91722652606E+02 0.  0.
        -24    2    1    2    0    0  0.12014169371E+02 -0.57726165489E+02  0.21268915910E+03  0.23468781728E+03  0.79781217917E+02 0.  0.
         11    1    4    4    0    0  0.29645558202E+02  0.16594839543E+01  0.11690804253E+03  0.12061966430E+03  0.00000000000E+00 0. -1.
        -12    1    4    4    0    0 -0.17631388831E+02 -0.59385649443E+02  0.95781116567E+02  0.11406815297E+03  0.00000000000E+00 0.  1.
        -11    1    3    3    0    0 -0.33400547333E+02  0.21300293606E+02 -0.13543012711E+02  0.41865406520E+02  0.00000000000E+00 0. -1.
         11    1    3    3    0    0  0.59138929126E+02  0.13271537885E+02 -0.41569511187E+02  0.73495380238E+02  0.00000000000E+00 0.  1.
          4    1    1    2  501    0 -0.37752551164E+02  0.23154333998E+02  0.73214105196E+02  0.85566836461E+02  0.00000000000E+00 0. -1.
<scales pt_clust_5="13000.00000" pt_clust_6="13000.00000" pt_clust_7="13000.00000" pt_clust_8="13000.00000" pt_clust_9="44.28745"></scales>
<clustering>
<clus scale="   44.287">  1  9  2 -1</clus>
<clus scale="   79.781">  5  6 -1 -1</clus>
<clus scale="   90.607">  1  5  2 -1</clus>
<clus scale="   91.723">  7  8 -1 -1</clus>
<clus scale="   44.287">  1  5  2 -1</clus>
</clustering>
</event>
<event>
 9    1  0.7586638E-005  0.1291115E+03  0.7546771E-02  0.1232632E+00
         -4   -1    0    0    0  501 -0.00000000000E+00  0.00000000000E+00  0.26465386938E+03  0.26465386938E+03  0.00000000000E+00 0.  1.
         21   -1    0    0  501  502  0.00000000000E+00 -0.00000000000E+00 -0.24099708397E+03  0.24099708397E+03  0.00000000000E+00 0. -1.
        -24    2    1    2    0    0  0.67055567065E+02  0.63351839340E+02  0.13211838459E+02  0.12226795226E+03  0.79151720467E+02 0.  0.
         23    2    1    2    0    0 -0.11534045949E+03  0.25284911683E+02 -0.13777735106E+03  0.20405716887E+03  0.93348708349E+02 0.  0.
         11    1    3    3    0    0  0.21036680394E+02  0.25924391264E+02  0.44162035447E+02  0.55361551272E+02  0.00000000000E+00 0. -1.
        -12    1    3    3    0    0  0.46018886671E+02  0.37427448076E+02 -0.30950196988E+02  0.66906400991E+02  0.00000000000E+00 0.  1.
        -11    1    4    4    0    0 -0.14581521414E+02 -0.19403680755E+02  0.38676528781E+01  0.24578086427E+02  0.00000000000E+00 0.  1.
         11    1    4    4    0    0 -0.10075893808E+03  0.44688592439E+02 -0.14164500393E+03  0.17947908245E+03  0.00000000000E+00 0. -1.
         -3    1    1    2    0  502  0.48284892427E+02 -0.88636751024E+02  0.14822229801E+03  0.17932583220E+03  0.00000000000E+00 0.  1.
<scales pt_clust_5="13000.00000" pt_clust_6="13000.00000" pt_clust_7="13000.00000" pt_clust_8="13000.00000" pt_clust_9="100.93520"></scales>
<clustering>
<clus scale="   79.152">  5  6 -1 -1</clus>
<clus scale="   93.349">  7  8 -1 -1</clus>
<clus scale="  100.935">  2  9  1 -1</clus>
<clus scale="  119.251">  1  5  2 -1</clus>
<clus scale="  100.935">  2  5  1 -1</clus>
</clustering>
</event>
<event>
 9    1  0.7586638E-005  0.2390623E+03  0.7546771E-02  0.1121029E+00
         21   -1    0    0  501  502  0.00000000000E+00  0.00000000000E+00  0.27162788072E+03  0.27162788072E+03  0.00000000000E+00 0.  1.
         -2   -1    0    0    0  501 -0.00000000000E+00 -0.00000000000E+00 -0.60031172921E+03  0.60031172921E+03  0.00000000000E+00 0.  1.
        -24    2    1    2    0    0  0.15786306434E+03  0.20561782682E+03 -0.45697817432E+03  0.53142948570E+03  0.79930023620E+02 0.  0.
         23    2    1    2    0    0 -0.53800133481E+02 -0.12558432231E+03  0.10200880551E+02  0.16393006522E+03  0.90017398032E+02 0.  0.
         13    1    3    3    0    0  0.26731109317E+02  0.89816636621E+02 -0.12559541631E+03  0.15670286857E+03  0.00000000000E+00 0. -1.
        -14    1    3    3    0    0  0.13113195503E+03  0.11580119020E+03 -0.33138275801E+03  0.37472661713E+03  0.00000000000E+00 0.  1.
        -13    1    4    4    0    0 -0.14317790297E+02 -0.98690510559E+02 -0.27077681607E+02  0.10333449005E+03  0.00000000000E+00 0. -1.
         13    1    4    4    0    0 -0.39482343184E+02 -0.26893811747E+02  0.37278562158E+02  0.60595575170E+02  0.00000000000E+00 0.  1.
         -1    1    1    2    0  502 -0.10406293086E+03 -0.80033504510E+02  0.11809344528E+03  0.17658005902E+03  0.00000000000E+00 0.  1.
<scales pt_clust_5="13000.00000" pt_clust_6="13000.00000" pt_clust_7="13000.00000" pt_clust_8="13000.00000" pt_clust_9="131.28006"></scales>
<clustering>
<clus scale="   79.930">  5  6 -1 -1</clus>
<clus scale="   90.017">  7  8 -1 -1</clus>
<clus scale="  131.280">  1  9  2 -1</clus>
<clus scale="  235.449">  2  5  1 -1</clus>
<clus scale="  131.280">  1  5  2 -1</clus>
</clustering>
</event>
<event>
 9    1  0.7586638E-005  0.1501623E+03  0.7546771E-02  0.1214140E+00
         21   -1    0    0  501  502  0.00000000000E+00  0.00000000000E+00  0.52511531167E+03  0.52511531167E+03  0.00000000000E+00 0. -1.
          1   -1    0    0  502    0 -0.00000000000E+00 -0.00000000000E+00 -0.10694343832E+03  0.10694343832E+03  0.00000000000E+00 0. -1.
         23    2    1    2    0    0 -0.54091473664E+02  0.36018514761E+02  0.30722661476E+03  0.32684115531E+03  0.90629614682E+02 0.  0.
        -24    2    1    2    0    0  0.77957336005E+02  0.97162927878E+02  0.48491325480E+02  0.15619622102E+03  0.80795235152E+02 0.  0.
         11    1    4    4    0    0  0.60393680456E+02  0.94695529765E+02  0.87242385419E+01  0.11265323934E+03  0.00000000000E+00 0. -1.
        -12    1    4    4    0    0  0.17563655549E+02  0.24673981130E+01  0.39767086938E+02  0.43542981676E+02  0.00000000000E+00 0.  1.
        -11    1    3    3    0    0 -0.20374825569E+02 -0.19645595686E+02  0.26857538382E+02  0.39018076769E+02  0.00000000000E+00 0.  1.
         11    1    3    3    0    0 -0.33716648095E+02  0.55664110447E+02  0.28036907638E+03  0.28782307854E+03  0.00000000000E+00 0. -1.
          2    1    1    2  501    0 -0.23865862341E+02 -0.13318144264E+03  0.62453933105E+02  0.14902137366E+03  0.00000000000E+00 0. -1.
<scales pt_clust_5="13000.00000" pt_clust_6="13000.00000" pt_clust_7="13000.00000" pt_clust_8="13000.00000" pt_clust_9="126.57347"></scales>
<clustering>
<clus scale="   80.795">  5  6 -1 -1</clus>
<clus scale="   90.630">  7  8 -1 -1</clus>
<clus scale="  111.521">  2  7  1 -1</clus>
<clus scale="  126.573">  1  9  2 -1</clus>
<clus scale="  126.573">  1  5  2 -1</clus>
</clustering>
</event>
<event>
 9    1  0.7586638E-005  0.1376100E+03  0.7546771E-02  0.1239023E+00
         21   -1    0    0  501  502  0.00000000000E+00  0.00000000000E+00  0.57133933326E+03  0.57133933326E+03  0.00000000000E+00 0.  1.
         -2   -1    0    0    0  501 -0.00000000000E+00 -0.00000000000E+00 -0.72910264568E+02  0.72910264568E+02  0.00000000000E+00 0.  1.
        -24    2    1    2    0    0 -0.34005284220E+01  0.35400397652E+02  0.22586848107E+02  0.89328725104E+02  0.78769941436E+02 0.  0.
         23    2    1    2    0    0 -0.42384547412E+02  0.61184128337E+02  0.77406732165E+02  0.14239731914E+03  0.93516024798E+02 0.  0.
         13    1    3    3    0    0  0.35368428367E+02  0.22911144091E+01  0.94191635075E+01  0.36672817884E+02  0.00000000000E+00 0. -1.
        -14    1    3    3    0    0 -0.38768956789E+02  0.33109283243E+02  0.13167684599E+02  0.52655907220E+02  0.00000000000E+00 0.  1.
        -11    1    4    4    0    0 -0.25692584837E+02  0.15382518075E+02  0.87615329108E+02  0.92591450321E+02  0.00000000000E+00 0.  1.
         11    1    4    4    0    0 -0.16691962575E+02  0.45801610263E+02 -0.10208596943E+02  0.49805868819E+02  0.00000000000E+00 0. -1.
         -1    1    1    2    0  502  0.45785075834E+02 -0.96584525990E+02  0.39843548842E+03  0.41252355359E+03  0.00000000000E+00 0.  1.
<scales pt_clust_5="13000.00000" pt_clust_6="13000.00000" pt_clust_7="13000.00000" pt_clust_8="13000.00000" pt_clust_9="100.95175"></scales>
<clustering>
<clus scale="   78.770">  5  6 -1 -1</clus>
<clus scale="   86.426">  2  5  1 -1</clus>
<clus scale="   93.516">  7  8 -1 -1</clus>
<clus scale="  100.952">  1  9  2 -1</clus>
<clus scale="  100.952">  1  5  2 -1</clus>
</clustering>
</event>
<event>
 9    1  0.7586638E-005  0.1541089E+03  0.7546771E-02  0.1197040E+00
         21   -1    0    0  501  502  0.00000000000E+00  0.00000000000E+00  0.13671697843E+03  0.13671697843E+03  0.00000000000E+00 0. -1.
          1   -1    0    0  502    0 -0.00000000000E+00 -0.00000000000E+00 -0.63895101970E+03  0.63895101970E+03  0.00000000000E+00 0. -1.
        -24    2    1    2    0    0  0.46469699342E+02  0.10345759682E+03 -0.14142133492E+03  0.19883401720E+03  0.81682710101E+02 0.  0.
         23    2    1    2    0    0 -0.13718537892E+03 -0.11309327687E+03  0.52184280987E+01  0.19960596999E+03  0.90583628770E+02 0.  0.
         13    1    3    3    0    0 -0.60766157802E+01  0.50816324404E+02 -0.17096204107E+02  0.53958356908E+02  0.00000000000E+00 0. -1.
        -14    1    3    3    0    0  0.52546315123E+02  0.52641272420E+02 -0.12432513081E+03  0.14487566029E+03  0.00000000000E+00 0.  1.
        -11    1    4    4    0    0 -0.11416627411E+03 -0.72653677173E+02  0.40450952646E+02  0.14124013070E+03  0.00000000000E+00 0. -1.
         11    1    4    4    0    0 -0.23019104816E+02 -0.40439599699E+02 -0.35232524547E+02  0.58365839292E+02  0.00000000000E+00 0.  1.
          2    1    1    2  501    0  0.90715679582E+02  0.96356800467E+01 -0.36603113445E+03  0.37722801094E+03  0.00000000000E+00 0. -1.
<scales pt_clust_5="13000.00000" pt_clust_6="13000.00000" pt_clust_7="13000.00000" pt_clust_8="13000.00000" pt_clust_9="91.22603"></scales>
<clustering>
<clus scale="   81.683">  5  6 -1 -1</clus>
<clus scale="   90.584">  7  8 -1 -1</clus>
<clus scale="   91.226">  1  9  2 -1</clus>
<clus scale="  149.051">  2  5  1 -1</clus>
<clus scale="   91.226">  1  5  2 -1</clus>
</clustering>
</event>
<event>
 9    1  0.7586638E-005  0.1998762E+03  0.7546771E-02  0.1150513E+00
         21   -1    0    0  501  502  0.00000000000E+00  0.00000000000E+00  0.67562486459E+02  0.67562486459E+02  0.00000000000E+00 0. -1.
          1   -1    0    0  502    0 -0.00000000000E+00 -0.00000000000E+00 -0.10890319245E+04  0.10890319245E+04  0.00000000000E+00 0. -1.
         23    2    1    2    0    0  0.19437781007E+03 -0.44183914140E+02 -0.54836309139E+03  0.59053596911E+03  0.91080730613E+02 0.  0.
        -24    2    1    2    0    0 -0.11904421893E+03  0.77483021418E+02 -0.12142712795E+03  0.20486285306E+03  0.83958897633E+02 0.  0.
         13    1    4    4    0    0 -0.11224859626E+03  0.73779249528E+02 -0.13423361301E+03  0.18989941518E+03  0.00000000000E+00 0. -1.
        -14    1    4    4    0    0 -0.67956226786E+01  0.37037718901E+01  0.12806485058E+02  0.14963437885E+02  0.00000000000E+00 0.  1.
        -13    1    3    3    0    0  0.21354229474E+02  0.19385028285E+02 -0.36663725684E+02  0.46647735412E+02  0.00000000000E+00 0.  1.
         13    1    3    3    0    0  0.17302358060E+03 -0.63568942425E+02 -0.51169936571E+03  0.54388823370E+03  0.00000000000E+00 0. -1.
          2    1    1    2  501    0 -0.75333591140E+02 -0.33299107278E+02 -0.35167921873E+03  0.36119558883E+03  0.00000000000E+00 0. -1.
<scales pt_clust_5="13000.00000" pt_clust_6="13000.00000" pt_clust_7="13000.00000" pt_clust_8="13000.00000" pt_clust_9="82.36496"></scales>
<clustering>
<clus scale="   82.365">  1  9  2 -1</clus>
<clus scale="   83.959">  5  6 -1 -1</clus>
<clus scale="   91.081">  7  8 -1 -1</clus>
<clus scale="  196.733">  1  5  2 -1</clus>
<clus scale="   82.365">  1  5  2 -1</clus>
</clustering>
</event>
<event>
 9    1  0.7586638E-005  0.4131827E+03  0.7546771E-02  0.1092408E+00
          1   -1    0    0  502    0 -0.00000000000E+00  0.00000000000E+00  0.86463606738E+03  0.86463606738E+03  0.00000000000E+00 0. -1.
         21   -1    0    0  501  502  0.00000000000E+00 -0.00000000000E+00 -0.59548862357E+03  0.59548862357E+03  0.00000000000E+00 0. -1.
         23    2    1    2    0    0 -0.76882309014E+01  0.24966919333E+02 -0.29454946788E+02  0.99433918026E+02  0.91307470715E+02 0.  0.
        -24    2    1    2    0    0  0.35849651377E+03  0.17928510724E+03  0.68665223343E+03  0.79911440036E+03  0.80185005581E+02 0.  0.
         13    1    4    4    0    0  0.34315583614E+03  0.18247180770E+03  0.62913847919E+03  0.73950464129E+03  0.00000000000E+00 0. -1.
        -14    1    4    4    0    0  0.15340677630E+02 -0.31867004616E+01  0.57513754239E+02  0.59609759072E+02  0.00000000000E+00 0.  1.
        -11    1    3    3    0    0  0.33897135224E+02 -0.13823896829E+01  0.11052836128E+02  0.35680414293E+02  0.00000000000E+00 0. -1.
         11    1    3    3    0    0 -0.41585366126E+02  0.26349309016E+02 -0.40507782915E+02  0.63753503733E+02  0.00000000000E+00 0.  1.
          2    1    1    2  501    0 -0.35080828287E+03 -0.20425202658E+03 -0.38804984284E+03  0.56157637256E+03  0.00000000000E+00 0. -1.
<scales pt_clust_5="13000.00000" pt_clust_6="13000.00000" pt_clust_7="13000.00000" pt_clust_8="13000.00000" pt_clust_9="405.32742"></scales>
<clustering>
<clus scale="   80.185">  5  6 -1 -1</clus>
<clus scale="   91.307">  7  8 -1 -1</clus>
<clus scale="   94.971">  1  7  2 -1</clus>
<clus scale="  405.327">  2  9  1 -1</clus>
<clus scale="  405.327">  2  5  1 -1</clus>
</clustering>
</event>
<event>
 9    1  0.7586638E-005  0.1198703E+03  0.7546771E-02  0.1252950E+00
         21   -1    0    0  501  502  0.00000000000E+00  0.00000000000E+00  0.41868822715E+02  0.41868822715E+02  0.00000000000E+00 0.  1.
          1   -1    0    0  502    0 -0.00000000000E+00 -0.00000000000E+00 -0.10788785493E+04  0.10788785493E+04  0.00000000000E+00 0. -1.
         23    2    1    2    0    0 -0.30862450469E+02  0.16562329799E+02 -0.24951530628E+03  0.26836961436E+03  0.92398918972E+02 0.  0.
        -24    2    1    2    0    0 -0.30404487383E+02  0.81214336537E+02 -0.95730709738E+02  0.15105689998E+03  0.78317411421E+02 0.  0.
         13    1    4    4    0    0 -0.37817809142E+02  0.44283562097E+02 -0.97257029415E+02  0.11335850357E+03  0.00000000000E+00 0. -1.
        -14    1    4    4    0    0  0.74133217588E+01  0.36930774440E+02  0.15263196762E+01  0.37698396411E+02  0.00000000000E+00 0.  1.
        -13    1    3    3    0    0  0.29750610202E+02 -0.66260073348E+00 -0.41827131661E+02  0.51332706826E+02  0.00000000000E+00 0. -1.
         13    1    3    3    0    0 -0.60613060671E+02  0.17224930532E+02 -0.20768817462E+03  0.21703690753E+03  0.00000000000E+00 0.  1.
          2    1    1    2  501    0  0.61266937853E+02 -0.97776666336E+02 -0.69176371060E+03  0.70132085771E+03  0.00000000000E+00 0. -1.
<scales pt_clust_5="13000.00000" pt_clust_6="13000.00000" pt_clust_7="13000.00000" pt_clust_8="13000.00000" pt_clust_9="90.74843"></scales>
<clustering>
<clus scale="   78.317">  5  6 -1 -1</clus>
<clus scale="   92.399">  7  8 -1 -1</clus>
<clus scale="   98.815">  2  7  1 -1</clus>
<clus scale="   90.748">  1  9  2 -1</clus>
<clus scale="   90.748">  1  5  2 -1</clus>
</clustering>
</event>
<event>
 9    1  0.7586638E-005  0.1749365E+03  0.7546771E-02  0.1193878E+00
         21   -1    0    0  501  502  0.00000000000E+00  0.00000000000E+00  0.93227552311E+02  0.93227552311E+02  0.00000000000E+00 0.  1.
          1   -1    0    0  502    0 -0.00000000000E+00 -0.00000000000E+00 -0.80324264088E+03  0.80324264088E+03  0.00000000000E+00 0. -1.
         23    2    1    2    0    0  0.60251206068E+02 -0.27184903721E+01 -0.33668921480E+02  0.11427402175E+03  0.91034925991E+02 0.  0.
        -24    2    1    2    0    0  0.19531170309E+02 -0.15175968309E+03 -0.15076636643E+03  0.22860529316E+03  0.78213904053E+02 0.  0.
         13    1    4    4    0    0  0.18291772174E+02 -0.12317583741E+03 -0.15590940791E+03  0.19953601010E+03  0.00000000000E+00 0. -1.
        -14    1    4    4    0    0  0.12393981351E+01 -0.28583845685E+02  0.51430414832E+01  0.29069283060E+02  0.00000000000E+00 0.  1.
        -13    1    3    3    0    0 -0.11263457130E+02  0.25546060506E+02 -0.23913151460E+02  0.36760107272E+02  0.00000000000E+00 0. -1.
         13    1    3    3    0    0  0.71514663197E+02 -0.28264550878E+02 -0.97557700200E+01  0.77513914475E+02  0.00000000000E+00 0.  1.
          2    1    1    2  501    0 -0.79782376376E+02  0.15447817347E+03 -0.52557980066E+03  0.55359087828E+03  0.00000000000E+00 0. -1.
<scales pt_clust_5="13000.00000" pt_clust_6="13000.00000" pt_clust_7="13000.00000" pt_clust_8="13000.00000" pt_clust_9="156.47802"></scales>
<clustering>
<clus scale="   78.214">  5  6 -1 -1</clus>
<clus scale="   91.035">  7  8 -1 -1</clus>
<clus scale="  109.202">  2  7  1 -1</clus>
<clus scale="  156.478">  1  9  2 -1</clus>
<clus scale="  156.478">  1  5  2 -1</clus>
</clustering>
</event>
<event>
 9    1  0.7586638E-005  0.1014210E+03  0.7546771E-02  0.1283842E+00
         21   -1    0    0  501  502  0.00000000000E+00  0.00000000000E+00  0.15060833026E+03  0.15060833026E+03  0.00000000000E+00 0. -1.
          1   -1    0    0  502    0 -0.00000000000E+00 -0.00000000000E+00 -0.18532714616E+03  0.18532714616E+03  0.00000000000E+00 0. -1.
         23    2    1    2    0    0 -0.45377093066E+02 -0.33022882443E+02 -0.12502205747E+03  0.16435637301E+03  0.90735390869E+02 0.  0.
        -24    2    1    2    0    0  0.15597985421E+02  0.15037129841E+02  0.61677105230E+01  0.80534772814E+02  0.77320091542E+02 0.  0.
         13    1    4    4    0    0 -0.30163250157E+02  0.10286782092E+02 -0.71047111128E+01  0.32651438955E+02  0.00000000000E+00 0. -1.
        -14    1    4    4    0    0  0.45761235578E+02  0.47503477492E+01  0.13272421636E+02  0.47883333859E+02  0.00000000000E+00 0.  1.
        -11    1    3    3    0    0 -0.32801305684E+02 -0.48663582766E+02 -0.27534648516E+02  0.64824584928E+02  0.00000000000E+00 0.  1.
         11    1    3    3    0    0 -0.12575787382E+02  0.15640700323E+02 -0.97487408955E+02  0.99531788086E+02  0.00000000000E+00 0. -1.
          2    1    1    2  501    0  0.29779107645E+02  0.17985752601E+02  0.84135531047E+02  0.91044330594E+02  0.00000000000E+00 0. -1.
<scales pt_clust_5="13000.00000" pt_clust_6="13000.00000" pt_clust_7="13000.00000" pt_clust_8="13000.00000" pt_clust_9="34.78912"></scales>
<clustering>
<clus scale="   34.789">  1  9  2 -1</clus>
<clus scale="   77.320">  5  6 -1 -1</clus>
<clus scale="   89.620">  1  5  2 -1</clus>
<clus scale="   90.735">  7  8 -1 -1</clus>
<clus scale="   34.789">  1  5  2 -1</clus>
</clustering>
</event>
<event>
 9    1  0.7586638E-005  0.4088032E+03  0.7546771E-02  0.1040773E+00
          1   -1    0    0  502    0 -0.00000000000E+00  0.00000000000E+00  0.58927022507E+03  0.58927022507E+03  0.00000000000E+00 0. -1.
         21   -1    0    0  501  502  0.00000000000E+00 -0.00000000000E+00 -0.28789056339E+03  0.28789056339E+03  0.00000000000E+00 0. -1.
        -24    2    1    2    0    0  0.18463264363E+03  0.11454832428E+03  0.21573961556E+03  0.31649958042E+03  0.80111615853E+02 0.  0.
         23    2    1    2    0    0  0.15032563672E+03 -0.18757956960E+02  0.11736710371E+03  0.21083346438E+03  0.87897978732E+02 0.  0.
         13    1    3    3    0    0  0.13384154515E+03  0.10528340063E+03  0.19967758803E+03  0.26242959593E+03  0.00000000000E+00 0. -1.
        -14    1    3    3    0    0  0.50791098476E+02  0.92649236461E+01  0.16062027534E+02  0.54069984493E+02  0.00000000000E+00 0.  1.
        -13    1    4    4    0    0  0.63274737523E+02  0.33045961695E+02  0.31449053549E+02  0.78004941908E+02  0.00000000000E+00 0.  1.
         13    1    4    4    0    0  0.87050899198E+02 -0.51803918655E+02  0.85918050157E+02  0.13282852247E+03  0.00000000000E+00 0. -1.
          2    1    1    2  501    0 -0.33495828035E+03 -0.95790367321E+02 -0.31727057590E+02  0.34982774365E+03  0.00000000000E+00 0. -1.
<scales pt_clust_5="13000.00000" pt_clust_6="13000.00000" pt_clust_7="13000.00000" pt_clust_8="13000.00000" pt_clust_9="348.38606"></scales>
<clustering>
<clus scale="   80.112">  5  6 -1 -1</clus>
<clus scale="   87.898">  7  8 -1 -1</clus>
<clus scale="  136.999">  5  7 -1 -1</clus>
<clus scale="  348.386">  2  9  1 -1</clus>
<clus scale="  348.386">  2  5  1 -1</clus>
</clustering>
</event>
<event>
 9    1  0.7586638E-005  0.1338019E+03  0.7546771E-02  0.1224666E+00
         21   -1    0    0  501  502  0.00000000000E+00  0.00000000000E+00  0.24917183928E+03  0.24917183928E+03  0.00000000000E+00 0.  1.
          1   -1    0    0  502    0 -0.00000000000E+00 -0.00000000000E+00 -0.19310302279E+03  0.19310302279E+03  0.00000000000E+00 0. -1.
         23    2    1    2    0    0 -0.12243683152E+03  0.17011880887E+02  0.53347094613E+02  0.16304900301E+03  0.91972186414E+02 0.  0.
        -24    2    1    2    0    0  0.39389337681E+02 -0.89963060613E+02  0.74564346649E+02  0.14739216235E+03  0.80744879297E+02 0.  0.
         13    1    4    4    0    0  0.39093815832E+02 -0.19872699475E+01  0.21772411260E+02  0.44791891791E+02  0.00000000000E+00 0. -1.
        -14    1    4    4    0    0  0.29552184980E+00 -0.87975790665E+02  0.52791935388E+02  0.10260027056E+03  0.00000000000E+00 0.  1.
        -13    1    3    3    0    0 -0.63146149681E+02  0.32592396680E+02  0.69766612285E+02  0.99584540621E+02  0.00000000000E+00 0.  1.
         13    1    3    3    0    0 -0.59290681838E+02 -0.15580515793E+02 -0.16419517672E+02  0.63464462385E+02  0.00000000000E+00 0. -1.
          2    1    1    2  501    0  0.83047493838E+02  0.72951179726E+02 -0.71842624769E+02  0.13183369672E+03  0.00000000000E+00 0. -1.
<scales pt_clust_5="13000.00000" pt_clust_6="13000.00000" pt_clust_7="13000.00000" pt_clust_8="13000.00000" pt_clust_9="110.53856"></scales>
<clustering>
<clus scale="   80.745">  5  6 -1 -1</clus>
<clus scale="   91.972">  7  8 -1 -1</clus>
<clus scale="  110.539">  1  9  2 -1</clus>
<clus scale="  126.348">  1  5  2 -1</clus>
<clus scale="  110.539">  1  5  2 -1</clus>
</clustering>
</event>
<event>
 9    1  0.7586638E-005  0.2430810E+03  0.7546771E-02  0.1154368E+00
          1   -1    0    0  502    0 -0.00000000000E+00  0.00000000000E+00  0.31952215669E+03  0.31952215669E+03  0.00000000000E+00 0. -1.
         21   -1    0    0  501  502  0.00000000000E+00 -0.00000000000E+00 -0.54047987219E+03  0.54047987219E+03  0.00000000000E+00 0. -1.
        -24    2    1    2    0    0  0.22745188191E+02 -0.53363441480E+02 -0.76230287352E+01  0.10015308776E+03  0.81286714466E+02 0.  0.
         23    2    1    2    0    0  0.13635236021E+03  0.18431625174E+03 -0.40782671138E+03  0.47649789373E+03  0.90350259676E+02 0.  0.
         13    1    3    3    0    0  0.17917384761E+02 -0.11066335773E+02  0.34399992147E+02  0.40334302074E+02  0.00000000000E+00 0. -1.
        -14    1    3    3    0    0  0.48278034303E+01 -0.42297105707E+02 -0.42023020882E+02  0.59818785688E+02  0.00000000000E+00 0.  1.
        -13    1    4    4    0    0  0.10993914803E+03  0.80673231116E+02 -0.26540916245E+03  0.29839036513E+03  0.00000000000E+00 0. -1.
         13    1    4    4    0    0  0.26413212178E+02  0.10364302062E+03 -0.14241754892E+03  0.17810752859E+03  0.00000000000E+00 0.  1.
          2    1    1    2  501    0 -0.15909754840E+03 -0.13095281026E+03  0.19449202461E+03  0.28335104739E+03  0.00000000000E+00 0. -1.
<scales pt_clust_5="13000.00000" pt_clust_6="13000.00000" pt_clust_7="13000.00000" pt_clust_8="13000.00000" pt_clust_9="225.66620"></scales>
<clustering>
<clus scale="   81.287">  5  6 -1 -1</clus>
<clus scale="   90.350">  7  8 -1 -1</clus>
<clus scale="   99.863">  1  5  2 -1</clus>
<clus scale="  225.666">  2  9  1 -1</clus>
<clus scale="  225.666">  2  5  1 -1</clus>
</clustering>
</event>
<event>
 9    1  0.7586638E-005  0.2661077E+03  0.7546771E-02  0.1128336E+00
          1   -1    0    0  502    0 -0.00000000000E+00  0.00000000000E+00  0.23691136317E+04  0.23691136317E+04  0.00000000000E+00 0. -1.
         21   -1    0    0  501  502  0.00000000000E+00 -0.00000000000E+00 -0.69671001703E+02  0.69671001703E+02  0.00000000000E+00 0. -1.
         23    2    1    2    0    0 -0.10961129365E+03  0.26050311876E+02  0.10536237760E+03  0.17715453695E+03  0.87116272330E+02 0.  0.
        -24    2    1    2    0    0  0.31913857548E+03  0.31687052902E+02  0.13927176103E+04  0.14313184867E+04  0.78465079392E+02 0.  0.
         11    1    4    4    0    0  0.28053028971E+03  0.94475124150E+00  0.11623938226E+04  0.11957665051E+04  0.00000000000E+00 0. -1.
        -12    1    4    4    0    0  0.38608285772E+02  0.30742301661E+02  0.23032378773E+03  0.23555198161E+03  0.00000000000E+00 0.  1.
        -13    1    3    3    0    0 -0.52451818890E+02 -0.27510884046E+02  0.23131316630E+02  0.63585374536E+02  0.00000000000E+00 0. -1.
         13    1    3    3    0    0 -0.57159474756E+02  0.53561195922E+02  0.82231060974E+02  0.11356916242E+03  0.00000000000E+00 0.  1.
          2    1    1    2  501    0 -0.20952728183E+03 -0.57737364778E+02  0.80136264204E+03  0.83031160968E+03  0.00000000000E+00 0. -1.
<scales pt_clust_5="13000.00000" pt_clust_6="13000.00000" pt_clust_7="13000.00000" pt_clust_8="13000.00000" pt_clust_9="254.27647"></scales>
<clustering>
<clus scale="   78.465">  5  6 -1 -1</clus>
<clus scale="   87.116">  7  8 -1 -1</clus>
<clus scale="  142.417">  1  7  2 -1</clus>
<clus scale="  254.276">  2  9  1 -1</clus>
<clus scale="  254.276">  2  5  1 -1</clus>
</clustering>
</event>
<event>
 9    1  0.7586638E-005  0.9744910E+02  0.7546771E-02  0.1290891E+00
         21   -1    0    0  501  502  0.00000000000E+00  0.00000000000E+00  0.46521499316E+03  0.46521499316E+03  0.00000000000E+00 0. -1.
          1   -1    0    0  502    0 -0.00000000000E+00 -0.00000000000E+00 -0.11283697407E+03  0.11283697407E+03  0.00000000000E+00 0. -1.
        -24    2    1    2    0    0 -0.26681451226E+02  0.25214581438E+02 -0.60157756138E+02  0.10727942171E+03  0.80884137764E+02 0.  0.
         23    2    1    2    0    0 -0.27135867424E+02 -0.56596085710E+02  0.38877469618E+03  0.40409652678E+03  0.90602242531E+02 0.  0.
         11    1    3    3    0    0 -0.47093680305E+02 -0.91884925008E+01 -0.25422738367E+02  0.54300633009E+02  0.00000000000E+00 0. -1.
        -12    1    3    3    0    0  0.20412229079E+02  0.34403073939E+02 -0.34735017771E+02  0.52978788699E+02  0.00000000000E+00 0.  1.
        -11    1    4    4    0    0  0.33234450562E+02 -0.24793166235E+02  0.16642171336E+03  0.17150923145E+03  0.00000000000E+00 0.  1.
         11    1    4    4    0    0 -0.60370317986E+02 -0.31802919476E+02  0.22235298282E+03  0.23258729533E+03  0.00000000000E+00 0. -1.
          2    1    1    2  501    0  0.53817318651E+02  0.31381504272E+02  0.23761079049E+02  0.66676018737E+02  0.00000000000E+00 0. -1.
<scales pt_clust_5="13000.00000" pt_clust_6="13000.00000" pt_clust_7="13000.00000" pt_clust_8="13000.00000" pt_clust_9="62.29853"></scales>
<clustering>
<clus scale="   62.299">  1  9  2 -1</clus>
<clus scale="   80.884">  5  6 -1 -1</clus>
<clus scale="   88.486">  2  5  1 -1</clus>
<clus scale="   90.602">  7  8 -1 -1</clus>
<clus scale="   62.299">  1  5  2 -1</clus>
</clustering>
</event>
<event>
 9    1  0.7586638E-005  0.1526089E+03  0.7546771E-02  0.1220590E+00
         21   -1    0    0  501  502  0.00000000000E+00  0.00000000000E+00  0.46060834782E+02  0.46060834782E+02  0.00000000000E+00 0.  1.
          1   -1    0    0  502    0 -0.00000000000E+00 -0.00000000000E+00 -0.87690276794E+03  0.87690276794E+03  0.00000000000E+00 0. -1.
        -24    2    1    2    0    0  0.20822606867E+02  0.39568865120E+02 -0.22230349009E+03  0.24086833011E+03  0.81236904790E+02 0.  0.
         23    2    1    2    0    0  0.10605393320E+03  0.28203335793E+02 -0.18512333150E+03  0.23491400697E+03  0.94186399807E+02 0.  0.
         11    1    3    3    0    0 -0.49314807175E+01 -0.23443760504E+02 -0.45679970972E+02  0.51580899146E+02  0.00000000000E+00 0. -1.
        -12    1    3    3    0    0  0.25754087585E+02  0.63012625624E+02 -0.17662351911E+03  0.18928743096E+03  0.00000000000E+00 0.  1.
        -11    1    4    4    0    0  0.60583896445E+02  0.19629853178E+02 -0.17677376103E+03  0.18789545559E+03  0.00000000000E+00 0. -1.
         11    1    4    4    0    0  0.45470036755E+02  0.85734826146E+01 -0.83495704719E+01  0.47018551379E+02  0.00000000000E+00 0.  1.
          2    1    1    2  501    0 -0.12687654007E+03 -0.67772200912E+02 -0.42341511157E+03  0.44718126564E+03  0.00000000000E+00 0. -1.
<scales pt_clust_5="13000.00000" pt_clust_6="13000.00000" pt_clust_7="13000.00000" pt_clust_8="13000.00000" pt_clust_9="120.07674"></scales>
<clustering>
<clus scale="   81.237">  5  6 -1 -1</clus>
<clus scale="   92.729">  2  5  1 -1</clus>
<clus scale="   94.186">  7  8 -1 -1</clus>
<clus scale="  120.077">  1  9  2 -1</clus>
<clus scale="  120.077">  1  5  2 -1</clus>
</clustering>
</event>
<event>
 9    1  0.7586638E-005  0.1119535E+03  0.7546771E-02  0.1260569E+00
         21   -1    0    0  501  502  0.00000000000E+00  0.00000000000E+00  0.61144024064E+02  0.61144024064E+02  0.00000000000E+00 0. -1.
          1   -1    0    0  502    0 -0.00000000000E+00 -0.00000000000E+00 -0.10014382466E+04  0.10014382466E+04  0.00000000000E+00 0. -1.
        -24    2    1    2    0    0 -0.68111284840E+02  0.22186684169E+00 -0.67522155060E+03  0.68325184323E+03  0.79181705823E+02 0.  0.
         23    2    1    2    0    0  0.65033377422E+02 -0.36037708253E+02 -0.42317551777E+01  0.11602408139E+03  0.88969787656E+02 0.  0.
         13    1    3    3    0    0 -0.30956966273E+01  0.24925569357E+02 -0.76817685640E+02  0.80819701635E+02  0.00000000000E+00 0. -1.
        -14    1    3    3    0    0 -0.65015588212E+02 -0.24703702516E+02 -0.59840386496E+03  0.60243214159E+03  0.00000000000E+00 0.  1.
        -13    1    4    4    0    0  0.35918814734E+00  0.23146258994E+02 -0.15170824789E+02  0.27677287553E+02  0.00000000000E+00 0.  1.
         13    1    4    4    0    0  0.64674189275E+02 -0.59183967247E+02  0.10939069611E+02  0.88346793838E+02  0.00000000000E+00 0. -1.
          2    1    1    2  501    0  0.30779074174E+01  0.35815841411E+02 -0.26084091677E+03  0.26330634605E+03  0.00000000000E+00 0. -1.
<scales pt_clust_5="13000.00000" pt_clust_6="13000.00000" pt_clust_7="13000.00000" pt_clust_8="13000.00000" pt_clust_9="35.94787"></scales>
<clustering>
<clus scale="   35.948">  1  9  2 -1</clus>
<clus scale="   79.182">  5  6 -1 -1</clus>
<clus scale="   88.970">  7  8 -1 -1</clus>
<clus scale="  104.344">  2  5  1 -1</clus>
<clus scale="   35.948">  1  5  2 -1</clus>
</clustering>
</event>
<event>
 9    1  0.7586638E-005  0.1467449E+03  0.7546771E-02  0.1230488E+00
          1   -1    0    0  502    0 -0.00000000000E+00  0.00000000000E+00  0.23874304681E+03  0.23874304681E+03  0.00000000000E+00 0. -1.
         21   -1    0    0  501  502  0.00000000000E+00 -0.00000000000E+00 -0.14195354843E+03  0.14195354843E+03  0.00000000000E+00 0. -1.
         23    2    1    2    0    0 -0.11048245984E+02  0.25462247420E+02 -0.17550405993E+02  0.86683210730E+02  0.80222019976E+02 0.  0.
        -24    2    1    2    0    0  0.81768076478E+02 -0.11082698401E+03  0.62673691718E+02  0.17171117599E+03  0.81167096847E+02 0.  0.
         13    1    4    4    0    0  0.95568089714E+02 -0.10789041626E+03  0.63669352997E+02  0.15756709112E+03  0.00000000000E+00 0. -1.
        -14    1    4    4    0    0 -0.13800013236E+02 -0.29365677503E+01 -0.99566127866E+00  0.14144084872E+02  0.00000000000E+00 0.  1.
        -11    1    3    3    0    0 -0.31183255534E+02 -0.18541151172E+02 -0.44568060258E+01  0.36551782890E+02  0.00000000000E+00 0.  1.
         11    1    3    3    0    0  0.20135009550E+02  0.44003398592E+02 -0.13093599967E+02  0.50131427840E+02  0.00000000000E+00 0. -1.
          2    1    1    2  501    0 -0.70719830494E+02  0.85364736590E+02  0.51666212656E+02  0.12230220852E+03  0.00000000000E+00 0. -1.
<scales pt_clust_5="13000.00000" pt_clust_6="13000.00000" pt_clust_7="13000.00000" pt_clust_8="13000.00000" pt_clust_9="122.25376"></scales>
<clustering>
<clus scale="   80.222">  7  8 -1 -1</clus>
<clus scale="   81.167">  5  6 -1 -1</clus>
<clus scale="   84.888">  1  7  2 -1</clus>
<clus scale="  122.254">  2  9  1 -1</clus>
<clus scale="  122.254">  2  5  1 -1</clus>
</clustering>
</event>
<event>
 9    1  0.7586638E-005  0.1099767E+03  0.7546771E-02  0.1263195E+00
         -2   -1    0    0    0  501 -0.00000000000E+00  0.00000000000E+00  0.27822319981E+03  0.27822319981E+03  0.00000000000E+00 0.  1.
         21   -1    0    0  501  502  0.00000000000E+00 -0.00000000000E+00 -0.23826083456E+03  0.23826083456E+03  0.00000000000E+00 0.  1.
        -24    2    1    2    0    0  0.47906445737E+02  0.38709956813E+02  0.24060455333E+03  0.26212444052E+03  0.83816364344E+02 0.  0.
         23    2    1    2    0    0 -0.45413384522E+02 -0.61327161337E+02 -0.11242201409E+03  0.16325222645E+03  0.90494110180E+02 0.  0.
         13    1    3    3    0    0  0.44979233438E+02 -0.13053073411E+02  0.15618067633E+03  0.16305188691E+03  0.00000000000E+00 0. -1.
        -14    1    3    3    0    0  0.29272122981E+01  0.51763030224E+02  0.84423877005E+02  0.99072553608E+02  0.00000000000E+00 0.  1.
        -13    1    4    4    0    0  0.31774914670E+01 -0.19872822385E+02 -0.94914921826E+02  0.97025089059E+02  0.00000000000E+00 0. -1.
         13    1    4    4    0    0 -0.48590875989E+02 -0.41454338952E+02 -0.17507092261E+02  0.66227137389E+02  0.00000000000E+00 0.  1.
         -1    1    1    2    0  502 -0.24930612148E+01  0.22617204523E+02 -0.88220173998E+02  0.91107367402E+02  0.00000000000E+00 0.  1.
<scales pt_clust_5="13000.00000" pt_clust_6="13000.00000" pt_clust_7="13000.00000" pt_clust_8="13000.00000" pt_clust_9="22.75419"></scales>
<clustering>
<clus scale="   22.754">  2  9  1 -1</clus>
<clus scale="   83.816">  5  6 -1 -1</clus>
<clus scale="   90.494">  7  8 -1 -1</clus>
<clus scale="  104.551">  1  5  2 -1</clus>
<clus scale="   22.754">  2  5  1 -1</clus>
</clustering>
</event>
<event>
 9    1  0.7586638E-005  0.1417155E+03  0.7546771E-02  0.1213788E+00
          1   -1    0    0  502    0 -0.00000000000E+00  0.00000000000E+00  0.76143929948E+03  0.76143929948E+03  0.00000000000E+00 0. -1.
         21   -1    0    0  501  502  0.00000000000E+00 -0.00000000000E+00 -0.63042468819E+02  0.63042468819E+02  0.00000000000E+00 0. -1.
         23    2    1    2    0    0  0.10806852743E+03 -0.39652324474E+02  0.42360334972E+03  0.44915117437E+03  0.95109758124E+02 0.  0.
        -24    2    1    2    0    0 -0.93596505677E+02  0.20218882725E+02  0.30872751319E+03  0.33363387205E+03  0.82642447253E+02 0.  0.
         13    1    4    4    0    0 -0.13213871814E+02  0.41277378919E+02  0.10138994847E+03  0.11026490861E+03  0.00000000000E+00 0. -1.
        -14    1    4    4    0    0 -0.80382633863E+02 -0.21058496194E+02  0.20733756472E+03  0.22336896345E+03  0.00000000000E+00 0.  1.
        -13    1    3    3    0    0  0.34309602739E+02  0.30864952252E+02  0.10757361885E+03  0.11705501950E+03  0.00000000000E+00 0.  1.
         13    1    3    3    0    0  0.73758924688E+02 -0.70517276726E+02  0.31602973087E+03  0.33209615487E+03  0.00000000000E+00 0. -1.
          2    1    1    2  501    0 -0.14472021750E+02  0.19433441749E+02 -0.33934032238E+02  0.41696721881E+02  0.00000000000E+00 0. -1.
<scales pt_clust_5="13000.00000" pt_clust_6="13000.00000" pt_clust_7="13000.00000" pt_clust_8="13000.00000" pt_clust_9="24.23011"></scales>
<clustering>
<clus scale="   24.230">  2  9  1 -1</clus>
<clus scale="   82.642">  5  6 -1 -1</clus>
<clus scale="   95.110">  7  8 -1 -1</clus>
<clus scale="  133.668">  2  5  1 -1</clus>
<clus scale="   24.230">  2  5  1 -1</clus>
</clustering>
</event>
<event>
 9    1  0.7586638E-005  0.1324497E+03  0.7546771E-02  0.1225853E+00
         21   -1    0    0  501  502  0.00000000000E+00  0.00000000000E+00  0.19672189906E+03  0.19672189906E+03  0.00000000000E+00 0.  1.
          1   -1    0    0  502    0 -0.00000000000E+00 -0.00000000000E+00 -0.21096637336E+03  0.21096637336E+03  0.00000000000E+00 0. -1.
         23    2    1    2    0    0 -0.76961576225E+02 -0.64610809137E+02 -0.86061288144E+01  0.13608296526E+03  0.91361190378E+02 0.  0.
        -24    2    1    2    0    0 -0.10992984574E+02  0.11930481943E+03  0.49669722422E+02  0.15418971236E+03  0.83384053771E+02 0.  0.
         13    1    4    4    0    0  0.32942025741E+02  0.51551408400E+02  0.39449135560E+02  0.72793949367E+02  0.00000000000E+00 0. -1.
        -14    1    4    4    0    0 -0.43935010315E+02  0.67753411028E+02  0.10220586861E+02  0.81395762992E+02  0.00000000000E+00 0.  1.
        -13    1    3    3    0    0 -0.39288569807E+02  0.59611540862E+00  0.31864867242E+02  0.50589690999E+02  0.00000000000E+00 0.  1.
         13    1    3    3    0    0 -0.37673006418E+02 -0.65206924546E+02 -0.40470996056E+02  0.85493274257E+02  0.00000000000E+00 0. -1.
          2    1    1    2  501    0  0.87954560799E+02 -0.54694010291E+02 -0.55308067909E+02  0.11741559480E+03  0.00000000000E+00 0. -1.
<scales pt_clust_5="13000.00000" pt_clust_6="13000.00000" pt_clust_7="13000.00000" pt_clust_8="13000.00000" pt_clust_9="103.57341"></scales>
<clustering>
<clus scale="   83.384">  5  6 -1 -1</clus>
<clus scale="   91.361">  7  8 -1 -1</clus>
<clus scale="  103.573">  1  9  2 -1</clus>
<clus scale="  127.079">  1  5  2 -1</clus>
<clus scale="  103.573">  1  5  2 -1</clus>
</clustering>
</event>
<event>
 9    1  0.7586638E-005  0.1050758E+03  0.7546771E-02  0.1275019E+00
         -2   -1    0    0    0  501 -0.00000000000E+00  0.00000000000E+00  0.20804496009E+03  0.20804496009E+03  0.00000000000E+00 0.  1.
         21   -1    0    0  501  502  0.00000000000E+00 -0.00000000000E+00 -0.18720317134E+03  0.18720317134E+03  0.00000000000E+00 0. -1.
         23    2    1    2    0    0  0.12288819348E+02 -0.52777660078E+02  0.17168429044E+03  0.20192191903E+03  0.91435602014E+02 0.  0.
        -24    2    1    2    0    0  0.12331597873E+02  0.32934955116E+02 -0.12467826096E+03  0.15228397345E+03  0.80055981916E+02 0.  0.
         11    1    4    4    0    0  0.32059520855E+02  0.35505346409E+02 -0.32141131145E+02  0.57632411127E+02  0.00000000000E+00 0. -1.
        -12    1    4    4    0    0 -0.19727922983E+02 -0.25703912926E+01 -0.92537129814E+02  0.94651562327E+02  0.00000000000E+00 0.  1.
        -13    1    3    3    0    0  0.31028330795E+02 -0.69015370571E+02  0.15361462697E+03  0.17124056851E+03  0.00000000000E+00 0.  1.
         13    1    3    3    0    0 -0.18739511447E+02  0.16237710493E+02  0.18069663476E+02  0.30681350516E+02  0.00000000000E+00 0. -1.
         -1    1    1    2    0  502 -0.24620417220E+02  0.19842704962E+02 -0.26164240732E+02  0.41042238942E+02  0.00000000000E+00 0.  1.
<scales pt_clust_5="13000.00000" pt_clust_6="13000.00000" pt_clust_7="13000.00000" pt_clust_8="13000.00000" pt_clust_9="31.62116"></scales>
<clustering>
<clus scale="   31.621">  2  9  1 -1</clus>
<clus scale="   80.056">  5  6 -1 -1</clus>
<clus scale="   91.436">  7  8 -1 -1</clus>
<clus scale="   95.338">  2  5  1 -1</clus>
<clus scale="   31.621">  2  5  1 -1</clus>
</clustering>
</event>
<event>
 9    1  0.7586638E-005  0.1487928E+03  0.7546771E-02  0.1225251E+00
         -2   -1    0    0    0  501 -0.00000000000E+00  0.00000000000E+00  0.19541828426E+03  0.19541828426E+03  0.00000000000E+00 0.  1.
         21   -1    0    0  501  502  0.00000000000E+00 -0.00000000000E+00 -0.26563120078E+03  0.26563120078E+03  0.00000000000E+00 0.  1.
         23    2    1    2    0    0  0.11907244653E+00 -0.12821247822E+00  0.59549465742E+02  0.10855574830E+03  0.90764425857E+02 0.  0.
        -24    2    1    2    0    0  0.25137683125E+02 -0.12200234588E+03 -0.16572409881E+03  0.22269765805E+03  0.81322164638E+02 0.  0.
         11    1    4    4    0    0  0.28773818890E+02 -0.78257597704E+02 -0.46102652287E+02  0.95276643517E+02  0.00000000000E+00 0. -1.
        -12    1    4    4    0    0 -0.36361357649E+01 -0.43744748173E+02 -0.11962144652E+03  0.12742101453E+03  0.00000000000E+00 0.  1.
        -13    1    3    3    0    0 -0.23558735253E+02  0.75897223520E+01  0.75182366312E+02  0.79151791492E+02  0.00000000000E+00 0.  1.
         13    1    3    3    0    0  0.23677807699E+02 -0.77179348302E+01 -0.15632900570E+02  0.29403956804E+02  0.00000000000E+00 0. -1.
         -1    1    1    2    0  502 -0.25256755572E+02  0.12213055836E+03  0.35961716552E+02  0.12979607869E+03  0.00000000000E+00 0.  1.
<scales pt_clust_5="13000.00000" pt_clust_6="13000.00000" pt_clust_7="13000.00000" pt_clust_8="13000.00000" pt_clust_9="124.60348"></scales>
<clustering>
<clus scale="   81.322">  5  6 -1 -1</clus>
<clus scale="   90.764">  7  8 -1 -1</clus>
<clus scale="   90.765">  1  7  2 -1</clus>
<clus scale="  124.603">  2  9  1 -1</clus>
<clus scale="  124.603">  2  5  1 -1</clus>
</clustering>
</event>
<event>
 9    1  0.7586638E-005  0.1073338E+03  0.7546771E-02  0.1270002E+00
         21   -1    0    0  501  502  0.00000000000E+00  0.00000000000E+00  0.15142022053E+03  0.15142022053E+03  0.00000000000E+00 0. -1.
          1   -1    0    0  502    0 -0.00000000000E+00 -0.00000000000E+00 -0.47027561122E+03  0.47027561122E+03  0.00000000000E+00 0. -1.
         23    2    1    2    0    0  0.59958237118E+02 -0.18627980829E+02 -0.37968750262E+03  0.39545550024E+03  0.90997039279E+02 0.  0.
        -24    2    1    2    0    0 -0.41208999219E+02 -0.73303619904E+01 -0.55018811113E+02  0.10604546534E+03  0.80415516655E+02 0.  0.
         13    1    4    4    0    0 -0.43096264939E+02 -0.38699215424E+02 -0.26847210593E+02  0.63841131277E+02  0.00000000000E+00 0. -1.
        -14    1    4    4    0    0  0.18872657196E+01  0.31368853434E+02 -0.28171600520E+02  0.42204334061E+02  0.00000000000E+00 0.  1.
        -11    1    3    3    0    0  0.83613447398E+02 -0.15820828095E+02 -0.32172427247E+03  0.33278824301E+03  0.00000000000E+00 0. -1.
         11    1    3    3    0    0 -0.23655210280E+02 -0.28071527340E+01 -0.57963230149E+02  0.62667257234E+02  0.00000000000E+00 0.  1.
          2    1    1    2  501    0 -0.18749237898E+02  0.25958342820E+02  0.11585092304E+03  0.12019486617E+03  0.00000000000E+00 0. -1.
<scales pt_clust_5="13000.00000" pt_clust_6="13000.00000" pt_clust_7="13000.00000" pt_clust_8="13000.00000" pt_clust_9="32.02139"></scales>
<clustering>
<clus scale="   32.021">  1  9  2 -1</clus>
<clus scale="   80.416">  5  6 -1 -1</clus>
<clus scale="   90.997">  7  8 -1 -1</clus>
<clus scale="   98.523">  1  5  2 -1</clus>
<clus scale="   32.021">  1  5  2 -1</clus>
</clustering>
</event>
<event>
 9    1  0.7586638E-005  0.2674229E+03  0.7546771E-02  0.1103289E+00
          1   -1    0    0  502    0 -0.00000000000E+00  0.00000000000E+00  0.86837642736E+03  0.86837642736E+03  0.00000000000E+00 0. -1.
         21   -1    0    0  501  502  0.00000000000E+00 -0.00000000000E+00 -0.16686089892E+03  0.16686089892E+03  0.00000000000E+00 0. -1.
         23    2    1    2    0    0  0.18137899007E+03  0.11773313709E+03  0.23094751524E+03  0.32964605668E+03  0.92576121529E+02 0.  0.
        -24    2    1    2    0    0 -0.15238337862E+03 -0.29548311467E+03  0.26968655019E+03  0.43579660288E+03  0.81589696599E+02 0.  0.
         11    1    4    4    0    0 -0.14065892146E+03 -0.29055604357E+03  0.23626202359E+03  0.40003436157E+03  0.00000000000E+00 0. -1.
        -12    1    4    4    0    0 -0.11724457158E+02 -0.49270711027E+01  0.33424526603E+02  0.35762241316E+02  0.00000000000E+00 0.  1.
        -11    1    3    3    0    0  0.15346278972E+03  0.66888295609E+02  0.12523719315E+03  0.20906751653E+03  0.00000000000E+00 0. -1.
         11    1    3    3    0    0  0.27916200346E+02  0.50844841483E+02  0.10571032209E+03  0.12057854015E+03  0.00000000000E+00 0.  1.
          2    1    1    2  501    0 -0.28995611448E+02  0.17774997758E+03  0.20088146301E+03  0.26979466672E+03  0.00000000000E+00 0. -1.
<scales pt_clust_5="13000.00000" pt_clust_6="13000.00000" pt_clust_7="13000.00000" pt_clust_8="13000.00000" pt_clust_9="180.09951"></scales>
<clustering>
<clus scale="   81.590">  5  6 -1 -1</clus>
<clus scale="   92.576">  7  8 -1 -1</clus>
<clus scale="  180.100">  2  9  1 -1</clus>
<clus scale="  263.821">  2  5  1 -1</clus>
<clus scale="  180.100">  2  5  1 -1</clus>
</clustering>
</event>
<event>
 9    1  0.7586638E-005  0.9630923E+02  0.7546771E-02  0.1291996E+00
         21   -1    0    0  501  502  0.00000000000E+00  0.00000000000E+00  0.21961417624E+03  0.21961417624E+03  0.00000000000E+00 0. -1.
          1   -1    0    0  502    0 -0.00000000000E+00 -0.00000000000E+00 -0.17646368901E+03  0.17646368901E+03  0.00000000000E+00 0. -1.
        -24    2    1    2    0    0 -0.40617370132E+02  0.42499880470E+02 -0.10867798851E+03  0.14755383888E+03  0.80654941485E+02 0.  0.
         23    2    1    2    0    0 -0.19114218971E+02 -0.14813716491E+01  0.11580146202E+02  0.90663408285E+02  0.87853320865E+02 0.  0.
         11    1    3    3    0    0 -0.64696002168E+02  0.23658198861E+02 -0.69460863229E+02  0.97826860270E+02  0.00000000000E+00 0. -1.
        -12    1    3    3    0    0  0.24078632036E+02  0.18841681609E+02 -0.39217125281E+02  0.49726978612E+02  0.00000000000E+00 0.  1.
        -11    1    4    4    0    0 -0.31118278475E+02  0.35104402667E+02  0.20410456566E+02  0.51159095761E+02  0.00000000000E+00 0. -1.
         11    1    4    4    0    0  0.12004059503E+02 -0.36585774316E+02 -0.88303103650E+01  0.39504312524E+02  0.00000000000E+00 0.  1.
          2    1    1    2  501    0  0.59731589104E+02 -0.41018508821E+02  0.14024832954E+03  0.15786061808E+03  0.00000000000E+00 0. -1.
<scales pt_clust_5="13000.00000" pt_clust_6="13000.00000" pt_clust_7="13000.00000" pt_clust_8="13000.00000" pt_clust_9="72.45951"></scales>
<clustering>
<clus scale="   72.460">  1  9  2 -1</clus>
<clus scale="   80.655">  5  6 -1 -1</clus>
<clus scale="   87.853">  7  8 -1 -1</clus>
<clus scale="   89.791">  2  5  1 -1</clus>
<clus scale="   72.460">  1  5  2 -1</clus>
</clustering>
</event>
<event>
 9    1  0.7586638E-005  0.1509503E+03  0.7546771E-02  0.1201579E+00
         21   -1    0    0  501  502  0.00000000000E+00  0.00000000000E+00  0.25785745042E+03  0.25785745042E+03  0.00000000000E+00 0. -1.
          1   -1    0    0  502    0 -0.00000000000E+00 -0.00000000000E+00 -0.75760672008E+03  0.75760672008E+03  0.00000000000E+00 0. -1.
         23    2    1    2    0    0 -0.90900991318E+02 -0.83565174792E+02 -0.64914275430E+03  0.66727835464E+03  0.92886804514E+02 0.  0.
        -24    2    1    2    0    0  0.66127893689E+02  0.73582413729E+02 -0.57237178114E+02  0.13983612742E+03  0.80565365010E+02 0.  0.
         11    1    4    4    0    0  0.37523263225E+02  0.64863322219E+01  0.11328769663E+02  0.39729193432E+02  0.00000000000E+00 0. -1.
        -12    1    4    4    0    0  0.28604630464E+02  0.67096081508E+02 -0.68565947777E+02  0.10010693399E+03  0.00000000000E+00 0.  1.
        -13    1    3    3    0    0 -0.99270333598E+02 -0.50405645507E+02 -0.57429839673E+03  0.58499057832E+03  0.00000000000E+00 0. -1.
         13    1    3    3    0    0  0.83693422805E+01 -0.33159529284E+02 -0.74844357566E+02  0.82287776323E+02  0.00000000000E+00 0.  1.
          2    1    1    2  501    0  0.24773097629E+02  0.99827610621E+01  0.20663066275E+03  0.20834968844E+03  0.00000000000E+00 0. -1.
<scales pt_clust_5="13000.00000" pt_clust_6="13000.00000" pt_clust_7="13000.00000" pt_clust_8="13000.00000" pt_clust_9="26.70884"></scales>
<clustering>
<clus scale="   26.709">  1  9  2 -1</clus>
<clus scale="   80.565">  5  6 -1 -1</clus>
<clus scale="   92.887">  7  8 -1 -1</clus>
<clus scale="  143.697">  1  5  2 -1</clus>
<clus scale="   26.709">  1  5  2 -1</clus>
</clustering>
</event>
<event>
 9    1  0.7586638E-005  0.1171020E+03  0.7546771E-02  0.1251895E+00
         21   -1    0    0  501  502  0.00000000000E+00  0.00000000000E+00  0.23639146995E+03  0.23639146995E+03  0.00000000000E+00 0.  1.
          3   -1    0    0  502    0 -0.00000000000E+00 -0.00000000000E+00 -0.17550060745E+03  0.17550060745E+03  0.00000000000E+00 0. -1.
        -24    2    1    2    0    0 -0.54123028334E+02 -0.48950036633E+02 -0.12613836042E+03  0.16617331822E+03  0.79857857690E+02 0.  0.
         23    2    1    2    0    0  0.30878720988E+02  0.74786825959E+02  0.16199376792E+03  0.20288639392E+03  0.91511437794E+02 0.  0.
         13    1    3    3    0    0 -0.63362930129E+01 -0.46202971029E+02 -0.22005962254E+02  0.51566709375E+02  0.00000000000E+00 0. -1.
        -14    1    3    3    0    0 -0.47786735321E+02 -0.27470656047E+01 -0.10413239817E+03  0.11460660884E+03  0.00000000000E+00 0.  1.
        -11    1    4    4    0    0  0.21716768058E+02  0.92736121160E+02  0.10180065819E+03  0.13940939778E+03  0.00000000000E+00 0.  1.
         11    1    4    4    0    0  0.91619529299E+01 -0.17949295201E+02  0.60193109733E+02  0.63476996141E+02  0.00000000000E+00 0. -1.
          4    1    1    2  501    0  0.23244307346E+02 -0.25836789326E+02  0.25035454998E+02  0.42832365258E+02  0.00000000000E+00 0. -1.
<scales pt_clust_5="13000.00000" pt_clust_6="13000.00000" pt_clust_7="13000.00000" pt_clust_8="13000.00000" pt_clust_9="34.75396"></scales>
<clustering>
<clus scale="   34.754">  1  9  2 -1</clus>
<clus scale="   79.858">  5  6 -1 -1</clus>
<clus scale="   91.511">  7  8 -1 -1</clus>
<clus scale="  108.240">  2  5  1 -1</clus>
<clus scale="   34.754">  1  5  2 -1</clus>
</clustering>
</event>
<event>
 9    1  0.7586638E-005  0.9615101E+02  0.7546771E-02  0.1295006E+00
         21   -1    0    0  501  502  0.00000000000E+00  0.00000000000E+00  0.19799046102E+03  0.19799046102E+03  0.00000000000E+00 0. -1.
         -4   -1    0    0    0  501 -0.00000000000E+00 -0.00000000000E+00 -0.10360459462E+03  0.10360459462E+03  0.00000000000E+00 0.  1.
         23    2    1    2    0    0  0.11462497920E+02 -0.26466788618E+02 -0.48921550669E+02  0.10915015049E+03  0.93212431971E+02 0.  0.
        -24    2    1    2    0    0 -0.11220353191E+02 -0.74518663833E+01  0.13330787738E+03  0.15708214812E+03  0.81990148484E+02 0.  0.
         11    1    4    4    0    0 -0.27141901475E+00  0.24188340319E+02  0.11766724013E+03  0.12012796874E+03  0.00000000000E+00 0. -1.
        -12    1    4    4    0    0 -0.10948934177E+02 -0.31640206702E+02  0.15640637254E+02  0.36954179378E+02  0.00000000000E+00 0.  1.
        -13    1    3    3    0    0  0.45060039871E+02  0.11746646135E+02 -0.20632954418E+02  0.50932403208E+02  0.00000000000E+00 0.  1.
         13    1    3    3    0    0 -0.33597541951E+02 -0.38213434753E+02 -0.28288596250E+02  0.58217747282E+02  0.00000000000E+00 0. -1.
         -3    1    1    2    0  502 -0.24214472860E+00  0.33918655002E+02  0.99995396898E+01  0.35362757036E+02  0.00000000000E+00 0.  1.
<scales pt_clust_5="13000.00000" pt_clust_6="13000.00000" pt_clust_7="13000.00000" pt_clust_8="13000.00000" pt_clust_9="33.91954"></scales>
<clustering>
<clus scale="   33.920">  1  9  2 -1</clus>
<clus scale="   81.990">  5  6 -1 -1</clus>
<clus scale="   85.316">  1  5  2 -1</clus>
<clus scale="   93.212">  7  8 -1 -1</clus>
<clus scale="   33.920">  1  5  2 -1</clus>
</clustering>
</event>
<event>
 9    1  0.7586638E-005  0.1462691E+03  0.7546771E-02  0.1206890E+00
         21   -1    0    0  501  502  0.00000000000E+00  0.00000000000E+00  0.20245701584E+03  0.20245701584E+03  0.00000000000E+00 0.  1.
          1   -1    0    0  502    0 -0.00000000000E+00 -0.00000000000E+00 -0.15195160310E+03  0.15195160310E+03  0.00000000000E+00 0. -1.
         23    2    1    2    0    0  0.12291291377E+03  0.44813998534E+01 -0.35260855030E+02  0.15575980799E+03  0.88826361913E+02 0.  0.
        -24    2    1    2    0    0 -0.10201481086E+03  0.30358044998E+02  0.85484883776E+02  0.15802127349E+03  0.79589100957E+02 0.  0.
         13    1    4    4    0    0 -0.38766636477E+02  0.19800566763E+01 -0.99441574086E+01  0.40070674998E+02  0.00000000000E+00 0. -1.
        -14    1    4    4    0    0 -0.63248174384E+02  0.28377988322E+02  0.95429041185E+02  0.11795059850E+03  0.00000000000E+00 0.  1.
        -13    1    3    3    0    0  0.39285594921E+02  0.35001388782E+02  0.13414262476E+02  0.54299149374E+02  0.00000000000E+00 0.  1.
         13    1    3    3    0    0  0.83627318852E+02 -0.30519988929E+02 -0.48675117505E+02  0.10146065862E+03  0.00000000000E+00 0. -1.
          2    1    1    2  501    0 -0.20898102912E+02 -0.34839444852E+02  0.28138399304E+00  0.40627537458E+02  0.00000000000E+00 0. -1.
<scales pt_clust_5="13000.00000" pt_clust_6="13000.00000" pt_clust_7="13000.00000" pt_clust_8="13000.00000" pt_clust_9="40.62658"></scales>
<clustering>
<clus scale="   40.627">  1  9  2 -1</clus>
<clus scale="   79.589">  5  6 -1 -1</clus>
<clus scale="   88.826">  7  8 -1 -1</clus>
<clus scale="  140.851">  1  5  2 -1</clus>
<clus scale="   40.627">  1  5  2 -1</clus>
</clustering>
</event>
<event>
 9    1  0.7586638E-005  0.1351986E+03  0.7546771E-02  0.1234433E+00
         21   -1    0    0  501  502  0.00000000000E+00  0.00000000000E+00  0.77491444901E+02  0.77491444901E+02  0.00000000000E+00 0.  1.
         -2   -1    0    0    0  501 -0.00000000000E+00 -0.00000000000E+00 -0.55453747204E+03  0.55453747204E+03  0.00000000000E+00 0.  1.
         23    2    1    2    0    0 -0.17551855188E+01 -0.41408591049E+02 -0.83779207663E+02  0.13052415995E+03  0.91103504895E+02 0.  0.
        -24    2    1    2    0    0 -0.78399274536E+02  0.10871955087E+03 -0.35878993105E+03  0.39130421882E+03  0.80139815662E+02 0.  0.
         13    1    4    4    0    0  0.96467971842E+01  0.35706482569E+02 -0.51409666470E+02  0.63332198761E+02  0.00000000000E+00 0. -1.
        -14    1    4    4    0    0 -0.88046071721E+02  0.73013068298E+02 -0.30738026458E+03  0.32797202006E+03  0.00000000000E+00 0.  1.
        -13    1    3    3    0    0 -0.32429488215E+02 -0.47824945060E+02 -0.23098360642E+02  0.62228862598E+02  0.00000000000E+00 0.  1.
         13    1    3    3    0    0  0.30674302697E+02  0.64163540113E+01 -0.60680847021E+02  0.68295297348E+02  0.00000000000E+00 0. -1.
         -1    1    1    2    0  502  0.80154460055E+02 -0.67310959818E+02 -0.34476888425E+02  0.11020053817E+03  0.00000000000E+00 0.  1.
<scales pt_clust_5="13000.00000" pt_clust_6="13000.00000" pt_clust_7="13000.00000" pt_clust_8="13000.00000" pt_clust_9="108.88650"></scales>
<clustering>
<clus scale="   80.140">  5  6 -1 -1</clus>
<clus scale="   91.104">  7  8 -1 -1</clus>
<clus scale="  100.088">  2  7  1 -1</clus>
<clus scale="  108.886">  1  9  2 -1</clus>
<clus scale="  108.886">  1  5  2 -1</clus>
</clustering>
</event>
<event>
 9    1  0.7586638E-005  0.9792458E+02  0.7546771E-02  0.1289975E+00
          1   -1    0    0  502    0 -0.00000000000E+00  0.00000000000E+00  0.11577463754E+03  0.11577463754E+03  0.00000000000E+00 0. -1.
         21   -1    0    0  501  502  0.00000000000E+00 -0.00000000000E+00 -0.20445800464E+03  0.20445800464E+03  0.00000000000E+00 0. -1.
        -24    2    1    2    0    0 -0.38331908259E+02 -0.76121128808E+01  0.60295839553E+02  0.10816236019E+03  0.80846944538E+02 0.  0.
         23    2    1    2    0    0  0.30297214771E+02 -0.17118511108E+02 -0.49337698728E+02  0.10909169119E+03  0.90861564619E+02 0.  0.
         13    1    3    3    0    0 -0.49651487577E+02 -0.54784449527E+01  0.74610441585E+02  0.89788649456E+02  0.00000000000E+00 0. -1.
        -14    1    3    3    0    0  0.11319579318E+02 -0.21336679281E+01 -0.14314602032E+02  0.18373710733E+02  0.00000000000E+00 0.  1.
        -13    1    4    4    0    0  0.19340331197E+01  0.28635963343E+02  0.86420949135E+01  0.29974066878E+02  0.00000000000E+00 0.  1.
         13    1    4    4    0    0  0.28363181652E+02 -0.45754474452E+02 -0.57979793642E+02  0.79117624310E+02  0.00000000000E+00 0. -1.
          2    1    1    2  501    0  0.80346934873E+01  0.24730623989E+02 -0.99641507922E+02  0.10297859080E+03  0.00000000000E+00 0. -1.
<scales pt_clust_5="13000.00000" pt_clust_6="13000.00000" pt_clust_7="13000.00000" pt_clust_8="13000.00000" pt_clust_9="26.00308"></scales>
<clustering>
<clus scale="   26.003">  2  9  1 -1</clus>
<clus scale="   80.847">  5  6 -1 -1</clus>
<clus scale="   88.711">  1  5  2 -1</clus>
<clus scale="   90.862">  7  8 -1 -1</clus>
<clus scale="   26.003">  2  5  1 -1</clus>
</clustering>
</event>
<event>
 9    1  0.7586638E-005  0.1298818E+03  0.7546771E-02  0.1230530E+00
          1   -1    0    0  502    0 -0.00000000000E+00  0.00000000000E+00  0.94676165938E+02  0.94676165938E+02  0.00000000000E+00 0. -1.
         21   -1    0    0  501  502  0.00000000000E+00 -0.00000000000E+00 -0.52877995874E+03  0.52877995874E+03  0.00000000000E+00 0. -1.
        -24    2    1    2    0    0 -0.86791563563E+02 -0.17617788073E+02 -0.15301416980E+02  0.12079840720E+03  0.80715301266E+02 0.  0.
         23    2    1    2    0    0  0.10193052790E+03 -0.46910002245E+02 -0.97743620361E+02  0.17482887734E+03  0.91765680967E+02 0.  0.
         11    1    3    3    0    0 -0.59389516155E+02 -0.42012318396E+02  0.13708182311E+02  0.74027452937E+02  0.00000000000E+00 0. -1.
        -12    1    3    3    0    0 -0.27402047407E+02  0.24394530323E+02 -0.29009599290E+02  0.46770954264E+02  0.00000000000E+00 0.  1.
        -13    1    4    4    0    0  0.13236434450E+02 -0.50063377643E+02 -0.57499755719E+02  0.77380662221E+02  0.00000000000E+00 0. -1.
         13    1    4    4    0    0  0.88694093449E+02  0.31533753983E+01 -0.40243864642E+02  0.97448215123E+02  0.00000000000E+00 0.  1.
          2    1    1    2  501    0 -0.15138964337E+02  0.64527790318E+02 -0.32105875547E+03  0.32782884014E+03  0.00000000000E+00 0. -1.
<scales pt_clust_5="13000.00000" pt_clust_6="13000.00000" pt_clust_7="13000.00000" pt_clust_8="13000.00000" pt_clust_9="66.27989"></scales>
<clustering>
<clus scale="   66.280">  2  9  1 -1</clus>
<clus scale="   80.715">  5  6 -1 -1</clus>
<clus scale="   91.766">  7  8 -1 -1</clus>
<clus scale="  122.325">  1  5  2 -1</clus>
<clus scale="   66.280">  2  5  1 -1</clus>
</clustering>
</event>
<event>
 9    1  0.7586638E-005  0.2209872E+03  0.7546771E-02  0.1134042E+00
         21   -1    0    0  501  502  0.00000000000E+00  0.00000000000E+00  0.10282354711E+03  0.10282354711E+03  0.00000000000E+00 0.  1.
          3   -1    0    0  502    0 -0.00000000000E+00 -0.00000000000E+00 -0.66873954397E+03  0.66873954397E+03  0.00000000000E+00 0. -1.
         23    2    1    2    0    0 -0.16124908050E+02 -0.19330273261E+03 -0.22163491916E+03  0.30864179296E+03  0.92259199421E+02 0.  0.
        -24    2    1    2    0    0  0.92129343257E+02  0.19457887991E+03 -0.22560512110E+03  0.32198767758E+03  0.80185020103E+02 0.  0.
         11    1    4    4    0    0  0.44087835494E+02  0.13455960376E+03 -0.19078881169E+03  0.23759291838E+03  0.00000000000E+00 0. -1.
        -12    1    4    4    0    0  0.48041507763E+02  0.60019276156E+02 -0.34816309416E+02  0.84394759196E+02  0.00000000000E+00 0.  1.
        -13    1    3    3    0    0  0.34032215943E+02 -0.83690137118E+02 -0.66506336558E+02  0.11218432856E+03  0.00000000000E+00 0.  1.
         13    1    3    3    0    0 -0.50157123993E+02 -0.10961259549E+03 -0.15512858261E+03  0.19645746440E+03  0.00000000000E+00 0. -1.
          4    1    1    2  501    0 -0.76004435207E+02 -0.12761473027E+01 -0.11867595660E+03  0.14093362054E+03  0.00000000000E+00 0. -1.
<scales pt_clust_5="13000.00000" pt_clust_6="13000.00000" pt_clust_7="13000.00000" pt_clust_8="13000.00000" pt_clust_9="76.01519"></scales>
<clustering>
<clus scale="   76.015">  1  9  2 -1</clus>
<clus scale="   80.185">  5  6 -1 -1</clus>
<clus scale="   92.259">  7  8 -1 -1</clus>
<clus scale="  216.225">  1  5  2 -1</clus>
<clus scale="   76.015">  1  5  2 -1</clus>
</clustering>
</event>
<event>
 9    1  0.7586638E-005  0.9813194E+02  0.7546771E-02  0.1290961E+00
         21   -1    0    0  501  502  0.00000000000E+00  0.00000000000E+00  0.63387868062E+02  0.63387868062E+02  0.00000000000E+00 0. -1.
          1   -1    0    0  502    0 -0.00000000000E+00 -0.00000000000E+00 -0.36363986885E+03  0.36363986885E+03  0.00000000000E+00 0. -1.
         23    2    1    2    0    0 -0.14532958137E+02  0.12451038937E+02 -0.21291741136E+03  0.23315447885E+03  0.93064234289E+02 0.  0.
        -24    2    1    2    0    0  0.85381050147E+01 -0.63918298182E+02 -0.96342300966E+02  0.14128090210E+03  0.80746555742E+02 0.  0.
         11    1    4    4    0    0 -0.17736101417E+02 -0.38146041063E+02 -0.44622291752E+01  0.42303678699E+02  0.00000000000E+00 0. -1.
        -12    1    4    4    0    0  0.26274206432E+02 -0.25772257119E+02 -0.91880071791E+02  0.98977223405E+02  0.00000000000E+00 0.  1.
        -13    1    3    3    0    0 -0.48365666500E+02  0.21321507803E+02 -0.16863784570E+03  0.17672738156E+03  0.00000000000E+00 0. -1.
         13    1    3    3    0    0  0.33832708364E+02 -0.88704688665E+01 -0.44279565655E+02  0.56427097283E+02  0.00000000000E+00 0.  1.
          2    1    1    2  501    0  0.59948531220E+01  0.51467259246E+02  0.90077115390E+01  0.52592355960E+02  0.00000000000E+00 0. -1.
<scales pt_clust_5="13000.00000" pt_clust_6="13000.00000" pt_clust_7="13000.00000" pt_clust_8="13000.00000" pt_clust_9="51.81522"></scales>
<clustering>
<clus scale="   51.815">  1  9  2 -1</clus>
<clus scale="   80.747">  5  6 -1 -1</clus>
<clus scale="   86.539">  1  5  2 -1</clus>
<clus scale="   93.064">  7  8 -1 -1</clus>
<clus scale="   51.815">  1  5  2 -1</clus>
</clustering>
</event>
<event>
 9    1  0.7586638E-005  0.9918122E+02  0.7546771E-02  0.1290127E+00
         21   -1    0    0  501  502  0.00000000000E+00  0.00000000000E+00  0.39331920434E+02  0.39331920434E+02  0.00000000000E+00 0.  1.
          1   -1    0    0  502    0 -0.00000000000E+00 -0.00000000000E+00 -0.36724987163E+03  0.36724987163E+03  0.00000000000E+00 0. -1.
        -24    2    1    2    0    0  0.41240997807E+02  0.16974081703E+02 -0.19048218467E+03  0.20901091803E+03  0.73574192681E+02 0.  0.
         23    2    1    2    0    0 -0.19228669804E+02 -0.44633753320E+02 -0.12228034348E+03  0.15910937555E+03  0.89450529945E+02 0.  0.
         11    1    3    3    0    0  0.32858835544E+02  0.44272093714E+02 -0.14691222531E+03  0.15691693121E+03  0.00000000000E+00 0. -1.
        -12    1    3    3    0    0  0.83821622622E+01 -0.27298012011E+02 -0.43569959364E+02  0.52093986821E+02  0.00000000000E+00 0.  1.
        -11    1    4    4    0    0 -0.38716593271E+02 -0.34987459931E+02 -0.12660605020E+03  0.13693863185E+03  0.00000000000E+00 0. -1.
         11    1    4    4    0    0  0.19487923467E+02 -0.96462933890E+01  0.43257067208E+01  0.22170743692E+02  0.00000000000E+00 0.  1.
          2    1    1    2  501    0 -0.22012328003E+02  0.27659671616E+02 -0.15155423041E+02  0.38461498483E+02  0.00000000000E+00 0. -1.
<scales pt_clust_5="13000.00000" pt_clust_6="13000.00000" pt_clust_7="13000.00000" pt_clust_8="13000.00000" pt_clust_9="35.34968"></scales>
<clustering>
<clus scale="   35.350">  1  9  2 -1</clus>
<clus scale="   73.574">  5  6 -1 -1</clus>
<clus scale="   85.139">  2  5  1 -1</clus>
<clus scale="   89.451">  7  8 -1 -1</clus>
<clus scale="   35.350">  1  5  2 -1</clus>
</clustering>
</event>
<event>
 9    1  0.7586638E-005  0.1343368E+03  0.7546771E-02  0.1223693E+00
          1   -1    0    0  502    0 -0.00000000000E+00  0.00000000000E+00  0.33849933098E+03  0.33849933098E+03  0.00000000000E+00 0. -1.
         21   -1    0    0  501  502  0.00000000000E+00 -0.00000000000E+00 -0.28390009997E+03  0.28390009997E+03  0.00000000000E+00 0.  1.
        -24    2    1    2    0    0 -0.44751798667E+02 -0.82583718612E+02  0.26488706893E+03  0.29276539755E+03  0.81997711284E+02 0.  0.
         23    2    1    2    0    0  0.74692966609E+02  0.10089884356E+03 -0.47281499756E+02  0.16289176634E+03  0.92404390755E+02 0.  0.
         13    1    3    3    0    0 -0.52980372373E+02 -0.24787457997E+02  0.81550275930E+02  0.10035828533E+03  0.00000000000E+00 0. -1.
        -14    1    3    3    0    0  0.82285737060E+01 -0.57796260615E+02  0.18333679300E+03  0.19240711222E+03  0.00000000000E+00 0.  1.
        -13    1    4    4    0    0  0.60879891100E+02  0.27172628794E+02  0.11424906300E+02  0.67640530600E+02  0.00000000000E+00 0. -1.
         13    1    4    4    0    0  0.13813075509E+02  0.73726214765E+02 -0.58706406056E+02  0.95251235743E+02  0.00000000000E+00 0.  1.
          2    1    1    2  501    0 -0.29941167942E+02 -0.18315124947E+02 -0.16300633816E+03  0.16674226705E+03  0.00000000000E+00 0. -1.
<scales pt_clust_5="13000.00000" pt_clust_6="13000.00000" pt_clust_7="13000.00000" pt_clust_8="13000.00000" pt_clust_9="35.09868"></scales>
<clustering>
<clus scale="   35.099">  2  9  1 -1</clus>
<clus scale="   81.998">  5  6 -1 -1</clus>
<clus scale="   92.404">  7  8 -1 -1</clus>
<clus scale="  127.403">  1  5  2 -1</clus>
<clus scale="   35.099">  2  5  1 -1</clus>
</clustering>
</event>
<event>
 9    1  0.7586638E-005  0.1216466E+03  0.7546771E-02  0.1243025E+00
         21   -1    0    0  501  502  0.00000000000E+00  0.00000000000E+00  0.33151886621E+02  0.33151886621E+02  0.00000000000E+00 0. -1.
         -2   -1    0    0    0  501 -0.00000000000E+00 -0.00000000000E+00 -0.62892500816E+03  0.62892500816E+03  0.00000000000E+00 0.  1.
         23    2    1    2    0    0 -0.35047297394E+02  0.72491253030E+02 -0.37843211139E+03  0.39739191757E+03  0.90698282227E+02 0.  0.
        -24    2    1    2    0    0  0.63712878078E+01 -0.85935823624E+02 -0.16355931234E+03  0.20227070782E+03  0.82074548421E+02 0.  0.
         13    1    4    4    0    0 -0.25170284047E+02 -0.70061142060E+02 -0.69670245507E+02  0.10196102164E+03  0.00000000000E+00 0. -1.
        -14    1    4    4    0    0  0.31541571854E+02 -0.15874681564E+02 -0.93889066833E+02  0.10030968617E+03  0.00000000000E+00 0.  1.
        -13    1    3    3    0    0  0.24956532151E+02 -0.18671246013E+01 -0.97265347929E+02  0.10043337373E+03  0.00000000000E+00 0. -1.
         13    1    3    3    0    0 -0.60003829545E+02  0.74358377632E+02 -0.28116676346E+03  0.29695854384E+03  0.00000000000E+00 0.  1.
         -1    1    1    2    0  502  0.28676009586E+02  0.13444570593E+02 -0.53781697809E+02  0.62414269390E+02  0.00000000000E+00 0.  1.
<scales pt_clust_5="13000.00000" pt_clust_6="13000.00000" pt_clust_7="13000.00000" pt_clust_8="13000.00000" pt_clust_9="31.67128"></scales>
<clustering>
<clus scale="   31.671">  1  9  2 -1</clus>
<clus scale="   82.075">  5  6 -1 -1</clus>
<clus scale="   90.698">  7  8 -1 -1</clus>
<clus scale="  115.360">  1  5  2 -1</clus>
<clus scale="   31.671">  1  5  2 -1</clus>
</clustering>
</event>
<event>
 9    1  0.7586638E-005  0.1009380E+03  0.7546771E-02  0.1284264E+00
          1   -1    0    0  502    0 -0.00000000000E+00  0.00000000000E+00  0.98701640620E+02  0.98701640620E+02  0.00000000000E+00 0. -1.
         21   -1    0    0  501  502  0.00000000000E+00 -0.00000000000E+00 -0.21218138443E+03  0.21218138443E+03  0.00000000000E+00 0. -1.
         23    2    1    2    0    0 -0.25959134244E+02 -0.46699410963E+02 -0.48454782510E+01  0.10700013516E+03  0.92578823875E+02 0.  0.
        -24    2    1    2    0    0 -0.21048363778E+01  0.89627057136E+01 -0.12914420804E+03  0.15257691449E+03  0.80726253077E+02 0.  0.
         13    1    4    4    0    0 -0.21053999653E+02  0.36145637228E+02 -0.41699627863E+02  0.59064684507E+02  0.00000000000E+00 0. -1.
        -14    1    4    4    0    0  0.18949163275E+02 -0.27182931514E+02 -0.87444580177E+02  0.93512229986E+02  0.00000000000E+00 0.  1.
        -11    1    3    3    0    0 -0.21224463874E+02  0.73048543140E+01  0.33693720664E+02  0.40485868837E+02  0.00000000000E+00 0.  1.
         11    1    3    3    0    0 -0.47346703695E+01 -0.54004265277E+02 -0.38539198915E+02  0.66514266324E+02  0.00000000000E+00 0. -1.
          2    1    1    2  501    0  0.28063970622E+02  0.37736705249E+02  0.20509942485E+02  0.51305975391E+02  0.00000000000E+00 0. -1.
<scales pt_clust_5="13000.00000" pt_clust_6="13000.00000" pt_clust_7="13000.00000" pt_clust_8="13000.00000" pt_clust_9="47.02816"></scales>
<clustering>
<clus scale="   47.028">  2  9  1 -1</clus>
<clus scale="   80.726">  5  6 -1 -1</clus>
<clus scale="   90.191">  2  5  1 -1</clus>
<clus scale="   92.579">  7  8 -1 -1</clus>
<clus scale="   47.028">  2  5  1 -1</clus>
</clustering>
</event>
<event>
 9    1  0.7586638E-005  0.9828426E+02  0.7546771E-02  0.1289370E+00
          1   -1    0    0  502    0 -0.00000000000E+00  0.00000000000E+00  0.17738376030E+03  0.17738376030E+03  0.00000000000E+00 0. -1.
         21   -1    0    0  501  502  0.00000000000E+00 -0.00000000000E+00 -0.67463482929E+02  0.67463482929E+02  0.00000000000E+00 0. -1.
         23    2    1    2    0    0  0.46920178889E+02  0.17414434314E+02  0.54353924811E+02  0.11656932289E+03  0.90162587519E+02 0.  0.
        -24    2    1    2    0    0 -0.27374886130E+02 -0.51479787955E+01  0.21409064051E+02  0.87056508928E+02  0.79653007771E+02 0.  0.
         11    1    4    4    0    0 -0.19728409303E+02  0.35522243163E+02  0.20849530383E+02  0.45669933328E+02  0.00000000000E+00 0. -1.
        -12    1    4    4    0    0 -0.76464768267E+01 -0.40670221958E+02  0.55953366792E+00  0.41386575600E+02  0.00000000000E+00 0.  1.
        -13    1    3    3    0    0  0.17414816756E+02 -0.18861202726E+02  0.63883234614E+02  0.68848300456E+02  0.00000000000E+00 0.  1.
         13    1    3    3    0    0  0.29505362133E+02  0.36275637040E+02 -0.95293098029E+01  0.47721022439E+02  0.00000000000E+00 0. -1.
          2    1    1    2  501    0 -0.19545292760E+02 -0.12266455519E+02  0.34157288506E+02  0.41221411404E+02  0.00000000000E+00 0. -1.
<scales pt_clust_5="13000.00000" pt_clust_6="13000.00000" pt_clust_7="13000.00000" pt_clust_8="13000.00000" pt_clust_9="23.07564"></scales>
<clustering>
<clus scale="   23.076">  2  9  1 -1</clus>
<clus scale="   79.653">  5  6 -1 -1</clus>
<clus scale="   88.742">  2  5  1 -1</clus>
<clus scale="   90.163">  7  8 -1 -1</clus>
<clus scale="   23.076">  2  5  1 -1</clus>
</clustering>
</event>
<event>
 9    1  0.7586638E-005  0.1287253E+03  0.7546771E-02  0.1246074E+00
         21   -1    0    0  501  502  0.00000000000E+00  0.00000000000E+00  0.24749097546E+03  0.24749097546E+03  0.00000000000E+00 0.  1.
          1   -1    0    0  502    0 -0.00000000000E+00 -0.00000000000E+00 -0.10506370860E+03  0.10506370860E+03  0.00000000000E+00 0. -1.
         23    2    1    2    0    0  0.77684797171E+00  0.13489517339E+02  0.21983829866E+02  0.94156254938E+02  0.90551316929E+02 0.  0.
        -24    2    1    2    0    0  0.54859741686E+02 -0.88185012152E+02  0.89085263764E+02  0.16012237872E+03  0.83167327237E+02 0.  0.
         13    1    4    4    0    0  0.21240857983E+02 -0.25003201227E+02 -0.13133913794E+02  0.35338842808E+02  0.00000000000E+00 0. -1.
        -14    1    4    4    0    0  0.33618883703E+02 -0.63181810925E+02  0.10221917756E+03  0.12478353591E+03  0.00000000000E+00 0.  1.
        -11    1    3    3    0    0  0.35838358516E+02 -0.53347818587E+01 -0.15572103052E+02  0.39437776713E+02  0.00000000000E+00 0.  1.
         11    1    3    3    0    0 -0.35061510544E+02  0.18824299198E+02  0.37555932918E+02  0.54718478225E+02  0.00000000000E+00 0. -1.
          2    1    1    2  501    0 -0.55636589658E+02  0.74695494813E+02  0.31358173228E+02  0.98276050400E+02  0.00000000000E+00 0. -1.
<scales pt_clust_5="13000.00000" pt_clust_6="13000.00000" pt_clust_7="13000.00000" pt_clust_8="13000.00000" pt_clust_9="98.25174"></scales>
<clustering>
<clus scale="   83.167">  5  6 -1 -1</clus>
<clus scale="   90.551">  7  8 -1 -1</clus>
<clus scale="   91.554">  2  7  1 -1</clus>
<clus scale="   98.252">  1  9  2 -1</clus>
<clus scale="   98.252">  1  5  2 -1</clus>
</clustering>
</event>
<event>
 9    1  0.7586638E-005  0.1007102E+03  0.7546771E-02  0.1282746E+00
          1   -1    0    0  502    0 -0.00000000000E+00  0.00000000000E+00  0.94677228659E+03  0.94677228659E+03  0.00000000000E+00 0. -1.
         21   -1    0    0  501  502  0.00000000000E+00 -0.00000000000E+00 -0.33689742183E+02  0.33689742183E+02  0.00000000000E+00 0. -1.
        -24    2    1    2    0    0 -0.44364033723E+02  0.11483531462E+02  0.75245534556E+03  0.75838942982E+03  0.82857958089E+02 0.  0.
         23    2    1    2    0    0  0.17793584033E+02 -0.17797503056E+01  0.45031171082E+02  0.10306590250E+03  0.90966998109E+02 0.  0.
         13    1    3    3    0    0 -0.33806900662E+02 -0.19980208484E+02  0.15111917269E+03  0.15613814274E+03  0.00000000000E+00 0. -1.
        -14    1    3    3    0    0 -0.10557133061E+02  0.31463739945E+02  0.60133617287E+03  0.60225128708E+03  0.00000000000E+00 0.  1.
        -13    1    4    4    0    0  0.26172174377E+02 -0.36433172665E+02  0.49881054362E+02  0.67085604762E+02  0.00000000000E+00 0.  1.
         13    1    4    4    0    0 -0.83785903436E+01  0.34653422360E+02 -0.48498832801E+01  0.35980297737E+02  0.00000000000E+00 0. -1.
          2    1    1    2  501    0  0.26570449690E+02 -0.97037811563E+01  0.11559602777E+03  0.11900669646E+03  0.00000000000E+00 0. -1.
<scales pt_clust_5="13000.00000" pt_clust_6="13000.00000" pt_clust_7="13000.00000" pt_clust_8="13000.00000" pt_clust_9="28.28698"></scales>
<clustering>
<clus scale="   28.287">  2  9  1 -1</clus>
<clus scale="   82.858">  5  6 -1 -1</clus>
<clus scale="   90.967">  7  8 -1 -1</clus>
<clus scale="   93.450">  1  5  2 -1</clus>
<clus scale="   28.287">  2  5  1 -1</clus>
</clustering>
</event>
<event>
 9    1  0.7586638E-005  0.1089277E+03  0.7546771E-02  0.1278554E+00
          1   -1    0    0  502    0 -0.00000000000E+00  0.00000000000E+00  0.33179568171E+03  0.33179568171E+03  0.00000000000E+00 0. -1.
         21   -1    0    0  501  502  0.00000000000E+00 -0.00000000000E+00 -0.51340926883E+02  0.51340926883E+02  0.00000000000E+00 0.  1.
         23    2    1    2    0    0 -0.12579685798E+02 -0.12835371064E+02  0.23402237585E+03  0.25866062262E+03  0.10870073620E+03 0.  0.
        -24    2    1    2    0    0 -0.97108826986E+01 -0.11528285442E+02  0.41493810916E+02  0.91086666472E+02  0.79673344706E+02 0.  0.
         13    1    4    4    0    0 -0.33908334415E+02  0.21492908893E+02  0.20189648800E+02  0.44937091518E+02  0.00000000000E+00 0. -1.
        -14    1    4    4    0    0  0.24197451716E+02 -0.33021194335E+02  0.21304162116E+02  0.46149574953E+02  0.00000000000E+00 0.  1.
        -11    1    3    3    0    0 -0.73780381238E+01 -0.54257752621E+02  0.67151429606E+02  0.86646717561E+02  0.00000000000E+00 0.  1.
         11    1    3    3    0    0 -0.52016476738E+01  0.41422381557E+02  0.16687094625E+03  0.17201390506E+03  0.00000000000E+00 0. -1.
          2    1    1    2  501    0  0.22290568496E+02  0.24363656507E+02  0.49385680589E+01  0.33389319501E+02  0.00000000000E+00 0. -1.
<scales pt_clust_5="13000.00000" pt_clust_6="13000.00000" pt_clust_7="13000.00000" pt_clust_8="13000.00000" pt_clust_9="33.02207"></scales>
<clustering>
<clus scale="   33.022">  2  9  1 -1</clus>
<clus scale="   79.673">  5  6 -1 -1</clus>
<clus scale="   79.983">  2  5  1 -1</clus>
<clus scale="  108.701">  7  8 -1 -1</clus>
<clus scale="   33.022">  2  5  1 -1</clus>
</clustering>
</event>
<event>
 9    1  0.7586638E-005  0.2141133E+03  0.7546771E-02  0.1139006E+00
          1   -1    0    0  502    0 -0.00000000000E+00  0.00000000000E+00  0.19689670799E+04  0.19689670799E+04  0.00000000000E+00 0. -1.
         21   -1    0    0  501  502  0.00000000000E+00 -0.00000000000E+00 -0.40084150577E+02  0.40084150577E+02  0.00000000000E+00 0. -1.
         23    2    1    2    0    0 -0.13399338065E+03 -0.75277032358E+02  0.49525967403E+03  0.52607452813E+03  0.88608164258E+02 0.  0.
        -24    2    1    2    0    0  0.24236080140E+03  0.24413285285E+02  0.10634307428E+04  0.10939097223E+04  0.80117222077E+02 0.  0.
         13    1    4    4    0    0  0.15416489812E+03  0.26993776280E+02  0.82414993590E+03  0.83887936953E+03  0.00000000000E+00 0. -1.
        -14    1    4    4    0    0  0.88195903284E+02 -0.25804909947E+01  0.23928080687E+03  0.25503035276E+03  0.00000000000E+00 0.  1.
        -11    1    3    3    0    0 -0.19001404942E+02  0.19929980779E+02  0.93659632278E+02  0.97623686890E+02  0.00000000000E+00 0.  1.
         11    1    3    3    0    0 -0.11499197571E+03 -0.95207013137E+02  0.40160004175E+03  0.42845084124E+03  0.00000000000E+00 0. -1.
          2    1    1    2  501    0 -0.10836742075E+03  0.50863747073E+02  0.37019251252E+03  0.38906698006E+03  0.00000000000E+00 0. -1.
<scales pt_clust_5="13000.00000" pt_clust_6="13000.00000" pt_clust_7="13000.00000" pt_clust_8="13000.00000" pt_clust_9="119.71056"></scales>
<clustering>
<clus scale="   80.117">  5  6 -1 -1</clus>
<clus scale="   88.608">  7  8 -1 -1</clus>
<clus scale="  119.711">  2  9  1 -1</clus>
<clus scale="  210.741">  2  5  1 -1</clus>
<clus scale="  119.711">  2  5  1 -1</clus>
</clustering>
</event>
<event>
 9    1  0.7586638E-005  0.2572343E+03  0.7546771E-02  0.1142947E+00
         -4   -1    0    0    0  501 -0.00000000000E+00  0.00000000000E+00  0.32725505374E+02  0.32725505374E+02  0.00000000000E+00 0.  1.
         21   -1    0    0  501  502  0.00000000000E+00 -0.00000000000E+00 -0.28899906569E+04  0.28899906569E+04  0.00000000000E+00 0. -1.
        -24    2    1    2    0    0 -0.66748302589E+02  0.38955161313E+02 -0.55935976548E+03  0.57017586659E+03  0.79021080220E+02 0.  0.
         23    2    1    2    0    0 -0.10088451539E+03 -0.21890880178E+03 -0.11246370381E+04  0.11537731412E+04  0.91023320783E+02 0.  0.
         11    1    3    3    0    0 -0.57605813338E+02  0.83292597076E+01 -0.17366980298E+03  0.18316387953E+03  0.00000000000E+00 0. -1.
        -12    1    3    3    0    0 -0.91424892511E+01  0.30625901605E+02 -0.38568996250E+03  0.38701198706E+03  0.00000000000E+00 0.  1.
        -11    1    4    4    0    0 -0.46745101268E+01 -0.11282142873E+03 -0.55864647680E+03  0.56994421821E+03  0.00000000000E+00 0. -1.
         11    1    4    4    0    0 -0.96210005265E+02 -0.10608737305E+03 -0.56599056132E+03  0.58382892300E+03  0.00000000000E+00 0.  1.
         -3    1    1    2    0  502  0.16763281798E+03  0.17995364047E+03 -0.11732683479E+04  0.11987671545E+04  0.00000000000E+00 0.  1.
<scales pt_clust_5="13000.00000" pt_clust_6="13000.00000" pt_clust_7="13000.00000" pt_clust_8="13000.00000" pt_clust_9="240.59140"></scales>
<clustering>
<clus scale="   79.021">  5  6 -1 -1</clus>
<clus scale="   91.023">  7  8 -1 -1</clus>
<clus scale="  110.531">  1  5  2 -1</clus>
<clus scale="  240.591">  2  9  1 -1</clus>
<clus scale="  240.591">  2  5  1 -1</clus>
</clustering>
</event>
<event>
 9    1  0.7586638E-005  0.1640924E+03  0.7546771E-02  0.1198552E+00
         21   -1    0    0  501  502  0.00000000000E+00  0.00000000000E+00  0.49932891193E+02  0.49932891193E+02  0.00000000000E+00 0. -1.
          1   -1    0    0  502    0 -0.00000000000E+00 -0.00000000000E+00 -0.15601394260E+04  0.15601394260E+04  0.00000000000E+00 0. -1.
        -24    2    1    2    0    0 -0.89279925764E+02  0.32693746172E+02 -0.66528819970E+03  0.67592871216E+03  0.72328756974E+02 0.  0.
         23    2    1    2    0    0 -0.11487748156E+03  0.15092683664E+02 -0.16075448991E+03  0.21857113706E+03  0.92231833226E+02 0.  0.
         11    1    3    3    0    0 -0.85020322300E+02  0.46969308212E+02 -0.46225621282E+03  0.47235090495E+03  0.00000000000E+00 0. -1.
        -12    1    3    3    0    0 -0.42596034636E+01 -0.14275562040E+02 -0.20303198688E+03  0.20357780721E+03  0.00000000000E+00 0.  1.
        -13    1    4    4    0    0 -0.19725479541E+02  0.44114632192E+02 -0.59069969580E+02  0.76318127747E+02  0.00000000000E+00 0.  1.
         13    1    4    4    0    0 -0.95152002015E+02 -0.29021948528E+02 -0.10168452033E+03  0.14225300931E+03  0.00000000000E+00 0. -1.
          2    1    1    2  501    0  0.20415740732E+03 -0.47786429836E+02 -0.68416384515E+03  0.71557246792E+03  0.00000000000E+00 0. -1.
<scales pt_clust_5="13000.00000" pt_clust_6="13000.00000" pt_clust_7="13000.00000" pt_clust_8="13000.00000" pt_clust_9="135.71894"></scales>
<clustering>
<clus scale="   72.329">  5  6 -1 -1</clus>
<clus scale="   92.232">  7  8 -1 -1</clus>
<clus scale="  119.462">  2  5  1 -1</clus>
<clus scale="  135.719">  1  9  2 -1</clus>
<clus scale="  135.719">  1  5  2 -1</clus>
</clustering>
</event>
<event>
 9    1  0.7586638E-005  0.1333040E+03  0.7546771E-02  0.1224850E+00
          1   -1    0    0  502    0 -0.00000000000E+00  0.00000000000E+00  0.79696144888E+03  0.79696144888E+03  0.00000000000E+00 0. -1.
         21   -1    0    0  501  502  0.00000000000E+00 -0.00000000000E+00 -0.66166574031E+02  0.66166574031E+02  0.00000000000E+00 0. -1.
         23    2    1    2    0    0  0.97574673104E+02  0.45265407265E+02  0.65420530242E+03  0.66886835617E+03  0.88490260718E+02 0.  0.
        -24    2    1    2    0    0 -0.77879095708E+02  0.11426996450E+02  0.74532184066E+02  0.13420821168E+03  0.79126909618E+02 0.  0.
         11    1    4    4    0    0 -0.94353986979E+02  0.12064917316E+02  0.63673469069E+02  0.11446636079E+03  0.00000000000E+00 0. -1.
        -12    1    4    4    0    0  0.16474891271E+02 -0.63792086599E+00  0.10858714997E+02  0.19741850897E+02  0.00000000000E+00 0.  1.
        -11    1    3    3    0    0  0.70920642135E+02  0.67965018350E+02  0.55596817565E+03  0.56457912956E+03  0.00000000000E+00 0.  1.
         11    1    3    3    0    0  0.26654030969E+02 -0.22699611084E+02  0.98237126773E+02  0.10428922661E+03  0.00000000000E+00 0. -1.
          2    1    1    2  501    0 -0.19695577396E+02 -0.56692403715E+02  0.20573883633E+01  0.60051455060E+02  0.00000000000E+00 0. -1.
<scales pt_clust_5="13000.00000" pt_clust_6="13000.00000" pt_clust_7="13000.00000" pt_clust_8="13000.00000" pt_clust_9="60.01620"></scales>
<clustering>
<clus scale="   60.016">  2  9  1 -1</clus>
<clus scale="   79.127">  5  6 -1 -1</clus>
<clus scale="   88.490">  7  8 -1 -1</clus>
<clus scale="  127.281">  2  5  1 -1</clus>
<clus scale="   60.016">  2  5  1 -1</clus>
</clustering>
</event>
<event>
 9    1  0.7586638E-005  0.9329128E+02  0.7546771E-02  0.1301434E+00
         -2   -1    0    0    0  501 -0.00000000000E+00  0.00000000000E+00  0.17650095534E+03  0.17650095534E+03  0.00000000000E+00 0.  1.
         21   -1    0    0  501  502  0.00000000000E+00 -0.00000000000E+00 -0.12463729088E+03  0.12463729088E+03  0.00000000000E+00 0. -1.
         23    2    1    2    0    0 -0.24054923142E+02  0.90686228479E+01  0.11245915826E+03  0.14710365425E+03  0.91277289453E+02 0.  0.
        -24    2    1    2    0    0 -0.14051057928E+02  0.56028572704E+01 -0.74556592553E+02  0.11088102432E+03  0.80666547114E+02 0.  0.
         11    1    4    4    0    0 -0.11959959315E+01 -0.20369654118E+02 -0.78973226583E+02  0.81566682733E+02  0.00000000000E+00 0. -1.
        -12    1    4    4    0    0 -0.12855061996E+02  0.25972511388E+02  0.44166340293E+01  0.29314341591E+02  0.00000000000E+00 0.  1.
        -11    1    3    3    0    0 -0.49806834342E+02  0.32511194714E+02  0.63299122527E+02  0.86858951419E+02  0.00000000000E+00 0.  1.
         11    1    3    3    0    0  0.25751911200E+02 -0.23442571866E+02  0.49160035734E+02  0.60244702833E+02  0.00000000000E+00 0. -1.
         -1    1    1    2    0  502  0.38105981070E+02 -0.14671480118E+02  0.13961098756E+02  0.43153567647E+02  0.00000000000E+00 0.  1.
<scales pt_clust_5="13000.00000" pt_clust_6="13000.00000" pt_clust_7="13000.00000" pt_clust_8="13000.00000" pt_clust_9="40.83283"></scales>
<clustering>
<clus scale="   40.833">  2  9  1 -1</clus>
<clus scale="   80.667">  5  6 -1 -1</clus>
<clus scale="   82.939">  2  5  1 -1</clus>
<clus scale="   91.277">  7  8 -1 -1</clus>
<clus scale="   40.833">  2  5  1 -1</clus>
</clustering>
</event>
<event>
 9    1  0.7586638E-005  0.1637363E+03  0.7546771E-02  0.1185660E+00
         21   -1    0    0  501  502  0.00000000000E+00  0.00000000000E+00  0.80395015901E+02  0.80395015901E+02  0.00000000000E+00 0.  1.
          1   -1    0    0  502    0 -0.00000000000E+00 -0.00000000000E+00 -0.70986590636E+03  0.70986590636E+03  0.00000000000E+00 0. -1.
        -24    2    1    2    0    0  0.33563002307E+02 -0.13363824766E+03 -0.56074293769E+03  0.58334893268E+03  0.82931771517E+02 0.  0.
         23    2    1    2    0    0 -0.59371755253E+02  0.11788158746E+03 -0.39398956863E+02  0.16478653326E+03  0.90450261240E+02 0.  0.
         11    1    3    3    0    0 -0.20204927243E+02 -0.87518295987E+02 -0.32644276201E+03  0.33857431693E+03  0.00000000000E+00 0. -1.
        -12    1    3    3    0    0  0.53767929549E+02 -0.46119951673E+02 -0.23430017569E+03  0.24477461575E+03  0.00000000000E+00 0.  1.
        -11    1    4    4    0    0 -0.36107951403E+02  0.89907099850E+02  0.16308721872E+02  0.98249911791E+02  0.00000000000E+00 0.  1.
         11    1    4    4    0    0 -0.23263803850E+02  0.27974487610E+02 -0.55707678735E+02  0.66536621470E+02  0.00000000000E+00 0. -1.
          2    1    1    2  501    0  0.25808752946E+02  0.15756660200E+02 -0.29328995905E+02  0.42125456319E+02  0.00000000000E+00 0. -1.
<scales pt_clust_5="13000.00000" pt_clust_6="13000.00000" pt_clust_7="13000.00000" pt_clust_8="13000.00000" pt_clust_9="30.23845"></scales>
<clustering>
<clus scale="   30.238">  1  9  2 -1</clus>
<clus scale="   82.932">  5  6 -1 -1</clus>
<clus scale="   90.450">  7  8 -1 -1</clus>
<clus scale="  159.706">  2  5  1 -1</clus>
<clus scale="   30.238">  1  5  2 -1</clus>
</clustering>
</event>
<event>
 9    1  0.7586638E-005  0.9706134E+02  0.7546771E-02  0.1293462E+00
         21   -1    0    0  501  502  0.00000000000E+00  0.00000000000E+00  0.33750076628E+03  0.33750076628E+03  0.00000000000E+00 0. -1.
          3   -1    0    0  502    0 -0.00000000000E+00 -0.00000000000E+00 -0.54052081473E+02  0.54052081473E+02  0.00000000000E+00 0. -1.
        -24    2    1    2    0    0 -0.43488948024E+02  0.38136557406E+02  0.59262733017E+02  0.11363931623E+03  0.77821186431E+02 0.  0.
         23    2    1    2    0    0  0.13127109375E+02  0.24412631142E+02  0.12552271798E+03  0.15721276127E+03  0.90507469397E+02 0.  0.
         11    1    3    3    0    0 -0.49539385606E+02  0.76613243918E+01  0.40586375038E+01  0.50292336952E+02  0.00000000000E+00 0. -1.
        -12    1    3    3    0    0  0.60504375822E+01  0.30475233014E+02  0.55204095513E+02  0.63346979278E+02  0.00000000000E+00 0.  1.
        -11    1    4    4    0    0 -0.82287683323E+01  0.55581694932E+02  0.65610488447E+02  0.86381558414E+02  0.00000000000E+00 0.  1.
         11    1    4    4    0    0  0.21355877708E+02 -0.31169063790E+02  0.59912229529E+02  0.70831202851E+02  0.00000000000E+00 0. -1.
          4    1    1    2  501    0  0.30361838649E+02 -0.62549188547E+02  0.98663233813E+02  0.12070077026E+03  0.00000000000E+00 0. -1.
<scales pt_clust_5="13000.00000" pt_clust_6="13000.00000" pt_clust_7="13000.00000" pt_clust_8="13000.00000" pt_clust_9="69.52872"></scales>
<clustering>
<clus scale="   69.529">  1  9  2 -1</clus>
<clus scale="   77.821">  5  6 -1 -1</clus>
<clus scale="   85.355">  2  5  1 -1</clus>
<clus scale="   90.507">  7  8 -1 -1</clus>
<clus scale="   69.529">  1  5  2 -1</clus>
</clustering>
</event>
<event>
 9    1  0.7586638E-005  0.8898599E+02  0.7546771E-02  0.1308151E+00
          1   -1    0    0  502    0 -0.00000000000E+00  0.00000000000E+00  0.65841374825E+02  0.65841374825E+02  0.00000000000E+00 0. -1.
         21   -1    0    0  501  502  0.00000000000E+00 -0.00000000000E+00 -0.23568363171E+03  0.23568363171E+03  0.00000000000E+00 0.  1.
         23    2    1    2    0    0  0.10484451329E+02  0.16381900552E+02  0.26909982081E+01  0.87528377615E+02  0.85297626176E+02 0.  0.
        -24    2    1    2    0    0 -0.10073709489E+02 -0.47732903376E+02 -0.14047483955E+03  0.16915472782E+03  0.80624014480E+02 0.  0.
         11    1    4    4    0    0  0.32752099882E+02 -0.13356510931E+02 -0.32583373445E+02  0.48091295013E+02  0.00000000000E+00 0. -1.
        -12    1    4    4    0    0 -0.42825809371E+02 -0.34376392444E+02 -0.10789146610E+03  0.12106343281E+03  0.00000000000E+00 0.  1.
        -13    1    3    3    0    0  0.36297628037E+02 -0.17834223570E+02  0.14676771281E+02  0.43023074584E+02  0.00000000000E+00 0.  1.
         13    1    3    3    0    0 -0.25813176708E+02  0.34216124123E+02 -0.11985773072E+02  0.44505303031E+02  0.00000000000E+00 0. -1.
          2    1    1    2  501    0 -0.41074183983E+00  0.31351002824E+02 -0.32058415550E+02  0.44841901102E+02  0.00000000000E+00 0. -1.
<scales pt_clust_5="13000.00000" pt_clust_6="13000.00000" pt_clust_7="13000.00000" pt_clust_8="13000.00000" pt_clust_9="31.35369"></scales>
<clustering>
<clus scale="   31.354">  2  9  1 -1</clus>
<clus scale="   80.624">  5  6 -1 -1</clus>
<clus scale="   84.517">  2  5  1 -1</clus>
<clus scale="   85.298">  7  8 -1 -1</clus>
<clus scale="   31.354">  2  5  1 -1</clus>
</clustering>
</event>
<event>
 9    1  0.7586638E-005  0.1562472E+03  0.7546771E-02  0.1193851E+00
          3   -1    0    0  502    0 -0.00000000000E+00  0.00000000000E+00  0.59082892990E+02  0.59082892990E+02  0.00000000000E+00 0. -1.
         21   -1    0    0  501  502  0.00000000000E+00 -0.00000000000E+00 -0.72809236851E+03  0.72809236851E+03  0.00000000000E+00 0. -1.
        -24    2    1    2    0    0  0.12430012179E+03 -0.33537143786E+02 -0.10855739659E+03  0.18852890257E+03  0.84753633912E+02 0.  0.
         23    2    1    2    0    0 -0.10530034019E+03  0.80189943517E+02 -0.42119967559E+03  0.45056291198E+03  0.89884271434E+02 0.  0.
         13    1    3    3    0    0  0.12626255190E+03 -0.24281379125E+02 -0.65221820851E+02  0.14417247760E+03  0.00000000000E+00 0. -1.
        -14    1    3    3    0    0 -0.19624301090E+01 -0.92557646604E+01 -0.43335575737E+02  0.44356424967E+02  0.00000000000E+00 0.  1.
        -13    1    4    4    0    0 -0.90125577062E+02  0.21378133382E+02 -0.18794939338E+03  0.20953429003E+03  0.00000000000E+00 0.  1.
         13    1    4    4    0    0 -0.15174763124E+02  0.58811810135E+02 -0.23325028221E+03  0.24102862195E+03  0.00000000000E+00 0. -1.
          4    1    1    2  501    0 -0.18999781601E+02 -0.46652799732E+02 -0.13925240334E+03  0.14808344695E+03  0.00000000000E+00 0. -1.
<scales pt_clust_5="13000.00000" pt_clust_6="13000.00000" pt_clust_7="13000.00000" pt_clust_8="13000.00000" pt_clust_9="50.37336"></scales>
<clustering>
<clus scale="   50.373">  2  9  1 -1</clus>
<clus scale="   84.754">  5  6 -1 -1</clus>
<clus scale="   89.884">  7  8 -1 -1</clus>
<clus scale="  153.353">  1  5  2 -1</clus>
<clus scale="   50.373">  2  5  1 -1</clus>
</clustering>
</event>
<event>
 9    1  0.7586638E-005  0.1254294E+03  0.7546771E-02  0.1235162E+00
          1   -1    0    0  502    0 -0.00000000000E+00  0.00000000000E+00  0.32068671086E+03  0.32068671086E+03  0.00000000000E+00 0. -1.
         21   -1    0    0  501  502  0.00000000000E+00 -0.00000000000E+00 -0.84706708256E+02  0.84706708256E+02  0.00000000000E+00 0.  1.
         23    2    1    2    0    0 -0.63091518739E+02  0.41415537487E+02  0.11179554090E+03  0.15822720329E+03  0.82715285247E+02 0.  0.
        -24    2    1    2    0    0  0.11536506458E+03 -0.41812454919E+02  0.12844992010E+03  0.19471742868E+03  0.79737792444E+02 0.  0.
         11    1    4    4    0    0  0.77237188931E+02 -0.40658263511E+02  0.12994965605E+03  0.15654261673E+03  0.00000000000E+00 0. -1.
        -12    1    4    4    0    0  0.38127875650E+02 -0.11541914086E+01 -0.14997359434E+01  0.38174811948E+02  0.00000000000E+00 0.  1.
        -13    1    3    3    0    0 -0.47559225225E+01  0.43821721218E+02  0.81002932142E+02  0.92219504798E+02  0.00000000000E+00 0.  1.
         13    1    3    3    0    0 -0.58335596216E+02 -0.24061837308E+01  0.30792608760E+02  0.66007698492E+02  0.00000000000E+00 0. -1.
          2    1    1    2  501    0 -0.52273545842E+02  0.39691743199E+00 -0.42654583974E+01  0.52448787152E+02  0.00000000000E+00 0. -1.
<scales pt_clust_5="13000.00000" pt_clust_6="13000.00000" pt_clust_7="13000.00000" pt_clust_8="13000.00000" pt_clust_9="52.27505"></scales>
<clustering>
<clus scale="   52.275">  2  9  1 -1</clus>
<clus scale="   79.738">  5  6 -1 -1</clus>
<clus scale="   82.715">  7  8 -1 -1</clus>
<clus scale="  123.486">  2  5  1 -1</clus>
<clus scale="   52.275">  2  5  1 -1</clus>
</clustering>
</event>
<event>
 9    1  0.7586638E-005  0.9445757E+02  0.7546771E-02  0.1299986E+00
         21   -1    0    0  501  502  0.00000000000E+00  0.00000000000E+00  0.87795994602E+03  0.87795994602E+03  0.00000000000E+00 0.  1.
         -4   -1    0    0    0  501 -0.00000000000E+00 -0.00000000000E+00 -0.24397978547E+02  0.24397978547E+02  0.00000000000E+00 0.  1.
         23    2    1    2    0    0 -0.24710877002E+02 -0.28131514951E+02  0.14208376264E+03  0.17290778156E+03  0.91144367583E+02 0.  0.
        -24    2    1    2    0    0  0.86793898444E+01 -0.35828448070E+02  0.51479838466E+03  0.52201138791E+03  0.78227250794E+02 0.  0.
         11    1    4    4    0    0  0.64374658714E+01 -0.49871751300E+02  0.17947141407E+03  0.18638299550E+03  0.00000000000E+00 0. -1.
        -12    1    4    4    0    0  0.22419239730E+01  0.14043303230E+02  0.33532697059E+03  0.33562839241E+03  0.00000000000E+00 0.  1.
        -11    1    3    3    0    0 -0.19431421846E+02 -0.55530425224E+02  0.12962220970E+03  0.14234860564E+03  0.00000000000E+00 0.  1.
         11    1    3    3    0    0 -0.52794551558E+01  0.27398910274E+02  0.12461552934E+02  0.30559175912E+02  0.00000000000E+00 0. -1.
         -3    1    1    2    0  502  0.16031487157E+02  0.63959963021E+02  0.19667982018E+03  0.20743875510E+03  0.00000000000E+00 0.  1.
<scales pt_clust_5="13000.00000" pt_clust_6="13000.00000" pt_clust_7="13000.00000" pt_clust_8="13000.00000" pt_clust_9="65.93850"></scales>
<clustering>
<clus scale="   65.938">  1  9  2 -1</clus>
<clus scale="   78.227">  5  6 -1 -1</clus>
<clus scale="   82.064">  1  5  2 -1</clus>
<clus scale="   91.144">  7  8 -1 -1</clus>
<clus scale="   65.938">  1  5  2 -1</clus>
</clustering>
</event>
<event>
 9    1  0.7586638E-005  0.5266386E+03  0.7546771E-02  0.1041503E+00
         21   -1    0    0  501  502  0.00000000000E+00  0.00000000000E+00  0.12797042675E+04  0.12797042675E+04  0.00000000000E+00 0.  1.
          1   -1    0    0  502    0 -0.00000000000E+00 -0.00000000000E+00 -0.31451473609E+03  0.31451473609E+03  0.00000000000E+00 0. -1.
         23    2    1    2    0    0  0.59036129345E+01  0.16323918752E+03  0.21004990266E+03  0.28136529367E+03  0.91452620982E+02 0.  0.
        -24    2    1    2    0    0 -0.49679200925E+03 -0.23085281677E+03  0.53692515461E+03  0.77141065914E+03  0.81795231570E+02 0.  0.
         11    1    4    4    0    0 -0.12806764167E+02 -0.18269468624E+02  0.40509858293E+02  0.46247543839E+02  0.00000000000E+00 0. -1.
        -12    1    4    4    0    0 -0.48398524508E+03 -0.21258334814E+03  0.49641529632E+03  0.72516311530E+03  0.00000000000E+00 0.  1.
        -11    1    3    3    0    0 -0.37132367791E+01  0.12533028692E+03  0.87952654842E+02  0.15315723437E+03  0.00000000000E+00 0.  1.
         11    1    3    3    0    0  0.96168497136E+01  0.37908900602E+02  0.12209724782E+03  0.12820805930E+03  0.00000000000E+00 0. -1.
          2    1    1    2  501    0  0.49088839632E+03  0.67613629245E+02  0.21821447409E+03  0.54144305074E+03  0.00000000000E+00 0. -1.
<scales pt_clust_5="13000.00000" pt_clust_6="13000.00000" pt_clust_7="13000.00000" pt_clust_8="13000.00000" pt_clust_9="520.24804"></scales>
<clustering>
<clus scale="   81.795">  5  6 -1 -1</clus>
<clus scale="   91.453">  7  8 -1 -1</clus>
<clus scale="  187.204">  2  7  1 -1</clus>
<clus scale="  520.248">  1  9  2 -1</clus>
<clus scale="  520.248">  1  5  2 -1</clus>
</clustering>
</event>
<event>
 9    1  0.7586638E-005  0.1372137E+03  0.7546771E-02  0.1220221E+00
         21   -1    0    0  501  502  0.00000000000E+00  0.00000000000E+00  0.10024150430E+03  0.10024150430E+03  0.00000000000E+00 0.  1.
          1   -1    0    0  502    0 -0.00000000000E+00 -0.00000000000E+00 -0.54021509396E+03  0.54021509396E+03  0.00000000000E+00 0. -1.
         23    2    1    2    0    0  0.10011358140E+03 -0.54413769524E+01 -0.45387270671E+03  0.47370438602E+03  0.91340427370E+02 0.  0.
        -24    2    1    2    0    0 -0.11872270328E+03  0.18328637177E+02  0.16162201036E+02  0.14400353223E+03  0.77748191866E+02 0.  0.
         11    1    4    4    0    0 -0.29443809031E+02  0.35291737206E+02  0.25648655593E+02  0.52633621755E+02  0.00000000000E+00 0. -1.
        -12    1    4    4    0    0 -0.89278894244E+02 -0.16963100030E+02 -0.94864545571E+01  0.91369910474E+02  0.00000000000E+00 0.  1.
        -13    1    3    3    0    0  0.93824690784E+02  0.30299709517E+02 -0.35261572326E+03  0.36614067418E+03  0.00000000000E+00 0. -1.
         13    1    3    3    0    0  0.62888906142E+01 -0.35741086470E+02 -0.10125698345E+03  0.10756371184E+03  0.00000000000E+00 0.  1.
          2    1    1    2  501    0  0.18609121877E+02 -0.12887260224E+02 -0.22630839829E+01  0.22748680011E+02  0.00000000000E+00 0. -1.
<scales pt_clust_5="13000.00000" pt_clust_6="13000.00000" pt_clust_7="13000.00000" pt_clust_8="13000.00000" pt_clust_9="22.63583"></scales>
<clustering>
<clus scale="   22.636">  1  9  2 -1</clus>
<clus scale="   77.748">  5  6 -1 -1</clus>
<clus scale="   91.340">  7  8 -1 -1</clus>
<clus scale="  128.566">  1  5  2 -1</clus>
<clus scale="   22.636">  1  5  2 -1</clus>
</clustering>
</event>
<event>
 9    1  0.7586638E-005  0.1839984E+03  0.7546771E-02  0.1199735E+00
         21   -1    0    0  501  502  0.00000000000E+00  0.00000000000E+00  0.12228870529E+03  0.12228870529E+03  0.00000000000E+00 0. -1.
          1   -1    0    0  502    0 -0.00000000000E+00 -0.00000000000E+00 -0.72575391885E+03  0.72575391885E+03  0.00000000000E+00 0. -1.
        -24    2    1    2    0    0 -0.10064193578E+02  0.36838814030E+01 -0.20303266836E+02  0.85040107193E+02  0.81882465844E+02 0.  0.
         23    2    1    2    0    0 -0.22161442604E+02  0.15331416954E+03 -0.57501872432E+03  0.60252450693E+03  0.91612684800E+02 0.  0.
         13    1    3    3    0    0 -0.45219474013E+02  0.11259119183E+02 -0.10564504316E+02  0.47782605059E+02  0.00000000000E+00 0. -1.
        -14    1    3    3    0    0  0.35155280435E+02 -0.75752377799E+01 -0.97387625199E+01  0.37257502134E+02  0.00000000000E+00 0.  1.
        -11    1    4    4    0    0  0.23868627762E+01  0.11325091561E+03 -0.50924963119E+03  0.52169594005E+03  0.00000000000E+00 0. -1.
         11    1    4    4    0    0 -0.24548305380E+02  0.40063253936E+02 -0.65769093130E+02  0.80828566881E+02  0.00000000000E+00 0.  1.
          2    1    1    2  501    0  0.32225636182E+02 -0.15699805094E+03 -0.81432223999E+01  0.16047801002E+03  0.00000000000E+00 0. -1.
<scales pt_clust_5="13000.00000" pt_clust_6="13000.00000" pt_clust_7="13000.00000" pt_clust_8="13000.00000" pt_clust_9="159.56986"></scales>
<clustering>
<clus scale="   81.882">  5  6 -1 -1</clus>
<clus scale="   82.581">  2  5  1 -1</clus>
<clus scale="   91.613">  7  8 -1 -1</clus>
<clus scale="  159.570">  1  9  2 -1</clus>
<clus scale="  159.570">  1  5  2 -1</clus>
</clustering>
</event>
<event>
 9    1  0.7586638E-005  0.1184347E+03  0.7546771E-02  0.1249275E+00
         21   -1    0    0  501  502  0.00000000000E+00  0.00000000000E+00  0.22619213344E+03  0.22619213344E+03  0.00000000000E+00 0.  1.
         -4   -1    0    0    0  501 -0.00000000000E+00 -0.00000000000E+00 -0.13221635238E+03  0.13221635238E+03  0.00000000000E+00 0.  1.
        -24    2    1    2    0    0 -0.15637994261E+02  0.10385714903E+03 -0.62430304633E+01  0.13185595218E+03  0.79474287822E+02 0.  0.
         23    2    1    2    0    0 -0.49580971023E+02 -0.37043482704E+02  0.49421942862E+02  0.12026094739E+03  0.90496821670E+02 0.  0.
         11    1    3    3    0    0 -0.31992931521E+02  0.43865735024E+02 -0.33679673640E+02  0.63891085395E+02  0.00000000000E+00 0. -1.
        -12    1    3    3    0    0  0.16354937260E+02  0.59991414010E+02  0.27436643176E+02  0.67964866781E+02  0.00000000000E+00 0.  1.
        -11    1    4    4    0    0  0.94251859199E+00  0.21835098542E+02 -0.84896080776E+01  0.23446392365E+02  0.00000000000E+00 0. -1.
         11    1    4    4    0    0 -0.50523489615E+02 -0.58878581246E+02  0.57911550939E+02  0.96814555025E+02  0.00000000000E+00 0.  1.
         -3    1    1    2    0  502  0.65218965285E+02 -0.66813666331E+02  0.50796868659E+02  0.10629158625E+03  0.00000000000E+00 0.  1.
<scales pt_clust_5="13000.00000" pt_clust_6="13000.00000" pt_clust_7="13000.00000" pt_clust_8="13000.00000" pt_clust_9="93.36798"></scales>
<clustering>
<clus scale="   79.474">  5  6 -1 -1</clus>
<clus scale="   90.497">  7  8 -1 -1</clus>
<clus scale="   93.368">  1  9  2 -1</clus>
<clus scale="  110.242">  2  5  1 -1</clus>
<clus scale="   93.368">  1  5  2 -1</clus>
</clustering>
</event>
<event>
 9    1  0.7586638E-005  0.4674290E+03  0.7546771E-02  0.1068611E+00
          1   -1    0    0  502    0 -0.00000000000E+00  0.00000000000E+00  0.15336782198E+04  0.15336782198E+04  0.00000000000E+00 0. -1.
         21   -1    0    0  501  502  0.00000000000E+00 -0.00000000000E+00 -0.29855311648E+03  0.29855311648E+03  0.00000000000E+00 0.  1.
        -24    2    1    2    0    0 -0.62163195860E+02 -0.72880719124E+02 -0.51891118567E+02  0.13484375062E+03  0.79462486474E+02 0.  0.
         23    2    1    2    0    0 -0.44093047160E+03  0.68476356688E+02  0.19608267954E+03  0.49603059022E+03  0.92137055557E+02 0.  0.
         13    1    3    3    0    0  0.16174754857E+02 -0.15188317852E+02  0.41429377908E+01  0.22571478183E+02  0.00000000000E+00 0. -1.
        -14    1    3    3    0    0 -0.78337950717E+02 -0.57692401273E+02 -0.56034056358E+02  0.11227227244E+03  0.00000000000E+00 0.  1.
        -11    1    4    4    0    0 -0.10847661284E+03  0.71074844302E+00  0.96843940090E+01  0.10891036766E+03  0.00000000000E+00 0. -1.
         11    1    4    4    0    0 -0.33245385876E+03  0.67765608245E+02  0.18639828553E+03  0.38712022256E+03  0.00000000000E+00 0.  1.
          2    1    1    2  501    0  0.50309366746E+03  0.44043624363E+01  0.10909335423E+04  0.12013569954E+04  0.00000000000E+00 0. -1.
<scales pt_clust_5="13000.00000" pt_clust_6="13000.00000" pt_clust_7="13000.00000" pt_clust_8="13000.00000" pt_clust_9="458.25845"></scales>
<clustering>
<clus scale="   79.462">  5  6 -1 -1</clus>
<clus scale="   92.137">  7  8 -1 -1</clus>
<clus scale="  124.459">  1  5  2 -1</clus>
<clus scale="  458.258">  2  9  1 -1</clus>
<clus scale="  458.258">  2  5  1 -1</clus>
</clustering>
</event>
<event>
 9    1  0.7586638E-005  0.1507795E+03  0.7546771E-02  0.1225429E+00
         -2   -1    0    0    0  501 -0.00000000000E+00  0.00000000000E+00  0.15241122758E+03  0.15241122758E+03  0.00000000000E+00 0.  1.
         21   -1    0    0  501  502  0.00000000000E+00 -0.00000000000E+00 -0.54716672531E+03  0.54716672531E+03  0.00000000000E+00 0. -1.
        -24    2    1    2    0    0 -0.40846012907E+02 -0.16260700861E+02 -0.11274926016E+03  0.14235260958E+03  0.74960407039E+02 0.  0.
         23    2    1    2    0    0 -0.13610860808E+02  0.11886197589E+03 -0.37751391514E+03  0.40684486184E+03  0.93233902840E+02 0.  0.
         13    1    3    3    0    0 -0.20740465920E+01 -0.31923827223E+02 -0.88292521307E+02  0.93909540157E+02  0.00000000000E+00 0. -1.
        -14    1    3    3    0    0 -0.38771966315E+02  0.15663126363E+02 -0.24456738855E+02  0.48443069420E+02  0.00000000000E+00 0.  1.
        -11    1    4    4    0    0 -0.34003064129E+02  0.11323539626E+03 -0.36141324046E+03  0.38026042881E+03  0.00000000000E+00 0. -1.
         11    1    4    4    0    0  0.20392203321E+02  0.56265796357E+01 -0.16100674675E+02  0.26584433033E+02  0.00000000000E+00 0.  1.
         -1    1    1    2    0  502  0.54456873714E+02 -0.10260127503E+03  0.95507677566E+02  0.15038048147E+03  0.00000000000E+00 0.  1.
<scales pt_clust_5="13000.00000" pt_clust_6="13000.00000" pt_clust_7="13000.00000" pt_clust_8="13000.00000" pt_clust_9="118.49863"></scales>
<clustering>
<clus scale="   74.960">  5  6 -1 -1</clus>
<clus scale="   86.902">  1  5  2 -1</clus>
<clus scale="   93.234">  7  8 -1 -1</clus>
<clus scale="  118.499">  2  9  1 -1</clus>
<clus scale="  118.499">  2  5  1 -1</clus>
</clustering>
</event>
<event>
 9    1  0.7586638E-005  0.1142889E+03  0.7546771E-02  0.1256689E+00
         21   -1    0    0  501  502  0.00000000000E+00  0.00000000000E+00  0.11212567603E+03  0.11212567603E+03  0.00000000000E+00 0.  1.
          3   -1    0    0  502    0 -0.00000000000E+00 -0.00000000000E+00 -0.27295289990E+03  0.27295289990E+03  0.00000000000E+00 0. -1.
         23    2    1    2    0    0  0.22205023415E+02 -0.66859054461E+02 -0.22008770978E+03  0.24865846769E+03  0.91810878051E+02 0.  0.
        -24    2    1    2    0    0 -0.38758529208E+01  0.57551141559E+02  0.37121856369E+02  0.10620894057E+03  0.81087302988E+02 0.  0.
         13    1    4    4    0    0 -0.35430775211E+02  0.89989145496E+01  0.31092992589E+02  0.47990566607E+02  0.00000000000E+00 0. -1.
        -14    1    4    4    0    0  0.31554922290E+02  0.48552227009E+02  0.60288637802E+01  0.58218373962E+02  0.00000000000E+00 0.  1.
        -13    1    3    3    0    0  0.50820226082E+02 -0.61657252046E+02 -0.19311509115E+03  0.20899222602E+03  0.00000000000E+00 0. -1.
         13    1    3    3    0    0 -0.28615202667E+02 -0.52018024147E+01 -0.26972618635E+02  0.39666241668E+02  0.00000000000E+00 0.  1.
          4    1    1    2  501    0 -0.18329170495E+02  0.93079129027E+01  0.22138629551E+02  0.30211167671E+02  0.00000000000E+00 0. -1.
<scales pt_clust_5="13000.00000" pt_clust_6="13000.00000" pt_clust_7="13000.00000" pt_clust_8="13000.00000" pt_clust_9="20.55713"></scales>
<clustering>
<clus scale="   20.557">  1  9  2 -1</clus>
<clus scale="   81.087">  5  6 -1 -1</clus>
<clus scale="   91.811">  7  8 -1 -1</clus>
<clus scale="  105.867">  1  5  2 -1</clus>
<clus scale="   20.557">  1  5  2 -1</clus>
</clustering>
</event>
<event>
 9    1  0.7586638E-005  0.1177988E+03  0.7546771E-02  0.1250319E+00
          3   -1    0    0  502    0 -0.00000000000E+00  0.00000000000E+00  0.18107969901E+03  0.18107969901E+03  0.00000000000E+00 0. -1.
         21   -1    0    0  501  502  0.00000000000E+00 -0.00000000000E+00 -0.16096004553E+03  0.16096004553E+03  0.00000000000E+00 0.  1.
        -24    2    1    2    0    0  0.64140383751E+02 -0.25022256753E+02  0.92296993482E+02  0.14055916420E+03  0.80610430300E+02 0.  0.
         23    2    1    2    0    0 -0.79084352407E+02  0.43307721637E+02 -0.29645672492E+01  0.12834995518E+03  0.91296378830E+02 0.  0.
         11    1    3    3    0    0  0.62152825357E+02  0.21478367454E+01  0.94608942253E+02  0.11321854467E+03  0.00000000000E+00 0. -1.
        -12    1    3    3    0    0  0.19875583934E+01 -0.27170093499E+02 -0.23119487707E+01  0.27340619529E+02  0.00000000000E+00 0.  1.
        -11    1    4    4    0    0 -0.22580424891E+02 -0.13645919507E+02  0.31451600624E+02  0.41052282388E+02  0.00000000000E+00 0. -1.
         11    1    4    4    0    0 -0.56503927516E+02  0.56953641144E+02 -0.34416167873E+02  0.87297672795E+02  0.00000000000E+00 0.  1.
          4    1    1    2  501    0  0.14943968656E+02 -0.18285464884E+02 -0.69212772751E+02  0.73130625165E+02  0.00000000000E+00 0. -1.
<scales pt_clust_5="13000.00000" pt_clust_6="13000.00000" pt_clust_7="13000.00000" pt_clust_8="13000.00000" pt_clust_9="23.61526"></scales>
<clustering>
<clus scale="   23.615">  2  9  1 -1</clus>
<clus scale="   80.610">  5  6 -1 -1</clus>
<clus scale="   91.296">  7  8 -1 -1</clus>
<clus scale="  109.725">  1  5  2 -1</clus>
<clus scale="   23.615">  2  5  1 -1</clus>
</clustering>
</event>
<event>
 9    1  0.7586638E-005  0.1240218E+03  0.7546771E-02  0.1246915E+00
          1   -1    0    0  502    0 -0.00000000000E+00  0.00000000000E+00  0.16765941058E+03  0.16765941058E+03  0.00000000000E+00 0. -1.
         21   -1    0    0  501  502  0.00000000000E+00 -0.00000000000E+00 -0.46281204577E+03  0.46281204577E+03  0.00000000000E+00 0. -1.
        -24    2    1    2    0    0 -0.23348363240E+02 -0.56233122527E+02  0.10390594421E+03  0.14466410599E+03  0.80149536391E+02 0.  0.
         23    2    1    2    0    0 -0.78714484148E+02  0.11013950302E+02 -0.33724501753E+03  0.35820439279E+03  0.90878534553E+02 0.  0.
         13    1    3    3    0    0 -0.32408197351E+02 -0.65992428187E+02  0.10807402630E+03  0.13071069962E+03  0.00000000000E+00 0. -1.
        -14    1    3    3    0    0  0.90598341105E+01  0.97593056603E+01 -0.41680820883E+01  0.13953406372E+02  0.00000000000E+00 0.  1.
        -11    1    4    4    0    0 -0.86722541987E+02 -0.13459213036E+02 -0.30239982312E+03  0.31487712322E+03  0.00000000000E+00 0. -1.
         11    1    4    4    0    0  0.80080578389E+01  0.24473163339E+02 -0.34845194413E+02  0.43327269564E+02  0.00000000000E+00 0.  1.
          2    1    1    2  501    0  0.10206284739E+03  0.45219172225E+02 -0.61813561863E+02  0.12760295758E+03  0.00000000000E+00 0. -1.
<scales pt_clust_5="13000.00000" pt_clust_6="13000.00000" pt_clust_7="13000.00000" pt_clust_8="13000.00000" pt_clust_9="84.39494"></scales>
<clustering>
<clus scale="   80.150">  5  6 -1 -1</clus>
<clus scale="   90.879">  7  8 -1 -1</clus>
<clus scale="  100.654">  1  5  2 -1</clus>
<clus scale="   84.395">  2  9  1 -1</clus>
<clus scale="   84.395">  2  5  1 -1</clus>
</clustering>
</event>
<event>
 9    1  0.7586638E-005  0.1373406E+03  0.7546771E-02  0.1242877E+00
         -4   -1    0    0    0  501 -0.00000000000E+00  0.00000000000E+00  0.27086760097E+03  0.27086760097E+03  0.00000000000E+00 0.  1.
         21   -1    0    0  501  502  0.00000000000E+00 -0.00000000000E+00 -0.38447902660E+03  0.38447902660E+03  0.00000000000E+00 0. -1.
        -24    2    1    2    0    0  0.52011928390E+01 -0.46149622492E+01  0.21488622018E+03  0.22943463654E+03  0.80098779889E+02 0.  0.
         23    2    1    2    0    0 -0.67010296003E+02  0.83050713792E+02 -0.28473354352E+03  0.31688066984E+03  0.89176046540E+02 0.  0.
         11    1    3    3    0    0 -0.35916764097E+02  0.74595876620E+01  0.82575112016E+02  0.90356563214E+02  0.00000000000E+00 0. -1.
        -12    1    3    3    0    0  0.41117956936E+02 -0.12074549911E+02  0.13231110816E+03  0.13907807333E+03  0.00000000000E+00 0.  1.
        -13    1    4    4    0    0 -0.96923930265E+01  0.30174407532E+02 -0.13132237958E+02  0.34305874515E+02  0.00000000000E+00 0.  1.
         13    1    4    4    0    0 -0.57317902977E+02  0.52876306260E+02 -0.27160130557E+03  0.28257479532E+03  0.00000000000E+00 0. -1.
         -3    1    1    2    0  502  0.61809103164E+02 -0.78435751543E+02 -0.43764102282E+02  0.10903132120E+03  0.00000000000E+00 0.  1.
<scales pt_clust_5="13000.00000" pt_clust_6="13000.00000" pt_clust_7="13000.00000" pt_clust_8="13000.00000" pt_clust_9="104.45131"></scales>
<clustering>
<clus scale="   80.099">  5  6 -1 -1</clus>
<clus scale="   80.400">  1  5  2 -1</clus>
<clus scale="   89.176">  7  8 -1 -1</clus>
<clus scale="  104.451">  2  9  1 -1</clus>
<clus scale="  104.451">  2  5  1 -1</clus>
</clustering>
</event>
<event>
 9    1  0.7586638E-005  0.1134039E+03  0.7546771E-02  0.1273690E+00
          1   -1    0    0  502    0 -0.00000000000E+00  0.00000000000E+00  0.22851675477E+03  0.22851675477E+03  0.00000000000E+00 0. -1.
         21   -1    0    0  501  502  0.00000000000E+00 -0.00000000000E+00 -0.11711500945E+03  0.11711500945E+03  0.00000000000E+00 0. -1.
         23    2    1    2    0    0  0.14736356808E+02 -0.10043266642E+02  0.11652961570E+03  0.14011419394E+03  0.75728519010E+02 0.  0.
        -24    2    1    2    0    0 -0.82915845784E+02 -0.42472876032E+02  0.11572581452E+02  0.11785176708E+03  0.71246976649E+02 0.  0.
         13    1    4    4    0    0 -0.70056509875E+02 -0.44837761587E+02  0.35617570760E+02  0.90481770467E+02  0.00000000000E+00 0. -1.
        -14    1    4    4    0    0 -0.12859335908E+02  0.23648855548E+01 -0.24044989308E+02  0.27369996612E+02  0.00000000000E+00 0.  1.
        -13    1    3    3    0    0 -0.67998035936E+01  0.27573751997E+02  0.74533749484E+02  0.79761074092E+02  0.00000000000E+00 0.  1.
         13    1    3    3    0    0  0.21536160402E+02 -0.37617018639E+02  0.41995866213E+02  0.60353119846E+02  0.00000000000E+00 0. -1.
          2    1    1    2  501    0  0.68179488976E+02  0.52516142675E+02 -0.16700451829E+02  0.87665803194E+02  0.00000000000E+00 0. -1.
<scales pt_clust_5="13000.00000" pt_clust_6="13000.00000" pt_clust_7="13000.00000" pt_clust_8="13000.00000" pt_clust_9="88.22879"></scales>
<clustering>
<clus scale="   71.247">  5  6 -1 -1</clus>
<clus scale="   75.729">  7  8 -1 -1</clus>
<clus scale="   77.800">  1  7  2 -1</clus>
<clus scale="   88.229">  2  9  1 -1</clus>
<clus scale="   88.229">  2  5  1 -1</clus>
</clustering>
</event>
<event>
 9    1  0.7586638E-005  0.1066485E+03  0.7546771E-02  0.1268966E+00
          1   -1    0    0  502    0 -0.00000000000E+00  0.00000000000E+00  0.41388242302E+03  0.41388242302E+03  0.00000000000E+00 0. -1.
         21   -1    0    0  501  502  0.00000000000E+00 -0.00000000000E+00 -0.79239781121E+02  0.79239781121E+02  0.00000000000E+00 0. -1.
         23    2    1    2    0    0 -0.69268476470E+02  0.51906905118E+02  0.71778774511E+02  0.14437672363E+03  0.90553836063E+02 0.  0.
        -24    2    1    2    0    0  0.16736415089E+02 -0.17276107273E+02  0.11525022746E+02  0.89650663001E+02  0.85591142968E+02 0.  0.
         11    1    4    4    0    0  0.32930145878E+02 -0.42866046113E+02  0.20892464285E+02  0.57951596016E+02  0.00000000000E+00 0. -1.
        -12    1    4    4    0    0 -0.16193730789E+02  0.25589938840E+02 -0.93674415389E+01  0.31699066985E+02  0.00000000000E+00 0.  1.
        -11    1    3    3    0    0 -0.53708796210E+02  0.33766037473E+02 -0.53149689726E+01  0.63663403712E+02  0.00000000000E+00 0. -1.
         11    1    3    3    0    0 -0.15559680260E+02  0.18140867644E+02  0.77093743483E+02  0.80713319923E+02  0.00000000000E+00 0.  1.
          2    1    1    2  501    0  0.52532061381E+02 -0.34630797845E+02  0.25133884465E+03  0.25909481751E+03  0.00000000000E+00 0. -1.
<scales pt_clust_5="13000.00000" pt_clust_6="13000.00000" pt_clust_7="13000.00000" pt_clust_8="13000.00000" pt_clust_9="62.91990"></scales>
<clustering>
<clus scale="   62.920">  2  9  1 -1</clus>
<clus scale="   85.591">  5  6 -1 -1</clus>
<clus scale="   90.554">  7  8 -1 -1</clus>
<clus scale="  102.468">  2  5  1 -1</clus>
<clus scale="   62.920">  2  5  1 -1</clus>
</clustering>
</event>
<event>
 9    1  0.7586638E-005  0.1529858E+03  0.7546771E-02  0.1198907E+00
          1   -1    0    0  502    0 -0.00000000000E+00  0.00000000000E+00  0.11583258757E+03  0.11583258757E+03  0.00000000000E+00 0. -1.
         21   -1    0    0  501  502  0.00000000000E+00 -0.00000000000E+00 -0.45577571896E+03  0.45577571896E+03  0.00000000000E+00 0.  1.
         23    2    1    2    0    0 -0.31199381159E+02 -0.11190662178E+03  0.14676258193E+02  0.14909245031E+03  0.92285821247E+02 0.  0.
        -24    2    1    2    0    0  0.82279609592E+02  0.13045922097E+03 -0.28829842710E+03  0.33677287552E+03  0.80687323230E+02 0.  0.
         13    1    4    4    0    0 -0.13160483853E+02  0.41351036458E+02 -0.67009547951E+02  0.79833489639E+02  0.00000000000E+00 0. -1.
        -14    1    4    4    0    0  0.95440093446E+02  0.89108184507E+02 -0.22128887914E+03  0.25693938588E+03  0.00000000000E+00 0.  1.
        -13    1    3    3    0    0 -0.27884360154E+01 -0.81961807157E+02 -0.30867626164E+02  0.87626043805E+02  0.00000000000E+00 0. -1.
         13    1    3    3    0    0 -0.28410945143E+02 -0.29944814620E+02  0.45543884358E+02  0.61466406508E+02  0.00000000000E+00 0.  1.
          2    1    1    2  501    0 -0.51080228433E+02 -0.18552599188E+02 -0.66320962491E+02  0.85742980699E+02  0.00000000000E+00 0. -1.
<scales pt_clust_5="13000.00000" pt_clust_6="13000.00000" pt_clust_7="13000.00000" pt_clust_8="13000.00000" pt_clust_9="54.34509"></scales>
<clustering>
<clus scale="   54.345">  2  9  1 -1</clus>
<clus scale="   80.687">  5  6 -1 -1</clus>
<clus scale="   92.286">  7  8 -1 -1</clus>
<clus scale="  146.282">  2  5  1 -1</clus>
<clus scale="   54.345">  2  5  1 -1</clus>
</clustering>
</event>
<event>
 9    1  0.7586638E-005  0.2122373E+03  0.7546771E-02  0.1180902E+00
         21   -1    0    0  501  502  0.00000000000E+00  0.00000000000E+00  0.41155931289E+03  0.41155931289E+03  0.00000000000E+00 0.  1.
         -2   -1    0    0    0  501 -0.00000000000E+00 -0.00000000000E+00 -0.35176905756E+03  0.35176905756E+03  0.00000000000E+00 0.  1.
        -24    2    1    2    0    0  0.16157088187E+02  0.79434124769E+01 -0.12219049001E+03  0.14691062923E+03  0.79549153562E+02 0.  0.
         23    2    1    2    0    0  0.17219434013E+03  0.39332582538E+02 -0.13828617524E+03  0.24187511258E+03  0.90457509355E+02 0.  0.
         11    1    3    3    0    0  0.21118977861E+02 -0.31395925085E+02 -0.82719355065E+02  0.90962668388E+02  0.00000000000E+00 0. -1.
        -12    1    3    3    0    0 -0.49618896741E+01  0.39339337562E+02 -0.39471134940E+02  0.55947960842E+02  0.00000000000E+00 0.  1.
        -13    1    4    4    0    0  0.12719921469E+03  0.38139857941E+02 -0.14471251589E+03  0.19640774230E+03  0.00000000000E+00 0.  1.
         13    1    4    4    0    0  0.44995125439E+02  0.11927245972E+01  0.64263406484E+01  0.45467370271E+02  0.00000000000E+00 0. -1.
         -1    1    1    2    0  502 -0.18835142831E+03 -0.47275995015E+02  0.32026692058E+03  0.37454262865E+03  0.00000000000E+00 0.  1.
<scales pt_clust_5="13000.00000" pt_clust_6="13000.00000" pt_clust_7="13000.00000" pt_clust_8="13000.00000" pt_clust_9="191.99508"></scales>
<clustering>
<clus scale="   79.549">  5  6 -1 -1</clus>
<clus scale="   81.561">  2  5  1 -1</clus>
<clus scale="   90.458">  7  8 -1 -1</clus>
<clus scale="  191.995">  1  9  2 -1</clus>
<clus scale="  191.995">  1  5  2 -1</clus>
</clustering>
</event>
<event>
 9    1  0.7586638E-005  0.9407461E+02  0.7546771E-02  0.1299088E+00
         -2   -1    0    0    0  501 -0.00000000000E+00  0.00000000000E+00  0.11403821016E+03  0.11403821016E+03  0.00000000000E+00 0.  1.
         21   -1    0    0  501  502  0.00000000000E+00 -0.00000000000E+00 -0.31800263098E+03  0.31800263098E+03  0.00000000000E+00 0. -1.
         23    2    1    2    0    0 -0.45297476608E+00  0.18508920425E+02  0.13841760506E+02  0.92974569815E+02  0.90054933108E+02 0.  0.
        -24    2    1    2    0    0  0.64051805705E+02 -0.68506855818E+02 -0.22634046615E+03  0.25771862934E+03  0.79956626889E+02 0.  0.
         13    1    4    4    0    0  0.65685601159E+02 -0.76188340103E+02 -0.22842433406E+03  0.24959354510E+03  0.00000000000E+00 0. -1.
        -14    1    4    4    0    0 -0.16337954546E+01  0.76814842850E+01  0.20838679068E+01  0.81250842372E+01  0.00000000000E+00 0.  1.
        -11    1    3    3    0    0 -0.36391411539E+02  0.36265359484E+02  0.12457807132E+02  0.52864998731E+02  0.00000000000E+00 0.  1.
         11    1    3    3    0    0  0.35938436772E+02 -0.17756439058E+02  0.13839533738E+01  0.40109571085E+02  0.00000000000E+00 0. -1.
         -1    1    1    2    0  502 -0.63598830939E+02  0.49997935393E+02  0.85342848259E+01  0.81347641993E+02  0.00000000000E+00 0.  1.
<scales pt_clust_5="13000.00000" pt_clust_6="13000.00000" pt_clust_7="13000.00000" pt_clust_8="13000.00000" pt_clust_9="80.89877"></scales>
<clustering>
<clus scale="   79.957">  5  6 -1 -1</clus>
<clus scale="   80.899">  2  9  1 -1</clus>
<clus scale="   84.458">  2  5  1 -1</clus>
<clus scale="   90.055">  7  8 -1 -1</clus>
<clus scale="   80.899">  2  5  1 -1</clus>
</clustering>
</event>
<event>
 9    1  0.7586638E-005  0.1073570E+03  0.7546771E-02  0.1269070E+00
         21   -1    0    0  501  502  0.00000000000E+00  0.00000000000E+00  0.27797679236E+03  0.27797679236E+03  0.00000000000E+00 0.  1.
          3   -1    0    0  502    0 -0.00000000000E+00 -0.00000000000E+00 -0.72083023309E+02  0.72083023309E+02  0.00000000000E+00 0. -1.
        -24    2    1    2    0    0  0.68057042444E+02 -0.12624432389E+02  0.95067396613E+01  0.10582530121E+03  0.79482570157E+02 0.  0.
         23    2    1    2    0    0 -0.45698592101E+02 -0.17006464100E+02  0.10494999691E+03  0.14555006159E+03  0.88276482917E+02 0.  0.
         11    1    3    3    0    0  0.61682596443E+01  0.24317393846E+02  0.21152407042E+02  0.32814743548E+02  0.00000000000E+00 0. -1.
        -12    1    3    3    0    0  0.61888782800E+02 -0.36941826235E+02 -0.11645667380E+02  0.73010557666E+02  0.00000000000E+00 0.  1.
        -13    1    4    4    0    0 -0.38840571164E+02  0.18209832468E+02  0.99997570355E+01  0.44047509664E+02  0.00000000000E+00 0. -1.
         13    1    4    4    0    0 -0.68580209374E+01 -0.35216296568E+02  0.94950239876E+02  0.10150255193E+03  0.00000000000E+00 0.  1.
          4    1    1    2  501    0 -0.22358450343E+02  0.29630896490E+02  0.91437032476E+02  0.98684452862E+02  0.00000000000E+00 0. -1.
<scales pt_clust_5="13000.00000" pt_clust_6="13000.00000" pt_clust_7="13000.00000" pt_clust_8="13000.00000" pt_clust_9="37.11995"></scales>
<clustering>
<clus scale="   37.120">  1  9  2 -1</clus>
<clus scale="   79.483">  5  6 -1 -1</clus>
<clus scale="   88.276">  7  8 -1 -1</clus>
<clus scale="  100.251">  2  5  1 -1</clus>
<clus scale="   37.120">  1  5  2 -1</clus>
</clustering>
</event>
<event>
 9    1  0.7586638E-005  0.1326467E+03  0.7546771E-02  0.1226292E+00
         21   -1    0    0  501  502  0.00000000000E+00  0.00000000000E+00  0.46367972700E+02  0.46367972700E+02  0.00000000000E+00 0. -1.
          1   -1    0    0  502    0 -0.00000000000E+00 -0.00000000000E+00 -0.51880006358E+03  0.51880006358E+03  0.00000000000E+00 0. -1.
         23    2    1    2    0    0  0.64023258100E+02 -0.85327083337E+02 -0.30793475063E+03  0.33846334215E+03  0.91399861071E+02 0.  0.
        -24    2    1    2    0    0 -0.62235059704E+02  0.49323272593E+02 -0.92067542888E+02  0.14580013562E+03  0.80468995389E+02 0.  0.
         11    1    4    4    0    0 -0.46250843609E+02  0.71316081736E+02 -0.61656467414E+02  0.10500782839E+03  0.00000000000E+00 0. -1.
        -12    1    4    4    0    0 -0.15984216095E+02 -0.21992809143E+02 -0.30411075474E+02  0.40792307236E+02  0.00000000000E+00 0.  1.
        -13    1    3    3    0    0  0.38764840721E+02  0.99235970155E+01 -0.65354340277E+02  0.76631458599E+02  0.00000000000E+00 0.  1.
         13    1    3    3    0    0  0.25258417379E+02 -0.95250680352E+02 -0.24258041035E+03  0.26183188355E+03  0.00000000000E+00 0. -1.
          2    1    1    2  501    0 -0.17881983960E+01  0.36003810744E+02 -0.72429797361E+02  0.80904558508E+02  0.00000000000E+00 0. -1.
<scales pt_clust_5="13000.00000" pt_clust_6="13000.00000" pt_clust_7="13000.00000" pt_clust_8="13000.00000" pt_clust_9="36.04821"></scales>
<clustering>
<clus scale="   36.048">  1  9  2 -1</clus>
<clus scale="   80.469">  5  6 -1 -1</clus>
<clus scale="   91.400">  7  8 -1 -1</clus>
<clus scale="  125.365">  1  5  2 -1</clus>
<clus scale="   36.048">  1  5  2 -1</clus>
</clustering>
</event>
<event>
 9    1  0.7586638E-005  0.1087479E+03  0.7546771E-02  0.1268615E+00
         21   -1    0    0  501  502  0.00000000000E+00  0.00000000000E+00  0.30058549145E+03  0.30058549145E+03  0.00000000000E+00 0.  1.
          1   -1    0    0  502    0 -0.00000000000E+00 -0.00000000000E+00 -0.87148119761E+02  0.87148119761E+02  0.00000000000E+00 0. -1.
         23    2    1    2    0    0  0.60380910278E+02  0.78791595145E+00 -0.22226691090E+02  0.11391806657E+03  0.94004387964E+02 0.  0.
        -24    2    1    2    0    0 -0.28022519019E+02 -0.31346694697E+02  0.18689231418E+03  0.20778836914E+03  0.80494673177E+02 0.  0.
         13    1    4    4    0    0 -0.30665031466E+02  0.41498783898E+01  0.19327089969E+02  0.36484271298E+02  0.00000000000E+00 0. -1.
        -14    1    4    4    0    0  0.26425124463E+01 -0.35496573087E+02  0.16756522421E+03  0.17130409784E+03  0.00000000000E+00 0.  1.
        -13    1    3    3    0    0  0.30179438368E+02 -0.42080117070E+02  0.94727811696E+01  0.52642837461E+02  0.00000000000E+00 0.  1.
         13    1    3    3    0    0  0.30201471910E+02  0.42868033022E+02 -0.31699472260E+02  0.61275229108E+02  0.00000000000E+00 0. -1.
          2    1    1    2  501    0 -0.32358391259E+02  0.30558778745E+02  0.48771748596E+02  0.66027175499E+02  0.00000000000E+00 0. -1.
<scales pt_clust_5="13000.00000" pt_clust_6="13000.00000" pt_clust_7="13000.00000" pt_clust_8="13000.00000" pt_clust_9="44.50735"></scales>
<clustering>
<clus scale="   44.507">  1  9  2 -1</clus>
<clus scale="   80.495">  5  6 -1 -1</clus>
<clus scale="   94.004">  7  8 -1 -1</clus>
<clus scale="   97.307">  1  5  2 -1</clus>
<clus scale="   44.507">  1  5  2 -1</clus>
</clustering>
</event>
<event>
 9    1  0.7586638E-005  0.1524662E+03  0.7546771E-02  0.1200705E+00
          1   -1    0    0  502    0 -0.00000000000E+00  0.00000000000E+00  0.28181831482E+03  0.28181831482E+03  0.00000000000E+00 0. -1.
         21   -1    0    0  501  502  0.00000000000E+00 -0.00000000000E+00 -0.16394161893E+03  0.16394161893E+03  0.00000000000E+00 0.  1.
        -24    2    1    2    0    0 -0.41228546431E+02 -0.10818821431E+03  0.18612512880E+03  0.24377634185E+03  0.10667641969E+03 0.  0.
         23    2    1    2    0    0  0.54697010485E+02  0.77352310899E+02 -0.65658417078E+01  0.13171984220E+03  0.91279042477E+02 0.  0.
         13    1    3    3    0    0  0.19718348180E+02 -0.68593200688E+02  0.43183317303E+02  0.83418459162E+02  0.00000000000E+00 0. -1.
        -14    1    3    3    0    0 -0.60946894611E+02 -0.39595013627E+02  0.14294181150E+03  0.16035788269E+03  0.00000000000E+00 0.  1.
        -11    1    4    4    0    0 -0.24806222952E+02  0.20593524162E+02 -0.10638243686E+02  0.33950171771E+02  0.00000000000E+00 0.  1.
         11    1    4    4    0    0  0.79503233437E+02  0.56758786738E+02  0.40724019783E+01  0.97769670434E+02  0.00000000000E+00 0. -1.
          2    1    1    2  501    0 -0.13468464055E+02  0.30835903415E+02 -0.61682591201E+02  0.70263749691E+02  0.00000000000E+00 0. -1.
<scales pt_clust_5="13000.00000" pt_clust_6="13000.00000" pt_clust_7="13000.00000" pt_clust_8="13000.00000" pt_clust_9="33.64896"></scales>
<clustering>
<clus scale="   33.649">  2  9  1 -1</clus>
<clus scale="   91.279">  7  8 -1 -1</clus>
<clus scale="  106.676">  5  6 -1 -1</clus>
<clus scale="  142.120">  2  7  1 -1</clus>
<clus scale="   33.649">  2  5  1 -1</clus>
</clustering>
</event>
<event>
 9    1  0.7586638E-005  0.3223050E+03  0.7546771E-02  0.1074593E+00
          1   -1    0    0  502    0 -0.00000000000E+00  0.00000000000E+00  0.28853762919E+03  0.28853762919E+03  0.00000000000E+00 0. -1.
         21   -1    0    0  501  502  0.00000000000E+00 -0.00000000000E+00 -0.29042730712E+03  0.29042730712E+03  0.00000000000E+00 0. -1.
        -24    2    1    2    0    0 -0.43925873993E+02 -0.12766679928E+03  0.28334324802E+02  0.15839022912E+03  0.77822468960E+02 0.  0.
         23    2    1    2    0    0 -0.10504184880E+03 -0.81332474066E+02 -0.29999828494E+02  0.16391904498E+03  0.91217883441E+02 0.  0.
         11    1    3    3    0    0 -0.41622344293E+02 -0.12115864547E+03  0.48571856349E+02  0.13700752588E+03  0.00000000000E+00 0. -1.
        -12    1    3    3    0    0 -0.23035296998E+01 -0.65081538076E+01 -0.20237531547E+02  0.21382703247E+02  0.00000000000E+00 0.  1.
        -13    1    4    4    0    0  0.28171186638E+01 -0.46300786361E+02  0.84396935925E+00  0.46394086471E+02  0.00000000000E+00 0.  1.
         13    1    4    4    0    0 -0.10785896746E+03 -0.35031687705E+02 -0.30843797853E+02  0.11752495851E+03  0.00000000000E+00 0. -1.
          2    1    1    2  501    0  0.14896772279E+03  0.20899927335E+03 -0.22417423762E+00  0.25665566222E+03  0.00000000000E+00 0. -1.
<scales pt_clust_5="13000.00000" pt_clust_6="13000.00000" pt_clust_7="13000.00000" pt_clust_8="13000.00000" pt_clust_9="256.65569"></scales>
<clustering>
<clus scale="   77.822">  5  6 -1 -1</clus>
<clus scale="   91.218">  7  8 -1 -1</clus>
<clus scale="  132.102">  5  7 -1 -1</clus>
<clus scale="  256.656">  2  9  1 -1</clus>
<clus scale="  256.656">  2  5  1 -1</clus>
</clustering>
</event>
<event>
 9    1  0.7586638E-005  0.2949538E+03  0.7546771E-02  0.1101743E+00
         21   -1    0    0  501  502  0.00000000000E+00  0.00000000000E+00  0.16854225273E+04  0.16854225273E+04  0.00000000000E+00 0.  1.
          1   -1    0    0  502    0 -0.00000000000E+00 -0.00000000000E+00 -0.24216188756E+03  0.24216188756E+03  0.00000000000E+00 0. -1.
        -24    2    1    2    0    0 -0.60031362969E+02  0.17827814103E+03  0.87702099263E+03  0.90057934561E+03  0.80563491208E+02 0.  0.
         23    2    1    2    0    0  0.23708241255E+03  0.13643460969E+03  0.59845301617E+03  0.66447384195E+03  0.92504059451E+02 0.  0.
         11    1    3    3    0    0 -0.45340439084E+02  0.38983015648E+02  0.18154127434E+03  0.19113520140E+03  0.00000000000E+00 0. -1.
        -12    1    3    3    0    0 -0.14690923885E+02  0.13929512539E+03  0.69547971829E+03  0.70944414421E+03  0.00000000000E+00 0.  1.
        -13    1    4    4    0    0  0.31460365378E+02  0.36074356867E+02  0.45454984989E+02  0.66009616523E+02  0.00000000000E+00 0.  1.
         13    1    4    4    0    0  0.20562204717E+03  0.10036025282E+03  0.55299803118E+03  0.59846422543E+03  0.00000000000E+00 0. -1.
          2    1    1    2  501    0 -0.17705104958E+03 -0.31471275072E+03 -0.32213369059E+02  0.36253122730E+03  0.00000000000E+00 0. -1.
<scales pt_clust_5="13000.00000" pt_clust_6="13000.00000" pt_clust_7="13000.00000" pt_clust_8="13000.00000" pt_clust_9="280.07289"></scales>
<clustering>
<clus scale="   80.563">  5  6 -1 -1</clus>
<clus scale="   92.504">  7  8 -1 -1</clus>
<clus scale="  204.640">  2  5  1 -1</clus>
<clus scale="  280.073">  1  9  2 -1</clus>
<clus scale="  280.073">  1  5  2 -1</clus>
</clustering>
</event>
<event>
 9    1  0.7586638E-005  0.1204248E+03  0.7546771E-02  0.1246081E+00
          1   -1    0    0  502    0 -0.00000000000E+00  0.00000000000E+00  0.22104577756E+03  0.22104577756E+03  0.00000000000E+00 0. -1.
         21   -1    0    0  501  502  0.00000000000E+00 -0.00000000000E+00 -0.18570863398E+03  0.18570863398E+03  0.00000000000E+00 0.  1.
        -24    2    1    2    0    0  0.59291140602E+02 -0.54252086628E+02  0.17906142717E+03  0.21175653086E+03  0.79492800952E+02 0.  0.
         23    2    1    2    0    0 -0.39667417785E+02  0.49577548855E+02 -0.12724823703E+03  0.16895173105E+03  0.91220262077E+02 0.  0.
         13    1    3    3    0    0  0.40046093812E+02 -0.20925133777E+02  0.16452754694E+03  0.17061906269E+03  0.00000000000E+00 0. -1.
        -14    1    3    3    0    0  0.19245046790E+02 -0.33326952851E+02  0.14533880232E+02  0.41137468163E+02  0.00000000000E+00 0.  1.
        -13    1    4    4    0    0  0.19802771130E+02  0.25441676367E+02 -0.75195280385E+01  0.33105466961E+02  0.00000000000E+00 0. -1.
         13    1    4    4    0    0 -0.59470188915E+02  0.24135872488E+02 -0.11972870899E+03  0.13584626409E+03  0.00000000000E+00 0.  1.
          2    1    1    2  501    0 -0.19623722817E+02  0.46745377725E+01 -0.16476046560E+02  0.26046149636E+02  0.00000000000E+00 0. -1.
<scales pt_clust_5="13000.00000" pt_clust_6="13000.00000" pt_clust_7="13000.00000" pt_clust_8="13000.00000" pt_clust_9="20.17280"></scales>
<clustering>
<clus scale="   20.173">  2  9  1 -1</clus>
<clus scale="   79.493">  5  6 -1 -1</clus>
<clus scale="   91.220">  7  8 -1 -1</clus>
<clus scale="  111.804">  1  5  2 -1</clus>
<clus scale="   20.173">  2  5  1 -1</clus>
</clustering>
</event>
<event>
 9    1  0.7586638E-005  0.1923232E+03  0.7546771E-02  0.1157566E+00
         -4   -1    0    0    0  501 -0.00000000000E+00  0.00000000000E+00  0.44947061965E+03  0.44947061965E+03  0.00000000000E+00 0.  1.
         21   -1    0    0  501  502  0.00000000000E+00 -0.00000000000E+00 -0.18873366294E+03  0.18873366294E+03  0.00000000000E+00 0. -1.
         23    2    1    2    0    0 -0.63697604801E+02  0.17480451735E+03  0.27261637062E+03  0.34292929906E+03  0.93095727533E+02 0.  0.
        -24    2    1    2    0    0  0.40453219811E+01 -0.10484415428E+03 -0.10119021557E+03  0.16709828307E+03  0.81692809729E+02 0.  0.
         11    1    4    4    0    0  0.20610808579E+02 -0.97265619891E+02 -0.10877262836E+03  0.14736651900E+03  0.00000000000E+00 0. -1.
        -12    1    4    4    0    0 -0.16565486598E+02 -0.75785343860E+01  0.75824127835E+01  0.19731764069E+02  0.00000000000E+00 0.  1.
        -13    1    3    3    0    0 -0.15706657157E+02  0.14728846521E+03  0.22785220747E+03  0.27176684770E+03  0.00000000000E+00 0. -1.
         13    1    3    3    0    0 -0.47990947644E+02  0.27516052135E+02  0.44764163152E+02  0.71162451360E+02  0.00000000000E+00 0.  1.
         -3    1    1    2    0  502  0.59652282820E+02 -0.69960363069E+02  0.89310801661E+02  0.12817670046E+03  0.00000000000E+00 0.  1.
<scales pt_clust_5="13000.00000" pt_clust_6="13000.00000" pt_clust_7="13000.00000" pt_clust_8="13000.00000" pt_clust_9="91.93941"></scales>
<clustering>
<clus scale="   81.693">  5  6 -1 -1</clus>
<clus scale="   91.939">  2  9  1 -1</clus>
<clus scale="   93.096">  7  8 -1 -1</clus>
<clus scale="  187.070">  2  5  1 -1</clus>
<clus scale="   91.939">  2  5  1 -1</clus>
</clustering>
</event>
<event>
 9    1  0.7586638E-005  0.1122158E+03  0.7546771E-02  0.1261156E+00
         21   -1    0    0  501  502  0.00000000000E+00  0.00000000000E+00  0.48036010550E+03  0.48036010550E+03  0.00000000000E+00 0.  1.
         -4   -1    0    0    0  501 -0.00000000000E+00 -0.00000000000E+00 -0.31612479196E+02  0.31612479196E+02  0.00000000000E+00 0.  1.
        -24    2    1    2    0    0 -0.60310169056E+02  0.26358498992E+02  0.15250003256E+03  0.18386915070E+03  0.78863918776E+02 0.  0.
         23    2    1    2    0    0  0.68001821877E+02 -0.25743563043E+00  0.23583694537E+03  0.26184731377E+03  0.91217525038E+02 0.  0.
         13    1    3    3    0    0 -0.12918223912E+02 -0.27461110290E+02  0.55278820226E+02  0.63061407001E+02  0.00000000000E+00 0. -1.
        -14    1    3    3    0    0 -0.47391945145E+02  0.53819609283E+02  0.97221212338E+02  0.12080774369E+03  0.00000000000E+00 0.  1.
        -13    1    4    4    0    0  0.53804216489E+02 -0.28540016826E+02  0.21617421099E+03  0.22459010613E+03  0.00000000000E+00 0.  1.
         13    1    4    4    0    0  0.14197605388E+02  0.28282581196E+02  0.19662734376E+02  0.37257207638E+02  0.00000000000E+00 0. -1.
         -3    1    1    2    0  502 -0.76916528210E+01 -0.26101063362E+02  0.60410648370E+02  0.66256120232E+02  0.00000000000E+00 0.  1.
<scales pt_clust_5="13000.00000" pt_clust_6="13000.00000" pt_clust_7="13000.00000" pt_clust_8="13000.00000" pt_clust_9="27.21079"></scales>
<clustering>
<clus scale="   27.211">  1  9  2 -1</clus>
<clus scale="   78.864">  5  6 -1 -1</clus>
<clus scale="   91.218">  7  8 -1 -1</clus>
<clus scale="  102.427">  2  5  1 -1</clus>
<clus scale="   27.211">  1  5  2 -1</clus>
</clustering>
</event>
<event>
 9    1  0.7586638E-005  0.1221064E+03  0.7546771E-02  0.1245063E+00
          1   -1    0    0  502    0 -0.00000000000E+00  0.00000000000E+00  0.49898230037E+03  0.49898230037E+03  0.00000000000E+00 0. -1.
         21   -1    0    0  501  502  0.00000000000E+00 -0.00000000000E+00 -0.56533907659E+02  0.56533907659E+02  0.00000000000E+00 0.  1.
        -24    2    1    2    0    0  0.40483616657E+02 -0.94107222782E+02  0.20256111753E+03  0.23858829931E+03  0.73472972135E+02 0.  0.
         23    2    1    2    0    0 -0.75652534539E+02  0.13822413630E+02  0.13255600379E+03  0.17835480461E+03  0.91241312381E+02 0.  0.
         11    1    3    3    0    0 -0.19004580504E+02 -0.17176875042E+02  0.23204415089E+02  0.34563911758E+02  0.00000000000E+00 0. -1.
        -12    1    3    3    0    0  0.59488197161E+02 -0.76930347741E+02  0.17935670244E+03  0.20402438755E+03  0.00000000000E+00 0.  1.
        -11    1    4    4    0    0 -0.95669623872E+02  0.13400203668E+02  0.12232522284E+03  0.15587078794E+03  0.00000000000E+00 0.  1.
         11    1    4    4    0    0  0.20017089333E+02  0.42220996197E+00  0.10230780947E+02  0.22484016666E+02  0.00000000000E+00 0. -1.
          2    1    1    2  501    0  0.35168917882E+02  0.80284809152E+02  0.10733127139E+03  0.13857310412E+03  0.00000000000E+00 0. -1.
<scales pt_clust_5="13000.00000" pt_clust_6="13000.00000" pt_clust_7="13000.00000" pt_clust_8="13000.00000" pt_clust_9="87.64989"></scales>
<clustering>
<clus scale="   73.473">  5  6 -1 -1</clus>
<clus scale="   87.650">  2  9  1 -1</clus>
<clus scale="   91.241">  7  8 -1 -1</clus>
<clus scale="  109.468">  1  5  2 -1</clus>
<clus scale="   87.650">  2  5  1 -1</clus>
</clustering>
</event>
<event>
 9    1  0.7586638E-005  0.9603554E+02  0.7546771E-02  0.1289324E+00
         21   -1    0    0  501  502  0.00000000000E+00  0.00000000000E+00  0.19784632790E+02  0.19784632790E+02  0.00000000000E+00 0. -1.
          3   -1    0    0  502    0 -0.00000000000E+00 -0.00000000000E+00 -0.73340952613E+03  0.73340952613E+03  0.00000000000E+00 0. -1.
        -24    2    1    2    0    0 -0.11358394405E+02 -0.14371689982E+02 -0.42555434478E+03  0.43562927076E+03  0.91327994519E+02 0.  0.
         23    2    1    2    0    0  0.37251351781E+02  0.25320715540E+02 -0.25001113462E+03  0.27024844925E+03  0.92194658418E+02 0.  0.
         13    1    3    3    0    0 -0.98353430447E+01 -0.35390068487E+02 -0.66605570655E+02  0.76062428062E+02  0.00000000000E+00 0. -1.
        -14    1    3    3    0    0 -0.15230513601E+01  0.21018378504E+02 -0.35894877413E+03  0.35956684270E+03  0.00000000000E+00 0.  1.
        -11    1    4    4    0    0  0.59206629003E+02  0.10219499912E+02 -0.91166762744E+02  0.10918443903E+03  0.00000000000E+00 0. -1.
         11    1    4    4    0    0 -0.21955277222E+02  0.15101215628E+02 -0.15884437188E+03  0.16106401022E+03  0.00000000000E+00 0.  1.
          4    1    1    2  501    0 -0.25892957376E+02 -0.10949025558E+02 -0.38059413937E+02  0.47316438915E+02  0.00000000000E+00 0. -1.
<scales pt_clust_5="13000.00000" pt_clust_6="13000.00000" pt_clust_7="13000.00000" pt_clust_8="13000.00000" pt_clust_9="28.11274"></scales>
<clustering>
<clus scale="   28.113">  1  9  2 -1</clus>
<clus scale="   91.328">  5  6 -1 -1</clus>
<clus scale="   92.195">  7  8 -1 -1</clus>
<clus scale="   95.204">  2  5  1 -1</clus>
<clus scale="   28.113">  1  5  2 -1</clus>
</clustering>
</event>
<event>
 9    1  0.7586638E-005  0.1926631E+03  0.7546771E-02  0.1187953E+00
          1   -1    0    0  502    0 -0.00000000000E+00  0.00000000000E+00  0.18461389236E+03  0.18461389236E+03  0.00000000000E+00 0. -1.
         21   -1    0    0  501  502  0.00000000000E+00 -0.00000000000E+00 -0.40334589925E+03  0.40334589925E+03  0.00000000000E+00 0.  1.
         23    2    1    2    0    0  0.19961623483E+02  0.12575048062E+02  0.51469189208E+02  0.10643495706E+03  0.90126158255E+02 0.  0.
        -24    2    1    2    0    0  0.55307668493E+01  0.17056739077E+03 -0.22029368320E+03  0.28999996747E+03  0.80292279176E+02 0.  0.
         11    1    4    4    0    0 -0.32457300087E+02  0.78468404647E+02 -0.71908797769E+02  0.11127282711E+03  0.00000000000E+00 0. -1.
        -12    1    4    4    0    0  0.37988066936E+02  0.92098986126E+02 -0.14838488543E+03  0.17872714035E+03  0.00000000000E+00 0.  1.
        -13    1    3    3    0    0  0.44241555692E+02  0.36961325568E+02  0.39977839929E+02  0.70154704213E+02  0.00000000000E+00 0. -1.
         13    1    3    3    0    0 -0.24279932209E+02 -0.24386277507E+02  0.11491349279E+02  0.36280252852E+02  0.00000000000E+00 0.  1.
          2    1    1    2  501    0 -0.25492390333E+02 -0.18314243884E+03 -0.49907512895E+02  0.19152486708E+03  0.00000000000E+00 0. -1.
<scales pt_clust_5="13000.00000" pt_clust_6="13000.00000" pt_clust_7="13000.00000" pt_clust_8="13000.00000" pt_clust_9="175.13498"></scales>
<clustering>
<clus scale="   80.292">  5  6 -1 -1</clus>
<clus scale="   90.126">  7  8 -1 -1</clus>
<clus scale="   93.163">  1  7  2 -1</clus>
<clus scale="  175.135">  2  9  1 -1</clus>
<clus scale="  175.135">  2  5  1 -1</clus>
</clustering>
</event>
<event>
 9    1  0.7586638E-005  0.1056085E+03  0.7546771E-02  0.1277640E+00
         21   -1    0    0  501  502  0.00000000000E+00  0.00000000000E+00  0.16073992524E+03  0.16073992524E+03  0.00000000000E+00 0.  1.
         -2   -1    0    0    0  501 -0.00000000000E+00 -0.00000000000E+00 -0.14725160634E+03  0.14725160634E+03  0.00000000000E+00 0.  1.
         23    2    1    2    0    0 -0.40397245404E+02  0.49902438604E+02 -0.85947573471E+02  0.14181705989E+03  0.92751831654E+02 0.  0.
        -24    2    1    2    0    0 -0.70192126664E+01 -0.25538061073E+02  0.46496013668E+02  0.91044090724E+02  0.73659251006E+02 0.  0.
         11    1    4    4    0    0  0.27387588458E+02 -0.33849999909E+00  0.39131885599E+02  0.47765040085E+02  0.00000000000E+00 0. -1.
        -12    1    4    4    0    0 -0.34406801125E+02 -0.25199561074E+02  0.73641280697E+01  0.43279050639E+02  0.00000000000E+00 0.  1.
        -13    1    3    3    0    0 -0.50026262827E+02  0.97276811008E+01 -0.53436371175E+01  0.51242650299E+02  0.00000000000E+00 0. -1.
         13    1    3    3    0    0  0.96290174226E+01  0.40174757503E+02 -0.80603936353E+02  0.90574409590E+02  0.00000000000E+00 0.  1.
         -1    1    1    2    0  502  0.47416458071E+02 -0.24364377531E+02  0.52939878696E+02  0.75130380971E+02  0.00000000000E+00 0.  1.
<scales pt_clust_5="13000.00000" pt_clust_6="13000.00000" pt_clust_7="13000.00000" pt_clust_8="13000.00000" pt_clust_9="53.30988"></scales>
<clustering>
<clus scale="   53.310">  1  9  2 -1</clus>
<clus scale="   73.659">  5  6 -1 -1</clus>
<clus scale="   89.308">  1  5  2 -1</clus>
<clus scale="   92.752">  7  8 -1 -1</clus>
<clus scale="   53.310">  1  5  2 -1</clus>
</clustering>
</event>
<event>
 9    1  0.7586638E-005  0.1989120E+03  0.7546771E-02  0.1171107E+00
          1   -1    0    0  502    0 -0.00000000000E+00  0.00000000000E+00  0.26093170210E+03  0.26093170210E+03  0.00000000000E+00 0. -1.
         21   -1    0    0  501  502  0.00000000000E+00 -0.00000000000E+00 -0.28673587220E+03  0.28673587220E+03  0.00000000000E+00 0. -1.
        -24    2    1    2    0    0  0.27279813072E+02  0.89970816083E+02  0.31311135010E+02  0.12756979027E+03  0.80341323532E+02 0.  0.
         23    2    1    2    0    0  0.12414126260E+03 -0.14960573205E+03 -0.12123688519E+03  0.24517996792E+03  0.87303529099E+02 0.  0.
         13    1    3    3    0    0 -0.39705583414E-02  0.52812906668E+02 -0.21894341812E+02  0.57171368095E+02  0.00000000000E+00 0. -1.
        -14    1    3    3    0    0  0.27283783631E+02  0.37157909414E+02  0.53205476822E+02  0.70398422178E+02  0.00000000000E+00 0.  1.
        -13    1    4    4    0    0  0.91960088265E+02 -0.13647476761E+03 -0.12955277164E+03  0.20944197446E+03  0.00000000000E+00 0. -1.
         13    1    4    4    0    0  0.32181174336E+02 -0.13130964449E+02  0.83158864457E+01  0.35737993458E+02  0.00000000000E+00 0.  1.
          2    1    1    2  501    0 -0.15142107567E+03  0.59634915972E+02  0.64121580080E+02  0.17491781611E+03  0.00000000000E+00 0. -1.
<scales pt_clust_5="13000.00000" pt_clust_6="13000.00000" pt_clust_7="13000.00000" pt_clust_8="13000.00000" pt_clust_9="178.72915"></scales>
<clustering>
<clus scale="   80.341">  5  6 -1 -1</clus>
<clus scale="   87.304">  7  8 -1 -1</clus>
<clus scale="  123.668">  1  5  2 -1</clus>
<clus scale="  178.729">  2  9  1 -1</clus>
<clus scale="  178.729">  2  5  1 -1</clus>
</clustering>
</event>
<event>
 9    1  0.7586638E-005  0.2104190E+03  0.7546771E-02  0.1175731E+00
         21   -1    0    0  501  502  0.00000000000E+00  0.00000000000E+00  0.91839912760E+02  0.91839912760E+02  0.00000000000E+00 0. -1.
         -4   -1    0    0    0  501 -0.00000000000E+00 -0.00000000000E+00 -0.12081860751E+04  0.12081860751E+04  0.00000000000E+00 0.  1.
         23    2    1    2    0    0  0.15165126074E+02 -0.81036257439E+01 -0.11848271112E+02  0.94785134544E+02  0.92456424348E+02 0.  0.
        -24    2    1    2    0    0  0.51285798273E+02  0.19068222781E+03 -0.89313305387E+03  0.91814197532E+03  0.79423484037E+02 0.  0.
         11    1    4    4    0    0 -0.45725466261E+01  0.45683506400E+02 -0.10146795381E+03  0.11137161483E+03  0.00000000000E+00 0. -1.
        -12    1    4    4    0    0  0.55858344899E+02  0.14499872141E+03 -0.79166510006E+03  0.80677036049E+03  0.00000000000E+00 0.  1.
        -13    1    3    3    0    0  0.12914781623E+00  0.29382088174E+02 -0.36967613403E+02  0.47222115850E+02  0.00000000000E+00 0.  1.
         13    1    3    3    0    0  0.15035978257E+02 -0.37485713918E+02  0.25119342291E+02  0.47563018694E+02  0.00000000000E+00 0. -1.
         -3    1    1    2    0  502 -0.66450924346E+02 -0.18257860206E+03 -0.21136483736E+03  0.28709887801E+03  0.00000000000E+00 0.  1.
<scales pt_clust_5="13000.00000" pt_clust_6="13000.00000" pt_clust_7="13000.00000" pt_clust_8="13000.00000" pt_clust_9="194.85401"></scales>
<clustering>
<clus scale="   79.423">  5  6 -1 -1</clus>
<clus scale="   92.456">  7  8 -1 -1</clus>
<clus scale="   94.042">  2  7  1 -1</clus>
<clus scale="  194.854">  1  9  2 -1</clus>
<clus scale="  194.854">  1  5  2 -1</clus>
</clustering>
</event>
<event>
 9    1  0.7586638E-005  0.1420851E+03  0.7546771E-02  0.1213281E+00
          1   -1    0    0  502    0 -0.00000000000E+00  0.00000000000E+00  0.65612212399E+03  0.65612212399E+03  0.00000000000E+00 0. -1.
         21   -1    0    0  501  502  0.00000000000E+00 -0.00000000000E+00 -0.43968155041E+02  0.43968155041E+02  0.00000000000E+00 0. -1.
         23    2    1    2    0    0 -0.10826950800E+03  0.18084839057E+02  0.37809562662E+03  0.40442272211E+03  0.92477497390E+02 0.  0.
        -24    2    1    2    0    0  0.98400836063E+02 -0.36182728401E+02  0.11486938607E+03  0.17470916912E+03  0.79601529801E+02 0.  0.
         13    1    4    4    0    0  0.11244184043E+03 -0.32197190542E+02  0.10399179465E+03  0.15650597405E+03  0.00000000000E+00 0. -1.
        -14    1    4    4    0    0 -0.14041004369E+02 -0.39855378595E+01  0.10877591415E+02  0.18203195069E+02  0.00000000000E+00 0.  1.
        -11    1    3    3    0    0 -0.12178496594E+03  0.10538321564E+01  0.32111069245E+03  0.34343087412E+03  0.00000000000E+00 0. -1.
         11    1    3    3    0    0  0.13515457938E+02  0.17031006900E+02  0.56984934172E+02  0.60991847995E+02  0.00000000000E+00 0.  1.
          2    1    1    2  501    0  0.98686719409E+01  0.18097889344E+02  0.11918895626E+03  0.12095838780E+03  0.00000000000E+00 0. -1.
<scales pt_clust_5="13000.00000" pt_clust_6="13000.00000" pt_clust_7="13000.00000" pt_clust_8="13000.00000" pt_clust_9="20.61370"></scales>
<clustering>
<clus scale="   20.614">  2  9  1 -1</clus>
<clus scale="   79.602">  5  6 -1 -1</clus>
<clus scale="   92.477">  7  8 -1 -1</clus>
<clus scale="  134.062">  2  5  1 -1</clus>
<clus scale="   20.614">  2  5  1 -1</clus>
</clustering>
</event>
<event>
 9    1  0.7586638E-005  0.1500804E+03  0.7546771E-02  0.1212643E+00
          3   -1    0    0  502    0 -0.00000000000E+00  0.00000000000E+00  0.23877592431E+03  0.23877592431E+03  0.00000000000E+00 0. -1.
         21   -1    0    0  501  502  0.00000000000E+00 -0.00000000000E+00 -0.21996160891E+03  0.21996160891E+03  0.00000000000E+00 0. -1.
        -24    2    1    2    0    0  0.79199672956E+02 -0.27292377612E+02  0.10736906966E+03  0.15755798435E+03  0.79239757944E+02 0.  0.
         23    2    1    2    0    0 -0.34667664903E+02 -0.10155346047E+03 -0.22841699443E+01  0.13985080547E+03  0.89655329089E+02 0.  0.
         11    1    3    3    0    0  0.56848573110E+02 -0.63666781487E+01  0.11278716354E+03  0.12646437884E+03  0.00000000000E+00 0. -1.
        -12    1    3    3    0    0  0.22351099846E+02 -0.20925699463E+02 -0.54180938770E+01  0.31093605510E+02  0.00000000000E+00 0.  1.
        -11    1    4    4    0    0 -0.54737849816E+02 -0.92954496409E+02  0.18797824282E+02  0.10949944659E+03  0.00000000000E+00 0. -1.
         11    1    4    4    0    0  0.20070184913E+02 -0.85989640629E+01 -0.21081994226E+02  0.30351358881E+02  0.00000000000E+00 0.  1.
          4    1    1    2  501    0 -0.44532008053E+02  0.12884583808E+03 -0.86270584316E+02  0.16132874341E+03  0.00000000000E+00 0. -1.
<scales pt_clust_5="13000.00000" pt_clust_6="13000.00000" pt_clust_7="13000.00000" pt_clust_8="13000.00000" pt_clust_9="120.35804"></scales>
<clustering>
<clus scale="   79.240">  5  6 -1 -1</clus>
<clus scale="   89.655">  7  8 -1 -1</clus>
<clus scale="  115.310">  1  5  2 -1</clus>
<clus scale="  120.358">  2  9  1 -1</clus>
<clus scale="  120.358">  2  5  1 -1</clus>
</clustering>
</event>
<event>
 9    1  0.7586638E-005  0.1002887E+03  0.7546771E-02  0.1280494E+00
         21   -1    0    0  501  502  0.00000000000E+00  0.00000000000E+00  0.62727151098E+03  0.62727151098E+03  0.00000000000E+00 0.  1.
          1   -1    0    0  502    0 -0.00000000000E+00 -0.00000000000E+00 -0.24335998848E+02  0.24335998848E+02  0.00000000000E+00 0. -1.
         23    2    1    2    0    0 -0.46409014922E+02 -0.35577110193E+02  0.14206983908E+03  0.17319895211E+03  0.79965682642E+02 0.  0.
        -24    2    1    2    0    0  0.63788311007E+02  0.23906049824E+02  0.41878937394E+03  0.43141208413E+03  0.78047413609E+02 0.  0.
         13    1    4    4    0    0  0.35099930243E+02 -0.79287850034E+01  0.59202651732E+02  0.69280767222E+02  0.00000000000E+00 0. -1.
        -14    1    4    4    0    0  0.28688380764E+02  0.31834834827E+02  0.35958672220E+03  0.36213131691E+03  0.00000000000E+00 0.  1.
        -13    1    3    3    0    0 -0.52839161491E+02 -0.10079747176E+01  0.43186664681E+02  0.68250135578E+02  0.00000000000E+00 0.  1.
         13    1    3    3    0    0  0.64301465698E+01 -0.34569135475E+02  0.98883174398E+02  0.10494881653E+03  0.00000000000E+00 0. -1.
          2    1    1    2  501    0 -0.17379296086E+02  0.11671060369E+02  0.42076299121E+02  0.46996473594E+02  0.00000000000E+00 0. -1.
<scales pt_clust_5="13000.00000" pt_clust_6="13000.00000" pt_clust_7="13000.00000" pt_clust_8="13000.00000" pt_clust_9="20.93452"></scales>
<clustering>
<clus scale="   20.935">  1  9  2 -1</clus>
<clus scale="   78.047">  5  6 -1 -1</clus>
<clus scale="   79.966">  7  8 -1 -1</clus>
<clus scale="   98.766">  1  5  2 -1</clus>
<clus scale="   20.935">  1  5  2 -1</clus>
</clustering>
</event>
<event>
 9    1  0.7586638E-005  0.1730499E+03  0.7546771E-02  0.1176252E+00
         21   -1    0    0  501  502  0.00000000000E+00  0.00000000000E+00  0.24667011810E+03  0.24667011810E+03  0.00000000000E+00 0.  1.
          1   -1    0    0  502    0 -0.00000000000E+00 -0.00000000000E+00 -0.44538998085E+03  0.44538998085E+03  0.00000000000E+00 0. -1.
         23    2    1    2    0    0 -0.79522378734E+02  0.11680031090E+03 -0.17499971754E+03  0.24300916912E+03  0.91991487614E+02 0.  0.
        -24    2    1    2    0    0  0.13436045789E+03 -0.12398408754E+03  0.16084403868E+03  0.25637825519E+03  0.80213579573E+02 0.  0.
         13    1    4    4    0    0 -0.51112339741E+01 -0.30570927063E+02  0.33788360320E+02  0.45851494930E+02  0.00000000000E+00 0. -1.
        -14    1    4    4    0    0  0.13947169187E+03 -0.93413160477E+02  0.12705567836E+03  0.21052676026E+03  0.00000000000E+00 0.  1.
        -11    1    3    3    0    0  0.16531698907E+02  0.24890689754E+02 -0.60822439856E+02  0.67765866741E+02  0.00000000000E+00 0.  1.
         11    1    3    3    0    0 -0.96054077641E+02  0.91909621147E+02 -0.11417727768E+03  0.17524330238E+03  0.00000000000E+00 0. -1.
          2    1    1    2  501    0 -0.54838079160E+02  0.71837766384E+01 -0.18456418390E+03  0.19267267464E+03  0.00000000000E+00 0. -1.
<scales pt_clust_5="13000.00000" pt_clust_6="13000.00000" pt_clust_7="13000.00000" pt_clust_8="13000.00000" pt_clust_9="55.30664"></scales>
<clustering>
<clus scale="   55.307">  1  9  2 -1</clus>
<clus scale="   80.214">  5  6 -1 -1</clus>
<clus scale="   91.991">  7  8 -1 -1</clus>
<clus scale="  167.087">  1  5  2 -1</clus>
<clus scale="   55.307">  1  5  2 -1</clus>
</clustering>
</event>
<event>
 9    1  0.7586638E-005  0.9610777E+02  0.7546771E-02  0.1296204E+00
          3   -1    0    0  502    0 -0.00000000000E+00  0.00000000000E+00  0.75087512498E+02  0.75087512498E+02  0.00000000000E+00 0. -1.
         21   -1    0    0  501  502  0.00000000000E+00 -0.00000000000E+00 -0.27169077244E+03  0.27169077244E+03  0.00000000000E+00 0. -1.
         23    2    1    2    0    0 -0.17551897812E+02  0.58062633092E+01  0.67789963416E+01  0.95643744844E+02  0.93594814632E+02 0.  0.
        -24    2    1    2    0    0  0.29683383397E+02  0.17588691171E+02 -0.62249274900E+02  0.10756220546E+03  0.80648561742E+02 0.  0.
         13    1    4    4    0    0 -0.16879490408E+02  0.31005728837E+02 -0.42462220324E+02  0.55220581054E+02  0.00000000000E+00 0. -1.
        -14    1    4    4    0    0  0.46562873805E+02 -0.13417037666E+02 -0.19787054576E+02  0.52341624407E+02  0.00000000000E+00 0.  1.
        -13    1    3    3    0    0 -0.34463479101E+01 -0.38582463617E+02 -0.18192928105E+02  0.42795635826E+02  0.00000000000E+00 0.  1.
         13    1    3    3    0    0 -0.14105549902E+02  0.44388726927E+02  0.24971924447E+02  0.52848109018E+02  0.00000000000E+00 0. -1.
          4    1    1    2  501    0 -0.12131485585E+02 -0.23394954480E+02 -0.14113298139E+03  0.14357233464E+03  0.00000000000E+00 0. -1.
<scales pt_clust_5="13000.00000" pt_clust_6="13000.00000" pt_clust_7="13000.00000" pt_clust_8="13000.00000" pt_clust_9="26.35331"></scales>
<clustering>
<clus scale="   26.353">  2  9  1 -1</clus>
<clus scale="   80.649">  5  6 -1 -1</clus>
<clus scale="   83.552">  2  5  1 -1</clus>
<clus scale="   93.595">  7  8 -1 -1</clus>
<clus scale="   26.353">  2  5  1 -1</clus>
</clustering>
</event>
<event>
 9    1  0.7586638E-005  0.1339306E+03  0.7546771E-02  0.1236787E+00
         21   -1    0    0  501  502  0.00000000000E+00  0.00000000000E+00  0.26957731551E+03  0.26957731551E+03  0.00000000000E+00 0. -1.
          1   -1    0    0  502    0 -0.00000000000E+00 -0.00000000000E+00 -0.37358800553E+03  0.37358800553E+03  0.00000000000E+00 0. -1.
         23    2    1    2    0    0 -0.27838786728E+02 -0.24701101589E+02 -0.27014667499E+03  0.28741280499E+03  0.90784095493E+02 0.  0.
        -24    2    1    2    0    0 -0.13980210402E+02 -0.79614571405E+02 -0.40327778109E+02  0.12068258258E+03  0.80025182215E+02 0.  0.
         13    1    4    4    0    0 -0.10204529196E+02 -0.85828022864E+02 -0.56287418305E+02  0.10314482723E+03  0.00000000000E+00 0. -1.
        -14    1    4    4    0    0 -0.37756812057E+01  0.62134514593E+01  0.15959640196E+02  0.17537755352E+02  0.00000000000E+00 0.  1.
        -13    1    3    3    0    0 -0.56051060597E+02 -0.10434349040E+02 -0.22620952212E+03  0.23328382913E+03  0.00000000000E+00 0. -1.
         13    1    3    3    0    0  0.28212273869E+02 -0.14266752549E+02 -0.43937152872E+02  0.54128975860E+02  0.00000000000E+00 0.  1.
          2    1    1    2  501    0  0.41818997130E+02  0.10431567299E+03  0.20646376309E+03  0.23506993347E+03  0.00000000000E+00 0. -1.
<scales pt_clust_5="13000.00000" pt_clust_6="13000.00000" pt_clust_7="13000.00000" pt_clust_8="13000.00000" pt_clust_9="107.39359"></scales>
<clustering>
<clus scale="   80.025">  5  6 -1 -1</clus>
<clus scale="   90.784">  7  8 -1 -1</clus>
<clus scale="   98.117">  2  7  1 -1</clus>
<clus scale="  107.394">  1  9  2 -1</clus>
<clus scale="  107.394">  1  5  2 -1</clus>
</clustering>
</event>
<event>
 9    1  0.7586638E-005  0.9146081E+02  0.7546771E-02  0.1304568E+00
         21   -1    0    0  501  502  0.00000000000E+00  0.00000000000E+00  0.65480996221E+02  0.65480996221E+02  0.00000000000E+00 0. -1.
          1   -1    0    0  502    0 -0.00000000000E+00 -0.00000000000E+00 -0.35083378244E+03  0.35083378244E+03  0.00000000000E+00 0. -1.
        -24    2    1    2    0    0  0.28251161834E+02 -0.14134350250E+02 -0.25901441236E+03  0.27284755698E+03  0.79745943710E+02 0.  0.
         23    2    1    2    0    0  0.18165162437E+02  0.15742358525E+01 -0.30265245448E+02  0.95221476244E+02  0.88423374235E+02 0.  0.
         11    1    3    3    0    0  0.82755697585E+01 -0.43553621442E+02 -0.92456107847E+02  0.10253552981E+03  0.00000000000E+00 0. -1.
        -12    1    3    3    0    0  0.19975592076E+02  0.29419271192E+02 -0.16655830451E+03  0.17031202717E+03  0.00000000000E+00 0.  1.
        -13    1    4    4    0    0  0.25803093323E+02  0.38773748267E+02  0.13782617241E+00  0.46574909294E+02  0.00000000000E+00 0.  1.
         13    1    4    4    0    0 -0.76379308853E+01 -0.37199512414E+02 -0.30403071620E+02  0.48646566950E+02  0.00000000000E+00 0. -1.
          2    1    1    2  501    0 -0.46416324272E+02  0.12560114398E+02  0.39268715851E+01  0.48245745439E+02  0.00000000000E+00 0. -1.
<scales pt_clust_5="13000.00000" pt_clust_6="13000.00000" pt_clust_7="13000.00000" pt_clust_8="13000.00000" pt_clust_9="48.08567"></scales>
<clustering>
<clus scale="   48.086">  1  9  2 -1</clus>
<clus scale="   79.746">  5  6 -1 -1</clus>
<clus scale="   83.101">  2  5  1 -1</clus>
<clus scale="   88.423">  7  8 -1 -1</clus>
<clus scale="   48.086">  1  5  2 -1</clus>
</clustering>
</event>
<event>
 9    1  0.7586638E-005  0.1749842E+03  0.7546771E-02  0.1173119E+00
         21   -1    0    0  501  502  0.00000000000E+00  0.00000000000E+00  0.74185185668E+03  0.74185185668E+03  0.00000000000E+00 0. -1.
          3   -1    0    0  502    0 -0.00000000000E+00 -0.00000000000E+00 -0.19740120220E+03  0.19740120220E+03  0.00000000000E+00 0. -1.
         23    2    1    2    0    0 -0.13498656919E+03 -0.74791960827E+02 -0.77610023132E+02  0.19616680714E+03  0.92967140802E+02 0.  0.
        -24    2    1    2    0    0  0.14754744800E+03  0.14468346645E+01  0.70848402993E+02  0.18687383288E+03  0.90166459774E+02 0.  0.
         11    1    4    4    0    0  0.22026992716E+01 -0.22920444230E+02  0.21375402297E+02  0.31418250606E+02  0.00000000000E+00 0. -1.
        -12    1    4    4    0    0  0.14534474872E+03  0.24367278895E+02  0.49473000696E+02  0.15545558227E+03  0.00000000000E+00 0.  1.
        -13    1    3    3    0    0 -0.30010869223E+02 -0.41013258042E+02 -0.68805956193E+02  0.85539459984E+02  0.00000000000E+00 0. -1.
         13    1    3    3    0    0 -0.10497569996E+03 -0.33778702784E+02 -0.88040669392E+01  0.11062734716E+03  0.00000000000E+00 0.  1.
          4    1    1    2  501    0 -0.12560878810E+02  0.73345126162E+02  0.55121227462E+03  0.55621241886E+03  0.00000000000E+00 0. -1.
<scales pt_clust_5="13000.00000" pt_clust_6="13000.00000" pt_clust_7="13000.00000" pt_clust_8="13000.00000" pt_clust_9="74.41292"></scales>
<clustering>
<clus scale="   74.413">  1  9  2 -1</clus>
<clus scale="   90.166">  5  6 -1 -1</clus>
<clus scale="   92.967">  7  8 -1 -1</clus>
<clus scale="  173.512">  1  5  2 -1</clus>
<clus scale="   74.413">  1  5  2 -1</clus>
</clustering>
</event>
<event>
 9    1  0.7586638E-005  0.1062961E+03  0.7546771E-02  0.1273116E+00
         21   -1    0    0  501  502  0.00000000000E+00  0.00000000000E+00  0.15748827421E+03  0.15748827421E+03  0.00000000000E+00 0. -1.
          3   -1    0    0  502    0 -0.00000000000E+00 -0.00000000000E+00 -0.20641107438E+03  0.20641107438E+03  0.00000000000E+00 0. -1.
         23    2    1    2    0    0  0.58784170603E+02  0.77843558515E+01 -0.10059952060E+03  0.14845708272E+03  0.91668243983E+02 0.  0.
        -24    2    1    2    0    0 -0.35012908987E+02 -0.43928066067E+02 -0.47020238996E+02  0.10768081421E+03  0.78921962017E+02 0.  0.
         13    1    4    4    0    0  0.23229682655E+01 -0.49314548084E+02 -0.49455750277E+02  0.69879840224E+02  0.00000000000E+00 0. -1.
        -14    1    4    4    0    0 -0.37335877252E+02  0.53864820177E+01  0.24355112804E+01  0.37800973981E+02  0.00000000000E+00 0.  1.
        -13    1    3    3    0    0 -0.16948065475E+02 -0.20996955162E+02 -0.35110294479E+02  0.44281393698E+02  0.00000000000E+00 0.  1.
         13    1    3    3    0    0  0.75732236078E+02  0.28781311013E+02 -0.65489226119E+02  0.10417568902E+03  0.00000000000E+00 0. -1.
          4    1    1    2  501    0 -0.23771261616E+02  0.36143710215E+02  0.98696959426E+02  0.10776145167E+03  0.00000000000E+00 0. -1.
<scales pt_clust_5="13000.00000" pt_clust_6="13000.00000" pt_clust_7="13000.00000" pt_clust_8="13000.00000" pt_clust_9="43.26015"></scales>
<clustering>
<clus scale="   43.260">  1  9  2 -1</clus>
<clus scale="   78.922">  5  6 -1 -1</clus>
<clus scale="   91.668">  7  8 -1 -1</clus>
<clus scale="   95.522">  1  5  2 -1</clus>
<clus scale="   43.260">  1  5  2 -1</clus>
</clustering>
</event>
<event>
 9    1  0.7586638E-005  0.9634502E+02  0.7546771E-02  0.1296256E+00
         21   -1    0    0  501  502  0.00000000000E+00  0.00000000000E+00  0.45529719331E+03  0.45529719331E+03  0.00000000000E+00 0.  1.
         -4   -1    0    0    0  501 -0.00000000000E+00 -0.00000000000E+00 -0.57421801492E+02  0.57421801492E+02  0.00000000000E+00 0.  1.
        -24    2    1    2    0    0  0.11192963082E+02 -0.16433665831E+02  0.29029784104E+02  0.83599044087E+02  0.75833528284E+02 0.  0.
         23    2    1    2    0    0 -0.86141173199E+02  0.52231234522E+01  0.13808135588E+03  0.18623098352E+03  0.90376632171E+02 0.  0.
         13    1    3    3    0    0 -0.20167557279E+02 -0.30153867354E+02 -0.34133295134E+01  0.36436752070E+02  0.00000000000E+00 0. -1.
        -14    1    3    3    0    0  0.31360520361E+02  0.13720201524E+02  0.32443113618E+02  0.47162292018E+02  0.00000000000E+00 0.  1.
        -13    1    4    4    0    0 -0.45251572025E+02  0.25878722762E+02  0.12953404844E+03  0.13962980616E+03  0.00000000000E+00 0. -1.
         13    1    4    4    0    0 -0.40889601173E+02 -0.20655599310E+02  0.85473074385E+01  0.46601177361E+02  0.00000000000E+00 0.  1.
         -3    1    1    2    0  502  0.74948210116E+02  0.11210542378E+02  0.23076425184E+03  0.24288896720E+03  0.00000000000E+00 0.  1.
<scales pt_clust_5="13000.00000" pt_clust_6="13000.00000" pt_clust_7="13000.00000" pt_clust_8="13000.00000" pt_clust_9="75.78199"></scales>
<clustering>
<clus scale="   75.782">  1  9  2 -1</clus>
<clus scale="   75.834">  5  6 -1 -1</clus>
<clus scale="   82.856">  2  5  1 -1</clus>
<clus scale="   90.377">  7  8 -1 -1</clus>
<clus scale="   75.782">  1  5  2 -1</clus>
</clustering>
</event>
<event>
 9    1  0.7586638E-005  0.1299341E+03  0.7546771E-02  0.1231351E+00
          1   -1    0    0  502    0 -0.00000000000E+00  0.00000000000E+00  0.51410910024E+03  0.51410910024E+03  0.00000000000E+00 0. -1.
         21   -1    0    0  501  502  0.00000000000E+00 -0.00000000000E+00 -0.74183129594E+02  0.74183129594E+02  0.00000000000E+00 0.  1.
         23    2    1    2    0    0 -0.72113206714E+02  0.29604780831E+01  0.15134789627E+03  0.19150827985E+03  0.92521113995E+02 0.  0.
        -24    2    1    2    0    0  0.13759218741E+03  0.13383637680E+02  0.80511897582E+02  0.17804629671E+03  0.78151048141E+02 0.  0.
         11    1    4    4    0    0  0.45347875915E+02  0.11276696565E+02  0.71396042563E+02  0.85328709290E+02  0.00000000000E+00 0. -1.
        -12    1    4    4    0    0  0.92244311494E+02  0.21069411148E+01  0.91158550189E+01  0.92717587418E+02  0.00000000000E+00 0.  1.
        -11    1    3    3    0    0 -0.63188674399E+02 -0.37826026534E+02  0.79189856238E+02  0.10814180592E+03  0.00000000000E+00 0. -1.
         11    1    3    3    0    0 -0.89245323151E+01  0.40786504617E+02  0.72158040030E+02  0.83366473939E+02  0.00000000000E+00 0.  1.
          2    1    1    2  501    0 -0.65478980694E+02 -0.16344115763E+02  0.20806617679E+03  0.21873765327E+03  0.00000000000E+00 0. -1.
<scales pt_clust_5="13000.00000" pt_clust_6="13000.00000" pt_clust_7="13000.00000" pt_clust_8="13000.00000" pt_clust_9="67.48801"></scales>
<clustering>
<clus scale="   67.488">  2  9  1 -1</clus>
<clus scale="   78.151">  5  6 -1 -1</clus>
<clus scale="   92.521">  7  8 -1 -1</clus>
<clus scale="  120.126">  2  5  1 -1</clus>
<clus scale="   67.488">  2  5  1 -1</clus>
</clustering>
</event>
<event>
 9    1  0.7586638E-005  0.2311577E+03  0.7546771E-02  0.1157493E+00
         21   -1    0    0  501  502  0.00000000000E+00  0.00000000000E+00  0.65599987811E+03  0.65599987811E+03  0.00000000000E+00 0.  1.
         -4   -1    0    0    0  501 -0.00000000000E+00 -0.00000000000E+00 -0.38934667486E+03  0.38934667486E+03  0.00000000000E+00 0.  1.
        -24    2    1    2    0    0  0.25326579930E+02  0.65437678689E+02  0.10226660739E+03  0.14868038976E+03  0.81999230917E+02 0.  0.
         23    2    1    2    0    0 -0.21533199902E+03  0.34872614771E+02 -0.30242684290E+03  0.38277998820E+03  0.86455508757E+02 0.  0.
         11    1    3    3    0    0 -0.10096953994E+02  0.67267566803E+02  0.86023758709E+02  0.10966750241E+03  0.00000000000E+00 0. -1.
        -12    1    3    3    0    0  0.35423533924E+02 -0.18298881143E+01  0.16242848679E+02  0.39012887350E+02  0.00000000000E+00 0.  1.
        -11    1    4    4    0    0 -0.72826485692E+02  0.47949517922E+02 -0.15146353286E+03  0.17476857576E+03  0.00000000000E+00 0.  1.
         11    1    4    4    0    0 -0.14250551333E+03 -0.13076903151E+02 -0.15096331004E+03  0.20801141244E+03  0.00000000000E+00 0. -1.
         -3    1    1    2    0  502  0.19000541909E+03 -0.10031029346E+03  0.46681343875E+03  0.51388617501E+03  0.00000000000E+00 0.  1.
<scales pt_clust_5="13000.00000" pt_clust_6="13000.00000" pt_clust_7="13000.00000" pt_clust_8="13000.00000" pt_clust_9="214.38127"></scales>
<clustering>
<clus scale="   81.999">  5  6 -1 -1</clus>
<clus scale="   86.456">  7  8 -1 -1</clus>
<clus scale="  107.923">  2  5  1 -1</clus>
<clus scale="  214.381">  1  9  2 -1</clus>
<clus scale="  214.381">  1  5  2 -1</clus>
</clustering>
</event>
<event>
 9    1  0.7586638E-005  0.9308368E+02  0.7546771E-02  0.1300871E+00
          1   -1    0    0  502    0 -0.00000000000E+00  0.00000000000E+00  0.41230499567E+03  0.41230499567E+03  0.00000000000E+00 0. -1.
         21   -1    0    0  501  502  0.00000000000E+00 -0.00000000000E+00 -0.38490417917E+02  0.38490417917E+02  0.00000000000E+00 0. -1.
         23    2    1    2    0    0  0.72620761609E+01  0.26005432102E+02  0.30545520122E+03  0.31967008644E+03  0.90316465625E+02 0.  0.
        -24    2    1    2    0    0  0.83791477987E+01 -0.12666712202E+02  0.72698196959E+02  0.11011593168E+03  0.81300890852E+02 0.  0.
         11    1    4    4    0    0  0.25220510420E+02  0.16799641164E+02  0.46554463837E+00  0.30307075426E+02  0.00000000000E+00 0. -1.
        -12    1    4    4    0    0 -0.16841362621E+02 -0.29466353366E+02  0.72232652320E+02  0.79808856256E+02  0.00000000000E+00 0.  1.
        -13    1    3    3    0    0 -0.32145314830E+02  0.34427917317E+02  0.10321977048E+03  0.11345890786E+03  0.00000000000E+00 0.  1.
         13    1    3    3    0    0  0.39407390991E+02 -0.84224852152E+01  0.20223543074E+03  0.20621117857E+03  0.00000000000E+00 0. -1.
          2    1    1    2  501    0 -0.15641223960E+02 -0.13338719900E+02 -0.43388204174E+01  0.21009395473E+02  0.00000000000E+00 0. -1.
<scales pt_clust_5="13000.00000" pt_clust_6="13000.00000" pt_clust_7="13000.00000" pt_clust_8="13000.00000" pt_clust_9="20.55649"></scales>
<clustering>
<clus scale="   20.556">  2  9  1 -1</clus>
<clus scale="   81.301">  5  6 -1 -1</clus>
<clus scale="   84.364">  2  5  1 -1</clus>
<clus scale="   90.316">  7  8 -1 -1</clus>
<clus scale="   20.556">  2  5  1 -1</clus>
</clustering>
</event>
<event>
 9    1  0.7586638E-005  0.2498217E+03  0.7546771E-02  0.1114275E+00
          1   -1    0    0  502    0 -0.00000000000E+00  0.00000000000E+00  0.14537613596E+04  0.14537613596E+04  0.00000000000E+00 0. -1.
         21   -1    0    0  501  502  0.00000000000E+00 -0.00000000000E+00 -0.73349915830E+02  0.73349915830E+02  0.00000000000E+00 0. -1.
        -24    2    1    2    0    0 -0.14151478435E+02  0.23021091355E+03  0.47656806782E+03  0.53494316566E+03  0.76483580973E+02 0.  0.
         23    2    1    2    0    0 -0.63546221625E+02 -0.23331394261E+03  0.36322580901E+03  0.44598689894E+03  0.92183553816E+02 0.  0.
         11    1    3    3    0    0 -0.27676167483E+02  0.10276899554E+03  0.28718708014E+03  0.30627415120E+03  0.00000000000E+00 0. -1.
        -12    1    3    3    0    0  0.13524689047E+02  0.12744191802E+03  0.18938098768E+03  0.22866901446E+03  0.00000000000E+00 0.  1.
        -13    1    4    4    0    0 -0.11765513775E+02 -0.71964553997E+02  0.19067427754E+03  0.20414211830E+03  0.00000000000E+00 0.  1.
         13    1    4    4    0    0 -0.51780707850E+02 -0.16134938861E+03  0.17255153147E+03  0.24184478064E+03  0.00000000000E+00 0. -1.
          2    1    1    2  501    0  0.77697700060E+02  0.31030290571E+01  0.54061756693E+03  0.54618121082E+03  0.00000000000E+00 0. -1.
<scales pt_clust_5="13000.00000" pt_clust_6="13000.00000" pt_clust_7="13000.00000" pt_clust_8="13000.00000" pt_clust_9="77.75968"></scales>
<clustering>
<clus scale="   76.484">  5  6 -1 -1</clus>
<clus scale="   77.760">  2  9  1 -1</clus>
<clus scale="   92.184">  7  8 -1 -1</clus>
<clus scale="  244.464">  1  5  2 -1</clus>
<clus scale="   77.760">  2  5  1 -1</clus>
</clustering>
</event>
<event>
 9    1  0.7586638E-005  0.2286098E+03  0.7546771E-02  0.1151581E+00
          1   -1    0    0  502    0 -0.00000000000E+00  0.00000000000E+00  0.17086412952E+04  0.17086412952E+04  0.00000000000E+00 0. -1.
         21   -1    0    0  501  502  0.00000000000E+00 -0.00000000000E+00 -0.56427246856E+02  0.56427246856E+02  0.00000000000E+00 0. -1.
        -24    2    1    2    0    0 -0.77977252355E+02 -0.59527253413E+02  0.16082454187E+03  0.20567279334E+03  0.82539801715E+02 0.  0.
         23    2    1    2    0    0 -0.54447439966E+02 -0.16375776749E+03  0.64458964652E+03  0.67369687070E+03  0.92685117812E+02 0.  0.
         11    1    3    3    0    0 -0.48175970975E+02 -0.44676266405E+02  0.32888426094E+02  0.73474767984E+02  0.00000000000E+00 0. -1.
        -12    1    3    3    0    0 -0.29801281380E+02 -0.14850987008E+02  0.12793611578E+03  0.13219802535E+03  0.00000000000E+00 0.  1.
        -11    1    4    4    0    0 -0.85380696738E+00 -0.11598535233E+03  0.29858687304E+03  0.32032397927E+03  0.00000000000E+00 0. -1.
         11    1    4    4    0    0 -0.53593632999E+02 -0.47772415168E+02  0.34600277347E+03  0.35337289143E+03  0.00000000000E+00 0.  1.
          2    1    1    2  501    0  0.13242469232E+03  0.22328502091E+03  0.84679985993E+03  0.88569887799E+03  0.00000000000E+00 0. -1.
<scales pt_clust_5="13000.00000" pt_clust_6="13000.00000" pt_clust_7="13000.00000" pt_clust_8="13000.00000" pt_clust_9="208.97831"></scales>
<clustering>
<clus scale="   82.540">  5  6 -1 -1</clus>
<clus scale="   92.685">  7  8 -1 -1</clus>
<clus scale="  128.206">  1  5  2 -1</clus>
<clus scale="  208.978">  2  9  1 -1</clus>
<clus scale="  208.978">  2  5  1 -1</clus>
</clustering>
</event>
<event>
 9    1  0.7586638E-005  0.2399983E+03  0.7546771E-02  0.1120415E+00
          3   -1    0    0  502    0 -0.00000000000E+00  0.00000000000E+00  0.48641737439E+03  0.48641737439E+03  0.00000000000E+00 0. -1.
         21   -1    0    0  501  502  0.00000000000E+00 -0.00000000000E+00 -0.72411776382E+03  0.72411776382E+03  0.00000000000E+00 0.  1.
         23    2    1    2    0    0 -0.20993265931E+03  0.91987527910E+02  0.25715622020E+03  0.35636100631E+03  0.91271126296E+02 0.  0.
        -24    2    1    2    0    0  0.12743694504E+03 -0.22856447465E+02 -0.64868689469E+03  0.66642854405E+03  0.81053839120E+02 0.  0.
         11    1    4    4    0    0  0.32723662398E+02 -0.42806349638E+02 -0.28701414655E+03  0.29202798148E+03  0.00000000000E+00 0. -1.
        -12    1    4    4    0    0  0.94713282640E+02  0.19949902173E+02 -0.36167274813E+03  0.37440056256E+03  0.00000000000E+00 0.  1.
        -13    1    3    3    0    0 -0.68447457972E+02  0.19496191016E+02  0.25908099473E+02  0.75738930447E+02  0.00000000000E+00 0.  1.
         13    1    3    3    0    0 -0.14148520133E+03  0.72491336895E+02  0.23124812072E+03  0.28062207586E+03  0.00000000000E+00 0. -1.
          4    1    1    2  501    0  0.82495714269E+02 -0.69131080445E+02  0.15383028506E+03  0.18774558785E+03  0.00000000000E+00 0. -1.
<scales pt_clust_5="13000.00000" pt_clust_6="13000.00000" pt_clust_7="13000.00000" pt_clust_8="13000.00000" pt_clust_9="107.63206"></scales>
<clustering>
<clus scale="   81.054">  5  6 -1 -1</clus>
<clus scale="   91.271">  7  8 -1 -1</clus>
<clus scale="  107.632">  2  9  1 -1</clus>
<clus scale="  236.302">  2  5  1 -1</clus>
<clus scale="  107.632">  2  5  1 -1</clus>
</clustering>
</event>
<event>
 9    1  0.7586638E-005  0.1158956E+03  0.7546771E-02  0.1255072E+00
          1   -1    0    0  502    0 -0.00000000000E+00  0.00000000000E+00  0.21863691314E+03  0.21863691314E+03  0.00000000000E+00 0. -1.
         21   -1    0    0  501  502  0.00000000000E+00 -0.00000000000E+00 -0.18758181234E+03  0.18758181234E+03  0.00000000000E+00 0. -1.
        -24    2    1    2    0    0 -0.46304263414E+02  0.51573651452E+02  0.17037784623E+03  0.19956296107E+03  0.77413426547E+02 0.  0.
         23    2    1    2    0    0  0.69659445692E+02 -0.48107941736E+02 -0.96848070892E+02  0.15805973927E+03  0.91850530263E+02 0.  0.
         13    1    3    3    0    0  0.11351683830E+02  0.44065247501E+02  0.67840605249E+02  0.81688153876E+02  0.00000000000E+00 0. -1.
        -14    1    3    3    0    0 -0.57655947243E+02  0.75084039507E+01  0.10253724098E+03  0.11787480719E+03  0.00000000000E+00 0.  1.
        -11    1    4    4    0    0 -0.11969576325E+02 -0.36556875978E+02 -0.50502386993E+02  0.63483596548E+02  0.00000000000E+00 0.  1.
         11    1    4    4    0    0  0.81629022017E+02 -0.11551065757E+02 -0.46345683899E+02  0.94576142719E+02  0.00000000000E+00 0. -1.
          2    1    1    2  501    0 -0.23355182278E+02 -0.34657097162E+01 -0.42474674536E+02  0.48596025147E+02  0.00000000000E+00 0. -1.
<scales pt_clust_5="13000.00000" pt_clust_6="13000.00000" pt_clust_7="13000.00000" pt_clust_8="13000.00000" pt_clust_9="23.61092"></scales>
<clustering>
<clus scale="   23.611">  2  9  1 -1</clus>
<clus scale="   77.413">  5  6 -1 -1</clus>
<clus scale="   91.851">  7  8 -1 -1</clus>
<clus scale="  104.824">  1  5  2 -1</clus>
<clus scale="   23.611">  2  5  1 -1</clus>
</clustering>
</event>
<event>
 9    1  0.7586638E-005  0.1006463E+03  0.7546771E-02  0.1279283E+00
          3   -1    0    0  502    0 -0.00000000000E+00  0.00000000000E+00  0.21927082028E+03  0.21927082028E+03  0.00000000000E+00 0. -1.
         21   -1    0    0  501  502  0.00000000000E+00 -0.00000000000E+00 -0.23468674939E+03  0.23468674939E+03  0.00000000000E+00 0. -1.
         23    2    1    2    0    0  0.41659328068E+02  0.37862779636E+02  0.11547300765E+03  0.15921806514E+03  0.94060018470E+02 0.  0.
        -24    2    1    2    0    0 -0.24828951059E+02  0.60706550867E+02  0.27660059024E+02  0.10729095541E+03  0.80277693785E+02 0.  0.
         11    1    4    4    0    0 -0.23142709547E+02  0.23079241681E+02  0.52735413063E+02  0.62042406407E+02  0.00000000000E+00 0. -1.
        -12    1    4    4    0    0 -0.16862415122E+01  0.37627309186E+02 -0.25075354039E+02  0.45248549007E+02  0.00000000000E+00 0.  1.
        -13    1    3    3    0    0 -0.45337713547E+01  0.32603182082E+02 -0.19010335165E+01  0.32971752956E+02  0.00000000000E+00 0. -1.
         13    1    3    3    0    0  0.46193099423E+02  0.52595975539E+01  0.11737404116E+03  0.12624631218E+03  0.00000000000E+00 0.  1.
          4    1    1    2  501    0 -0.16830377008E+02 -0.98569330503E+02 -0.15854899578E+03  0.18744854912E+03  0.00000000000E+00 0. -1.
<scales pt_clust_5="13000.00000" pt_clust_6="13000.00000" pt_clust_7="13000.00000" pt_clust_8="13000.00000" pt_clust_9="99.99587"></scales>
<clustering>
<clus scale="   80.278">  5  6 -1 -1</clus>
<clus scale="   94.060">  7  8 -1 -1</clus>
<clus scale="   99.996">  2  9  1 -1</clus>
<clus scale="   99.996">  2  5  1 -1</clus>
<clus scale="   99.996">  2  5  1 -1</clus>
</clustering>
</event>
<event>
 9    1  0.7586638E-005  0.9268380E+02  0.7546771E-02  0.1302094E+00
         -2   -1    0    0    0  501 -0.00000000000E+00  0.00000000000E+00  0.17104189007E+03  0.17104189007E+03  0.00000000000E+00 0.  1.
         21   -1    0    0  501  502  0.00000000000E+00 -0.00000000000E+00 -0.13346682325E+03  0.13346682325E+03  0.00000000000E+00 0. -1.
         23    2    1    2    0    0 -0.43654827170E+02 -0.70773206964E+01 -0.13838448210E+01  0.10095460188E+03  0.90741854789E+02 0.  0.
        -24    2    1    2    0    0 -0.19207499064E+02  0.66930662742E+01 -0.47684698197E+02  0.96507697036E+02  0.81401351270E+02 0.  0.
         13    1    4    4    0    0 -0.45000645222E+02  0.11683602052E+02 -0.55076684178E+01  0.46817721417E+02  0.00000000000E+00 0. -1.
        -14    1    4    4    0    0  0.25793146157E+02 -0.49905357780E+01 -0.42177029779E+02  0.49689975620E+02  0.00000000000E+00 0.  1.
        -11    1    3    3    0    0 -0.22565770397E+02 -0.10365788988E+02  0.44156708898E+02  0.50660423564E+02  0.00000000000E+00 0.  1.
         11    1    3    3    0    0 -0.21089056773E+02  0.32884682917E+01 -0.45540553719E+02  0.50294178315E+02  0.00000000000E+00 0. -1.
         -1    1    1    2    0  502  0.62862326234E+02  0.38425442211E+00  0.86643609843E+02  0.10704641441E+03  0.00000000000E+00 0.  1.
<scales pt_clust_5="13000.00000" pt_clust_6="13000.00000" pt_clust_7="13000.00000" pt_clust_8="13000.00000" pt_clust_9="62.86353"></scales>
<clustering>
<clus scale="   62.864">  2  9  1 -1</clus>
<clus scale="   81.401">  5  6 -1 -1</clus>
<clus scale="   83.561">  2  5  1 -1</clus>
<clus scale="   90.742">  7  8 -1 -1</clus>
<clus scale="   62.864">  2  5  1 -1</clus>
</clustering>
</event>
<event>
 9    1  0.7586638E-005  0.1520856E+03  0.7546771E-02  0.1224866E+00
         21   -1    0    0  501  502  0.00000000000E+00  0.00000000000E+00  0.37382550819E+03  0.37382550819E+03  0.00000000000E+00 0. -1.
          1   -1    0    0  502    0 -0.00000000000E+00 -0.00000000000E+00 -0.90600991566E+02  0.90600991566E+02  0.00000000000E+00 0. -1.
        -24    2    1    2    0    0  0.16593323449E+02  0.24702099449E+02  0.68663722055E+02  0.10979885321E+03  0.80346433271E+02 0.  0.
         23    2    1    2    0    0 -0.16860618215E+01 -0.13982313007E+03  0.10854068103E+03  0.19741650630E+03  0.87400497792E+02 0.  0.
         11    1    3    3    0    0 -0.23382232500E+02  0.63810764257E+01  0.60364552798E+02  0.65048644625E+02  0.00000000000E+00 0. -1.
        -12    1    3    3    0    0  0.39975555949E+02  0.18321023023E+02  0.82991692572E+01  0.44750208585E+02  0.00000000000E+00 0.  1.
        -11    1    4    4    0    0  0.37929145493E+01 -0.46069658771E+02 -0.88680013244E+01  0.47068472543E+02  0.00000000000E+00 0.  1.
         11    1    4    4    0    0 -0.54789763709E+01 -0.93753471304E+02  0.11740868235E+03  0.15034803376E+03  0.00000000000E+00 0. -1.
          2    1    1    2  501    0 -0.14907261627E+02  0.11512103063E+03  0.10602011354E+03  0.15721114025E+03  0.00000000000E+00 0. -1.
<scales pt_clust_5="13000.00000" pt_clust_6="13000.00000" pt_clust_7="13000.00000" pt_clust_8="13000.00000" pt_clust_9="124.46357"></scales>
<clustering>
<clus scale="   80.346">  5  6 -1 -1</clus>
<clus scale="   85.680">  2  5  1 -1</clus>
<clus scale="   87.400">  7  8 -1 -1</clus>
<clus scale="  124.464">  1  9  2 -1</clus>
<clus scale="  124.464">  1  5  2 -1</clus>
</clustering>
</event>
<event>
 9    1  0.7586638E-005  0.2658352E+03  0.7546771E-02  0.1104242E+00
         -4   -1    0    0    0  501 -0.00000000000E+00  0.00000000000E+00  0.54137674976E+03  0.54137674976E+03  0.00000000000E+00 0.  1.
         21   -1    0    0  501  502  0.00000000000E+00 -0.00000000000E+00 -0.14834348102E+03  0.14834348102E+03  0.00000000000E+00 0.  1.
         23    2    1    2    0    0  0.22060493771E+03 -0.68230305362E+02  0.18420844536E+03  0.30904471264E+03  0.90851361881E+02 0.  0.
        -24    2    1    2    0    0 -0.25571798296E+03  0.65094609164E+02  0.19157473830E+03  0.34142855683E+03  0.10121059290E+03 0.  0.
         13    1    4    4    0    0 -0.52462337235E+01  0.28835007838E+02  0.15832528297E+02  0.33311403416E+02  0.00000000000E+00 0. -1.
        -14    1    4    4    0    0 -0.25047174923E+03  0.36259601326E+02  0.17574221001E+03  0.30811715342E+03  0.00000000000E+00 0.  1.
        -13    1    3    3    0    0  0.14138721696E+03 -0.57970989962E+02  0.66177681642E+02  0.16652467188E+03  0.00000000000E+00 0.  1.
         13    1    3    3    0    0  0.79217720746E+02 -0.10259315400E+02  0.11803076372E+03  0.14252004076E+03  0.00000000000E+00 0. -1.
         -3    1    1    2    0  502  0.35113045247E+02  0.31356961978E+01  0.17250085067E+02  0.39246961309E+02  0.00000000000E+00 0.  1.
<scales pt_clust_5="13000.00000" pt_clust_6="13000.00000" pt_clust_7="13000.00000" pt_clust_8="13000.00000" pt_clust_9="35.25278"></scales>
<clustering>
<clus scale="   35.253">  2  9  1 -1</clus>
<clus scale="   90.851">  7  8 -1 -1</clus>
<clus scale="  101.211">  5  6 -1 -1</clus>
<clus scale="  262.066">  1  7  2 -1</clus>
<clus scale="   35.253">  2  5  1 -1</clus>
</clustering>
</event>
<event>
 9    1  0.7586638E-005  0.1078494E+03  0.7546771E-02  0.1270282E+00
         21   -1    0    0  501  502  0.00000000000E+00  0.00000000000E+00  0.17706231564E+03  0.17706231564E+03  0.00000000000E+00 0. -1.
         -2   -1    0    0    0  501 -0.00000000000E+00 -0.00000000000E+00 -0.19103270895E+03  0.19103270895E+03  0.00000000000E+00 0.  1.
        -24    2    1    2    0    0  0.31362434329E+02 -0.20415277938E+02  0.24595207726E+02  0.91074620839E+02  0.79304958594E+02 0.  0.
         23    2    1    2    0    0 -0.95854190548E+02 -0.21847119310E+01  0.68565382300E+02  0.14994958195E+03  0.92686928234E+02 0.  0.
         11    1    3    3    0    0  0.13596017029E+02 -0.32461443524E+02  0.47868610010E+02  0.59413810002E+02  0.00000000000E+00 0. -1.
        -12    1    3    3    0    0  0.17766417300E+02  0.12046165586E+02 -0.23273402284E+02  0.31660810837E+02  0.00000000000E+00 0.  1.
        -13    1    4    4    0    0 -0.53182239106E+02  0.44503590313E+02  0.43814971407E+02  0.82028481800E+02  0.00000000000E+00 0. -1.
         13    1    4    4    0    0 -0.42671951442E+02 -0.46688302244E+02  0.24750410893E+02  0.67921100151E+02  0.00000000000E+00 0.  1.
         -1    1    1    2    0  502  0.64491756219E+02  0.22599989869E+02 -0.10713098334E+03  0.12707082180E+03  0.00000000000E+00 0.  1.
<scales pt_clust_5="13000.00000" pt_clust_6="13000.00000" pt_clust_7="13000.00000" pt_clust_8="13000.00000" pt_clust_9="68.33704"></scales>
<clustering>
<clus scale="   68.337">  1  9  2 -1</clus>
<clus scale="   79.305">  5  6 -1 -1</clus>
<clus scale="   92.687">  7  8 -1 -1</clus>
<clus scale="   96.591">  2  5  1 -1</clus>
<clus scale="   68.337">  1  5  2 -1</clus>
</clustering>
</event>
<event>
 9    1  0.7586638E-005  0.1104460E+03  0.7546771E-02  0.1265474E+00
          1   -1    0    0  502    0 -0.00000000000E+00  0.00000000000E+00  0.35660355993E+03  0.35660355993E+03  0.00000000000E+00 0. -1.
         21   -1    0    0  501  502  0.00000000000E+00 -0.00000000000E+00 -0.57970477540E+02  0.57970477540E+02  0.00000000000E+00 0. -1.
         23    2    1    2    0    0 -0.36190730449E+02 -0.49967259414E+02  0.13327825778E+03  0.17402388714E+03  0.93352682430E+02 0.  0.
        -24    2    1    2    0    0 -0.25794263317E+02  0.69013800169E+02  0.86618986820E+02  0.13854896249E+03  0.79149968387E+02 0.  0.
         11    1    4    4    0    0 -0.36063788124E+02  0.52780674339E+02  0.16743522650E+02  0.66081328288E+02  0.00000000000E+00 0. -1.
        -12    1    4    4    0    0  0.10269524807E+02  0.16233125830E+02  0.69875464170E+02  0.72467634203E+02  0.00000000000E+00 0.  1.
        -11    1    3    3    0    0  0.25892113416E+02 -0.12618303637E+02  0.90138182964E+01  0.30180656787E+02  0.00000000000E+00 0.  1.
         11    1    3    3    0    0 -0.62082843865E+02 -0.37348955778E+02  0.12426443948E+03  0.14384323036E+03  0.00000000000E+00 0. -1.
          2    1    1    2  501    0  0.61984993766E+02 -0.19046540754E+02  0.78735837789E+02  0.10200118783E+03  0.00000000000E+00 0. -1.
<scales pt_clust_5="13000.00000" pt_clust_6="13000.00000" pt_clust_7="13000.00000" pt_clust_8="13000.00000" pt_clust_9="64.84531"></scales>
<clustering>
<clus scale="   64.845">  2  9  1 -1</clus>
<clus scale="   79.150">  5  6 -1 -1</clus>
<clus scale="   93.353">  7  8 -1 -1</clus>
<clus scale="   98.734">  2  5  1 -1</clus>
<clus scale="   64.845">  2  5  1 -1</clus>
</clustering>
</event>
<event>
 9    1  0.7586638E-005  0.1673047E+03  0.7546771E-02  0.1182274E+00
         -2   -1    0    0    0  501 -0.00000000000E+00  0.00000000000E+00  0.28230180825E+03  0.28230180825E+03  0.00000000000E+00 0.  1.
         21   -1    0    0  501  502  0.00000000000E+00 -0.00000000000E+00 -0.17292369443E+03  0.17292369443E+03  0.00000000000E+00 0. -1.
         23    2    1    2    0    0  0.11295486701E+03  0.59064925147E+02  0.43529255265E+02  0.16253346653E+03  0.90966281188E+02 0.  0.
        -24    2    1    2    0    0 -0.99745080805E+02 -0.13877588500E+03  0.18724738590E+00  0.18857775877E+03  0.79710153923E+02 0.  0.
         13    1    4    4    0    0 -0.82083934060E+02 -0.13896387319E+03 -0.18986260391E+02  0.16250910241E+03  0.00000000000E+00 0. -1.
        -14    1    4    4    0    0 -0.17661146744E+02  0.18798818931E+00  0.19173507776E+02  0.26068656359E+02  0.00000000000E+00 0.  1.
        -13    1    3    3    0    0  0.25319104615E+02 -0.23282258738E+02  0.20659072317E+02  0.40123782217E+02  0.00000000000E+00 0.  1.
         13    1    3    3    0    0  0.87635762398E+02  0.82347183885E+02  0.22870182948E+02  0.12240968431E+03  0.00000000000E+00 0. -1.
         -1    1    1    2    0  502 -0.13209786208E+02  0.79710959853E+02  0.65661611175E+02  0.10411427738E+03  0.00000000000E+00 0.  1.
<scales pt_clust_5="13000.00000" pt_clust_6="13000.00000" pt_clust_7="13000.00000" pt_clust_8="13000.00000" pt_clust_9="80.79816"></scales>
<clustering>
<clus scale="   79.710">  5  6 -1 -1</clus>
<clus scale="   80.798">  2  9  1 -1</clus>
<clus scale="   90.966">  7  8 -1 -1</clus>
<clus scale="  161.461">  2  5  1 -1</clus>
<clus scale="   80.798">  2  5  1 -1</clus>
</clustering>
</event>
<event>
 9    1  0.7586638E-005  0.1198081E+03  0.7546771E-02  0.1247796E+00
          3   -1    0    0  502    0 -0.00000000000E+00  0.00000000000E+00  0.71963481648E+02  0.71963481648E+02  0.00000000000E+00 0. -1.
         21   -1    0    0  501  502  0.00000000000E+00 -0.00000000000E+00 -0.95841157289E+03  0.95841157289E+03  0.00000000000E+00 0.  1.
         23    2    1    2    0    0  0.37446407104E-01  0.76637036158E+02  0.51194832956E+01  0.11980195103E+03  0.91940533213E+02 0.  0.
        -24    2    1    2    0    0  0.49794492821E+02 -0.78139850315E+02 -0.76466806039E+03  0.77423174035E+03  0.78308476318E+02 0.  0.
         11    1    4    4    0    0 -0.15270487249E+02 -0.40504333948E+02 -0.20357304226E+03  0.20812441563E+03  0.00000000000E+00 0. -1.
        -12    1    4    4    0    0  0.65064980070E+02 -0.37635516367E+02 -0.56109501813E+03  0.56610732471E+03  0.00000000000E+00 0.  1.
        -11    1    3    3    0    0  0.23318172011E+02  0.51695313491E+02 -0.35383207178E+02  0.66843952105E+02  0.00000000000E+00 0.  1.
         11    1    3    3    0    0 -0.23280725604E+02  0.24941722667E+02  0.40502690474E+02  0.52957998922E+02  0.00000000000E+00 0. -1.
          4    1    1    2  501    0 -0.49831939228E+02  0.15028141575E+01 -0.12689951416E+03  0.13634136317E+03  0.00000000000E+00 0. -1.
<scales pt_clust_5="13000.00000" pt_clust_6="13000.00000" pt_clust_7="13000.00000" pt_clust_8="13000.00000" pt_clust_9="49.85459"></scales>
<clustering>
<clus scale="   49.855">  2  9  1 -1</clus>
<clus scale="   78.308">  5  6 -1 -1</clus>
<clus scale="   91.941">  7  8 -1 -1</clus>
<clus scale="  109.696">  2  5  1 -1</clus>
<clus scale="   49.855">  2  5  1 -1</clus>
</clustering>
</event>
<event>
 9    1  0.7586638E-005  0.1484278E+03  0.7546771E-02  0.1212831E+00
         21   -1    0    0  501  502  0.00000000000E+00  0.00000000000E+00  0.10908065679E+03  0.10908065679E+03  0.00000000000E+00 0. -1.
          1   -1    0    0  502    0 -0.00000000000E+00 -0.00000000000E+00 -0.38137972293E+03  0.38137972293E+03  0.00000000000E+00 0. -1.
        -24    2    1    2    0    0  0.19746463847E+02  0.86719112530E+02 -0.43619718402E+02  0.12648808353E+03  0.78653850065E+02 0.  0.
         23    2    1    2    0    0  0.90769400735E+02  0.18034818993E+02 -0.13430405998E+03  0.18482476638E+03  0.86938339855E+02 0.  0.
         11    1    3    3    0    0  0.14765609439E+02  0.10145749036E+03 -0.42181611940E+02  0.11086448466E+03  0.00000000000E+00 0. -1.
        -12    1    3    3    0    0  0.49808544074E+01 -0.14738377830E+02 -0.14381064620E+01  0.15623598877E+02  0.00000000000E+00 0.  1.
        -11    1    4    4    0    0  0.77040491451E+02 -0.57899616605E+01 -0.40816168624E+02  0.87376888249E+02  0.00000000000E+00 0. -1.
         11    1    4    4    0    0  0.13728909284E+02  0.23824780654E+02 -0.93487891352E+02  0.97447878134E+02  0.00000000000E+00 0.  1.
          2    1    1    2  501    0 -0.11051586458E+03 -0.10475393152E+03 -0.94375287761E+02  0.17914752980E+03  0.00000000000E+00 0. -1.
<scales pt_clust_5="13000.00000" pt_clust_6="13000.00000" pt_clust_7="13000.00000" pt_clust_8="13000.00000" pt_clust_9="120.30197"></scales>
<clustering>
<clus scale="   78.654">  5  6 -1 -1</clus>
<clus scale="   86.938">  7  8 -1 -1</clus>
<clus scale="  118.729">  2  5  1 -1</clus>
<clus scale="  120.302">  1  9  2 -1</clus>
<clus scale="  120.302">  1  5  2 -1</clus>
</clustering>
</event>
<event>
 9    1  0.7586638E-005  0.9854076E+02  0.7546771E-02  0.1288802E+00
          1   -1    0    0  502    0 -0.00000000000E+00  0.00000000000E+00  0.20053068350E+03  0.20053068350E+03  0.00000000000E+00 0. -1.
         21   -1    0    0  501  502  0.00000000000E+00 -0.00000000000E+00 -0.87599957241E+02  0.87599957241E+02  0.00000000000E+00 0.  1.
         23    2    1    2    0    0 -0.92577265695E+01  0.31971288731E+02  0.12002244038E+03  0.15441712971E+03  0.91276475328E+02 0.  0.
        -24    2    1    2    0    0  0.30654202894E+02 -0.44012541935E+02 -0.28495145290E+02  0.10114193073E+03  0.80876033800E+02 0.  0.
         11    1    4    4    0    0  0.19353765331E+02 -0.85961705479E+01  0.27019516139E+02  0.34329530043E+02  0.00000000000E+00 0. -1.
        -12    1    4    4    0    0  0.11300437563E+02 -0.35416371387E+02 -0.55514661430E+02  0.66812400683E+02  0.00000000000E+00 0.  1.
        -13    1    3    3    0    0  0.28943647682E+02  0.17766872504E+01  0.95680557143E+02  0.99978299515E+02  0.00000000000E+00 0.  1.
         13    1    3    3    0    0 -0.38201374251E+02  0.30194601480E+02  0.24341883235E+02  0.54438830192E+02  0.00000000000E+00 0. -1.
          2    1    1    2  501    0 -0.21396476324E+02  0.12041253204E+02  0.21403431171E+02  0.32571580307E+02  0.00000000000E+00 0. -1.
<scales pt_clust_5="13000.00000" pt_clust_6="13000.00000" pt_clust_7="13000.00000" pt_clust_8="13000.00000" pt_clust_9="24.55202"></scales>
<clustering>
<clus scale="   24.552">  2  9  1 -1</clus>
<clus scale="   80.876">  5  6 -1 -1</clus>
<clus scale="   88.993">  2  5  1 -1</clus>
<clus scale="   91.276">  7  8 -1 -1</clus>
<clus scale="   24.552">  2  5  1 -1</clus>
</clustering>
</event>
<event>
 9    1  0.7586638E-005  0.1208317E+03  0.7546771E-02  0.1245804E+00
         21   -1    0    0  501  502  0.00000000000E+00  0.00000000000E+00  0.49567490050E+02  0.49567490050E+02  0.00000000000E+00 0.  1.
          3   -1    0    0  502    0 -0.00000000000E+00 -0.00000000000E+00 -0.43846520817E+03  0.43846520817E+03  0.00000000000E+00 0. -1.
        -24    2    1    2    0    0  0.23489020711E+02 -0.67956833929E+02 -0.24691111037E+03  0.26938055757E+03  0.80193035861E+02 0.  0.
         23    2    1    2    0    0 -0.41200504443E+02  0.84947712123E+02 -0.87213311438E+02  0.15863130605E+03  0.92973836130E+02 0.  0.
         11    1    3    3    0    0  0.52646109025E+02 -0.49825852553E+02 -0.15070052806E+03  0.16722702394E+03  0.00000000000E+00 0. -1.
        -12    1    3    3    0    0 -0.29157088314E+02 -0.18130981376E+02 -0.96210582311E+02  0.10215353363E+03  0.00000000000E+00 0.  1.
        -11    1    4    4    0    0 -0.26484238784E+02  0.51756791390E+01  0.12791678432E+02  0.29863516129E+02  0.00000000000E+00 0.  1.
         11    1    4    4    0    0 -0.14716265659E+02  0.79772032984E+02 -0.10000498987E+03  0.12876778992E+03  0.00000000000E+00 0. -1.
          4    1    1    2  501    0  0.17711483732E+02 -0.16990878194E+02 -0.54773296313E+02  0.60020834606E+02  0.00000000000E+00 0. -1.
<scales pt_clust_5="13000.00000" pt_clust_6="13000.00000" pt_clust_7="13000.00000" pt_clust_8="13000.00000" pt_clust_9="24.54358"></scales>
<clustering>
<clus scale="   24.544">  1  9  2 -1</clus>
<clus scale="   80.193">  5  6 -1 -1</clus>
<clus scale="   92.974">  7  8 -1 -1</clus>
<clus scale="  111.297">  2  5  1 -1</clus>
<clus scale="   24.544">  1  5  2 -1</clus>
</clustering>
</event>
<event>
 9    1  0.7586638E-005  0.9505067E+02  0.7546771E-02  0.1295426E+00
          3   -1    0    0  502    0 -0.00000000000E+00  0.00000000000E+00  0.33716863781E+03  0.33716863781E+03  0.00000000000E+00 0. -1.
         21   -1    0    0  501  502  0.00000000000E+00 -0.00000000000E+00 -0.15633625205E+03  0.15633625205E+03  0.00000000000E+00 0. -1.
        -24    2    1    2    0    0 -0.11080849024E+02 -0.47952782553E+02  0.21597239772E+03  0.23522369052E+03  0.79144509824E+02 0.  0.
         23    2    1    2    0    0 -0.33131552151E+02  0.14548906829E+02  0.84287473053E+02  0.12662452649E+03  0.87292738291E+02 0.  0.
         11    1    3    3    0    0 -0.35383490268E+02 -0.31244248727E+02  0.59270438317E+02  0.75770570279E+02  0.00000000000E+00 0. -1.
        -12    1    3    3    0    0  0.24302641245E+02 -0.16708533826E+02  0.15670195940E+03  0.15945312024E+03  0.00000000000E+00 0.  1.
        -13    1    4    4    0    0 -0.37229870364E+02 -0.27501418183E+02  0.21721693875E+02  0.51129475200E+02  0.00000000000E+00 0. -1.
         13    1    4    4    0    0  0.40983182130E+01  0.42050325012E+02  0.62565779178E+02  0.75495051294E+02  0.00000000000E+00 0.  1.
          4    1    1    2  501    0  0.44212401175E+02  0.33403875724E+02 -0.11942748501E+03  0.13165667285E+03  0.00000000000E+00 0. -1.
<scales pt_clust_5="13000.00000" pt_clust_6="13000.00000" pt_clust_7="13000.00000" pt_clust_8="13000.00000" pt_clust_9="55.41259"></scales>
<clustering>
<clus scale="   55.413">  2  9  1 -1</clus>
<clus scale="   79.145">  5  6 -1 -1</clus>
<clus scale="   87.293">  7  8 -1 -1</clus>
<clus scale="   87.627">  1  5  2 -1</clus>
<clus scale="   55.413">  2  5  1 -1</clus>
</clustering>
</event>
<event>
 9    1  0.7586638E-005  0.1223744E+03  0.7546771E-02  0.1241636E+00
         -2   -1    0    0    0  501 -0.00000000000E+00  0.00000000000E+00  0.78034608690E+02  0.78034608690E+02  0.00000000000E+00 0.  1.
         21   -1    0    0  501  502  0.00000000000E+00 -0.00000000000E+00 -0.48646886778E+03  0.48646886778E+03  0.00000000000E+00 0.  1.
         23    2    1    2    0    0 -0.99200013243E+02 -0.66601996796E+01 -0.12555961953E+02  0.13360634673E+03  0.88362904091E+02 0.  0.
        -24    2    1    2    0    0  0.25298459440E+02  0.19098732473E+02 -0.27954249123E+03  0.29251296703E+03  0.80094056244E+02 0.  0.
         13    1    4    4    0    0  0.21976055057E+02  0.44470477376E+02 -0.10526580529E+03  0.11636777955E+03  0.00000000000E+00 0. -1.
        -14    1    4    4    0    0  0.33224043831E+01 -0.25371744903E+02 -0.17427668594E+03  0.17614518748E+03  0.00000000000E+00 0.  1.
        -13    1    3    3    0    0 -0.25955173115E+01 -0.20856470072E+02  0.21623724833E+02  0.30154842557E+02  0.00000000000E+00 0. -1.
         13    1    3    3    0    0 -0.96604495932E+02  0.14196270392E+02 -0.34179686787E+02  0.10345150418E+03  0.00000000000E+00 0.  1.
         -1    1    1    2    0  502  0.73901553803E+02 -0.12438532793E+02 -0.11633580591E+03  0.13838416271E+03  0.00000000000E+00 0.  1.
<scales pt_clust_5="13000.00000" pt_clust_6="13000.00000" pt_clust_7="13000.00000" pt_clust_8="13000.00000" pt_clust_9="74.94102"></scales>
<clustering>
<clus scale="   74.941">  2  9  1 -1</clus>
<clus scale="   80.094">  5  6 -1 -1</clus>
<clus scale="   88.363">  7  8 -1 -1</clus>
<clus scale="  116.544">  2  5  1 -1</clus>
<clus scale="   74.941">  2  5  1 -1</clus>
</clustering>
</event>
<event>
 9    1  0.7586638E-005  0.2739341E+03  0.7546771E-02  0.1105778E+00
          1   -1    0    0  502    0 -0.00000000000E+00  0.00000000000E+00  0.25577676291E+04  0.25577676291E+04  0.00000000000E+00 0. -1.
         21   -1    0    0  501  502  0.00000000000E+00 -0.00000000000E+00 -0.67487998332E+02  0.67487998332E+02  0.00000000000E+00 0. -1.
         23    2    1    2    0    0 -0.10598382468E+03  0.18330058759E+03  0.69996727324E+03  0.73685768629E+03  0.90406801401E+02 0.  0.
        -24    2    1    2    0    0 -0.12818360376E+03 -0.28969384662E+03  0.12074756922E+04  0.12513324119E+04  0.86496801819E+02 0.  0.
         11    1    4    4    0    0 -0.13360682402E+03 -0.25394695233E+03  0.11295366129E+04  0.11654152899E+04  0.00000000000E+00 0. -1.
        -12    1    4    4    0    0  0.54232202599E+01 -0.35746894287E+02  0.77939079298E+02  0.85917121990E+02  0.00000000000E+00 0.  1.
        -13    1    3    3    0    0 -0.85047784242E+02  0.14394960139E+03  0.64378080856E+03  0.66513783745E+03  0.00000000000E+00 0.  1.
         13    1    3    3    0    0 -0.20936040441E+02  0.39350986201E+02  0.56186464680E+02  0.71719848839E+02  0.00000000000E+00 0. -1.
          2    1    1    2  501    0  0.23416742844E+03  0.10639325903E+03  0.58283666525E+03  0.63706552918E+03  0.00000000000E+00 0. -1.
<scales pt_clust_5="13000.00000" pt_clust_6="13000.00000" pt_clust_7="13000.00000" pt_clust_8="13000.00000" pt_clust_9="259.91955"></scales>
<clustering>
<clus scale="   86.497">  5  6 -1 -1</clus>
<clus scale="   90.407">  7  8 -1 -1</clus>
<clus scale="  230.228">  1  7  2 -1</clus>
<clus scale="  259.920">  2  9  1 -1</clus>
<clus scale="  259.920">  2  5  1 -1</clus>
</clustering>
</event>
<event>
 9    1  0.7586638E-005  0.1659231E+03  0.7546771E-02  0.1183609E+00
         21   -1    0    0  501  502  0.00000000000E+00  0.00000000000E+00  0.62141233232E+03  0.62141233232E+03  0.00000000000E+00 0.  1.
          3   -1    0    0  502    0 -0.00000000000E+00 -0.00000000000E+00 -0.15615449010E+03  0.15615449010E+03  0.00000000000E+00 0. -1.
         23    2    1    2    0    0 -0.65388883431E+02 -0.10912284209E+03  0.20614312581E+02  0.15814915247E+03  0.91666263157E+02 0.  0.
        -24    2    1    2    0    0  0.76752106976E+02  0.18798886353E+03  0.48351950476E+03  0.53075926016E+03  0.81753177454E+02 0.  0.
         13    1    4    4    0    0 -0.17217412584E+02  0.36520852765E+02  0.79471836674E+02  0.89140253573E+02  0.00000000000E+00 0. -1.
        -14    1    4    4    0    0  0.93969519560E+02  0.15146801076E+03  0.40404766808E+03  0.44161900658E+03  0.00000000000E+00 0.  1.
        -13    1    3    3    0    0  0.25283967278E+01 -0.21241780027E+02 -0.29385211095E+02  0.36346893124E+02  0.00000000000E+00 0.  1.
         13    1    3    3    0    0 -0.67917280159E+02 -0.87881062068E+02  0.49999523676E+02  0.12180225935E+03  0.00000000000E+00 0. -1.
          4    1    1    2  501    0 -0.11363223545E+02 -0.78866021435E+02 -0.38875975115E+02  0.88658409796E+02  0.00000000000E+00 0. -1.
<scales pt_clust_5="13000.00000" pt_clust_6="13000.00000" pt_clust_7="13000.00000" pt_clust_8="13000.00000" pt_clust_9="79.68048"></scales>
<clustering>
<clus scale="   79.680">  1  9  2 -1</clus>
<clus scale="   81.753">  5  6 -1 -1</clus>
<clus scale="   91.666">  7  8 -1 -1</clus>
<clus scale="  160.659">  1  5  2 -1</clus>
<clus scale="   79.680">  1  5  2 -1</clus>
</clustering>
</event>
<event>
 9    1  0.7586638E-005  0.1067546E+03  0.7546771E-02  0.1270473E+00
         21   -1    0    0  501  502  0.00000000000E+00  0.00000000000E+00  0.56048811349E+02  0.56048811349E+02  0.00000000000E+00 0.  1.
         -2   -1    0    0    0  501 -0.00000000000E+00 -0.00000000000E+00 -0.70757677027E+03  0.70757677027E+03  0.00000000000E+00 0.  1.
         23    2    1    2    0    0  0.67518593994E+01 -0.75679291991E+02 -0.55429917687E+03  0.56671606565E+03  0.90258399886E+02 0.  0.
        -24    2    1    2    0    0  0.15081976136E+02  0.10901033678E+02 -0.97888473511E+02  0.12854743352E+03  0.81215705867E+02 0.  0.
         11    1    4    4    0    0  0.39680959806E+02  0.20143240764E+02 -0.91128941308E+02  0.10141406541E+03  0.00000000000E+00 0. -1.
        -12    1    4    4    0    0 -0.24598983670E+02 -0.92422070865E+01 -0.67595322037E+01  0.27133368111E+02  0.00000000000E+00 0.  1.
        -13    1    3    3    0    0 -0.16915204659E+02 -0.89132918267E+02 -0.43197076566E+03  0.44139499732E+03  0.00000000000E+00 0.  1.
         13    1    3    3    0    0  0.23667064058E+02  0.13453626277E+02 -0.12232841120E+03  0.12532106833E+03  0.00000000000E+00 0. -1.
         -1    1    1    2    0  502 -0.21833835536E+02  0.64778258313E+02  0.65969145070E+00  0.68362082451E+02  0.00000000000E+00 0.  1.
<scales pt_clust_5="13000.00000" pt_clust_6="13000.00000" pt_clust_7="13000.00000" pt_clust_8="13000.00000" pt_clust_9="68.35890"></scales>
<clustering>
<clus scale="   68.359">  1  9  2 -1</clus>
<clus scale="   81.216">  5  6 -1 -1</clus>
<clus scale="   90.258">  7  8 -1 -1</clus>
<clus scale="   99.227">  1  5  2 -1</clus>
<clus scale="   68.359">  1  5  2 -1</clus>
</clustering>
</event>
<event>
 9    1  0.7586638E-005  0.1314545E+03  0.7546771E-02  0.1228469E+00
         21   -1    0    0  501  502  0.00000000000E+00  0.00000000000E+00  0.79591340630E+02  0.79591340630E+02  0.00000000000E+00 0.  1.
         -2   -1    0    0    0  501 -0.00000000000E+00 -0.00000000000E+00 -0.46013833205E+03  0.46013833205E+03  0.00000000000E+00 0.  1.
         23    2    1    2    0    0 -0.49778538007E+02  0.10988992389E+03 -0.27556639965E+03  0.31398158458E+03  0.89966085961E+02 0.  0.
        -24    2    1    2    0    0 -0.16606784552E+02 -0.74427756710E+02 -0.10419827571E+03  0.15048064248E+03  0.77277854761E+02 0.  0.
         11    1    4    4    0    0  0.28030638916E+02 -0.13388256241E+02 -0.18358686263E+02  0.36083285390E+02  0.00000000000E+00 0. -1.
        -12    1    4    4    0    0 -0.44637423468E+02 -0.61039500469E+02 -0.85839589450E+02  0.11439735709E+03  0.00000000000E+00 0.  1.
        -11    1    3    3    0    0 -0.21410241608E+01  0.10194404107E+03 -0.19493536659E+03  0.21999311045E+03  0.00000000000E+00 0.  1.
         11    1    3    3    0    0 -0.47637513846E+02  0.79458828190E+01 -0.80631033056E+02  0.93988474138E+02  0.00000000000E+00 0. -1.
         -1    1    1    2    0  502  0.66385322558E+02 -0.35462167180E+02 -0.78231605997E+00  0.75267445624E+02  0.00000000000E+00 0.  1.
<scales pt_clust_5="13000.00000" pt_clust_6="13000.00000" pt_clust_7="13000.00000" pt_clust_8="13000.00000" pt_clust_9="75.26338"></scales>
<clustering>
<clus scale="   75.263">  1  9  2 -1</clus>
<clus scale="   77.278">  5  6 -1 -1</clus>
<clus scale="   89.966">  7  8 -1 -1</clus>
<clus scale="  123.119">  1  5  2 -1</clus>
<clus scale="   75.263">  1  5  2 -1</clus>
</clustering>
</event>
<event>
 9    1  0.7625769E-005  0.8965982E+02  0.7546771E-02  0.1309221E+00
         21   -1    0    0  501  502  0.00000000000E+00  0.00000000000E+00  0.18389413842E+03  0.18389413842E+03  0.00000000000E+00 0. -1.
          3   -1    0    0  502    0 -0.00000000000E+00 -0.00000000000E+00 -0.42773459619E+03  0.42773459619E+03  0.00000000000E+00 0. -1.
         23    2    1    2    0    0 -0.24908579469E+01 -0.13736001381E+02 -0.11673503155E+03  0.14753299426E+03  0.89129314467E+02 0.  0.
        -24    2    1    2    0    0 -0.34664161313E+02 -0.33441639000E+02  0.15200560475E+03  0.17859759182E+03  0.80445314534E+02 0.  0.
         11    1    4    4    0    0 -0.43106857638E+02 -0.51955859862E+02  0.84869818107E+02  0.10844583245E+03  0.00000000000E+00 0. -1.
        -12    1    4    4    0    0  0.84426963242E+01  0.18514220862E+02  0.67135786641E+02  0.70151759374E+02  0.00000000000E+00 0.  1.
        -11    1    3    3    0    0 -0.42768991169E+02  0.76619821492E+01 -0.68760282208E+02  0.81337992263E+02  0.00000000000E+00 0.  1.
         11    1    3    3    0    0  0.40278133222E+02 -0.21397983530E+02 -0.47974749341E+02  0.66195001997E+02  0.00000000000E+00 0. -1.
          4    1    1    2  501    0  0.37155019260E+02  0.47177640381E+02 -0.27911103096E+03  0.28549814853E+03  0.00000000000E+00 0. -1.
<scales pt_clust_5="13000.00000" pt_clust_6="13000.00000" pt_clust_7="13000.00000" pt_clust_8="13000.00000" pt_clust_9="60.05188"></scales>
<clustering>
<clus scale="   60.052">  1  9  2 -1</clus>
<clus scale="   80.445">  5  6 -1 -1</clus>
<clus scale="   81.033">  1  5  2 -1</clus>
<clus scale="   89.129">  7  8 -1 -1</clus>
<clus scale="   60.052">  1  5  2 -1</clus>
</clustering>
</event>
<event>
 9    1  0.7586638E-005  0.1247179E+03  0.7546771E-02  0.1239371E+00
          1   -1    0    0  502    0 -0.00000000000E+00  0.00000000000E+00  0.41614962565E+03  0.41614962565E+03  0.00000000000E+00 0. -1.
         21   -1    0    0  501  502  0.00000000000E+00 -0.00000000000E+00 -0.70630407651E+02  0.70630407651E+02  0.00000000000E+00 0. -1.
         23    2    1    2    0    0 -0.23163313509E+02 -0.75107797991E+02  0.97553994361E+02  0.15558748785E+03  0.92265725750E+02 0.  0.
        -24    2    1    2    0    0  0.65338673556E+02  0.70540548683E+02  0.59400355658E+02  0.13791468796E+03  0.79037634272E+02 0.  0.
         13    1    4    4    0    0  0.74067560716E+00  0.58579195549E+02  0.24231842762E+02  0.63397578464E+02  0.00000000000E+00 0. -1.
        -14    1    4    4    0    0  0.64597997948E+02  0.11961353134E+02  0.35168512896E+02  0.74517109492E+02  0.00000000000E+00 0.  1.
        -13    1    3    3    0    0  0.11132213813E+02 -0.84580462588E+02  0.63622255949E+02  0.10642167208E+03  0.00000000000E+00 0. -1.
         13    1    3    3    0    0 -0.34295527322E+02  0.94726645974E+01  0.33931738413E+02  0.49165815772E+02  0.00000000000E+00 0.  1.
          2    1    1    2  501    0 -0.42175360047E+02  0.45672493080E+01  0.18856486798E+03  0.19327785749E+03  0.00000000000E+00 0. -1.
<scales pt_clust_5="13000.00000" pt_clust_6="13000.00000" pt_clust_7="13000.00000" pt_clust_8="13000.00000" pt_clust_9="42.42196"></scales>
<clustering>
<clus scale="   42.422">  2  9  1 -1</clus>
<clus scale="   79.038">  5  6 -1 -1</clus>
<clus scale="   92.266">  7  8 -1 -1</clus>
<clus scale="  115.276">  2  5  1 -1</clus>
<clus scale="   42.422">  2  5  1 -1</clus>
</clustering>
</event>
<event>
 9    1  0.7586638E-005  0.1215802E+03  0.7546771E-02  0.1243842E+00
          1   -1    0    0  502    0 -0.00000000000E+00  0.00000000000E+00  0.35935999210E+03  0.35935999210E+03  0.00000000000E+00 0. -1.
         21   -1    0    0  501  502  0.00000000000E+00 -0.00000000000E+00 -0.62613492009E+02  0.62613492009E+02  0.00000000000E+00 0. -1.
         23    2    1    2    0    0  0.78019453211E+02 -0.11023500767E+02  0.17121926544E+03  0.20937284409E+03  0.91172355123E+02 0.  0.
        -24    2    1    2    0    0 -0.83069899511E+02 -0.14652828402E+02  0.14046499985E+03  0.18246896704E+03  0.80306874954E+02 0.  0.
         13    1    4    4    0    0  0.49889802734E+01  0.20821012089E+02  0.29163087273E+02  0.36178586593E+02  0.00000000000E+00 0. -1.
        -14    1    4    4    0    0 -0.88058879784E+02 -0.35473840491E+02  0.11130191257E+03  0.14629038044E+03  0.00000000000E+00 0.  1.
        -13    1    3    3    0    0  0.77672403462E+02  0.10976627974E+02  0.67938698709E+02  0.10377454121E+03  0.00000000000E+00 0.  1.
         13    1    3    3    0    0  0.34704974935E+00 -0.22000128741E+02  0.10328056673E+03  0.10559830288E+03  0.00000000000E+00 0. -1.
          2    1    1    2  501    0  0.50504462991E+01  0.25676329169E+02 -0.14937765194E+02  0.30131672977E+02  0.00000000000E+00 0. -1.
<scales pt_clust_5="13000.00000" pt_clust_6="13000.00000" pt_clust_7="13000.00000" pt_clust_8="13000.00000" pt_clust_9="26.16832"></scales>
<clustering>
<clus scale="   26.168">  2  9  1 -1</clus>
<clus scale="   80.307">  5  6 -1 -1</clus>
<clus scale="   91.172">  7  8 -1 -1</clus>
<clus scale="  113.660">  2  5  1 -1</clus>
<clus scale="   26.168">  2  5  1 -1</clus>
</clustering>
</event>
<event>
 9    1  0.7586638E-005  0.1559709E+03  0.7546771E-02  0.1207243E+00
          3   -1    0    0  502    0 -0.00000000000E+00  0.00000000000E+00  0.60768413804E+03  0.60768413804E+03  0.00000000000E+00 0. -1.
         21   -1    0    0  501  502  0.00000000000E+00 -0.00000000000E+00 -0.16354598120E+03  0.16354598120E+03  0.00000000000E+00 0. -1.
        -24    2    1    2    0    0  0.78383106688E+02  0.25958637241E+02 -0.28146249621E+02  0.11867619449E+03  0.80461577845E+02 0.  0.
         23    2    1    2    0    0  0.17863855303E+02 -0.12739918499E+03 -0.28620574149E+01  0.15725823069E+03  0.90400719498E+02 0.  0.
         13    1    3    3    0    0 -0.77589896431E+01  0.20766157988E+02 -0.23420669918E+02  0.32248457595E+02  0.00000000000E+00 0. -1.
        -14    1    3    3    0    0  0.86142096331E+02  0.51924792529E+01 -0.47255797028E+01  0.86427736894E+02  0.00000000000E+00 0.  1.
        -13    1    4    4    0    0  0.31972700462E+02 -0.44507306448E+02 -0.37410920049E+02  0.66353077103E+02  0.00000000000E+00 0.  1.
         13    1    4    4    0    0 -0.14108845159E+02 -0.82891878543E+02  0.34548862634E+02  0.90905153591E+02  0.00000000000E+00 0. -1.
          4    1    1    2  501    0 -0.96246961991E+02  0.10144054775E+03  0.47514646387E+03  0.49529569406E+03  0.00000000000E+00 0. -1.
<scales pt_clust_5="13000.00000" pt_clust_6="13000.00000" pt_clust_7="13000.00000" pt_clust_8="13000.00000" pt_clust_9="127.10096"></scales>
<clustering>
<clus scale="   80.462">  5  6 -1 -1</clus>
<clus scale="   90.401">  7  8 -1 -1</clus>
<clus scale="  115.290">  1  5  2 -1</clus>
<clus scale="  127.101">  2  9  1 -1</clus>
<clus scale="  127.101">  2  5  1 -1</clus>
</clustering>
</event>
<event>
 9    1  0.7586638E-005  0.1090238E+03  0.7546771E-02  0.1266302E+00
          1   -1    0    0  502    0 -0.00000000000E+00  0.00000000000E+00  0.32900836021E+03  0.32900836021E+03  0.00000000000E+00 0. -1.
         21   -1    0    0  501  502  0.00000000000E+00 -0.00000000000E+00 -0.94786886025E+02  0.94786886025E+02  0.00000000000E+00 0.  1.
        -24    2    1    2    0    0 -0.37411126328E+02 -0.49991576329E+02  0.26819316072E+03  0.28709176029E+03  0.81211805098E+02 0.  0.
         23    2    1    2    0    0  0.33517615365E+02  0.25485414476E+02 -0.44570540518E+02  0.10972113798E+03  0.90990428876E+02 0.  0.
         11    1    3    3    0    0 -0.55775895677E+02 -0.34794577726E+02  0.24561021693E+03  0.25425576068E+03  0.00000000000E+00 0. -1.
        -12    1    3    3    0    0  0.18364769349E+02 -0.15196998603E+02  0.22582943795E+02  0.32835999607E+02  0.00000000000E+00 0.  1.
        -13    1    4    4    0    0  0.21262511981E+02 -0.33556782902E+02 -0.21389151731E+02  0.45118154952E+02  0.00000000000E+00 0. -1.
         13    1    4    4    0    0  0.12255103384E+02  0.59042197378E+02 -0.23181388787E+02  0.64602983029E+02  0.00000000000E+00 0.  1.
          2    1    1    2  501    0  0.38935109625E+01  0.24506161853E+02  0.10598853983E+02  0.26982347973E+02  0.00000000000E+00 0. -1.
<scales pt_clust_5="13000.00000" pt_clust_6="13000.00000" pt_clust_7="13000.00000" pt_clust_8="13000.00000" pt_clust_9="24.81353"></scales>
<clustering>
<clus scale="   24.814">  2  9  1 -1</clus>
<clus scale="   81.212">  5  6 -1 -1</clus>
<clus scale="   90.990">  7  8 -1 -1</clus>
<clus scale="  101.006">  1  5  2 -1</clus>
<clus scale="   24.814">  2  5  1 -1</clus>
</clustering>
</event>
<event>
 9    1  0.7586638E-005  0.1011636E+03  0.7546771E-02  0.1286401E+00
         -2   -1    0    0    0  501 -0.00000000000E+00  0.00000000000E+00  0.90515696129E+02  0.90515696129E+02  0.00000000000E+00 0.  1.
         21   -1    0    0  501  502  0.00000000000E+00 -0.00000000000E+00 -0.23888849643E+03  0.23888849643E+03  0.00000000000E+00 0.  1.
         23    2    1    2    0    0  0.42925166236E+02 -0.22105900422E+02  0.88665447209E+00  0.10586392128E+03  0.94207977060E+02 0.  0.
        -24    2    1    2    0    0 -0.26741450010E+02  0.54282836850E+01 -0.10753680407E+02  0.83098450220E+02  0.77750494367E+02 0.  0.
         11    1    4    4    0    0 -0.16682013334E+02 -0.32545099105E+02 -0.21433367080E+02  0.42389412228E+02  0.00000000000E+00 0. -1.
        -12    1    4    4    0    0 -0.10059436676E+02  0.37973382790E+02  0.10679686673E+02  0.40709037992E+02  0.00000000000E+00 0.  1.
        -11    1    3    3    0    0  0.50655998074E+02 -0.47089165100E+02 -0.20438943743E+02  0.72119137765E+02  0.00000000000E+00 0. -1.
         11    1    3    3    0    0 -0.77308318379E+01  0.24983264678E+02  0.21325598215E+02  0.33744783510E+02  0.00000000000E+00 0.  1.
         -1    1    1    2    0  502 -0.16183716226E+02  0.16677616737E+02 -0.13850577437E+03  0.14044182106E+03  0.00000000000E+00 0.  1.
<scales pt_clust_5="13000.00000" pt_clust_6="13000.00000" pt_clust_7="13000.00000" pt_clust_8="13000.00000" pt_clust_9="23.23910"></scales>
<clustering>
<clus scale="   23.239">  2  9  1 -1</clus>
<clus scale="   77.750">  5  6 -1 -1</clus>
<clus scale="   86.047">  2  5  1 -1</clus>
<clus scale="   94.208">  7  8 -1 -1</clus>
<clus scale="   23.239">  2  5  1 -1</clus>
</clustering>
</event>
<event>
 9    1  0.7586638E-005  0.9674070E+02  0.7546771E-02  0.1291717E+00
          1   -1    0    0  502    0 -0.00000000000E+00  0.00000000000E+00  0.20409659533E+03  0.20409659533E+03  0.00000000000E+00 0. -1.
         21   -1    0    0  501  502  0.00000000000E+00 -0.00000000000E+00 -0.15731848482E+03  0.15731848482E+03  0.00000000000E+00 0.  1.
        -24    2    1    2    0    0  0.10734192856E+02  0.30654988312E+02  0.16364005196E+03  0.18593294852E+03  0.82085586648E+02 0.  0.
         23    2    1    2    0    0 -0.11582684955E+02 -0.54367181982E+02 -0.86098007850E+02  0.13663103541E+03  0.90361627997E+02 0.  0.
         13    1    3    3    0    0 -0.32584710802E+02  0.10663268596E+02  0.36217693621E+02  0.49871735547E+02  0.00000000000E+00 0. -1.
        -14    1    3    3    0    0  0.43318903658E+02  0.19991719716E+02  0.12742235834E+03  0.13606121297E+03  0.00000000000E+00 0.  1.
        -11    1    4    4    0    0 -0.37269695782E+02 -0.35529096015E+02 -0.90846956587E+02  0.10442469252E+03  0.00000000000E+00 0.  1.
         11    1    4    4    0    0  0.25687010827E+02 -0.18838085967E+02  0.47489487367E+01  0.32206342888E+02  0.00000000000E+00 0. -1.
          2    1    1    2  501    0  0.84849209941E+00  0.23712193670E+02 -0.30763933592E+02  0.38851096220E+02  0.00000000000E+00 0. -1.
<scales pt_clust_5="13000.00000" pt_clust_6="13000.00000" pt_clust_7="13000.00000" pt_clust_8="13000.00000" pt_clust_9="23.72737"></scales>
<clustering>
<clus scale="   23.727">  2  9  1 -1</clus>
<clus scale="   82.086">  5  6 -1 -1</clus>
<clus scale="   89.059">  1  5  2 -1</clus>
<clus scale="   90.362">  7  8 -1 -1</clus>
<clus scale="   23.727">  2  5  1 -1</clus>
</clustering>
</event>
<event>
 9    1  0.7586638E-005  0.9550951E+02  0.7546771E-02  0.1296784E+00
          1   -1    0    0  502    0 -0.00000000000E+00  0.00000000000E+00  0.99979426857E+02  0.99979426857E+02  0.00000000000E+00 0. -1.
         21   -1    0    0  501  502  0.00000000000E+00 -0.00000000000E+00 -0.19426280790E+03  0.19426280790E+03  0.00000000000E+00 0. -1.
        -24    2    1    2    0    0 -0.10561326385E+02 -0.17470600314E+02  0.25942766089E+02  0.85127105885E+02  0.78465492757E+02 0.  0.
         23    2    1    2    0    0  0.61992584365E+02  0.27846900587E+02 -0.56217935208E+02  0.12635104790E+03  0.90474309496E+02 0.  0.
         11    1    3    3    0    0  0.43175592767E+01  0.28778913548E+02 -0.18421944990E+01  0.29159232906E+02  0.00000000000E+00 0. -1.
        -12    1    3    3    0    0 -0.14878885661E+02 -0.46249513861E+02  0.27784960588E+02  0.55967872979E+02  0.00000000000E+00 0.  1.
        -11    1    4    4    0    0 -0.37531037009E+01  0.23689105570E+02 -0.55510250524E+02  0.60470219310E+02  0.00000000000E+00 0.  1.
         11    1    4    4    0    0  0.65745688066E+02  0.41577950169E+01 -0.70768468372E+00  0.65880828594E+02  0.00000000000E+00 0. -1.
          2    1    1    2  501    0 -0.51431257980E+02 -0.10376300273E+02 -0.64008211925E+02  0.82764080969E+02  0.00000000000E+00 0. -1.
<scales pt_clust_5="13000.00000" pt_clust_6="13000.00000" pt_clust_7="13000.00000" pt_clust_8="13000.00000" pt_clust_9="52.46753"></scales>
<clustering>
<clus scale="   52.468">  2  9  1 -1</clus>
<clus scale="   78.465">  5  6 -1 -1</clus>
<clus scale="   84.222">  1  5  2 -1</clus>
<clus scale="   90.474">  7  8 -1 -1</clus>
<clus scale="   52.468">  2  5  1 -1</clus>
</clustering>
</event>
<event>
 9    1  0.7586638E-005  0.1349885E+03  0.7546771E-02  0.1221952E+00
         21   -1    0    0  501  502  0.00000000000E+00  0.00000000000E+00  0.21077702513E+03  0.21077702513E+03  0.00000000000E+00 0.  1.
          1   -1    0    0  502    0 -0.00000000000E+00 -0.00000000000E+00 -0.30986057561E+03  0.30986057561E+03  0.00000000000E+00 0. -1.
        -24    2    1    2    0    0 -0.80543934969E+02  0.63465248963E+02  0.17905285811E+02  0.13418552418E+03  0.84675807364E+02 0.  0.
         23    2    1    2    0    0  0.37994997682E+02 -0.93908665718E+02  0.96038472299E+02  0.16709426865E+03  0.91840345759E+02 0.  0.
         11    1    3    3    0    0 -0.59966873127E+02  0.81649010658E+02 -0.18038157758E+00  0.10130458702E+03  0.00000000000E+00 0. -1.
        -12    1    3    3    0    0 -0.20577061841E+02 -0.18183761695E+02  0.18085667388E+02  0.32880937156E+02  0.00000000000E+00 0.  1.
        -11    1    4    4    0    0  0.50798793917E+02 -0.43886725970E+02  0.93882850302E+02  0.11541469473E+03  0.00000000000E+00 0.  1.
         11    1    4    4    0    0 -0.12803796234E+02 -0.50021939748E+02  0.21556219968E+01  0.51679573918E+02  0.00000000000E+00 0. -1.
          2    1    1    2  501    0  0.42548937287E+02  0.30443416755E+02 -0.21302730858E+03  0.21935780791E+03  0.00000000000E+00 0. -1.
<scales pt_clust_5="13000.00000" pt_clust_6="13000.00000" pt_clust_7="13000.00000" pt_clust_8="13000.00000" pt_clust_9="52.31841"></scales>
<clustering>
<clus scale="   52.318">  1  9  2 -1</clus>
<clus scale="   84.676">  5  6 -1 -1</clus>
<clus scale="   91.840">  7  8 -1 -1</clus>
<clus scale="  130.220">  2  5  1 -1</clus>
<clus scale="   52.318">  1  5  2 -1</clus>
</clustering>
</event>
<event>
 9    1  0.7586638E-005  0.2082584E+03  0.7546771E-02  0.1176549E+00
         -2   -1    0    0    0  501 -0.00000000000E+00  0.00000000000E+00  0.17702755287E+03  0.17702755287E+03  0.00000000000E+00 0.  1.
         21   -1    0    0  501  502  0.00000000000E+00 -0.00000000000E+00 -0.58940138063E+03  0.58940138063E+03  0.00000000000E+00 0.  1.
        -24    2    1    2    0    0 -0.39462668787E+02 -0.85932750912E+00  0.69951023026E+02  0.11815311728E+03  0.86654329541E+02 0.  0.
         23    2    1    2    0    0  0.15433093212E+03  0.11276177878E+03 -0.42637637457E+03  0.47843145066E+03  0.10279389489E+03 0.  0.
         13    1    3    3    0    0  0.21855351413E+02  0.13229127460E+02  0.42328961175E+02  0.49440946116E+02  0.00000000000E+00 0. -1.
        -14    1    3    3    0    0 -0.61318020200E+02 -0.14088454969E+02  0.27622061851E+02  0.68712171160E+02  0.00000000000E+00 0.  1.
        -13    1    4    4    0    0  0.10298588016E+03  0.83456419736E+02 -0.17132494462E+03  0.21661787128E+03  0.00000000000E+00 0. -1.
         13    1    4    4    0    0  0.51345051957E+02  0.29305359046E+02 -0.25505142995E+03  0.26181357938E+03  0.00000000000E+00 0.  1.
         -1    1    1    2    0  502 -0.11486826333E+03 -0.11190245127E+03 -0.55948476219E+02  0.16984436556E+03  0.00000000000E+00 0.  1.
<scales pt_clust_5="13000.00000" pt_clust_6="13000.00000" pt_clust_7="13000.00000" pt_clust_8="13000.00000" pt_clust_9="181.12154"></scales>
<clustering>
<clus scale="   86.654">  5  6 -1 -1</clus>
<clus scale="   95.221">  1  5  2 -1</clus>
<clus scale="  102.794">  7  8 -1 -1</clus>
<clus scale="  181.122">  2  9  1 -1</clus>
<clus scale="  181.122">  2  5  1 -1</clus>
</clustering>
</event>
<event>
 9    1  0.7586638E-005  0.1713483E+03  0.7546771E-02  0.1178749E+00
          1   -1    0    0  502    0 -0.00000000000E+00  0.00000000000E+00  0.83297185447E+03  0.83297185447E+03  0.00000000000E+00 0. -1.
         21   -1    0    0  501  502  0.00000000000E+00 -0.00000000000E+00 -0.47537612750E+02  0.47537612750E+02  0.00000000000E+00 0.  1.
         23    2    1    2    0    0  0.15666332388E+03  0.48503456304E+02  0.37317825656E+03  0.41793492542E+03  0.92258378444E+02 0.  0.
        -24    2    1    2    0    0 -0.12470749506E+03 -0.15845159501E+02  0.21492520467E+03  0.26002287858E+03  0.74940145301E+02 0.  0.
         11    1    4    4    0    0 -0.64601667977E+02  0.18209217592E+02  0.15369211812E+03  0.16770873049E+03  0.00000000000E+00 0. -1.
        -12    1    4    4    0    0 -0.60105827084E+02 -0.34054377093E+02  0.61233086550E+02  0.92314148087E+02  0.00000000000E+00 0.  1.
        -11    1    3    3    0    0  0.82981595892E+02  0.72324154471E+02  0.20166600467E+03  0.22975183572E+03  0.00000000000E+00 0.  1.
         11    1    3    3    0    0  0.73681727989E+02 -0.23820698168E+02  0.17151225189E+03  0.18818308970E+03  0.00000000000E+00 0. -1.
          2    1    1    2  501    0 -0.31955828820E+02 -0.32658296803E+02  0.19733078049E+03  0.20255166323E+03  0.00000000000E+00 0. -1.
<scales pt_clust_5="13000.00000" pt_clust_6="13000.00000" pt_clust_7="13000.00000" pt_clust_8="13000.00000" pt_clust_9="45.69181"></scales>
<clustering>
<clus scale="   45.692">  2  9  1 -1</clus>
<clus scale="   74.940">  5  6 -1 -1</clus>
<clus scale="   92.258">  7  8 -1 -1</clus>
<clus scale="  162.680">  2  5  1 -1</clus>
<clus scale="   45.692">  2  5  1 -1</clus>
</clustering>
</event>
<event>
 9    1  0.7586638E-005  0.2524043E+03  0.7546771E-02  0.1146806E+00
          1   -1    0    0  502    0 -0.00000000000E+00  0.00000000000E+00  0.59208035948E+03  0.59208035948E+03  0.00000000000E+00 0. -1.
         21   -1    0    0  501  502  0.00000000000E+00 -0.00000000000E+00 -0.26566866868E+03  0.26566866868E+03  0.00000000000E+00 0. -1.
        -24    2    1    2    0    0 -0.64274141941E+02 -0.31070158980E+02 -0.22356686798E+02  0.10900278699E+03  0.79279669691E+02 0.  0.
         23    2    1    2    0    0  0.13034120864E+03  0.23715773238E+03  0.42665686709E+03  0.51873849780E+03  0.11756243517E+03 0.  0.
         11    1    3    3    0    0 -0.76959907223E+02 -0.30064526850E+02  0.74590963568E+00  0.82627232046E+02  0.00000000000E+00 0. -1.
        -12    1    3    3    0    0  0.12685765282E+02 -0.10056321306E+01 -0.23102596434E+02  0.26375554947E+02  0.00000000000E+00 0.  1.
        -11    1    4    4    0    0  0.17615656480E+02  0.70275523132E+02  0.21366262758E+03  0.22561178810E+03  0.00000000000E+00 0.  1.
         11    1    4    4    0    0  0.11272555216E+03  0.16688220925E+03  0.21299423951E+03  0.29312670969E+03  0.00000000000E+00 0. -1.
          2    1    1    2  501    0 -0.66067066698E+02 -0.20608757340E+03 -0.77888489493E+02  0.23000774336E+03  0.00000000000E+00 0. -1.
<scales pt_clust_5="13000.00000" pt_clust_6="13000.00000" pt_clust_7="13000.00000" pt_clust_8="13000.00000" pt_clust_9="223.35396"></scales>
<clustering>
<clus scale="   79.280">  5  6 -1 -1</clus>
<clus scale="  106.686">  1  5  2 -1</clus>
<clus scale="  117.562">  7  8 -1 -1</clus>
<clus scale="  223.354">  2  9  1 -1</clus>
<clus scale="  223.354">  2  5  1 -1</clus>
</clustering>
</event>
<event>
 9    1  0.7586638E-005  0.1001833E+03  0.7546771E-02  0.1284000E+00
          1   -1    0    0  502    0 -0.00000000000E+00  0.00000000000E+00  0.37136644183E+03  0.37136644183E+03  0.00000000000E+00 0. -1.
         21   -1    0    0  501  502  0.00000000000E+00 -0.00000000000E+00 -0.84664940090E+02  0.84664940090E+02  0.00000000000E+00 0. -1.
         23    2    1    2    0    0  0.32158975678E+02 -0.48765214030E+02  0.23462169032E+03  0.25778143255E+03  0.89396216809E+02 0.  0.
        -24    2    1    2    0    0  0.82363530726E+01 -0.18145532524E+02 -0.26462322519E+02  0.87445177849E+02  0.80927787276E+02 0.  0.
         13    1    4    4    0    0 -0.22916195512E+02  0.16227209626E+02 -0.29788373029E+02  0.40936799053E+02  0.00000000000E+00 0. -1.
        -14    1    4    4    0    0  0.31152548585E+02 -0.34372742150E+02  0.33260505105E+01  0.46508378796E+02  0.00000000000E+00 0.  1.
        -11    1    3    3    0    0  0.35308708459E+02 -0.57404431775E+01  0.24696050432E+02  0.43468983055E+02  0.00000000000E+00 0.  1.
         11    1    3    3    0    0 -0.31497327810E+01 -0.43024770853E+02  0.20992563989E+03  0.21431244949E+03  0.00000000000E+00 0. -1.
          2    1    1    2  501    0 -0.40395328750E+02  0.66910746555E+02  0.78542133937E+02  0.11080477153E+03  0.00000000000E+00 0. -1.
<scales pt_clust_5="13000.00000" pt_clust_6="13000.00000" pt_clust_7="13000.00000" pt_clust_8="13000.00000" pt_clust_9="78.15905"></scales>
<clustering>
<clus scale="   78.159">  2  9  1 -1</clus>
<clus scale="   80.928">  5  6 -1 -1</clus>
<clus scale="   89.396">  7  8 -1 -1</clus>
<clus scale="   92.706">  2  5  1 -1</clus>
<clus scale="   78.159">  2  5  1 -1</clus>
</clustering>
</event>
<event>
 9    1  0.7586638E-005  0.9732000E+02  0.7546771E-02  0.1300875E+00
         -4   -1    0    0    0  501 -0.00000000000E+00  0.00000000000E+00  0.36567320222E+03  0.36567320222E+03  0.00000000000E+00 0.  1.
         21   -1    0    0  501  502  0.00000000000E+00 -0.00000000000E+00 -0.72043528400E+02  0.72043528400E+02  0.00000000000E+00 0. -1.
        -24    2    1    2    0    0  0.31322505729E+02  0.66354749435E+01  0.28043284438E+03  0.29001699177E+03  0.66649429213E+02 0.  0.
         23    2    1    2    0    0 -0.32981408877E+02  0.18023424552E+02  0.43592270499E+02  0.10852454106E+03  0.92003656458E+02 0.  0.
         11    1    3    3    0    0 -0.14974308067E+02  0.20682966314E+02  0.93293641285E+02  0.96724963178E+02  0.00000000000E+00 0. -1.
        -12    1    3    3    0    0  0.46296813796E+02 -0.14047491371E+02  0.18713920309E+03  0.19329202859E+03  0.00000000000E+00 0.  1.
        -11    1    4    4    0    0 -0.42220363884E+02 -0.18649089541E+02 -0.55793088163E+01  0.46491680482E+02  0.00000000000E+00 0. -1.
         11    1    4    4    0    0  0.92389550075E+01  0.36672514093E+02  0.49171579315E+02  0.62032860581E+02  0.00000000000E+00 0.  1.
         -3    1    1    2    0  502  0.16589031473E+01 -0.24658899495E+02 -0.30395441063E+02  0.39175197784E+02  0.00000000000E+00 0.  1.
<scales pt_clust_5="13000.00000" pt_clust_6="13000.00000" pt_clust_7="13000.00000" pt_clust_8="13000.00000" pt_clust_9="24.71464"></scales>
<clustering>
<clus scale="   24.715">  2  9  1 -1</clus>
<clus scale="   66.649">  5  6 -1 -1</clus>
<clus scale="   73.815">  1  5  2 -1</clus>
<clus scale="   92.004">  7  8 -1 -1</clus>
<clus scale="   24.715">  2  5  1 -1</clus>
</clustering>
</event>
<event>
 9    1  0.7586638E-005  0.2535684E+03  0.7546771E-02  0.1139911E+00
         21   -1    0    0  501  502  0.00000000000E+00  0.00000000000E+00  0.88894428761E+03  0.88894428761E+03  0.00000000000E+00 0. -1.
          1   -1    0    0  502    0 -0.00000000000E+00 -0.00000000000E+00 -0.19580700878E+03  0.19580700878E+03  0.00000000000E+00 0. -1.
        -24    2    1    2    0    0 -0.38521315157E+02  0.85440855535E+02  0.63560128064E+02  0.13946427380E+03  0.81402470915E+02 0.  0.
         23    2    1    2    0    0  0.20363867401E+03  0.92436895794E+02  0.65407247744E+03  0.70135207709E+03  0.11861973290E+03 0.  0.
         11    1    3    3    0    0 -0.54283098436E+02  0.59186715141E+02  0.71828702749E+02  0.10774546192E+03  0.00000000000E+00 0. -1.
        -12    1    3    3    0    0  0.15761783279E+02  0.26254140395E+02 -0.82685746854E+01  0.31718811884E+02  0.00000000000E+00 0.  1.
        -13    1    4    4    0    0  0.88912120087E+02 -0.95660173553E+01  0.15221211903E+03  0.17653725660E+03  0.00000000000E+00 0.  1.
         13    1    4    4    0    0  0.11472655393E+03  0.10200291315E+03  0.50186035840E+03  0.52481482049E+03  0.00000000000E+00 0. -1.
          2    1    1    2  501    0 -0.16511735886E+03 -0.17787775133E+03 -0.24495326669E+02  0.24393494551E+03  0.00000000000E+00 0. -1.
<scales pt_clust_5="13000.00000" pt_clust_6="13000.00000" pt_clust_7="13000.00000" pt_clust_8="13000.00000" pt_clust_9="224.11236"></scales>
<clustering>
<clus scale="   81.402">  5  6 -1 -1</clus>
<clus scale="  118.620">  7  8 -1 -1</clus>
<clus scale="  124.139">  2  5  1 -1</clus>
<clus scale="  224.112">  1  9  2 -1</clus>
<clus scale="  224.112">  1  5  2 -1</clus>
</clustering>
</event>
<event>
 9    1  0.7586638E-005  0.2319787E+03  0.7546771E-02  0.1167680E+00
          1   -1    0    0  502    0 -0.00000000000E+00  0.00000000000E+00  0.23040590096E+03  0.23040590096E+03  0.00000000000E+00 0. -1.
         21   -1    0    0  501  502  0.00000000000E+00 -0.00000000000E+00 -0.43412593449E+03  0.43412593449E+03  0.00000000000E+00 0. -1.
        -24    2    1    2    0    0  0.29128364043E+02 -0.12157805208E+02  0.69689585625E+02  0.10939766327E+03  0.78198059849E+02 0.  0.
         23    2    1    2    0    0  0.20235039187E+03  0.81673444847E+01 -0.22787312763E+03  0.31918521526E+03  0.94555024928E+02 0.  0.
         11    1    3    3    0    0  0.55385158200E+02 -0.12937421503E+02  0.38805382234E+02  0.68853106787E+02  0.00000000000E+00 0. -1.
        -12    1    3    3    0    0 -0.26256794156E+02  0.77961629582E+00  0.30884203391E+02  0.40544556478E+02  0.00000000000E+00 0.  1.
        -11    1    4    4    0    0  0.97672676188E+02 -0.35519245722E+02 -0.14635426472E+03  0.17950247712E+03  0.00000000000E+00 0. -1.
         11    1    4    4    0    0  0.10467771568E+03  0.43686590206E+02 -0.81518862905E+02  0.13968273814E+03  0.00000000000E+00 0.  1.
          2    1    1    2  501    0 -0.23147875591E+03  0.39904607229E+01 -0.45536491525E+02  0.23594895693E+03  0.00000000000E+00 0. -1.
<scales pt_clust_5="13000.00000" pt_clust_6="13000.00000" pt_clust_7="13000.00000" pt_clust_8="13000.00000" pt_clust_9="211.83371"></scales>
<clustering>
<clus scale="   78.198">  5  6 -1 -1</clus>
<clus scale="   84.328">  1  5  2 -1</clus>
<clus scale="   94.555">  7  8 -1 -1</clus>
<clus scale="  211.834">  2  9  1 -1</clus>
<clus scale="  211.834">  2  5  1 -1</clus>
</clustering>
</event>
<event>
 9    1  0.7586638E-005  0.9875041E+02  0.7546771E-02  0.1288242E+00
         21   -1    0    0  501  502  0.00000000000E+00  0.00000000000E+00  0.58963151771E+03  0.58963151771E+03  0.00000000000E+00 0.  1.
          1   -1    0    0  502    0 -0.00000000000E+00 -0.00000000000E+00 -0.27807975725E+02  0.27807975725E+02  0.00000000000E+00 0. -1.
         23    2    1    2    0    0 -0.79786177563E+01  0.32658672603E+02  0.11979786464E+03  0.15398654503E+03  0.90719790789E+02 0.  0.
        -24    2    1    2    0    0  0.22569015215E+02 -0.51538394712E+02  0.41884269456E+03  0.43018473091E+03  0.80399834189E+02 0.  0.
         11    1    4    4    0    0  0.34188618627E+02 -0.25179894953E+02  0.84158338812E+02  0.94263008360E+02  0.00000000000E+00 0. -1.
        -12    1    4    4    0    0 -0.11619603413E+02 -0.26358499759E+02  0.33468435575E+03  0.33592172255E+03  0.00000000000E+00 0.  1.
        -13    1    3    3    0    0 -0.30948014547E+02  0.39512838345E+02  0.24746271943E+02  0.55959109835E+02  0.00000000000E+00 0. -1.
         13    1    3    3    0    0  0.22969396790E+02 -0.68541657419E+01  0.95051592697E+02  0.98027435197E+02  0.00000000000E+00 0.  1.
          2    1    1    2  501    0 -0.14590397458E+02  0.18879722109E+02  0.23182982781E+02  0.33268217498E+02  0.00000000000E+00 0. -1.
<scales pt_clust_5="13000.00000" pt_clust_6="13000.00000" pt_clust_7="13000.00000" pt_clust_8="13000.00000" pt_clust_9="23.86051"></scales>
<clustering>
<clus scale="   23.861">  1  9  2 -1</clus>
<clus scale="   80.400">  5  6 -1 -1</clus>
<clus scale="   89.363">  1  5  2 -1</clus>
<clus scale="   90.720">  7  8 -1 -1</clus>
<clus scale="   23.861">  1  5  2 -1</clus>
</clustering>
</event>
<event>
 9    1  0.7586638E-005  0.2171269E+03  0.7546771E-02  0.1161735E+00
          1   -1    0    0  502    0 -0.00000000000E+00  0.00000000000E+00  0.12789312741E+04  0.12789312741E+04  0.00000000000E+00 0. -1.
         21   -1    0    0  501  502  0.00000000000E+00 -0.00000000000E+00 -0.81835145748E+02  0.81835145748E+02  0.00000000000E+00 0. -1.
         23    2    1    2    0    0  0.61499405895E+02  0.43856769166E+02  0.44761477392E+02  0.12617884628E+03  0.90619635084E+02 0.  0.
        -24    2    1    2    0    0 -0.22189347642E+02 -0.21781719652E+03  0.41695797898E+03  0.47789320948E+03  0.81186607118E+02 0.  0.
         13    1    4    4    0    0  0.22055570333E+02 -0.15384503623E+03  0.28934866222E+03  0.32844693892E+03  0.00000000000E+00 0. -1.
        -14    1    4    4    0    0 -0.44244917975E+02 -0.63972160293E+02  0.12760931676E+03  0.14944627056E+03  0.00000000000E+00 0.  1.
        -11    1    3    3    0    0  0.73823763834E+02  0.11075063080E+02  0.51265692354E+02  0.90558137908E+02  0.00000000000E+00 0.  1.
         11    1    3    3    0    0 -0.12324357939E+02  0.32781706086E+02 -0.65042149620E+01  0.35620708370E+02  0.00000000000E+00 0. -1.
          2    1    1    2  501    0 -0.39310058253E+02  0.17396042736E+03  0.73537667196E+03  0.75669436408E+03  0.00000000000E+00 0. -1.
<scales pt_clust_5="13000.00000" pt_clust_6="13000.00000" pt_clust_7="13000.00000" pt_clust_8="13000.00000" pt_clust_9="201.37737"></scales>
<clustering>
<clus scale="   81.187">  5  6 -1 -1</clus>
<clus scale="   90.620">  7  8 -1 -1</clus>
<clus scale="  117.973">  1  7  2 -1</clus>
<clus scale="  201.377">  2  9  1 -1</clus>
<clus scale="  201.377">  2  5  1 -1</clus>
</clustering>
</event>
<event>
 9    1  0.7586638E-005  0.1750714E+03  0.7546771E-02  0.1207657E+00
          3   -1    0    0  502    0 -0.00000000000E+00  0.00000000000E+00  0.14372185073E+04  0.14372185073E+04  0.00000000000E+00 0. -1.
         21   -1    0    0  501  502  0.00000000000E+00 -0.00000000000E+00 -0.48214414628E+02  0.48214414628E+02  0.00000000000E+00 0. -1.
        -24    2    1    2    0    0 -0.19865597395E+01  0.60354767459E+01  0.29550351533E+02  0.86036531906E+02  0.80552393803E+02 0.  0.
         23    2    1    2    0    0 -0.11407545890E+03 -0.10884011071E+03  0.76193676991E+03  0.78209118525E+03  0.79117638224E+02 0.  0.
         13    1    3    3    0    0 -0.23522931656E+02  0.25179644907E+02  0.42273036340E+02  0.54537624011E+02  0.00000000000E+00 0. -1.
        -14    1    3    3    0    0  0.21536371916E+02 -0.19144168161E+02 -0.12722684807E+02  0.31498907895E+02  0.00000000000E+00 0.  1.
        -13    1    4    4    0    0 -0.41242498549E+01 -0.27332642519E+02  0.50136551800E+02  0.57251695261E+02  0.00000000000E+00 0.  1.
         13    1    4    4    0    0 -0.10995120905E+03 -0.81507468195E+02  0.71180021811E+03  0.72483948999E+03  0.00000000000E+00 0. -1.
          4    1    1    2  501    0  0.11606201864E+03  0.10280463397E+03  0.59751697124E+03  0.61730520479E+03  0.00000000000E+00 0. -1.
<scales pt_clust_5="13000.00000" pt_clust_6="13000.00000" pt_clust_7="13000.00000" pt_clust_8="13000.00000" pt_clust_9="156.17425"></scales>
<clustering>
<clus scale="   79.118">  7  8 -1 -1</clus>
<clus scale="   80.552">  5  6 -1 -1</clus>
<clus scale="   80.803">  1  5  2 -1</clus>
<clus scale="  156.174">  2  9  1 -1</clus>
<clus scale="  156.174">  2  5  1 -1</clus>
</clustering>
</event>
<event>
 9    1  0.7586638E-005  0.1046004E+03  0.7546771E-02  0.1276386E+00
         21   -1    0    0  501  502  0.00000000000E+00  0.00000000000E+00  0.41856193680E+03  0.41856193680E+03  0.00000000000E+00 0. -1.
         -2   -1    0    0    0  501 -0.00000000000E+00 -0.00000000000E+00 -0.43619252459E+02  0.43619252459E+02  0.00000000000E+00 0.  1.
         23    2    1    2    0    0  0.16861723627E+02 -0.50421539431E+02  0.10853539312E+03  0.15216459542E+03  0.92452599631E+02 0.  0.
        -24    2    1    2    0    0 -0.59624341647E+02  0.12385216961E+02  0.18074577193E+03  0.20699572598E+03  0.80434698893E+02 0.  0.
         11    1    4    4    0    0 -0.24793129132E+02  0.43999595234E+02  0.11978355116E+03  0.12999524130E+03  0.00000000000E+00 0. -1.
        -12    1    4    4    0    0 -0.34831212515E+02 -0.31614378272E+02  0.60962220772E+02  0.77000484675E+02  0.00000000000E+00 0.  1.
        -13    1    3    3    0    0 -0.15048621530E+02  0.19010371323E+02  0.72870818331E+01  0.25317124430E+02  0.00000000000E+00 0.  1.
         13    1    3    3    0    0  0.31910345157E+02 -0.69431910754E+02  0.10124831129E+03  0.12684747099E+03  0.00000000000E+00 0. -1.
         -1    1    1    2    0  502  0.42762618020E+02  0.38036322470E+02  0.85661519290E+02  0.10302086786E+03  0.00000000000E+00 0.  1.
<scales pt_clust_5="13000.00000" pt_clust_6="13000.00000" pt_clust_7="13000.00000" pt_clust_8="13000.00000" pt_clust_9="57.23114"></scales>
<clustering>
<clus scale="   57.231">  1  9  2 -1</clus>
<clus scale="   80.435">  5  6 -1 -1</clus>
<clus scale="   92.453">  7  8 -1 -1</clus>
<clus scale="   94.146">  1  5  2 -1</clus>
<clus scale="   57.231">  1  5  2 -1</clus>
</clustering>
</event>
<event>
 9    1  0.7586638E-005  0.1256252E+03  0.7546771E-02  0.1237763E+00
         21   -1    0    0  501  502  0.00000000000E+00  0.00000000000E+00  0.13735668694E+03  0.13735668694E+03  0.00000000000E+00 0. -1.
          1   -1    0    0  502    0 -0.00000000000E+00 -0.00000000000E+00 -0.49885737240E+03  0.49885737240E+03  0.00000000000E+00 0. -1.
        -24    2    1    2    0    0  0.10780525224E+03 -0.56162810716E+01 -0.35781119210E+03  0.38246704401E+03  0.81232232126E+02 0.  0.
         23    2    1    2    0    0 -0.39279459145E+02 -0.12535849235E+02 -0.93928208600E+02  0.13899375881E+03  0.93790901426E+02 0.  0.
         11    1    3    3    0    0  0.87143808477E+02 -0.21082778984E+02 -0.33866402102E+03  0.35033105209E+03  0.00000000000E+00 0. -1.
        -12    1    3    3    0    0  0.20661443763E+02  0.15466497912E+02 -0.19147171077E+02  0.32135991914E+02  0.00000000000E+00 0.  1.
        -13    1    4    4    0    0 -0.40416001046E+02  0.15022729564E+02 -0.10159493015E+03  0.11036605174E+03  0.00000000000E+00 0.  1.
         13    1    4    4    0    0  0.11365419002E+01 -0.27558578799E+02  0.76667215489E+01  0.28627707072E+02  0.00000000000E+00 0. -1.
          2    1    1    2  501    0 -0.68525793095E+02  0.18152130307E+02  0.90238715239E+02  0.11475325652E+03  0.00000000000E+00 0. -1.
<scales pt_clust_5="13000.00000" pt_clust_6="13000.00000" pt_clust_7="13000.00000" pt_clust_8="13000.00000" pt_clust_9="70.88924"></scales>
<clustering>
<clus scale="   70.889">  1  9  2 -1</clus>
<clus scale="   81.232">  5  6 -1 -1</clus>
<clus scale="   93.791">  7  8 -1 -1</clus>
<clus scale="  116.549">  2  5  1 -1</clus>
<clus scale="   70.889">  1  5  2 -1</clus>
</clustering>
</event>
<event>
 9    1  0.7586638E-005  0.1592768E+03  0.7546771E-02  0.1191260E+00
         21   -1    0    0  501  502  0.00000000000E+00  0.00000000000E+00  0.15476945978E+03  0.15476945978E+03  0.00000000000E+00 0.  1.
          1   -1    0    0  502    0 -0.00000000000E+00 -0.00000000000E+00 -0.60892296568E+03  0.60892296568E+03  0.00000000000E+00 0. -1.
        -24    2    1    2    0    0 -0.69278770250E+02  0.11247600309E+03 -0.54523797765E+03  0.56676019955E+03  0.80512559514E+02 0.  0.
         23    2    1    2    0    0  0.46018456078E+02 -0.10432847118E+03  0.61905999752E+02  0.15873788444E+03  0.91450724178E+02 0.  0.
         11    1    3    3    0    0 -0.75542968846E+02  0.97820970840E+02 -0.35584763524E+03  0.37670044064E+03  0.00000000000E+00 0. -1.
        -12    1    3    3    0    0  0.62641985965E+01  0.14655032250E+02 -0.18939034242E+03  0.19005975891E+03  0.00000000000E+00 0.  1.
        -11    1    4    4    0    0  0.51829247981E+02 -0.80434186866E+02  0.39356257620E+01  0.95767523270E+02  0.00000000000E+00 0. -1.
         11    1    4    4    0    0 -0.58107919028E+01 -0.23894284313E+02  0.57970373990E+02  0.62970361170E+02  0.00000000000E+00 0.  1.
          2    1    1    2  501    0  0.23260314172E+02 -0.81475319118E+01  0.29178472005E+02  0.38194341468E+02  0.00000000000E+00 0. -1.
<scales pt_clust_5="13000.00000" pt_clust_6="13000.00000" pt_clust_7="13000.00000" pt_clust_8="13000.00000" pt_clust_9="24.64598"></scales>
<clustering>
<clus scale="   24.646">  1  9  2 -1</clus>
<clus scale="   80.513">  5  6 -1 -1</clus>
<clus scale="   91.451">  7  8 -1 -1</clus>
<clus scale="  153.258">  2  5  1 -1</clus>
<clus scale="   24.646">  1  5  2 -1</clus>
</clustering>
</event>
<event>
 9    1  0.7586638E-005  0.1917349E+03  0.7546771E-02  0.1158081E+00
         21   -1    0    0  501  502  0.00000000000E+00  0.00000000000E+00  0.18229806876E+03  0.18229806876E+03  0.00000000000E+00 0. -1.
          1   -1    0    0  502    0 -0.00000000000E+00 -0.00000000000E+00 -0.83321548376E+03  0.83321548376E+03  0.00000000000E+00 0. -1.
        -24    2    1    2    0    0 -0.17650708306E+03  0.32536900376E+02 -0.56317561215E+03  0.59640655768E+03  0.79502274549E+02 0.  0.
         23    2    1    2    0    0  0.86527494136E+02 -0.16969053666E+03 -0.13228196582E+03  0.24913266594E+03  0.91031210480E+02 0.  0.
         13    1    3    3    0    0 -0.10479842860E+03 -0.20048280410E+02 -0.33167405093E+03  0.34841400696E+03  0.00000000000E+00 0. -1.
        -14    1    3    3    0    0 -0.71708654461E+02  0.52585180786E+02 -0.23150156122E+03  0.24799255072E+03  0.00000000000E+00 0.  1.
        -11    1    4    4    0    0  0.16303913445E+02 -0.38823465823E+02  0.10194347791E+02  0.43324402120E+02  0.00000000000E+00 0.  1.
         11    1    4    4    0    0  0.70223580691E+02 -0.13086707084E+03 -0.14247631361E+03  0.20580826382E+03  0.00000000000E+00 0. -1.
          2    1    1    2  501    0  0.89979588926E+02  0.13715363628E+03  0.44540162980E+02  0.16997432891E+03  0.00000000000E+00 0. -1.
<scales pt_clust_5="13000.00000" pt_clust_6="13000.00000" pt_clust_7="13000.00000" pt_clust_8="13000.00000" pt_clust_9="164.03489"></scales>
<clustering>
<clus scale="   79.502">  5  6 -1 -1</clus>
<clus scale="   91.031">  7  8 -1 -1</clus>
<clus scale="  164.035">  1  9  2 -1</clus>
<clus scale="  186.537">  2  5  1 -1</clus>
<clus scale="  164.035">  1  5  2 -1</clus>
</clustering>
</event>
<event>
 9    1  0.7586638E-005  0.1016960E+03  0.7546771E-02  0.1282463E+00
         -2   -1    0    0    0  501 -0.00000000000E+00  0.00000000000E+00  0.47485937394E+03  0.47485937394E+03  0.00000000000E+00 0.  1.
         21   -1    0    0  501  502  0.00000000000E+00 -0.00000000000E+00 -0.28549043980E+02  0.28549043980E+02  0.00000000000E+00 0. -1.
        -24    2    1    2    0    0 -0.14285158295E+02  0.28419708504E+02  0.19642724442E+03  0.21462649177E+03  0.80430858757E+02 0.  0.
         23    2    1    2    0    0  0.25925689373E+02 -0.51895539399E+02  0.23414887167E+03  0.25821753370E+03  0.92115754498E+02 0.  0.
         11    1    3    3    0    0 -0.43347290342E+02  0.27346593005E+02  0.83159097238E+02  0.97684487931E+02  0.00000000000E+00 0. -1.
        -12    1    3    3    0    0  0.29062132047E+02  0.10731154991E+01  0.11326814718E+03  0.11694200384E+03  0.00000000000E+00 0.  1.
        -11    1    4    4    0    0 -0.33292253939E+02 -0.10823818174E+02  0.55973293580E+02  0.66019230580E+02  0.00000000000E+00 0.  1.
         11    1    4    4    0    0  0.59217943311E+02 -0.41071721224E+02  0.17817557809E+03  0.19219830312E+03  0.00000000000E+00 0. -1.
         -1    1    1    2    0  502 -0.11640531078E+02  0.23475830895E+02  0.15734213881E+02  0.30564392460E+02  0.00000000000E+00 0.  1.
<scales pt_clust_5="13000.00000" pt_clust_6="13000.00000" pt_clust_7="13000.00000" pt_clust_8="13000.00000" pt_clust_9="26.20337"></scales>
<clustering>
<clus scale="   26.203">  2  9  1 -1</clus>
<clus scale="   80.431">  5  6 -1 -1</clus>
<clus scale="   91.246">  1  5  2 -1</clus>
<clus scale="   92.116">  7  8 -1 -1</clus>
<clus scale="   26.203">  2  5  1 -1</clus>
</clustering>
</event>
<event>
 9    1  0.7586638E-005  0.9770808E+02  0.7546771E-02  0.1291432E+00
         21   -1    0    0  501  502  0.00000000000E+00  0.00000000000E+00  0.83425321043E+02  0.83425321043E+02  0.00000000000E+00 0. -1.
          1   -1    0    0  502    0 -0.00000000000E+00 -0.00000000000E+00 -0.25163900212E+03  0.25163900212E+03  0.00000000000E+00 0. -1.
         23    2    1    2    0    0 -0.54424733349E+01 -0.38446008808E+02 -0.19433115076E+03  0.21839635263E+03  0.91785917086E+02 0.  0.
        -24    2    1    2    0    0 -0.12269089686E+02  0.13647061842E+02  0.12167168650E+02  0.83152330387E+02  0.80184145548E+02 0.  0.
         11    1    4    4    0    0 -0.25840206101E+02 -0.27998668049E+02  0.95171139557E+01  0.39271072330E+02  0.00000000000E+00 0. -1.
        -12    1    4    4    0    0  0.13571116415E+02  0.41645729890E+02  0.26500546946E+01  0.43881258058E+02  0.00000000000E+00 0.  1.
        -13    1    3    3    0    0  0.35543310329E+02  0.22316927483E+01 -0.39689874102E+02  0.53325354831E+02  0.00000000000E+00 0.  1.
         13    1    3    3    0    0 -0.40985783664E+02 -0.40677701556E+02 -0.15464127666E+03  0.16507099780E+03  0.00000000000E+00 0. -1.
          2    1    1    2  501    0  0.17711563021E+02  0.24798946966E+02  0.13950301038E+02  0.33515640145E+02  0.00000000000E+00 0. -1.
<scales pt_clust_5="13000.00000" pt_clust_6="13000.00000" pt_clust_7="13000.00000" pt_clust_8="13000.00000" pt_clust_9="30.47437"></scales>
<clustering>
<clus scale="   30.474">  1  9  2 -1</clus>
<clus scale="   80.184">  5  6 -1 -1</clus>
<clus scale="   86.901">  1  5  2 -1</clus>
<clus scale="   91.786">  7  8 -1 -1</clus>
<clus scale="   30.474">  1  5  2 -1</clus>
</clustering>
</event>
<event>
 9    1  0.7586638E-005  0.1442136E+03  0.7546771E-02  0.1210685E+00
         21   -1    0    0  501  502  0.00000000000E+00  0.00000000000E+00  0.22032521230E+03  0.22032521230E+03  0.00000000000E+00 0.  1.
          1   -1    0    0  502    0 -0.00000000000E+00 -0.00000000000E+00 -0.32455150383E+03  0.32455150383E+03  0.00000000000E+00 0. -1.
        -24    2    1    2    0    0  0.92127827518E+02 -0.61414656476E+02 -0.25644799408E+03  0.28947319249E+03  0.75959587086E+02 0.  0.
         23    2    1    2    0    0 -0.91262109938E+02  0.84085368653E+02  0.67716697603E+02  0.16790605784E+03  0.90596750465E+02 0.  0.
         13    1    3    3    0    0  0.74414409464E+02 -0.69879253221E+02 -0.15135463158E+03  0.18256187681E+03  0.00000000000E+00 0. -1.
        -14    1    3    3    0    0  0.17713418054E+02  0.84645967453E+01 -0.10509336251E+03  0.10691131568E+03  0.00000000000E+00 0.  1.
        -13    1    4    4    0    0 -0.51015066818E+01  0.53724324695E+02  0.52507603019E+02  0.75295264188E+02  0.00000000000E+00 0. -1.
         13    1    4    4    0    0 -0.86160603256E+02  0.30361043959E+02  0.15209094584E+02  0.92610793657E+02  0.00000000000E+00 0.  1.
          2    1    1    2  501    0 -0.86571758044E+00 -0.22670712177E+02  0.84505004956E+02  0.87497465793E+02  0.00000000000E+00 0. -1.
<scales pt_clust_5="13000.00000" pt_clust_6="13000.00000" pt_clust_7="13000.00000" pt_clust_8="13000.00000" pt_clust_9="22.68724"></scales>
<clustering>
<clus scale="   22.687">  1  9  2 -1</clus>
<clus scale="   75.960">  5  6 -1 -1</clus>
<clus scale="   90.597">  7  8 -1 -1</clus>
<clus scale="  135.498">  2  5  1 -1</clus>
<clus scale="   22.687">  1  5  2 -1</clus>
</clustering>
</event>
<event>
 9    1  0.7586638E-005  0.1347212E+03  0.7546771E-02  0.1223232E+00
         21   -1    0    0  501  502  0.00000000000E+00  0.00000000000E+00  0.20579430895E+03  0.20579430895E+03  0.00000000000E+00 0.  1.
         -2   -1    0    0    0  501 -0.00000000000E+00 -0.00000000000E+00 -0.12778833741E+03  0.12778833741E+03  0.00000000000E+00 0.  1.
         23    2    1    2    0    0 -0.24596748126E+02 -0.11848738311E+03 -0.10377182403E+02  0.15174733265E+03  0.90968714831E+02 0.  0.
        -24    2    1    2    0    0  0.19305726547E+02  0.66886447058E+02  0.68868892114E+02  0.12641457818E+03  0.79945064876E+02 0.  0.
         13    1    4    4    0    0  0.45222829769E+02  0.36926788352E+02  0.16348847339E+02  0.60629834567E+02  0.00000000000E+00 0. -1.
        -14    1    4    4    0    0 -0.25917103222E+02  0.29959658706E+02  0.52520044775E+02  0.65784743614E+02  0.00000000000E+00 0.  1.
        -13    1    3    3    0    0 -0.46586192792E+02 -0.11681426224E+03  0.32873822133E+01  0.12580402260E+03  0.00000000000E+00 0.  1.
         13    1    3    3    0    0  0.21989444666E+02 -0.16731208708E+01 -0.13664564616E+02  0.25943310050E+02  0.00000000000E+00 0. -1.
         -1    1    1    2    0  502  0.52910215791E+01  0.51600936052E+02  0.19514261832E+02  0.55420735521E+02  0.00000000000E+00 0.  1.
<scales pt_clust_5="13000.00000" pt_clust_6="13000.00000" pt_clust_7="13000.00000" pt_clust_8="13000.00000" pt_clust_9="51.87149"></scales>
<clustering>
<clus scale="   51.871">  1  9  2 -1</clus>
<clus scale="   79.945">  5  6 -1 -1</clus>
<clus scale="   90.969">  7  8 -1 -1</clus>
<clus scale="  127.537">  1  5  2 -1</clus>
<clus scale="   51.871">  1  5  2 -1</clus>
</clustering>
</event>
<event>
 9    1  0.7586638E-005  0.2399899E+03  0.7546771E-02  0.1164837E+00
         21   -1    0    0  501  502  0.00000000000E+00  0.00000000000E+00  0.69832620346E+03  0.69832620346E+03  0.00000000000E+00 0. -1.
          1   -1    0    0  502    0 -0.00000000000E+00 -0.00000000000E+00 -0.18147243940E+03  0.18147243940E+03  0.00000000000E+00 0. -1.
        -24    2    1    2    0    0  0.92792293781E+01 -0.76375090739E+01 -0.85432965483E+02  0.11794408716E+03  0.80421268718E+02 0.  0.
         23    2    1    2    0    0  0.45047811693E+02 -0.21202993806E+03  0.24882621720E+03  0.34216473154E+03  0.90422437305E+02 0.  0.
         11    1    3    3    0    0  0.23034367044E+02 -0.39764200988E+02 -0.54348897135E+02  0.71172862560E+02  0.00000000000E+00 0. -1.
        -12    1    3    3    0    0 -0.13755137665E+02  0.32126691914E+02 -0.31084068349E+02  0.46771224600E+02  0.00000000000E+00 0.  1.
        -13    1    4    4    0    0  0.27701607702E+02 -0.11774099822E+03  0.20205725143E+03  0.23549406487E+03  0.00000000000E+00 0. -1.
         13    1    4    4    0    0  0.17346203991E+02 -0.94288939836E+02  0.46768965773E+02  0.10667066667E+03  0.00000000000E+00 0.  1.
          2    1    1    2  501    0 -0.54327041071E+02  0.21966744713E+03  0.35346051234E+03  0.41968982416E+03  0.00000000000E+00 0. -1.
<scales pt_clust_5="13000.00000" pt_clust_6="13000.00000" pt_clust_7="13000.00000" pt_clust_8="13000.00000" pt_clust_9="222.30372"></scales>
<clustering>
<clus scale="   80.421">  5  6 -1 -1</clus>
<clus scale="   81.314">  2  5  1 -1</clus>
<clus scale="   90.422">  7  8 -1 -1</clus>
<clus scale="  222.304">  1  9  2 -1</clus>
<clus scale="  222.304">  1  5  2 -1</clus>
</clustering>
</event>
<event>
 9    1  0.7586638E-005  0.3230229E+03  0.7546771E-02  0.1074589E+00
          1   -1    0    0  502    0 -0.00000000000E+00  0.00000000000E+00  0.16938541269E+04  0.16938541269E+04  0.00000000000E+00 0. -1.
         21   -1    0    0  501  502  0.00000000000E+00 -0.00000000000E+00 -0.81724420938E+02  0.81724420938E+02  0.00000000000E+00 0. -1.
         23    2    1    2    0    0 -0.12801359246E+03 -0.28888606417E+03  0.12036352446E+04  0.12478767826E+04  0.92822543326E+02 0.  0.
        -24    2    1    2    0    0  0.12579330915E+03  0.26582599167E+03  0.39943676816E+03  0.50282731233E+03  0.82450953870E+02 0.  0.
         11    1    4    4    0    0  0.41952467622E+02  0.18068464312E+03  0.25604034312E+03  0.31617021856E+03  0.00000000000E+00 0. -1.
        -12    1    4    4    0    0  0.83840841529E+02  0.85141348548E+02  0.14339642504E+03  0.18665709377E+03  0.00000000000E+00 0.  1.
        -11    1    3    3    0    0 -0.11770945251E+02 -0.26358396060E+02  0.39902677127E+02  0.49249810526E+02  0.00000000000E+00 0.  1.
         11    1    3    3    0    0 -0.11624264721E+03 -0.26252766811E+03  0.11637325675E+04  0.11986269721E+04  0.00000000000E+00 0. -1.
          2    1    1    2  501    0  0.22202833059E+01  0.23060072498E+02  0.90576931856E+01  0.24874452906E+02  0.00000000000E+00 0. -1.
<scales pt_clust_5="13000.00000" pt_clust_6="13000.00000" pt_clust_7="13000.00000" pt_clust_8="13000.00000" pt_clust_9="23.16671"></scales>
<clustering>
<clus scale="   23.167">  2  9  1 -1</clus>
<clus scale="   82.451">  5  6 -1 -1</clus>
<clus scale="   92.823">  7  8 -1 -1</clus>
<clus scale="  320.197">  2  5  1 -1</clus>
<clus scale="   23.167">  2  5  1 -1</clus>
</clustering>
</event>
<event>
 9    1  0.7586638E-005  0.1154214E+03  0.7546771E-02  0.1254501E+00
          1   -1    0    0  502    0 -0.00000000000E+00  0.00000000000E+00  0.41085761777E+03  0.41085761777E+03  0.00000000000E+00 0. -1.
         21   -1    0    0  501  502  0.00000000000E+00 -0.00000000000E+00 -0.98481017477E+02  0.98481017477E+02  0.00000000000E+00 0. -1.
        -24    2    1    2    0    0  0.50809556980E+02  0.50058875263E+02  0.30694884695E+03  0.32505884746E+03  0.79738056139E+02 0.  0.
         23    2    1    2    0    0 -0.27695167589E+02 -0.79590125486E+02 -0.35726565697E+02  0.12860171569E+03  0.90334951149E+02 0.  0.
         11    1    3    3    0    0  0.66558317253E+02  0.17018671215E+02  0.22618953591E+03  0.23639236646E+03  0.00000000000E+00 0. -1.
        -12    1    3    3    0    0 -0.15748760273E+02  0.33040204048E+02  0.80759311039E+02  0.88666481001E+02  0.00000000000E+00 0.  1.
        -13    1    4    4    0    0 -0.21844953473E+02 -0.26334101248E+02 -0.60554289687E+02  0.69552202555E+02  0.00000000000E+00 0. -1.
         13    1    4    4    0    0 -0.58502141167E+01 -0.53256024239E+02  0.24827723990E+02  0.59049513135E+02  0.00000000000E+00 0.  1.
          2    1    1    2  501    0 -0.23114389390E+02  0.29531250223E+02  0.41154319041E+02  0.55678072097E+02  0.00000000000E+00 0. -1.
<scales pt_clust_5="13000.00000" pt_clust_6="13000.00000" pt_clust_7="13000.00000" pt_clust_8="13000.00000" pt_clust_9="37.50162"></scales>
<clustering>
<clus scale="   37.502">  2  9  1 -1</clus>
<clus scale="   79.738">  5  6 -1 -1</clus>
<clus scale="   90.335">  7  8 -1 -1</clus>
<clus scale="  107.331">  1  5  2 -1</clus>
<clus scale="   37.502">  2  5  1 -1</clus>
</clustering>
</event>
<event>
 9    1  0.7586638E-005  0.1280096E+03  0.7546771E-02  0.1234818E+00
         21   -1    0    0  501  502  0.00000000000E+00  0.00000000000E+00  0.30655327668E+03  0.30655327668E+03  0.00000000000E+00 0. -1.
          1   -1    0    0  502    0 -0.00000000000E+00 -0.00000000000E+00 -0.25876711813E+03  0.25876711813E+03  0.00000000000E+00 0. -1.
        -24    2    1    2    0    0 -0.93707829224E+02 -0.48981792718E+02 -0.18971066393E+03  0.23160379334E+03  0.80435115492E+02 0.  0.
         23    2    1    2    0    0  0.26093363744E+02  0.35505148948E+01  0.19786184963E+02  0.10126523315E+03  0.95758469818E+02 0.  0.
         13    1    3    3    0    0 -0.64605152448E+02 -0.57161797149E+02 -0.18041384577E+03  0.19997612988E+03  0.00000000000E+00 0. -1.
        -14    1    3    3    0    0 -0.29102676776E+02  0.81800044311E+01 -0.92968181615E+01  0.31627663460E+02  0.00000000000E+00 0.  1.
        -13    1    4    4    0    0 -0.26286148873E+02  0.28437881519E+02  0.19307643177E+02  0.43271928694E+02  0.00000000000E+00 0. -1.
         13    1    4    4    0    0  0.52379512617E+02 -0.24887366624E+02  0.47854178568E+00  0.57993304456E+02  0.00000000000E+00 0.  1.
          2    1    1    2  501    0  0.67614465480E+02  0.45431277823E+02  0.21771063752E+03  0.23245136832E+03  0.00000000000E+00 0. -1.
<scales pt_clust_5="13000.00000" pt_clust_6="13000.00000" pt_clust_7="13000.00000" pt_clust_8="13000.00000" pt_clust_9="81.45991"></scales>
<clustering>
<clus scale="   80.435">  5  6 -1 -1</clus>
<clus scale="   81.460">  1  9  2 -1</clus>
<clus scale="   95.758">  7  8 -1 -1</clus>
<clus scale="  116.990">  2  5  1 -1</clus>
<clus scale="   81.460">  1  5  2 -1</clus>
</clustering>
</event>
<event>
 9    1  0.7586638E-005  0.1999815E+03  0.7546771E-02  0.1167092E+00
          3   -1    0    0  502    0 -0.00000000000E+00  0.00000000000E+00  0.91032713090E+03  0.91032713090E+03  0.00000000000E+00 0. -1.
         21   -1    0    0  501  502  0.00000000000E+00 -0.00000000000E+00 -0.87590194313E+02  0.87590194313E+02  0.00000000000E+00 0.  1.
        -24    2    1    2    0    0  0.62565354632E+02  0.86423994669E+02  0.19632806234E+03  0.23737085849E+03  0.80104219267E+02 0.  0.
         23    2    1    2    0    0 -0.94881308500E+02  0.10768125765E+03  0.49649476780E+03  0.52475239362E+03  0.90886215750E+02 0.  0.
         11    1    3    3    0    0  0.11672429860E+02  0.21588473371E+02  0.12793149809E+03  0.13026425452E+03  0.00000000000E+00 0. -1.
        -12    1    3    3    0    0  0.50892924772E+02  0.64835521297E+02  0.68396564247E+02  0.10710660397E+03  0.00000000000E+00 0.  1.
        -13    1    4    4    0    0 -0.33088894946E+02  0.10114169506E+03  0.34399413678E+03  0.36007844088E+03  0.00000000000E+00 0. -1.
         13    1    4    4    0    0 -0.61792413553E+02  0.65395625901E+01  0.15250063102E+03  0.16467395275E+03  0.00000000000E+00 0.  1.
          4    1    1    2  501    0  0.32315953868E+02 -0.19410525232E+03  0.12991410645E+03  0.23579407310E+03  0.00000000000E+00 0. -1.
<scales pt_clust_5="13000.00000" pt_clust_6="13000.00000" pt_clust_7="13000.00000" pt_clust_8="13000.00000" pt_clust_9="178.13563"></scales>
<clustering>
<clus scale="   80.104">  5  6 -1 -1</clus>
<clus scale="   90.886">  7  8 -1 -1</clus>
<clus scale="  133.417">  1  5  2 -1</clus>
<clus scale="  178.136">  2  9  1 -1</clus>
<clus scale="  178.136">  2  5  1 -1</clus>
</clustering>
</event>
<event>
 9    1  0.7586638E-005  0.1023223E+03  0.7546771E-02  0.1281732E+00
          1   -1    0    0  502    0 -0.00000000000E+00  0.00000000000E+00  0.48495503317E+03  0.48495503317E+03  0.00000000000E+00 0. -1.
         21   -1    0    0  501  502  0.00000000000E+00 -0.00000000000E+00 -0.27846025406E+02  0.27846025406E+02  0.00000000000E+00 0. -1.
         23    2    1    2    0    0 -0.27542177023E+02 -0.24871112663E+02  0.29779810701E+03  0.31418858480E+03  0.93024784412E+02 0.  0.
        -24    2    1    2    0    0  0.28548083247E+02  0.46407219115E+02  0.13302257503E+03  0.16461406503E+03  0.80213227680E+02 0.  0.
         11    1    4    4    0    0  0.13697706719E+02  0.58425239678E+02  0.46251987985E+02  0.75765309961E+02  0.00000000000E+00 0. -1.
        -12    1    4    4    0    0  0.14850376527E+02 -0.12018020564E+02  0.86770587040E+02  0.88848755065E+02  0.00000000000E+00 0.  1.
        -13    1    3    3    0    0 -0.59925649323E+02 -0.25951969142E+01  0.19954917358E+03  0.20836912240E+03  0.00000000000E+00 0. -1.
         13    1    3    3    0    0  0.32383472300E+02 -0.22275915748E+02  0.98248933435E+02  0.10581946240E+03  0.00000000000E+00 0.  1.
          2    1    1    2  501    0 -0.10059062235E+01 -0.21536106452E+02  0.26288325728E+02  0.33998408758E+02  0.00000000000E+00 0. -1.
<scales pt_clust_5="13000.00000" pt_clust_6="13000.00000" pt_clust_7="13000.00000" pt_clust_8="13000.00000" pt_clust_9="21.55959"></scales>
<clustering>
<clus scale="   21.560">  2  9  1 -1</clus>
<clus scale="   80.213">  5  6 -1 -1</clus>
<clus scale="   90.832">  2  5  1 -1</clus>
<clus scale="   93.025">  7  8 -1 -1</clus>
<clus scale="   21.560">  2  5  1 -1</clus>
</clustering>
</event>
<event>
 9    1  0.7586638E-005  0.1012780E+03  0.7546771E-02  0.1282797E+00
         -2   -1    0    0    0  501 -0.00000000000E+00  0.00000000000E+00  0.33224167252E+02  0.33224167252E+02  0.00000000000E+00 0.  1.
         21   -1    0    0  501  502  0.00000000000E+00 -0.00000000000E+00 -0.81325679429E+03  0.81325679429E+03  0.00000000000E+00 0. -1.
         23    2    1    2    0    0 -0.12397807672E+02  0.29701283562E+02 -0.10386701519E+03  0.14206630617E+03  0.91425415637E+02 0.  0.
        -24    2    1    2    0    0  0.79461416082E+02 -0.53814064031E+02 -0.46025827397E+03  0.47704945948E+03  0.80798749337E+02 0.  0.
         11    1    4    4    0    0  0.84446093734E+02 -0.17541856521E+02 -0.36359304363E+03  0.37368270077E+03  0.00000000000E+00 0. -1.
        -12    1    4    4    0    0 -0.49846776521E+01 -0.36272207510E+02 -0.96665230339E+02  0.10336675871E+03  0.00000000000E+00 0.  1.
        -13    1    3    3    0    0 -0.26003010402E+02  0.79116802188E+01  0.71592243674E+01  0.28107040531E+02  0.00000000000E+00 0.  1.
         13    1    3    3    0    0  0.13605202730E+02  0.21789603343E+02 -0.11102623956E+03  0.11395926564E+03  0.00000000000E+00 0. -1.
         -1    1    1    2    0  502 -0.67063608410E+02  0.24112780470E+02 -0.21590733788E+03  0.22736519590E+03  0.00000000000E+00 0.  1.
<scales pt_clust_5="13000.00000" pt_clust_6="13000.00000" pt_clust_7="13000.00000" pt_clust_8="13000.00000" pt_clust_9="71.26678"></scales>
<clustering>
<clus scale="   71.267">  2  9  1 -1</clus>
<clus scale="   80.799">  5  6 -1 -1</clus>
<clus scale="   91.425">  7  8 -1 -1</clus>
<clus scale="   91.799">  2  5  1 -1</clus>
<clus scale="   71.267">  2  5  1 -1</clus>
</clustering>
</event>
<event>
 9    1  0.7586638E-005  0.1378623E+03  0.7546771E-02  0.1223878E+00
         21   -1    0    0  501  502  0.00000000000E+00  0.00000000000E+00  0.33750006397E+03  0.33750006397E+03  0.00000000000E+00 0. -1.
          1   -1    0    0  502    0 -0.00000000000E+00 -0.00000000000E+00 -0.20987932675E+03  0.20987932675E+03  0.00000000000E+00 0. -1.
        -24    2    1    2    0    0 -0.49206763407E+02 -0.68300711593E+02 -0.15743382503E+03  0.19548957417E+03  0.79652191293E+02 0.  0.
         23    2    1    2    0    0  0.39245361318E+02  0.11247148934E+03  0.23272207456E+03  0.28268738590E+03  0.10752934419E+03 0.  0.
         13    1    3    3    0    0 -0.49307963389E+02 -0.66814818531E+02 -0.16662935737E+03  0.18617421402E+03  0.00000000000E+00 0. -1.
        -14    1    3    3    0    0  0.10119998126E+00 -0.14858930623E+01  0.91955323434E+01  0.93153601491E+01  0.00000000000E+00 0.  1.
        -13    1    4    4    0    0  0.34832374403E+02  0.32653553547E+02  0.18166386080E+03  0.18783318979E+03  0.00000000000E+00 0.  1.
         13    1    4    4    0    0  0.44129869143E+01  0.79817935791E+02  0.51058213758E+02  0.94854196109E+02  0.00000000000E+00 0. -1.
          2    1    1    2  501    0  0.99614020898E+01 -0.44170777745E+02  0.52332487692E+02  0.69202430638E+02  0.00000000000E+00 0. -1.
<scales pt_clust_5="13000.00000" pt_clust_6="13000.00000" pt_clust_7="13000.00000" pt_clust_8="13000.00000" pt_clust_9="45.28010"></scales>
<clustering>
<clus scale="   45.280">  1  9  2 -1</clus>
<clus scale="   79.652">  5  6 -1 -1</clus>
<clus scale="  107.529">  7  8 -1 -1</clus>
<clus scale="  117.422">  2  5  1 -1</clus>
<clus scale="   45.280">  1  5  2 -1</clus>
</clustering>
</event>
<event>
 9    1  0.7586638E-005  0.9432403E+02  0.7546771E-02  0.1297824E+00
          1   -1    0    0  502    0 -0.00000000000E+00  0.00000000000E+00  0.14652140628E+04  0.14652140628E+04  0.00000000000E+00 0. -1.
         21   -1    0    0  501  502  0.00000000000E+00 -0.00000000000E+00 -0.14952750508E+02  0.14952750508E+02  0.00000000000E+00 0. -1.
        -24    2    1    2    0    0 -0.26195587164E+02 -0.39275875107E+02  0.49747691770E+03  0.50636149818E+03  0.81791686882E+02 0.  0.
         23    2    1    2    0    0 -0.57802224096E+02  0.31239681074E+01  0.44301651759E+03  0.45590003315E+03  0.90721271395E+02 0.  0.
         13    1    3    3    0    0  0.14303125496E+02 -0.17409035184E+02  0.35163397586E+02  0.41762644011E+02  0.00000000000E+00 0. -1.
        -14    1    3    3    0    0 -0.40498712660E+02 -0.21866839923E+02  0.46231352012E+03  0.46459885417E+03  0.00000000000E+00 0.  1.
        -13    1    4    4    0    0 -0.77352796831E+02  0.12421395294E+02  0.40156360121E+03  0.40913454029E+03  0.00000000000E+00 0. -1.
         13    1    4    4    0    0  0.19550572735E+02 -0.92974271870E+01  0.41452916378E+02  0.46765492864E+02  0.00000000000E+00 0.  1.
          2    1    1    2  501    0  0.83997811261E+02  0.36151907000E+02  0.50976787704E+03  0.51790528202E+03  0.00000000000E+00 0. -1.
<scales pt_clust_5="13000.00000" pt_clust_6="13000.00000" pt_clust_7="13000.00000" pt_clust_8="13000.00000" pt_clust_9="91.44726"></scales>
<clustering>
<clus scale="   81.792">  5  6 -1 -1</clus>
<clus scale="   90.721">  7  8 -1 -1</clus>
<clus scale="   91.447">  2  9  1 -1</clus>
<clus scale="   85.770">  1  5  2 -1</clus>
<clus scale="   91.447">  2  5  1 -1</clus>
</clustering>
</event>
<event>
 9    1  0.7586638E-005  0.1274631E+03  0.7546771E-02  0.1236158E+00
          1   -1    0    0  502    0 -0.00000000000E+00  0.00000000000E+00  0.10059177735E+04  0.10059177735E+04  0.00000000000E+00 0. -1.
         21   -1    0    0  501  502  0.00000000000E+00 -0.00000000000E+00 -0.30584750162E+02  0.30584750162E+02  0.00000000000E+00 0.  1.
         23    2    1    2    0    0  0.75244849639E+02  0.12088403909E+02  0.53100227231E+03  0.54493201418E+03  0.95810072384E+02 0.  0.
        -24    2    1    2    0    0 -0.10545688668E+03 -0.31182656188E+02  0.18197262334E+03  0.22678919440E+03  0.78903675811E+02 0.  0.
         11    1    4    4    0    0 -0.19834130164E+02 -0.15168785626E+02  0.11287498122E+03  0.11560383281E+03  0.00000000000E+00 0. -1.
        -12    1    4    4    0    0 -0.85622756519E+02 -0.16013870562E+02  0.69097642120E+02  0.11118536158E+03  0.00000000000E+00 0.  1.
        -13    1    3    3    0    0  0.71559989523E+01  0.45484399355E+02  0.22600418953E+03  0.23064677017E+03  0.00000000000E+00 0. -1.
         13    1    3    3    0    0  0.68088850687E+02 -0.33395995446E+02  0.30499808278E+03  0.31428524401E+03  0.00000000000E+00 0.  1.
          2    1    1    2  501    0  0.30212037044E+02  0.19094252278E+02  0.26235812771E+03  0.26478131510E+03  0.00000000000E+00 0. -1.
<scales pt_clust_5="13000.00000" pt_clust_6="13000.00000" pt_clust_7="13000.00000" pt_clust_8="13000.00000" pt_clust_9="35.74016"></scales>
<clustering>
<clus scale="   35.740">  2  9  1 -1</clus>
<clus scale="   78.904">  5  6 -1 -1</clus>
<clus scale="   95.810">  7  8 -1 -1</clus>
<clus scale="  115.296">  2  5  1 -1</clus>
<clus scale="   35.740">  2  5  1 -1</clus>
</clustering>
</event>
<event>
 9    1  0.7586638E-005  0.1006019E+03  0.7546771E-02  0.1283526E+00
         21   -1    0    0  501  502  0.00000000000E+00  0.00000000000E+00  0.15578020168E+03  0.15578020168E+03  0.00000000000E+00 0. -1.
         -2   -1    0    0    0  501 -0.00000000000E+00 -0.00000000000E+00 -0.40968449034E+03  0.40968449034E+03  0.00000000000E+00 0.  1.
        -24    2    1    2    0    0  0.45001115572E+02 -0.63555762027E+01 -0.27206938554E+03  0.28721497809E+03  0.80032489268E+02 0.  0.
         23    2    1    2    0    0 -0.64965556777E+02 -0.71431005479E+02  0.98720790505E+02  0.16450196241E+03  0.89399043884E+02 0.  0.
         11    1    3    3    0    0  0.21508616418E+02  0.26420963088E+02 -0.44206913131E+02  0.55811638923E+02  0.00000000000E+00 0. -1.
        -12    1    3    3    0    0  0.23492499155E+02 -0.32776539291E+02 -0.22786247241E+03  0.23140333917E+03  0.00000000000E+00 0.  1.
        -11    1    4    4    0    0  0.16664367421E+02 -0.40268833960E+02  0.40593635806E+02  0.59557731639E+02  0.00000000000E+00 0.  1.
         11    1    4    4    0    0 -0.81629924199E+02 -0.31162171519E+02  0.58127154699E+02  0.10494423077E+03  0.00000000000E+00 0. -1.
         -1    1    1    2    0  502  0.19964441205E+02  0.77786581682E+02 -0.80555693618E+02  0.11374775152E+03  0.00000000000E+00 0.  1.
<scales pt_clust_5="13000.00000" pt_clust_6="13000.00000" pt_clust_7="13000.00000" pt_clust_8="13000.00000" pt_clust_9="80.30777"></scales>
<clustering>
<clus scale="   80.032">  5  6 -1 -1</clus>
<clus scale="   80.308">  1  9  2 -1</clus>
<clus scale="   89.399">  7  8 -1 -1</clus>
<clus scale="   92.378">  2  5  1 -1</clus>
<clus scale="   80.308">  1  5  2 -1</clus>
</clustering>
</event>
<event>
 9    1  0.7586638E-005  0.1034432E+03  0.7546771E-02  0.1276265E+00
          3   -1    0    0  502    0 -0.00000000000E+00  0.00000000000E+00  0.38776626461E+03  0.38776626461E+03  0.00000000000E+00 0. -1.
         21   -1    0    0  501  502  0.00000000000E+00 -0.00000000000E+00 -0.53852642581E+02  0.53852642581E+02  0.00000000000E+00 0.  1.
         23    2    1    2    0    0  0.57903859824E+02  0.21618676451E+02  0.28175909143E+03  0.30226372825E+03  0.90304770977E+02 0.  0.
        -24    2    1    2    0    0 -0.15790633993E+02 -0.13815888703E+02  0.39207550851E+02  0.94611111496E+02  0.83509325660E+02 0.  0.
         11    1    4    4    0    0  0.31522147107E+02  0.66314217158E+00  0.77205605555E-01  0.31529216237E+02  0.00000000000E+00 0. -1.
        -12    1    4    4    0    0 -0.47312781100E+02 -0.14479030874E+02  0.39130345245E+02  0.63081895259E+02  0.00000000000E+00 0.  1.
        -13    1    3    3    0    0  0.56126886693E+02  0.50935861336E+02  0.23615534864E+03  0.24802023722E+03  0.00000000000E+00 0. -1.
         13    1    3    3    0    0  0.17769731304E+01 -0.29317184885E+02  0.45603742790E+02  0.54243491033E+02  0.00000000000E+00 0.  1.
          4    1    1    2  501    0 -0.42113225831E+02 -0.78027877484E+01  0.12946979751E+02  0.44744067441E+02  0.00000000000E+00 0. -1.
<scales pt_clust_5="13000.00000" pt_clust_6="13000.00000" pt_clust_7="13000.00000" pt_clust_8="13000.00000" pt_clust_9="42.82998"></scales>
<clustering>
<clus scale="   42.830">  2  9  1 -1</clus>
<clus scale="   83.509">  5  6 -1 -1</clus>
<clus scale="   90.305">  7  8 -1 -1</clus>
<clus scale="   97.567">  2  5  1 -1</clus>
<clus scale="   42.830">  2  5  1 -1</clus>
</clustering>
</event>
<event>
 9    1  0.7586638E-005  0.1101931E+03  0.7546771E-02  0.1263310E+00
          1   -1    0    0  502    0 -0.00000000000E+00  0.00000000000E+00  0.29301992005E+03  0.29301992005E+03  0.00000000000E+00 0. -1.
         21   -1    0    0  501  502  0.00000000000E+00 -0.00000000000E+00 -0.31592687876E+03  0.31592687876E+03  0.00000000000E+00 0. -1.
        -24    2    1    2    0    0  0.40805461070E+02  0.45100692942E+02  0.23412143255E+03  0.25563879423E+03  0.82699394064E+02 0.  0.
         23    2    1    2    0    0 -0.71654679678E+02 -0.35486405505E+02 -0.30793354714E+02  0.12477704262E+03  0.90705025078E+02 0.  0.
         11    1    3    3    0    0  0.28515732285E+02  0.42593431012E+02  0.23723989943E+03  0.24271406477E+03  0.00000000000E+00 0. -1.
        -12    1    3    3    0    0  0.12289728785E+02  0.25072619303E+01 -0.31184668813E+01  0.12924729463E+02  0.00000000000E+00 0.  1.
        -13    1    4    4    0    0 -0.47494043514E+02 -0.30414687017E+02  0.26557755511E+02  0.62338204445E+02  0.00000000000E+00 0. -1.
         13    1    4    4    0    0 -0.24160636164E+02 -0.50717184880E+01 -0.57351110225E+02  0.62438838172E+02  0.00000000000E+00 0.  1.
          2    1    1    2  501    0  0.30849218608E+02 -0.96142874376E+01 -0.22623503655E+03  0.22853096196E+03  0.00000000000E+00 0. -1.
<scales pt_clust_5="13000.00000" pt_clust_6="13000.00000" pt_clust_7="13000.00000" pt_clust_8="13000.00000" pt_clust_9="32.31267"></scales>
<clustering>
<clus scale="   32.313">  2  9  1 -1</clus>
<clus scale="   82.699">  5  6 -1 -1</clus>
<clus scale="   90.705">  7  8 -1 -1</clus>
<clus scale="  103.703">  1  5  2 -1</clus>
<clus scale="   32.313">  2  5  1 -1</clus>
</clustering>
</event>
<event>
 9    1  0.7586638E-005  0.1169455E+03  0.7546771E-02  0.1251894E+00
         -2   -1    0    0    0  501 -0.00000000000E+00  0.00000000000E+00  0.13697015676E+04  0.13697015676E+04  0.00000000000E+00 0.  1.
         21   -1    0    0  501  502  0.00000000000E+00 -0.00000000000E+00 -0.22096900240E+02  0.22096900240E+02  0.00000000000E+00 0.  1.
        -24    2    1    2    0    0  0.48969257094E+02 -0.76363523992E+02  0.69503888213E+03  0.70552721092E+03  0.80375504564E+02 0.  0.
         23    2    1    2    0    0  0.23129919182E+02  0.43668019051E+02  0.18557295965E+03  0.21261570021E+03  0.91248142849E+02 0.  0.
         11    1    3    3    0    0 -0.42233453266E+01 -0.51872346062E+02  0.18642523156E+03  0.19355346521E+03  0.00000000000E+00 0. -1.
        -12    1    3    3    0    0  0.53192602420E+02 -0.24491177930E+02  0.50861365057E+03  0.51197374571E+03  0.00000000000E+00 0.  1.
        -11    1    4    4    0    0  0.43640195825E+02  0.50174303756E+02  0.17764680888E+03  0.18968478103E+03  0.00000000000E+00 0.  1.
         11    1    4    4    0    0 -0.20510276644E+02 -0.65062847053E+01  0.79261507794E+01  0.22930919189E+02  0.00000000000E+00 0. -1.
         -1    1    1    2    0  502 -0.72099176275E+02  0.32695504941E+02  0.46699282561E+03  0.47365555675E+03  0.00000000000E+00 0.  1.
<scales pt_clust_5="13000.00000" pt_clust_6="13000.00000" pt_clust_7="13000.00000" pt_clust_8="13000.00000" pt_clust_9="79.16624"></scales>
<clustering>
<clus scale="   79.166">  2  9  1 -1</clus>
<clus scale="   80.376">  5  6 -1 -1</clus>
<clus scale="   91.248">  7  8 -1 -1</clus>
<clus scale="  108.675">  1  5  2 -1</clus>
<clus scale="   79.166">  2  5  1 -1</clus>
</clustering>
</event>
<event>
 9    1  0.7586638E-005  0.1512033E+03  0.7546771E-02  0.1217159E+00
          3   -1    0    0  502    0 -0.00000000000E+00  0.00000000000E+00  0.12942412505E+04  0.12942412505E+04  0.00000000000E+00 0. -1.
         21   -1    0    0  501  502  0.00000000000E+00 -0.00000000000E+00 -0.31114808777E+02  0.31114808777E+02  0.00000000000E+00 0. -1.
        -24    2    1    2    0    0  0.61638574330E+02  0.10325943736E+02  0.42741496952E+03  0.43952786229E+03  0.81211123639E+02 0.  0.
         23    2    1    2    0    0 -0.12881590669E+03  0.78377946223E+02  0.59751750765E+03  0.62292605011E+03  0.90956317502E+02 0.  0.
         11    1    3    3    0    0  0.33916985782E+02  0.44934540559E+02  0.27931271692E+03  0.28492993646E+03  0.00000000000E+00 0. -1.
        -12    1    3    3    0    0  0.27721588548E+02 -0.34608596823E+02  0.14810225260E+03  0.15459792583E+03  0.00000000000E+00 0.  1.
        -11    1    4    4    0    0 -0.52614042187E+00  0.34873161771E+02  0.19849030500E+03  0.20153117728E+03  0.00000000000E+00 0.  1.
         11    1    4    4    0    0 -0.12828976627E+03  0.43504784452E+02  0.39902720264E+03  0.42139487283E+03  0.00000000000E+00 0. -1.
          4    1    1    2  501    0  0.67177332363E+02 -0.88703889959E+02  0.23819396454E+03  0.26290214686E+03  0.00000000000E+00 0. -1.
<scales pt_clust_5="13000.00000" pt_clust_6="13000.00000" pt_clust_7="13000.00000" pt_clust_8="13000.00000" pt_clust_9="120.78656"></scales>
<clustering>
<clus scale="   81.211">  5  6 -1 -1</clus>
<clus scale="   90.956">  7  8 -1 -1</clus>
<clus scale="  102.475">  1  5  2 -1</clus>
<clus scale="  120.787">  2  9  1 -1</clus>
<clus scale="  120.787">  2  5  1 -1</clus>
</clustering>
</event>
<event>
 9    1  0.7586638E-005  0.1757618E+03  0.7546771E-02  0.1190096E+00
         21   -1    0    0  501  502  0.00000000000E+00  0.00000000000E+00  0.37758310902E+03  0.37758310902E+03  0.00000000000E+00 0. -1.
          1   -1    0    0  502    0 -0.00000000000E+00 -0.00000000000E+00 -0.34622500588E+03  0.34622500588E+03  0.00000000000E+00 0. -1.
        -24    2    1    2    0    0 -0.51101239638E+02  0.67863278941E+02  0.12810395060E+03  0.17350774930E+03  0.80483262778E+02 0.  0.
         23    2    1    2    0    0  0.94365775185E+02  0.80630812512E+02 -0.27444621326E+03  0.31471654773E+03  0.91211589116E+02 0.  0.
         11    1    3    3    0    0  0.48093522913E+00  0.54596247659E+02  0.98377411466E+02  0.11251265104E+03  0.00000000000E+00 0. -1.
        -12    1    3    3    0    0 -0.51582174867E+02  0.13267031282E+02  0.29726539130E+02  0.60995098260E+02  0.00000000000E+00 0.  1.
        -11    1    4    4    0    0  0.44944270150E+02  0.43190927364E+02 -0.44577604170E+02  0.76632932995E+02  0.00000000000E+00 0.  1.
         11    1    4    4    0    0  0.49421505036E+02  0.37439885148E+02 -0.22986860909E+03  0.23808361474E+03  0.00000000000E+00 0. -1.
          2    1    1    2  501    0 -0.43264535547E+02 -0.14849409145E+03  0.17770036581E+03  0.23558381787E+03  0.00000000000E+00 0. -1.
<scales pt_clust_5="13000.00000" pt_clust_6="13000.00000" pt_clust_7="13000.00000" pt_clust_8="13000.00000" pt_clust_9="150.24194"></scales>
<clustering>
<clus scale="   80.483">  5  6 -1 -1</clus>
<clus scale="   91.212">  7  8 -1 -1</clus>
<clus scale="  117.023">  2  5  1 -1</clus>
<clus scale="  150.242">  1  9  2 -1</clus>
<clus scale="  150.242">  1  5  2 -1</clus>
</clustering>
</event>
<event>
 9    1  0.7586638E-005  0.1628132E+03  0.7546771E-02  0.1211218E+00
         21   -1    0    0  501  502  0.00000000000E+00  0.00000000000E+00  0.78746877422E+02  0.78746877422E+02  0.00000000000E+00 0. -1.
          1   -1    0    0  502    0 -0.00000000000E+00 -0.00000000000E+00 -0.14694657699E+04  0.14694657699E+04  0.00000000000E+00 0. -1.
         23    2    1    2    0    0 -0.87268084629E+01  0.13842648549E+02  0.27766717080E+02  0.97151775601E+02  0.91649881725E+02 0.  0.
        -24    2    1    2    0    0 -0.13704174669E+03  0.21804435128E+01 -0.78766640995E+03  0.80342048250E+03  0.79252152486E+02 0.  0.
         11    1    4    4    0    0 -0.89824069915E+02  0.37748160582E+02 -0.42989358138E+03  0.44079675415E+03  0.00000000000E+00 0. -1.
        -12    1    4    4    0    0 -0.47217676779E+02 -0.35567717069E+02 -0.35777282857E+03  0.36262372835E+03  0.00000000000E+00 0.  1.
        -11    1    3    3    0    0  0.78786688121E+01 -0.35270174962E+02 -0.39829465171E+01  0.36358252530E+02  0.00000000000E+00 0.  1.
         11    1    3    3    0    0 -0.16605477275E+02  0.49112823511E+02  0.31749663597E+02  0.60793523070E+02  0.00000000000E+00 0. -1.
          2    1    1    2  501    0  0.14576855516E+03 -0.16023092062E+02 -0.63081919966E+03  0.64764038926E+03  0.00000000000E+00 0. -1.
<scales pt_clust_5="13000.00000" pt_clust_6="13000.00000" pt_clust_7="13000.00000" pt_clust_8="13000.00000" pt_clust_9="142.22244"></scales>
<clustering>
<clus scale="   79.252">  5  6 -1 -1</clus>
<clus scale="   91.650">  7  8 -1 -1</clus>
<clus scale="   93.099">  2  7  1 -1</clus>
<clus scale="  142.222">  1  9  2 -1</clus>
<clus scale="  142.222">  1  5  2 -1</clus>
</clustering>
</event>
<event>
 9    1  0.7586638E-005  0.3766904E+03  0.7546771E-02  0.1052380E+00
         -2   -1    0    0    0  501 -0.00000000000E+00  0.00000000000E+00  0.25692433298E+03  0.25692433298E+03  0.00000000000E+00 0.  1.
         21   -1    0    0  501  502  0.00000000000E+00 -0.00000000000E+00 -0.11887155273E+04  0.11887155273E+04  0.00000000000E+00 0.  1.
        -24    2    1    2    0    0 -0.29878847625E+03  0.22967494796E+03 -0.31281020659E+02  0.38664173309E+03  0.80549315671E+02 0.  0.
         23    2    1    2    0    0  0.32368132521E+03 -0.13414256857E+03 -0.36335842284E+03  0.51284971069E+03  0.90673332953E+02 0.  0.
         11    1    3    3    0    0 -0.92168039450E+02  0.31899036374E+02 -0.24406206709E+02  0.10053934028E+03  0.00000000000E+00 0. -1.
        -12    1    3    3    0    0 -0.20662043680E+03  0.19777591159E+03 -0.68748139502E+01  0.28610239282E+03  0.00000000000E+00 0.  1.
        -11    1    4    4    0    0  0.28056859629E+03 -0.11221489316E+03 -0.35055096937E+03  0.46281411128E+03  0.00000000000E+00 0.  1.
         11    1    4    4    0    0  0.43112728916E+02 -0.21927675410E+02 -0.12807453470E+02  0.50035599405E+02  0.00000000000E+00 0. -1.
         -1    1    1    2    0  502 -0.24892848956E+02 -0.95532379394E+02 -0.53715175078E+03  0.54614841647E+03  0.00000000000E+00 0.  1.
<scales pt_clust_5="13000.00000" pt_clust_6="13000.00000" pt_clust_7="13000.00000" pt_clust_8="13000.00000" pt_clust_9="98.72228"></scales>
<clustering>
<clus scale="   80.549">  5  6 -1 -1</clus>
<clus scale="   90.673">  7  8 -1 -1</clus>
<clus scale="   98.722">  2  9  1 -1</clus>
<clus scale="  374.382">  1  5  2 -1</clus>
<clus scale="   98.722">  2  5  1 -1</clus>
</clustering>
</event>
<event>
 9    1  0.7586638E-005  0.1269161E+03  0.7546771E-02  0.1261098E+00
         -2   -1    0    0    0  501 -0.00000000000E+00  0.00000000000E+00  0.20469882552E+03  0.20469882552E+03  0.00000000000E+00 0.  1.
         21   -1    0    0  501  502  0.00000000000E+00 -0.00000000000E+00 -0.12110664859E+03  0.12110664859E+03  0.00000000000E+00 0. -1.
        -24    2    1    2    0    0  0.22010961973E+02 -0.39733773452E+02 -0.23069544476E+02  0.74538640920E+02  0.54410935556E+02 0.  0.
         23    2    1    2    0    0  0.72274039363E+02  0.28912685573E+02  0.99745801837E+02  0.15611123765E+03  0.91444045095E+02 0.  0.
         13    1    3    3    0    0  0.23330038108E+02 -0.22119468709E+01 -0.28176044953E+02  0.36647958965E+02  0.00000000000E+00 0. -1.
        -14    1    3    3    0    0 -0.13190761359E+01 -0.37521826581E+02  0.51065004774E+01  0.37890681954E+02  0.00000000000E+00 0.  1.
        -11    1    4    4    0    0 -0.11480345114E+02  0.31255294595E+02  0.45174197590E+02  0.56119514360E+02  0.00000000000E+00 0.  1.
         11    1    4    4    0    0  0.83754384477E+02 -0.23426090221E+01  0.54571604247E+02  0.99991723289E+02  0.00000000000E+00 0. -1.
         -1    1    1    2    0  502 -0.94285001336E+02  0.10821087879E+02  0.69159195741E+01  0.95155595544E+02  0.00000000000E+00 0.  1.
<scales pt_clust_5="13000.00000" pt_clust_6="13000.00000" pt_clust_7="13000.00000" pt_clust_8="13000.00000" pt_clust_9="88.00955"></scales>
<clustering>
<clus scale="   54.411">  5  6 -1 -1</clus>
<clus scale="   70.879">  1  5  2 -1</clus>
<clus scale="   88.010">  2  9  1 -1</clus>
<clus scale="   91.444">  7  8 -1 -1</clus>
<clus scale="   88.010">  2  5  1 -1</clus>
</clustering>
</event>
<event>
 9    1  0.7586638E-005  0.1050061E+03  0.7546771E-02  0.1273224E+00
          1   -1    0    0  502    0 -0.00000000000E+00  0.00000000000E+00  0.47270192633E+03  0.47270192633E+03  0.00000000000E+00 0. -1.
         21   -1    0    0  501  502  0.00000000000E+00 -0.00000000000E+00 -0.50226508229E+02  0.50226508229E+02  0.00000000000E+00 0. -1.
        -24    2    1    2    0    0  0.54859263347E+00 -0.60085936138E+02  0.33631425159E+03  0.35131115421E+03  0.81863487417E+02 0.  0.
         23    2    1    2    0    0 -0.16878927632E+02  0.42023509504E+02  0.10177861256E+03  0.14268916741E+03  0.89165234111E+02 0.  0.
         11    1    3    3    0    0 -0.10861738126E+02 -0.65088760242E+02  0.33141965410E+03  0.33792530415E+03  0.00000000000E+00 0. -1.
        -12    1    3    3    0    0  0.11410330759E+02  0.50028241036E+01  0.48945974925E+01  0.13385850054E+02  0.00000000000E+00 0.  1.
        -11    1    4    4    0    0  0.60012370929E+01 -0.19993148221E+02 -0.53273803047E+00  0.20881202845E+02  0.00000000000E+00 0.  1.
         11    1    4    4    0    0 -0.22880164725E+02  0.62016657726E+02  0.10231135059E+03  0.12180796457E+03  0.00000000000E+00 0. -1.
          2    1    1    2  501    0  0.16330334998E+02  0.18062426634E+02 -0.15617446047E+02  0.28928112937E+02  0.00000000000E+00 0. -1.
<scales pt_clust_5="13000.00000" pt_clust_6="13000.00000" pt_clust_7="13000.00000" pt_clust_8="13000.00000" pt_clust_9="24.35018"></scales>
<clustering>
<clus scale="   24.350">  2  9  1 -1</clus>
<clus scale="   81.863">  5  6 -1 -1</clus>
<clus scale="   89.165">  7  8 -1 -1</clus>
<clus scale="   98.881">  1  5  2 -1</clus>
<clus scale="   24.350">  2  5  1 -1</clus>
</clustering>
</event>
<event>
 9    1  0.7586638E-005  0.1201674E+03  0.7546771E-02  0.1246364E+00
          1   -1    0    0  502    0 -0.00000000000E+00  0.00000000000E+00  0.32357819596E+03  0.32357819596E+03  0.00000000000E+00 0. -1.
         21   -1    0    0  501  502  0.00000000000E+00 -0.00000000000E+00 -0.68320623085E+02  0.68320623085E+02  0.00000000000E+00 0.  1.
         23    2    1    2    0    0 -0.23918488430E+01 -0.87830222912E+02  0.19573059438E+03  0.23371083637E+03  0.92684521176E+02 0.  0.
        -24    2    1    2    0    0  0.98835805118E+01  0.60473293257E+02  0.74241993865E+02  0.12623396382E+03  0.81660489881E+02 0.  0.
         11    1    4    4    0    0  0.19747196546E+02 -0.12353505316E+02  0.37310640422E+02  0.43984596778E+02  0.00000000000E+00 0. -1.
        -12    1    4    4    0    0 -0.98636160341E+01  0.72826798573E+02  0.36931353443E+02  0.82249367042E+02  0.00000000000E+00 0.  1.
        -11    1    3    3    0    0  0.35466227959E+02 -0.26142604868E+02  0.12488966327E+03  0.13243382161E+03  0.00000000000E+00 0. -1.
         11    1    3    3    0    0 -0.37858076802E+02 -0.61687618044E+02  0.70840931109E+02  0.10127701476E+03  0.00000000000E+00 0.  1.
          2    1    1    2  501    0 -0.74917316688E+01  0.27356929655E+02 -0.14715015367E+02  0.31954018852E+02  0.00000000000E+00 0. -1.
<scales pt_clust_5="13000.00000" pt_clust_6="13000.00000" pt_clust_7="13000.00000" pt_clust_8="13000.00000" pt_clust_9="28.36420"></scales>
<clustering>
<clus scale="   28.364">  2  9  1 -1</clus>
<clus scale="   81.660">  5  6 -1 -1</clus>
<clus scale="   92.685">  7  8 -1 -1</clus>
<clus scale="  111.885">  2  5  1 -1</clus>
<clus scale="   28.364">  2  5  1 -1</clus>
</clustering>
</event>
<event>
 9    1  0.7586638E-005  0.1038873E+03  0.7546771E-02  0.1277559E+00
          1   -1    0    0  502    0 -0.00000000000E+00  0.00000000000E+00  0.62565918562E+03  0.62565918562E+03  0.00000000000E+00 0. -1.
         21   -1    0    0  501  502  0.00000000000E+00 -0.00000000000E+00 -0.55631501390E+02  0.55631501390E+02  0.00000000000E+00 0. -1.
         23    2    1    2    0    0 -0.52608763524E+02 -0.17461870280E+02  0.40373885163E+03  0.41805159764E+03  0.93217375308E+02 0.  0.
        -24    2    1    2    0    0  0.31009258365E+02  0.12705701204E+02  0.20237232123E+03  0.22091677943E+03  0.82016206250E+02 0.  0.
         11    1    4    4    0    0  0.19422378290E+02 -0.21230302498E+02  0.17059066730E+03  0.17300037656E+03  0.00000000000E+00 0. -1.
        -12    1    4    4    0    0  0.11586880075E+02  0.33936003702E+02  0.31781653932E+02  0.47916402868E+02  0.00000000000E+00 0.  1.
        -13    1    3    3    0    0  0.17701432606E+02 -0.15663197285E+02  0.32369049815E+02  0.40080317506E+02  0.00000000000E+00 0.  1.
         13    1    3    3    0    0 -0.70310196130E+02 -0.17986729946E+01  0.37136980181E+03  0.37797128013E+03  0.00000000000E+00 0. -1.
          2    1    1    2  501    0  0.21599505159E+02  0.47561690759E+01 -0.36083488627E+02  0.42322309943E+02  0.00000000000E+00 0. -1.
<scales pt_clust_5="13000.00000" pt_clust_6="13000.00000" pt_clust_7="13000.00000" pt_clust_8="13000.00000" pt_clust_9="22.11696"></scales>
<clustering>
<clus scale="   22.117">  2  9  1 -1</clus>
<clus scale="   82.016">  5  6 -1 -1</clus>
<clus scale="   93.217">  7  8 -1 -1</clus>
<clus scale="   93.967">  2  5  1 -1</clus>
<clus scale="   22.117">  2  5  1 -1</clus>
</clustering>
</event>
<event>
 9    1  0.7586638E-005  0.1351683E+03  0.7546771E-02  0.1222378E+00
         21   -1    0    0  501  502  0.00000000000E+00  0.00000000000E+00  0.30103446035E+03  0.30103446035E+03  0.00000000000E+00 0. -1.
          1   -1    0    0  502    0 -0.00000000000E+00 -0.00000000000E+00 -0.21924784092E+03  0.21924784092E+03  0.00000000000E+00 0. -1.
         23    2    1    2    0    0  0.72522309094E+02  0.72582218063E+02 -0.13847794003E+03  0.19537546130E+03  0.92020472233E+02 0.  0.
        -24    2    1    2    0    0  0.13941346664E+02 -0.11540819493E+03  0.13597265172E+03  0.19678520334E+03  0.81990497215E+02 0.  0.
         13    1    4    4    0    0 -0.16096562398E+02 -0.10962601220E+03  0.97157671653E+02  0.14736544721E+03  0.00000000000E+00 0. -1.
        -14    1    4    4    0    0  0.30037909062E+02 -0.57821827338E+01  0.38814980068E+02  0.49419756127E+02  0.00000000000E+00 0.  1.
        -13    1    3    3    0    0  0.78295611596E+02  0.25967181508E+02 -0.11837905040E+03  0.14428477703E+03  0.00000000000E+00 0.  1.
         13    1    3    3    0    0 -0.57733025021E+01  0.46615036555E+02 -0.20098889630E+02  0.51090684270E+02  0.00000000000E+00 0. -1.
          2    1    1    2  501    0 -0.86463655757E+02  0.42825976868E+02  0.84291907743E+02  0.12812163663E+03  0.00000000000E+00 0. -1.
<scales pt_clust_5="13000.00000" pt_clust_6="13000.00000" pt_clust_7="13000.00000" pt_clust_8="13000.00000" pt_clust_9="96.48849"></scales>
<clustering>
<clus scale="   81.990">  5  6 -1 -1</clus>
<clus scale="   92.020">  7  8 -1 -1</clus>
<clus scale="   96.488">  1  9  2 -1</clus>
<clus scale="  128.550">  1  5  2 -1</clus>
<clus scale="   96.488">  1  5  2 -1</clus>
</clustering>
</event>
<event>
 9    1  0.7586638E-005  0.1697181E+03  0.7546771E-02  0.1179330E+00
         21   -1    0    0  501  502  0.00000000000E+00  0.00000000000E+00  0.11407070466E+04  0.11407070466E+04  0.00000000000E+00 0. -1.
         -2   -1    0    0    0  501 -0.00000000000E+00 -0.00000000000E+00 -0.37104133490E+02  0.37104133490E+02  0.00000000000E+00 0.  1.
         23    2    1    2    0    0  0.73293057285E+02 -0.12795933588E+03  0.27733817997E+03  0.32677626773E+03  0.90115477024E+02 0.  0.
        -24    2    1    2    0    0 -0.36799495056E+02  0.13472125189E+03  0.58439874603E+03  0.60633783572E+03  0.81361281446E+02 0.  0.
         11    1    4    4    0    0  0.12891830466E+02  0.98611866009E+02  0.33224175229E+03  0.34680698000E+03  0.00000000000E+00 0. -1.
        -12    1    4    4    0    0 -0.49691325521E+02  0.36109385886E+02  0.25215699373E+03  0.25953085572E+03  0.00000000000E+00 0.  1.
        -11    1    3    3    0    0  0.46899010189E+02 -0.70743985014E+02  0.69825703546E+02  0.10990840481E+03  0.00000000000E+00 0.  1.
         11    1    3    3    0    0  0.26394047096E+02 -0.57215350869E+02  0.20751247642E+03  0.21686786292E+03  0.00000000000E+00 0. -1.
         -1    1    1    2    0  502 -0.36493562230E+02 -0.67619160123E+01  0.24186598715E+03  0.24469707667E+03  0.00000000000E+00 0.  1.
<scales pt_clust_5="13000.00000" pt_clust_6="13000.00000" pt_clust_7="13000.00000" pt_clust_8="13000.00000" pt_clust_9="37.11474"></scales>
<clustering>
<clus scale="   37.115">  1  9  2 -1</clus>
<clus scale="   81.361">  5  6 -1 -1</clus>
<clus scale="   90.115">  7  8 -1 -1</clus>
<clus scale="  165.237">  1  5  2 -1</clus>
<clus scale="   37.115">  1  5  2 -1</clus>
</clustering>
</event>
<event>
 9    1  0.7586638E-005  0.9882155E+02  0.7546771E-02  0.1289344E+00
          1   -1    0    0  502    0 -0.00000000000E+00  0.00000000000E+00  0.41006480969E+03  0.41006480969E+03  0.00000000000E+00 0. -1.
         21   -1    0    0  501  502  0.00000000000E+00 -0.00000000000E+00 -0.41542179902E+02  0.41542179902E+02  0.00000000000E+00 0. -1.
        -24    2    1    2    0    0 -0.39191534987E+02 -0.38875428979E+01  0.28999148868E+03  0.30360234194E+03  0.80797457376E+02 0.  0.
         23    2    1    2    0    0  0.96660406095E+01 -0.72133153802E+01  0.57031883337E+02  0.10983133293E+03  0.93085024120E+02 0.  0.
         13    1    3    3    0    0 -0.48508250063E+02 -0.24656433650E+02  0.26166519724E+03  0.26726328871E+03  0.00000000000E+00 0. -1.
        -14    1    3    3    0    0  0.93167150758E+01  0.20768890752E+02  0.28326291443E+02  0.36339053232E+02  0.00000000000E+00 0.  1.
        -13    1    4    4    0    0  0.48959630982E+02 -0.79832894040E+01  0.48982900496E+02  0.69714438366E+02  0.00000000000E+00 0.  1.
         13    1    4    4    0    0 -0.39293590372E+02  0.76997402384E+00  0.80489828410E+01  0.40116894560E+02  0.00000000000E+00 0. -1.
          2    1    1    2  501    0  0.29525494377E+02  0.11100858278E+02  0.21499257770E+02  0.38173314729E+02  0.00000000000E+00 0. -1.
<scales pt_clust_5="13000.00000" pt_clust_6="13000.00000" pt_clust_7="13000.00000" pt_clust_8="13000.00000" pt_clust_9="31.54336"></scales>
<clustering>
<clus scale="   31.543">  2  9  1 -1</clus>
<clus scale="   80.797">  5  6 -1 -1</clus>
<clus scale="   87.345">  1  5  2 -1</clus>
<clus scale="   93.085">  7  8 -1 -1</clus>
<clus scale="   31.543">  2  5  1 -1</clus>
</clustering>
</event>
<event>
 9    1  0.7586638E-005  0.9400305E+02  0.7546771E-02  0.1303076E+00
         21   -1    0    0  501  502  0.00000000000E+00  0.00000000000E+00  0.13554101557E+03  0.13554101557E+03  0.00000000000E+00 0. -1.
          1   -1    0    0  502    0 -0.00000000000E+00 -0.00000000000E+00 -0.23216212970E+03  0.23216212970E+03  0.00000000000E+00 0. -1.
        -24    2    1    2    0    0 -0.10155267989E+02 -0.11039270891E+02 -0.16247869317E+03  0.18076782235E+03  0.77799003157E+02 0.  0.
         23    2    1    2    0    0  0.13666654461E+02 -0.27054970818E+02 -0.13335385659E+02  0.98986322108E+02  0.93282959664E+02 0.  0.
         13    1    3    3    0    0 -0.33405215176E+02 -0.15086523074E+02 -0.33527751541E+02  0.49675161830E+02  0.00000000000E+00 0. -1.
        -14    1    3    3    0    0  0.23249947187E+02  0.40472521839E+01 -0.12895094163E+03  0.13109266052E+03  0.00000000000E+00 0.  1.
        -11    1    4    4    0    0  0.30080599941E+02 -0.51679577263E+02  0.10842661025E+02  0.60771576391E+02  0.00000000000E+00 0. -1.
         11    1    4    4    0    0 -0.16413945480E+02  0.24624606445E+02 -0.24178046684E+02  0.38214745717E+02  0.00000000000E+00 0.  1.
          2    1    1    2  501    0 -0.35113864721E+01  0.38094241709E+02  0.79192964703E+02  0.87949000818E+02  0.00000000000E+00 0. -1.
<scales pt_clust_5="13000.00000" pt_clust_6="13000.00000" pt_clust_7="13000.00000" pt_clust_8="13000.00000" pt_clust_9="38.25573"></scales>
<clustering>
<clus scale="   38.256">  1  9  2 -1</clus>
<clus scale="   77.799">  5  6 -1 -1</clus>
<clus scale="   78.661">  2  5  1 -1</clus>
<clus scale="   93.283">  7  8 -1 -1</clus>
<clus scale="   38.256">  1  5  2 -1</clus>
</clustering>
</event>
<event>
 9    1  0.7586638E-005  0.2340250E+03  0.7546771E-02  0.1151642E+00
         21   -1    0    0  501  502  0.00000000000E+00  0.00000000000E+00  0.21471806854E+03  0.21471806854E+03  0.00000000000E+00 0. -1.
          1   -1    0    0  502    0 -0.00000000000E+00 -0.00000000000E+00 -0.50541758815E+03  0.50541758815E+03  0.00000000000E+00 0. -1.
         23    2    1    2    0    0  0.27988578812E+02 -0.73882388120E+02 -0.51958866008E+02  0.13015822558E+03  0.89439768066E+02 0.  0.
        -24    2    1    2    0    0  0.17226532573E+02  0.23666118097E+03  0.49867157922E+02  0.25555881534E+03  0.80736030703E+02 0.  0.
         11    1    4    4    0    0 -0.83549791494E+01  0.96986009273E+02  0.58023718538E+02  0.11332627050E+03  0.00000000000E+00 0. -1.
        -12    1    4    4    0    0  0.25581511723E+02  0.13967517170E+03 -0.81565606166E+01  0.14223254484E+03  0.00000000000E+00 0.  1.
        -13    1    3    3    0    0  0.20851009159E+02  0.17010519140E+02 -0.42039071591E+01  0.27235917091E+02  0.00000000000E+00 0.  1.
         13    1    3    3    0    0  0.71375696524E+01 -0.90892907260E+02 -0.47754958848E+02  0.10292230849E+03  0.00000000000E+00 0. -1.
          2    1    1    2  501    0 -0.45215111385E+02 -0.16277879285E+03 -0.28860781153E+03  0.33441861577E+03  0.00000000000E+00 0. -1.
<scales pt_clust_5="13000.00000" pt_clust_6="13000.00000" pt_clust_7="13000.00000" pt_clust_8="13000.00000" pt_clust_9="219.65754"></scales>
<clustering>
<clus scale="   80.736">  5  6 -1 -1</clus>
<clus scale="   89.440">  7  8 -1 -1</clus>
<clus scale="  119.338">  2  7  1 -1</clus>
<clus scale="  219.658">  1  9  2 -1</clus>
<clus scale="  219.658">  1  5  2 -1</clus>
</clustering>
</event>
<event>
 9    1  0.7586638E-005  0.4125686E+03  0.7546771E-02  0.1062754E+00
         21   -1    0    0  501  502  0.00000000000E+00  0.00000000000E+00  0.26051844668E+03  0.26051844668E+03  0.00000000000E+00 0. -1.
          1   -1    0    0  502    0 -0.00000000000E+00 -0.00000000000E+00 -0.11373398785E+04  0.11373398785E+04  0.00000000000E+00 0. -1.
         23    2    1    2    0    0 -0.55733767109E+02  0.18452575077E+03 -0.18312216461E+03  0.28079287491E+03  0.90304517824E+02 0.  0.
        -24    2    1    2    0    0 -0.28803338292E+03  0.12102362967E+03 -0.54507684290E+03  0.63371785037E+03  0.82943357832E+02 0.  0.
         11    1    4    4    0    0 -0.23338849053E+03  0.89906820776E+02 -0.48993720500E+03  0.55008352891E+03  0.00000000000E+00 0. -1.
        -12    1    4    4    0    0 -0.54644892384E+02  0.31116808894E+02 -0.55139637896E+02  0.83634321464E+02  0.00000000000E+00 0.  1.
        -13    1    3    3    0    0  0.73884547436E+01  0.51007055427E+02 -0.96964901687E+02  0.10981120674E+03  0.00000000000E+00 0.  1.
         13    1    3    3    0    0 -0.63122221852E+02  0.13351869534E+03 -0.86157262918E+02  0.17098166817E+03  0.00000000000E+00 0. -1.
          2    1    1    2  501    0  0.34376715002E+03 -0.30554938044E+03 -0.14862242433E+03  0.48334759991E+03  0.00000000000E+00 0. -1.
<scales pt_clust_5="13000.00000" pt_clust_6="13000.00000" pt_clust_7="13000.00000" pt_clust_8="13000.00000" pt_clust_9="404.14511"></scales>
<clustering>
<clus scale="   82.943">  5  6 -1 -1</clus>
<clus scale="   90.305">  7  8 -1 -1</clus>
<clus scale="  212.864">  2  7  1 -1</clus>
<clus scale="  404.145">  1  9  2 -1</clus>
<clus scale="  404.145">  1  5  2 -1</clus>
</clustering>
</event>
<event>
 9    1  0.7586638E-005  0.1170367E+03  0.7546771E-02  0.1252152E+00
         21   -1    0    0  501  502  0.00000000000E+00  0.00000000000E+00  0.41739919903E+03  0.41739919903E+03  0.00000000000E+00 0.  1.
          1   -1    0    0  502    0 -0.00000000000E+00 -0.00000000000E+00 -0.88171210512E+02  0.88171210512E+02  0.00000000000E+00 0. -1.
         23    2    1    2    0    0 -0.72940264293E+02  0.25189612093E+02 -0.23917396097E+02  0.12201519241E+03  0.91437774631E+02 0.  0.
        -24    2    1    2    0    0  0.56923976713E+02  0.18500808512E+02  0.27723483872E+03  0.29451710564E+03  0.79363408916E+02 0.  0.
         13    1    4    4    0    0  0.19881637753E+02 -0.21621549488E+02  0.32682502673E+02  0.43942199569E+02  0.00000000000E+00 0. -1.
        -14    1    4    4    0    0  0.37042338960E+02  0.40122358000E+02  0.24455233605E+03  0.25057490607E+03  0.00000000000E+00 0.  1.
        -13    1    3    3    0    0 -0.15889457446E+02 -0.29135445526E+02  0.12192380192E+02  0.35355384013E+02  0.00000000000E+00 0.  1.
         13    1    3    3    0    0 -0.57050806847E+02  0.54325057619E+02 -0.36109776289E+02  0.86659808394E+02  0.00000000000E+00 0. -1.
          2    1    1    2  501    0  0.16016287580E+02 -0.43690420605E+02  0.75910545894E+02  0.89038111494E+02  0.00000000000E+00 0. -1.
<scales pt_clust_5="13000.00000" pt_clust_6="13000.00000" pt_clust_7="13000.00000" pt_clust_8="13000.00000" pt_clust_9="46.53358"></scales>
<clustering>
<clus scale="   46.534">  1  9  2 -1</clus>
<clus scale="   79.363">  5  6 -1 -1</clus>
<clus scale="   91.438">  7  8 -1 -1</clus>
<clus scale="  107.867">  1  5  2 -1</clus>
<clus scale="   46.534">  1  5  2 -1</clus>
</clustering>
</event>
<event>
 9    1  0.7586638E-005  0.1099430E+03  0.7546771E-02  0.1264375E+00
         21   -1    0    0  501  502  0.00000000000E+00  0.00000000000E+00  0.21991306645E+03  0.21991306645E+03  0.00000000000E+00 0. -1.
          1   -1    0    0  502    0 -0.00000000000E+00 -0.00000000000E+00 -0.90544912693E+02  0.90544912693E+02  0.00000000000E+00 0. -1.
        -24    2    1    2    0    0 -0.52262745051E+02  0.43475597207E+01  0.12724608892E+02  0.97373839156E+02  0.81052162740E+02 0.  0.
         23    2    1    2    0    0  0.75078444947E+02 -0.49584206530E+02  0.84391032444E+02  0.15302471164E+03  0.90550259974E+02 0.  0.
         13    1    3    3    0    0 -0.54533417608E+01 -0.25163039912E+02 -0.20428534956E+02  0.32867043591E+02  0.00000000000E+00 0. -1.
        -14    1    3    3    0    0 -0.46809403290E+02  0.29510599633E+02  0.33153143848E+02  0.64506795565E+02  0.00000000000E+00 0.  1.
        -13    1    4    4    0    0  0.47785363317E+02 -0.72647667779E+02  0.77820992938E+02  0.11669289405E+03  0.00000000000E+00 0. -1.
         13    1    4    4    0    0  0.27293081630E+02  0.23063461248E+02  0.65700395055E+01  0.36331817580E+02  0.00000000000E+00 0.  1.
          2    1    1    2  501    0 -0.22815699896E+02  0.45236646810E+02  0.32252512422E+02  0.60059428351E+02  0.00000000000E+00 0. -1.
<scales pt_clust_5="13000.00000" pt_clust_6="13000.00000" pt_clust_7="13000.00000" pt_clust_8="13000.00000" pt_clust_9="50.66469"></scales>
<clustering>
<clus scale="   50.665">  1  9  2 -1</clus>
<clus scale="   81.052">  5  6 -1 -1</clus>
<clus scale="   90.550">  7  8 -1 -1</clus>
<clus scale="  102.262">  2  5  1 -1</clus>
<clus scale="   50.665">  1  5  2 -1</clus>
</clustering>
</event>
<event>
 9    1  0.7586638E-005  0.1147482E+03  0.7546771E-02  0.1254857E+00
         21   -1    0    0  501  502  0.00000000000E+00  0.00000000000E+00  0.60075236234E+02  0.60075236234E+02  0.00000000000E+00 0.  1.
          1   -1    0    0  502    0 -0.00000000000E+00 -0.00000000000E+00 -0.48130549343E+03  0.48130549343E+03  0.00000000000E+00 0. -1.
        -24    2    1    2    0    0  0.12403143697E+02  0.74598380854E+02 -0.25045869212E+03  0.27443976897E+03  0.82878669961E+02 0.  0.
         23    2    1    2    0    0  0.12389185191E+02 -0.50276004711E+02 -0.13080250265E+02  0.10547025648E+03  0.90948960935E+02 0.  0.
         11    1    3    3    0    0  0.38147796230E+02  0.69414443177E+02 -0.22204348458E+03  0.23574759453E+03  0.00000000000E+00 0. -1.
        -12    1    3    3    0    0 -0.25744652533E+02  0.51839376763E+01 -0.28415207536E+02  0.38692174444E+02  0.00000000000E+00 0.  1.
        -11    1    4    4    0    0  0.60280968629E+01 -0.76262115958E+02 -0.20364512556E+01  0.76527089425E+02  0.00000000000E+00 0.  1.
         11    1    4    4    0    0  0.63610883281E+01  0.25986111247E+02 -0.11043799009E+02  0.28943167053E+02  0.00000000000E+00 0. -1.
          2    1    1    2  501    0 -0.24792328888E+02 -0.24322376143E+02 -0.15769131481E+03  0.16147070422E+03  0.00000000000E+00 0. -1.
<scales pt_clust_5="13000.00000" pt_clust_6="13000.00000" pt_clust_7="13000.00000" pt_clust_8="13000.00000" pt_clust_9="34.73095"></scales>
<clustering>
<clus scale="   34.731">  1  9  2 -1</clus>
<clus scale="   82.879">  5  6 -1 -1</clus>
<clus scale="   90.949">  7  8 -1 -1</clus>
<clus scale="  108.463">  2  5  1 -1</clus>
<clus scale="   34.731">  1  5  2 -1</clus>
</clustering>
</event>
<event>
 9    1  0.7586638E-005  0.1060307E+03  0.7546771E-02  0.1276695E+00
         -2   -1    0    0    0  501 -0.00000000000E+00  0.00000000000E+00  0.46592594430E+03  0.46592594430E+03  0.00000000000E+00 0.  1.
         21   -1    0    0  501  502  0.00000000000E+00 -0.00000000000E+00 -0.59294003254E+02  0.59294003254E+02  0.00000000000E+00 0.  1.
        -24    2    1    2    0    0  0.25921976717E+02  0.26249742697E+02  0.26934584656E+03  0.28294363582E+03  0.78415037636E+02 0.  0.
         23    2    1    2    0    0 -0.28436695253E+02 -0.58560311581E+02  0.16341327777E+03  0.20064787941E+03  0.96528319308E+02 0.  0.
         13    1    3    3    0    0 -0.27944580320E+02  0.10128469558E+02  0.76626995194E+02  0.82189913355E+02  0.00000000000E+00 0. -1.
        -14    1    3    3    0    0  0.53866557037E+02  0.16121273139E+02  0.19271885136E+03  0.20075372247E+03  0.00000000000E+00 0.  1.
        -13    1    4    4    0    0  0.24873641831E+02 -0.25580854585E+02  0.13487369318E+02  0.38144295908E+02  0.00000000000E+00 0. -1.
         13    1    4    4    0    0 -0.53310337084E+02 -0.32979456996E+02  0.14992590845E+03  0.16250358350E+03  0.00000000000E+00 0.  1.
         -1    1    1    2    0  502  0.25147185365E+01  0.32310568884E+02 -0.26127183286E+02  0.41628432320E+02  0.00000000000E+00 0.  1.
<scales pt_clust_5="13000.00000" pt_clust_6="13000.00000" pt_clust_7="13000.00000" pt_clust_8="13000.00000" pt_clust_9="32.40828"></scales>
<clustering>
<clus scale="   32.408">  2  9  1 -1</clus>
<clus scale="   78.415">  5  6 -1 -1</clus>
<clus scale="   89.854">  1  5  2 -1</clus>
<clus scale="   96.528">  7  8 -1 -1</clus>
<clus scale="   32.408">  2  5  1 -1</clus>
</clustering>
</event>
<event>
 9    1  0.7586638E-005  0.1394016E+03  0.7546771E-02  0.1216297E+00
          1   -1    0    0  502    0 -0.00000000000E+00  0.00000000000E+00  0.43999444474E+03  0.43999444474E+03  0.00000000000E+00 0. -1.
         21   -1    0    0  501  502  0.00000000000E+00 -0.00000000000E+00 -0.83959003678E+02  0.83959003678E+02  0.00000000000E+00 0. -1.
         23    2    1    2    0    0  0.93788618970E+01  0.10133899959E+03  0.15505684588E+03  0.20602739052E+03  0.89705653674E+02 0.  0.
        -24    2    1    2    0    0  0.49809493347E+02 -0.11629544264E+03  0.54331575528E+02  0.15907926077E+03  0.79678576169E+02 0.  0.
         13    1    4    4    0    0 -0.83916534198E+01 -0.80878709923E+02  0.27127605135E+02  0.85718682481E+02  0.00000000000E+00 0. -1.
        -14    1    4    4    0    0  0.58201146766E+02 -0.35416732719E+02  0.27203970393E+02  0.73360578286E+02  0.00000000000E+00 0.  1.
        -11    1    3    3    0    0 -0.15372017899E+02  0.10513257555E+03  0.10165890067E+03  0.14704995567E+03  0.00000000000E+00 0. -1.
         11    1    3    3    0    0  0.24750879796E+02 -0.37935759563E+01  0.53397945211E+02  0.58977434854E+02  0.00000000000E+00 0.  1.
          2    1    1    2  501    0 -0.59188355244E+02  0.14956443047E+02  0.14664701966E+03  0.15884679713E+03  0.00000000000E+00 0. -1.
<scales pt_clust_5="13000.00000" pt_clust_6="13000.00000" pt_clust_7="13000.00000" pt_clust_8="13000.00000" pt_clust_9="61.04884"></scales>
<clustering>
<clus scale="   61.049">  2  9  1 -1</clus>
<clus scale="   79.679">  5  6 -1 -1</clus>
<clus scale="   89.706">  7  8 -1 -1</clus>
<clus scale="  133.170">  2  5  1 -1</clus>
<clus scale="   61.049">  2  5  1 -1</clus>
</clustering>
</event>
<event>
 9    1  0.7586638E-005  0.1626600E+03  0.7546771E-02  0.1209749E+00
         21   -1    0    0  501  502  0.00000000000E+00  0.00000000000E+00  0.31228802579E+03  0.31228802579E+03  0.00000000000E+00 0. -1.
          3   -1    0    0  502    0 -0.00000000000E+00 -0.00000000000E+00 -0.15173869922E+03  0.15173869922E+03  0.00000000000E+00 0. -1.
         23    2    1    2    0    0  0.18753585986E+02  0.19852649895E+02 -0.31887068676E+02  0.10147541441E+03  0.92383168849E+02 0.  0.
        -24    2    1    2    0    0  0.36673963740E+02 -0.14619428760E+03  0.11111448295E+03  0.20240239207E+03  0.76828059009E+02 0.  0.
         11    1    4    4    0    0  0.35446411971E+02 -0.18936438486E+02  0.39608417383E+02  0.56425734836E+02  0.00000000000E+00 0. -1.
        -12    1    4    4    0    0  0.12275517694E+01 -0.12725784911E+03  0.71506065563E+02  0.14597665723E+03  0.00000000000E+00 0.  1.
        -11    1    3    3    0    0 -0.37054619322E+02  0.49641368397E+01 -0.20382024117E+02  0.42580680769E+02  0.00000000000E+00 0.  1.
         11    1    3    3    0    0  0.55808205309E+02  0.14888513055E+02 -0.11505044559E+02  0.58894733645E+02  0.00000000000E+00 0. -1.
          4    1    1    2  501    0 -0.55427549727E+02  0.12634163770E+03  0.81321912305E+02  0.16014891853E+03  0.00000000000E+00 0. -1.
<scales pt_clust_5="13000.00000" pt_clust_6="13000.00000" pt_clust_7="13000.00000" pt_clust_8="13000.00000" pt_clust_9="143.37269"></scales>
<clustering>
<clus scale="   76.828">  5  6 -1 -1</clus>
<clus scale="   92.383">  7  8 -1 -1</clus>
<clus scale="   96.335">  2  7  1 -1</clus>
<clus scale="  143.373">  1  9  2 -1</clus>
<clus scale="  143.373">  1  5  2 -1</clus>
</clustering>
</event>
<event>
 9    1  0.7586638E-005  0.1429292E+03  0.7546771E-02  0.1218942E+00
          1   -1    0    0  502    0 -0.00000000000E+00  0.00000000000E+00  0.66605130337E+03  0.66605130337E+03  0.00000000000E+00 0. -1.
         21   -1    0    0  501  502  0.00000000000E+00 -0.00000000000E+00 -0.68097222051E+02  0.68097222051E+02  0.00000000000E+00 0. -1.
         23    2    1    2    0    0  0.38993699034E+02 -0.58377300477E+02  0.86760638515E+02  0.14553957066E+03  0.93412742481E+02 0.  0.
        -24    2    1    2    0    0 -0.13572986024E+03 -0.12345759401E+02  0.38002707465E+03  0.41094564336E+03  0.76685928226E+02 0.  0.
         13    1    4    4    0    0 -0.95731905925E+02 -0.33688066445E+02  0.32009436922E+03  0.33579739255E+03  0.00000000000E+00 0. -1.
        -14    1    4    4    0    0 -0.39997954319E+02  0.21342307044E+02  0.59932705428E+02  0.75148250809E+02  0.00000000000E+00 0.  1.
        -13    1    3    3    0    0  0.26898788473E+02 -0.83475149522E+02  0.56090391602E+02  0.10410464658E+03  0.00000000000E+00 0. -1.
         13    1    3    3    0    0  0.12094910561E+02  0.25097849046E+02  0.30670246913E+02  0.41434924085E+02  0.00000000000E+00 0.  1.
          2    1    1    2  501    0  0.96736161210E+02  0.70723059878E+02  0.13116636815E+03  0.17766331140E+03  0.00000000000E+00 0. -1.
<scales pt_clust_5="13000.00000" pt_clust_6="13000.00000" pt_clust_7="13000.00000" pt_clust_8="13000.00000" pt_clust_9="120.61518"></scales>
<clustering>
<clus scale="   76.686">  5  6 -1 -1</clus>
<clus scale="   93.413">  7  8 -1 -1</clus>
<clus scale="  116.852">  1  7  2 -1</clus>
<clus scale="  120.615">  2  9  1 -1</clus>
<clus scale="  120.615">  2  5  1 -1</clus>
</clustering>
</event>
<event>
 9    1  0.7586638E-005  0.1118939E+03  0.7546771E-02  0.1261736E+00
         21   -1    0    0  501  502  0.00000000000E+00  0.00000000000E+00  0.19132506791E+03  0.19132506791E+03  0.00000000000E+00 0. -1.
          1   -1    0    0  502    0 -0.00000000000E+00 -0.00000000000E+00 -0.55619375216E+03  0.55619375216E+03  0.00000000000E+00 0. -1.
        -24    2    1    2    0    0  0.29287565767E+02  0.15230837213E+02 -0.17893988560E+03  0.19862278384E+03  0.79635341969E+02 0.  0.
         23    2    1    2    0    0 -0.10109186962E+03 -0.39063365202E+02 -0.34481186711E+03  0.37291968304E+03  0.91806065656E+02 0.  0.
         13    1    3    3    0    0  0.41601935430E+01 -0.27207552489E+02 -0.25756277195E+02  0.37695410035E+02  0.00000000000E+00 0. -1.
        -14    1    3    3    0    0  0.25127372224E+02  0.42438389702E+02 -0.15318360840E+03  0.16092737380E+03  0.00000000000E+00 0.  1.
        -13    1    4    4    0    0 -0.11661030344E+03 -0.23926664379E+02 -0.27104631567E+03  0.29603471650E+03  0.00000000000E+00 0. -1.
         13    1    4    4    0    0  0.15518433813E+02 -0.15136700823E+02 -0.73765551438E+02  0.76884966533E+02  0.00000000000E+00 0.  1.
          2    1    1    2  501    0  0.71804303855E+02  0.23832527989E+02  0.15888306845E+03  0.17597635319E+03  0.00000000000E+00 0. -1.
<scales pt_clust_5="13000.00000" pt_clust_6="13000.00000" pt_clust_7="13000.00000" pt_clust_8="13000.00000" pt_clust_9="75.65611"></scales>
<clustering>
<clus scale="   75.656">  1  9  2 -1</clus>
<clus scale="   79.635">  5  6 -1 -1</clus>
<clus scale="   91.806">  7  8 -1 -1</clus>
<clus scale="  102.145">  2  5  1 -1</clus>
<clus scale="   75.656">  1  5  2 -1</clus>
</clustering>
</event>
<event>
 9    1  0.7586638E-005  0.1269974E+03  0.7546771E-02  0.1240953E+00
         21   -1    0    0  501  502  0.00000000000E+00  0.00000000000E+00  0.71452874813E+02  0.71452874813E+02  0.00000000000E+00 0. -1.
          1   -1    0    0  502    0 -0.00000000000E+00 -0.00000000000E+00 -0.53941498213E+03  0.53941498213E+03  0.00000000000E+00 0. -1.
         23    2    1    2    0    0  0.53259879518E+02 -0.25417240936E+01 -0.30869475262E+03  0.32629831468E+03  0.91296575733E+02 0.  0.
        -24    2    1    2    0    0  0.67710900997E+02 -0.33281647064E+02 -0.75731143045E+02  0.13325681208E+03  0.79559649274E+02 0.  0.
         11    1    4    4    0    0  0.84866893423E+02 -0.18474622355E+02 -0.62627067475E+02  0.10707871334E+03  0.00000000000E+00 0. -1.
        -12    1    4    4    0    0 -0.17155992425E+02 -0.14807024708E+02 -0.13104075570E+02  0.26178098735E+02  0.00000000000E+00 0.  1.
        -11    1    3    3    0    0 -0.21162187121E+02 -0.18040939837E+02 -0.57832085308E+02  0.64170583331E+02  0.00000000000E+00 0. -1.
         11    1    3    3    0    0  0.74422066640E+02  0.15499215743E+02 -0.25086266731E+03  0.26212773135E+03  0.00000000000E+00 0.  1.
          2    1    1    2  501    0 -0.12097078052E+03  0.35823371157E+02 -0.83536211656E+02  0.15131273019E+03  0.00000000000E+00 0. -1.
<scales pt_clust_5="13000.00000" pt_clust_6="13000.00000" pt_clust_7="13000.00000" pt_clust_8="13000.00000" pt_clust_9="98.98792"></scales>
<clustering>
<clus scale="   79.560">  5  6 -1 -1</clus>
<clus scale="   91.297">  7  8 -1 -1</clus>
<clus scale="  105.727">  2  7  1 -1</clus>
<clus scale="   98.988">  1  9  2 -1</clus>
<clus scale="   98.988">  1  5  2 -1</clus>
</clustering>
</event>
<event>
 9    1  0.7586638E-005  0.9707972E+02  0.7546771E-02  0.1294784E+00
         21   -1    0    0  501  502  0.00000000000E+00  0.00000000000E+00  0.31002651338E+03  0.31002651338E+03  0.00000000000E+00 0.  1.
          3   -1    0    0  502    0 -0.00000000000E+00 -0.00000000000E+00 -0.64804124239E+02  0.64804124239E+02  0.00000000000E+00 0. -1.
        -24    2    1    2    0    0 -0.30822372402E+02  0.82843381484E+00  0.33409297591E+01  0.85995392008E+02  0.80208108641E+02 0.  0.
         23    2    1    2    0    0  0.38241566898E+00  0.16257876934E+02  0.85067355964E+02  0.12818283819E+03  0.94498254749E+02 0.  0.
         13    1    3    3    0    0 -0.32887074333E+02 -0.35552068143E+02  0.85706496306E+01  0.49182977162E+02  0.00000000000E+00 0. -1.
        -14    1    3    3    0    0  0.20647019314E+01  0.36380501958E+02 -0.52297198715E+01  0.36812414845E+02  0.00000000000E+00 0.  1.
        -11    1    4    4    0    0 -0.33837704548E+02 -0.14513552462E+02  0.71136118132E+02  0.80099817459E+02  0.00000000000E+00 0.  1.
         11    1    4    4    0    0  0.34220120217E+02  0.30771429397E+02  0.13931237833E+02  0.48083020728E+02  0.00000000000E+00 0. -1.
          4    1    1    2  501    0  0.30439956733E+02 -0.17086310749E+02  0.15681410341E+03  0.16065240742E+03  0.00000000000E+00 0. -1.
<scales pt_clust_5="13000.00000" pt_clust_6="13000.00000" pt_clust_7="13000.00000" pt_clust_8="13000.00000" pt_clust_9="34.90749"></scales>
<clustering>
<clus scale="   34.907">  1  9  2 -1</clus>
<clus scale="   80.208">  5  6 -1 -1</clus>
<clus scale="   83.234">  2  5  1 -1</clus>
<clus scale="   94.498">  7  8 -1 -1</clus>
<clus scale="   34.907">  1  5  2 -1</clus>
</clustering>
</event>
<event>
 9    1  0.7586638E-005  0.9395819E+02  0.7546771E-02  0.1299513E+00
         21   -1    0    0  501  502  0.00000000000E+00  0.00000000000E+00  0.19503938876E+03  0.19503938876E+03  0.00000000000E+00 0.  1.
         -4   -1    0    0    0  501 -0.00000000000E+00 -0.00000000000E+00 -0.88555389370E+02  0.88555389370E+02  0.00000000000E+00 0.  1.
        -24    2    1    2    0    0  0.28140256219E+02 -0.49156306086E+01 -0.10078132001E+02  0.85500889547E+02  0.79954961850E+02 0.  0.
         23    2    1    2    0    0  0.40988442496E+01  0.51020935794E+02  0.71461468571E+02  0.12598890573E+03  0.90258110235E+02 0.  0.
         13    1    3    3    0    0 -0.14520336166E+02 -0.29139072601E+02 -0.15658532648E+02  0.36126380376E+02  0.00000000000E+00 0. -1.
        -14    1    3    3    0    0  0.42660592384E+02  0.24223441992E+02  0.55804006466E+01  0.49374509171E+02  0.00000000000E+00 0.  1.
        -11    1    4    4    0    0  0.68674614223E+01 -0.24480519364E+02  0.31622984641E+02  0.40576729936E+02  0.00000000000E+00 0. -1.
         11    1    4    4    0    0 -0.27686171727E+01  0.75501455158E+02  0.39838483930E+02  0.85412175794E+02  0.00000000000E+00 0.  1.
         -3    1    1    2    0  502 -0.32239100468E+02 -0.46105305186E+02  0.45100662817E+02  0.72104982850E+02  0.00000000000E+00 0.  1.
<scales pt_clust_5="13000.00000" pt_clust_6="13000.00000" pt_clust_7="13000.00000" pt_clust_8="13000.00000" pt_clust_9="56.25885"></scales>
<clustering>
<clus scale="   56.259">  1  9  2 -1</clus>
<clus scale="   79.955">  5  6 -1 -1</clus>
<clus scale="   84.110">  2  5  1 -1</clus>
<clus scale="   90.258">  7  8 -1 -1</clus>
<clus scale="   56.259">  1  5  2 -1</clus>
</clustering>
</event>
<event>
 9    1  0.7586638E-005  0.2258933E+03  0.7546771E-02  0.1171997E+00
         21   -1    0    0  501  502  0.00000000000E+00  0.00000000000E+00  0.15658148970E+03  0.15658148970E+03  0.00000000000E+00 0. -1.
          1   -1    0    0  502    0 -0.00000000000E+00 -0.00000000000E+00 -0.57706963705E+03  0.57706963705E+03  0.00000000000E+00 0. -1.
        -24    2    1    2    0    0 -0.26849259638E+02  0.81840979723E+01 -0.24624738402E+03  0.25977593383E+03  0.77832509024E+02 0.  0.
         23    2    1    2    0    0 -0.18465323796E+02  0.20212894796E+03 -0.55716288877E+02  0.22824734473E+03  0.88291934767E+02 0.  0.
         13    1    3    3    0    0 -0.26154828050E+02 -0.32106438075E+02 -0.10432026341E+03  0.11223910082E+03  0.00000000000E+00 0. -1.
        -14    1    3    3    0    0 -0.69443158839E+00  0.40290536047E+02 -0.14192712061E+03  0.14753683301E+03  0.00000000000E+00 0.  1.
        -11    1    4    4    0    0 -0.37043888193E+02  0.15508686784E+03 -0.94972310339E+01  0.15973222476E+03  0.00000000000E+00 0. -1.
         11    1    4    4    0    0  0.18578564397E+02  0.47042080119E+02 -0.46219057843E+02  0.68515119973E+02  0.00000000000E+00 0.  1.
          2    1    1    2  501    0  0.45314583434E+02 -0.21031304593E+03 -0.11852447446E+03  0.24562784819E+03  0.00000000000E+00 0. -1.
<scales pt_clust_5="13000.00000" pt_clust_6="13000.00000" pt_clust_7="13000.00000" pt_clust_8="13000.00000" pt_clust_9="207.92396"></scales>
<clustering>
<clus scale="   77.833">  5  6 -1 -1</clus>
<clus scale="   82.739">  2  5  1 -1</clus>
<clus scale="   88.292">  7  8 -1 -1</clus>
<clus scale="  207.924">  1  9  2 -1</clus>
<clus scale="  207.924">  1  5  2 -1</clus>
</clustering>
</event>
<event>
 9    1  0.7586638E-005  0.1975107E+03  0.7546771E-02  0.1178127E+00
         21   -1    0    0  501  502  0.00000000000E+00  0.00000000000E+00  0.12667229430E+03  0.12667229430E+03  0.00000000000E+00 0.  1.
         -4   -1    0    0    0  501 -0.00000000000E+00 -0.00000000000E+00 -0.54636907592E+03  0.54636907592E+03  0.00000000000E+00 0.  1.
        -24    2    1    2    0    0 -0.62439551461E+02 -0.35183423856E+02 -0.13513961225E+03  0.17281690380E+03  0.80413907609E+02 0.  0.
         23    2    1    2    0    0 -0.31140304471E+02 -0.13025200701E+03 -0.26183222880E+03  0.30880217372E+03  0.94166674378E+02 0.  0.
         13    1    3    3    0    0 -0.63344447533E+01 -0.43676940666E+02 -0.30071915739E+02  0.53405247425E+02  0.00000000000E+00 0. -1.
        -14    1    3    3    0    0 -0.56105106707E+02  0.84935168104E+01 -0.10506769652E+03  0.11941165637E+03  0.00000000000E+00 0.  1.
        -13    1    4    4    0    0  0.23397561729E+02 -0.96206783631E+02 -0.16930989790E+03  0.19613524068E+03  0.00000000000E+00 0.  1.
         13    1    4    4    0    0 -0.54537866199E+02 -0.34045223377E+02 -0.92522330901E+02  0.11266693304E+03  0.00000000000E+00 0. -1.
         -3    1    1    2    0  502  0.93579855931E+02  0.16543543086E+03 -0.22724940573E+02  0.19142229271E+03  0.00000000000E+00 0.  1.
<scales pt_clust_5="13000.00000" pt_clust_6="13000.00000" pt_clust_7="13000.00000" pt_clust_8="13000.00000" pt_clust_9="173.61768"></scales>
<clustering>
<clus scale="   80.414">  5  6 -1 -1</clus>
<clus scale="   94.167">  7  8 -1 -1</clus>
<clus scale="  107.717">  2  5  1 -1</clus>
<clus scale="  173.618">  1  9  2 -1</clus>
<clus scale="  173.618">  1  5  2 -1</clus>
</clustering>
</event>
<event>
 9    1  0.7586638E-005  0.1278285E+03  0.7546771E-02  0.1233011E+00
         -4   -1    0    0    0  501 -0.00000000000E+00  0.00000000000E+00  0.28970633443E+03  0.28970633443E+03  0.00000000000E+00 0.  1.
         21   -1    0    0  501  502  0.00000000000E+00 -0.00000000000E+00 -0.80455948198E+02  0.80455948198E+02  0.00000000000E+00 0.  1.
         23    2    1    2    0    0 -0.85080890377E+02 -0.58614287630E+02  0.14520873735E+03  0.20029764730E+03  0.91428537605E+02 0.  0.
        -24    2    1    2    0    0  0.45590238038E+02  0.49894257531E+02  0.17889110953E+02  0.10850009097E+03  0.82971939298E+02 0.  0.
         13    1    4    4    0    0  0.42575386653E+02  0.24759957521E+02  0.48265400314E+02  0.68958450625E+02  0.00000000000E+00 0. -1.
        -14    1    4    4    0    0  0.30148513853E+01  0.25134300010E+02 -0.30376289361E+02  0.39541640346E+02  0.00000000000E+00 0.  1.
        -11    1    3    3    0    0 -0.25003545629E+02 -0.38523841133E+01  0.10795079489E+03  0.11087557114E+03  0.00000000000E+00 0.  1.
         11    1    3    3    0    0 -0.60077344748E+02 -0.54761903516E+02  0.37257942462E+02  0.89422076162E+02  0.00000000000E+00 0. -1.
         -3    1    1    2    0  502  0.39490652338E+02  0.87200300985E+01  0.46152537922E+02  0.61364544353E+02  0.00000000000E+00 0.  1.
<scales pt_clust_5="13000.00000" pt_clust_6="13000.00000" pt_clust_7="13000.00000" pt_clust_8="13000.00000" pt_clust_9="40.44196"></scales>
<clustering>
<clus scale="   40.442">  2  9  1 -1</clus>
<clus scale="   82.972">  5  6 -1 -1</clus>
<clus scale="   91.429">  7  8 -1 -1</clus>
<clus scale="  121.923">  2  5  1 -1</clus>
<clus scale="   40.442">  2  5  1 -1</clus>
</clustering>
</event>
<event>
 9    1  0.7586638E-005  0.1433195E+03  0.7546771E-02  0.1210429E+00
          1   -1    0    0  502    0 -0.00000000000E+00  0.00000000000E+00  0.24042830169E+03  0.24042830169E+03  0.00000000000E+00 0. -1.
         21   -1    0    0  501  502  0.00000000000E+00 -0.00000000000E+00 -0.21167858948E+03  0.21167858948E+03  0.00000000000E+00 0. -1.
         23    2    1    2    0    0  0.49449348793E+02 -0.10560525530E+03  0.15746333170E+03  0.21555735763E+03  0.89847457141E+02 0.  0.
        -24    2    1    2    0    0 -0.32555974964E+02  0.93195082481E+02 -0.25372572495E+02  0.13110395296E+03  0.82457650595E+02 0.  0.
         13    1    4    4    0    0 -0.30786843138E+02  0.15627192445E+01 -0.24619971227E+02  0.39451423105E+02  0.00000000000E+00 0. -1.
        -14    1    4    4    0    0 -0.17691318268E+01  0.91632363236E+02 -0.75260126813E+00  0.91652529853E+02  0.00000000000E+00 0.  1.
        -13    1    3    3    0    0 -0.17226304663E+02 -0.25062152082E+02  0.79537152660E+02  0.85152895973E+02  0.00000000000E+00 0.  1.
         13    1    3    3    0    0  0.66675653456E+02 -0.80543103222E+02  0.77926179039E+02  0.13040446166E+03  0.00000000000E+00 0. -1.
          2    1    1    2  501    0 -0.16893373829E+02  0.12410172823E+02 -0.10334104699E+03  0.10544558057E+03  0.00000000000E+00 0. -1.
<scales pt_clust_5="13000.00000" pt_clust_6="13000.00000" pt_clust_7="13000.00000" pt_clust_8="13000.00000" pt_clust_9="20.96183"></scales>
<clustering>
<clus scale="   20.962">  2  9  1 -1</clus>
<clus scale="   82.458">  5  6 -1 -1</clus>
<clus scale="   89.847">  7  8 -1 -1</clus>
<clus scale="  138.806">  2  5  1 -1</clus>
<clus scale="   20.962">  2  5  1 -1</clus>
</clustering>
</event>
<event>
 9    1  0.7586638E-005  0.1232572E+03  0.7546771E-02  0.1252500E+00
          1   -1    0    0  502    0 -0.00000000000E+00  0.00000000000E+00  0.45661295215E+03  0.45661295215E+03  0.00000000000E+00 0. -1.
         21   -1    0    0  501  502  0.00000000000E+00 -0.00000000000E+00 -0.27193437428E+03  0.27193437428E+03  0.00000000000E+00 0. -1.
         23    2    1    2    0    0  0.81708386619E+01  0.46462722760E+01  0.29089435254E+03  0.30500802700E+03  0.91225115761E+02 0.  0.
        -24    2    1    2    0    0  0.69556193223E+02 -0.54227937829E+02  0.12561143500E+03  0.17405244971E+03  0.82080992875E+02 0.  0.
         13    1    4    4    0    0  0.32260608532E+02 -0.70912408696E+01  0.10568855039E+03  0.11072986157E+03  0.00000000000E+00 0. -1.
        -14    1    4    4    0    0  0.37295584691E+02 -0.47136696959E+02  0.19922884609E+02  0.63322588141E+02  0.00000000000E+00 0.  1.
        -13    1    3    3    0    0 -0.31400442244E+02 -0.26706182914E+02  0.13032345278E+03  0.13668727199E+03  0.00000000000E+00 0.  1.
         13    1    3    3    0    0  0.39571280905E+02  0.31352455190E+02  0.16057089976E+03  0.16832075501E+03  0.00000000000E+00 0. -1.
          2    1    1    2  501    0 -0.77727031885E+02  0.49581665553E+02 -0.23182720966E+03  0.24948684972E+03  0.00000000000E+00 0. -1.
<scales pt_clust_5="13000.00000" pt_clust_6="13000.00000" pt_clust_7="13000.00000" pt_clust_8="13000.00000" pt_clust_9="91.95140"></scales>
<clustering>
<clus scale="   82.081">  5  6 -1 -1</clus>
<clus scale="   91.225">  7  8 -1 -1</clus>
<clus scale="   91.708">  1  7  2 -1</clus>
<clus scale="   91.951">  2  9  1 -1</clus>
<clus scale="   91.951">  2  5  1 -1</clus>
</clustering>
</event>
<event>
 9    1  0.7586638E-005  0.9910289E+02  0.7546771E-02  0.1285061E+00
         21   -1    0    0  501  502  0.00000000000E+00  0.00000000000E+00  0.37413619531E+03  0.37413619531E+03  0.00000000000E+00 0.  1.
         -2   -1    0    0    0  501 -0.00000000000E+00 -0.00000000000E+00 -0.12781026874E+03  0.12781026874E+03  0.00000000000E+00 0.  1.
        -24    2    1    2    0    0  0.19029609939E+02  0.18075674023E+02 -0.37348191391E+02  0.95855750155E+02  0.84288678907E+02 0.  0.
         23    2    1    2    0    0 -0.79598345004E+02 -0.10202961540E+02  0.49389868614E+01  0.12074211203E+03  0.90079226661E+02 0.  0.
         13    1    3    3    0    0  0.32494530332E+02  0.80448819470E+01  0.18006096978E+02  0.38010974145E+02  0.00000000000E+00 0. -1.
        -14    1    3    3    0    0 -0.13464920393E+02  0.10030792076E+02 -0.55354288369E+02  0.57844776011E+02  0.00000000000E+00 0.  1.
        -11    1    4    4    0    0 -0.43640513288E+02 -0.19663438905E+02 -0.40025909562E+02  0.62395662236E+02  0.00000000000E+00 0. -1.
         11    1    4    4    0    0 -0.35957831716E+02  0.94604773649E+01  0.44964896424E+02  0.58346449799E+02  0.00000000000E+00 0.  1.
         -1    1    1    2    0  502  0.60568735065E+02 -0.78727124837E+01  0.27873513111E+03  0.28534860186E+03  0.00000000000E+00 0.  1.
<scales pt_clust_5="13000.00000" pt_clust_6="13000.00000" pt_clust_7="13000.00000" pt_clust_8="13000.00000" pt_clust_9="61.07824"></scales>
<clustering>
<clus scale="   61.078">  1  9  2 -1</clus>
<clus scale="   84.289">  5  6 -1 -1</clus>
<clus scale="   90.079">  7  8 -1 -1</clus>
<clus scale="   93.871">  2  5  1 -1</clus>
<clus scale="   61.078">  1  5  2 -1</clus>
</clustering>
</event>
<event>
 9    1  0.7586638E-005  0.1584909E+03  0.7546771E-02  0.1192489E+00
         21   -1    0    0  501  502  0.00000000000E+00  0.00000000000E+00  0.56721573218E+02  0.56721573218E+02  0.00000000000E+00 0.  1.
          1   -1    0    0  502    0 -0.00000000000E+00 -0.00000000000E+00 -0.61172542946E+03  0.61172542946E+03  0.00000000000E+00 0. -1.
        -24    2    1    2    0    0  0.11913371282E+02  0.12306812923E+03 -0.38050241638E+03  0.40792941401E+03  0.79602921413E+02 0.  0.
         23    2    1    2    0    0 -0.27543584926E+01 -0.14242062331E+03 -0.16609360922E+03  0.23751545489E+03  0.92386599966E+02 0.  0.
         13    1    3    3    0    0  0.41838101542E+02  0.73509160829E+02 -0.27336245728E+03  0.28614866157E+03  0.00000000000E+00 0. -1.
        -14    1    3    3    0    0 -0.29924730260E+02  0.49558968400E+02 -0.10713995910E+03  0.12178075244E+03  0.00000000000E+00 0.  1.
        -11    1    4    4    0    0 -0.42678936280E+02 -0.65234335031E+02 -0.10716366189E+03  0.13251815158E+03  0.00000000000E+00 0.  1.
         11    1    4    4    0    0  0.39924577788E+02 -0.77186288277E+02 -0.58929947329E+02  0.10499730331E+03  0.00000000000E+00 0. -1.
          2    1    1    2  501    0 -0.91590127897E+01  0.19352494079E+02 -0.84078306487E+01  0.23002133783E+02  0.00000000000E+00 0. -1.
<scales pt_clust_5="13000.00000" pt_clust_6="13000.00000" pt_clust_7="13000.00000" pt_clust_8="13000.00000" pt_clust_9="21.41043"></scales>
<clustering>
<clus scale="   21.410">  1  9  2 -1</clus>
<clus scale="   79.603">  5  6 -1 -1</clus>
<clus scale="   92.387">  7  8 -1 -1</clus>
<clus scale="  151.396">  2  5  1 -1</clus>
<clus scale="   21.410">  1  5  2 -1</clus>
</clustering>
</event>
<event>
 9    1  0.7586638E-005  0.1881834E+03  0.7546771E-02  0.1160966E+00
          3   -1    0    0  502    0 -0.00000000000E+00  0.00000000000E+00  0.22735504901E+03  0.22735504901E+03  0.00000000000E+00 0. -1.
         21   -1    0    0  501  502  0.00000000000E+00 -0.00000000000E+00 -0.37816461741E+03  0.37816461741E+03  0.00000000000E+00 0. -1.
        -24    2    1    2    0    0 -0.97582386343E+02  0.14879849642E+03  0.10928316010E+03  0.22484924709E+03  0.83373018246E+02 0.  0.
         23    2    1    2    0    0  0.12621149404E+03 -0.69111916593E+02 -0.94923781375E+02  0.19506234325E+03  0.91285241083E+02 0.  0.
         13    1    3    3    0    0 -0.29124954519E+02  0.92775646633E+02  0.93681140142E+02  0.13502495918E+03  0.00000000000E+00 0. -1.
        -14    1    3    3    0    0 -0.68457431824E+02  0.56022849791E+02  0.15602019957E+02  0.89824287904E+02  0.00000000000E+00 0.  1.
        -11    1    4    4    0    0  0.13831992152E+03 -0.50225432387E+02 -0.88531719012E+02  0.17173485383E+03  0.00000000000E+00 0.  1.
         11    1    4    4    0    0 -0.12108427475E+02 -0.18886484207E+02 -0.63920623629E+01  0.23327489424E+02  0.00000000000E+00 0. -1.
          4    1    1    2  501    0 -0.28629107700E+02 -0.79686579831E+02 -0.16516894713E+03  0.18560807609E+03  0.00000000000E+00 0. -1.
<scales pt_clust_5="13000.00000" pt_clust_6="13000.00000" pt_clust_7="13000.00000" pt_clust_8="13000.00000" pt_clust_9="84.67335"></scales>
<clustering>
<clus scale="   83.373">  5  6 -1 -1</clus>
<clus scale="   84.673">  2  9  1 -1</clus>
<clus scale="   91.285">  7  8 -1 -1</clus>
<clus scale="  184.475">  1  5  2 -1</clus>
<clus scale="   84.673">  2  5  1 -1</clus>
</clustering>
</event>
<event>
 9    1  0.7586638E-005  0.9386510E+02  0.7546771E-02  0.1309288E+00
         21   -1    0    0  501  502  0.00000000000E+00  0.00000000000E+00  0.22116320325E+02  0.22116320325E+02  0.00000000000E+00 0.  1.
          3   -1    0    0  502    0 -0.00000000000E+00 -0.00000000000E+00 -0.54102134981E+03  0.54102134981E+03  0.00000000000E+00 0. -1.
         23    2    1    2    0    0 -0.84832366044E+01  0.28566254202E+02 -0.38301309117E+03  0.39482214506E+03  0.91090625437E+02 0.  0.
        -24    2    1    2    0    0 -0.86246646487E+01 -0.82387057777E+01 -0.71081767294E+02  0.98270912303E+02  0.66800400074E+02 0.  0.
         11    1    4    4    0    0  0.19675783732E+02 -0.19974194142E+02 -0.59026962631E+02  0.65347434644E+02  0.00000000000E+00 0. -1.
        -12    1    4    4    0    0 -0.28300448381E+02  0.11735488364E+02 -0.12054804663E+02  0.32923477659E+02  0.00000000000E+00 0.  1.
        -13    1    3    3    0    0  0.96988935653E+01  0.59323674030E+02 -0.24001869152E+03  0.24743148368E+03  0.00000000000E+00 0.  1.
         13    1    3    3    0    0 -0.18182130170E+02 -0.30757419828E+02 -0.14299439965E+03  0.14739066138E+03  0.00000000000E+00 0. -1.
          4    1    1    2  501    0  0.17107901253E+02 -0.20327548425E+02 -0.64810171028E+02  0.70044612776E+02  0.00000000000E+00 0. -1.
<scales pt_clust_5="13000.00000" pt_clust_6="13000.00000" pt_clust_7="13000.00000" pt_clust_8="13000.00000" pt_clust_9="26.56859"></scales>
<clustering>
<clus scale="   26.569">  1  9  2 -1</clus>
<clus scale="   66.800">  5  6 -1 -1</clus>
<clus scale="   70.537">  1  5  2 -1</clus>
<clus scale="   91.091">  7  8 -1 -1</clus>
<clus scale="   26.569">  1  5  2 -1</clus>
</clustering>
</event>
<event>
 9    1  0.7586638E-005  0.1443371E+03  0.7546771E-02  0.1216214E+00
         21   -1    0    0  501  502  0.00000000000E+00  0.00000000000E+00  0.18102825346E+03  0.18102825346E+03  0.00000000000E+00 0.  1.
          1   -1    0    0  502    0 -0.00000000000E+00 -0.00000000000E+00 -0.35821845708E+03  0.35821845708E+03  0.00000000000E+00 0. -1.
         23    2    1    2    0    0 -0.70435176483E+02  0.34578231023E+02 -0.11247178552E+03  0.16460177849E+03  0.91033371884E+02 0.  0.
        -24    2    1    2    0    0 -0.49322682585E+02  0.97202002385E+02  0.69785929930E+02  0.15148715298E+03  0.78723092015E+02 0.  0.
         13    1    4    4    0    0  0.11985027525E+02  0.32129194856E+02 -0.53456105141E+01  0.34705930309E+02  0.00000000000E+00 0. -1.
        -14    1    4    4    0    0 -0.61307710110E+02  0.65072807529E+02  0.75131540444E+02  0.11678122267E+03  0.00000000000E+00 0.  1.
        -11    1    3    3    0    0 -0.62009470840E+02  0.58864646624E+02 -0.10919718218E+03  0.13868758305E+03  0.00000000000E+00 0. -1.
         11    1    3    3    0    0 -0.84257056430E+01 -0.24286415601E+02 -0.32746033432E+01  0.25914195441E+02  0.00000000000E+00 0.  1.
          2    1    1    2  501    0  0.11975785907E+03 -0.13178023341E+03 -0.13450434803E+03  0.22315777908E+03  0.00000000000E+00 0. -1.
<scales pt_clust_5="13000.00000" pt_clust_6="13000.00000" pt_clust_7="13000.00000" pt_clust_8="13000.00000" pt_clust_9="120.97891"></scales>
<clustering>
<clus scale="   78.723">  5  6 -1 -1</clus>
<clus scale="   91.033">  7  8 -1 -1</clus>
<clus scale="  120.183">  2  7  1 -1</clus>
<clus scale="  120.979">  1  9  2 -1</clus>
<clus scale="  120.979">  1  5  2 -1</clus>
</clustering>
</event>
<event>
 9    1  0.7586638E-005  0.1387431E+03  0.7546771E-02  0.1216457E+00
         -2   -1    0    0    0  501 -0.00000000000E+00  0.00000000000E+00  0.12348512072E+03  0.12348512072E+03  0.00000000000E+00 0.  1.
         21   -1    0    0  501  502  0.00000000000E+00 -0.00000000000E+00 -0.57780005665E+03  0.57780005665E+03  0.00000000000E+00 0.  1.
        -24    2    1    2    0    0 -0.12066564270E+03  0.52527288498E+02 -0.13987737269E+03  0.20903078317E+03  0.82515910942E+02 0.  0.
         23    2    1    2    0    0  0.62125113692E+02  0.19584543287E+02 -0.36857781557E+03  0.38474496791E+03  0.89084230436E+02 0.  0.
         11    1    3    3    0    0 -0.26164345950E+02 -0.17307544033E+02 -0.57584572383E+02  0.65575201532E+02  0.00000000000E+00 0. -1.
        -12    1    3    3    0    0 -0.94501296747E+02  0.69834832531E+02 -0.82292800308E+02  0.14345558164E+03  0.00000000000E+00 0.  1.
        -13    1    4    4    0    0  0.26308371823E+02 -0.28492406358E+02 -0.68310433232E+02  0.78551021231E+02  0.00000000000E+00 0. -1.
         13    1    4    4    0    0  0.35816741869E+02  0.48076949645E+02 -0.30026738234E+03  0.30619394667E+03  0.00000000000E+00 0.  1.
         -1    1    1    2    0  502  0.58540529005E+02 -0.72111831785E+02  0.54140252334E+02  0.10750942630E+03  0.00000000000E+00 0.  1.
<scales pt_clust_5="13000.00000" pt_clust_6="13000.00000" pt_clust_7="13000.00000" pt_clust_8="13000.00000" pt_clust_9="92.88228"></scales>
<clustering>
<clus scale="   82.516">  5  6 -1 -1</clus>
<clus scale="   89.084">  7  8 -1 -1</clus>
<clus scale="   92.882">  2  9  1 -1</clus>
<clus scale="  134.620">  1  5  2 -1</clus>
<clus scale="   92.882">  2  5  1 -1</clus>
</clustering>
</event>
<event>
 9    1  0.7586638E-005  0.1251949E+03  0.7546771E-02  0.1236098E+00
         -4   -1    0    0    0  501 -0.00000000000E+00  0.00000000000E+00  0.57796624326E+03  0.57796624326E+03  0.00000000000E+00 0.  1.
         21   -1    0    0  501  502  0.00000000000E+00 -0.00000000000E+00 -0.87326063689E+02  0.87326063689E+02  0.00000000000E+00 0.  1.
        -24    2    1    2    0    0 -0.51679720282E+02  0.63376923520E+02  0.31897752807E+03  0.34043164668E+03  0.86369061144E+02 0.  0.
         23    2    1    2    0    0  0.80681746637E+02 -0.82270078388E+02 -0.29039124536E+01  0.14689562414E+03  0.91060318724E+02 0.  0.
         11    1    3    3    0    0 -0.12359267764E+02  0.66735923315E+02  0.26508102686E+03  0.27363184347E+03  0.00000000000E+00 0. -1.
        -12    1    3    3    0    0 -0.39320452518E+02 -0.33589997957E+01  0.53896501215E+02  0.66799803211E+02  0.00000000000E+00 0.  1.
        -11    1    4    4    0    0  0.54028407403E+02 -0.26559615373E+02 -0.42357096873E+02  0.73611178708E+02  0.00000000000E+00 0.  1.
         11    1    4    4    0    0  0.26653339234E+02 -0.55710463015E+02  0.39453184420E+02  0.73284445434E+02  0.00000000000E+00 0. -1.
         -3    1    1    2    0  502 -0.29002026356E+02  0.18893154869E+02  0.17456656396E+03  0.17796503613E+03  0.00000000000E+00 0.  1.
<scales pt_clust_5="13000.00000" pt_clust_6="13000.00000" pt_clust_7="13000.00000" pt_clust_8="13000.00000" pt_clust_9="34.61315"></scales>
<clustering>
<clus scale="   34.613">  2  9  1 -1</clus>
<clus scale="   86.369">  5  6 -1 -1</clus>
<clus scale="   91.060">  7  8 -1 -1</clus>
<clus scale="  121.825">  1  5  2 -1</clus>
<clus scale="   34.613">  2  5  1 -1</clus>
</clustering>
</event>
<event>
 9    1  0.7586638E-005  0.1086443E+03  0.7546771E-02  0.1266308E+00
         21   -1    0    0  501  502  0.00000000000E+00  0.00000000000E+00  0.35672780926E+03  0.35672780926E+03  0.00000000000E+00 0. -1.
          1   -1    0    0  502    0 -0.00000000000E+00 -0.00000000000E+00 -0.23932430913E+03  0.23932430913E+03  0.00000000000E+00 0. -1.
         23    2    1    2    0    0  0.47836659682E+02  0.31733509365E+02 -0.11393548320E+03  0.15635331364E+03  0.90386407877E+02 0.  0.
        -24    2    1    2    0    0 -0.18195944993E+02 -0.72789025959E+02 -0.71683060701E+02  0.13247496684E+03  0.82351811969E+02 0.  0.
         13    1    4    4    0    0 -0.13780538952E+02 -0.89534544963E+02 -0.71080281341E+02  0.11514662127E+03  0.00000000000E+00 0. -1.
        -14    1    4    4    0    0 -0.44154060412E+01  0.16745519003E+02 -0.60277936009E+00  0.17328345569E+02  0.00000000000E+00 0.  1.
        -11    1    3    3    0    0  0.52447634126E+02 -0.42751221859E+01 -0.10721707621E+03  0.11943421799E+03  0.00000000000E+00 0.  1.
         11    1    3    3    0    0 -0.46109744446E+01  0.36008631551E+02 -0.67184069893E+01  0.36919095655E+02  0.00000000000E+00 0. -1.
          2    1    1    2  501    0 -0.29640714689E+02  0.41055516594E+02  0.30302204403E+03  0.30722383790E+03  0.00000000000E+00 0. -1.
<scales pt_clust_5="13000.00000" pt_clust_6="13000.00000" pt_clust_7="13000.00000" pt_clust_8="13000.00000" pt_clust_9="50.63721"></scales>
<clustering>
<clus scale="   50.637">  1  9  2 -1</clus>
<clus scale="   82.352">  5  6 -1 -1</clus>
<clus scale="   90.386">  7  8 -1 -1</clus>
<clus scale="  102.057">  1  5  2 -1</clus>
<clus scale="   50.637">  1  5  2 -1</clus>
</clustering>
</event>
<event>
 9    1  0.7586638E-005  0.9575647E+02  0.7546771E-02  0.1295890E+00
         21   -1    0    0  501  502  0.00000000000E+00  0.00000000000E+00  0.14204649224E+03  0.14204649224E+03  0.00000000000E+00 0.  1.
         -2   -1    0    0    0  501 -0.00000000000E+00 -0.00000000000E+00 -0.11960091134E+03  0.11960091134E+03  0.00000000000E+00 0.  1.
        -24    2    1    2    0    0  0.56239228609E+01 -0.22740044395E+02 -0.45131906337E+02  0.93861452177E+02  0.78894518870E+02 0.  0.
         23    2    1    2    0    0 -0.33142840610E+02  0.43576482889E+02  0.17756272517E+02  0.10717570937E+03  0.90410119572E+02 0.  0.
         13    1    3    3    0    0 -0.30232819875E+02  0.10677169964E+02 -0.25869743967E+02  0.41197924814E+02  0.00000000000E+00 0. -1.
        -14    1    3    3    0    0  0.35856742736E+02 -0.33417214359E+02 -0.19262162370E+02  0.52663527363E+02  0.00000000000E+00 0.  1.
        -13    1    4    4    0    0 -0.22147179948E+02  0.71886387351E+02  0.10493696836E+02  0.75949114144E+02  0.00000000000E+00 0.  1.
         13    1    4    4    0    0 -0.10995660662E+02 -0.28309904461E+02  0.72625756810E+01  0.31226595228E+02  0.00000000000E+00 0. -1.
         -1    1    1    2    0  502  0.27518917749E+02 -0.20836438494E+02  0.49821214719E+02  0.60610242033E+02  0.00000000000E+00 0.  1.
<scales pt_clust_5="13000.00000" pt_clust_6="13000.00000" pt_clust_7="13000.00000" pt_clust_8="13000.00000" pt_clust_9="34.51736"></scales>
<clustering>
<clus scale="   34.517">  1  9  2 -1</clus>
<clus scale="   78.895">  5  6 -1 -1</clus>
<clus scale="   84.969">  2  5  1 -1</clus>
<clus scale="   90.410">  7  8 -1 -1</clus>
<clus scale="   34.517">  1  5  2 -1</clus>
</clustering>
</event>
<event>
 9    1  0.7586638E-005  0.1541979E+03  0.7546771E-02  0.1224912E+00
         21   -1    0    0  501  502  0.00000000000E+00  0.00000000000E+00  0.14548078734E+03  0.14548078734E+03  0.00000000000E+00 0.  1.
         -2   -1    0    0    0  501 -0.00000000000E+00 -0.00000000000E+00 -0.27451285001E+03  0.27451285001E+03  0.00000000000E+00 0.  1.
        -24    2    1    2    0    0  0.51026395796E+01 -0.21249247486E+02 -0.88192786145E+02  0.12051136643E+03  0.79167256252E+02 0.  0.
         23    2    1    2    0    0  0.88864065127E+02  0.10695076561E+03 -0.57514253762E+02  0.17121478996E+03  0.81678189131E+02 0.  0.
         13    1    3    3    0    0 -0.27219623309E+02  0.16968003810E+02 -0.34447222946E+02  0.47068378080E+02  0.00000000000E+00 0. -1.
        -14    1    3    3    0    0  0.32322262889E+02 -0.38217251296E+02 -0.53745563200E+02  0.73442988355E+02  0.00000000000E+00 0.  1.
        -11    1    4    4    0    0  0.96178288532E+02  0.73897878628E+02 -0.24123049863E+02  0.12366519796E+03  0.00000000000E+00 0.  1.
         11    1    4    4    0    0 -0.73142234057E+01  0.33052886984E+02 -0.33391203900E+02  0.47549592005E+02  0.00000000000E+00 0. -1.
         -1    1    1    2    0  502 -0.93966704706E+02 -0.85701518126E+02  0.16674977239E+02  0.12826748095E+03  0.00000000000E+00 0.  1.
<scales pt_clust_5="13000.00000" pt_clust_6="13000.00000" pt_clust_7="13000.00000" pt_clust_8="13000.00000" pt_clust_9="130.78868"></scales>
<clustering>
<clus scale="   79.167">  5  6 -1 -1</clus>
<clus scale="   81.678">  7  8 -1 -1</clus>
<clus scale="   82.128">  2  5  1 -1</clus>
<clus scale="  130.789">  1  9  2 -1</clus>
<clus scale="  130.789">  1  5  2 -1</clus>
</clustering>
</event>
<event>
 9    1  0.7586638E-005  0.2111840E+03  0.7546771E-02  0.1176498E+00
         21   -1    0    0  501  502  0.00000000000E+00  0.00000000000E+00  0.37005208581E+02  0.37005208581E+02  0.00000000000E+00 0.  1.
          1   -1    0    0  502    0 -0.00000000000E+00 -0.00000000000E+00 -0.17221178706E+04  0.17221178706E+04  0.00000000000E+00 0. -1.
        -24    2    1    2    0    0  0.36466169256E+02  0.25637775465E+02 -0.19823215842E+03  0.21829792801E+03  0.79818041242E+02 0.  0.
         23    2    1    2    0    0 -0.19699032127E+03 -0.82921641823E+02 -0.79756188593E+03  0.83074797130E+03  0.91411402839E+02 0.  0.
         13    1    3    3    0    0  0.15160950822E+02 -0.24373421592E+02 -0.30082778004E+02  0.41579942789E+02  0.00000000000E+00 0. -1.
        -14    1    3    3    0    0  0.21305218434E+02  0.50011197057E+02 -0.16814938042E+03  0.17671798522E+03  0.00000000000E+00 0.  1.
        -13    1    4    4    0    0 -0.31239642345E+02  0.18364079636E+02 -0.90397886936E+02  0.97390618836E+02  0.00000000000E+00 0. -1.
         13    1    4    4    0    0 -0.16575067893E+03 -0.10128572146E+03 -0.70716399899E+03  0.73335735246E+03  0.00000000000E+00 0.  1.
          2    1    1    2  501    0  0.16052415201E+03  0.57283866358E+02 -0.68931861770E+03  0.71007717991E+03  0.00000000000E+00 0. -1.
<scales pt_clust_5="13000.00000" pt_clust_6="13000.00000" pt_clust_7="13000.00000" pt_clust_8="13000.00000" pt_clust_9="190.37503"></scales>
<clustering>
<clus scale="   79.818">  5  6 -1 -1</clus>
<clus scale="   91.411">  7  8 -1 -1</clus>
<clus scale="   91.422">  2  5  1 -1</clus>
<clus scale="  190.375">  1  9  2 -1</clus>
<clus scale="  190.375">  1  5  2 -1</clus>
</clustering>
</event>
<event>
 9    1  0.7586638E-005  0.8900822E+02  0.7546771E-02  0.1308101E+00
         -2   -1    0    0    0  501 -0.00000000000E+00  0.00000000000E+00  0.56735060032E+03  0.56735060032E+03  0.00000000000E+00 0.  1.
         21   -1    0    0  501  502  0.00000000000E+00 -0.00000000000E+00 -0.59084383034E+02  0.59084383034E+02  0.00000000000E+00 0.  1.
        -24    2    1    2    0    0 -0.37274844447E+02 -0.66906268035E+01  0.37295524221E+03  0.38291343761E+03  0.78057091227E+02 0.  0.
         23    2    1    2    0    0 -0.60317978979E+00  0.48194002465E+02  0.15644500801E+03  0.18348886915E+03  0.82886059575E+02 0.  0.
         11    1    3    3    0    0 -0.30712488165E+02 -0.37318162147E+02  0.14563341260E+03  0.15344377805E+03  0.00000000000E+00 0. -1.
        -12    1    3    3    0    0 -0.65623562823E+01  0.30627535343E+02  0.22732182961E+03  0.22946965956E+03  0.00000000000E+00 0.  1.
        -11    1    4    4    0    0  0.11908861067E+02  0.27577451776E+02  0.15651601458E+03  0.15937251846E+03  0.00000000000E+00 0. -1.
         11    1    4    4    0    0 -0.12512040857E+02  0.20616550689E+02 -0.71006577189E-01  0.24116350691E+02  0.00000000000E+00 0.  1.
         -1    1    1    2    0  502  0.37878024237E+02 -0.41503375661E+02 -0.21134032935E+02  0.60032676597E+02  0.00000000000E+00 0.  1.
<scales pt_clust_5="13000.00000" pt_clust_6="13000.00000" pt_clust_7="13000.00000" pt_clust_8="13000.00000" pt_clust_9="56.18963"></scales>
<clustering>
<clus scale="   56.190">  2  9  1 -1</clus>
<clus scale="   78.057">  5  6 -1 -1</clus>
<clus scale="   82.886">  7  8 -1 -1</clus>
<clus scale="   84.530">  1  5  2 -1</clus>
<clus scale="   56.190">  2  5  1 -1</clus>
</clustering>
</event>
<event>
 9    1  0.7586638E-005  0.9507819E+02  0.7546771E-02  0.1298317E+00
          1   -1    0    0  502    0 -0.00000000000E+00  0.00000000000E+00  0.14309961283E+03  0.14309961283E+03  0.00000000000E+00 0. -1.
         21   -1    0    0  501  502  0.00000000000E+00 -0.00000000000E+00 -0.27855880723E+03  0.27855880723E+03  0.00000000000E+00 0.  1.
        -24    2    1    2    0    0 -0.26125937580E+01  0.24894047815E+02  0.10191317761E+03  0.13119685797E+03  0.78738684946E+02 0.  0.
         23    2    1    2    0    0  0.28264092869E+02 -0.29772609271E+02 -0.72841572241E+02  0.12387169492E+03  0.91394939404E+02 0.  0.
         11    1    3    3    0    0 -0.40460751678E+02  0.15868962833E+02  0.58855053399E+02  0.73162925846E+02  0.00000000000E+00 0. -1.
        -12    1    3    3    0    0  0.37848157920E+02  0.90250849826E+01  0.43058124212E+02  0.58033932122E+02  0.00000000000E+00 0.  1.
        -11    1    4    4    0    0  0.38460093605E+02  0.49287093673E+01 -0.78222507792E+02  0.87305393312E+02  0.00000000000E+00 0.  1.
         11    1    4    4    0    0 -0.10196000736E+02 -0.34701318638E+02  0.53809355515E+01  0.36566301613E+02  0.00000000000E+00 0. -1.
          2    1    1    2  501    0 -0.25651499111E+02  0.48785614553E+01 -0.16453079977E+03  0.16658986717E+03  0.00000000000E+00 0. -1.
<scales pt_clust_5="13000.00000" pt_clust_6="13000.00000" pt_clust_7="13000.00000" pt_clust_8="13000.00000" pt_clust_9="26.11130"></scales>
<clustering>
<clus scale="   26.111">  2  9  1 -1</clus>
<clus scale="   78.739">  5  6 -1 -1</clus>
<clus scale="   82.986">  1  5  2 -1</clus>
<clus scale="   91.395">  7  8 -1 -1</clus>
<clus scale="   26.111">  2  5  1 -1</clus>
</clustering>
</event>
<event>
 9    1  0.7586638E-005  0.3096862E+03  0.7546771E-02  0.1080804E+00
         21   -1    0    0  501  502  0.00000000000E+00  0.00000000000E+00  0.37917372556E+03  0.37917372556E+03  0.00000000000E+00 0. -1.
          1   -1    0    0  502    0 -0.00000000000E+00 -0.00000000000E+00 -0.86056279710E+03  0.86056279710E+03  0.00000000000E+00 0. -1.
         23    2    1    2    0    0 -0.30149301305E+03 -0.12463819096E+03 -0.66458056891E+03  0.74586075219E+03  0.90599191633E+02 0.  0.
        -24    2    1    2    0    0  0.22753447649E+03  0.47747745317E+01 -0.24472884285E+02  0.24295427052E+03  0.81443962541E+02 0.  0.
         13    1    4    4    0    0  0.98160404921E+02 -0.26419116127E+02  0.18051280801E+02  0.10324380625E+03  0.00000000000E+00 0. -1.
        -14    1    4    4    0    0  0.12937407157E+03  0.31193890659E+02 -0.42524165085E+02  0.13971046427E+03  0.00000000000E+00 0.  1.
        -13    1    3    3    0    0 -0.14545627130E+03 -0.10896830940E+03 -0.35280486431E+03  0.39686633971E+03  0.00000000000E+00 0. -1.
         13    1    3    3    0    0 -0.15603674175E+03 -0.15669881551E+02 -0.31177570459E+03  0.34899441248E+03  0.00000000000E+00 0.  1.
          2    1    1    2  501    0  0.73958536558E+02  0.11986341642E+03  0.20766438165E+03  0.25092149994E+03  0.00000000000E+00 0. -1.
<scales pt_clust_5="13000.00000" pt_clust_6="13000.00000" pt_clust_7="13000.00000" pt_clust_8="13000.00000" pt_clust_9="140.84425"></scales>
<clustering>
<clus scale="   81.444">  5  6 -1 -1</clus>
<clus scale="   90.599">  7  8 -1 -1</clus>
<clus scale="  140.844">  1  9  2 -1</clus>
<clus scale="  307.133">  1  5  2 -1</clus>
<clus scale="  140.844">  1  5  2 -1</clus>
</clustering>
</event>
<event>
 9    1  0.7586638E-005  0.1405001E+03  0.7546771E-02  0.1238673E+00
          3   -1    0    0  502    0 -0.00000000000E+00  0.00000000000E+00  0.17039545251E+03  0.17039545251E+03  0.00000000000E+00 0. -1.
         21   -1    0    0  501  502  0.00000000000E+00 -0.00000000000E+00 -0.17967050978E+03  0.17967050978E+03  0.00000000000E+00 0. -1.
        -24    2    1    2    0    0  0.23565391128E+02 -0.88491677379E+01 -0.24104241939E+02  0.85260599459E+02  0.77812080758E+02 0.  0.
         23    2    1    2    0    0 -0.27121774249E+02 -0.99656425695E+02  0.55669478570E+02  0.14881380593E+03  0.91539413205E+02 0.  0.
         11    1    3    3    0    0  0.51629471234E+02 -0.11207268576E+02 -0.21279492644E+02  0.56956316384E+02  0.00000000000E+00 0. -1.
        -12    1    3    3    0    0 -0.28064080106E+02  0.23581008377E+01 -0.28247492953E+01  0.28304283075E+02  0.00000000000E+00 0.  1.
        -11    1    4    4    0    0 -0.22561577502E+02 -0.13028108345E+02 -0.20671612199E+02  0.33257659830E+02  0.00000000000E+00 0.  1.
         11    1    4    4    0    0 -0.45601967469E+01 -0.86628317350E+02  0.76341090769E+02  0.11555614610E+03  0.00000000000E+00 0. -1.
          4    1    1    2  501    0  0.35563831216E+01  0.10850559343E+03 -0.40840293893E+02  0.11599155690E+03  0.00000000000E+00 0. -1.
<scales pt_clust_5="13000.00000" pt_clust_6="13000.00000" pt_clust_7="13000.00000" pt_clust_8="13000.00000" pt_clust_9="106.58718"></scales>
<clustering>
<clus scale="   77.812">  5  6 -1 -1</clus>
<clus scale="   81.782">  1  5  2 -1</clus>
<clus scale="   91.539">  7  8 -1 -1</clus>
<clus scale="  106.587">  2  9  1 -1</clus>
<clus scale="  106.587">  2  5  1 -1</clus>
</clustering>
</event>
<event>
 9    1  0.7586638E-005  0.1984720E+03  0.7546771E-02  0.1155179E+00
          1   -1    0    0  502    0 -0.00000000000E+00  0.00000000000E+00  0.11278993805E+04  0.11278993805E+04  0.00000000000E+00 0. -1.
         21   -1    0    0  501  502  0.00000000000E+00 -0.00000000000E+00 -0.99436527719E+02  0.99436527719E+02  0.00000000000E+00 0.  1.
        -24    2    1    2    0    0 -0.12758653547E+02  0.18202276199E+03  0.61428691571E+03  0.64582598552E+03  0.80297693791E+02 0.  0.
         23    2    1    2    0    0 -0.16108865764E+03 -0.86271803994E+02  0.17735907387E+03  0.27252228499E+03  0.97055525078E+02 0.  0.
         11    1    3    3    0    0  0.55913563689E+01  0.17271919990E+03  0.58531337928E+03  0.61029086282E+03  0.00000000000E+00 0. -1.
        -12    1    3    3    0    0 -0.18350009916E+02  0.93035620973E+01  0.28973536439E+02  0.35535122701E+02  0.00000000000E+00 0.  1.
        -13    1    4    4    0    0 -0.16938899924E+03 -0.61403656779E+02  0.16094336493E+03  0.24159016711E+03  0.00000000000E+00 0.  1.
         13    1    4    4    0    0  0.83003416010E+01 -0.24868147214E+02  0.16415708944E+02  0.30932117883E+02  0.00000000000E+00 0. -1.
          2    1    1    2  501    0  0.17384731119E+03 -0.95750957999E+02  0.23681686321E+03  0.30898763772E+03  0.00000000000E+00 0. -1.
<scales pt_clust_5="13000.00000" pt_clust_6="13000.00000" pt_clust_7="13000.00000" pt_clust_8="13000.00000" pt_clust_9="198.47200"></scales>
<clustering>
<clus scale="   80.298">  5  6 -1 -1</clus>
<clus scale="   97.056">  7  8 -1 -1</clus>
<clus scale="  198.472">  2  9  1 -1</clus>
<clus scale="  180.007">  1  5  2 -1</clus>
<clus scale="  198.472">  2  5  1 -1</clus>
</clustering>
</event>
<event>
 9    1  0.7586638E-005  0.2380265E+03  0.7546771E-02  0.1121595E+00
         21   -1    0    0  501  502  0.00000000000E+00  0.00000000000E+00  0.94518464745E+02  0.94518464745E+02  0.00000000000E+00 0.  1.
         -2   -1    0    0    0  501 -0.00000000000E+00 -0.00000000000E+00 -0.91756569929E+03  0.91756569929E+03  0.00000000000E+00 0.  1.
        -24    2    1    2    0    0 -0.20583832134E+03  0.61914171769E+02 -0.59260891374E+03  0.63552800379E+03  0.80670563139E+02 0.  0.
         23    2    1    2    0    0  0.22488012219E+03 -0.86004698744E+02 -0.16710637382E+03  0.30617236113E+03  0.88595129570E+02 0.  0.
         13    1    3    3    0    0 -0.54165177099E+02 -0.14191376540E+01 -0.24634725399E+03  0.25223570308E+03  0.00000000000E+00 0. -1.
        -14    1    3    3    0    0 -0.15167314425E+03  0.63333309423E+02 -0.34626165976E+03  0.38329230071E+03  0.00000000000E+00 0.  1.
        -13    1    4    4    0    0  0.12728078511E+03 -0.94321993385E+02 -0.10872169925E+03  0.19213912819E+03  0.00000000000E+00 0.  1.
         13    1    4    4    0    0  0.97599337081E+02  0.83172946418E+01 -0.58384674568E+02  0.11403323293E+03  0.00000000000E+00 0. -1.
         -1    1    1    2    0  502 -0.19041800847E+02  0.24090526975E+02 -0.63331946983E+02  0.70383799116E+02  0.00000000000E+00 0.  1.
<scales pt_clust_5="13000.00000" pt_clust_6="13000.00000" pt_clust_7="13000.00000" pt_clust_8="13000.00000" pt_clust_9="30.70740"></scales>
<clustering>
<clus scale="   30.707">  1  9  2 -1</clus>
<clus scale="   80.671">  5  6 -1 -1</clus>
<clus scale="   88.595">  7  8 -1 -1</clus>
<clus scale="  235.192">  2  5  1 -1</clus>
<clus scale="   30.707">  1  5  2 -1</clus>
</clustering>
</event>
<event>
 9    1  0.7586638E-005  0.1217343E+03  0.7546771E-02  0.1254396E+00
          3   -1    0    0  502    0 -0.00000000000E+00  0.00000000000E+00  0.37772933336E+03  0.37772933336E+03  0.00000000000E+00 0. -1.
         21   -1    0    0  501  502  0.00000000000E+00 -0.00000000000E+00 -0.13157966030E+03  0.13157966030E+03  0.00000000000E+00 0. -1.
        -24    2    1    2    0    0 -0.32896340535E+02  0.30454695897E+02  0.23634806022E+03  0.25350440396E+03  0.79965114485E+02 0.  0.
         23    2    1    2    0    0 -0.73792065853E+02 -0.33224632861E+02 -0.56024664583E+02  0.13041245514E+03  0.85554077653E+02 0.  0.
         11    1    3    3    0    0 -0.45377956102E+02  0.50472350992E+02  0.18265933688E+03  0.19486161876E+03  0.00000000000E+00 0. -1.
        -12    1    3    3    0    0  0.12481615567E+02 -0.20017655095E+02  0.53688723338E+02  0.58642785202E+02  0.00000000000E+00 0.  1.
        -11    1    4    4    0    0 -0.57868834765E+02  0.20203558118E+02 -0.22129341504E+02  0.65166659827E+02  0.00000000000E+00 0. -1.
         11    1    4    4    0    0 -0.15923231088E+02 -0.53428190980E+02 -0.33895323080E+02  0.65245795315E+02  0.00000000000E+00 0.  1.
          4    1    1    2  501    0  0.10668840639E+03  0.27699369646E+01  0.65826277428E+02  0.12539213456E+03  0.00000000000E+00 0. -1.
<scales pt_clust_5="13000.00000" pt_clust_6="13000.00000" pt_clust_7="13000.00000" pt_clust_8="13000.00000" pt_clust_9="86.60103"></scales>
<clustering>
<clus scale="   79.965">  5  6 -1 -1</clus>
<clus scale="   85.554">  7  8 -1 -1</clus>
<clus scale="   91.674">  1  5  2 -1</clus>
<clus scale="   86.601">  2  9  1 -1</clus>
<clus scale="   86.601">  2  5  1 -1</clus>
</clustering>
</event>
<event>
 9    1  0.7586638E-005  0.1024441E+03  0.7546771E-02  0.1281267E+00
         21   -1    0    0  501  502  0.00000000000E+00  0.00000000000E+00  0.31229071251E+03  0.31229071251E+03  0.00000000000E+00 0. -1.
         -2   -1    0    0    0  501 -0.00000000000E+00 -0.00000000000E+00 -0.55373871370E+02  0.55373871370E+02  0.00000000000E+00 0.  1.
         23    2    1    2    0    0  0.25114408991E+02 -0.35396521453E+02  0.17792626381E+02  0.10576732955E+03  0.94797168616E+02 0.  0.
        -24    2    1    2    0    0 -0.15503295848E+02  0.17413909936E+02  0.20305483854E+03  0.22046359996E+03  0.82639790743E+02 0.  0.
         11    1    4    4    0    0  0.33630302846E+02  0.23394769151E+01  0.95126227532E+02  0.10092308748E+03  0.00000000000E+00 0. -1.
        -12    1    4    4    0    0 -0.49133598695E+02  0.15074433021E+02  0.10792861101E+03  0.11954051248E+03  0.00000000000E+00 0.  1.
        -13    1    3    3    0    0 -0.30504888855E+02 -0.30584584151E+02  0.24299419743E+02  0.49562352966E+02  0.00000000000E+00 0.  1.
         13    1    3    3    0    0  0.55619297845E+02 -0.48119373013E+01 -0.65067933619E+01  0.56204976588E+02  0.00000000000E+00 0. -1.
         -1    1    1    2    0  502 -0.96111131422E+01  0.17982611517E+02  0.36069376223E+02  0.41433654363E+02  0.00000000000E+00 0.  1.
<scales pt_clust_5="13000.00000" pt_clust_6="13000.00000" pt_clust_7="13000.00000" pt_clust_8="13000.00000" pt_clust_9="20.38989"></scales>
<clustering>
<clus scale="   20.390">  1  9  2 -1</clus>
<clus scale="   82.640">  5  6 -1 -1</clus>
<clus scale="   91.311">  1  5  2 -1</clus>
<clus scale="   94.797">  7  8 -1 -1</clus>
<clus scale="   20.390">  1  5  2 -1</clus>
</clustering>
</event>
<event>
 9    1  0.7586638E-005  0.1050212E+03  0.7546771E-02  0.1274824E+00
         21   -1    0    0  501  502  0.00000000000E+00  0.00000000000E+00  0.61397097347E+02  0.61397097347E+02  0.00000000000E+00 0.  1.
          3   -1    0    0  502    0 -0.00000000000E+00 -0.00000000000E+00 -0.50056584828E+03  0.50056584828E+03  0.00000000000E+00 0. -1.
         23    2    1    2    0    0  0.23056857901E+02 -0.26921649132E+02 -0.14283283747E+03  0.17269519573E+03  0.90366018380E+02 0.  0.
        -24    2    1    2    0    0 -0.62053681162E+02  0.83351564901E+02 -0.61427248721E+02  0.14454920057E+03  0.79517430684E+02 0.  0.
         13    1    4    4    0    0 -0.26905159579E+02  0.19276003793E+02  0.17118117841E+02  0.37262338797E+02  0.00000000000E+00 0. -1.
        -14    1    4    4    0    0 -0.35148521583E+02  0.64075561108E+02 -0.78545366562E+02  0.10728686177E+03  0.00000000000E+00 0.  1.
        -13    1    3    3    0    0  0.17860441542E+01  0.28788972087E+02 -0.84451812812E+02  0.89241826263E+02  0.00000000000E+00 0.  1.
         13    1    3    3    0    0  0.21270813747E+02 -0.55710621220E+02 -0.58381024661E+02  0.83453369462E+02  0.00000000000E+00 0. -1.
          4    1    1    2  501    0  0.38996823261E+02 -0.56429915769E+02 -0.23490866474E+03  0.24471854933E+03  0.00000000000E+00 0. -1.
<scales pt_clust_5="13000.00000" pt_clust_6="13000.00000" pt_clust_7="13000.00000" pt_clust_8="13000.00000" pt_clust_9="68.59368"></scales>
<clustering>
<clus scale="   68.594">  1  9  2 -1</clus>
<clus scale="   79.517">  5  6 -1 -1</clus>
<clus scale="   90.366">  7  8 -1 -1</clus>
<clus scale="   95.846">  1  5  2 -1</clus>
<clus scale="   68.594">  1  5  2 -1</clus>
</clustering>
</event>
<event>
 9    1  0.7586638E-005  0.1312544E+03  0.7546771E-02  0.1228077E+00
          1   -1    0    0  502    0 -0.00000000000E+00  0.00000000000E+00  0.16375424604E+04  0.16375424604E+04  0.00000000000E+00 0. -1.
         21   -1    0    0  501  502  0.00000000000E+00 -0.00000000000E+00 -0.14673685313E+03  0.14673685313E+03  0.00000000000E+00 0. -1.
        -24    2    1    2    0    0  0.84151150779E+01 -0.99333101372E+02  0.14569573326E+04  0.14626080873E+04  0.80993016434E+02 0.  0.
         23    2    1    2    0    0 -0.52236415095E+02  0.53849532267E+02  0.14925195315E+03  0.19011488688E+03  0.90769540633E+02 0.  0.
         11    1    3    3    0    0 -0.15519197496E+02 -0.46224204710E+02  0.28028202781E+03  0.28449171816E+03  0.00000000000E+00 0. -1.
        -12    1    3    3    0    0  0.23934312574E+02 -0.53108896662E+02  0.11766753048E+04  0.11781163691E+04  0.00000000000E+00 0.  1.
        -11    1    4    4    0    0 -0.18642670905E+02 -0.24481474377E+02  0.55138964755E+02  0.63144257066E+02  0.00000000000E+00 0. -1.
         11    1    4    4    0    0 -0.33593744190E+02  0.78331006644E+02  0.94112988395E+02  0.12697062981E+03  0.00000000000E+00 0.  1.
          2    1    1    2  501    0  0.43821300018E+02  0.45483569105E+02 -0.11540367855E+03  0.13155633932E+03  0.00000000000E+00 0. -1.
<scales pt_clust_5="13000.00000" pt_clust_6="13000.00000" pt_clust_7="13000.00000" pt_clust_8="13000.00000" pt_clust_9="63.15902"></scales>
<clustering>
<clus scale="   63.159">  2  9  1 -1</clus>
<clus scale="   80.993">  5  6 -1 -1</clus>
<clus scale="   90.770">  7  8 -1 -1</clus>
<clus scale="  124.693">  1  5  2 -1</clus>
<clus scale="   63.159">  2  5  1 -1</clus>
</clustering>
</event>
<event>
 9    1  0.7586638E-005  0.1077572E+03  0.7546771E-02  0.1268648E+00
         21   -1    0    0  501  502  0.00000000000E+00  0.00000000000E+00  0.20642511116E+03  0.20642511116E+03  0.00000000000E+00 0. -1.
          1   -1    0    0  502    0 -0.00000000000E+00 -0.00000000000E+00 -0.23821972325E+03  0.23821972325E+03  0.00000000000E+00 0. -1.
         23    2    1    2    0    0  0.55428639883E+02  0.13971599586E+01 -0.18951694958E+03  0.21714072535E+03  0.90327926199E+02 0.  0.
        -24    2    1    2    0    0 -0.83526983162E+02 -0.59026466435E+01  0.71267085748E+02  0.13648583145E+03  0.80856579948E+02 0.  0.
         13    1    4    4    0    0 -0.74526594506E+02  0.42659214044E+01  0.11906980910E+02  0.75592245425E+02  0.00000000000E+00 0. -1.
        -14    1    4    4    0    0 -0.90003886564E+01 -0.10168568048E+02  0.59360104837E+02  0.60893586020E+02  0.00000000000E+00 0.  1.
        -13    1    3    3    0    0  0.75221333401E+00  0.37506088900E+02 -0.94947446256E+02  0.10208961789E+03  0.00000000000E+00 0.  1.
         13    1    3    3    0    0  0.54676426549E+02 -0.36108928942E+02 -0.94569503327E+02  0.11505110747E+03  0.00000000000E+00 0. -1.
          2    1    1    2  501    0  0.28098343279E+02  0.45054866848E+01  0.86455251746E+02  0.91018277613E+02  0.00000000000E+00 0. -1.
<scales pt_clust_5="13000.00000" pt_clust_6="13000.00000" pt_clust_7="13000.00000" pt_clust_8="13000.00000" pt_clust_9="28.45727"></scales>
<clustering>
<clus scale="   28.457">  1  9  2 -1</clus>
<clus scale="   80.857">  5  6 -1 -1</clus>
<clus scale="   90.328">  7  8 -1 -1</clus>
<clus scale="   99.951">  1  5  2 -1</clus>
<clus scale="   28.457">  1  5  2 -1</clus>
</clustering>
</event>
<event>
 9    1  0.7586638E-005  0.1460097E+03  0.7546771E-02  0.1208130E+00
         21   -1    0    0  501  502  0.00000000000E+00  0.00000000000E+00  0.23289880296E+02  0.23289880296E+02  0.00000000000E+00 0. -1.
          3   -1    0    0  502    0 -0.00000000000E+00 -0.00000000000E+00 -0.15514080543E+04  0.15514080543E+04  0.00000000000E+00 0. -1.
        -24    2    1    2    0    0 -0.11051423038E+03 -0.48307067992E+02 -0.10411281801E+04  0.10511877256E+04  0.80627409100E+02 0.  0.
         23    2    1    2    0    0  0.93623086741E+02 -0.33553911649E+01 -0.28506184007E+03  0.31439469134E+03  0.93846834017E+02 0.  0.
         13    1    3    3    0    0 -0.78378057167E+02  0.55775448379E-01 -0.41225563278E+03  0.41964011929E+03  0.00000000000E+00 0. -1.
        -14    1    3    3    0    0 -0.32136173212E+02 -0.48362843440E+02 -0.62887254733E+03  0.63154760631E+03  0.00000000000E+00 0.  1.
        -13    1    4    4    0    0  0.33112897954E+02  0.42997536576E+02 -0.14685336111E+03  0.15656040953E+03  0.00000000000E+00 0.  1.
         13    1    4    4    0    0  0.60510188787E+02 -0.46352927740E+02 -0.13820847897E+03  0.15783428181E+03  0.00000000000E+00 0. -1.
          4    1    1    2  501    0  0.16891143638E+02  0.51662459157E+02 -0.20192815382E+03  0.20911551766E+03  0.00000000000E+00 0. -1.
<scales pt_clust_5="13000.00000" pt_clust_6="13000.00000" pt_clust_7="13000.00000" pt_clust_8="13000.00000" pt_clust_9="54.35366"></scales>
<clustering>
<clus scale="   54.354">  1  9  2 -1</clus>
<clus scale="   80.627">  5  6 -1 -1</clus>
<clus scale="   93.847">  7  8 -1 -1</clus>
<clus scale="  137.885">  2  5  1 -1</clus>
<clus scale="   54.354">  1  5  2 -1</clus>
</clustering>
</event>
<event>
 9    1  0.7586638E-005  0.1323278E+03  0.7546771E-02  0.1230900E+00
          1   -1    0    0  502    0 -0.00000000000E+00  0.00000000000E+00  0.61042898412E+02  0.61042898412E+02  0.00000000000E+00 0. -1.
         21   -1    0    0  501  502  0.00000000000E+00 -0.00000000000E+00 -0.42495023147E+03  0.42495023147E+03  0.00000000000E+00 0. -1.
         23    2    1    2    0    0  0.39673551319E+02 -0.88907464143E+02 -0.69655854256E+02  0.15859241161E+03  0.10402445450E+03 0.  0.
        -24    2    1    2    0    0 -0.12633222832E+02  0.55060251780E+02 -0.17859634228E+03  0.20389799056E+03  0.80538856661E+02 0.  0.
         13    1    4    4    0    0 -0.41788703447E+02  0.54977589192E+02 -0.12009253723E+03  0.13853176006E+03  0.00000000000E+00 0. -1.
        -14    1    4    4    0    0  0.29155480616E+02  0.82662588637E-01 -0.58503805058E+02  0.65366230496E+02  0.00000000000E+00 0.  1.
        -11    1    3    3    0    0 -0.24832351178E+02 -0.62808021543E+02 -0.55873778074E+02  0.87654847621E+02  0.00000000000E+00 0.  1.
         11    1    3    3    0    0  0.64505902497E+02 -0.26099442600E+02 -0.13782076182E+02  0.70937563990E+02  0.00000000000E+00 0. -1.
          2    1    1    2  501    0 -0.27040328487E+02  0.33847212362E+02 -0.11565513652E+03  0.12350272772E+03  0.00000000000E+00 0. -1.
<scales pt_clust_5="13000.00000" pt_clust_6="13000.00000" pt_clust_7="13000.00000" pt_clust_8="13000.00000" pt_clust_9="43.32220"></scales>
<clustering>
<clus scale="   43.322">  2  9  1 -1</clus>
<clus scale="   80.539">  5  6 -1 -1</clus>
<clus scale="  104.024">  7  8 -1 -1</clus>
<clus scale="  114.787">  2  5  1 -1</clus>
<clus scale="   43.322">  2  5  1 -1</clus>
</clustering>
</event>
<event>
 9    1  0.7586638E-005  0.3254412E+03  0.7546771E-02  0.1116621E+00
          1   -1    0    0  502    0 -0.00000000000E+00  0.00000000000E+00  0.52437500052E+03  0.52437500052E+03  0.00000000000E+00 0. -1.
         21   -1    0    0  501  502  0.00000000000E+00 -0.00000000000E+00 -0.32979423453E+03  0.32979423453E+03  0.00000000000E+00 0. -1.
        -24    2    1    2    0    0 -0.66536888759E+02 -0.78541596003E+01  0.18344151483E+03  0.21098488506E+03  0.79843515515E+02 0.  0.
         23    2    1    2    0    0  0.31184960397E+03 -0.14329159312E+03  0.10113809737E+01  0.35486865398E+03  0.90266729917E+02 0.  0.
         11    1    3    3    0    0 -0.42187614039E+02 -0.35510394607E+02  0.15475873537E+03  0.16428952820E+03  0.00000000000E+00 0. -1.
        -12    1    3    3    0    0 -0.24349274720E+02  0.27656235007E+02  0.28682779463E+02  0.46695356855E+02  0.00000000000E+00 0.  1.
        -11    1    4    4    0    0  0.30778032802E+02  0.12552125426E+02  0.39254580299E+01  0.33470171446E+02  0.00000000000E+00 0.  1.
         11    1    4    4    0    0  0.28107157117E+03 -0.15584371854E+03 -0.29140770562E+01  0.32139848253E+03  0.00000000000E+00 0. -1.
          2    1    1    2  501    0 -0.24531271521E+03  0.15114575272E+03  0.10127870184E+02  0.28831569601E+03  0.00000000000E+00 0. -1.
<scales pt_clust_5="13000.00000" pt_clust_6="13000.00000" pt_clust_7="13000.00000" pt_clust_8="13000.00000" pt_clust_9="312.67213"></scales>
<clustering>
<clus scale="   79.844">  5  6 -1 -1</clus>
<clus scale="   90.267">  7  8 -1 -1</clus>
<clus scale="  104.230">  1  5  2 -1</clus>
<clus scale="  312.672">  2  9  1 -1</clus>
<clus scale="  312.672">  2  5  1 -1</clus>
</clustering>
</event>
<event>
 9    1  0.7586638E-005  0.9953980E+02  0.7546771E-02  0.1284784E+00
          1   -1    0    0  502    0 -0.00000000000E+00  0.00000000000E+00  0.10478689897E+04  0.10478689897E+04  0.00000000000E+00 0. -1.
         21   -1    0    0  501  502  0.00000000000E+00 -0.00000000000E+00 -0.23708818770E+02  0.23708818770E+02  0.00000000000E+00 0.  1.
         23    2    1    2    0    0 -0.17695988674E+01  0.36240249839E+02  0.35377377848E+03  0.36742352168E+03  0.92345388396E+02 0.  0.
        -24    2    1    2    0    0  0.78621733684E+02  0.55651722880E-01  0.25519216965E+03  0.28035022151E+03  0.85392172628E+02 0.  0.
         11    1    4    4    0    0  0.37771525923E+02  0.47131966119E+01  0.22777180291E+03  0.23093050166E+03  0.00000000000E+00 0. -1.
        -12    1    4    4    0    0  0.40850207760E+02 -0.46575448890E+01  0.27420366735E+02  0.49419719853E+02  0.00000000000E+00 0.  1.
        -11    1    3    3    0    0  0.21353436048E+02  0.61208334670E+02  0.21670582965E+03  0.22619426622E+03  0.00000000000E+00 0.  1.
         11    1    3    3    0    0 -0.23123034915E+02 -0.24968084832E+02  0.13706794883E+03  0.14122925547E+03  0.00000000000E+00 0. -1.
          2    1    1    2  501    0 -0.76852134816E+02 -0.36295901562E+02  0.41519422277E+03  0.42380406524E+03  0.00000000000E+00 0. -1.
<scales pt_clust_5="13000.00000" pt_clust_6="13000.00000" pt_clust_7="13000.00000" pt_clust_8="13000.00000" pt_clust_9="84.99206"></scales>
<clustering>
<clus scale="   84.992">  2  9  1 -1</clus>
<clus scale="   85.392">  5  6 -1 -1</clus>
<clus scale="   92.345">  7  8 -1 -1</clus>
<clus scale="   93.125">  2  5  1 -1</clus>
<clus scale="   84.992">  2  5  1 -1</clus>
</clustering>
</event>
<event>
 9    1  0.7586638E-005  0.1362366E+03  0.7546771E-02  0.1231919E+00
         21   -1    0    0  501  502  0.00000000000E+00  0.00000000000E+00  0.19138009274E+03  0.19138009274E+03  0.00000000000E+00 0. -1.
          1   -1    0    0  502    0 -0.00000000000E+00 -0.00000000000E+00 -0.33604057379E+03  0.33604057379E+03  0.00000000000E+00 0. -1.
        -24    2    1    2    0    0  0.60868957205E+02 -0.24687259109E+02 -0.23081753003E+03  0.25275689278E+03  0.79339926676E+02 0.  0.
         23    2    1    2    0    0  0.60377072179E+02 -0.46554487769E+02  0.55397617116E+02  0.13071194574E+03  0.90575965915E+02 0.  0.
         13    1    3    3    0    0  0.56383759355E+02 -0.48239763867E+02 -0.20241587175E+03  0.21558846971E+03  0.00000000000E+00 0. -1.
        -14    1    3    3    0    0  0.44851978493E+01  0.23552504759E+02 -0.28401658277E+02  0.37168423064E+02  0.00000000000E+00 0.  1.
        -13    1    4    4    0    0  0.44757446268E+01 -0.56659428929E+02  0.46030075040E+02  0.73137480027E+02  0.00000000000E+00 0.  1.
         13    1    4    4    0    0  0.55901327552E+02  0.10104941160E+02  0.93675420753E+01  0.57574465716E+02  0.00000000000E+00 0. -1.
          2    1    1    2  501    0 -0.12124602938E+03  0.71241746877E+02  0.30759431858E+02  0.14395182801E+03  0.00000000000E+00 0. -1.
<scales pt_clust_5="13000.00000" pt_clust_6="13000.00000" pt_clust_7="13000.00000" pt_clust_8="13000.00000" pt_clust_9="101.76647"></scales>
<clustering>
<clus scale="   79.340">  5  6 -1 -1</clus>
<clus scale="   90.576">  7  8 -1 -1</clus>
<clus scale="  103.002">  2  5  1 -1</clus>
<clus scale="  101.766">  1  9  2 -1</clus>
<clus scale="  101.766">  1  5  2 -1</clus>
</clustering>
</event>
<event>
 9    1  0.7586638E-005  0.1215091E+03  0.7546771E-02  0.1247322E+00
         21   -1    0    0  501  502  0.00000000000E+00  0.00000000000E+00  0.78247063143E+02  0.78247063143E+02  0.00000000000E+00 0. -1.
          1   -1    0    0  502    0 -0.00000000000E+00 -0.00000000000E+00 -0.62406927632E+03  0.62406927632E+03  0.00000000000E+00 0. -1.
         23    2    1    2    0    0  0.88316851411E+02 -0.25709855810E+02 -0.45908774855E+03  0.47714151817E+03  0.91878205042E+02 0.  0.
        -24    2    1    2    0    0 -0.56846733589E+02  0.19322048549E+02 -0.13714260150E+03  0.16540733297E+03  0.70332069320E+02 0.  0.
         13    1    4    4    0    0 -0.35875473828E+02 -0.22623354078E+02 -0.43932622667E+02  0.61065056346E+02  0.00000000000E+00 0. -1.
        -14    1    4    4    0    0 -0.20971259761E+02  0.41945402627E+02 -0.93209978832E+02  0.10434227663E+03  0.00000000000E+00 0.  1.
        -11    1    3    3    0    0  0.84651378732E+02  0.15502670030E+02 -0.26250596892E+03  0.27625273287E+03  0.00000000000E+00 0. -1.
         11    1    3    3    0    0  0.36654726788E+01 -0.41212525840E+02 -0.19658177963E+03  0.20088878529E+03  0.00000000000E+00 0.  1.
          2    1    1    2  501    0 -0.31470117822E+02  0.63878072609E+01  0.50408136873E+02  0.59767488322E+02  0.00000000000E+00 0. -1.
<scales pt_clust_5="13000.00000" pt_clust_6="13000.00000" pt_clust_7="13000.00000" pt_clust_8="13000.00000" pt_clust_9="32.11187"></scales>
<clustering>
<clus scale="   32.112">  1  9  2 -1</clus>
<clus scale="   70.332">  5  6 -1 -1</clus>
<clus scale="   91.878">  7  8 -1 -1</clus>
<clus scale="  106.158">  1  5  2 -1</clus>
<clus scale="   32.112">  1  5  2 -1</clus>
</clustering>
</event>
<event>
 9    1  0.7586638E-005  0.1085580E+03  0.7546771E-02  0.1268355E+00
         -2   -1    0    0    0  501 -0.00000000000E+00  0.00000000000E+00  0.30316914901E+03  0.30316914901E+03  0.00000000000E+00 0.  1.
         21   -1    0    0  501  502  0.00000000000E+00 -0.00000000000E+00 -0.55515351869E+02  0.55515351869E+02  0.00000000000E+00 0. -1.
         23    2    1    2    0    0 -0.13937938492E+02 -0.62691444193E+02  0.19663293480E+03  0.22638813146E+03  0.91992345956E+02 0.  0.
        -24    2    1    2    0    0  0.23215615688E+02  0.37419350685E+02  0.23925516922E+02  0.94100666151E+02  0.79645039976E+02 0.  0.
         11    1    4    4    0    0  0.26986133888E+02  0.60771444803E+02  0.23233876071E+02  0.70436020067E+02  0.00000000000E+00 0. -1.
        -12    1    4    4    0    0 -0.37705181995E+01 -0.23352094119E+02  0.69164085108E+00  0.23664646084E+02  0.00000000000E+00 0.  1.
        -13    1    3    3    0    0 -0.43928687406E+02 -0.13968512440E+01  0.76239371071E+02  0.88000695860E+02  0.00000000000E+00 0. -1.
         13    1    3    3    0    0  0.29990748913E+02 -0.61294592949E+02  0.12039356373E+03  0.13838743560E+03  0.00000000000E+00 0.  1.
         -1    1    1    2    0  502 -0.92776771957E+01  0.25272093509E+02  0.27095345417E+02  0.38195703263E+02  0.00000000000E+00 0.  1.
<scales pt_clust_5="13000.00000" pt_clust_6="13000.00000" pt_clust_7="13000.00000" pt_clust_8="13000.00000" pt_clust_9="26.92127"></scales>
<clustering>
<clus scale="   26.921">  2  9  1 -1</clus>
<clus scale="   79.645">  5  6 -1 -1</clus>
<clus scale="   91.992">  7  8 -1 -1</clus>
<clus scale="   98.314">  2  5  1 -1</clus>
<clus scale="   26.921">  2  5  1 -1</clus>
</clustering>
</event>
<event>
 9    1  0.7586638E-005  0.1319871E+03  0.7546771E-02  0.1228023E+00
         21   -1    0    0  501  502  0.00000000000E+00  0.00000000000E+00  0.45328493300E+03  0.45328493300E+03  0.00000000000E+00 0.  1.
          1   -1    0    0  502    0 -0.00000000000E+00 -0.00000000000E+00 -0.23126617456E+03  0.23126617456E+03  0.00000000000E+00 0. -1.
         23    2    1    2    0    0 -0.71149283111E+02 -0.56078146476E+02 -0.15787854304E+03  0.20348396446E+03  0.90956640446E+02 0.  0.
        -24    2    1    2    0    0  0.15729989648E+03  0.15250260961E+02  0.14607136858E+03  0.22855296266E+03  0.76966123250E+02 0.  0.
         11    1    4    4    0    0  0.34650899484E+01  0.21166104717E+02  0.13127363824E+02  0.25146342045E+02  0.00000000000E+00 0. -1.
        -12    1    4    4    0    0  0.15383480653E+03 -0.59158437564E+01  0.13294400475E+03  0.20340662061E+03  0.00000000000E+00 0.  1.
        -13    1    3    3    0    0  0.18072910021E+01 -0.55341870886E+02 -0.65514772257E+02  0.85779801572E+02  0.00000000000E+00 0.  1.
         13    1    3    3    0    0 -0.72956574113E+02 -0.73627558942E+00 -0.92363770787E+02  0.11770416289E+03  0.00000000000E+00 0. -1.
          2    1    1    2  501    0 -0.86150613372E+02  0.40827885515E+02  0.23382593291E+03  0.25251418043E+03  0.00000000000E+00 0. -1.
<scales pt_clust_5="13000.00000" pt_clust_6="13000.00000" pt_clust_7="13000.00000" pt_clust_8="13000.00000" pt_clust_9="95.33543"></scales>
<clustering>
<clus scale="   76.966">  5  6 -1 -1</clus>
<clus scale="   90.957">  7  8 -1 -1</clus>
<clus scale="   95.335">  1  9  2 -1</clus>
<clus scale="  122.765">  1  5  2 -1</clus>
<clus scale="   95.335">  1  5  2 -1</clus>
</clustering>
</event>
<event>
 9    1  0.7586638E-005  0.1052523E+03  0.7546771E-02  0.1274717E+00
         21   -1    0    0  501  502  0.00000000000E+00  0.00000000000E+00  0.46660038441E+02  0.46660038441E+02  0.00000000000E+00 0. -1.
          1   -1    0    0  502    0 -0.00000000000E+00 -0.00000000000E+00 -0.34752467959E+03  0.34752467959E+03  0.00000000000E+00 0. -1.
        -24    2    1    2    0    0  0.46218067050E+02  0.11106141012E+02 -0.17004555537E+03  0.19346359422E+03  0.79077274221E+02 0.  0.
         23    2    1    2    0    0 -0.63667142112E+02 -0.30350108508E+02 -0.69897565577E+02  0.13449248854E+03  0.90707914371E+02 0.  0.
         11    1    3    3    0    0 -0.16650043362E+00  0.37247287159E+02 -0.51979863607E+02  0.63947590601E+02  0.00000000000E+00 0. -1.
        -12    1    3    3    0    0  0.46384567484E+02 -0.26141146147E+02 -0.11806569176E+03  0.12951600362E+03  0.00000000000E+00 0.  1.
        -11    1    4    4    0    0 -0.35232185420E+02  0.31219194790E+02 -0.29522578580E+02  0.55565525812E+02  0.00000000000E+00 0.  1.
         11    1    4    4    0    0 -0.28434956692E+02 -0.61569303298E+02 -0.40374986996E+02  0.78926962729E+02  0.00000000000E+00 0. -1.
          2    1    1    2  501    0  0.17449075061E+02  0.19243967496E+02 -0.60921520199E+02  0.66228635263E+02  0.00000000000E+00 0. -1.
<scales pt_clust_5="13000.00000" pt_clust_6="13000.00000" pt_clust_7="13000.00000" pt_clust_8="13000.00000" pt_clust_9="25.97694"></scales>
<clustering>
<clus scale="   25.977">  1  9  2 -1</clus>
<clus scale="   79.077">  5  6 -1 -1</clus>
<clus scale="   90.708">  7  8 -1 -1</clus>
<clus scale="   95.411">  2  5  1 -1</clus>
<clus scale="   25.977">  1  5  2 -1</clus>
</clustering>
</event>
<event>
 9    1  0.7586638E-005  0.9215169E+02  0.7546771E-02  0.1298452E+00
         21   -1    0    0  501  502  0.00000000000E+00  0.00000000000E+00  0.13880220899E+03  0.13880220899E+03  0.00000000000E+00 0.  1.
          1   -1    0    0  502    0 -0.00000000000E+00 -0.00000000000E+00 -0.15264316303E+03  0.15264316303E+03  0.00000000000E+00 0. -1.
         23    2    1    2    0    0 -0.36086110306E+01 -0.89647845368E+01 -0.10587837469E+03  0.13950049277E+03  0.90314826129E+02 0.  0.
        -24    2    1    2    0    0 -0.19336543107E+02  0.18516291180E+02  0.66317792324E+02  0.11617882469E+03  0.91557166781E+02 0.  0.
         11    1    4    4    0    0 -0.14142231034E+02  0.26308174694E+02 -0.15620996831E+02  0.33706650625E+02  0.00000000000E+00 0. -1.
        -12    1    4    4    0    0 -0.51943120731E+01 -0.77918835142E+01  0.81938789155E+02  0.82472174064E+02  0.00000000000E+00 0.  1.
        -13    1    3    3    0    0 -0.13855608302E+02 -0.41976453069E+02 -0.92345778597E+02  0.10238038542E+03  0.00000000000E+00 0.  1.
         13    1    3    3    0    0  0.10246997272E+02  0.33011668532E+02 -0.13532596097E+02  0.37120107347E+02  0.00000000000E+00 0. -1.
          2    1    1    2  501    0  0.22945154138E+02 -0.95515066430E+01  0.25719628332E+02  0.35766054564E+02  0.00000000000E+00 0. -1.
<scales pt_clust_5="13000.00000" pt_clust_6="13000.00000" pt_clust_7="13000.00000" pt_clust_8="13000.00000" pt_clust_9="24.85380"></scales>
<clustering>
<clus scale="   24.854">  1  9  2 -1</clus>
<clus scale="   90.315">  7  8 -1 -1</clus>
<clus scale="   90.917">  2  7  1 -1</clus>
<clus scale="   91.557">  5  6 -1 -1</clus>
<clus scale="   24.854">  1  5  2 -1</clus>
</clustering>
</event>
<event>
 9    1  0.7586638E-005  0.1162439E+03  0.7546771E-02  0.1253903E+00
          1   -1    0    0  502    0 -0.00000000000E+00  0.00000000000E+00  0.16858221213E+03  0.16858221213E+03  0.00000000000E+00 0. -1.
         21   -1    0    0  501  502  0.00000000000E+00 -0.00000000000E+00 -0.39841007024E+03  0.39841007024E+03  0.00000000000E+00 0. -1.
         23    2    1    2    0    0 -0.19939900146E+02  0.68375724566E+02  0.13686046133E+03  0.18042199010E+03  0.93533252415E+02 0.  0.
        -24    2    1    2    0    0  0.18253004908E+02 -0.39403257731E+02 -0.24975178807E+03  0.26608626089E+03  0.80871216671E+02 0.  0.
         11    1    4    4    0    0 -0.24290797889E+02  0.95624493252E+01 -0.56517999557E+02  0.62255662980E+02  0.00000000000E+00 0. -1.
        -12    1    4    4    0    0  0.42543802797E+02 -0.48965707056E+02 -0.19323378851E+03  0.20383059791E+03  0.00000000000E+00 0.  1.
        -13    1    3    3    0    0 -0.44439772302E+02  0.15670880227E+02  0.22670663972E+02  0.52291766602E+02  0.00000000000E+00 0.  1.
         13    1    3    3    0    0  0.24499872156E+02  0.52704844339E+02  0.11418979736E+03  0.12813022349E+03  0.00000000000E+00 0. -1.
          2    1    1    2  501    0  0.16868952385E+01 -0.28972466836E+02 -0.11693653137E+03  0.12048403139E+03  0.00000000000E+00 0. -1.
<scales pt_clust_5="13000.00000" pt_clust_6="13000.00000" pt_clust_7="13000.00000" pt_clust_8="13000.00000" pt_clust_9="29.02153"></scales>
<clustering>
<clus scale="   29.022">  2  9  1 -1</clus>
<clus scale="   80.871">  5  6 -1 -1</clus>
<clus scale="   93.533">  7  8 -1 -1</clus>
<clus scale="  106.322">  2  5  1 -1</clus>
<clus scale="   29.022">  2  5  1 -1</clus>
</clustering>
</event>
<event>
 9    1  0.7586638E-005  0.1242449E+03  0.7546771E-02  0.1239133E+00
         21   -1    0    0  501  502  0.00000000000E+00  0.00000000000E+00  0.38730990352E+03  0.38730990352E+03  0.00000000000E+00 0. -1.
         -2   -1    0    0    0  501 -0.00000000000E+00 -0.00000000000E+00 -0.18524712025E+03  0.18524712025E+03  0.00000000000E+00 0.  1.
        -24    2    1    2    0    0  0.32630941178E+02 -0.79274503464E+02 -0.14741706873E+03  0.18833495622E+03  0.79931460394E+02 0.  0.
         23    2    1    2    0    0 -0.91312743581E+01  0.87699184253E+02  0.23084052510E+03  0.26298469925E+03  0.89994871638E+02 0.  0.
         13    1    3    3    0    0  0.19397455740E+02 -0.11141958066E+02  0.31028509752E+01  0.22583892554E+02  0.00000000000E+00 0. -1.
        -14    1    3    3    0    0  0.13233485438E+02 -0.68132545398E+02 -0.15051991970E+03  0.16575106367E+03  0.00000000000E+00 0.  1.
        -13    1    4    4    0    0 -0.27623023440E+02  0.10887070697E+02  0.15260389867E+02  0.33383217808E+02  0.00000000000E+00 0.  1.
         13    1    4    4    0    0  0.18491749082E+02  0.76812113556E+02  0.21558013523E+03  0.22960148144E+03  0.00000000000E+00 0. -1.
         -1    1    1    2    0  502 -0.23499666820E+02 -0.84246807889E+01  0.11863932690E+03  0.12123736831E+03  0.00000000000E+00 0.  1.
<scales pt_clust_5="13000.00000" pt_clust_6="13000.00000" pt_clust_7="13000.00000" pt_clust_8="13000.00000" pt_clust_9="24.96417"></scales>
<clustering>
<clus scale="   24.964">  1  9  2 -1</clus>
<clus scale="   79.931">  5  6 -1 -1</clus>
<clus scale="   89.995">  7  8 -1 -1</clus>
<clus scale="  117.161">  2  5  1 -1</clus>
<clus scale="   24.964">  1  5  2 -1</clus>
</clustering>
</event>
<event>
 9    1  0.7586638E-005  0.1010358E+03  0.7546771E-02  0.1284517E+00
         -4   -1    0    0    0  501 -0.00000000000E+00  0.00000000000E+00  0.73044070483E+03  0.73044070483E+03  0.00000000000E+00 0.  1.
         21   -1    0    0  501  502  0.00000000000E+00 -0.00000000000E+00 -0.20486547260E+02  0.20486547260E+02  0.00000000000E+00 0. -1.
        -24    2    1    2    0    0 -0.14907614454E+02  0.31763398102E+02  0.34063775510E+03  0.35157969587E+03  0.79643279197E+02 0.  0.
         23    2    1    2    0    0  0.50860325221E+02 -0.24925898101E+02  0.32052100759E+03  0.33835297139E+03  0.92417227071E+02 0.  0.
         13    1    3    3    0    0  0.28503027110E+02  0.27074413232E+02  0.10923600004E+03  0.11609457400E+03  0.00000000000E+00 0. -1.
        -14    1    3    3    0    0 -0.43410641564E+02  0.46889848705E+01  0.23140175506E+03  0.23548512188E+03  0.00000000000E+00 0.  1.
        -11    1    4    4    0    0  0.60837511000E+02  0.86906516271E+01  0.12033903671E+03  0.13512295855E+03  0.00000000000E+00 0. -1.
         11    1    4    4    0    0 -0.99771857789E+01 -0.33616549728E+02  0.20018197088E+03  0.20323001284E+03  0.00000000000E+00 0.  1.
         -3    1    1    2    0  502 -0.35952710767E+02 -0.68375000012E+01  0.48795394872E+02  0.60994584830E+02  0.00000000000E+00 0.  1.
<scales pt_clust_5="13000.00000" pt_clust_6="13000.00000" pt_clust_7="13000.00000" pt_clust_8="13000.00000" pt_clust_9="36.59711"></scales>
<clustering>
<clus scale="   36.597">  2  9  1 -1</clus>
<clus scale="   79.643">  5  6 -1 -1</clus>
<clus scale="   89.500">  1  5  2 -1</clus>
<clus scale="   92.417">  7  8 -1 -1</clus>
<clus scale="   36.597">  2  5  1 -1</clus>
</clustering>
</event>
<event>
 9    1  0.7586638E-005  0.1414118E+03  0.7546771E-02  0.1225547E+00
         21   -1    0    0  501  502  0.00000000000E+00  0.00000000000E+00  0.58527853675E+03  0.58527853675E+03  0.00000000000E+00 0.  1.
         -2   -1    0    0    0  501 -0.00000000000E+00 -0.00000000000E+00 -0.16899989246E+03  0.16899989246E+03  0.00000000000E+00 0.  1.
         23    2    1    2    0    0 -0.35953688801E+02 -0.31535524575E+02  0.18606490976E+03  0.21368797935E+03  0.93569465226E+02 0.  0.
        -24    2    1    2    0    0 -0.73875521592E+02  0.40646698300E+01 -0.12381911036E+03  0.16889654546E+03  0.87867836823E+02 0.  0.
         13    1    4    4    0    0 -0.18643442136E+02  0.38647163699E+02 -0.22552906443E+02  0.48474888197E+02  0.00000000000E+00 0. -1.
        -14    1    4    4    0    0 -0.55232079456E+02 -0.34582493869E+02 -0.10126620392E+03  0.12042165727E+03  0.00000000000E+00 0.  1.
        -11    1    3    3    0    0 -0.62490980343E+02 -0.36236119256E+02  0.16271586630E+03  0.17802986297E+03  0.00000000000E+00 0.  1.
         11    1    3    3    0    0  0.26537291543E+02  0.47005946812E+01  0.23349043461E+02  0.35658116373E+02  0.00000000000E+00 0. -1.
         -1    1    1    2    0  502  0.10982921039E+03  0.27470854745E+02  0.35403284488E+03  0.37169390440E+03  0.00000000000E+00 0.  1.
<scales pt_clust_5="13000.00000" pt_clust_6="13000.00000" pt_clust_7="13000.00000" pt_clust_8="13000.00000" pt_clust_9="110.79952"></scales>
<clustering>
<clus scale="   87.868">  5  6 -1 -1</clus>
<clus scale="   93.569">  7  8 -1 -1</clus>
<clus scale="  105.083">  2  7  1 -1</clus>
<clus scale="  110.800">  1  9  2 -1</clus>
<clus scale="  110.800">  1  5  2 -1</clus>
</clustering>
</event>
<event>
 9    1  0.7586638E-005  0.9338216E+02  0.7546771E-02  0.1301705E+00
         -4   -1    0    0    0  501 -0.00000000000E+00  0.00000000000E+00  0.18120324538E+03  0.18120324538E+03  0.00000000000E+00 0.  1.
         21   -1    0    0  501  502  0.00000000000E+00 -0.00000000000E+00 -0.83996516180E+02  0.83996516180E+02  0.00000000000E+00 0.  1.
         23    2    1    2    0    0  0.64222210492E+01  0.72364631873E+01  0.10182882742E+03  0.13780017962E+03  0.92337251888E+02 0.  0.
        -24    2    1    2    0    0  0.12961405493E+02 -0.26339806905E+02  0.22336157272E+02  0.89092790662E+02  0.81097706294E+02 0.  0.
         11    1    4    4    0    0 -0.28245930752E+02  0.10343847161E+02  0.14950558101E+01  0.30117486117E+02  0.00000000000E+00 0. -1.
        -12    1    4    4    0    0  0.41207336245E+02 -0.36683654066E+02  0.20841101461E+02  0.58975304545E+02  0.00000000000E+00 0.  1.
        -11    1    3    3    0    0 -0.39164898994E+02 -0.13407444804E+02  0.34363095726E+02  0.53800290309E+02  0.00000000000E+00 0.  1.
         11    1    3    3    0    0  0.45587120043E+02  0.20643907991E+02  0.67465731696E+02  0.83999889311E+02  0.00000000000E+00 0. -1.
         -3    1    1    2    0  502 -0.19383626542E+02  0.19103343718E+02 -0.26958255491E+02  0.38306791281E+02  0.00000000000E+00 0.  1.
<scales pt_clust_5="13000.00000" pt_clust_6="13000.00000" pt_clust_7="13000.00000" pt_clust_8="13000.00000" pt_clust_9="27.21512"></scales>
<clustering>
<clus scale="   27.215">  2  9  1 -1</clus>
<clus scale="   81.098">  5  6 -1 -1</clus>
<clus scale="   82.285">  2  5  1 -1</clus>
<clus scale="   92.337">  7  8 -1 -1</clus>
<clus scale="   27.215">  2  5  1 -1</clus>
</clustering>
</event>
<event>
 9    1  0.7586638E-005  0.9464926E+02  0.7546771E-02  0.1301515E+00
         21   -1    0    0  501  502  0.00000000000E+00  0.00000000000E+00  0.78822519148E+02  0.78822519148E+02  0.00000000000E+00 0.  1.
          3   -1    0    0  502    0 -0.00000000000E+00 -0.00000000000E+00 -0.25893946128E+03  0.25893946128E+03  0.00000000000E+00 0. -1.
         23    2    1    2    0    0  0.81391152570E+01  0.39279845852E+01 -0.19610578586E+03  0.21782630518E+03  0.94388271081E+02 0.  0.
        -24    2    1    2    0    0  0.12761126608E+02 -0.13776460527E+02 -0.13675230754E+02  0.82335543563E+02  0.78990458795E+02 0.  0.
         11    1    4    4    0    0  0.24551630379E+01  0.30482461692E+02 -0.19874051960E+02  0.36471718326E+02  0.00000000000E+00 0. -1.
        -12    1    4    4    0    0  0.10305963571E+02 -0.44258922219E+02  0.61988212053E+01  0.45863825237E+02  0.00000000000E+00 0.  1.
        -11    1    3    3    0    0 -0.20193822229E+02 -0.24358539828E+02 -0.20469211248E+02  0.37684446763E+02  0.00000000000E+00 0.  1.
         11    1    3    3    0    0  0.28332937486E+02  0.28286524413E+02 -0.17563657461E+03  0.18014185841E+03  0.00000000000E+00 0. -1.
          4    1    1    2  501    0 -0.20900241865E+02  0.98484759415E+01  0.29664074482E+02  0.37600131692E+02  0.00000000000E+00 0. -1.
<scales pt_clust_5="13000.00000" pt_clust_6="13000.00000" pt_clust_7="13000.00000" pt_clust_8="13000.00000" pt_clust_9="23.10438"></scales>
<clustering>
<clus scale="   23.104">  1  9  2 -1</clus>
<clus scale="   78.990">  5  6 -1 -1</clus>
<clus scale="   79.302">  1  5  2 -1</clus>
<clus scale="   94.388">  7  8 -1 -1</clus>
<clus scale="   23.104">  1  5  2 -1</clus>
</clustering>
</event>
<event>
 9    1  0.7586638E-005  0.1066409E+03  0.7546771E-02  0.1271115E+00
         21   -1    0    0  501  502  0.00000000000E+00  0.00000000000E+00  0.23806304949E+03  0.23806304949E+03  0.00000000000E+00 0. -1.
          3   -1    0    0  502    0 -0.00000000000E+00 -0.00000000000E+00 -0.76716339744E+02  0.76716339744E+02  0.00000000000E+00 0. -1.
         23    2    1    2    0    0  0.54947568471E+02  0.26260525764E+02  0.56964835854E+02  0.12574962088E+03  0.94122920334E+02 0.  0.
        -24    2    1    2    0    0 -0.41242659253E+02  0.14266132922E+02  0.11047542010E+03  0.14581673900E+03  0.84576731058E+02 0.  0.
         11    1    4    4    0    0 -0.23590796432E+02 -0.35320080384E+02  0.51995085464E+02  0.67138086561E+02  0.00000000000E+00 0. -1.
        -12    1    4    4    0    0 -0.17651862821E+02  0.49586213305E+02  0.58480334635E+02  0.78678652442E+02  0.00000000000E+00 0.  1.
        -11    1    3    3    0    0  0.47044572210E+02  0.56007845830E+02  0.16627188103E+02  0.75010225657E+02  0.00000000000E+00 0. -1.
         11    1    3    3    0    0  0.79029962609E+01 -0.29747320066E+02  0.40337647751E+02  0.50739395218E+02  0.00000000000E+00 0.  1.
          4    1    1    2  501    0 -0.13704909218E+02 -0.40526658685E+02 -0.60935462066E+01  0.43213029357E+02  0.00000000000E+00 0. -1.
<scales pt_clust_5="13000.00000" pt_clust_6="13000.00000" pt_clust_7="13000.00000" pt_clust_8="13000.00000" pt_clust_9="42.78126"></scales>
<clustering>
<clus scale="   42.781">  1  9  2 -1</clus>
<clus scale="   84.577">  5  6 -1 -1</clus>
<clus scale="   94.123">  7  8 -1 -1</clus>
<clus scale="   98.318">  1  5  2 -1</clus>
<clus scale="   42.781">  1  5  2 -1</clus>
</clustering>
</event>
<event>
 9    1  0.7586638E-005  0.1901248E+03  0.7546771E-02  0.1187019E+00
         21   -1    0    0  501  502  0.00000000000E+00  0.00000000000E+00  0.18988464743E+03  0.18988464743E+03  0.00000000000E+00 0.  1.
          1   -1    0    0  502    0 -0.00000000000E+00 -0.00000000000E+00 -0.42039425867E+03  0.42039425867E+03  0.00000000000E+00 0. -1.
        -24    2    1    2    0    0 -0.50467799637E+01  0.57235550423E+02  0.85617016875E+02  0.13086701401E+03  0.80588606865E+02 0.  0.
         23    2    1    2    0    0 -0.15083147934E+03  0.28655525776E+02 -0.18649542036E+03  0.25923115107E+03  0.94068982928E+02 0.  0.
         13    1    3    3    0    0 -0.13434724584E+02  0.60684393689E+02  0.20983443766E+02  0.65600246755E+02  0.00000000000E+00 0. -1.
        -14    1    3    3    0    0  0.83879446203E+01 -0.34488432653E+01  0.64633573109E+02  0.65266767253E+02  0.00000000000E+00 0.  1.
        -11    1    4    4    0    0 -0.13387703630E+03 -0.10329260370E+02 -0.16106219388E+03  0.20969211899E+03  0.00000000000E+00 0.  1.
         11    1    4    4    0    0 -0.16954443038E+02  0.38984786146E+02 -0.25433226478E+02  0.49539032072E+02  0.00000000000E+00 0. -1.
          2    1    1    2  501    0  0.15587825931E+03 -0.85891076199E+02 -0.12963120776E+03  0.22018074103E+03  0.00000000000E+00 0. -1.
<scales pt_clust_5="13000.00000" pt_clust_6="13000.00000" pt_clust_7="13000.00000" pt_clust_8="13000.00000" pt_clust_9="165.22251"></scales>
<clustering>
<clus scale="   80.589">  5  6 -1 -1</clus>
<clus scale="   94.069">  7  8 -1 -1</clus>
<clus scale="   98.974">  2  5  1 -1</clus>
<clus scale="  165.223">  1  9  2 -1</clus>
<clus scale="  165.223">  1  5  2 -1</clus>
</clustering>
</event>
<event>
 9    1  0.7586638E-005  0.1195721E+03  0.7546771E-02  0.1251380E+00
          3   -1    0    0  502    0 -0.00000000000E+00  0.00000000000E+00  0.14080279927E+03  0.14080279927E+03  0.00000000000E+00 0. -1.
         21   -1    0    0  501  502  0.00000000000E+00 -0.00000000000E+00 -0.30521864159E+03  0.30521864159E+03  0.00000000000E+00 0. -1.
        -24    2    1    2    0    0 -0.66354267058E+02 -0.99010837147E+01  0.10089720501E+03  0.14527181037E+03  0.80141953391E+02 0.  0.
         23    2    1    2    0    0  0.39507509788E+02 -0.79608078764E+01 -0.19044376344E+03  0.21923150233E+03  0.10084347668E+03 0.  0.
         11    1    3    3    0    0 -0.80807830695E+02 -0.84695163281E+01  0.57580440423E+02  0.99584864953E+02  0.00000000000E+00 0. -1.
        -12    1    3    3    0    0  0.14453563637E+02 -0.14315673866E+01  0.43316764591E+02  0.45686945418E+02  0.00000000000E+00 0.  1.
        -13    1    4    4    0    0 -0.31884368844E+02 -0.63802330519E+00 -0.92254045614E+02  0.97610598720E+02  0.00000000000E+00 0. -1.
         13    1    4    4    0    0  0.71391878632E+02 -0.73227845712E+01 -0.98189717829E+02  0.12162090361E+03  0.00000000000E+00 0.  1.
          4    1    1    2  501    0  0.26846757270E+02  0.17861891591E+02 -0.74869283897E+02  0.81518128158E+02  0.00000000000E+00 0. -1.
<scales pt_clust_5="13000.00000" pt_clust_6="13000.00000" pt_clust_7="13000.00000" pt_clust_8="13000.00000" pt_clust_9="32.24586"></scales>
<clustering>
<clus scale="   32.246">  2  9  1 -1</clus>
<clus scale="   80.142">  5  6 -1 -1</clus>
<clus scale="  100.843">  7  8 -1 -1</clus>
<clus scale="  102.717">  1  5  2 -1</clus>
<clus scale="   32.246">  2  5  1 -1</clus>
</clustering>
</event>
<event>
 9    1  0.7586638E-005  0.1653457E+03  0.7546771E-02  0.1184616E+00
          1   -1    0    0  502    0 -0.00000000000E+00  0.00000000000E+00  0.65934402462E+03  0.65934402462E+03  0.00000000000E+00 0. -1.
         21   -1    0    0  501  502  0.00000000000E+00 -0.00000000000E+00 -0.10221491338E+03  0.10221491338E+03  0.00000000000E+00 0.  1.
         23    2    1    2    0    0 -0.36733821467E+02 -0.14721227782E+03  0.25597169954E+03  0.31177567651E+03  0.93068432447E+02 0.  0.
        -24    2    1    2    0    0 -0.95496500611E+02  0.11509052979E+03  0.74842543877E+02  0.18570924881E+03  0.80753371720E+02 0.  0.
         13    1    4    4    0    0  0.83531460115E+01  0.22135967753E+02  0.32198889379E+02  0.39956784078E+02  0.00000000000E+00 0. -1.
        -14    1    4    4    0    0 -0.10384964662E+03  0.92954562034E+02  0.42643654498E+02  0.14575246473E+03  0.00000000000E+00 0.  1.
        -13    1    3    3    0    0  0.20648435024E+02 -0.10276413970E+01  0.24482839218E+02  0.32044084196E+02  0.00000000000E+00 0.  1.
         13    1    3    3    0    0 -0.57382256491E+02 -0.14618463642E+03  0.23148886032E+03  0.27973159231E+03  0.00000000000E+00 0. -1.
          2    1    1    2  501    0  0.13223032208E+03  0.32121748033E+02  0.22631486783E+03  0.26407401268E+03  0.00000000000E+00 0. -1.
<scales pt_clust_5="13000.00000" pt_clust_6="13000.00000" pt_clust_7="13000.00000" pt_clust_8="13000.00000" pt_clust_9="136.07602"></scales>
<clustering>
<clus scale="   80.753">  5  6 -1 -1</clus>
<clus scale="   93.068">  7  8 -1 -1</clus>
<clus scale="  136.076">  2  9  1 -1</clus>
<clus scale="  158.741">  2  5  1 -1</clus>
<clus scale="  136.076">  2  5  1 -1</clus>
</clustering>
</event>
<event>
 9    1  0.7586638E-005  0.9942572E+02  0.7546771E-02  0.1287058E+00
          1   -1    0    0  502    0 -0.00000000000E+00  0.00000000000E+00  0.86175087536E+03  0.86175087536E+03  0.00000000000E+00 0. -1.
         21   -1    0    0  501  502  0.00000000000E+00 -0.00000000000E+00 -0.49228677560E+02  0.49228677560E+02  0.00000000000E+00 0.  1.
        -24    2    1    2    0    0 -0.42183448983E+02 -0.22015590007E+02  0.51740490498E+03  0.52561614502E+03  0.79374848909E+02 0.  0.
         23    2    1    2    0    0 -0.45974900794E+02  0.47130825369E+02  0.47823611025E+02  0.12162711017E+03  0.90393860157E+02 0.  0.
         11    1    3    3    0    0 -0.53174704498E+02  0.13896173202E+02  0.31368647732E+03  0.31846484717E+03  0.00000000000E+00 0. -1.
        -12    1    3    3    0    0  0.10991255515E+02 -0.35911763209E+02  0.20371842765E+03  0.20715129785E+03  0.00000000000E+00 0.  1.
        -13    1    4    4    0    0 -0.17601643348E+01  0.55924221456E+02  0.51959524607E+02  0.76357114412E+02  0.00000000000E+00 0. -1.
         13    1    4    4    0    0 -0.44214736459E+02 -0.87933960868E+01 -0.41359135824E+01  0.45269995759E+02  0.00000000000E+00 0.  1.
          2    1    1    2  501    0  0.88158349777E+02 -0.25115235362E+02  0.24729368180E+03  0.26373629773E+03  0.00000000000E+00 0. -1.
<scales pt_clust_5="13000.00000" pt_clust_6="13000.00000" pt_clust_7="13000.00000" pt_clust_8="13000.00000" pt_clust_9="91.66612"></scales>
<clustering>
<clus scale="   79.375">  5  6 -1 -1</clus>
<clus scale="   90.394">  7  8 -1 -1</clus>
<clus scale="   91.666">  2  9  1 -1</clus>
<clus scale="   89.525">  1  5  2 -1</clus>
<clus scale="   91.666">  2  5  1 -1</clus>
</clustering>
</event>
<event>
 9    1  0.7586638E-005  0.2164679E+03  0.7546771E-02  0.1151690E+00
          1   -1    0    0  502    0 -0.00000000000E+00  0.00000000000E+00  0.17882367465E+04  0.17882367465E+04  0.00000000000E+00 0. -1.
         21   -1    0    0  501  502  0.00000000000E+00 -0.00000000000E+00 -0.47935807019E+02  0.47935807019E+02  0.00000000000E+00 0. -1.
        -24    2    1    2    0    0 -0.12696785857E+03 -0.10605643219E+02  0.52917282782E+03  0.55019182499E+03  0.80335831424E+02 0.  0.
         23    2    1    2    0    0  0.18318775242E+03  0.16598955987E+03  0.66395889481E+03  0.71440484565E+03  0.91774630818E+02 0.  0.
         13    1    3    3    0    0 -0.94632100774E+02 -0.37129585430E+02  0.28787329912E+03  0.30529473785E+03  0.00000000000E+00 0. -1.
        -14    1    3    3    0    0 -0.32335757797E+02  0.26523942211E+02  0.24129952870E+03  0.24489708715E+03  0.00000000000E+00 0.  1.
        -13    1    4    4    0    0 -0.42915214817E+01  0.25261702906E+02  0.10890469046E+03  0.11187851623E+03  0.00000000000E+00 0.  1.
         13    1    4    4    0    0  0.18747927391E+03  0.14072785696E+03  0.55505420436E+03  0.60252632942E+03  0.00000000000E+00 0. -1.
          2    1    1    2  501    0 -0.56219893853E+02 -0.15538391665E+03  0.54716921684E+03  0.57157588287E+03  0.00000000000E+00 0. -1.
<scales pt_clust_5="13000.00000" pt_clust_6="13000.00000" pt_clust_7="13000.00000" pt_clust_8="13000.00000" pt_clust_9="196.05041"></scales>
<clustering>
<clus scale="   80.336">  5  6 -1 -1</clus>
<clus scale="   91.775">  7  8 -1 -1</clus>
<clus scale="  150.623">  1  5  2 -1</clus>
<clus scale="  196.050">  2  9  1 -1</clus>
<clus scale="  196.050">  2  5  1 -1</clus>
</clustering>
</event>
<event>
 9    1  0.7586638E-005  0.9352504E+02  0.7546771E-02  0.1301770E+00
          1   -1    0    0  502    0 -0.00000000000E+00  0.00000000000E+00  0.10135644259E+03  0.10135644259E+03  0.00000000000E+00 0. -1.
         21   -1    0    0  501  502  0.00000000000E+00 -0.00000000000E+00 -0.41923120733E+03  0.41923120733E+03  0.00000000000E+00 0.  1.
         23    2    1    2    0    0 -0.56068524673E+01 -0.32003966492E+01 -0.10513958300E+03  0.13992881405E+03  0.92108966743E+02 0.  0.
        -24    2    1    2    0    0 -0.64751310987E+02 -0.17819868215E+02 -0.26869456907E+03  0.28833562248E+03  0.80189648763E+02 0.  0.
         13    1    4    4    0    0 -0.21369205620E+02  0.22161674262E+02 -0.32021227375E+02  0.44420060305E+02  0.00000000000E+00 0. -1.
        -14    1    4    4    0    0 -0.43382105367E+02 -0.39981542477E+02 -0.23667334169E+03  0.24391556218E+03  0.00000000000E+00 0.  1.
        -13    1    3    3    0    0 -0.16085468735E+02  0.31114239353E+02 -0.73828860566E+01  0.35795882466E+02  0.00000000000E+00 0.  1.
         13    1    3    3    0    0  0.10478616268E+02 -0.34314636002E+02 -0.97756696945E+02  0.10413293158E+03  0.00000000000E+00 0. -1.
          2    1    1    2  501    0  0.70358163454E+02  0.21020264864E+02  0.55959387325E+02  0.92323213384E+02  0.00000000000E+00 0. -1.
<scales pt_clust_5="13000.00000" pt_clust_6="13000.00000" pt_clust_7="13000.00000" pt_clust_8="13000.00000" pt_clust_9="73.43111"></scales>
<clustering>
<clus scale="   73.431">  2  9  1 -1</clus>
<clus scale="   80.190">  5  6 -1 -1</clus>
<clus scale="   81.812">  2  5  1 -1</clus>
<clus scale="   92.109">  7  8 -1 -1</clus>
<clus scale="   73.431">  2  5  1 -1</clus>
</clustering>
</event>
<event>
 9    1  0.7586638E-005  0.1033207E+03  0.7546771E-02  0.1279096E+00
         21   -1    0    0  501  502  0.00000000000E+00  0.00000000000E+00  0.17103172026E+03  0.17103172026E+03  0.00000000000E+00 0.  1.
         -2   -1    0    0    0  501 -0.00000000000E+00 -0.00000000000E+00 -0.71518892127E+03  0.71518892127E+03  0.00000000000E+00 0.  1.
        -24    2    1    2    0    0  0.26885657438E+02  0.40851288551E+02 -0.66748208947E+03  0.67400680721E+03  0.79756943534E+02 0.  0.
         23    2    1    2    0    0  0.80539193421E+01 -0.29625246644E+02  0.15170715693E+02  0.98002962999E+02  0.91825428322E+02 0.  0.
         13    1    3    3    0    0  0.52097185508E+02  0.31062947800E+02 -0.33660316270E+03  0.34202443276E+03  0.00000000000E+00 0. -1.
        -14    1    3    3    0    0 -0.25211528070E+02  0.97883407506E+01 -0.33087892678E+03  0.33198237445E+03  0.00000000000E+00 0.  1.
        -11    1    4    4    0    0 -0.22339636810E+02 -0.46960583341E+02 -0.12393784689E+02  0.53459907028E+02  0.00000000000E+00 0. -1.
         11    1    4    4    0    0  0.30393556152E+02  0.17335336697E+02  0.27564500381E+02  0.44543055971E+02  0.00000000000E+00 0.  1.
         -1    1    1    2    0  502 -0.34939576780E+02 -0.11226041907E+02  0.10815417277E+03  0.11421087133E+03  0.00000000000E+00 0.  1.
<scales pt_clust_5="13000.00000" pt_clust_6="13000.00000" pt_clust_7="13000.00000" pt_clust_8="13000.00000" pt_clust_9="36.69875"></scales>
<clustering>
<clus scale="   36.699">  1  9  2 -1</clus>
<clus scale="   79.757">  5  6 -1 -1</clus>
<clus scale="   91.825">  7  8 -1 -1</clus>
<clus scale="   92.760">  2  5  1 -1</clus>
<clus scale="   36.699">  1  5  2 -1</clus>
</clustering>
</event>
<event>
 9    1  0.1043166E-004  0.9566641E+02  0.7546771E-02  0.1295304E+00
          1   -1    0    0  502    0 -0.00000000000E+00  0.00000000000E+00  0.40533772479E+03  0.40533772479E+03  0.00000000000E+00 0. -1.
         21   -1    0    0  501  502  0.00000000000E+00 -0.00000000000E+00 -0.26661048670E+03  0.26661048670E+03  0.00000000000E+00 0.  1.
         23    2    1    2    0    0 -0.27024910424E+02  0.16178698498E+02  0.30634895088E+03  0.32099876417E+03  0.90545186658E+02 0.  0.
        -24    2    1    2    0    0 -0.13979404238E+02 -0.40527562647E+02 -0.24424855710E+03  0.26069483925E+03  0.80414765382E+02 0.  0.
         13    1    4    4    0    0  0.56239804146E+01 -0.45047527168E+02 -0.59433327983E+02  0.74787895644E+02  0.00000000000E+00 0. -1.
        -14    1    4    4    0    0 -0.19603384652E+02  0.45199645217E+01 -0.18481522912E+03  0.18590694361E+03  0.00000000000E+00 0.  1.
        -11    1    3    3    0    0 -0.37174395866E+02  0.34108457440E+02  0.29091142437E+03  0.29525375426E+03  0.00000000000E+00 0.  1.
         11    1    3    3    0    0  0.10149485442E+02 -0.17929758942E+02  0.15437526504E+02  0.25745009905E+02  0.00000000000E+00 0. -1.
          2    1    1    2  501    0  0.41004314662E+02  0.24348864148E+02  0.76626844316E+02  0.90254608060E+02  0.00000000000E+00 0. -1.
<scales pt_clust_5="13000.00000" pt_clust_6="13000.00000" pt_clust_7="13000.00000" pt_clust_8="13000.00000" pt_clust_9="47.68882"></scales>
<clustering>
<clus scale="   47.689">  2  9  1 -1</clus>
<clus scale="   80.415">  5  6 -1 -1</clus>
<clus scale="   86.140">  2  5  1 -1</clus>
<clus scale="   90.545">  7  8 -1 -1</clus>
<clus scale="   47.689">  2  5  1 -1</clus>
</clustering>
</event>
<event>
 9    1  0.7586638E-005  0.1030837E+03  0.7546771E-02  0.1278776E+00
          3   -1    0    0  502    0 -0.00000000000E+00  0.00000000000E+00  0.32997704609E+03  0.32997704609E+03  0.00000000000E+00 0. -1.
         21   -1    0    0  501  502  0.00000000000E+00 -0.00000000000E+00 -0.25418254620E+03  0.25418254620E+03  0.00000000000E+00 0. -1.
         23    2    1    2    0    0 -0.50641689683E+02 -0.16853210625E+02  0.28228907542E+03  0.30132021246E+03  0.90874291707E+02 0.  0.
        -24    2    1    2    0    0  0.28673085300E+02 -0.22450430093E+02 -0.19345099677E+02  0.90349582528E+02  0.80390587443E+02 0.  0.
         13    1    4    4    0    0  0.42014806550E+01 -0.50505143430E+02 -0.15094178008E+02  0.52879638447E+02  0.00000000000E+00 0. -1.
        -14    1    4    4    0    0  0.24471604645E+02  0.28054713338E+02 -0.42509216694E+01  0.37469944081E+02  0.00000000000E+00 0.  1.
        -11    1    3    3    0    0 -0.12106882118E+02  0.36380633339E+02  0.12797573345E+03  0.13359609062E+03  0.00000000000E+00 0.  1.
         11    1    3    3    0    0 -0.38534807565E+02 -0.53233843964E+02  0.15431334197E+03  0.16772412184E+03  0.00000000000E+00 0. -1.
          4    1    1    2  501    0  0.21968604383E+02  0.39303640717E+02 -0.18714947585E+03  0.19248979730E+03  0.00000000000E+00 0. -1.
<scales pt_clust_5="13000.00000" pt_clust_6="13000.00000" pt_clust_7="13000.00000" pt_clust_8="13000.00000" pt_clust_9="45.02661"></scales>
<clustering>
<clus scale="   45.027">  2  9  1 -1</clus>
<clus scale="   80.391">  5  6 -1 -1</clus>
<clus scale="   90.874">  7  8 -1 -1</clus>
<clus scale="   93.972">  2  5  1 -1</clus>
<clus scale="   45.027">  2  5  1 -1</clus>
</clustering>
</event>
<event>
 9    1  0.7586638E-005  0.3457827E+03  0.7546771E-02  0.1064359E+00
         -2   -1    0    0    0  501 -0.00000000000E+00  0.00000000000E+00  0.73721312879E+03  0.73721312879E+03  0.00000000000E+00 0.  1.
         21   -1    0    0  501  502  0.00000000000E+00 -0.00000000000E+00 -0.13086152786E+03  0.13086152786E+03  0.00000000000E+00 0.  1.
        -24    2    1    2    0    0 -0.53345450094E+02  0.15342023268E+02  0.61633144519E+02  0.11907727030E+03  0.85437913568E+02 0.  0.
         23    2    1    2    0    0 -0.20748055436E+03 -0.84927202501E+02  0.22118408506E+03  0.32763437040E+03  0.90338646328E+02 0.  0.
         13    1    3    3    0    0 -0.72110713184E+02  0.25251217230E+02  0.32486549724E+02  0.83023820922E+02  0.00000000000E+00 0. -1.
        -14    1    3    3    0    0  0.18765263090E+02 -0.99091939626E+01  0.29146594795E+02  0.36053449377E+02  0.00000000000E+00 0.  1.
        -13    1    4    4    0    0 -0.22897006857E+02 -0.48319551667E+02  0.46006279991E+02  0.70538144255E+02  0.00000000000E+00 0. -1.
         13    1    4    4    0    0 -0.18458354751E+03 -0.36607650834E+02  0.17517780507E+03  0.25709622615E+03  0.00000000000E+00 0.  1.
         -1    1    1    2    0  502  0.26082600446E+03  0.69585179234E+02  0.32353437134E+03  0.42136301595E+03  0.00000000000E+00 0.  1.
<scales pt_clust_5="13000.00000" pt_clust_6="13000.00000" pt_clust_7="13000.00000" pt_clust_8="13000.00000" pt_clust_9="269.94884"></scales>
<clustering>
<clus scale="   85.438">  5  6 -1 -1</clus>
<clus scale="   90.339">  7  8 -1 -1</clus>
<clus scale="  100.915">  5  7 -1 -1</clus>
<clus scale="  269.949">  2  9  1 -1</clus>
<clus scale="  269.949">  2  5  1 -1</clus>
</clustering>
</event>
<event>
 9    1  0.7586638E-005  0.1421999E+03  0.7546771E-02  0.1213690E+00
          3   -1    0    0  502    0 -0.00000000000E+00  0.00000000000E+00  0.76048997503E+02  0.76048997503E+02  0.00000000000E+00 0. -1.
         21   -1    0    0  501  502  0.00000000000E+00 -0.00000000000E+00 -0.65936406211E+03  0.65936406211E+03  0.00000000000E+00 0. -1.
         23    2    1    2    0    0  0.33192056938E+00  0.95013289967E+02 -0.66162216852E+02  0.15020156767E+03  0.95684045434E+02 0.  0.
        -24    2    1    2    0    0 -0.91977985103E+02 -0.12691045569E+03 -0.31505282903E+03  0.36102217932E+03  0.80700157217E+02 0.  0.
         11    1    4    4    0    0 -0.76819862201E+02 -0.13259647009E+03 -0.30658966545E+03  0.34275404894E+03  0.00000000000E+00 0. -1.
        -12    1    4    4    0    0 -0.15158122902E+02  0.56860144003E+01 -0.84631635869E+01  0.18268130380E+02  0.00000000000E+00 0.  1.
        -11    1    3    3    0    0  0.32577118788E+02  0.57471846995E+02  0.18515295653E+01  0.66088652788E+02  0.00000000000E+00 0. -1.
         11    1    3    3    0    0 -0.32245198219E+02  0.37541442972E+02 -0.68013746418E+02  0.84112914884E+02  0.00000000000E+00 0.  1.
          4    1    1    2  501    0  0.91646064534E+02  0.31897165719E+02 -0.20210001872E+03  0.22418931262E+03  0.00000000000E+00 0. -1.
<scales pt_clust_5="13000.00000" pt_clust_6="13000.00000" pt_clust_7="13000.00000" pt_clust_8="13000.00000" pt_clust_9="97.03829"></scales>
<clustering>
<clus scale="   80.700">  5  6 -1 -1</clus>
<clus scale="   95.684">  7  8 -1 -1</clus>
<clus scale="   97.038">  2  9  1 -1</clus>
<clus scale="  132.582">  2  5  1 -1</clus>
<clus scale="   97.038">  2  5  1 -1</clus>
</clustering>
</event>
<event>
 9    1  0.7586638E-005  0.1099907E+03  0.7546771E-02  0.1265327E+00
         21   -1    0    0  501  502  0.00000000000E+00  0.00000000000E+00  0.60354983218E+03  0.60354983218E+03  0.00000000000E+00 0.  1.
         -2   -1    0    0    0  501 -0.00000000000E+00 -0.00000000000E+00 -0.36343308667E+02  0.36343308667E+02  0.00000000000E+00 0.  1.
         23    2    1    2    0    0  0.47803619040E+02 -0.29441468113E+02  0.12697282951E+03  0.16592099752E+03  0.90860838363E+02 0.  0.
        -24    2    1    2    0    0 -0.25211997335E+02  0.78371595454E+02  0.22653231257E+03  0.25357972249E+03  0.78791086027E+02 0.  0.
         11    1    4    4    0    0  0.15595145255E+02  0.25317645317E+02  0.18442266854E+02  0.34990126131E+02  0.00000000000E+00 0. -1.
        -12    1    4    4    0    0 -0.40807142590E+02  0.53053950137E+02  0.20809004572E+03  0.21858959636E+03  0.00000000000E+00 0.  1.
        -11    1    3    3    0    0 -0.12690244874E+02 -0.35240610429E+02  0.18948911262E+02  0.41976233471E+02  0.00000000000E+00 0. -1.
         11    1    3    3    0    0  0.60493863914E+02  0.57991423167E+01  0.10802391825E+03  0.12394476405E+03  0.00000000000E+00 0.  1.
         -1    1    1    2    0  502 -0.22591621705E+02 -0.48930127341E+02  0.21370138143E+03  0.22039242083E+03  0.00000000000E+00 0.  1.
<scales pt_clust_5="13000.00000" pt_clust_6="13000.00000" pt_clust_7="13000.00000" pt_clust_8="13000.00000" pt_clust_9="53.89377"></scales>
<clustering>
<clus scale="   53.894">  1  9  2 -1</clus>
<clus scale="   78.791">  5  6 -1 -1</clus>
<clus scale="   90.861">  7  8 -1 -1</clus>
<clus scale="  100.251">  1  5  2 -1</clus>
<clus scale="   53.894">  1  5  2 -1</clus>
</clustering>
</event>
<event>
 9    1  0.7586638E-005  0.9626670E+02  0.7546771E-02  0.1294039E+00
         21   -1    0    0  501  502  0.00000000000E+00  0.00000000000E+00  0.12084993888E+03  0.12084993888E+03  0.00000000000E+00 0. -1.
          1   -1    0    0  502    0 -0.00000000000E+00 -0.00000000000E+00 -0.40801361389E+03  0.40801361389E+03  0.00000000000E+00 0. -1.
        -24    2    1    2    0    0 -0.40699696218E+02 -0.10744951836E+02 -0.31621665176E+03  0.32892383050E+03  0.80162311341E+02 0.  0.
         23    2    1    2    0    0 -0.84344879617E+01 -0.29825385539E+02 -0.41972915954E+02  0.10452065833E+03  0.90565711688E+02 0.  0.
         11    1    3    3    0    0 -0.49689125217E+02  0.15323611592E+02 -0.27114584566E+03  0.27608674698E+03  0.00000000000E+00 0. -1.
        -12    1    3    3    0    0  0.89894289991E+01 -0.26068563429E+02 -0.45070806095E+02  0.52837083521E+02  0.00000000000E+00 0.  1.
        -11    1    4    4    0    0 -0.37244523629E+02 -0.43785509995E+02 -0.44077829426E+02  0.72437424532E+02  0.00000000000E+00 0. -1.
         11    1    4    4    0    0  0.28810035668E+02  0.13960124456E+02  0.21049134718E+01  0.32083233795E+02  0.00000000000E+00 0.  1.
          2    1    1    2  501    0  0.49134184180E+02  0.40570337375E+02  0.71025892706E+02  0.95419063946E+02  0.00000000000E+00 0. -1.
<scales pt_clust_5="13000.00000" pt_clust_6="13000.00000" pt_clust_7="13000.00000" pt_clust_8="13000.00000" pt_clust_9="63.71907"></scales>
<clustering>
<clus scale="   63.719">  1  9  2 -1</clus>
<clus scale="   80.162">  5  6 -1 -1</clus>
<clus scale="   86.551">  2  5  1 -1</clus>
<clus scale="   90.566">  7  8 -1 -1</clus>
<clus scale="   63.719">  1  5  2 -1</clus>
</clustering>
</event>
<event>
 9    1  0.7586638E-005  0.1066767E+03  0.7546771E-02  0.1274564E+00
         21   -1    0    0  501  502  0.00000000000E+00  0.00000000000E+00  0.56379371824E+02  0.56379371824E+02  0.00000000000E+00 0. -1.
          1   -1    0    0  502    0 -0.00000000000E+00 -0.00000000000E+00 -0.94176613564E+03  0.94176613564E+03  0.00000000000E+00 0. -1.
         23    2    1    2    0    0 -0.26815996169E+02 -0.15733953506E+02 -0.30845666639E+03  0.32733420647E+03  0.10505004876E+03 0.  0.
        -24    2    1    2    0    0 -0.19579411107E+02 -0.63605161618E+02 -0.16068408801E+02  0.10246891934E+03  0.76241168318E+02 0.  0.
         13    1    4    4    0    0 -0.87588845749E+01 -0.77501810726E+02  0.91685929054E+00  0.78000572792E+02  0.00000000000E+00 0. -1.
        -14    1    4    4    0    0 -0.10820526532E+02  0.13896649109E+02 -0.16985268091E+02  0.24468346553E+02  0.00000000000E+00 0.  1.
        -13    1    3    3    0    0  0.20704095581E+02  0.25822517024E+02 -0.41852589984E+02  0.53358235050E+02  0.00000000000E+00 0.  1.
         13    1    3    3    0    0 -0.47520091750E+02 -0.41556470530E+02 -0.26660407640E+03  0.27397597142E+03  0.00000000000E+00 0. -1.
          2    1    1    2  501    0  0.46395407276E+02  0.79339115124E+02 -0.56086168863E+03  0.56834238165E+03  0.00000000000E+00 0. -1.
<scales pt_clust_5="13000.00000" pt_clust_6="13000.00000" pt_clust_7="13000.00000" pt_clust_8="13000.00000" pt_clust_9="91.90885"></scales>
<clustering>
<clus scale="   76.241">  5  6 -1 -1</clus>
<clus scale="   91.909">  1  9  2 -1</clus>
<clus scale="   91.909">  1  5  2 -1</clus>
<clus scale="  105.050">  7  8 -1 -1</clus>
<clus scale="   91.909">  1  5  2 -1</clus>
</clustering>
</event>
<event>
 9    1  0.7586638E-005  0.1387705E+03  0.7546771E-02  0.1239955E+00
          1   -1    0    0  502    0 -0.00000000000E+00  0.00000000000E+00  0.65001126626E+03  0.65001126626E+03  0.00000000000E+00 0. -1.
         21   -1    0    0  501  502  0.00000000000E+00 -0.00000000000E+00 -0.44670957913E+02  0.44670957913E+02  0.00000000000E+00 0.  1.
        -24    2    1    2    0    0 -0.14961629157E+02  0.11171105214E+01  0.83657070708E+02  0.11763027076E+03  0.81322056270E+02 0.  0.
         23    2    1    2    0    0 -0.61872895472E+02 -0.79212365339E+02  0.32737238919E+03  0.35398443264E+03  0.89607161159E+02 0.  0.
         11    1    3    3    0    0  0.31616298183E+02  0.13679235462E+02  0.34312155286E+02  0.48621351215E+02  0.00000000000E+00 0. -1.
        -12    1    3    3    0    0 -0.46577927340E+02 -0.12562124940E+02  0.49344915422E+02  0.69008919542E+02  0.00000000000E+00 0.  1.
        -11    1    4    4    0    0 -0.80041510626E+02 -0.63586453392E+02  0.30310576538E+03  0.31987964219E+03  0.00000000000E+00 0.  1.
         11    1    4    4    0    0  0.18168615154E+02 -0.15625911947E+02  0.24266623808E+02  0.34104790453E+02  0.00000000000E+00 0. -1.
          2    1    1    2  501    0  0.76834524630E+02  0.78095254817E+02  0.19431084845E+03  0.22306752078E+03  0.00000000000E+00 0. -1.
<scales pt_clust_5="13000.00000" pt_clust_6="13000.00000" pt_clust_7="13000.00000" pt_clust_8="13000.00000" pt_clust_9="105.96130"></scales>
<clustering>
<clus scale="   81.322">  5  6 -1 -1</clus>
<clus scale="   82.695">  1  5  2 -1</clus>
<clus scale="   89.607">  7  8 -1 -1</clus>
<clus scale="  105.961">  2  9  1 -1</clus>
<clus scale="  105.961">  2  5  1 -1</clus>
</clustering>
</event>
<event>
 9    1  0.7586638E-005  0.2264493E+03  0.7546771E-02  0.1129734E+00
          1   -1    0    0  502    0 -0.00000000000E+00  0.00000000000E+00  0.12829773016E+04  0.12829773016E+04  0.00000000000E+00 0. -1.
         21   -1    0    0  501  502  0.00000000000E+00 -0.00000000000E+00 -0.70168221074E+02  0.70168221074E+02  0.00000000000E+00 0. -1.
         23    2    1    2    0    0  0.19937653536E+03  0.79239512761E+02  0.44714332087E+03  0.50419547295E+03  0.90807611527E+02 0.  0.
        -24    2    1    2    0    0 -0.20760094903E+03  0.48193710654E+01  0.29148992357E+03  0.36731091047E+03  0.82641085639E+02 0.  0.
         13    1    4    4    0    0 -0.15926630261E+03  0.33168189573E+01  0.27191332297E+03  0.31514062202E+03  0.00000000000E+00 0. -1.
        -14    1    4    4    0    0 -0.48334646411E+02  0.15025521082E+01  0.19576600599E+02  0.52170288455E+02  0.00000000000E+00 0.  1.
        -11    1    3    3    0    0  0.13412135489E+03  0.55679750461E+02  0.19782868791E+03  0.24540774684E+03  0.00000000000E+00 0. -1.
         11    1    3    3    0    0  0.65255180469E+02  0.23559762300E+02  0.24931463296E+03  0.25878772611E+03  0.00000000000E+00 0.  1.
          2    1    1    2  501    0  0.82244136677E+01 -0.84058883826E+02  0.47417583613E+03  0.48163913929E+03  0.00000000000E+00 0. -1.
<scales pt_clust_5="13000.00000" pt_clust_6="13000.00000" pt_clust_7="13000.00000" pt_clust_8="13000.00000" pt_clust_9="84.46031"></scales>
<clustering>
<clus scale="   82.641">  5  6 -1 -1</clus>
<clus scale="   84.460">  2  9  1 -1</clus>
<clus scale="   90.808">  7  8 -1 -1</clus>
<clus scale="  223.300">  2  5  1 -1</clus>
<clus scale="   84.460">  2  5  1 -1</clus>
</clustering>
</event>
<event>
 9    1  0.7586638E-005  0.1373194E+03  0.7546771E-02  0.1221082E+00
          3   -1    0    0  502    0 -0.00000000000E+00  0.00000000000E+00  0.40099656487E+03  0.40099656487E+03  0.00000000000E+00 0. -1.
         21   -1    0    0  501  502  0.00000000000E+00 -0.00000000000E+00 -0.12784115737E+03  0.12784115737E+03  0.00000000000E+00 0. -1.
        -24    2    1    2    0    0  0.65740122000E+02 -0.41945760424E+02  0.11482316346E+03  0.15956956207E+03  0.78720237626E+02 0.  0.
         23    2    1    2    0    0 -0.17449235435E+03  0.46058535765E+02  0.39475216712E+02  0.20811309229E+03  0.95832124090E+02 0.  0.
         13    1    3    3    0    0  0.38759411198E+02  0.11232448744E+02  0.82263574786E+02  0.91628355861E+02  0.00000000000E+00 0. -1.
        -14    1    3    3    0    0  0.26980710802E+02 -0.53178209168E+02  0.32559588679E+02  0.67941206206E+02  0.00000000000E+00 0.  1.
        -13    1    4    4    0    0 -0.72288828060E+02  0.49059794884E+02  0.57083701635E+02  0.10436037145E+03  0.00000000000E+00 0.  1.
         13    1    4    4    0    0 -0.10220352629E+03 -0.30012591195E+01 -0.17608484923E+02  0.10375272085E+03  0.00000000000E+00 0. -1.
          4    1    1    2  501    0  0.10875223235E+03 -0.41127753406E+01  0.11885702733E+03  0.16115506789E+03  0.00000000000E+00 0. -1.
<scales pt_clust_5="13000.00000" pt_clust_6="13000.00000" pt_clust_7="13000.00000" pt_clust_8="13000.00000" pt_clust_9="108.83003"></scales>
<clustering>
<clus scale="   78.720">  5  6 -1 -1</clus>
<clus scale="   95.832">  7  8 -1 -1</clus>
<clus scale="  108.830">  2  9  1 -1</clus>
<clus scale="  125.975">  1  5  2 -1</clus>
<clus scale="  108.830">  2  5  1 -1</clus>
</clustering>
</event>
<event>
 9    1  0.7586638E-005  0.9762037E+02  0.7546771E-02  0.1292456E+00
          1   -1    0    0  502    0 -0.00000000000E+00  0.00000000000E+00  0.24722583832E+03  0.24722583832E+03  0.00000000000E+00 0. -1.
         21   -1    0    0  501  502  0.00000000000E+00 -0.00000000000E+00 -0.60471166872E+02  0.60471166872E+02  0.00000000000E+00 0.  1.
         23    2    1    2    0    0 -0.27745212205E+02  0.21871841277E+02  0.17178604795E+03  0.19847979325E+03  0.92927971123E+02 0.  0.
        -24    2    1    2    0    0  0.60552043375E+01 -0.13486470780E+02 -0.22515685028E+00  0.81439129921E+02  0.80085771477E+02 0.  0.
         11    1    4    4    0    0 -0.26518476106E+02  0.98098014805E+01 -0.22027150208E+02  0.35842113865E+02  0.00000000000E+00 0. -1.
        -12    1    4    4    0    0  0.32573680443E+02 -0.23296272260E+02  0.21801993357E+02  0.45597016056E+02  0.00000000000E+00 0.  1.
        -11    1    3    3    0    0  0.46731277144E+01 -0.28399336867E+02  0.19226790115E+02  0.34612568747E+02  0.00000000000E+00 0.  1.
         11    1    3    3    0    0 -0.32418339919E+02  0.50271178144E+02  0.15255925783E+03  0.16386722450E+03  0.00000000000E+00 0. -1.
          2    1    1    2  501    0  0.21690007867E+02 -0.83853704973E+01  0.15193780353E+02  0.27778082026E+02  0.00000000000E+00 0. -1.
<scales pt_clust_5="13000.00000" pt_clust_6="13000.00000" pt_clust_7="13000.00000" pt_clust_8="13000.00000" pt_clust_9="23.25448"></scales>
<clustering>
<clus scale="   23.254">  2  9  1 -1</clus>
<clus scale="   80.086">  5  6 -1 -1</clus>
<clus scale="   85.486">  2  5  1 -1</clus>
<clus scale="   92.928">  7  8 -1 -1</clus>
<clus scale="   23.254">  2  5  1 -1</clus>
</clustering>
</event>
<event>
 9    1  0.7586638E-005  0.1293041E+03  0.7546771E-02  0.1235330E+00
          3   -1    0    0  502    0 -0.00000000000E+00  0.00000000000E+00  0.83886958785E+02  0.83886958785E+02  0.00000000000E+00 0. -1.
         21   -1    0    0  501  502  0.00000000000E+00 -0.00000000000E+00 -0.38046363429E+03  0.38046363429E+03  0.00000000000E+00 0.  1.
        -24    2    1    2    0    0  0.55581384644E+02  0.74733161485E+02 -0.19275974261E+02  0.12494892583E+03  0.81032926258E+02 0.  0.
         23    2    1    2    0    0  0.18855332194E+02 -0.54419022187E+02 -0.17659046957E+03  0.21253149805E+03  0.10328838362E+03 0.  0.
         11    1    3    3    0    0  0.17488204731E+02  0.76058767425E+02  0.74475261412E+01  0.78397953114E+02  0.00000000000E+00 0. -1.
        -12    1    3    3    0    0  0.38093179914E+02 -0.13256059399E+01 -0.26723500402E+02  0.46550972716E+02  0.00000000000E+00 0.  1.
        -11    1    4    4    0    0  0.49425243492E+02 -0.65711347869E+01 -0.37778957466E+02  0.62556247760E+02  0.00000000000E+00 0. -1.
         11    1    4    4    0    0 -0.30569911298E+02 -0.47847887400E+02 -0.13881151211E+03  0.14997525029E+03  0.00000000000E+00 0.  1.
          4    1    1    2  501    0 -0.74436716838E+02 -0.20314139298E+02 -0.10071023167E+03  0.12687016920E+03  0.00000000000E+00 0. -1.
<scales pt_clust_5="13000.00000" pt_clust_6="13000.00000" pt_clust_7="13000.00000" pt_clust_8="13000.00000" pt_clust_9="77.15886"></scales>
<clustering>
<clus scale="   77.159">  2  9  1 -1</clus>
<clus scale="   81.033">  5  6 -1 -1</clus>
<clus scale="  103.288">  7  8 -1 -1</clus>
<clus scale="  112.327">  1  5  2 -1</clus>
<clus scale="   77.159">  2  5  1 -1</clus>
</clustering>
</event>
<event>
 9    1  0.7586638E-005  0.1017964E+03  0.7546771E-02  0.1282805E+00
          1   -1    0    0  502    0 -0.00000000000E+00  0.00000000000E+00  0.12236387133E+03  0.12236387133E+03  0.00000000000E+00 0. -1.
         21   -1    0    0  501  502  0.00000000000E+00 -0.00000000000E+00 -0.18240345124E+03  0.18240345124E+03  0.00000000000E+00 0.  1.
         23    2    1    2    0    0 -0.46510522037E+02  0.12991043903E+02  0.29353700371E+02  0.10807699490E+03  0.92124921812E+02 0.  0.
        -24    2    1    2    0    0  0.30892857117E+02  0.20584740036E+02 -0.12005500247E+03  0.14861345244E+03  0.79338858615E+02 0.  0.
         11    1    4    4    0    0  0.57070553144E+02  0.76673287290E+01 -0.69708078382E+02  0.90415995032E+02  0.00000000000E+00 0. -1.
        -12    1    4    4    0    0 -0.26177696027E+02  0.12917411307E+02 -0.50346924084E+02  0.58197457409E+02  0.00000000000E+00 0.  1.
        -11    1    3    3    0    0 -0.62769228681E+02 -0.32314727697E+01  0.47519108059E+02  0.78793934515E+02  0.00000000000E+00 0. -1.
         11    1    3    3    0    0  0.16258706645E+02  0.16222516672E+02 -0.18165407688E+02  0.29283060383E+02  0.00000000000E+00 0.  1.
          2    1    1    2  501    0  0.15617664920E+02 -0.33575783938E+02  0.30661722186E+02  0.48076875232E+02  0.00000000000E+00 0. -1.
<scales pt_clust_5="13000.00000" pt_clust_6="13000.00000" pt_clust_7="13000.00000" pt_clust_8="13000.00000" pt_clust_9="37.03034"></scales>
<clustering>
<clus scale="   37.030">  2  9  1 -1</clus>
<clus scale="   79.339">  5  6 -1 -1</clus>
<clus scale="   90.389">  2  5  1 -1</clus>
<clus scale="   92.125">  7  8 -1 -1</clus>
<clus scale="   37.030">  2  5  1 -1</clus>
</clustering>
</event>
<event>
 9    1  0.7586638E-005  0.2964724E+03  0.7546771E-02  0.1126893E+00
         21   -1    0    0  501  502  0.00000000000E+00  0.00000000000E+00  0.46695725750E+03  0.46695725750E+03  0.00000000000E+00 0. -1.
          1   -1    0    0  502    0 -0.00000000000E+00 -0.00000000000E+00 -0.32306347437E+03  0.32306347437E+03  0.00000000000E+00 0. -1.
         23    2    1    2    0    0 -0.51618620020E+02 -0.15717091737E+02 -0.26759713760E+02  0.11002186843E+03  0.92071821679E+02 0.  0.
        -24    2    1    2    0    0 -0.26808080027E+03  0.45283149023E+02  0.21503225355E+03  0.35588261096E+03  0.80595804231E+02 0.  0.
         13    1    4    4    0    0 -0.14447008047E+03  0.39794682760E+02  0.70454845437E+02  0.16558715582E+03  0.00000000000E+00 0. -1.
        -14    1    4    4    0    0 -0.12361071980E+03  0.54884662638E+01  0.14457740811E+03  0.19029545514E+03  0.00000000000E+00 0.  1.
        -11    1    3    3    0    0 -0.60694334523E+02 -0.44243595701E+02 -0.27747604332E+02  0.80070141438E+02  0.00000000000E+00 0. -1.
         11    1    3    3    0    0  0.90757145026E+01  0.28526503964E+02  0.98789057216E+00  0.29951726994E+02  0.00000000000E+00 0.  1.
          2    1    1    2  501    0  0.31969942029E+03 -0.29566057286E+02 -0.44378756658E+02  0.32411625248E+03  0.00000000000E+00 0. -1.
<scales pt_clust_5="13000.00000" pt_clust_6="13000.00000" pt_clust_7="13000.00000" pt_clust_8="13000.00000" pt_clust_9="285.30731"></scales>
<clustering>
<clus scale="   80.596">  5  6 -1 -1</clus>
<clus scale="   92.072">  7  8 -1 -1</clus>
<clus scale="  106.718">  2  7  1 -1</clus>
<clus scale="  285.307">  1  9  2 -1</clus>
<clus scale="  285.307">  1  5  2 -1</clus>
</clustering>
</event>
<event>
 9    1  0.7586638E-005  0.1275653E+03  0.7546771E-02  0.1234437E+00
         -2   -1    0    0    0  501 -0.00000000000E+00  0.00000000000E+00  0.22396606156E+02  0.22396606156E+02  0.00000000000E+00 0.  1.
         21   -1    0    0  501  502  0.00000000000E+00 -0.00000000000E+00 -0.96105645703E+03  0.96105645703E+03  0.00000000000E+00 0.  1.
         23    2    1    2    0    0 -0.15239876942E+02 -0.90770701941E+02 -0.30587186306E+03  0.33221079908E+03  0.91295368053E+02 0.  0.
        -24    2    1    2    0    0  0.34522689123E+02  0.78002379054E+02 -0.59966423240E+03  0.61084374820E+03  0.79099341950E+02 0.  0.
         11    1    4    4    0    0 -0.20164979647E+02  0.77209559760E+00 -0.72643486549E+02  0.75394288072E+02  0.00000000000E+00 0. -1.
        -12    1    4    4    0    0  0.54687668770E+02  0.77230283456E+02 -0.52702074585E+03  0.53544946013E+03  0.00000000000E+00 0.  1.
        -11    1    3    3    0    0 -0.49473098916E+02 -0.53421265273E+02 -0.12795282219E+03  0.14721869380E+03  0.00000000000E+00 0. -1.
         11    1    3    3    0    0  0.34233221974E+02 -0.37349436668E+02 -0.17791904088E+03  0.18499210527E+03  0.00000000000E+00 0.  1.
         -1    1    1    2    0  502 -0.19282812181E+02  0.12768322888E+02 -0.33123755407E+02  0.40398515904E+02  0.00000000000E+00 0.  1.
<scales pt_clust_5="13000.00000" pt_clust_6="13000.00000" pt_clust_7="13000.00000" pt_clust_8="13000.00000" pt_clust_9="23.12699"></scales>
<clustering>
<clus scale="   23.127">  2  9  1 -1</clus>
<clus scale="   79.099">  5  6 -1 -1</clus>
<clus scale="   91.295">  7  8 -1 -1</clus>
<clus scale="  119.142">  2  5  1 -1</clus>
<clus scale="   23.127">  2  5  1 -1</clus>
</clustering>
</event>
<event>
 9    1  0.7586638E-005  0.2521083E+03  0.7546771E-02  0.1112484E+00
          1   -1    0    0  502    0 -0.00000000000E+00  0.00000000000E+00  0.16318730463E+04  0.16318730463E+04  0.00000000000E+00 0. -1.
         21   -1    0    0  501  502  0.00000000000E+00 -0.00000000000E+00 -0.28488467295E+03  0.28488467295E+03  0.00000000000E+00 0. -1.
        -24    2    1    2    0    0 -0.20353887740E+03 -0.88808694535E+02  0.12245756763E+04  0.12470924163E+04  0.79616888730E+02 0.  0.
         23    2    1    2    0    0  0.38181763358E+03  0.57860374267E+02  0.23090500902E+03  0.45868735347E+03  0.89131570266E+02 0.  0.
         11    1    3    3    0    0 -0.12542986998E+03 -0.14174057284E+02  0.73254849678E+03  0.74334437263E+03  0.00000000000E+00 0. -1.
        -12    1    3    3    0    0 -0.78109007420E+02 -0.74634637251E+02  0.49202717952E+03  0.50374804368E+03  0.00000000000E+00 0.  1.
        -11    1    4    4    0    0  0.14375730999E+03  0.11014642026E+02  0.39051865381E+02  0.14937380863E+03  0.00000000000E+00 0.  1.
         11    1    4    4    0    0  0.23806032359E+03  0.46845732241E+02  0.19185314363E+03  0.30931354484E+03  0.00000000000E+00 0. -1.
          2    1    1    2  501    0 -0.17827875618E+03  0.30948320268E+02 -0.10849231194E+03  0.21097794951E+03  0.00000000000E+00 0. -1.
<scales pt_clust_5="13000.00000" pt_clust_6="13000.00000" pt_clust_7="13000.00000" pt_clust_8="13000.00000" pt_clust_9="180.94506"></scales>
<clustering>
<clus scale="   79.617">  5  6 -1 -1</clus>
<clus scale="   89.132">  7  8 -1 -1</clus>
<clus scale="  180.945">  2  9  1 -1</clus>
<clus scale="  248.904">  1  5  2 -1</clus>
<clus scale="  180.945">  2  5  1 -1</clus>
</clustering>
</event>
<event>
 9    1  0.7586638E-005  0.1058694E+03  0.7546771E-02  0.1274336E+00
         21   -1    0    0  501  502  0.00000000000E+00  0.00000000000E+00  0.82134416011E+02  0.82134416011E+02  0.00000000000E+00 0. -1.
         -4   -1    0    0    0  501 -0.00000000000E+00 -0.00000000000E+00 -0.17987675843E+03  0.17987675843E+03  0.00000000000E+00 0.  1.
         23    2    1    2    0    0  0.43697106938E+01  0.60832317234E+02 -0.94757294780E+02  0.14583726410E+03  0.92573740848E+02 0.  0.
        -24    2    1    2    0    0  0.94740371341E+01 -0.35734617383E+02 -0.32701997752E+01  0.87509904981E+02  0.79250041035E+02 0.  0.
         11    1    4    4    0    0  0.28762774585E+02  0.13467340899E+02  0.94831096732E+01  0.33145072662E+02  0.00000000000E+00 0. -1.
        -12    1    4    4    0    0 -0.19288737451E+02 -0.49201958282E+02 -0.12753309448E+02  0.54364832319E+02  0.00000000000E+00 0.  1.
        -11    1    3    3    0    0  0.18898052133E+01  0.19993559120E+02  0.17323682544E+02  0.26522136923E+02  0.00000000000E+00 0. -1.
         11    1    3    3    0    0  0.24799054805E+01  0.40838758113E+02 -0.11208097732E+03  0.11931512718E+03  0.00000000000E+00 0.  1.
         -3    1    1    2    0  502 -0.13843747828E+02 -0.25097699850E+02  0.28515213332E+00  0.28664005363E+02  0.00000000000E+00 0.  1.
<scales pt_clust_5="13000.00000" pt_clust_6="13000.00000" pt_clust_7="13000.00000" pt_clust_8="13000.00000" pt_clust_9="28.66259"></scales>
<clustering>
<clus scale="   28.663">  1  9  2 -1</clus>
<clus scale="   79.250">  5  6 -1 -1</clus>
<clus scale="   92.574">  7  8 -1 -1</clus>
<clus scale="   94.440">  1  5  2 -1</clus>
<clus scale="   28.663">  1  5  2 -1</clus>
</clustering>
</event>
<event>
 9    1  0.7586638E-005  0.1824523E+03  0.7546771E-02  0.1191751E+00
         21   -1    0    0  501  502  0.00000000000E+00  0.00000000000E+00  0.79456756598E+02  0.79456756598E+02  0.00000000000E+00 0. -1.
          1   -1    0    0  502    0 -0.00000000000E+00 -0.00000000000E+00 -0.66025044563E+03  0.66025044563E+03  0.00000000000E+00 0. -1.
         23    2    1    2    0    0 -0.69433750758E+01 -0.34909340701E+02 -0.18857325354E+03  0.21385381345E+03  0.94375362502E+02 0.  0.
        -24    2    1    2    0    0 -0.15551956831E+03  0.53396347388E+02 -0.17269531717E+03  0.25212495591E+03  0.81889039431E+02 0.  0.
         11    1    4    4    0    0 -0.75225822034E+02  0.55322944343E+02 -0.51234619480E+02  0.10651074455E+03  0.00000000000E+00 0. -1.
        -12    1    4    4    0    0 -0.80293746276E+02 -0.19265969552E+01 -0.12146069769E+03  0.14561421136E+03  0.00000000000E+00 0.  1.
        -13    1    3    3    0    0  0.40634098552E+02  0.17599543618E+01 -0.70991537344E+02  0.81817026217E+02  0.00000000000E+00 0.  1.
         13    1    3    3    0    0 -0.47577473628E+02 -0.36669295063E+02 -0.11758171620E+03  0.13203678723E+03  0.00000000000E+00 0. -1.
          2    1    1    2  501    0  0.16246294339E+03 -0.18487006687E+02 -0.21952511833E+03  0.27372843288E+03  0.00000000000E+00 0. -1.
<scales pt_clust_5="13000.00000" pt_clust_6="13000.00000" pt_clust_7="13000.00000" pt_clust_8="13000.00000" pt_clust_9="163.04309"></scales>
<clustering>
<clus scale="   81.889">  5  6 -1 -1</clus>
<clus scale="   94.375">  7  8 -1 -1</clus>
<clus scale="  100.864">  2  7  1 -1</clus>
<clus scale="  163.043">  1  9  2 -1</clus>
<clus scale="  163.043">  1  5  2 -1</clus>
</clustering>
</event>
<event>
 9    1  0.7586638E-005  0.9589854E+02  0.7546771E-02  0.1291880E+00
         21   -1    0    0  501  502  0.00000000000E+00  0.00000000000E+00  0.36221723459E+03  0.36221723459E+03  0.00000000000E+00 0.  1.
         -2   -1    0    0    0  501 -0.00000000000E+00 -0.00000000000E+00 -0.77936565557E+02  0.77936565557E+02  0.00000000000E+00 0.  1.
        -24    2    1    2    0    0 -0.20408670526E+02  0.11765502116E+02 -0.32511636224E+02  0.96659949644E+02  0.87927234135E+02 0.  0.
         23    2    1    2    0    0  0.37308233560E+02  0.12396400097E+02  0.26973028258E+03  0.28795803569E+03  0.92843039303E+02 0.  0.
         11    1    3    3    0    0 -0.78868898114E+01 -0.37015970436E+02 -0.25909794580E+02  0.45866137327E+02  0.00000000000E+00 0. -1.
        -12    1    3    3    0    0 -0.12521780714E+02  0.48781472551E+02 -0.66018416440E+01  0.50793812316E+02  0.00000000000E+00 0.  1.
        -13    1    4    4    0    0 -0.49117393979E+01  0.41770305783E+02  0.17690695534E+03  0.18183771467E+03  0.00000000000E+00 0.  1.
         13    1    4    4    0    0  0.42219972958E+02 -0.29373905686E+02  0.92823327242E+02  0.10612032101E+03  0.00000000000E+00 0. -1.
         -1    1    1    2    0  502 -0.16899563034E+02 -0.24161902213E+02  0.47062022673E+02  0.55535814817E+02  0.00000000000E+00 0.  1.
<scales pt_clust_5="13000.00000" pt_clust_6="13000.00000" pt_clust_7="13000.00000" pt_clust_8="13000.00000" pt_clust_9="29.48547"></scales>
<clustering>
<clus scale="   29.485">  1  9  2 -1</clus>
<clus scale="   87.927">  5  6 -1 -1</clus>
<clus scale="   91.148">  2  5  1 -1</clus>
<clus scale="   92.843">  7  8 -1 -1</clus>
<clus scale="   29.485">  1  5  2 -1</clus>
</clustering>
</event>
<event>
 9    1  0.7586638E-005  0.9317509E+02  0.7546771E-02  0.1301668E+00
          1   -1    0    0  502    0 -0.00000000000E+00  0.00000000000E+00  0.14641544946E+03  0.14641544946E+03  0.00000000000E+00 0. -1.
         21   -1    0    0  501  502  0.00000000000E+00 -0.00000000000E+00 -0.10113933170E+03  0.10113933170E+03  0.00000000000E+00 0.  1.
         23    2    1    2    0    0  0.11344389919E+02  0.16870467448E+02  0.92520056064E+02  0.13144618751E+03  0.91130848680E+02 0.  0.
        -24    2    1    2    0    0 -0.24821723768E+02  0.12181190359E+00 -0.39000092371E+02  0.92906501485E+02  0.80588324243E+02 0.  0.
         11    1    4    4    0    0  0.18695576137E+02 -0.24953571643E+02 -0.34440767983E+01  0.31369841725E+02  0.00000000000E+00 0. -1.
        -12    1    4    4    0    0 -0.43517299905E+02  0.25075383547E+02 -0.35556015573E+02  0.61536659760E+02  0.00000000000E+00 0.  1.
        -11    1    3    3    0    0 -0.37236614442E+02  0.13102320381E+02  0.63389038118E+02  0.74675340026E+02  0.00000000000E+00 0.  1.
         11    1    3    3    0    0  0.48581004360E+02  0.37681470672E+01  0.29131017946E+02  0.56770847480E+02  0.00000000000E+00 0. -1.
          2    1    1    2  501    0  0.13477333849E+02 -0.16992279352E+02 -0.82438459279E+01  0.23202092167E+02  0.00000000000E+00 0. -1.
<scales pt_clust_5="13000.00000" pt_clust_6="13000.00000" pt_clust_7="13000.00000" pt_clust_8="13000.00000" pt_clust_9="21.68816"></scales>
<clustering>
<clus scale="   21.688">  2  9  1 -1</clus>
<clus scale="   80.588">  5  6 -1 -1</clus>
<clus scale="   82.893">  2  5  1 -1</clus>
<clus scale="   91.131">  7  8 -1 -1</clus>
<clus scale="   21.688">  2  5  1 -1</clus>
</clustering>
</event>
<event>
 9    1  0.7586638E-005  0.9388375E+02  0.7546771E-02  0.1305411E+00
         21   -1    0    0  501  502  0.00000000000E+00  0.00000000000E+00  0.17317558952E+03  0.17317558952E+03  0.00000000000E+00 0. -1.
          3   -1    0    0  502    0 -0.00000000000E+00 -0.00000000000E+00 -0.13290631833E+03  0.13290631833E+03  0.00000000000E+00 0. -1.
         23    2    1    2    0    0 -0.85149422325E+01  0.12264752356E+02 -0.78766964743E+02  0.12336700611E+03  0.93767025494E+02 0.  0.
        -24    2    1    2    0    0 -0.21474318682E+02  0.15207373888E+02  0.31044545258E+02  0.85778783000E+02  0.75510431327E+02 0.  0.
         13    1    4    4    0    0 -0.42526090394E+02  0.17775686660E+02  0.41600573849E+02  0.62089058174E+02  0.00000000000E+00 0. -1.
        -14    1    4    4    0    0  0.21051771712E+02 -0.25683127718E+01 -0.10556028591E+02  0.23689724825E+02  0.00000000000E+00 0.  1.
        -11    1    3    3    0    0  0.21440786441E+02  0.18788543350E+02 -0.87058802266E+02  0.91607596499E+02  0.00000000000E+00 0. -1.
         11    1    3    3    0    0 -0.29955728673E+02 -0.65237909942E+01  0.82918375229E+01  0.31759409610E+02  0.00000000000E+00 0.  1.
          4    1    1    2  501    0  0.29989260915E+02 -0.27472126244E+02  0.87991690671E+02  0.96936118747E+02  0.00000000000E+00 0. -1.
<scales pt_clust_5="13000.00000" pt_clust_6="13000.00000" pt_clust_7="13000.00000" pt_clust_8="13000.00000" pt_clust_9="40.67030"></scales>
<clustering>
<clus scale="   40.670">  1  9  2 -1</clus>
<clus scale="   75.510">  5  6 -1 -1</clus>
<clus scale="   75.655">  1  5  2 -1</clus>
<clus scale="   93.767">  7  8 -1 -1</clus>
<clus scale="   40.670">  1  5  2 -1</clus>
</clustering>
</event>
<event>
 9    1  0.7586638E-005  0.1133500E+03  0.7546771E-02  0.1259164E+00
         21   -1    0    0  501  502  0.00000000000E+00  0.00000000000E+00  0.24724653785E+03  0.24724653785E+03  0.00000000000E+00 0.  1.
         -2   -1    0    0    0  501 -0.00000000000E+00 -0.00000000000E+00 -0.88372694804E+02  0.88372694804E+02  0.00000000000E+00 0.  1.
         23    2    1    2    0    0 -0.57249442056E+02  0.68860320689E+01  0.11795222224E+02  0.10952826287E+03  0.92370975129E+02 0.  0.
        -24    2    1    2    0    0  0.82125057482E+02  0.37672178524E+02  0.99041634805E+02  0.15600686032E+03  0.79782059015E+02 0.  0.
         11    1    4    4    0    0  0.26322831507E+02 -0.21453769934E+02  0.99287827647E+01  0.35379887367E+02  0.00000000000E+00 0. -1.
        -12    1    4    4    0    0  0.55802225976E+02  0.59125948458E+02  0.89112852040E+02  0.12062697295E+03  0.00000000000E+00 0.  1.
        -13    1    3    3    0    0 -0.71873567327E+02  0.26328431980E+02  0.26617649692E+02  0.81040084439E+02  0.00000000000E+00 0.  1.
         13    1    3    3    0    0  0.14624125270E+02 -0.19442399911E+02 -0.14822427467E+02  0.28488178430E+02  0.00000000000E+00 0. -1.
         -1    1    1    2    0  502 -0.24875615426E+02 -0.44558210593E+02  0.48036986019E+02  0.70084109468E+02  0.00000000000E+00 0.  1.
<scales pt_clust_5="13000.00000" pt_clust_6="13000.00000" pt_clust_7="13000.00000" pt_clust_8="13000.00000" pt_clust_9="51.03166"></scales>
<clustering>
<clus scale="   51.032">  1  9  2 -1</clus>
<clus scale="   79.782">  5  6 -1 -1</clus>
<clus scale="   92.371">  7  8 -1 -1</clus>
<clus scale="  103.349">  1  5  2 -1</clus>
<clus scale="   51.032">  1  5  2 -1</clus>
</clustering>
</event>
<event>
 9    1  0.7586638E-005  0.1296033E+03  0.7546771E-02  0.1232357E+00
          3   -1    0    0  502    0 -0.00000000000E+00  0.00000000000E+00  0.72277236478E+03  0.72277236478E+03  0.00000000000E+00 0. -1.
         21   -1    0    0  501  502  0.00000000000E+00 -0.00000000000E+00 -0.42312379858E+02  0.42312379858E+02  0.00000000000E+00 0. -1.
         23    2    1    2    0    0  0.10730287766E+03  0.40352342842E+01  0.34042178211E+03  0.36884241794E+03  0.92884599743E+02 0.  0.
        -24    2    1    2    0    0 -0.61012348152E+02  0.66840082523E+02  0.20508498306E+03  0.23693603311E+03  0.76738062588E+02 0.  0.
         11    1    4    4    0    0 -0.46590711260E+02  0.82067312728E+02  0.18604048104E+03  0.20860680425E+03  0.00000000000E+00 0. -1.
        -12    1    4    4    0    0 -0.14421636893E+02 -0.15227230206E+02  0.19044502013E+02  0.28329228851E+02  0.00000000000E+00 0.  1.
        -11    1    3    3    0    0  0.11037770907E+03 -0.24675680462E+02  0.27160666788E+03  0.29421473434E+03  0.00000000000E+00 0. -1.
         11    1    3    3    0    0 -0.30748314059E+01  0.28710914746E+02  0.68815114222E+02  0.74627683597E+02  0.00000000000E+00 0.  1.
          4    1    1    2  501    0 -0.46290529509E+02 -0.70875316807E+02  0.13495321976E+03  0.15930629359E+03  0.00000000000E+00 0. -1.
<scales pt_clust_5="13000.00000" pt_clust_6="13000.00000" pt_clust_7="13000.00000" pt_clust_8="13000.00000" pt_clust_9="84.65296"></scales>
<clustering>
<clus scale="   76.738">  5  6 -1 -1</clus>
<clus scale="   84.653">  2  9  1 -1</clus>
<clus scale="   92.885">  7  8 -1 -1</clus>
<clus scale="  118.567">  2  5  1 -1</clus>
<clus scale="   84.653">  2  5  1 -1</clus>
</clustering>
</event>
<event>
 9    1  0.7586638E-005  0.1208757E+03  0.7546771E-02  0.1245255E+00
         -2   -1    0    0    0  501 -0.00000000000E+00  0.00000000000E+00  0.47007767675E+03  0.47007767675E+03  0.00000000000E+00 0.  1.
         21   -1    0    0  501  502  0.00000000000E+00 -0.00000000000E+00 -0.47028441369E+02  0.47028441369E+02  0.00000000000E+00 0. -1.
         23    2    1    2    0    0 -0.24766909537E+02  0.75127660813E+02  0.31792932586E+03  0.33998832280E+03  0.90859441850E+02 0.  0.
        -24    2    1    2    0    0  0.46451348996E+02 -0.69131989235E+02  0.10327784356E+03  0.15454444379E+03  0.79250945593E+02 0.  0.
         13    1    4    4    0    0  0.41741525904E+02 -0.56452812594E+02  0.24115601238E+02  0.74235013691E+02  0.00000000000E+00 0. -1.
        -14    1    4    4    0    0  0.47098230924E+01 -0.12679176640E+02  0.79162242319E+02  0.80309430099E+02  0.00000000000E+00 0.  1.
        -13    1    3    3    0    0 -0.17370415771E+02 -0.11782905505E+02  0.18057278309E+02  0.27688147394E+02  0.00000000000E+00 0. -1.
         13    1    3    3    0    0 -0.73964937663E+01  0.86910566318E+02  0.29987204755E+03  0.31230017541E+03  0.00000000000E+00 0.  1.
         -1    1    1    2    0  502 -0.21684439459E+02 -0.59956715779E+01  0.18420659694E+01  0.22573351531E+02  0.00000000000E+00 0.  1.
<scales pt_clust_5="13000.00000" pt_clust_6="13000.00000" pt_clust_7="13000.00000" pt_clust_8="13000.00000" pt_clust_9="22.49807"></scales>
<clustering>
<clus scale="   22.498">  2  9  1 -1</clus>
<clus scale="   79.251">  5  6 -1 -1</clus>
<clus scale="   90.859">  7  8 -1 -1</clus>
<clus scale="  112.411">  2  5  1 -1</clus>
<clus scale="   22.498">  2  5  1 -1</clus>
</clustering>
</event>
<event>
 9    1  0.7586638E-005  0.1035437E+03  0.7546771E-02  0.1278431E+00
         -2   -1    0    0    0  501 -0.00000000000E+00  0.00000000000E+00  0.85260913743E+02  0.85260913743E+02  0.00000000000E+00 0.  1.
         21   -1    0    0  501  502  0.00000000000E+00 -0.00000000000E+00 -0.40432457439E+03  0.40432457439E+03  0.00000000000E+00 0.  1.
        -24    2    1    2    0    0 -0.25521142832E+01 -0.56300856119E+02 -0.24334682745E+01  0.97199346012E+02  0.79154857149E+02 0.  0.
         23    2    1    2    0    0  0.33300124906E+01  0.33032084021E+01 -0.32606595878E+03  0.33854944946E+03  0.90965488430E+02 0.  0.
         13    1    3    3    0    0 -0.98517464702E+01 -0.42552729357E+02 -0.38305514557E+02  0.58095646392E+02  0.00000000000E+00 0. -1.
        -14    1    3    3    0    0  0.72996321870E+01 -0.13748126761E+02  0.35872046282E+02  0.39103699620E+02  0.00000000000E+00 0.  1.
        -11    1    4    4    0    0 -0.25847945786E+02  0.35038909559E+02 -0.11159258977E+03  0.11978625787E+03  0.00000000000E+00 0. -1.
         11    1    4    4    0    0  0.29177958276E+02 -0.31735701157E+02 -0.21447336901E+03  0.21876319159E+03  0.00000000000E+00 0.  1.
         -1    1    1    2    0  502 -0.77789820741E+00  0.52997647717E+02  0.94357664070E+01  0.53836692662E+02  0.00000000000E+00 0.  1.
<scales pt_clust_5="13000.00000" pt_clust_6="13000.00000" pt_clust_7="13000.00000" pt_clust_8="13000.00000" pt_clust_9="53.00338"></scales>
<clustering>
<clus scale="   53.003">  2  9  1 -1</clus>
<clus scale="   79.155">  5  6 -1 -1</clus>
<clus scale="   90.965">  7  8 -1 -1</clus>
<clus scale="   93.338">  1  5  2 -1</clus>
<clus scale="   53.003">  2  5  1 -1</clus>
</clustering>
</event>
<event>
 9    1  0.7586638E-005  0.4041173E+03  0.7546771E-02  0.1042634E+00
         21   -1    0    0  501  502  0.00000000000E+00  0.00000000000E+00  0.71477981898E+02  0.71477981898E+02  0.00000000000E+00 0.  1.
          1   -1    0    0  502    0 -0.00000000000E+00 -0.00000000000E+00 -0.24859062272E+04  0.24859062272E+04  0.00000000000E+00 0. -1.
        -24    2    1    2    0    0 -0.21469842353E+03 -0.31831243655E+03 -0.13458680471E+04  0.14019153262E+04  0.81163793462E+02 0.  0.
         23    2    1    2    0    0  0.23215469344E+03  0.33260814020E+03 -0.10024406497E+04  0.10856055649E+04  0.95541665265E+02 0.  0.
         11    1    3    3    0    0 -0.19364854992E+03 -0.31462071393E+03 -0.12967465628E+04  0.13483462473E+04  0.00000000000E+00 0. -1.
        -12    1    3    3    0    0 -0.21049873615E+02 -0.36917226132E+01 -0.49121484300E+02  0.53569078906E+02  0.00000000000E+00 0.  1.
        -13    1    4    4    0    0  0.73191225726E+02  0.16814223552E+03 -0.52724676040E+03  0.55822747446E+03  0.00000000000E+00 0. -1.
         13    1    4    4    0    0  0.15896346771E+03  0.16446590467E+03 -0.47519388927E+03  0.52737809043E+03  0.00000000000E+00 0.  1.
          2    1    1    2  501    0 -0.17456269904E+02 -0.14295703650E+02 -0.66119548597E+02  0.69863318047E+02  0.00000000000E+00 0. -1.
<scales pt_clust_5="13000.00000" pt_clust_6="13000.00000" pt_clust_7="13000.00000" pt_clust_8="13000.00000" pt_clust_9="22.56300"></scales>
<clustering>
<clus scale="   22.563">  1  9  2 -1</clus>
<clus scale="   81.164">  5  6 -1 -1</clus>
<clus scale="   95.542">  7  8 -1 -1</clus>
<clus scale="  400.962">  2  5  1 -1</clus>
<clus scale="   22.563">  1  5  2 -1</clus>
</clustering>
</event>
<event>
 9    1  0.7586638E-005  0.8912593E+02  0.7546771E-02  0.1310506E+00
         21   -1    0    0  501  502  0.00000000000E+00  0.00000000000E+00  0.74468719696E+02  0.74468719696E+02  0.00000000000E+00 0. -1.
          1   -1    0    0  502    0 -0.00000000000E+00 -0.00000000000E+00 -0.21748446134E+03  0.21748446134E+03  0.00000000000E+00 0. -1.
         23    2    1    2    0    0  0.18517822057E+01  0.12121962551E+02 -0.12566323195E+03  0.15427626573E+03  0.88654087494E+02 0.  0.
        -24    2    1    2    0    0  0.32879728974E+02  0.10894952043E+02  0.10028750521E+02  0.87819221446E+02  0.80074111053E+02 0.  0.
         11    1    4    4    0    0  0.53626129327E+02  0.79517696733E+01 -0.13946462593E+02  0.55977640236E+02  0.00000000000E+00 0. -1.
        -12    1    4    4    0    0 -0.20746400353E+02  0.29431823701E+01  0.23975213114E+02  0.31841581210E+02  0.00000000000E+00 0.  1.
        -11    1    3    3    0    0 -0.49449194908E+01 -0.31822377481E+02 -0.16040098321E+02  0.35977780525E+02  0.00000000000E+00 0.  1.
         11    1    3    3    0    0  0.67967016964E+01  0.43944340032E+02 -0.10962313363E+03  0.11829848520E+03  0.00000000000E+00 0. -1.
          2    1    1    2  501    0 -0.34731511179E+02 -0.23016914594E+02 -0.27381260215E+02  0.49857693862E+02  0.00000000000E+00 0. -1.
<scales pt_clust_5="13000.00000" pt_clust_6="13000.00000" pt_clust_7="13000.00000" pt_clust_8="13000.00000" pt_clust_9="41.66603"></scales>
<clustering>
<clus scale="   41.666">  1  9  2 -1</clus>
<clus scale="   80.074">  5  6 -1 -1</clus>
<clus scale="   80.596">  1  5  2 -1</clus>
<clus scale="   88.654">  7  8 -1 -1</clus>
<clus scale="   41.666">  1  5  2 -1</clus>
</clustering>
</event>
<event>
 9    1  0.7586638E-005  0.1467261E+03  0.7546771E-02  0.1206465E+00
         21   -1    0    0  501  502  0.00000000000E+00  0.00000000000E+00  0.22301663348E+03  0.22301663348E+03  0.00000000000E+00 0.  1.
          1   -1    0    0  502    0 -0.00000000000E+00 -0.00000000000E+00 -0.31047312640E+03  0.31047312640E+03  0.00000000000E+00 0. -1.
        -24    2    1    2    0    0  0.17640264736E+02  0.11394393447E+03 -0.25605860574E+03  0.29228165933E+03  0.81044183411E+02 0.  0.
         23    2    1    2    0    0 -0.39469841183E+02 -0.10890136881E+03  0.12929109747E+03  0.19596084866E+03  0.90923538383E+02 0.  0.
         13    1    3    3    0    0  0.13598852704E+02  0.99146961136E+02 -0.12404873038E+03  0.15938361335E+03  0.00000000000E+00 0. -1.
        -14    1    3    3    0    0  0.40414120314E+01  0.14796973332E+02 -0.13200987536E+03  0.13289804597E+03  0.00000000000E+00 0.  1.
        -11    1    4    4    0    0 -0.16362228489E+02 -0.11592999221E+03  0.12528948300E+03  0.17147868721E+03  0.00000000000E+00 0.  1.
         11    1    4    4    0    0 -0.23107612694E+02  0.70286233962E+01  0.40016144633E+01  0.24482161456E+02  0.00000000000E+00 0. -1.
          2    1    1    2  501    0  0.21829576447E+02 -0.50425656556E+01  0.39311015349E+02  0.45247251895E+02  0.00000000000E+00 0. -1.
<scales pt_clust_5="13000.00000" pt_clust_6="13000.00000" pt_clust_7="13000.00000" pt_clust_8="13000.00000" pt_clust_9="22.40442"></scales>
<clustering>
<clus scale="   22.404">  1  9  2 -1</clus>
<clus scale="   81.044">  5  6 -1 -1</clus>
<clus scale="   90.924">  7  8 -1 -1</clus>
<clus scale="  140.818">  2  5  1 -1</clus>
<clus scale="   22.404">  1  5  2 -1</clus>
</clustering>
</event>
<event>
 9    1  0.7586638E-005  0.1352452E+03  0.7546771E-02  0.1222150E+00
         -4   -1    0    0    0  501 -0.00000000000E+00  0.00000000000E+00  0.51521276087E+03  0.51521276087E+03  0.00000000000E+00 0.  1.
         21   -1    0    0  501  502  0.00000000000E+00 -0.00000000000E+00 -0.80077517058E+02  0.80077517058E+02  0.00000000000E+00 0.  1.
        -24    2    1    2    0    0 -0.58437623061E+02 -0.86026796618E+02  0.36061768556E+03  0.38421004583E+03  0.82199018592E+02 0.  0.
         23    2    1    2    0    0  0.45572189858E+02  0.57854790340E+02 -0.12869773444E+02  0.11836708820E+03  0.91766743686E+02 0.  0.
         13    1    3    3    0    0  0.21202574394E+02 -0.18612141700E+02  0.75348520847E+02  0.80457197151E+02  0.00000000000E+00 0. -1.
        -14    1    3    3    0    0 -0.79640197454E+02 -0.67414654918E+02  0.28526916471E+03  0.30375284868E+03  0.00000000000E+00 0.  1.
        -11    1    4    4    0    0  0.15811987908E+02  0.66134800983E+02  0.22295723323E+02  0.71560674544E+02  0.00000000000E+00 0. -1.
         11    1    4    4    0    0  0.29760201950E+02 -0.82800106438E+01 -0.35165496768E+02  0.46806413656E+02  0.00000000000E+00 0.  1.
         -3    1    1    2    0  502  0.12865433203E+02  0.28172006279E+02  0.87387331702E+02  0.92713143897E+02  0.00000000000E+00 0.  1.
<scales pt_clust_5="13000.00000" pt_clust_6="13000.00000" pt_clust_7="13000.00000" pt_clust_8="13000.00000" pt_clust_9="30.97067"></scales>
<clustering>
<clus scale="   30.971">  2  9  1 -1</clus>
<clus scale="   82.199">  5  6 -1 -1</clus>
<clus scale="   91.767">  7  8 -1 -1</clus>
<clus scale="  128.945">  1  5  2 -1</clus>
<clus scale="   30.971">  2  5  1 -1</clus>
</clustering>
</event>
<event>
 9    1  0.7586638E-005  0.1265289E+03  0.7546771E-02  0.1236001E+00
         21   -1    0    0  501  502  0.00000000000E+00  0.00000000000E+00  0.17529785643E+03  0.17529785643E+03  0.00000000000E+00 0.  1.
          1   -1    0    0  502    0 -0.00000000000E+00 -0.00000000000E+00 -0.22214866896E+03  0.22214866896E+03  0.00000000000E+00 0. -1.
        -24    2    1    2    0    0 -0.52592173548E+02  0.47790251535E+02 -0.78215162787E+02  0.13246172880E+03  0.79866470094E+02 0.  0.
         23    2    1    2    0    0  0.12356076563E+03 -0.90168229269E+02  0.37005685066E+02  0.18213397453E+03  0.91683104104E+02 0.  0.
         11    1    3    3    0    0 -0.44743955197E+02  0.57516963498E+02 -0.23844700037E+02  0.76673283069E+02  0.00000000000E+00 0. -1.
        -12    1    3    3    0    0 -0.78482183511E+01 -0.97267119629E+01 -0.54370462750E+02  0.55788445726E+02  0.00000000000E+00 0.  1.
        -13    1    4    4    0    0  0.87461477804E+02 -0.90522717633E+02  0.59886728321E+02  0.13939258494E+03  0.00000000000E+00 0.  1.
         13    1    4    4    0    0  0.36099287831E+02  0.35448836368E+00 -0.22881043255E+02  0.42741389593E+02  0.00000000000E+00 0. -1.
          2    1    1    2  501    0 -0.70968592086E+02  0.42377977734E+02 -0.56413348083E+01  0.82850822071E+02  0.00000000000E+00 0. -1.
<scales pt_clust_5="13000.00000" pt_clust_6="13000.00000" pt_clust_7="13000.00000" pt_clust_8="13000.00000" pt_clust_9="82.65854"></scales>
<clustering>
<clus scale="   79.866">  5  6 -1 -1</clus>
<clus scale="   82.659">  1  9  2 -1</clus>
<clus scale="   91.683">  7  8 -1 -1</clus>
<clus scale="  118.247">  2  5  1 -1</clus>
<clus scale="   82.659">  1  5  2 -1</clus>
</clustering>
</event>
<event>
 9    1  0.7586638E-005  0.1106569E+03  0.7546771E-02  0.1264556E+00
         21   -1    0    0  501  502  0.00000000000E+00  0.00000000000E+00  0.10958234969E+03  0.10958234969E+03  0.00000000000E+00 0.  1.
          1   -1    0    0  502    0 -0.00000000000E+00 -0.00000000000E+00 -0.25708876771E+03  0.25708876771E+03  0.00000000000E+00 0. -1.
        -24    2    1    2    0    0  0.52098564982E+02  0.19952216629E+02 -0.18804451213E+03  0.21211494723E+03  0.80744416983E+02 0.  0.
         23    2    1    2    0    0 -0.74743383665E+02 -0.20447911603E+02  0.18538772902E+02  0.12298080539E+03  0.93679783858E+02 0.  0.
         11    1    3    3    0    0  0.56958694679E+02  0.37716905801E+02 -0.93525592892E+02  0.11581836818E+03  0.00000000000E+00 0. -1.
        -12    1    3    3    0    0 -0.48601296961E+01 -0.17764689172E+02 -0.94518919239E+02  0.96296579047E+02  0.00000000000E+00 0.  1.
        -11    1    4    4    0    0 -0.23414222872E+02 -0.41941362432E+02  0.40821951883E+02  0.63037571899E+02  0.00000000000E+00 0.  1.
         11    1    4    4    0    0 -0.51329160793E+02  0.21493450829E+02 -0.22283178981E+02  0.59943233494E+02  0.00000000000E+00 0. -1.
          2    1    1    2  501    0  0.22644818683E+02  0.49569497450E+00  0.21999321209E+02  0.31575364770E+02  0.00000000000E+00 0. -1.
<scales pt_clust_5="13000.00000" pt_clust_6="13000.00000" pt_clust_7="13000.00000" pt_clust_8="13000.00000" pt_clust_9="22.65024"></scales>
<clustering>
<clus scale="   22.650">  1  9  2 -1</clus>
<clus scale="   80.744">  5  6 -1 -1</clus>
<clus scale="   93.680">  7  8 -1 -1</clus>
<clus scale="   99.944">  2  5  1 -1</clus>
<clus scale="   22.650">  1  5  2 -1</clus>
</clustering>
</event>
<event>
 9    1  0.7586638E-005  0.1010156E+03  0.7546771E-02  0.1282939E+00
         21   -1    0    0  501  502  0.00000000000E+00  0.00000000000E+00  0.10905201781E+03  0.10905201781E+03  0.00000000000E+00 0. -1.
         -4   -1    0    0    0  501 -0.00000000000E+00 -0.00000000000E+00 -0.33346687935E+03  0.33346687935E+03  0.00000000000E+00 0.  1.
         23    2    1    2    0    0  0.39154816091E+02  0.20750523548E+02 -0.28476701579E+03  0.30219846144E+03  0.90928394720E+02 0.  0.
        -24    2    1    2    0    0 -0.48585828309E+02  0.60222667943E+01  0.59610646977E+02  0.11192543392E+03  0.81098847805E+02 0.  0.
         11    1    4    4    0    0 -0.54508880508E+02  0.24616038261E+02  0.68107864159E+02  0.90641318140E+02  0.00000000000E+00 0. -1.
        -12    1    4    4    0    0  0.59230521992E+01 -0.18593771467E+02 -0.84972171813E+01  0.21284115780E+02  0.00000000000E+00 0.  1.
        -11    1    3    3    0    0 -0.11078729638E+02 -0.25673597242E+02 -0.46044142213E+02  0.53869609966E+02  0.00000000000E+00 0. -1.
         11    1    3    3    0    0  0.50233545729E+02  0.46424120790E+02 -0.23872287357E+03  0.24832885148E+03  0.00000000000E+00 0.  1.
         -3    1    1    2    0  502  0.94310122181E+01 -0.26772790342E+02  0.74150727700E+00  0.28395001800E+02  0.00000000000E+00 0.  1.
<scales pt_clust_5="13000.00000" pt_clust_6="13000.00000" pt_clust_7="13000.00000" pt_clust_8="13000.00000" pt_clust_9="28.38532"></scales>
<clustering>
<clus scale="   28.385">  1  9  2 -1</clus>
<clus scale="   81.099">  5  6 -1 -1</clus>
<clus scale="   90.928">  7  8 -1 -1</clus>
<clus scale="   92.267">  1  5  2 -1</clus>
<clus scale="   28.385">  1  5  2 -1</clus>
</clustering>
</event>
<event>
 9    1  0.7586638E-005  0.2107281E+03  0.7546771E-02  0.1166373E+00
         -2   -1    0    0    0  501 -0.00000000000E+00  0.00000000000E+00  0.16742238672E+03  0.16742238672E+03  0.00000000000E+00 0.  1.
         21   -1    0    0  501  502  0.00000000000E+00 -0.00000000000E+00 -0.17978464702E+04  0.17978464702E+04  0.00000000000E+00 0.  1.
        -24    2    1    2    0    0  0.67973143893E+02  0.48686792736E+02  0.76794378297E+02  0.13905849285E+03  0.80306511685E+02 0.  0.
         23    2    1    2    0    0 -0.21520155473E+03  0.67918709285E+02 -0.22229966833E+03  0.32946159719E+03  0.90571194378E+02 0.  0.
         11    1    3    3    0    0  0.47614675916E+02  0.25279838702E+02 -0.24431666459E+01  0.53964772496E+02  0.00000000000E+00 0. -1.
        -12    1    3    3    0    0  0.20358467977E+02  0.23406954034E+02  0.79237544943E+02  0.85093720357E+02  0.00000000000E+00 0.  1.
        -13    1    4    4    0    0 -0.17929552825E+03  0.86454837573E+02 -0.16085785239E+03  0.25592298464E+03  0.00000000000E+00 0.  1.
         13    1    4    4    0    0 -0.35906026481E+02 -0.18536128288E+02 -0.61441815940E+02  0.73538612548E+02  0.00000000000E+00 0. -1.
         -1    1    1    2    0  502  0.14722841083E+03 -0.11660550202E+03 -0.14849187934E+04  0.14967487669E+04  0.00000000000E+00 0.  1.
<scales pt_clust_5="13000.00000" pt_clust_6="13000.00000" pt_clust_7="13000.00000" pt_clust_8="13000.00000" pt_clust_9="190.27137"></scales>
<clustering>
<clus scale="   80.307">  5  6 -1 -1</clus>
<clus scale="   90.571">  7  8 -1 -1</clus>
<clus scale="  115.931">  1  5  2 -1</clus>
<clus scale="  190.271">  2  9  1 -1</clus>
<clus scale="  190.271">  2  5  1 -1</clus>
</clustering>
</event>
<event>
 9    1  0.7586638E-005  0.1320765E+03  0.7546771E-02  0.1242319E+00
         21   -1    0    0  501  502  0.00000000000E+00  0.00000000000E+00  0.27344862345E+03  0.27344862345E+03  0.00000000000E+00 0. -1.
          1   -1    0    0  502    0 -0.00000000000E+00 -0.00000000000E+00 -0.17815308561E+03  0.17815308561E+03  0.00000000000E+00 0. -1.
         23    2    1    2    0    0 -0.25407465401E+01  0.69439787885E+01  0.13532430356E+03  0.16331468090E+03  0.91128171437E+02 0.  0.
        -24    2    1    2    0    0 -0.94980168945E+02 -0.46891099111E+02 -0.10096633470E+03  0.16655170587E+03  0.79531517745E+02 0.  0.
         11    1    4    4    0    0 -0.98803408313E+02 -0.60593528484E+02 -0.78589377528E+02  0.14003563635E+03  0.00000000000E+00 0. -1.
        -12    1    4    4    0    0  0.38232393686E+01  0.13702429373E+02 -0.22376957175E+02  0.26516069513E+02  0.00000000000E+00 0.  1.
        -11    1    3    3    0    0 -0.28910917287E+02  0.37797317283E+02  0.51129712972E+02  0.69847876709E+02  0.00000000000E+00 0.  1.
         11    1    3    3    0    0  0.26370170747E+02 -0.30853338495E+02  0.84194590591E+02  0.93466804194E+02  0.00000000000E+00 0. -1.
          2    1    1    2  501    0  0.97520915485E+02  0.39947120322E+02  0.60937568984E+02  0.12173532229E+03  0.00000000000E+00 0. -1.
<scales pt_clust_5="13000.00000" pt_clust_6="13000.00000" pt_clust_7="13000.00000" pt_clust_8="13000.00000" pt_clust_9="105.44641"></scales>
<clustering>
<clus scale="   79.532">  5  6 -1 -1</clus>
<clus scale="   91.128">  7  8 -1 -1</clus>
<clus scale="   91.428">  2  7  1 -1</clus>
<clus scale="  105.446">  1  9  2 -1</clus>
<clus scale="  105.446">  1  5  2 -1</clus>
</clustering>
</event>
<event>
 9    1  0.7586638E-005  0.1217824E+03  0.7546771E-02  0.1243581E+00
         -2   -1    0    0    0  501 -0.00000000000E+00  0.00000000000E+00  0.49772257934E+03  0.49772257934E+03  0.00000000000E+00 0.  1.
         21   -1    0    0  501  502  0.00000000000E+00 -0.00000000000E+00 -0.50921927160E+02  0.50921927160E+02  0.00000000000E+00 0. -1.
        -24    2    1    2    0    0 -0.67582092757E+02  0.15957461968E+02  0.12847856249E+03  0.16660274237E+03  0.80173267927E+02 0.  0.
         23    2    1    2    0    0  0.95291056406E+02  0.45785961731E+02  0.17807363193E+03  0.22631871850E+03  0.91286385808E+02 0.  0.
         11    1    3    3    0    0 -0.60892657632E+02  0.42941235719E+02  0.11124821067E+03  0.13389559312E+03  0.00000000000E+00 0. -1.
        -12    1    3    3    0    0 -0.66894351252E+01 -0.26983773751E+02  0.17230351819E+02  0.32707149248E+02  0.00000000000E+00 0.  1.
        -13    1    4    4    0    0 -0.12829410698E+02  0.16330163783E+02  0.60186858280E+02  0.63668877308E+02  0.00000000000E+00 0.  1.
         13    1    4    4    0    0  0.10812046710E+03  0.29455797948E+02  0.11788677365E+03  0.16264984120E+03  0.00000000000E+00 0. -1.
         -1    1    1    2    0  502 -0.27708963650E+02 -0.61743423699E+02  0.14024845776E+03  0.15572304563E+03  0.00000000000E+00 0.  1.
<scales pt_clust_5="13000.00000" pt_clust_6="13000.00000" pt_clust_7="13000.00000" pt_clust_8="13000.00000" pt_clust_9="67.67600"></scales>
<clustering>
<clus scale="   67.676">  2  9  1 -1</clus>
<clus scale="   80.173">  5  6 -1 -1</clus>
<clus scale="   91.286">  7  8 -1 -1</clus>
<clus scale="  113.690">  1  5  2 -1</clus>
<clus scale="   67.676">  2  5  1 -1</clus>
</clustering>
</event>
<event>
 9    1  0.7586638E-005  0.9486743E+02  0.7546771E-02  0.1297647E+00
         -2   -1    0    0    0  501 -0.00000000000E+00  0.00000000000E+00  0.28366947739E+03  0.28366947739E+03  0.00000000000E+00 0.  1.
         21   -1    0    0  501  502  0.00000000000E+00 -0.00000000000E+00 -0.56191504647E+02  0.56191504647E+02  0.00000000000E+00 0.  1.
        -24    2    1    2    0    0  0.45287479531E+01 -0.12191953887E+02  0.15699937969E+03  0.17750807070E+03  0.81799490475E+02 0.  0.
         23    2    1    2    0    0  0.25694212304E+01  0.51746652095E+02  0.47887374659E+02  0.11625170415E+03  0.92395563406E+02 0.  0.
         13    1    3    3    0    0 -0.31855401083E+02  0.13473933488E+02  0.43415573266E+02  0.55508787267E+02  0.00000000000E+00 0. -1.
        -14    1    3    3    0    0  0.36384149036E+02 -0.25665887375E+02  0.11358380642E+03  0.12199928343E+03  0.00000000000E+00 0.  1.
        -13    1    4    4    0    0  0.46951289149E+02  0.33215222278E+02  0.21550186411E+02  0.61417302758E+02  0.00000000000E+00 0.  1.
         13    1    4    4    0    0 -0.44381867919E+02  0.18531429817E+02  0.26337188248E+02  0.54834401390E+02  0.00000000000E+00 0. -1.
         -1    1    1    2    0  502 -0.70981691835E+01 -0.39554698207E+02  0.22591218396E+02  0.46101207193E+02  0.00000000000E+00 0.  1.
<scales pt_clust_5="13000.00000" pt_clust_6="13000.00000" pt_clust_7="13000.00000" pt_clust_8="13000.00000" pt_clust_9="40.18654"></scales>
<clustering>
<clus scale="   40.187">  2  9  1 -1</clus>
<clus scale="   81.799">  5  6 -1 -1</clus>
<clus scale="   84.582">  1  5  2 -1</clus>
<clus scale="   92.396">  7  8 -1 -1</clus>
<clus scale="   40.187">  2  5  1 -1</clus>
</clustering>
</event>
<event>
 9    1  0.7586638E-005  0.1651684E+03  0.7546771E-02  0.1184916E+00
         21   -1    0    0  501  502  0.00000000000E+00  0.00000000000E+00  0.22739665482E+03  0.22739665482E+03  0.00000000000E+00 0. -1.
          1   -1    0    0  502    0 -0.00000000000E+00 -0.00000000000E+00 -0.32483765124E+03  0.32483765124E+03  0.00000000000E+00 0. -1.
        -24    2    1    2    0    0  0.94024294912E+02  0.11697898999E+03 -0.24080694004E+03  0.29488569650E+03  0.80280380494E+02 0.  0.
         23    2    1    2    0    0 -0.13747916455E+02 -0.78040032270E+02  0.10046486087E+03  0.15834839609E+03  0.93283301999E+02 0.  0.
         13    1    3    3    0    0  0.37060395764E+01  0.66759719470E+02 -0.95104561225E+02  0.11625606410E+03  0.00000000000E+00 0. -1.
        -14    1    3    3    0    0  0.90318255336E+02  0.50219270519E+02 -0.14570237882E+03  0.17862963240E+03  0.00000000000E+00 0.  1.
        -11    1    4    4    0    0 -0.25293427051E+02 -0.33576643150E+02 -0.59358382060E+01  0.42454476707E+02  0.00000000000E+00 0.  1.
         11    1    4    4    0    0  0.11545510595E+02 -0.44463389120E+02  0.10640069907E+03  0.11589391938E+03  0.00000000000E+00 0. -1.
          2    1    1    2  501    0 -0.80276378457E+02 -0.38938957719E+02  0.42901082753E+02  0.99000213473E+02  0.00000000000E+00 0. -1.
<scales pt_clust_5="13000.00000" pt_clust_6="13000.00000" pt_clust_7="13000.00000" pt_clust_8="13000.00000" pt_clust_9="89.22185"></scales>
<clustering>
<clus scale="   80.280">  5  6 -1 -1</clus>
<clus scale="   89.222">  1  9  2 -1</clus>
<clus scale="   93.283">  7  8 -1 -1</clus>
<clus scale="  158.189">  2  5  1 -1</clus>
<clus scale="   89.222">  1  5  2 -1</clus>
</clustering>
</event>
<event>
 9    1  0.7586638E-005  0.1233931E+03  0.7546771E-02  0.1240807E+00
         21   -1    0    0  501  502  0.00000000000E+00  0.00000000000E+00  0.10774184058E+03  0.10774184058E+03  0.00000000000E+00 0.  1.
         -2   -1    0    0    0  501 -0.00000000000E+00 -0.00000000000E+00 -0.99834330138E+03  0.99834330138E+03  0.00000000000E+00 0.  1.
        -24    2    1    2    0    0 -0.75712153702E+02  0.88858702610E+01 -0.66034733101E+03  0.66959855553E+03  0.80575052483E+02 0.  0.
         23    2    1    2    0    0  0.10527055103E+03  0.81438628086E+01 -0.31530702592E+03  0.34484758926E+03  0.91395447425E+02 0.  0.
         13    1    3    3    0    0 -0.36292554191E+02 -0.31866434172E+02 -0.19884125252E+03  0.20462273291E+03  0.00000000000E+00 0. -1.
        -14    1    3    3    0    0 -0.39419599511E+02  0.40752304433E+02 -0.46150607849E+03  0.46497582262E+03  0.00000000000E+00 0.  1.
        -13    1    4    4    0    0  0.69755211796E+02  0.45859222137E+02 -0.23394004125E+03  0.24838840699E+03  0.00000000000E+00 0.  1.
         13    1    4    4    0    0  0.35515339233E+02 -0.37715359328E+02 -0.81366984672E+02  0.96459182273E+02  0.00000000000E+00 0. -1.
         -1    1    1    2    0  502 -0.29558397326E+02 -0.17029733070E+02  0.85052896134E+02  0.91638997167E+02  0.00000000000E+00 0.  1.
<scales pt_clust_5="13000.00000" pt_clust_6="13000.00000" pt_clust_7="13000.00000" pt_clust_8="13000.00000" pt_clust_9="34.11320"></scales>
<clustering>
<clus scale="   34.113">  1  9  2 -1</clus>
<clus scale="   80.575">  5  6 -1 -1</clus>
<clus scale="   91.395">  7  8 -1 -1</clus>
<clus scale="  115.607">  2  5  1 -1</clus>
<clus scale="   34.113">  1  5  2 -1</clus>
</clustering>
</event>
<event>
 9    1  0.7586638E-005  0.9967882E+02  0.7546771E-02  0.1290788E+00
         21   -1    0    0  501  502  0.00000000000E+00  0.00000000000E+00  0.85844668731E+02  0.85844668731E+02  0.00000000000E+00 0. -1.
          1   -1    0    0  502    0 -0.00000000000E+00 -0.00000000000E+00 -0.30641345168E+03  0.30641345168E+03  0.00000000000E+00 0. -1.
        -24    2    1    2    0    0  0.12081226682E+02 -0.87129658808E+01 -0.15209186671E+03  0.17180228713E+03  0.78499797029E+02 0.  0.
         23    2    1    2    0    0 -0.68722470048E+02  0.58093684926E+02 -0.26208250265E+02  0.13423909484E+03  0.96102071169E+02 0.  0.
         11    1    3    3    0    0  0.22464242036E+02 -0.20501998397E+02 -0.15178483428E+02  0.33990593812E+02  0.00000000000E+00 0. -1.
        -12    1    3    3    0    0 -0.10383015354E+02  0.11789032517E+02 -0.13691338328E+03  0.13781169332E+03  0.00000000000E+00 0.  1.
        -13    1    4    4    0    0 -0.60980707098E+02  0.88391859094E+01  0.21471085199E+02  0.65251707605E+02  0.00000000000E+00 0. -1.
         13    1    4    4    0    0 -0.77417629505E+01  0.49254499017E+02 -0.47679335464E+02  0.68987387233E+02  0.00000000000E+00 0.  1.
          2    1    1    2  501    0  0.56641243367E+02 -0.49380719045E+02 -0.42268665978E+02  0.86216738439E+02  0.00000000000E+00 0. -1.
<scales pt_clust_5="13000.00000" pt_clust_6="13000.00000" pt_clust_7="13000.00000" pt_clust_8="13000.00000" pt_clust_9="75.14443"></scales>
<clustering>
<clus scale="   75.144">  1  9  2 -1</clus>
<clus scale="   78.500">  5  6 -1 -1</clus>
<clus scale="   82.840">  2  5  1 -1</clus>
<clus scale="   96.102">  7  8 -1 -1</clus>
<clus scale="   75.144">  1  5  2 -1</clus>
</clustering>
</event>
<event>
 9    1  0.7586638E-005  0.1245624E+03  0.7546771E-02  0.1255852E+00
         21   -1    0    0  501  502  0.00000000000E+00  0.00000000000E+00  0.23203647941E+03  0.23203647941E+03  0.00000000000E+00 0.  1.
         -2   -1    0    0    0  501 -0.00000000000E+00 -0.00000000000E+00 -0.95221828534E+02  0.95221828534E+02  0.00000000000E+00 0.  1.
        -24    2    1    2    0    0 -0.20952142107E+02 -0.10985011568E+02  0.58905040293E+02  0.10189059854E+03  0.79700862988E+02 0.  0.
         23    2    1    2    0    0 -0.40447100195E+02  0.72945177318E+02  0.53775360260E+02  0.13486140501E+03  0.91317262242E+02 0.  0.
         13    1    3    3    0    0 -0.11252856464E+02 -0.35334294751E+02  0.65134090340E+02  0.74950576306E+02  0.00000000000E+00 0. -1.
        -14    1    3    3    0    0 -0.96992856426E+01  0.24349283183E+02 -0.62290500470E+01  0.26940022234E+02  0.00000000000E+00 0.  1.
        -11    1    4    4    0    0  0.28081699151E+01  0.54110532930E+02 -0.10438462732E+02  0.55179680104E+02  0.00000000000E+00 0. -1.
         11    1    4    4    0    0 -0.43255270110E+02  0.18834644389E+02  0.64213822991E+02  0.79681724911E+02  0.00000000000E+00 0.  1.
         -1    1    1    2    0  502  0.61399242302E+02 -0.61960165750E+02  0.24134250321E+02  0.90506304386E+02  0.00000000000E+00 0.  1.
<scales pt_clust_5="13000.00000" pt_clust_6="13000.00000" pt_clust_7="13000.00000" pt_clust_8="13000.00000" pt_clust_9="84.71694"></scales>
<clustering>
<clus scale="   79.701">  5  6 -1 -1</clus>
<clus scale="   83.138">  2  5  1 -1</clus>
<clus scale="   84.717">  1  9  2 -1</clus>
<clus scale="   91.317">  7  8 -1 -1</clus>
<clus scale="   84.717">  1  5  2 -1</clus>
</clustering>
</event>
<event>
 9    1  0.7586638E-005  0.1051452E+03  0.7546771E-02  0.1272166E+00
         21   -1    0    0  501  502  0.00000000000E+00  0.00000000000E+00  0.40019154731E+03  0.40019154731E+03  0.00000000000E+00 0. -1.
          1   -1    0    0  502    0 -0.00000000000E+00 -0.00000000000E+00 -0.10522541013E+03  0.10522541013E+03  0.00000000000E+00 0. -1.
        -24    2    1    2    0    0  0.28635573534E+02 -0.63783332041E+02 -0.16439469323E+02  0.10788155356E+03  0.80497602009E+02 0.  0.
         23    2    1    2    0    0  0.20835696011E+02  0.71975008458E+02  0.27287453679E+02  0.10902607155E+03  0.74347502166E+02 0.  0.
         13    1    3    3    0    0  0.38104930714E+01 -0.52709409245E+02  0.24889176229E+02  0.58414662318E+02  0.00000000000E+00 0. -1.
        -14    1    3    3    0    0  0.24825080463E+02 -0.11073922796E+02 -0.41328645552E+02  0.49466891243E+02  0.00000000000E+00 0.  1.
        -11    1    4    4    0    0  0.32981688854E+02  0.18753439650E+02 -0.14147096285E+02  0.40492266319E+02  0.00000000000E+00 0.  1.
         11    1    4    4    0    0 -0.12145992843E+02  0.53221568808E+02  0.41434549964E+02  0.68533805230E+02  0.00000000000E+00 0. -1.
          2    1    1    2  501    0 -0.49471269545E+02 -0.81916764172E+01  0.28411815282E+03  0.28850933232E+03  0.00000000000E+00 0. -1.
<scales pt_clust_5="13000.00000" pt_clust_6="13000.00000" pt_clust_7="13000.00000" pt_clust_8="13000.00000" pt_clust_9="50.14489"></scales>
<clustering>
<clus scale="   50.145">  1  9  2 -1</clus>
<clus scale="   74.348">  7  8 -1 -1</clus>
<clus scale="   80.498">  5  6 -1 -1</clus>
<clus scale="  100.515">  1  7  2 -1</clus>
<clus scale="   50.145">  1  5  2 -1</clus>
</clustering>
</event>
<event>
 9    1  0.7586638E-005  0.1267494E+03  0.7546771E-02  0.1248265E+00
         21   -1    0    0  501  502  0.00000000000E+00  0.00000000000E+00  0.62121591412E+02  0.62121591412E+02  0.00000000000E+00 0. -1.
          1   -1    0    0  502    0 -0.00000000000E+00 -0.00000000000E+00 -0.66221490804E+03  0.66221490804E+03  0.00000000000E+00 0. -1.
        -24    2    1    2    0    0  0.52976722228E+02  0.52179479955E+01 -0.21067075587E+02  0.94163014397E+02  0.74760226907E+02 0.  0.
         23    2    1    2    0    0  0.66464241539E+01 -0.76025345888E+02 -0.47979336687E+03  0.49446876702E+03  0.92052476845E+02 0.  0.
         11    1    3    3    0    0  0.30125919854E+02  0.22602871456E+02 -0.43636577581E+02  0.57642100483E+02  0.00000000000E+00 0. -1.
        -12    1    3    3    0    0  0.22850802374E+02 -0.17384923460E+02  0.22569501994E+02  0.36520913914E+02  0.00000000000E+00 0.  1.
        -13    1    4    4    0    0  0.33667079354E+02 -0.78450029406E+02 -0.42299907976E+03  0.43152763622E+03  0.00000000000E+00 0. -1.
         13    1    4    4    0    0 -0.27020655200E+02  0.24246835179E+01 -0.56794287114E+02  0.62941130800E+02  0.00000000000E+00 0.  1.
          2    1    1    2  501    0 -0.59623146382E+02  0.70807397892E+02 -0.99232874168E+02  0.13570471803E+03  0.00000000000E+00 0. -1.
<scales pt_clust_5="13000.00000" pt_clust_6="13000.00000" pt_clust_7="13000.00000" pt_clust_8="13000.00000" pt_clust_9="87.13067"></scales>
<clustering>
<clus scale="   74.760">  5  6 -1 -1</clus>
<clus scale="   91.776">  2  5  1 -1</clus>
<clus scale="   87.131">  1  9  2 -1</clus>
<clus scale="   92.052">  7  8 -1 -1</clus>
<clus scale="   87.131">  1  5  2 -1</clus>
</clustering>
</event>
<event>
 9    1  0.1149666E-004  0.1631613E+03  0.7546771E-02  0.1188663E+00
          1   -1    0    0  502    0 -0.00000000000E+00  0.00000000000E+00  0.29575614043E+03  0.29575614043E+03  0.00000000000E+00 0. -1.
         21   -1    0    0  501  502  0.00000000000E+00 -0.00000000000E+00 -0.57725263668E+03  0.57725263668E+03  0.00000000000E+00 0.  1.
         23    2    1    2    0    0  0.10689317135E+02  0.12806666443E+03  0.25944706371E+03  0.30688689530E+03  0.10174210338E+03 0.  0.
        -24    2    1    2    0    0  0.12051314615E+02 -0.10961824730E+03 -0.46672070478E+03  0.48633145221E+03  0.80800190665E+02 0.  0.
         11    1    4    4    0    0 -0.33402543454E+02 -0.48679331700E+02 -0.16733561697E+03  0.17744468420E+03  0.00000000000E+00 0. -1.
        -12    1    4    4    0    0  0.45453858069E+02 -0.60938915600E+02 -0.29938508781E+03  0.30888676801E+03  0.00000000000E+00 0.  1.
        -11    1    3    3    0    0  0.34006783707E+02  0.43646122087E+02  0.33795776370E+02  0.64835174187E+02  0.00000000000E+00 0.  1.
         11    1    3    3    0    0 -0.23317466572E+02  0.84420542345E+02  0.22565128734E+03  0.24205172111E+03  0.00000000000E+00 0. -1.
          2    1    1    2  501    0 -0.22740631751E+02 -0.18448417131E+02 -0.74222855179E+02  0.79790429614E+02  0.00000000000E+00 0. -1.
<scales pt_clust_5="13000.00000" pt_clust_6="13000.00000" pt_clust_7="13000.00000" pt_clust_8="13000.00000" pt_clust_9="29.28277"></scales>
<clustering>
<clus scale="   29.283">  2  9  1 -1</clus>
<clus scale="   80.800">  5  6 -1 -1</clus>
<clus scale="  101.742">  7  8 -1 -1</clus>
<clus scale="  150.993">  2  5  1 -1</clus>
<clus scale="   29.283">  2  5  1 -1</clus>
</clustering>
</event>
<event>
 9    1  0.7586638E-005  0.1647590E+03  0.7546771E-02  0.1202427E+00
          1   -1    0    0  502    0 -0.00000000000E+00  0.00000000000E+00  0.41959255256E+03  0.41959255256E+03  0.00000000000E+00 0. -1.
         21   -1    0    0  501  502  0.00000000000E+00 -0.00000000000E+00 -0.17508406029E+03  0.17508406029E+03  0.00000000000E+00 0. -1.
         23    2    1    2    0    0  0.46831780365E+02 -0.19854393820E+02  0.19038674938E+03  0.21913355530E+03  0.95838343644E+02 0.  0.
        -24    2    1    2    0    0  0.65245275433E+02 -0.11626951671E+03 -0.58350340665E+02  0.16639967364E+03  0.80675539353E+02 0.  0.
         13    1    4    4    0    0  0.65679878463E+02 -0.71873197043E+02 -0.70689145111E+02  0.12031856933E+03  0.00000000000E+00 0. -1.
        -14    1    4    4    0    0 -0.43460303025E+00 -0.44396319668E+02  0.12338804446E+02  0.46081104316E+02  0.00000000000E+00 0.  1.
        -11    1    3    3    0    0  0.74890634023E+02 -0.75522855501E+01  0.11171415080E+03  0.13470595967E+03  0.00000000000E+00 0. -1.
         11    1    3    3    0    0 -0.28058853658E+02 -0.12302108270E+02  0.78672598581E+02  0.84427595631E+02  0.00000000000E+00 0.  1.
          2    1    1    2  501    0 -0.11207705580E+03  0.13612391053E+03  0.11247208355E+03  0.20914338391E+03  0.00000000000E+00 0. -1.
<scales pt_clust_5="13000.00000" pt_clust_6="13000.00000" pt_clust_7="13000.00000" pt_clust_8="13000.00000" pt_clust_9="143.65586"></scales>
<clustering>
<clus scale="   80.676">  5  6 -1 -1</clus>
<clus scale="   95.838">  7  8 -1 -1</clus>
<clus scale="  108.501">  1  7  2 -1</clus>
<clus scale="  143.656">  2  9  1 -1</clus>
<clus scale="  143.656">  2  5  1 -1</clus>
</clustering>
</event>
<event>
 9    1  0.7586638E-005  0.8790407E+02  0.7546771E-02  0.1312170E+00
         21   -1    0    0  501  502  0.00000000000E+00  0.00000000000E+00  0.18821907638E+03  0.18821907638E+03  0.00000000000E+00 0.  1.
          1   -1    0    0  502    0 -0.00000000000E+00 -0.00000000000E+00 -0.95599595503E+02  0.95599595503E+02  0.00000000000E+00 0. -1.
        -24    2    1    2    0    0  0.28329867275E+01  0.21679137896E+02 -0.46551858390E+01  0.83529284241E+02  0.80482667307E+02 0.  0.
         23    2    1    2    0    0 -0.35917028059E+02  0.39654735587E+02  0.76484372129E+02  0.12756639144E+03  0.86952826792E+02 0.  0.
         13    1    3    3    0    0 -0.32981792220E+02  0.96007598006E+01 -0.23176925107E+02  0.41438424972E+02  0.00000000000E+00 0. -1.
        -14    1    3    3    0    0  0.35814778947E+02  0.12078378096E+02  0.18521739268E+02  0.42090859269E+02  0.00000000000E+00 0.  1.
        -11    1    4    4    0    0 -0.12740788158E+02 -0.16891724205E+02 -0.85752716051E+01  0.22829658618E+02  0.00000000000E+00 0. -1.
         11    1    4    4    0    0 -0.23176239900E+02  0.56546459793E+02  0.85059643734E+02  0.10473673283E+03  0.00000000000E+00 0.  1.
          2    1    1    2  501    0  0.33084041331E+02 -0.61333873484E+02  0.20790294590E+02  0.72722996201E+02  0.00000000000E+00 0. -1.
<scales pt_clust_5="13000.00000" pt_clust_6="13000.00000" pt_clust_7="13000.00000" pt_clust_8="13000.00000" pt_clust_9="69.68789"></scales>
<clustering>
<clus scale="   69.688">  1  9  2 -1</clus>
<clus scale="   80.483">  5  6 -1 -1</clus>
<clus scale="   81.509">  2  5  1 -1</clus>
<clus scale="   86.953">  7  8 -1 -1</clus>
<clus scale="   69.688">  1  5  2 -1</clus>
</clustering>
</event>
<event>
 9    1  0.7586638E-005  0.1743094E+03  0.7546771E-02  0.1175552E+00
         21   -1    0    0  501  502  0.00000000000E+00  0.00000000000E+00  0.53262052871E+02  0.53262052871E+02  0.00000000000E+00 0.  1.
         -4   -1    0    0    0  501 -0.00000000000E+00 -0.00000000000E+00 -0.10523970824E+04  0.10523970824E+04  0.00000000000E+00 0.  1.
        -24    2    1    2    0    0  0.15222500134E+03 -0.21208147094E+02 -0.77734295702E+03  0.79634624006E+03  0.79265532745E+02 0.  0.
         23    2    1    2    0    0 -0.12435646460E+03  0.21109870317E+02 -0.23104918971E+03  0.27994694181E+03  0.95270169782E+02 0.  0.
         13    1    3    3    0    0  0.13831073885E+03  0.90052444166E-01 -0.53190487309E+03  0.54959317919E+03  0.00000000000E+00 0. -1.
        -14    1    3    3    0    0  0.13914262494E+02 -0.21298199538E+02 -0.24543808393E+03  0.24675306087E+03  0.00000000000E+00 0.  1.
        -13    1    4    4    0    0 -0.10663915238E+03 -0.24086081811E+02 -0.16640899823E+03  0.19910801804E+03  0.00000000000E+00 0. -1.
         13    1    4    4    0    0 -0.17717312218E+02  0.45195952128E+02 -0.64640191488E+02  0.80838923771E+02  0.00000000000E+00 0.  1.
         -3    1    1    2    0  502 -0.27868536746E+02  0.98276777102E-01  0.92571172281E+01  0.29365953383E+02  0.00000000000E+00 0.  1.
<scales pt_clust_5="13000.00000" pt_clust_6="13000.00000" pt_clust_7="13000.00000" pt_clust_8="13000.00000" pt_clust_9="27.86871"></scales>
<clustering>
<clus scale="   27.869">  1  9  2 -1</clus>
<clus scale="   79.266">  5  6 -1 -1</clus>
<clus scale="   95.270">  7  8 -1 -1</clus>
<clus scale="  166.103">  2  5  1 -1</clus>
<clus scale="   27.869">  1  5  2 -1</clus>
</clustering>
</event>
<event>
 9    1  0.7586638E-005  0.1384620E+03  0.7546771E-02  0.1238560E+00
         21   -1    0    0  501  502  0.00000000000E+00  0.00000000000E+00  0.48783769310E+02  0.48783769310E+02  0.00000000000E+00 0. -1.
          1   -1    0    0  502    0 -0.00000000000E+00 -0.00000000000E+00 -0.55860185642E+03  0.55860185642E+03  0.00000000000E+00 0. -1.
        -24    2    1    2    0    0  0.17169383981E+02  0.23775948589E+02 -0.12703192860E+03  0.15320596891E+03  0.80466605164E+02 0.  0.
         23    2    1    2    0    0 -0.11120530567E+03 -0.38090448521E+02 -0.21829693039E+03  0.26416816863E+03  0.91179872906E+02 0.  0.
         13    1    3    3    0    0  0.10321081408E+02  0.46126922003E+02 -0.36542747883E+02  0.59746046545E+02  0.00000000000E+00 0. -1.
        -14    1    3    3    0    0  0.68483025732E+01 -0.22350973414E+02 -0.90489180718E+02  0.93459922361E+02  0.00000000000E+00 0.  1.
        -11    1    4    4    0    0 -0.12137319337E+03 -0.13467391830E+02 -0.18024184037E+03  0.21771528134E+03  0.00000000000E+00 0. -1.
         11    1    4    4    0    0  0.10167887695E+02 -0.24623056691E+02 -0.38055090024E+02  0.46452887292E+02  0.00000000000E+00 0.  1.
          2    1    1    2  501    0  0.94035921694E+02  0.14314499932E+02 -0.16448922812E+03  0.19001148819E+03  0.00000000000E+00 0. -1.
<scales pt_clust_5="13000.00000" pt_clust_6="13000.00000" pt_clust_7="13000.00000" pt_clust_8="13000.00000" pt_clust_9="104.20151"></scales>
<clustering>
<clus scale="   80.467">  5  6 -1 -1</clus>
<clus scale="   85.644">  2  5  1 -1</clus>
<clus scale="   91.180">  7  8 -1 -1</clus>
<clus scale="  104.202">  1  9  2 -1</clus>
<clus scale="  104.202">  1  5  2 -1</clus>
</clustering>
</event>
<event>
 9    1  0.7586638E-005  0.9734650E+02  0.7546771E-02  0.1291875E+00
          3   -1    0    0  502    0 -0.00000000000E+00  0.00000000000E+00  0.10183735882E+04  0.10183735882E+04  0.00000000000E+00 0. -1.
         21   -1    0    0  501  502  0.00000000000E+00 -0.00000000000E+00 -0.27542837081E+02  0.27542837081E+02  0.00000000000E+00 0.  1.
        -24    2    1    2    0    0  0.34035042286E+02  0.35659558691E+01  0.44972991842E+03  0.45803431970E+03  0.79795603603E+02 0.  0.
         23    2    1    2    0    0 -0.24300658143E+02 -0.62633359857E+02  0.12907562044E+03  0.17153070113E+03  0.90822937008E+02 0.  0.
         13    1    3    3    0    0  0.56238329837E+02 -0.14421554307E+02  0.31533766070E+03  0.32063775703E+03  0.00000000000E+00 0. -1.
        -14    1    3    3    0    0 -0.22203287551E+02  0.17987510176E+02  0.13439225771E+03  0.13739656267E+03  0.00000000000E+00 0.  1.
        -11    1    4    4    0    0  0.24942071497E+02  0.62262317071E+01  0.16010404828E+02  0.30285408278E+02  0.00000000000E+00 0. -1.
         11    1    4    4    0    0 -0.49242729639E+02 -0.68859591564E+02  0.11306521561E+03  0.14124529286E+03  0.00000000000E+00 0.  1.
          4    1    1    2  501    0 -0.97343841439E+01  0.59067403988E+02  0.41202521223E+03  0.41635140442E+03  0.00000000000E+00 0. -1.
<scales pt_clust_5="13000.00000" pt_clust_6="13000.00000" pt_clust_7="13000.00000" pt_clust_8="13000.00000" pt_clust_9="59.86418"></scales>
<clustering>
<clus scale="   59.864">  2  9  1 -1</clus>
<clus scale="   79.796">  5  6 -1 -1</clus>
<clus scale="   87.149">  1  5  2 -1</clus>
<clus scale="   90.823">  7  8 -1 -1</clus>
<clus scale="   59.864">  2  5  1 -1</clus>
</clustering>
</event>
<event>
 9    1  0.7586638E-005  0.1371777E+03  0.7546771E-02  0.1231980E+00
         21   -1    0    0  501  502  0.00000000000E+00  0.00000000000E+00  0.48958269452E+03  0.48958269452E+03  0.00000000000E+00 0. -1.
          1   -1    0    0  502    0 -0.00000000000E+00 -0.00000000000E+00 -0.27771745231E+03  0.27771745231E+03  0.00000000000E+00 0. -1.
         23    2    1    2    0    0  0.58962402470E+01  0.43728537323E+02 -0.17366083738E+03  0.20077971305E+03  0.90595011485E+02 0.  0.
        -24    2    1    2    0    0  0.87032491808E+02  0.19344794883E+02 -0.39103623250E+02  0.12728885590E+03  0.82002949737E+02 0.  0.
         11    1    4    4    0    0  0.72384277251E+02  0.27014576534E+02 -0.61989128339E+02  0.99055151157E+02  0.00000000000E+00 0. -1.
        -12    1    4    4    0    0  0.14648214556E+02 -0.76697816510E+01  0.22885505089E+02  0.28233704742E+02  0.00000000000E+00 0.  1.
        -11    1    3    3    0    0 -0.20973492692E+02  0.26596728786E+02 -0.11886313386E+02  0.35896487624E+02  0.00000000000E+00 0.  1.
         11    1    3    3    0    0  0.26869732939E+02  0.17131808537E+02 -0.16177452400E+03  0.16488322543E+03  0.00000000000E+00 0. -1.
          2    1    1    2  501    0 -0.92928732055E+02 -0.63073332206E+02  0.42462970284E+03  0.43923157788E+03  0.00000000000E+00 0. -1.
<scales pt_clust_5="13000.00000" pt_clust_6="13000.00000" pt_clust_7="13000.00000" pt_clust_8="13000.00000" pt_clust_9="109.96923"></scales>
<clustering>
<clus scale="   82.003">  5  6 -1 -1</clus>
<clus scale="   90.595">  7  8 -1 -1</clus>
<clus scale="  100.769">  2  7  1 -1</clus>
<clus scale="  109.969">  1  9  2 -1</clus>
<clus scale="  109.969">  1  5  2 -1</clus>
</clustering>
</event>
<event>
 9    1  0.7586638E-005  0.2088870E+03  0.7546771E-02  0.1143434E+00
         -2   -1    0    0    0  501 -0.00000000000E+00  0.00000000000E+00  0.75985836741E+03  0.75985836741E+03  0.00000000000E+00 0.  1.
         21   -1    0    0  501  502  0.00000000000E+00 -0.00000000000E+00 -0.79670967146E+02  0.79670967146E+02  0.00000000000E+00 0. -1.
        -24    2    1    2    0    0 -0.10920800964E+03 -0.15983565109E+03  0.50954244823E+03  0.55090095183E+03  0.79903238029E+02 0.  0.
         23    2    1    2    0    0  0.90772783088E+02  0.14574388426E+03  0.10968753088E+03  0.22340382704E+03  0.91634805389E+02 0.  0.
         13    1    3    3    0    0 -0.95583654117E+02 -0.11564706884E+03  0.45654507744E+03  0.48056621521E+03  0.00000000000E+00 0. -1.
        -14    1    3    3    0    0 -0.13624355523E+02 -0.44188582247E+02  0.52997370789E+02  0.70334736617E+02  0.00000000000E+00 0.  1.
        -11    1    4    4    0    0  0.76475335127E+02  0.40751590289E+02  0.33543097091E+02  0.92920979097E+02  0.00000000000E+00 0.  1.
         11    1    4    4    0    0  0.14297447961E+02  0.10499229397E+03  0.76144433784E+02  0.13048284794E+03  0.00000000000E+00 0. -1.
         -1    1    1    2    0  502  0.18435226553E+02  0.14091766827E+02  0.60957421158E+02  0.65224555687E+02  0.00000000000E+00 0.  1.
<scales pt_clust_5="13000.00000" pt_clust_6="13000.00000" pt_clust_7="13000.00000" pt_clust_8="13000.00000" pt_clust_9="23.20422"></scales>
<clustering>
<clus scale="   23.204">  2  9  1 -1</clus>
<clus scale="   79.903">  5  6 -1 -1</clus>
<clus scale="   91.635">  7  8 -1 -1</clus>
<clus scale="  204.013">  1  5  2 -1</clus>
<clus scale="   23.204">  2  5  1 -1</clus>
</clustering>
</event>
<event>
 9    1  0.7586638E-005  0.1976213E+03  0.7546771E-02  0.1152713E+00
          1   -1    0    0  502    0 -0.00000000000E+00  0.00000000000E+00  0.11613103434E+04  0.11613103434E+04  0.00000000000E+00 0. -1.
         21   -1    0    0  501  502  0.00000000000E+00 -0.00000000000E+00 -0.36416994412E+03  0.36416994412E+03  0.00000000000E+00 0. -1.
         23    2    1    2    0    0 -0.15115017991E+03  0.89603649952E+02  0.92778302945E+03  0.94864402437E+03  0.90933735571E+02 0.  0.
        -24    2    1    2    0    0  0.90044540373E+02 -0.17906562734E+03  0.15851155512E+03  0.26805237847E+03  0.80954594367E+02 0.  0.
         11    1    4    4    0    0  0.30076809561E+02 -0.13750059960E+03  0.12292161089E+03  0.18687094956E+03  0.00000000000E+00 0. -1.
        -12    1    4    4    0    0  0.59967730812E+02 -0.41565027739E+02  0.35589944230E+02  0.81181428910E+02  0.00000000000E+00 0.  1.
        -11    1    3    3    0    0 -0.51400491167E+02  0.78748229764E+02  0.53779685042E+03  0.54595672586E+03  0.00000000000E+00 0. -1.
         11    1    3    3    0    0 -0.99749688738E+02  0.10855420188E+02  0.38998617902E+03  0.40268729851E+03  0.00000000000E+00 0.  1.
          2    1    1    2  501    0  0.61105639532E+02  0.89461977389E+02 -0.28915418528E+03  0.30878388469E+03  0.00000000000E+00 0. -1.
<scales pt_clust_5="13000.00000" pt_clust_6="13000.00000" pt_clust_7="13000.00000" pt_clust_8="13000.00000" pt_clust_9="108.33903"></scales>
<clustering>
<clus scale="   80.955">  5  6 -1 -1</clus>
<clus scale="   90.934">  7  8 -1 -1</clus>
<clus scale="  108.339">  2  9  1 -1</clus>
<clus scale="  193.233">  2  5  1 -1</clus>
<clus scale="  108.339">  2  5  1 -1</clus>
</clustering>
</event>
<event>
 9    1  0.7586638E-005  0.9400613E+02  0.7546771E-02  0.1299574E+00
         21   -1    0    0  501  502  0.00000000000E+00  0.00000000000E+00  0.10227406488E+03  0.10227406488E+03  0.00000000000E+00 0. -1.
         -4   -1    0    0    0  501 -0.00000000000E+00 -0.00000000000E+00 -0.15119199390E+03  0.15119199390E+03  0.00000000000E+00 0.  1.
         23    2    1    2    0    0  0.17789182210E+02  0.74944052052E+01 -0.53882338518E+02  0.10721982702E+03  0.90665118925E+02 0.  0.
        -24    2    1    2    0    0 -0.42287467687E+02  0.42620124780E+01  0.42291934359E+02  0.10007564089E+03  0.80125723173E+02 0.  0.
         13    1    4    4    0    0 -0.32557297422E+02 -0.26490511318E+02  0.51589567379E+02  0.66507204630E+02  0.00000000000E+00 0. -1.
        -14    1    4    4    0    0 -0.97301702651E+01  0.30752523796E+02 -0.92976330197E+01  0.33568436260E+02  0.00000000000E+00 0.  1.
        -13    1    3    3    0    0 -0.21580528600E+02 -0.30049413907E+02 -0.30741503404E+02  0.48101211236E+02  0.00000000000E+00 0.  1.
         13    1    3    3    0    0  0.39369710810E+02  0.37543819112E+02 -0.23140835114E+02  0.59118615787E+02  0.00000000000E+00 0. -1.
         -3    1    1    2    0  502  0.24498285477E+02 -0.11756417683E+02 -0.37327524862E+02  0.46170590860E+02  0.00000000000E+00 0.  1.
<scales pt_clust_5="13000.00000" pt_clust_6="13000.00000" pt_clust_7="13000.00000" pt_clust_8="13000.00000" pt_clust_9="27.17315"></scales>
<clustering>
<clus scale="   27.173">  1  9  2 -1</clus>
<clus scale="   80.126">  5  6 -1 -1</clus>
<clus scale="   83.888">  1  5  2 -1</clus>
<clus scale="   90.665">  7  8 -1 -1</clus>
<clus scale="   27.173">  1  5  2 -1</clus>
</clustering>
</event>
<event>
 9    1  0.7586638E-005  0.1137922E+03  0.7546771E-02  0.1257371E+00
         21   -1    0    0  501  502  0.00000000000E+00  0.00000000000E+00  0.98074035206E+02  0.98074035206E+02  0.00000000000E+00 0. -1.
         -4   -1    0    0    0  501 -0.00000000000E+00 -0.00000000000E+00 -0.36608137837E+03  0.36608137837E+03  0.00000000000E+00 0.  1.
         23    2    1    2    0    0  0.59827330726E+02  0.32811688951E+02 -0.26973660565E+03  0.29286120148E+03  0.91399838475E+02 0.  0.
        -24    2    1    2    0    0 -0.70930150580E+02 -0.31712425578E+01  0.45638459609E+02  0.11716615779E+03  0.81264361772E+02 0.  0.
         13    1    4    4    0    0 -0.30601733297E+02  0.13021781242E+02  0.62302177236E+02  0.70622901072E+02  0.00000000000E+00 0. -1.
        -14    1    4    4    0    0 -0.40328417283E+02 -0.16193023800E+02 -0.16663717627E+02  0.46543256714E+02  0.00000000000E+00 0.  1.
        -11    1    3    3    0    0 -0.22356523822E+02  0.60715339991E+01 -0.29225252894E+02  0.37293338403E+02  0.00000000000E+00 0. -1.
         11    1    3    3    0    0  0.82183854548E+02  0.26740154952E+02 -0.24051135275E+03  0.25556786308E+03  0.00000000000E+00 0.  1.
         -3    1    1    2    0  502  0.11102819854E+02 -0.29640446393E+02 -0.43909197132E+02  0.54128054315E+02  0.00000000000E+00 0.  1.
<scales pt_clust_5="13000.00000" pt_clust_6="13000.00000" pt_clust_7="13000.00000" pt_clust_8="13000.00000" pt_clust_9="31.65169"></scales>
<clustering>
<clus scale="   31.652">  1  9  2 -1</clus>
<clus scale="   81.264">  5  6 -1 -1</clus>
<clus scale="   91.400">  7  8 -1 -1</clus>
<clus scale="  105.824">  1  5  2 -1</clus>
<clus scale="   31.652">  1  5  2 -1</clus>
</clustering>
</event>
<event>
 9    1  0.7586638E-005  0.4036324E+03  0.7546771E-02  0.1042529E+00
          1   -1    0    0  502    0 -0.00000000000E+00  0.00000000000E+00  0.75047340558E+03  0.75047340558E+03  0.00000000000E+00 0. -1.
         21   -1    0    0  501  502  0.00000000000E+00 -0.00000000000E+00 -0.43511866119E+03  0.43511866119E+03  0.00000000000E+00 0. -1.
        -24    2    1    2    0    0  0.26038755700E+03 -0.12529193342E+02  0.38043192036E+03  0.46802799197E+03  0.79769008470E+02 0.  0.
         23    2    1    2    0    0  0.91229281722E+02 -0.96118536233E+01  0.22607714001E+03  0.26051324289E+03  0.91329660647E+02 0.  0.
         11    1    3    3    0    0  0.24280618567E+03 -0.28644178038E+02  0.36600848123E+03  0.44015626892E+03  0.00000000000E+00 0. -1.
        -12    1    3    3    0    0  0.17581371328E+02  0.16114984696E+02  0.14423439130E+02  0.27871723052E+02  0.00000000000E+00 0.  1.
        -13    1    4    4    0    0  0.33497248386E+02 -0.48871288478E+02  0.93888803979E+02  0.11102061070E+03  0.00000000000E+00 0.  1.
         13    1    4    4    0    0  0.57732033336E+02  0.39259434854E+02  0.13218833603E+03  0.14949263220E+03  0.00000000000E+00 0. -1.
          2    1    1    2  501    0 -0.35161683872E+03  0.22141046966E+02 -0.29115431597E+03  0.45705083191E+03  0.00000000000E+00 0. -1.
<scales pt_clust_5="13000.00000" pt_clust_6="13000.00000" pt_clust_7="13000.00000" pt_clust_8="13000.00000" pt_clust_9="352.31325"></scales>
<clustering>
<clus scale="   79.769">  5  6 -1 -1</clus>
<clus scale="   91.330">  7  8 -1 -1</clus>
<clus scale="  100.229">  5  7 -1 -1</clus>
<clus scale="  352.313">  2  9  1 -1</clus>
<clus scale="  352.313">  2  5  1 -1</clus>
</clustering>
</event>
<event>
 9    1  0.7586638E-005  0.1109103E+03  0.7546771E-02  0.1262993E+00
         21   -1    0    0  501  502  0.00000000000E+00  0.00000000000E+00  0.61113942851E+02  0.61113942851E+02  0.00000000000E+00 0.  1.
          3   -1    0    0  502    0 -0.00000000000E+00 -0.00000000000E+00 -0.34897001723E+03  0.34897001723E+03  0.00000000000E+00 0. -1.
         23    2    1    2    0    0  0.34827008329E+01  0.48603610921E+02 -0.19119668463E+03  0.21814832431E+03  0.93048798941E+02 0.  0.
        -24    2    1    2    0    0 -0.17994585680E+02 -0.82499404311E+02 -0.10016784504E+03  0.15489742753E+03  0.82641751258E+02 0.  0.
         13    1    4    4    0    0 -0.19787682728E+02 -0.33258613625E+02 -0.98238307722E+02  0.10558623429E+03  0.00000000000E+00 0. -1.
        -14    1    4    4    0    0  0.17930970476E+01 -0.49240790686E+02 -0.19295373151E+01  0.49311193239E+02  0.00000000000E+00 0.  1.
        -13    1    3    3    0    0  0.22114344330E+02 -0.21399413278E+02 -0.76905040801E+02  0.82833353273E+02  0.00000000000E+00 0.  1.
         13    1    3    3    0    0 -0.18631643498E+02  0.70003024200E+02 -0.11429164383E+03  0.13531497103E+03  0.00000000000E+00 0. -1.
          4    1    1    2  501    0  0.14511884848E+02  0.33895793389E+02  0.35084552885E+01  0.37038208243E+02  0.00000000000E+00 0. -1.
<scales pt_clust_5="13000.00000" pt_clust_6="13000.00000" pt_clust_7="13000.00000" pt_clust_8="13000.00000" pt_clust_9="36.87166"></scales>
<clustering>
<clus scale="   36.872">  1  9  2 -1</clus>
<clus scale="   82.642">  5  6 -1 -1</clus>
<clus scale="   93.049">  7  8 -1 -1</clus>
<clus scale="  102.336">  1  5  2 -1</clus>
<clus scale="   36.872">  1  5  2 -1</clus>
</clustering>
</event>
<event>
 9    1  0.7586638E-005  0.9809910E+02  0.7546771E-02  0.1288174E+00
         -2   -1    0    0    0  501 -0.00000000000E+00  0.00000000000E+00  0.11965590329E+03  0.11965590329E+03  0.00000000000E+00 0.  1.
         21   -1    0    0  501  502  0.00000000000E+00 -0.00000000000E+00 -0.99561353044E+02  0.99561353044E+02  0.00000000000E+00 0.  1.
         23    2    1    2    0    0  0.29679855776E+01 -0.38193742058E+02  0.11038474483E+02  0.10166968394E+03  0.93527032682E+02 0.  0.
        -24    2    1    2    0    0 -0.15648594596E+02  0.17651935597E+02 -0.49495569187E+01  0.89638408946E+02  0.86336996135E+02 0.  0.
         11    1    4    4    0    0  0.31072865605E+02 -0.55388002351E+01  0.13476180662E+02  0.34319218088E+02  0.00000000000E+00 0. -1.
        -12    1    4    4    0    0 -0.46721460201E+02  0.23190735832E+02 -0.18425737581E+02  0.55319190858E+02  0.00000000000E+00 0.  1.
        -11    1    3    3    0    0 -0.37568184201E+02 -0.36199767360E+02  0.26156053355E+02  0.58360352537E+02  0.00000000000E+00 0. -1.
         11    1    3    3    0    0  0.40536169779E+02 -0.19939746982E+01 -0.15117578873E+02  0.43309331401E+02  0.00000000000E+00 0.  1.
         -1    1    1    2    0  502  0.12680609018E+02  0.20541806461E+02  0.14005632685E+02  0.27909163453E+02  0.00000000000E+00 0.  1.
<scales pt_clust_5="13000.00000" pt_clust_6="13000.00000" pt_clust_7="13000.00000" pt_clust_8="13000.00000" pt_clust_9="24.14051"></scales>
<clustering>
<clus scale="   24.141">  2  9  1 -1</clus>
<clus scale="   86.337">  5  6 -1 -1</clus>
<clus scale="   91.270">  2  5  1 -1</clus>
<clus scale="   93.527">  7  8 -1 -1</clus>
<clus scale="   24.141">  2  5  1 -1</clus>
</clustering>
</event>
<event>
 9    1  0.7586638E-005  0.9161449E+02  0.7546771E-02  0.1303610E+00
          3   -1    0    0  502    0 -0.00000000000E+00  0.00000000000E+00  0.36537393504E+03  0.36537393504E+03  0.00000000000E+00 0. -1.
         21   -1    0    0  501  502  0.00000000000E+00 -0.00000000000E+00 -0.86828478637E+02  0.86828478637E+02  0.00000000000E+00 0. -1.
         23    2    1    2    0    0  0.31264238221E+02 -0.20322095331E+01  0.28360581221E+03  0.29873722623E+03  0.88487802273E+02 0.  0.
        -24    2    1    2    0    0  0.30860574701E+02 -0.61196790059E+01 -0.20277290729E+02  0.88986502778E+02  0.80731676653E+02 0.  0.
         11    1    4    4    0    0  0.47056435500E+02 -0.19243674480E+02  0.10404663057E+02  0.51893006685E+02  0.00000000000E+00 0. -1.
        -12    1    4    4    0    0 -0.16195860799E+02  0.13123995474E+02 -0.30681953786E+02  0.37093496093E+02  0.00000000000E+00 0.  1.
        -11    1    3    3    0    0  0.52242435367E+02 -0.28962032592E+02  0.17991999587E+03  0.18957657107E+03  0.00000000000E+00 0. -1.
         11    1    3    3    0    0 -0.20978197146E+02  0.26929823059E+02  0.10368581634E+03  0.10916065516E+03  0.00000000000E+00 0.  1.
          4    1    1    2  501    0 -0.62124812923E+02  0.81518885390E+01  0.15216934917E+02  0.64478684662E+02  0.00000000000E+00 0. -1.
<scales pt_clust_5="13000.00000" pt_clust_6="13000.00000" pt_clust_7="13000.00000" pt_clust_8="13000.00000" pt_clust_9="62.65737"></scales>
<clustering>
<clus scale="   62.657">  2  9  1 -1</clus>
<clus scale="   80.732">  5  6 -1 -1</clus>
<clus scale="   84.147">  2  5  1 -1</clus>
<clus scale="   88.488">  7  8 -1 -1</clus>
<clus scale="   62.657">  2  5  1 -1</clus>
</clustering>
</event>
<event>
 9    1  0.7586638E-005  0.2271749E+03  0.7546771E-02  0.1129585E+00
         -2   -1    0    0    0  501 -0.00000000000E+00  0.00000000000E+00  0.41993445701E+03  0.41993445701E+03  0.00000000000E+00 0.  1.
         21   -1    0    0  501  502  0.00000000000E+00 -0.00000000000E+00 -0.27974716993E+03  0.27974716993E+03  0.00000000000E+00 0. -1.
         23    2    1    2    0    0  0.18034284495E+03  0.16853283906E+03  0.24845849297E+02  0.26528221982E+03  0.93970635612E+02 0.  0.
        -24    2    1    2    0    0 -0.15797051035E+03 -0.56354845275E+02 -0.84319760401E+02  0.20429287156E+03  0.80592832511E+02 0.  0.
         13    1    4    4    0    0 -0.16284718465E+03 -0.46930567238E+02 -0.90384863337E+02  0.19207057872E+03  0.00000000000E+00 0. -1.
        -14    1    4    4    0    0  0.48766743008E+01 -0.94242780371E+01  0.60651029353E+01  0.12222292844E+02  0.00000000000E+00 0.  1.
        -13    1    3    3    0    0 -0.63254694888E+01  0.28702386571E+02 -0.60633678933E+01  0.30010048140E+02  0.00000000000E+00 0.  1.
         13    1    3    3    0    0  0.18666831443E+03  0.13983045249E+03  0.30909217190E+02  0.23527217168E+03  0.00000000000E+00 0. -1.
         -1    1    1    2    0  502 -0.22372334597E+02 -0.11217799379E+03  0.19966119818E+03  0.23010653556E+03  0.00000000000E+00 0.  1.
<scales pt_clust_5="13000.00000" pt_clust_6="13000.00000" pt_clust_7="13000.00000" pt_clust_8="13000.00000" pt_clust_9="114.38722"></scales>
<clustering>
<clus scale="   80.593">  5  6 -1 -1</clus>
<clus scale="   93.971">  7  8 -1 -1</clus>
<clus scale="  114.387">  2  9  1 -1</clus>
<clus scale="  221.976">  2  5  1 -1</clus>
<clus scale="  114.387">  2  5  1 -1</clus>
</clustering>
</event>
<event>
 9    1  0.7586638E-005  0.1575251E+03  0.7546771E-02  0.1217271E+00
          1   -1    0    0  502    0 -0.00000000000E+00  0.00000000000E+00  0.52113727913E+03  0.52113727913E+03  0.00000000000E+00 0. -1.
         21   -1    0    0  501  502  0.00000000000E+00 -0.00000000000E+00 -0.12263078208E+03  0.12263078208E+03  0.00000000000E+00 0. -1.
        -24    2    1    2    0    0  0.20094986226E+02 -0.35615267373E+02 -0.21070862124E+02  0.92836380075E+02  0.80637190510E+02 0.  0.
         23    2    1    2    0    0  0.98612965901E+02 -0.10527465717E+02  0.39774294646E+03  0.42171298552E+03  0.99030531255E+02 0.  0.
         13    1    3    3    0    0  0.38676594181E+02 -0.46929563581E+02  0.23650743246E+01  0.60859316887E+02  0.00000000000E+00 0. -1.
        -14    1    3    3    0    0 -0.18581607956E+02  0.11314296208E+02 -0.23435936448E+02  0.31977063188E+02  0.00000000000E+00 0.  1.
        -13    1    4    4    0    0 -0.25705966031E+01  0.23195615542E+02  0.25840382915E+02  0.34819103039E+02  0.00000000000E+00 0.  1.
         13    1    4    4    0    0  0.10118356250E+03 -0.33723081260E+02  0.37190256355E+03  0.38689388248E+03  0.00000000000E+00 0. -1.
          2    1    1    2  501    0 -0.11870795213E+03  0.46142733090E+02  0.21834412715E+02  0.12921869561E+03  0.00000000000E+00 0. -1.
<scales pt_clust_5="13000.00000" pt_clust_6="13000.00000" pt_clust_7="13000.00000" pt_clust_8="13000.00000" pt_clust_9="122.50356"></scales>
<clustering>
<clus scale="   80.637">  5  6 -1 -1</clus>
<clus scale="   90.414">  1  5  2 -1</clus>
<clus scale="   99.031">  7  8 -1 -1</clus>
<clus scale="  122.504">  2  9  1 -1</clus>
<clus scale="  122.504">  2  5  1 -1</clus>
</clustering>
</event>
<event>
 9    1  0.7586638E-005  0.1051364E+03  0.7546771E-02  0.1275020E+00
         21   -1    0    0  501  502  0.00000000000E+00  0.00000000000E+00  0.15103244211E+03  0.15103244211E+03  0.00000000000E+00 0. -1.
         -4   -1    0    0    0  501 -0.00000000000E+00 -0.00000000000E+00 -0.23438871276E+03  0.23438871276E+03  0.00000000000E+00 0.  1.
         23    2    1    2    0    0 -0.30503120006E+02  0.43964934760E+02 -0.18491680404E+03  0.21368116345E+03  0.92747287696E+02 0.  0.
        -24    2    1    2    0    0  0.28643247962E+02 -0.16314493253E+01  0.95977901921E+02  0.12899950843E+03  0.81277415290E+02 0.  0.
         11    1    4    4    0    0  0.36769682482E+02 -0.35184317970E+02  0.65508666990E+02  0.82953789737E+02  0.00000000000E+00 0. -1.
        -12    1    4    4    0    0 -0.81264345209E+01  0.33552868645E+02  0.30469234931E+02  0.46045718689E+02  0.00000000000E+00 0.  1.
        -13    1    3    3    0    0 -0.59226262933E+02  0.36346492477E+02 -0.16160579275E+03  0.17591262032E+03  0.00000000000E+00 0.  1.
         13    1    3    3    0    0  0.28723142927E+02  0.76184422831E+01 -0.23311011290E+02  0.37768543125E+02  0.00000000000E+00 0. -1.
         -3    1    1    2    0  502  0.18598720447E+01 -0.42333485435E+02  0.55826314673E+01  0.42740483001E+02  0.00000000000E+00 0.  1.
<scales pt_clust_5="13000.00000" pt_clust_6="13000.00000" pt_clust_7="13000.00000" pt_clust_8="13000.00000" pt_clust_9="42.37432"></scales>
<clustering>
<clus scale="   42.374">  1  9  2 -1</clus>
<clus scale="   81.277">  5  6 -1 -1</clus>
<clus scale="   92.747">  7  8 -1 -1</clus>
<clus scale="   95.172">  1  5  2 -1</clus>
<clus scale="   42.374">  1  5  2 -1</clus>
</clustering>
</event>
<event>
 9    1  0.7586638E-005  0.1052522E+03  0.7546771E-02  0.1275230E+00
          1   -1    0    0  502    0 -0.00000000000E+00  0.00000000000E+00  0.40804948760E+03  0.40804948760E+03  0.00000000000E+00 0. -1.
         21   -1    0    0  501  502  0.00000000000E+00 -0.00000000000E+00 -0.67405207163E+02  0.67405207163E+02  0.00000000000E+00 0.  1.
        -24    2    1    2    0    0 -0.20519981864E+02  0.47014339063E+02  0.23131968852E+03  0.24962074940E+03  0.78551273085E+02 0.  0.
         23    2    1    2    0    0  0.77300877467E+02 -0.24053282365E+02  0.29977962834E+02  0.12559838392E+03  0.91226584601E+02 0.  0.
         13    1    3    3    0    0 -0.40162462573E+02  0.19390127567E+02  0.58785084796E+02  0.73788119921E+02  0.00000000000E+00 0. -1.
        -14    1    3    3    0    0  0.19642480709E+02  0.27624211496E+02  0.17253460372E+03  0.17583262948E+03  0.00000000000E+00 0.  1.
        -11    1    4    4    0    0  0.47389037583E+02 -0.31428531317E+02 -0.25360294042E+02  0.62262492543E+02  0.00000000000E+00 0.  1.
         11    1    4    4    0    0  0.29911839884E+02  0.73752489521E+01  0.55338256877E+02  0.63335891377E+02  0.00000000000E+00 0. -1.
          2    1    1    2  501    0 -0.56780895603E+02 -0.22961056699E+02  0.79346629085E+02  0.10023556144E+03  0.00000000000E+00 0. -1.
<scales pt_clust_5="13000.00000" pt_clust_6="13000.00000" pt_clust_7="13000.00000" pt_clust_8="13000.00000" pt_clust_9="61.24773"></scales>
<clustering>
<clus scale="   61.248">  2  9  1 -1</clus>
<clus scale="   78.551">  5  6 -1 -1</clus>
<clus scale="   91.227">  7  8 -1 -1</clus>
<clus scale="   94.478">  1  5  2 -1</clus>
<clus scale="   61.248">  2  5  1 -1</clus>
</clustering>
</event>
<event>
 9    1  0.7586638E-005  0.1293590E+03  0.7546771E-02  0.1232439E+00
         21   -1    0    0  501  502  0.00000000000E+00  0.00000000000E+00  0.42384171220E+02  0.42384171220E+02  0.00000000000E+00 0. -1.
          1   -1    0    0  502    0 -0.00000000000E+00 -0.00000000000E+00 -0.87026229688E+03  0.87026229688E+03  0.00000000000E+00 0. -1.
         23    2    1    2    0    0 -0.38636075367E+01  0.84703026871E+02 -0.35710752813E+03  0.37898407587E+03  0.94411931932E+02 0.  0.
        -24    2    1    2    0    0 -0.60779752483E+02 -0.93969583709E+02 -0.13867228964E+03  0.19520424242E+03  0.79688338985E+02 0.  0.
         11    1    4    4    0    0 -0.30744204836E+02 -0.64776962381E+02 -0.28183166310E+02  0.77042532730E+02  0.00000000000E+00 0. -1.
        -12    1    4    4    0    0 -0.30035547648E+02 -0.29192621328E+02 -0.11048912333E+03  0.11816170969E+03  0.00000000000E+00 0.  1.
        -13    1    3    3    0    0  0.33810815500E+02  0.82498728325E+02 -0.25157630256E+03  0.26690793812E+03  0.00000000000E+00 0.  1.
         13    1    3    3    0    0 -0.37674423037E+02  0.22042985461E+01 -0.10553122557E+03  0.11207613775E+03  0.00000000000E+00 0. -1.
          2    1    1    2  501    0  0.64643360020E+02  0.92665568376E+01 -0.33209830790E+03  0.33845814982E+03  0.00000000000E+00 0. -1.
<scales pt_clust_5="13000.00000" pt_clust_6="13000.00000" pt_clust_7="13000.00000" pt_clust_8="13000.00000" pt_clust_9="65.30419"></scales>
<clustering>
<clus scale="   65.304">  1  9  2 -1</clus>
<clus scale="   79.688">  5  6 -1 -1</clus>
<clus scale="   94.412">  7  8 -1 -1</clus>
<clus scale="  119.039">  1  5  2 -1</clus>
<clus scale="   65.304">  1  5  2 -1</clus>
</clustering>
</event>
<event>
 9    1  0.7586638E-005  0.1450934E+03  0.7546771E-02  0.1209683E+00
          1   -1    0    0  502    0 -0.00000000000E+00  0.00000000000E+00  0.67118270384E+03  0.67118270384E+03  0.00000000000E+00 0. -1.
         21   -1    0    0  501  502  0.00000000000E+00 -0.00000000000E+00 -0.49368171504E+02  0.49368171504E+02  0.00000000000E+00 0. -1.
        -24    2    1    2    0    0 -0.92404701469E+02 -0.33707144394E+02  0.32508455622E+03  0.34894936423E+03  0.80068031488E+02 0.  0.
         23    2    1    2    0    0  0.13062603567E+03  0.55495522578E+02  0.18594672713E+03  0.25240196385E+03  0.94803226753E+02 0.  0.
         11    1    3    3    0    0 -0.88367173088E+02 -0.47366065687E+02  0.20693444065E+03  0.22994382833E+03  0.00000000000E+00 0. -1.
        -12    1    3    3    0    0 -0.40375283812E+01  0.13658921293E+02  0.11815011557E+03  0.11900553590E+03  0.00000000000E+00 0.  1.
        -11    1    4    4    0    0 -0.10794544528E+02  0.16980908631E+02  0.43906799043E+02  0.48297830715E+02  0.00000000000E+00 0.  1.
         11    1    4    4    0    0  0.14142058020E+03  0.38514613946E+02  0.14203992809E+03  0.20410413314E+03  0.00000000000E+00 0. -1.
          2    1    1    2  501    0 -0.38221334206E+02 -0.21788378183E+02  0.11078324899E+03  0.11919954727E+03  0.00000000000E+00 0. -1.
<scales pt_clust_5="13000.00000" pt_clust_6="13000.00000" pt_clust_7="13000.00000" pt_clust_8="13000.00000" pt_clust_9="43.99552"></scales>
<clustering>
<clus scale="   43.996">  2  9  1 -1</clus>
<clus scale="   80.068">  5  6 -1 -1</clus>
<clus scale="   94.803">  7  8 -1 -1</clus>
<clus scale="  135.924">  1  5  2 -1</clus>
<clus scale="   43.996">  2  5  1 -1</clus>
</clustering>
</event>
<event>
 9    1  0.7586638E-005  0.2522829E+03  0.7546771E-02  0.1112004E+00
         21   -1    0    0  501  502  0.00000000000E+00  0.00000000000E+00  0.18495202204E+03  0.18495202204E+03  0.00000000000E+00 0. -1.
          1   -1    0    0  502    0 -0.00000000000E+00 -0.00000000000E+00 -0.48987150852E+03  0.48987150852E+03  0.00000000000E+00 0. -1.
        -24    2    1    2    0    0 -0.24471896334E+03  0.40199428737E+02 -0.17309438214E+03  0.31303698204E+03  0.80790605332E+02 0.  0.
         23    2    1    2    0    0  0.21624346638E+03 -0.52383353642E+02 -0.11890140502E+02  0.23791686899E+03  0.83413479859E+02 0.  0.
         11    1    3    3    0    0 -0.21792205454E+03  0.60549082497E+02 -0.15943010512E+03  0.27672038534E+03  0.00000000000E+00 0. -1.
        -12    1    3    3    0    0 -0.26796908798E+02 -0.20349653761E+02 -0.13664277020E+02  0.36316596699E+02  0.00000000000E+00 0.  1.
        -13    1    4    4    0    0  0.79497081344E+02 -0.33516992176E+02 -0.43025674060E+02  0.96407382160E+02  0.00000000000E+00 0.  1.
         13    1    4    4    0    0  0.13674638503E+03 -0.18866361466E+02  0.31135533558E+02  0.14150948683E+03  0.00000000000E+00 0. -1.
          2    1    1    2  501    0  0.28475496965E+02  0.12183924905E+02 -0.11993496384E+03  0.12386967953E+03  0.00000000000E+00 0. -1.
<scales pt_clust_5="13000.00000" pt_clust_6="13000.00000" pt_clust_7="13000.00000" pt_clust_8="13000.00000" pt_clust_9="30.97262"></scales>
<clustering>
<clus scale="   30.973">  1  9  2 -1</clus>
<clus scale="   80.791">  5  6 -1 -1</clus>
<clus scale="   83.413">  7  8 -1 -1</clus>
<clus scale="  251.428">  2  5  1 -1</clus>
<clus scale="   30.973">  1  5  2 -1</clus>
</clustering>
</event>
<event>
 9    1  0.7586638E-005  0.1090400E+03  0.7546771E-02  0.1266656E+00
          1   -1    0    0  502    0 -0.00000000000E+00  0.00000000000E+00  0.42648177207E+03  0.42648177207E+03  0.00000000000E+00 0. -1.
         21   -1    0    0  501  502  0.00000000000E+00 -0.00000000000E+00 -0.59542934867E+02  0.59542934867E+02  0.00000000000E+00 0.  1.
        -24    2    1    2    0    0  0.33996280366E+01  0.61177034824E+02  0.34454857498E+03  0.35924509941E+03  0.81173480105E+02 0.  0.
         23    2    1    2    0    0  0.11167442673E+02 -0.44906117256E+02  0.16035787639E+02  0.10403490144E+03  0.91786944004E+02 0.  0.
         13    1    3    3    0    0 -0.94751014878E+01  0.71015709741E+02  0.17751985799E+03  0.19143225580E+03  0.00000000000E+00 0. -1.
        -14    1    3    3    0    0  0.12874729524E+02 -0.98386749167E+01  0.16702871698E+03  0.16781284361E+03  0.00000000000E+00 0.  1.
        -13    1    4    4    0    0 -0.28281173803E+02 -0.37520723451E+02  0.36017214412E+02  0.59201935897E+02  0.00000000000E+00 0. -1.
         13    1    4    4    0    0  0.39448616476E+02 -0.73853938057E+01 -0.19981426773E+02  0.44832965544E+02  0.00000000000E+00 0.  1.
          2    1    1    2  501    0 -0.14567070709E+02 -0.16270917568E+02  0.63544745874E+01  0.22744706084E+02  0.00000000000E+00 0. -1.
<scales pt_clust_5="13000.00000" pt_clust_6="13000.00000" pt_clust_7="13000.00000" pt_clust_8="13000.00000" pt_clust_9="21.83901"></scales>
<clustering>
<clus scale="   21.839">  2  9  1 -1</clus>
<clus scale="   81.173">  5  6 -1 -1</clus>
<clus scale="   91.787">  7  8 -1 -1</clus>
<clus scale="  100.270">  1  5  2 -1</clus>
<clus scale="   21.839">  2  5  1 -1</clus>
</clustering>
</event>
<event>
 9    1  0.7586638E-005  0.1457297E+03  0.7546771E-02  0.1207931E+00
         21   -1    0    0  501  502  0.00000000000E+00  0.00000000000E+00  0.51910609584E+02  0.51910609584E+02  0.00000000000E+00 0. -1.
          3   -1    0    0  502    0 -0.00000000000E+00 -0.00000000000E+00 -0.75208285780E+03  0.75208285780E+03  0.00000000000E+00 0. -1.
         23    2    1    2    0    0 -0.13166813916E+03  0.25797203069E+02 -0.55702440325E+03  0.58020372353E+03  0.91423084731E+02 0.  0.
        -24    2    1    2    0    0  0.69876477222E+02 -0.55236848253E+01 -0.92049760262E+02  0.14108400471E+03  0.80736019589E+02 0.  0.
         13    1    4    4    0    0 -0.70574396880E+01 -0.25355413735E+02 -0.14445213980E+02  0.30022802460E+02  0.00000000000E+00 0. -1.
        -14    1    4    4    0    0  0.76933916910E+02  0.19831728910E+02 -0.77604546282E+02  0.11106120226E+03  0.00000000000E+00 0.  1.
        -11    1    3    3    0    0 -0.58097921960E+02  0.27092870887E+01 -0.92090204828E+02  0.10891884409E+03  0.00000000000E+00 0.  1.
         11    1    3    3    0    0 -0.73570217199E+02  0.23087915980E+02 -0.46493419843E+03  0.47128487944E+03  0.00000000000E+00 0. -1.
          4    1    1    2  501    0  0.61791661937E+02 -0.20273518244E+02 -0.51098084704E+02  0.82705739144E+02  0.00000000000E+00 0. -1.
<scales pt_clust_5="13000.00000" pt_clust_6="13000.00000" pt_clust_7="13000.00000" pt_clust_8="13000.00000" pt_clust_9="65.03249"></scales>
<clustering>
<clus scale="   65.032">  1  9  2 -1</clus>
<clus scale="   80.736">  5  6 -1 -1</clus>
<clus scale="   91.423">  7  8 -1 -1</clus>
<clus scale="  139.274">  1  5  2 -1</clus>
<clus scale="   65.032">  1  5  2 -1</clus>
</clustering>
</event>
<event>
 9    1  0.7586638E-005  0.3681353E+03  0.7546771E-02  0.1055408E+00
         21   -1    0    0  501  502  0.00000000000E+00  0.00000000000E+00  0.41205730232E+03  0.41205730232E+03  0.00000000000E+00 0. -1.
          1   -1    0    0  502    0 -0.00000000000E+00 -0.00000000000E+00 -0.27324314448E+03  0.27324314448E+03  0.00000000000E+00 0. -1.
        -24    2    1    2    0    0 -0.21204508511E+03 -0.10342648986E+03  0.60517808317E+02  0.25672900149E+03  0.81161679138E+02 0.  0.
         23    2    1    2    0    0 -0.40293118322E+02 -0.59136426801E+02 -0.15163050855E+02  0.11418962284E+03  0.87685229618E+02 0.  0.
         11    1    3    3    0    0 -0.14914529969E+03 -0.54569549037E+02  0.36349977344E+01  0.15885644246E+03  0.00000000000E+00 0. -1.
        -12    1    3    3    0    0 -0.62899785418E+02 -0.48856940818E+02  0.56882810583E+02  0.97872559032E+02  0.00000000000E+00 0.  1.
        -13    1    4    4    0    0 -0.56156438895E+01 -0.66120937973E+02  0.14616526521E+02  0.67949663298E+02  0.00000000000E+00 0. -1.
         13    1    4    4    0    0 -0.34677474433E+02  0.69845111724E+01 -0.29779577376E+02  0.46239959538E+02  0.00000000000E+00 0.  1.
          2    1    1    2  501    0  0.25233820343E+03  0.16256291666E+03  0.93459400372E+02  0.31438182247E+03  0.00000000000E+00 0. -1.
<scales pt_clust_5="13000.00000" pt_clust_6="13000.00000" pt_clust_7="13000.00000" pt_clust_8="13000.00000" pt_clust_9="300.16874"></scales>
<clustering>
<clus scale="   81.162">  5  6 -1 -1</clus>
<clus scale="   87.685">  7  8 -1 -1</clus>
<clus scale="  103.345">  5  7 -1 -1</clus>
<clus scale="  300.169">  1  9  2 -1</clus>
<clus scale="  300.169">  1  5  2 -1</clus>
</clustering>
</event>
<event>
 9    1  0.7586638E-005  0.1738452E+03  0.7546771E-02  0.1176083E+00
          1   -1    0    0  502    0 -0.00000000000E+00  0.00000000000E+00  0.46387506500E+03  0.46387506500E+03  0.00000000000E+00 0. -1.
         21   -1    0    0  501  502  0.00000000000E+00 -0.00000000000E+00 -0.86885012549E+02  0.86885012549E+02  0.00000000000E+00 0.  1.
         23    2    1    2    0    0  0.14184482113E+03  0.50643627666E+02  0.28902840917E+03  0.33997530845E+03  0.96752564539E+02 0.  0.
        -24    2    1    2    0    0 -0.13046522078E+03 -0.22178292799E+02  0.51878780952E+02  0.16343771483E+03  0.80668632152E+02 0.  0.
         13    1    4    4    0    0 -0.51920550541E+02  0.28070024607E+02  0.35180058605E+02  0.68711762991E+02  0.00000000000E+00 0. -1.
        -14    1    4    4    0    0 -0.78544670237E+02 -0.50248317405E+02  0.16698722347E+02  0.94725951844E+02  0.00000000000E+00 0.  1.
        -13    1    3    3    0    0  0.42755111953E+02  0.60928565121E+02  0.85407641920E+02  0.11329057747E+03  0.00000000000E+00 0.  1.
         13    1    3    3    0    0  0.99089709178E+02 -0.10284937456E+02  0.20362076725E+03  0.22668473098E+03  0.00000000000E+00 0. -1.
          2    1    1    2  501    0 -0.11379600353E+02 -0.28465334867E+02  0.36082862326E+02  0.47347054258E+02  0.00000000000E+00 0. -1.
<scales pt_clust_5="13000.00000" pt_clust_6="13000.00000" pt_clust_7="13000.00000" pt_clust_8="13000.00000" pt_clust_9="30.65569"></scales>
<clustering>
<clus scale="   30.656">  2  9  1 -1</clus>
<clus scale="   80.669">  5  6 -1 -1</clus>
<clus scale="   96.753">  7  8 -1 -1</clus>
<clus scale="  165.434">  2  5  1 -1</clus>
<clus scale="   30.656">  2  5  1 -1</clus>
</clustering>
</event>
<event>
 9    1  0.7586638E-005  0.1627552E+03  0.7546771E-02  0.1211625E+00
         21   -1    0    0  501  502  0.00000000000E+00  0.00000000000E+00  0.16606306283E+03  0.16606306283E+03  0.00000000000E+00 0. -1.
          1   -1    0    0  502    0 -0.00000000000E+00 -0.00000000000E+00 -0.29957112893E+03  0.29957112893E+03  0.00000000000E+00 0. -1.
        -24    2    1    2    0    0 -0.15858971723E+02  0.42258251490E+02 -0.13501090844E+03  0.16359904989E+03  0.80619085360E+02 0.  0.
         23    2    1    2    0    0 -0.58091695258E+02  0.96112001966E+02 -0.53137633973E+01  0.14499535614E+03  0.91560118179E+02 0.  0.
         11    1    3    3    0    0 -0.43823153772E+02  0.26748444346E+02 -0.11483280594E+03  0.12578760432E+03  0.00000000000E+00 0. -1.
        -12    1    3    3    0    0  0.27964182049E+02  0.15509807144E+02 -0.20178102497E+02  0.37811445565E+02  0.00000000000E+00 0.  1.
        -13    1    4    4    0    0  0.23715278821E+02  0.16152306341E+02  0.81078349779E+01  0.29816915295E+02  0.00000000000E+00 0.  1.
         13    1    4    4    0    0 -0.81806974080E+02  0.79959695625E+02 -0.13421598375E+02  0.11517844085E+03  0.00000000000E+00 0. -1.
          2    1    1    2  501    0  0.73950666982E+02 -0.13837025346E+03  0.68166057302E+01  0.15703978573E+03  0.00000000000E+00 0. -1.
<scales pt_clust_5="13000.00000" pt_clust_6="13000.00000" pt_clust_7="13000.00000" pt_clust_8="13000.00000" pt_clust_9="134.55858"></scales>
<clustering>
<clus scale="   80.619">  5  6 -1 -1</clus>
<clus scale="   91.560">  7  8 -1 -1</clus>
<clus scale="   92.394">  2  5  1 -1</clus>
<clus scale="  134.559">  1  9  2 -1</clus>
<clus scale="  134.559">  1  5  2 -1</clus>
</clustering>
</event>
<event>
 9    1  0.7586638E-005  0.1336740E+03  0.7546771E-02  0.1222450E+00
         -2   -1    0    0    0  501 -0.00000000000E+00  0.00000000000E+00  0.13798647043E+03  0.13798647043E+03  0.00000000000E+00 0.  1.
         21   -1    0    0  501  502  0.00000000000E+00 -0.00000000000E+00 -0.18907937034E+03  0.18907937034E+03  0.00000000000E+00 0. -1.
        -24    2    1    2    0    0 -0.90158867148E+02  0.29757443512E+02  0.27150369728E+02  0.13230229481E+03  0.88049008314E+02 0.  0.
         23    2    1    2    0    0  0.10751047364E+03 -0.11720451650E+02 -0.34798464973E+02  0.14462511383E+03  0.89496477354E+02 0.  0.
         11    1    3    3    0    0  0.14455672443E+02  0.16754560220E+02 -0.37569081385E+01  0.22445402930E+02  0.00000000000E+00 0. -1.
        -12    1    3    3    0    0 -0.10461453959E+03  0.13002883293E+02  0.30907277866E+02  0.10985689188E+03  0.00000000000E+00 0.  1.
        -13    1    4    4    0    0  0.82197060444E+02  0.16161447488E+02 -0.56610859297E+02  0.10110558106E+03  0.00000000000E+00 0. -1.
         13    1    4    4    0    0  0.25313413192E+02 -0.27881899138E+02  0.21812394324E+02  0.43519532777E+02  0.00000000000E+00 0.  1.
         -1    1    1    2    0  502 -0.17351606488E+02 -0.18036991862E+02 -0.43444804665E+02  0.50138432121E+02  0.00000000000E+00 0.  1.
<scales pt_clust_5="13000.00000" pt_clust_6="13000.00000" pt_clust_7="13000.00000" pt_clust_8="13000.00000" pt_clust_9="25.02821"></scales>
<clustering>
<clus scale="   25.028">  2  9  1 -1</clus>
<clus scale="   88.049">  5  6 -1 -1</clus>
<clus scale="   89.496">  7  8 -1 -1</clus>
<clus scale="  132.709">  1  5  2 -1</clus>
<clus scale="   25.028">  2  5  1 -1</clus>
</clustering>
</event>
<event>
 9    1  0.7586638E-005  0.1334564E+03  0.7546771E-02  0.1225403E+00
         -4   -1    0    0    0  501 -0.00000000000E+00  0.00000000000E+00  0.18485354546E+03  0.18485354546E+03  0.00000000000E+00 0.  1.
         21   -1    0    0  501  502  0.00000000000E+00 -0.00000000000E+00 -0.30818560545E+03  0.30818560545E+03  0.00000000000E+00 0.  1.
         23    2    1    2    0    0  0.11450859173E+02 -0.10872276201E+03  0.89708011334E+02  0.16901443150E+03  0.92555872881E+02 0.  0.
        -24    2    1    2    0    0  0.87090387923E+02  0.51614004643E+02 -0.99262422229E+02  0.16303670438E+03  0.80493461624E+02 0.  0.
         13    1    4    4    0    0  0.49219264404E+02  0.85276148674E+01 -0.18476123058E+01  0.49986696981E+02  0.00000000000E+00 0. -1.
        -14    1    4    4    0    0  0.37871123519E+02  0.43086389776E+02 -0.97414809924E+02  0.11305000740E+03  0.00000000000E+00 0.  1.
        -11    1    3    3    0    0  0.29828430878E+02 -0.23409002758E+02  0.69903311761E+02  0.79524774089E+02  0.00000000000E+00 0. -1.
         11    1    3    3    0    0 -0.18377571704E+02 -0.85313759249E+02  0.19804699573E+02  0.89489657414E+02  0.00000000000E+00 0.  1.
         -3    1    1    2    0  502 -0.98541247096E+02  0.57108757363E+02 -0.11377764909E+03  0.16098801502E+03  0.00000000000E+00 0.  1.
<scales pt_clust_5="13000.00000" pt_clust_6="13000.00000" pt_clust_7="13000.00000" pt_clust_8="13000.00000" pt_clust_9="113.89376"></scales>
<clustering>
<clus scale="   80.493">  5  6 -1 -1</clus>
<clus scale="   92.556">  7  8 -1 -1</clus>
<clus scale="  113.894">  2  9  1 -1</clus>
<clus scale="  125.392">  2  5  1 -1</clus>
<clus scale="  113.894">  2  5  1 -1</clus>
</clustering>
</event>
<event>
 9    1  0.7586638E-005  0.1030611E+03  0.7546771E-02  0.1279896E+00
          1   -1    0    0  502    0 -0.00000000000E+00  0.00000000000E+00  0.41870921615E+03  0.41870921615E+03  0.00000000000E+00 0. -1.
         21   -1    0    0  501  502  0.00000000000E+00 -0.00000000000E+00 -0.63165011816E+02  0.63165011816E+02  0.00000000000E+00 0.  1.
         23    2    1    2    0    0  0.19378222989E+02  0.42891391622E+02  0.32265646639E+03  0.33891202795E+03  0.92406603580E+02 0.  0.
        -24    2    1    2    0    0 -0.44302466053E+02 -0.21946176699E+02  0.49697155257E+02  0.10632237971E+03  0.79939339611E+02 0.  0.
         11    1    4    4    0    0  0.27439448904E-01 -0.42684119932E+02  0.11405192384E+02  0.44181594138E+02  0.00000000000E+00 0. -1.
        -12    1    4    4    0    0 -0.44329905502E+02  0.20737943233E+02  0.38291962873E+02  0.62140785576E+02  0.00000000000E+00 0.  1.
        -13    1    3    3    0    0 -0.18902234272E+02 -0.20646548394E+02  0.64560883040E+02  0.70368189120E+02  0.00000000000E+00 0.  1.
         13    1    3    3    0    0  0.38280457261E+02  0.63537940017E+02  0.25809558335E+03  0.26854383883E+03  0.00000000000E+00 0. -1.
          2    1    1    2  501    0  0.24924243065E+02 -0.20945214923E+02 -0.16809417319E+02  0.36639820294E+02  0.00000000000E+00 0. -1.
<scales pt_clust_5="13000.00000" pt_clust_6="13000.00000" pt_clust_7="13000.00000" pt_clust_8="13000.00000" pt_clust_9="32.55641"></scales>
<clustering>
<clus scale="   32.556">  2  9  1 -1</clus>
<clus scale="   79.939">  5  6 -1 -1</clus>
<clus scale="   92.048">  2  5  1 -1</clus>
<clus scale="   92.407">  7  8 -1 -1</clus>
<clus scale="   32.556">  2  5  1 -1</clus>
</clustering>
</event>
<event>
 9    1  0.7586638E-005  0.2848987E+03  0.7546771E-02  0.1136702E+00
         21   -1    0    0  501  502  0.00000000000E+00  0.00000000000E+00  0.11426715275E+03  0.11426715275E+03  0.00000000000E+00 0. -1.
          3   -1    0    0  502    0 -0.00000000000E+00 -0.00000000000E+00 -0.10437674170E+04  0.10437674170E+04  0.00000000000E+00 0. -1.
         23    2    1    2    0    0  0.10330036620E+02  0.91226100997E+01 -0.29740826705E+03  0.31208767643E+03  0.93579425073E+02 0.  0.
        -24    2    1    2    0    0 -0.50489357422E+02  0.26544706057E+03 -0.36642446581E+03  0.46178480209E+03  0.77246340457E+02 0.  0.
         11    1    4    4    0    0 -0.23292598223E+02  0.23011025749E+03 -0.33559162224E+03  0.40757209504E+03  0.00000000000E+00 0. -1.
        -12    1    4    4    0    0 -0.27196759198E+02  0.35336803083E+02 -0.30832843566E+02  0.54212707047E+02  0.00000000000E+00 0.  1.
        -13    1    3    3    0    0  0.47677586499E+02  0.24980767352E+02 -0.17923994691E+03  0.18714740063E+03  0.00000000000E+00 0. -1.
         13    1    3    3    0    0 -0.37347549879E+02 -0.15858157252E+02 -0.11816832014E+03  0.12494027581E+03  0.00000000000E+00 0.  1.
          4    1    1    2  501    0  0.40159320802E+02 -0.27456967067E+03 -0.26566753135E+03  0.38416209120E+03  0.00000000000E+00 0. -1.
<scales pt_clust_5="13000.00000" pt_clust_6="13000.00000" pt_clust_7="13000.00000" pt_clust_8="13000.00000" pt_clust_9="274.22668"></scales>
<clustering>
<clus scale="   77.246">  5  6 -1 -1</clus>
<clus scale="   93.579">  7  8 -1 -1</clus>
<clus scale="   94.589">  2  7  1 -1</clus>
<clus scale="  274.227">  1  9  2 -1</clus>
<clus scale="  274.227">  1  5  2 -1</clus>
</clustering>
</event>
<event>
 9    1  0.7586638E-005  0.1301937E+03  0.7546771E-02  0.1229997E+00
          1   -1    0    0  502    0 -0.00000000000E+00  0.00000000000E+00  0.32643056645E+03  0.32643056645E+03  0.00000000000E+00 0. -1.
         21   -1    0    0  501  502  0.00000000000E+00 -0.00000000000E+00 -0.26120907607E+03  0.26120907607E+03  0.00000000000E+00 0. -1.
         23    2    1    2    0    0  0.76282652243E+02  0.50175887388E+02  0.22760271679E+03  0.26201522002E+03  0.92262213936E+02 0.  0.
        -24    2    1    2    0    0 -0.60146060970E+02 -0.76253728760E+02  0.30441270696E+02  0.13037852938E+03  0.81484416686E+02 0.  0.
         11    1    4    4    0    0 -0.17205787688E+02 -0.81581349321E+02  0.17236909473E+02  0.85139102269E+02  0.00000000000E+00 0. -1.
        -12    1    4    4    0    0 -0.42940273282E+02  0.53276205609E+01  0.13204361222E+02  0.45239427115E+02  0.00000000000E+00 0.  1.
        -11    1    3    3    0    0  0.97626015204E+02  0.35786691782E+02  0.17858152187E+03  0.20664676650E+03  0.00000000000E+00 0. -1.
         11    1    3    3    0    0 -0.21343362961E+02  0.14389195606E+02  0.49021194924E+02  0.55368453513E+02  0.00000000000E+00 0.  1.
          2    1    1    2  501    0 -0.16136591273E+02  0.26077841372E+02 -0.19282249711E+03  0.19524589312E+03  0.00000000000E+00 0. -1.
<scales pt_clust_5="13000.00000" pt_clust_6="13000.00000" pt_clust_7="13000.00000" pt_clust_8="13000.00000" pt_clust_9="30.66665"></scales>
<clustering>
<clus scale="   30.667">  2  9  1 -1</clus>
<clus scale="   81.484">  5  6 -1 -1</clus>
<clus scale="   92.262">  7  8 -1 -1</clus>
<clus scale="  122.792">  2  5  1 -1</clus>
<clus scale="   30.667">  2  5  1 -1</clus>
</clustering>
</event>
<event>
 9    1  0.7586638E-005  0.1473304E+03  0.7546771E-02  0.1231474E+00
         21   -1    0    0  501  502  0.00000000000E+00  0.00000000000E+00  0.28426952644E+03  0.28426952644E+03  0.00000000000E+00 0. -1.
          1   -1    0    0  502    0 -0.00000000000E+00 -0.00000000000E+00 -0.12165097265E+03  0.12165097265E+03  0.00000000000E+00 0. -1.
        -24    2    1    2    0    0  0.18641215206E+02 -0.10967258628E+02  0.38092591825E+02  0.90589522080E+02  0.79294642269E+02 0.  0.
         23    2    1    2    0    0  0.61840208144E+02  0.11346723472E+03  0.11068272591E+03  0.18427701946E+03  0.70769551274E+02 0.  0.
         13    1    3    3    0    0 -0.28340176688E+02 -0.18998906625E+02  0.11471478267E+02  0.35996095361E+02  0.00000000000E+00 0. -1.
        -14    1    3    3    0    0  0.46981391894E+02  0.80316479973E+01  0.26621113558E+02  0.54593426719E+02  0.00000000000E+00 0.  1.
        -13    1    4    4    0    0 -0.16053195145E+02  0.20416922665E+02  0.18612394169E+02  0.31952731060E+02  0.00000000000E+00 0.  1.
         13    1    4    4    0    0  0.77893403289E+02  0.93050312057E+02  0.92070331743E+02  0.15232428840E+03  0.00000000000E+00 0. -1.
          2    1    1    2  501    0 -0.80481423351E+02 -0.10249997609E+03  0.13843236048E+02  0.13105395755E+03  0.00000000000E+00 0. -1.
<scales pt_clust_5="13000.00000" pt_clust_6="13000.00000" pt_clust_7="13000.00000" pt_clust_8="13000.00000" pt_clust_9="129.22048"></scales>
<clustering>
<clus scale="   70.770">  7  8 -1 -1</clus>
<clus scale="   79.295">  5  6 -1 -1</clus>
<clus scale="   82.191">  2  5  1 -1</clus>
<clus scale="  129.220">  1  9  2 -1</clus>
<clus scale="  129.220">  1  5  2 -1</clus>
</clustering>
</event>
<event>
 9    1  0.7586638E-005  0.3756367E+03  0.7546771E-02  0.1080923E+00
         21   -1    0    0  501  502  0.00000000000E+00  0.00000000000E+00  0.13245291617E+04  0.13245291617E+04  0.00000000000E+00 0. -1.
          1   -1    0    0  502    0 -0.00000000000E+00 -0.00000000000E+00 -0.17666745068E+04  0.17666745068E+04  0.00000000000E+00 0. -1.
         23    2    1    2    0    0  0.11439562022E+03 -0.89834070133E+02  0.70881432578E+02  0.18562062857E+03  0.90963301314E+02 0.  0.
        -24    2    1    2    0    0 -0.38505391714E+03 -0.15444194079E+03 -0.16541198678E+04  0.17076597854E+04  0.88716253172E+02 0.  0.
         11    1    4    4    0    0 -0.35667947009E+03 -0.16571445135E+03 -0.15137510700E+04  0.15640088956E+04  0.00000000000E+00 0. -1.
        -12    1    4    4    0    0 -0.28374447054E+02  0.11272510552E+02 -0.14036879783E+03  0.14365088981E+03  0.00000000000E+00 0.  1.
        -11    1    3    3    0    0  0.84473368154E+02 -0.11963465886E+02  0.19079069692E+02  0.87423597178E+02  0.00000000000E+00 0.  1.
         11    1    3    3    0    0  0.29922252065E+02 -0.77870604247E+02  0.51802362887E+02  0.98197031396E+02  0.00000000000E+00 0. -1.
          2    1    1    2  501    0  0.27065829692E+03  0.24427601093E+03  0.11410930901E+04  0.11979232544E+04  0.00000000000E+00 0. -1.
<scales pt_clust_5="13000.00000" pt_clust_6="13000.00000" pt_clust_7="13000.00000" pt_clust_8="13000.00000" pt_clust_9="365.01007"></scales>
<clustering>
<clus scale="   88.716">  5  6 -1 -1</clus>
<clus scale="   90.963">  7  8 -1 -1</clus>
<clus scale="  171.554">  2  7  1 -1</clus>
<clus scale="  365.010">  1  9  2 -1</clus>
<clus scale="  365.010">  1  5  2 -1</clus>
</clustering>
</event>
<event>
 9    1  0.7586638E-005  0.9495928E+02  0.7546771E-02  0.1296809E+00
         21   -1    0    0  501  502  0.00000000000E+00  0.00000000000E+00  0.49811393816E+02  0.49811393816E+02  0.00000000000E+00 0. -1.
          1   -1    0    0  502    0 -0.00000000000E+00 -0.00000000000E+00 -0.35960204537E+03  0.35960204537E+03  0.00000000000E+00 0. -1.
        -24    2    1    2    0    0 -0.91752751029E+01 -0.21670563325E+02 -0.22568703299E+03  0.24093703242E+03  0.81007516588E+02 0.  0.
         23    2    1    2    0    0 -0.15454463862E+02  0.52266024677E+02 -0.53235903013E+02  0.11852120523E+03  0.90788969215E+02 0.  0.
         11    1    3    3    0    0 -0.30328009104E+02 -0.41467356513E+02 -0.17677233622E+03  0.18408636192E+03  0.00000000000E+00 0. -1.
        -12    1    3    3    0    0  0.21152734001E+02  0.19796793188E+02 -0.48914696767E+02  0.56850670497E+02  0.00000000000E+00 0.  1.
        -11    1    4    4    0    0 -0.84385569377E+01  0.74293806325E+02 -0.18891858566E+02  0.77121211230E+02  0.00000000000E+00 0. -1.
         11    1    4    4    0    0 -0.70159069242E+01 -0.22027781649E+02 -0.34344044447E+02  0.41399994001E+02  0.00000000000E+00 0.  1.
          2    1    1    2  501    0  0.24629738965E+02 -0.30595461352E+02 -0.30867715547E+02  0.49955201530E+02  0.00000000000E+00 0. -1.
<scales pt_clust_5="13000.00000" pt_clust_6="13000.00000" pt_clust_7="13000.00000" pt_clust_8="13000.00000" pt_clust_9="39.27730"></scales>
<clustering>
<clus scale="   39.277">  1  9  2 -1</clus>
<clus scale="   81.008">  5  6 -1 -1</clus>
<clus scale="   85.655">  2  5  1 -1</clus>
<clus scale="   90.789">  7  8 -1 -1</clus>
<clus scale="   39.277">  1  5  2 -1</clus>
</clustering>
</event>
<event>
 9    1  0.7586638E-005  0.1077179E+03  0.7546771E-02  0.1273719E+00
          1   -1    0    0  502    0 -0.00000000000E+00  0.00000000000E+00  0.40663037352E+02  0.40663037352E+02  0.00000000000E+00 0. -1.
         21   -1    0    0  501  502  0.00000000000E+00 -0.00000000000E+00 -0.35784834679E+03  0.35784834679E+03  0.00000000000E+00 0.  1.
         23    2    1    2    0    0 -0.32464932393E+02  0.46024008863E+02 -0.78751761769E+02  0.13374293240E+03  0.92266737003E+02 0.  0.
        -24    2    1    2    0    0  0.12459674349E+02 -0.55662024031E+02 -0.20603244076E+03  0.22548826062E+03  0.71708330258E+02 0.  0.
         11    1    4    4    0    0  0.33859109756E+02 -0.22573698372E+02 -0.49540677347E+02  0.64111542515E+02  0.00000000000E+00 0. -1.
        -12    1    4    4    0    0 -0.21399435407E+02 -0.33088325659E+02 -0.15649176341E+03  0.16137671811E+03  0.00000000000E+00 0.  1.
        -11    1    3    3    0    0  0.27384026487E+02  0.38651360118E+02 -0.28778545947E+02  0.55425781478E+02  0.00000000000E+00 0.  1.
         11    1    3    3    0    0 -0.59848958880E+02  0.73726487452E+01 -0.49973215821E+02  0.78317150919E+02  0.00000000000E+00 0. -1.
          2    1    1    2  501    0  0.20005258044E+02  0.96380151675E+01 -0.32401106906E+02  0.39280191121E+02  0.00000000000E+00 0. -1.
<scales pt_clust_5="13000.00000" pt_clust_6="13000.00000" pt_clust_7="13000.00000" pt_clust_8="13000.00000" pt_clust_9="22.20589"></scales>
<clustering>
<clus scale="   22.206">  2  9  1 -1</clus>
<clus scale="   71.708">  5  6 -1 -1</clus>
<clus scale="   90.731">  2  5  1 -1</clus>
<clus scale="   92.267">  7  8 -1 -1</clus>
<clus scale="   22.206">  2  5  1 -1</clus>
</clustering>
</event>
<event>
 9    1  0.7586638E-005  0.1113533E+03  0.7546771E-02  0.1264624E+00
          3   -1    0    0  502    0 -0.00000000000E+00  0.00000000000E+00  0.30538797725E+03  0.30538797725E+03  0.00000000000E+00 0. -1.
         21   -1    0    0  501  502  0.00000000000E+00 -0.00000000000E+00 -0.50100520619E+02  0.50100520619E+02  0.00000000000E+00 0. -1.
         23    2    1    2    0    0 -0.52119078024E+02  0.52704138088E+02  0.15327198880E+03  0.19411850469E+03  0.93250023313E+02 0.  0.
        -24    2    1    2    0    0  0.22817651285E+02 -0.39835534574E+02  0.56684752794E+02  0.10588082044E+03  0.76746803923E+02 0.  0.
         11    1    4    4    0    0 -0.79854169182E+01 -0.38763711732E+02  0.63017713887E+02  0.74415216818E+02  0.00000000000E+00 0. -1.
        -12    1    4    4    0    0  0.30803068203E+02 -0.10718228414E+01 -0.63329610930E+01  0.31465603619E+02  0.00000000000E+00 0.  1.
        -13    1    3    3    0    0 -0.14359466827E+01  0.59334624829E+02  0.11778122537E+03  0.13189039653E+03  0.00000000000E+00 0.  1.
         13    1    3    3    0    0 -0.50683131341E+02 -0.66304867414E+01  0.35490763429E+02  0.62228108165E+02  0.00000000000E+00 0. -1.
          4    1    1    2  501    0  0.29301426739E+02 -0.12868603514E+02  0.45330715039E+02  0.55489172740E+02  0.00000000000E+00 0. -1.
<scales pt_clust_5="13000.00000" pt_clust_6="13000.00000" pt_clust_7="13000.00000" pt_clust_8="13000.00000" pt_clust_9="32.00274"></scales>
<clustering>
<clus scale="   32.003">  2  9  1 -1</clus>
<clus scale="   76.747">  5  6 -1 -1</clus>
<clus scale="   93.250">  7  8 -1 -1</clus>
<clus scale="   97.949">  2  5  1 -1</clus>
<clus scale="   32.003">  2  5  1 -1</clus>
</clustering>
</event>
<event>
 9    1  0.7586638E-005  0.1884845E+03  0.7546771E-02  0.1161864E+00
          3   -1    0    0  502    0 -0.00000000000E+00  0.00000000000E+00  0.53336179227E+02  0.53336179227E+02  0.00000000000E+00 0. -1.
         21   -1    0    0  501  502  0.00000000000E+00 -0.00000000000E+00 -0.90834910272E+03  0.90834910272E+03  0.00000000000E+00 0. -1.
         23    2    1    2    0    0 -0.50135656310E+02  0.13859774615E+03 -0.27712476520E+03  0.32884805802E+03  0.98081550258E+02 0.  0.
        -24    2    1    2    0    0  0.84104580777E+02 -0.16636114471E+03 -0.53185172108E+03  0.56924439666E+03  0.80145610826E+02 0.  0.
         13    1    4    4    0    0  0.93653026697E+02 -0.14699350562E+03 -0.41022570939E+03  0.44571640395E+03  0.00000000000E+00 0. -1.
        -14    1    4    4    0    0 -0.95484459207E+01 -0.19367639091E+02 -0.12162601169E+03  0.12352799271E+03  0.00000000000E+00 0.  1.
        -11    1    3    3    0    0 -0.79582885048E+02  0.92436091837E+02 -0.20008033334E+03  0.23432884256E+03  0.00000000000E+00 0. -1.
         11    1    3    3    0    0  0.29447228738E+02  0.46161654312E+02 -0.77044431863E+02  0.94519215455E+02  0.00000000000E+00 0.  1.
          4    1    1    2  501    0 -0.33968924467E+02  0.27763398564E+02 -0.46036437209E+02  0.63592827270E+02  0.00000000000E+00 0. -1.
<scales pt_clust_5="13000.00000" pt_clust_6="13000.00000" pt_clust_7="13000.00000" pt_clust_8="13000.00000" pt_clust_9="43.87136"></scales>
<clustering>
<clus scale="   43.871">  2  9  1 -1</clus>
<clus scale="   80.146">  5  6 -1 -1</clus>
<clus scale="   98.082">  7  8 -1 -1</clus>
<clus scale="  179.805">  2  5  1 -1</clus>
<clus scale="   43.871">  2  5  1 -1</clus>
</clustering>
</event>
<event>
 9    1  0.7586638E-005  0.1009671E+03  0.7546771E-02  0.1283681E+00
          1   -1    0    0  502    0 -0.00000000000E+00  0.00000000000E+00  0.53245619504E+03  0.53245619504E+03  0.00000000000E+00 0. -1.
         21   -1    0    0  501  502  0.00000000000E+00 -0.00000000000E+00 -0.12358297250E+03  0.12358297250E+03  0.00000000000E+00 0. -1.
         23    2    1    2    0    0  0.26182817197E+02 -0.39118027591E+02  0.46537756098E+03  0.47652436605E+03  0.91013390085E+02 0.  0.
        -24    2    1    2    0    0  0.29133523686E+01  0.31074292245E+02  0.27609392203E+02  0.90148093803E+02  0.79939358378E+02 0.  0.
         11    1    4    4    0    0  0.68768503461E+01  0.57430075186E+02  0.26091107304E+02  0.63452742154E+02  0.00000000000E+00 0. -1.
        -12    1    4    4    0    0 -0.39634979775E+01 -0.26355782941E+02  0.15182848996E+01  0.26695351649E+02  0.00000000000E+00 0.  1.
        -11    1    3    3    0    0  0.17436429836E+02 -0.68132893544E+02  0.36324902021E+03  0.36999455530E+03  0.00000000000E+00 0. -1.
         11    1    3    3    0    0  0.87463873613E+01  0.29014865953E+02  0.10212854076E+03  0.10652981074E+03  0.00000000000E+00 0.  1.
          2    1    1    2  501    0 -0.29096169566E+02  0.80437353456E+01 -0.84113730642E+02  0.89366707695E+02  0.00000000000E+00 0. -1.
<scales pt_clust_5="13000.00000" pt_clust_6="13000.00000" pt_clust_7="13000.00000" pt_clust_8="13000.00000" pt_clust_9="30.18756"></scales>
<clustering>
<clus scale="   30.188">  2  9  1 -1</clus>
<clus scale="   79.939">  5  6 -1 -1</clus>
<clus scale="   91.013">  7  8 -1 -1</clus>
<clus scale="   91.111">  2  5  1 -1</clus>
<clus scale="   30.188">  2  5  1 -1</clus>
</clustering>
</event>
<event>
 9    1  0.7586638E-005  0.1296186E+03  0.7546771E-02  0.1230736E+00
         21   -1    0    0  501  502  0.00000000000E+00  0.00000000000E+00  0.34570654939E+03  0.34570654939E+03  0.00000000000E+00 0. -1.
         -4   -1    0    0    0  501 -0.00000000000E+00 -0.00000000000E+00 -0.10059359287E+03  0.10059359287E+03  0.00000000000E+00 0.  1.
        -24    2    1    2    0    0  0.82138950235E+02 -0.18242011428E+02  0.24213698994E+02  0.11932802398E+03  0.81075865466E+02 0.  0.
         23    2    1    2    0    0 -0.85743328442E+02  0.65932934794E+02  0.51079926607E+02  0.15054643742E+03  0.91411162642E+02 0.  0.
         11    1    3    3    0    0  0.52774390654E+02  0.10090329834E+02  0.48041493346E+02  0.72075905461E+02  0.00000000000E+00 0. -1.
        -12    1    3    3    0    0  0.29364559582E+02 -0.28332341262E+02 -0.23827794352E+02  0.47252118519E+02  0.00000000000E+00 0.  1.
        -13    1    4    4    0    0 -0.41905790406E+02  0.53826049055E+02  0.73127924648E+02  0.10000516082E+03  0.00000000000E+00 0. -1.
         13    1    4    4    0    0 -0.43837538037E+02  0.12106885739E+02 -0.22047998042E+02  0.50541276607E+02  0.00000000000E+00 0.  1.
         -3    1    1    2    0  502  0.36043782069E+01 -0.47690923366E+02  0.16981933092E+03  0.17642568086E+03  0.00000000000E+00 0.  1.
<scales pt_clust_5="13000.00000" pt_clust_6="13000.00000" pt_clust_7="13000.00000" pt_clust_8="13000.00000" pt_clust_9="47.82694"></scales>
<clustering>
<clus scale="   47.827">  1  9  2 -1</clus>
<clus scale="   81.076">  5  6 -1 -1</clus>
<clus scale="   91.411">  7  8 -1 -1</clus>
<clus scale="  122.549">  2  5  1 -1</clus>
<clus scale="   47.827">  1  5  2 -1</clus>
</clustering>
</event>
<event>
 9    1  0.7586638E-005  0.1150331E+03  0.7546771E-02  0.1255692E+00
         21   -1    0    0  501  502  0.00000000000E+00  0.00000000000E+00  0.73734696822E+02  0.73734696822E+02  0.00000000000E+00 0.  1.
          1   -1    0    0  502    0 -0.00000000000E+00 -0.00000000000E+00 -0.38836358082E+03  0.38836358082E+03  0.00000000000E+00 0. -1.
        -24    2    1    2    0    0  0.34568576338E+02  0.59510437070E+02 -0.28496839849E+03  0.30408251529E+03  0.80763292243E+02 0.  0.
         23    2    1    2    0    0 -0.54579907927E+02 -0.44921948009E+02 -0.49338141554E+02  0.12638527781E+03  0.92423149012E+02 0.  0.
         13    1    3    3    0    0  0.48222382553E+02  0.14814646076E+02 -0.86043109370E+02  0.99741107812E+02  0.00000000000E+00 0. -1.
        -14    1    3    3    0    0 -0.13653806215E+02  0.44695790994E+02 -0.19892528912E+03  0.20434140748E+03  0.00000000000E+00 0.  1.
        -13    1    4    4    0    0 -0.69722473221E+01 -0.36287432529E+02 -0.65642134897E+02  0.75327816018E+02  0.00000000000E+00 0. -1.
         13    1    4    4    0    0 -0.47607660605E+02 -0.86345154804E+01  0.16303993343E+02  0.51057461793E+02  0.00000000000E+00 0.  1.
          2    1    1    2  501    0  0.20011331589E+02 -0.14588489060E+02  0.19677656047E+02  0.31630484545E+02  0.00000000000E+00 0. -1.
<scales pt_clust_5="13000.00000" pt_clust_6="13000.00000" pt_clust_7="13000.00000" pt_clust_8="13000.00000" pt_clust_9="24.76444"></scales>
<clustering>
<clus scale="   24.764">  1  9  2 -1</clus>
<clus scale="   80.763">  5  6 -1 -1</clus>
<clus scale="   92.423">  7  8 -1 -1</clus>
<clus scale="  105.893">  2  5  1 -1</clus>
<clus scale="   24.764">  1  5  2 -1</clus>
</clustering>
</event>
<event>
 9    1  0.7586638E-005  0.1277788E+03  0.7546771E-02  0.1233069E+00
         -4   -1    0    0    0  501 -0.00000000000E+00  0.00000000000E+00  0.64097999574E+03  0.64097999574E+03  0.00000000000E+00 0.  1.
         21   -1    0    0  501  502  0.00000000000E+00 -0.00000000000E+00 -0.59701502627E+02  0.59701502627E+02  0.00000000000E+00 0. -1.
        -24    2    1    2    0    0  0.42101758620E+02 -0.73300518840E+02  0.42400063818E+03  0.43974532503E+03  0.80336078863E+02 0.  0.
         23    2    1    2    0    0 -0.32735708985E+02  0.12296445287E+03  0.13481589875E+03  0.20563003711E+03  0.88974728407E+02 0.  0.
         11    1    3    3    0    0 -0.29195455932E+01 -0.41737143137E+02  0.70391348690E+02  0.81886841642E+02  0.00000000000E+00 0. -1.
        -12    1    3    3    0    0  0.45021304213E+02 -0.31563375703E+02  0.35360928949E+03  0.35785848338E+03  0.00000000000E+00 0.  1.
        -11    1    4    4    0    0 -0.42043657603E+02  0.40340994995E+02  0.99477353847E+02  0.11528577080E+03  0.00000000000E+00 0.  1.
         11    1    4    4    0    0  0.93079486179E+01  0.82623457875E+02  0.35338544901E+02  0.90344266306E+02  0.00000000000E+00 0. -1.
         -3    1    1    2    0  502 -0.93660496344E+01 -0.49663934030E+02  0.22461956192E+02  0.55306136233E+02  0.00000000000E+00 0.  1.
<scales pt_clust_5="13000.00000" pt_clust_6="13000.00000" pt_clust_7="13000.00000" pt_clust_8="13000.00000" pt_clust_9="50.53938"></scales>
<clustering>
<clus scale="   50.539">  2  9  1 -1</clus>
<clus scale="   80.336">  5  6 -1 -1</clus>
<clus scale="   88.975">  7  8 -1 -1</clus>
<clus scale="  121.921">  1  5  2 -1</clus>
<clus scale="   50.539">  2  5  1 -1</clus>
</clustering>
</event>
<event>
 9    1  0.7586638E-005  0.1468888E+03  0.7546771E-02  0.1206501E+00
         21   -1    0    0  501  502  0.00000000000E+00  0.00000000000E+00  0.56762752947E+02  0.56762752947E+02  0.00000000000E+00 0.  1.
         -2   -1    0    0    0  501 -0.00000000000E+00 -0.00000000000E+00 -0.73050929814E+03  0.73050929814E+03  0.00000000000E+00 0.  1.
        -24    2    1    2    0    0 -0.15077858762E+03  0.44424870739E+02 -0.41867490136E+03  0.45434468634E+03  0.80203923586E+02 0.  0.
         23    2    1    2    0    0  0.52953667142E+02 -0.21547186937E+02 -0.93458760898E+02  0.14263330962E+03  0.91330985407E+02 0.  0.
         11    1    3    3    0    0 -0.66593250400E+02 -0.96178278682E+01 -0.10157291554E+03  0.12183686135E+03  0.00000000000E+00 0. -1.
        -12    1    3    3    0    0 -0.84185337224E+02  0.54042698607E+02 -0.31710198581E+03  0.33250782500E+03  0.00000000000E+00 0.  1.
        -11    1    4    4    0    0  0.11625856812E+02  0.34161420774E+02 -0.46539710256E+02  0.58890643116E+02  0.00000000000E+00 0. -1.
         11    1    4    4    0    0  0.41327810330E+02 -0.55708607711E+02 -0.46919050643E+02  0.83742666503E+02  0.00000000000E+00 0.  1.
         -1    1    1    2    0  502  0.97824920482E+02 -0.22877683802E+02 -0.16161288294E+03  0.19029405513E+03  0.00000000000E+00 0.  1.
<scales pt_clust_5="13000.00000" pt_clust_6="13000.00000" pt_clust_7="13000.00000" pt_clust_8="13000.00000" pt_clust_9="100.46444"></scales>
<clustering>
<clus scale="   80.204">  5  6 -1 -1</clus>
<clus scale="   91.331">  7  8 -1 -1</clus>
<clus scale="  100.464">  1  9  2 -1</clus>
<clus scale="  140.241">  2  5  1 -1</clus>
<clus scale="  100.464">  1  5  2 -1</clus>
</clustering>
</event>
<event>
 9    1  0.1153681E-004  0.1587046E+03  0.7546771E-02  0.1191767E+00
         21   -1    0    0  501  502  0.00000000000E+00  0.00000000000E+00  0.44605404553E+03  0.44605404553E+03  0.00000000000E+00 0. -1.
         -2   -1    0    0    0  501 -0.00000000000E+00 -0.00000000000E+00 -0.15625938345E+03  0.15625938345E+03  0.00000000000E+00 0.  1.
         23    2    1    2    0    0 -0.10856928646E+03 -0.12720252758E+02  0.15820354232E+03  0.21693620721E+03  0.10041843657E+03 0.  0.
        -24    2    1    2    0    0  0.13807368115E+03  0.32572450822E+02  0.22738785470E+03  0.28319291035E+03  0.91475034980E+02 0.  0.
         13    1    4    4    0    0  0.13634857748E+03  0.41469329218E+02  0.23256310741E+03  0.27275673919E+03  0.00000000000E+00 0. -1.
        -14    1    4    4    0    0  0.17251036725E+01 -0.88968783958E+01 -0.51752527039E+01  0.10436171157E+02  0.00000000000E+00 0.  1.
        -11    1    3    3    0    0 -0.16452589132E+02  0.28624065563E+02  0.49114428473E+01  0.33378841941E+02  0.00000000000E+00 0.  1.
         11    1    3    3    0    0 -0.92116697330E+02 -0.41344318321E+02  0.15329209947E+03  0.18355736527E+03  0.00000000000E+00 0. -1.
         -1    1    1    2    0  502 -0.29504394689E+02 -0.19852198064E+02 -0.95796734944E+02  0.10218431142E+03  0.00000000000E+00 0.  1.
<scales pt_clust_5="13000.00000" pt_clust_6="13000.00000" pt_clust_7="13000.00000" pt_clust_8="13000.00000" pt_clust_9="35.56150"></scales>
<clustering>
<clus scale="   35.562">  1  9  2 -1</clus>
<clus scale="   91.475">  5  6 -1 -1</clus>
<clus scale="  100.418">  7  8 -1 -1</clus>
<clus scale="  153.202">  1  5  2 -1</clus>
<clus scale="   35.562">  1  5  2 -1</clus>
</clustering>
</event>
<event>
 9    1  0.7586638E-005  0.1024073E+03  0.7546771E-02  0.1281382E+00
         21   -1    0    0  501  502  0.00000000000E+00  0.00000000000E+00  0.36419271787E+03  0.36419271787E+03  0.00000000000E+00 0.  1.
         -4   -1    0    0    0  501 -0.00000000000E+00 -0.00000000000E+00 -0.79844485324E+02  0.79844485324E+02  0.00000000000E+00 0.  1.
        -24    2    1    2    0    0  0.30734090444E+00 -0.57127139771E+02 -0.17347071393E+02  0.10001152366E+03  0.80235773949E+02 0.  0.
         23    2    1    2    0    0  0.56114563714E+01 -0.13491667155E+02  0.15790154106E+03  0.18371755655E+03  0.92767076006E+02 0.  0.
         11    1    3    3    0    0  0.78440666734E+01 -0.24683486542E+02  0.31568042691E+02  0.40833138616E+02  0.00000000000E+00 0. -1.
        -12    1    3    3    0    0 -0.75367257689E+01 -0.32443653228E+02 -0.48915114084E+02  0.59178385040E+02  0.00000000000E+00 0.  1.
        -13    1    4    4    0    0  0.24706033650E+02 -0.45511865713E+02  0.11928748906E+03  0.13004315848E+03  0.00000000000E+00 0.  1.
         13    1    4    4    0    0 -0.19094577279E+02  0.32020198558E+02  0.38614052000E+02  0.53674398078E+02  0.00000000000E+00 0. -1.
         -3    1    1    2    0  502 -0.59187972758E+01  0.70618806926E+02  0.14379376288E+03  0.16030812298E+03  0.00000000000E+00 0.  1.
<scales pt_clust_5="13000.00000" pt_clust_6="13000.00000" pt_clust_7="13000.00000" pt_clust_8="13000.00000" pt_clust_9="70.86641"></scales>
<clustering>
<clus scale="   70.866">  1  9  2 -1</clus>
<clus scale="   80.236">  5  6 -1 -1</clus>
<clus scale="   91.210">  2  5  1 -1</clus>
<clus scale="   92.767">  7  8 -1 -1</clus>
<clus scale="   70.866">  1  5  2 -1</clus>
</clustering>
</event>
<event>
 9    1  0.7586638E-005  0.1712053E+03  0.7546771E-02  0.1199992E+00
          3   -1    0    0  502    0 -0.00000000000E+00  0.00000000000E+00  0.12024673671E+04  0.12024673671E+04  0.00000000000E+00 0. -1.
         21   -1    0    0  501  502  0.00000000000E+00 -0.00000000000E+00 -0.53786535215E+02  0.53786535215E+02  0.00000000000E+00 0. -1.
         23    2    1    2    0    0 -0.35932548043E+02  0.18358604492E+02  0.21441590204E+03  0.23741531510E+03  0.93614456282E+02 0.  0.
        -24    2    1    2    0    0  0.22597979377E+02 -0.16640604080E+03  0.79041996459E+03  0.81198784840E+03  0.79742751575E+02 0.  0.
         13    1    4    4    0    0 -0.89421227976E+00 -0.16108612488E+03  0.70959635009E+03  0.72765137209E+03  0.00000000000E+00 0. -1.
        -14    1    4    4    0    0  0.23492191657E+02 -0.53199159198E+01  0.80823614501E+02  0.84336476303E+02  0.00000000000E+00 0.  1.
        -13    1    3    3    0    0 -0.39603913419E+02  0.52158539005E+02  0.16414075887E+03  0.17672343328E+03  0.00000000000E+00 0.  1.
         13    1    3    3    0    0  0.36713653759E+01 -0.33799934513E+02  0.50275143177E+02  0.60691881815E+02  0.00000000000E+00 0. -1.
          4    1    1    2  501    0  0.13334568666E+02  0.14804743631E+03  0.14384496520E+03  0.20685073878E+03  0.00000000000E+00 0. -1.
<scales pt_clust_5="13000.00000" pt_clust_6="13000.00000" pt_clust_7="13000.00000" pt_clust_8="13000.00000" pt_clust_9="151.50029"></scales>
<clustering>
<clus scale="   79.743">  5  6 -1 -1</clus>
<clus scale="   93.614">  7  8 -1 -1</clus>
<clus scale="  101.940">  1  7  2 -1</clus>
<clus scale="  151.500">  2  9  1 -1</clus>
<clus scale="  151.500">  2  5  1 -1</clus>
</clustering>
</event>
<event>
 9    1  0.7586638E-005  0.1010864E+03  0.7546771E-02  0.1298270E+00
          1   -1    0    0  502    0 -0.00000000000E+00  0.00000000000E+00  0.16494969145E+03  0.16494969145E+03  0.00000000000E+00 0. -1.
         21   -1    0    0  501  502  0.00000000000E+00 -0.00000000000E+00 -0.28491857837E+03  0.28491857837E+03  0.00000000000E+00 0. -1.
         23    2    1    2    0    0  0.37857067834E+01 -0.41787127898E+02  0.13504667889E+03  0.16908257090E+03  0.92686647734E+02 0.  0.
        -24    2    1    2    0    0  0.20335560118E+02  0.32154555705E+02 -0.84650122611E+02  0.10845170285E+03  0.56113083467E+02 0.  0.
         13    1    4    4    0    0 -0.17666362958E+02  0.10670340560E+02 -0.44878173765E+02  0.49396427283E+02  0.00000000000E+00 0. -1.
        -14    1    4    4    0    0  0.38001923076E+02  0.21484215145E+02 -0.39771948846E+02  0.59055275572E+02  0.00000000000E+00 0.  1.
        -11    1    3    3    0    0  0.38001298344E+02 -0.19264037765E+02  0.20204094620E+02  0.47153019694E+02  0.00000000000E+00 0.  1.
         11    1    3    3    0    0 -0.34215591560E+02 -0.22523090134E+02  0.11484258427E+03  0.12192955120E+03  0.00000000000E+00 0. -1.
          2    1    1    2  501    0 -0.24121266901E+02  0.96325721936E+01 -0.17036544320E+03  0.17233399607E+03  0.00000000000E+00 0. -1.
<scales pt_clust_5="13000.00000" pt_clust_6="13000.00000" pt_clust_7="13000.00000" pt_clust_8="13000.00000" pt_clust_9="25.97349"></scales>
<clustering>
<clus scale="   25.973">  2  9  1 -1</clus>
<clus scale="   56.113">  5  6 -1 -1</clus>
<clus scale="   69.111">  2  5  1 -1</clus>
<clus scale="   92.687">  7  8 -1 -1</clus>
<clus scale="   25.973">  2  5  1 -1</clus>
</clustering>
</event>
<event>
 9    1  0.7586638E-005  0.9738104E+02  0.7546771E-02  0.1291633E+00
         21   -1    0    0  501  502  0.00000000000E+00  0.00000000000E+00  0.26468494297E+03  0.26468494297E+03  0.00000000000E+00 0. -1.
          1   -1    0    0  502    0 -0.00000000000E+00 -0.00000000000E+00 -0.97814117306E+02  0.97814117306E+02  0.00000000000E+00 0. -1.
         23    2    1    2    0    0 -0.27533150944E+02 -0.31266498280E+02 -0.34198241930E+02  0.10549657707E+03  0.90688145353E+02 0.  0.
        -24    2    1    2    0    0  0.59952548609E+01  0.25875042233E+02  0.37956737842E+02  0.92386017189E+02  0.79931228772E+02 0.  0.
         13    1    4    4    0    0 -0.33538854158E+02 -0.12835555014E+01  0.27271710282E+02  0.43246369034E+02  0.00000000000E+00 0. -1.
        -14    1    4    4    0    0  0.39534109019E+02  0.27158597734E+02  0.10685027560E+02  0.49139648154E+02  0.00000000000E+00 0.  1.
        -11    1    3    3    0    0  0.13823483375E+02  0.25659640712E+02 -0.63949554502E+01  0.29839592982E+02  0.00000000000E+00 0.  1.
         11    1    3    3    0    0 -0.41356634319E+02 -0.56926138993E+02 -0.27803286479E+02  0.75656984092E+02  0.00000000000E+00 0. -1.
          2    1    1    2  501    0  0.21537896083E+02  0.53914560478E+01  0.16311232975E+03  0.16461646601E+03  0.00000000000E+00 0. -1.
<scales pt_clust_5="13000.00000" pt_clust_6="13000.00000" pt_clust_7="13000.00000" pt_clust_8="13000.00000" pt_clust_9="22.20245"></scales>
<clustering>
<clus scale="   22.202">  1  9  2 -1</clus>
<clus scale="   79.931">  5  6 -1 -1</clus>
<clus scale="   87.451">  1  5  2 -1</clus>
<clus scale="   90.688">  7  8 -1 -1</clus>
<clus scale="   22.202">  1  5  2 -1</clus>
</clustering>
</event>
<event>
 9    1  0.7586638E-005  0.1101377E+03  0.7546771E-02  0.1265340E+00
         21   -1    0    0  501  502  0.00000000000E+00  0.00000000000E+00  0.29999863251E+03  0.29999863251E+03  0.00000000000E+00 0. -1.
         -4   -1    0    0    0  501 -0.00000000000E+00 -0.00000000000E+00 -0.12952119633E+03  0.12952119633E+03  0.00000000000E+00 0.  1.
         23    2    1    2    0    0  0.47456579656E+02 -0.21551099094E+02 -0.59993796905E+02  0.12237341838E+03  0.93056010197E+02 0.  0.
        -24    2    1    2    0    0 -0.82467179794E+02  0.71226865794E+02  0.19271294241E+03  0.23559843750E+03  0.80586868822E+02 0.  0.
         13    1    4    4    0    0 -0.97857252100E+02  0.57346905546E+02  0.14934528696E+03  0.18753326132E+03  0.00000000000E+00 0. -1.
        -14    1    4    4    0    0  0.15390072306E+02  0.13879960248E+02  0.43367655450E+02  0.48065176181E+02  0.00000000000E+00 0.  1.
        -11    1    3    3    0    0  0.73947142645E+02 -0.10301786056E+02 -0.29047887358E+02  0.80112960632E+02  0.00000000000E+00 0.  1.
         11    1    3    3    0    0 -0.26490562988E+02 -0.11249313038E+02 -0.30945909548E+02  0.42260457747E+02  0.00000000000E+00 0. -1.
         -3    1    1    2    0  502  0.35010600138E+02 -0.49675766700E+02  0.37758290678E+02  0.71547972956E+02  0.00000000000E+00 0.  1.
<scales pt_clust_5="13000.00000" pt_clust_6="13000.00000" pt_clust_7="13000.00000" pt_clust_8="13000.00000" pt_clust_9="60.77355"></scales>
<clustering>
<clus scale="   60.774">  1  9  2 -1</clus>
<clus scale="   80.587">  5  6 -1 -1</clus>
<clus scale="   93.056">  7  8 -1 -1</clus>
<clus scale="   99.826">  1  5  2 -1</clus>
<clus scale="   60.774">  1  5  2 -1</clus>
</clustering>
</event>
<event>
 9    1  0.7586638E-005  0.1655190E+03  0.7546771E-02  0.1208138E+00
         21   -1    0    0  501  502  0.00000000000E+00  0.00000000000E+00  0.13278954244E+03  0.13278954244E+03  0.00000000000E+00 0. -1.
          1   -1    0    0  502    0 -0.00000000000E+00 -0.00000000000E+00 -0.59709351304E+03  0.59709351304E+03  0.00000000000E+00 0. -1.
        -24    2    1    2    0    0 -0.41420847731E+02  0.22693992224E+02 -0.13670141022E+03  0.16626131829E+03  0.82005161385E+02 0.  0.
         23    2    1    2    0    0  0.45571087939E+02  0.12979635508E+03  0.36875043680E+02  0.16850852004E+03  0.90064058474E+02 0.  0.
         13    1    3    3    0    0 -0.60502535173E+02  0.19995198223E+01 -0.63013802316E+02  0.87380170085E+02  0.00000000000E+00 0. -1.
        -14    1    3    3    0    0  0.19081687442E+02  0.20694472402E+02 -0.73687607900E+02  0.78881148202E+02  0.00000000000E+00 0.  1.
        -11    1    4    4    0    0  0.72396827684E+02  0.10697934968E+03  0.30366311761E+02  0.13269511975E+03  0.00000000000E+00 0.  1.
         11    1    4    4    0    0 -0.26825739745E+02  0.22817005407E+02  0.65087319190E+01  0.35813400282E+02  0.00000000000E+00 0. -1.
          2    1    1    2  501    0 -0.41502402087E+01 -0.15249034731E+03 -0.36447760406E+03  0.39511321716E+03  0.00000000000E+00 0. -1.
<scales pt_clust_5="13000.00000" pt_clust_6="13000.00000" pt_clust_7="13000.00000" pt_clust_8="13000.00000" pt_clust_9="138.87057"></scales>
<clustering>
<clus scale="   82.005">  5  6 -1 -1</clus>
<clus scale="   90.064">  7  8 -1 -1</clus>
<clus scale="   94.634">  2  5  1 -1</clus>
<clus scale="  138.871">  1  9  2 -1</clus>
<clus scale="  138.871">  1  5  2 -1</clus>
</clustering>
</event>
<event>
 9    1  0.7586638E-005  0.2526863E+03  0.7546771E-02  0.1112393E+00
         21   -1    0    0  501  502  0.00000000000E+00  0.00000000000E+00  0.11033432647E+03  0.11033432647E+03  0.00000000000E+00 0. -1.
          1   -1    0    0  502    0 -0.00000000000E+00 -0.00000000000E+00 -0.13016345031E+04  0.13016345031E+04  0.00000000000E+00 0. -1.
         23    2    1    2    0    0 -0.27352128261E+03  0.66851369381E+02 -0.69693990611E+03  0.75721017099E+03  0.91427636364E+02 0.  0.
        -24    2    1    2    0    0  0.14031128682E+03  0.20144135063E+02 -0.30114503171E+02  0.16400693594E+03  0.76800705394E+02 0.  0.
         11    1    4    4    0    0  0.12781645359E+03  0.43262130903E+02 -0.25063864500E+02  0.13724742286E+03  0.00000000000E+00 0. -1.
        -12    1    4    4    0    0  0.12494833225E+02 -0.23117995840E+02 -0.50506386717E+01  0.26759513074E+02  0.00000000000E+00 0.  1.
        -11    1    3    3    0    0 -0.17000931505E+03  0.56254157968E+02 -0.53992599754E+03  0.56884776550E+03  0.00000000000E+00 0. -1.
         11    1    3    3    0    0 -0.10351196756E+03  0.10597211413E+02 -0.15701390857E+03  0.18836240549E+03  0.00000000000E+00 0.  1.
          2    1    1    2  501    0  0.13320999579E+03 -0.86995504444E+02 -0.46424576737E+03  0.49075172266E+03  0.00000000000E+00 0. -1.
<scales pt_clust_5="13000.00000" pt_clust_6="13000.00000" pt_clust_7="13000.00000" pt_clust_8="13000.00000" pt_clust_9="159.10106"></scales>
<clustering>
<clus scale="   76.801">  5  6 -1 -1</clus>
<clus scale="   91.428">  7  8 -1 -1</clus>
<clus scale="  159.101">  1  9  2 -1</clus>
<clus scale="  247.769">  1  5  2 -1</clus>
<clus scale="  159.101">  1  5  2 -1</clus>
</clustering>
</event>
<event>
 9    1  0.7586638E-005  0.1065007E+03  0.7546771E-02  0.1276106E+00
         21   -1    0    0  501  502  0.00000000000E+00  0.00000000000E+00  0.53661898373E+02  0.53661898373E+02  0.00000000000E+00 0.  1.
          1   -1    0    0  502    0 -0.00000000000E+00 -0.00000000000E+00 -0.46767011561E+03  0.46767011561E+03  0.00000000000E+00 0. -1.
         23    2    1    2    0    0 -0.53796442806E+02 -0.13618009590E+02 -0.18909089144E+03  0.20504401868E+03  0.56640770906E+02 0.  0.
        -24    2    1    2    0    0  0.11757216799E+03  0.46888022158E+02 -0.14374963542E+03  0.20783325442E+03  0.80678390234E+02 0.  0.
         11    1    4    4    0    0  0.21588949025E+02 -0.18298653030E+02 -0.54650006132E+02  0.61543046666E+02  0.00000000000E+00 0. -1.
        -12    1    4    4    0    0  0.95983218964E+02  0.65186675188E+02 -0.89099629293E+02  0.14629020775E+03  0.00000000000E+00 0.  1.
        -11    1    3    3    0    0 -0.15728801208E+02 -0.27971772978E+02 -0.12561486911E+03  0.12964918285E+03  0.00000000000E+00 0. -1.
         11    1    3    3    0    0 -0.38067641599E+02  0.14353763388E+02 -0.63476022326E+02  0.75394835835E+02  0.00000000000E+00 0.  1.
          2    1    1    2  501    0 -0.63775725183E+02 -0.33270012569E+02 -0.81167690380E+02  0.10845474089E+03  0.00000000000E+00 0. -1.
<scales pt_clust_5="13000.00000" pt_clust_6="13000.00000" pt_clust_7="13000.00000" pt_clust_8="13000.00000" pt_clust_9="71.93217"></scales>
<clustering>
<clus scale="   56.641">  7  8 -1 -1</clus>
<clus scale="   71.932">  1  9  2 -1</clus>
<clus scale="   80.678">  5  6 -1 -1</clus>
<clus scale="   89.675">  2  7  1 -1</clus>
<clus scale="   71.932">  1  5  2 -1</clus>
</clustering>
</event>
<event>
 9    1  0.7586638E-005  0.1645434E+03  0.7546771E-02  0.1185455E+00
         21   -1    0    0  501  502  0.00000000000E+00  0.00000000000E+00  0.14745363062E+03  0.14745363062E+03  0.00000000000E+00 0.  1.
          1   -1    0    0  502    0 -0.00000000000E+00 -0.00000000000E+00 -0.22314346449E+03  0.22314346449E+03  0.00000000000E+00 0. -1.
        -24    2    1    2    0    0  0.14348498287E+03  0.38498845320E+02 -0.60190148124E+02  0.17959814271E+03  0.81009490395E+02 0.  0.
         23    2    1    2    0    0 -0.12204109203E+03 -0.10986237779E+02 -0.22403097264E+02  0.15543997155E+03  0.92978279319E+02 0.  0.
         13    1    3    3    0    0  0.11734540306E+03  0.23399288541E+02 -0.79595875429E+02  0.14371142511E+03  0.00000000000E+00 0. -1.
        -14    1    3    3    0    0  0.26139579810E+02  0.15099556779E+02  0.19405727305E+02  0.35886717596E+02  0.00000000000E+00 0.  1.
        -13    1    4    4    0    0 -0.11246501631E+03 -0.40686622853E+02 -0.30039460087E+02  0.12331322044E+03  0.00000000000E+00 0.  1.
         13    1    4    4    0    0 -0.95760757127E+01  0.29700385074E+02  0.76363628233E+01  0.32126751108E+02  0.00000000000E+00 0. -1.
          2    1    1    2  501    0 -0.21443890841E+02 -0.27512607540E+02  0.69034115207E+01  0.35558980844E+02  0.00000000000E+00 0. -1.
<scales pt_clust_5="13000.00000" pt_clust_6="13000.00000" pt_clust_7="13000.00000" pt_clust_8="13000.00000" pt_clust_9="34.88243"></scales>
<clustering>
<clus scale="   34.882">  1  9  2 -1</clus>
<clus scale="   81.009">  5  6 -1 -1</clus>
<clus scale="   92.978">  7  8 -1 -1</clus>
<clus scale="  158.089">  2  5  1 -1</clus>
<clus scale="   34.882">  1  5  2 -1</clus>
</clustering>
</event>
<event>
 9    1  0.7586638E-005  0.1046618E+03  0.7546771E-02  0.1274470E+00
         21   -1    0    0  501  502  0.00000000000E+00  0.00000000000E+00  0.55942086443E+03  0.55942086443E+03  0.00000000000E+00 0.  1.
          1   -1    0    0  502    0 -0.00000000000E+00 -0.00000000000E+00 -0.41077489206E+02  0.41077489206E+02  0.00000000000E+00 0. -1.
         23    2    1    2    0    0  0.52479499644E+02 -0.17602352304E+02  0.51492381012E+02  0.11760348837E+03  0.90084263254E+02 0.  0.
        -24    2    1    2    0    0 -0.33000636844E+02  0.37389244891E+02  0.36152055433E+03  0.37396622449E+03  0.81649422481E+02 0.  0.
         13    1    4    4    0    0  0.27326955975E+02  0.74583461422E+01  0.10555682036E+03  0.10929149909E+03  0.00000000000E+00 0. -1.
        -14    1    4    4    0    0 -0.60327592820E+02  0.29930898748E+02  0.25596373398E+03  0.26467472540E+03  0.00000000000E+00 0.  1.
        -13    1    3    3    0    0  0.32376839579E+02 -0.42694524168E+02 -0.37204252186E+01  0.53711485726E+02  0.00000000000E+00 0. -1.
         13    1    3    3    0    0  0.20102660065E+02  0.25092171864E+02  0.55212806231E+02  0.63892002649E+02  0.00000000000E+00 0.  1.
          2    1    1    2  501    0 -0.19478862800E+02 -0.19786892587E+02  0.10533043988E+03  0.10892864077E+03  0.00000000000E+00 0. -1.
<scales pt_clust_5="13000.00000" pt_clust_6="13000.00000" pt_clust_7="13000.00000" pt_clust_8="13000.00000" pt_clust_9="27.76594"></scales>
<clustering>
<clus scale="   27.766">  1  9  2 -1</clus>
<clus scale="   81.649">  5  6 -1 -1</clus>
<clus scale="   90.084">  7  8 -1 -1</clus>
<clus scale="   97.496">  1  5  2 -1</clus>
<clus scale="   27.766">  1  5  2 -1</clus>
</clustering>
</event>
<event>
 9    1  0.7586638E-005  0.1608823E+03  0.7546771E-02  0.1189265E+00
          1   -1    0    0  502    0 -0.00000000000E+00  0.00000000000E+00  0.19281226568E+03  0.19281226568E+03  0.00000000000E+00 0. -1.
         21   -1    0    0  501  502  0.00000000000E+00 -0.00000000000E+00 -0.36977675259E+03  0.36977675259E+03  0.00000000000E+00 0. -1.
         23    2    1    2    0    0  0.12482691760E+03 -0.21982758891E+02  0.41724722801E+02  0.16099414134E+03  0.90073081472E+02 0.  0.
        -24    2    1    2    0    0 -0.14614315580E+03 -0.69589069798E+02 -0.19789527005E+02  0.18159290967E+03  0.79899304388E+02 0.  0.
         13    1    4    4    0    0 -0.14237339571E+02 -0.25780964132E+02  0.21654721855E+02  0.36555258558E+02  0.00000000000E+00 0. -1.
        -14    1    4    4    0    0 -0.13190581623E+03 -0.43808105666E+02 -0.41444248860E+02  0.14503765112E+03  0.00000000000E+00 0.  1.
        -13    1    3    3    0    0  0.11020223408E+03 -0.37711362963E+02  0.61573423485E+02  0.13174963291E+03  0.00000000000E+00 0.  1.
         13    1    3    3    0    0  0.14624683518E+02  0.15728604071E+02 -0.19848700685E+02  0.29244508423E+02  0.00000000000E+00 0. -1.
          2    1    1    2  501    0  0.21316238201E+02  0.91571828689E+02 -0.19889968271E+03  0.22000196727E+03  0.00000000000E+00 0. -1.
<scales pt_clust_5="13000.00000" pt_clust_6="13000.00000" pt_clust_7="13000.00000" pt_clust_8="13000.00000" pt_clust_9="94.02011"></scales>
<clustering>
<clus scale="   79.899">  5  6 -1 -1</clus>
<clus scale="   90.073">  7  8 -1 -1</clus>
<clus scale="   94.020">  2  9  1 -1</clus>
<clus scale="  155.415">  2  5  1 -1</clus>
<clus scale="   94.020">  2  5  1 -1</clus>
</clustering>
</event>
<event>
 9    1  0.7586638E-005  0.1293671E+03  0.7546771E-02  0.1230850E+00
          3   -1    0    0  502    0 -0.00000000000E+00  0.00000000000E+00  0.43451694149E+03  0.43451694149E+03  0.00000000000E+00 0. -1.
         21   -1    0    0  501  502  0.00000000000E+00 -0.00000000000E+00 -0.11031795886E+03  0.11031795886E+03  0.00000000000E+00 0. -1.
         23    2    1    2    0    0 -0.37000370867E+02  0.86186197039E+02  0.25991448138E+03  0.29103190865E+03  0.91361623340E+02 0.  0.
        -24    2    1    2    0    0  0.88730763253E+02 -0.48991951811E+02  0.11382138034E+03  0.17309767736E+03  0.82061803514E+02 0.  0.
         11    1    4    4    0    0  0.94115396236E+02 -0.42406471361E+02  0.12300410415E+03  0.16058027980E+03  0.00000000000E+00 0. -1.
        -12    1    4    4    0    0 -0.53846329827E+01 -0.65854804502E+01 -0.91827238136E+01  0.12517397563E+02  0.00000000000E+00 0.  1.
        -11    1    3    3    0    0  0.11076686128E+02  0.66199773835E+02  0.83710859291E+02  0.10729683590E+03  0.00000000000E+00 0.  1.
         11    1    3    3    0    0 -0.48077056995E+02  0.19986423204E+02  0.17620362208E+03  0.18373507275E+03  0.00000000000E+00 0. -1.
          4    1    1    2  501    0 -0.51730392386E+02 -0.37194245228E+02 -0.49536879079E+02  0.80705314344E+02  0.00000000000E+00 0. -1.
<scales pt_clust_5="13000.00000" pt_clust_6="13000.00000" pt_clust_7="13000.00000" pt_clust_8="13000.00000" pt_clust_9="63.71378"></scales>
<clustering>
<clus scale="   63.714">  2  9  1 -1</clus>
<clus scale="   82.062">  5  6 -1 -1</clus>
<clus scale="   91.362">  7  8 -1 -1</clus>
<clus scale="  122.976">  2  5  1 -1</clus>
<clus scale="   63.714">  2  5  1 -1</clus>
</clustering>
</event>
<event>
 9    1  0.7586638E-005  0.1320171E+03  0.7546771E-02  0.1227166E+00
          1   -1    0    0  502    0 -0.00000000000E+00  0.00000000000E+00  0.17522512566E+03  0.17522512566E+03  0.00000000000E+00 0. -1.
         21   -1    0    0  501  502  0.00000000000E+00 -0.00000000000E+00 -0.35706556911E+03  0.35706556911E+03  0.00000000000E+00 0. -1.
        -24    2    1    2    0    0 -0.65464153131E+02  0.60129315118E+02  0.69742051846E+02  0.13818022247E+03  0.79553316738E+02 0.  0.
         23    2    1    2    0    0  0.16687383151E+03 -0.26424924805E+02 -0.19425343066E+03  0.27283998765E+03  0.90344403487E+02 0.  0.
         11    1    3    3    0    0 -0.75797956475E+02  0.65846247803E+02  0.43537731686E+02  0.10943761984E+03  0.00000000000E+00 0. -1.
        -12    1    3    3    0    0  0.10333803345E+02 -0.57169326851E+01  0.26204320160E+02  0.28742602630E+02  0.00000000000E+00 0.  1.
        -13    1    4    4    0    0  0.11178896942E+03  0.23808605059E+02 -0.94478288349E+02  0.14828948152E+03  0.00000000000E+00 0. -1.
         13    1    4    4    0    0  0.55084862093E+02 -0.50233529863E+02 -0.99775142313E+02  0.12455050613E+03  0.00000000000E+00 0.  1.
          2    1    1    2  501    0 -0.10140967838E+03 -0.33704390313E+02 -0.57329064634E+02  0.12127048465E+03  0.00000000000E+00 0. -1.
<scales pt_clust_5="13000.00000" pt_clust_6="13000.00000" pt_clust_7="13000.00000" pt_clust_8="13000.00000" pt_clust_9="106.86397"></scales>
<clustering>
<clus scale="   79.553">  5  6 -1 -1</clus>
<clus scale="   90.344">  7  8 -1 -1</clus>
<clus scale="  106.864">  2  9  1 -1</clus>
<clus scale="  124.880">  1  5  2 -1</clus>
<clus scale="  106.864">  2  5  1 -1</clus>
</clustering>
</event>
<event>
 9    1  0.7586638E-005  0.2735952E+03  0.7546771E-02  0.1109256E+00
          1   -1    0    0  502    0 -0.00000000000E+00  0.00000000000E+00  0.11789567787E+04  0.11789567787E+04  0.00000000000E+00 0. -1.
         21   -1    0    0  501  502  0.00000000000E+00 -0.00000000000E+00 -0.15092746206E+03  0.15092746206E+03  0.00000000000E+00 0. -1.
        -24    2    1    2    0    0 -0.10554259505E+03 -0.16425546077E+03  0.22373105998E+03  0.30781295457E+03  0.81081021449E+02 0.  0.
         23    2    1    2    0    0  0.25804491771E+03 -0.76902501710E+02  0.62994017249E+03  0.68768399157E+03  0.59862150141E+02 0.  0.
         13    1    3    3    0    0 -0.51259488153E+02 -0.14478392503E+03  0.15745637851E+03  0.21996006730E+03  0.00000000000E+00 0. -1.
        -14    1    3    3    0    0 -0.54283106893E+02 -0.19471535745E+02  0.66274681468E+02  0.87852887272E+02  0.00000000000E+00 0.  1.
        -11    1    4    4    0    0  0.17800126713E+03 -0.62930999825E+02  0.37070584665E+03  0.41601392594E+03  0.00000000000E+00 0. -1.
         11    1    4    4    0    0  0.80043650577E+02 -0.13971501886E+02  0.25923432584E+03  0.27167006562E+03  0.00000000000E+00 0.  1.
          2    1    1    2  501    0 -0.15250232267E+03  0.24115796248E+03  0.17435808417E+03  0.33438729462E+03  0.00000000000E+00 0. -1.
<scales pt_clust_5="13000.00000" pt_clust_6="13000.00000" pt_clust_7="13000.00000" pt_clust_8="13000.00000" pt_clust_9="266.96604"></scales>
<clustering>
<clus scale="   59.862">  7  8 -1 -1</clus>
<clus scale="   81.081">  5  6 -1 -1</clus>
<clus scale="  211.408">  1  5  2 -1</clus>
<clus scale="  266.966">  2  9  1 -1</clus>
<clus scale="  266.966">  2  5  1 -1</clus>
</clustering>
</event>
<event>
 9    1  0.7586638E-005  0.1132263E+03  0.7546771E-02  0.1263985E+00
         21   -1    0    0  501  502  0.00000000000E+00  0.00000000000E+00  0.61348639679E+02  0.61348639679E+02  0.00000000000E+00 0.  1.
          3   -1    0    0  502    0 -0.00000000000E+00 -0.00000000000E+00 -0.45169943480E+03  0.45169943480E+03  0.00000000000E+00 0. -1.
         23    2    1    2    0    0  0.18588590862E+02  0.44635513242E+02 -0.35977854990E+03  0.37710566689E+03  0.10212842053E+03 0.  0.
        -24    2    1    2    0    0 -0.47918107022E+02 -0.34096716747E+02 -0.14538009060E+02  0.10089410550E+03  0.80681693987E+02 0.  0.
         13    1    4    4    0    0 -0.34902442393E+01  0.20302193951E+02 -0.22147940127E+02  0.30247183934E+02  0.00000000000E+00 0. -1.
        -14    1    4    4    0    0 -0.44427862783E+02 -0.54398910698E+02  0.76099310667E+01  0.70646921570E+02  0.00000000000E+00 0.  1.
        -11    1    3    3    0    0  0.43810864961E+02  0.58799003360E+02 -0.31764061898E+03  0.32599429061E+03  0.00000000000E+00 0. -1.
         11    1    3    3    0    0 -0.25222274099E+02 -0.14163490119E+02 -0.42137930922E+02  0.51111376282E+02  0.00000000000E+00 0.  1.
          4    1    1    2  501    0  0.29329516160E+02 -0.10538796495E+02 -0.16034236160E+02  0.35048302084E+02  0.00000000000E+00 0. -1.
<scales pt_clust_5="13000.00000" pt_clust_6="13000.00000" pt_clust_7="13000.00000" pt_clust_8="13000.00000" pt_clust_9="31.16547"></scales>
<clustering>
<clus scale="   31.165">  1  9  2 -1</clus>
<clus scale="   80.682">  5  6 -1 -1</clus>
<clus scale="   94.337">  1  5  2 -1</clus>
<clus scale="  102.128">  7  8 -1 -1</clus>
<clus scale="   31.165">  1  5  2 -1</clus>
</clustering>
</event>
<event>
 9    1  0.7586638E-005  0.1967216E+03  0.7546771E-02  0.1152733E+00
          1   -1    0    0  502    0 -0.00000000000E+00  0.00000000000E+00  0.67839367562E+03  0.67839367562E+03  0.00000000000E+00 0. -1.
         21   -1    0    0  501  502  0.00000000000E+00 -0.00000000000E+00 -0.21605157635E+03  0.21605157635E+03  0.00000000000E+00 0.  1.
         23    2    1    2    0    0  0.10174986760E+03 -0.15273724212E+03  0.58815149730E+03  0.62117715534E+03  0.79102299944E+02 0.  0.
        -24    2    1    2    0    0 -0.73260249869E+02  0.13267997320E+03 -0.34365704188E+02  0.17541156135E+03  0.81346018532E+02 0.  0.
         11    1    4    4    0    0 -0.90366741828E+01  0.85776438462E+02 -0.41209581902E+02  0.95590211402E+02  0.00000000000E+00 0. -1.
        -12    1    4    4    0    0 -0.64223575686E+02  0.46903534734E+02  0.68438777135E+01  0.79821349943E+02  0.00000000000E+00 0.  1.
        -11    1    3    3    0    0  0.11884889614E+02 -0.68925101131E+02  0.14021799824E+03  0.15669399222E+03  0.00000000000E+00 0.  1.
         11    1    3    3    0    0  0.89864977986E+02 -0.83812140989E+02  0.44793349905E+03  0.46448316312E+03  0.00000000000E+00 0. -1.
          2    1    1    2  501    0 -0.28489617731E+02  0.20057268925E+02 -0.91443693841E+02  0.97856535287E+02  0.00000000000E+00 0. -1.
<scales pt_clust_5="13000.00000" pt_clust_6="13000.00000" pt_clust_7="13000.00000" pt_clust_8="13000.00000" pt_clust_9="34.84182"></scales>
<clustering>
<clus scale="   34.842">  2  9  1 -1</clus>
<clus scale="   79.102">  7  8 -1 -1</clus>
<clus scale="   81.346">  5  6 -1 -1</clus>
<clus scale="  195.804">  1  7  2 -1</clus>
<clus scale="   34.842">  2  5  1 -1</clus>
</clustering>
</event>
<event>
 9    1  0.7586638E-005  0.8800536E+02  0.7546771E-02  0.1314897E+00
         21   -1    0    0  501  502  0.00000000000E+00  0.00000000000E+00  0.90703250890E+02  0.90703250890E+02  0.00000000000E+00 0. -1.
          1   -1    0    0  502    0 -0.00000000000E+00 -0.00000000000E+00 -0.20388085887E+03  0.20388085887E+03  0.00000000000E+00 0. -1.
        -24    2    1    2    0    0  0.26281729333E+02  0.34019005597E+02 -0.14800430070E+03  0.17391315007E+03  0.80575980930E+02 0.  0.
         23    2    1    2    0    0 -0.22455893529E+02  0.77486778878E+01  0.14978121654E+02  0.74268996616E+02  0.68754858497E+02 0.  0.
         13    1    3    3    0    0 -0.20913624320E+02  0.36379643979E+02 -0.88363607913E+02  0.97821190862E+02  0.00000000000E+00 0. -1.
        -14    1    3    3    0    0  0.47195353652E+02 -0.23606383818E+01 -0.59640692787E+02  0.76091959207E+02  0.00000000000E+00 0.  1.
        -11    1    4    4    0    0  0.98441267594E+01  0.18193371587E+02 -0.17643875564E+02  0.27188452444E+02  0.00000000000E+00 0.  1.
         11    1    4    4    0    0 -0.32300020288E+02 -0.10444693699E+02  0.32621997218E+02  0.47080544173E+02  0.00000000000E+00 0. -1.
          2    1    1    2  501    0 -0.38258358038E+01 -0.41767683485E+02  0.19848571070E+02  0.46401963071E+02  0.00000000000E+00 0. -1.
<scales pt_clust_5="13000.00000" pt_clust_6="13000.00000" pt_clust_7="13000.00000" pt_clust_8="13000.00000" pt_clust_9="41.94254"></scales>
<clustering>
<clus scale="   41.943">  1  9  2 -1</clus>
<clus scale="   68.755">  7  8 -1 -1</clus>
<clus scale="   77.328">  1  7  2 -1</clus>
<clus scale="   80.576">  5  6 -1 -1</clus>
<clus scale="   41.943">  1  5  2 -1</clus>
</clustering>
</event>
<event>
 9    1  0.7586638E-005  0.9389875E+02  0.7546771E-02  0.1300262E+00
         21   -1    0    0  501  502  0.00000000000E+00  0.00000000000E+00  0.27556654634E+03  0.27556654634E+03  0.00000000000E+00 0. -1.
          1   -1    0    0  502    0 -0.00000000000E+00 -0.00000000000E+00 -0.15040790794E+03  0.15040790794E+03  0.00000000000E+00 0. -1.
         23    2    1    2    0    0 -0.16388248558E+02  0.60067749383E+01 -0.73185393565E+02  0.11903967343E+03  0.92247959240E+02 0.  0.
        -24    2    1    2    0    0 -0.29922040943E+02 -0.40243397361E+02 -0.49865937053E+01  0.95605340004E+02  0.81244417378E+02 0.  0.
         11    1    4    4    0    0 -0.44046207521E+02 -0.57726536809E+02 -0.74619335135E+01  0.72993848376E+02  0.00000000000E+00 0. -1.
        -12    1    4    4    0    0  0.14124166579E+02  0.17483139448E+02  0.24753398082E+01  0.22611491628E+02  0.00000000000E+00 0.  1.
        -13    1    3    3    0    0 -0.28049426198E+02 -0.37560418111E+02 -0.49200995333E+02  0.67958025725E+02  0.00000000000E+00 0.  1.
         13    1    3    3    0    0  0.11661177639E+02  0.43567193049E+02 -0.23984398232E+02  0.51081647709E+02  0.00000000000E+00 0. -1.
          2    1    1    2  501    0  0.46310289501E+02  0.34236622423E+02  0.20333062568E+03  0.21132944084E+03  0.00000000000E+00 0. -1.
<scales pt_clust_5="13000.00000" pt_clust_6="13000.00000" pt_clust_7="13000.00000" pt_clust_8="13000.00000" pt_clust_9="57.59157"></scales>
<clustering>
<clus scale="   57.592">  1  9  2 -1</clus>
<clus scale="   81.244">  5  6 -1 -1</clus>
<clus scale="   83.114">  1  5  2 -1</clus>
<clus scale="   92.248">  7  8 -1 -1</clus>
<clus scale="   57.592">  1  5  2 -1</clus>
</clustering>
</event>
<event>
 9    1  0.7586638E-005  0.1394790E+03  0.7546771E-02  0.1230052E+00
         21   -1    0    0  501  502  0.00000000000E+00  0.00000000000E+00  0.25450786872E+03  0.25450786872E+03  0.00000000000E+00 0. -1.
          1   -1    0    0  502    0 -0.00000000000E+00 -0.00000000000E+00 -0.14827969904E+03  0.14827969904E+03  0.00000000000E+00 0. -1.
         23    2    1    2    0    0  0.21950404785E+02  0.35659200112E+02  0.83547360597E+02  0.13011660885E+03  0.90536023846E+02 0.  0.
        -24    2    1    2    0    0  0.10448941345E+03 -0.98052627669E+01  0.47184270155E+02  0.14130934612E+03  0.82023138501E+02 0.  0.
         13    1    4    4    0    0  0.99227070281E+02  0.21436752966E+02  0.36151740981E+02  0.10776128354E+03  0.00000000000E+00 0. -1.
        -14    1    4    4    0    0  0.52623431649E+01 -0.31242015733E+02  0.11032529175E+02  0.33548062576E+02  0.00000000000E+00 0.  1.
        -11    1    3    3    0    0  0.57525084390E+02  0.23036514959E+02  0.50203348944E+02  0.79750815674E+02  0.00000000000E+00 0.  1.
         11    1    3    3    0    0 -0.35574679604E+02  0.12622685153E+02  0.33344011653E+02  0.50365793179E+02  0.00000000000E+00 0. -1.
          2    1    1    2  501    0 -0.12643981823E+03 -0.25853937345E+02 -0.24503461066E+02  0.13136161279E+03  0.00000000000E+00 0. -1.
<scales pt_clust_5="13000.00000" pt_clust_6="13000.00000" pt_clust_7="13000.00000" pt_clust_8="13000.00000" pt_clust_9="112.81226"></scales>
<clustering>
<clus scale="   82.023">  5  6 -1 -1</clus>
<clus scale="   90.536">  7  8 -1 -1</clus>
<clus scale="   99.751">  2  7  1 -1</clus>
<clus scale="  112.812">  1  9  2 -1</clus>
<clus scale="  112.812">  1  5  2 -1</clus>
</clustering>
</event>
<event>
 9    1  0.7586638E-005  0.2069875E+03  0.7546771E-02  0.1144798E+00
          1   -1    0    0  502    0 -0.00000000000E+00  0.00000000000E+00  0.55899349021E+03  0.55899349021E+03  0.00000000000E+00 0. -1.
         21   -1    0    0  501  502  0.00000000000E+00 -0.00000000000E+00 -0.28904535642E+03  0.28904535642E+03  0.00000000000E+00 0. -1.
        -24    2    1    2    0    0 -0.40688861173E+02 -0.17297753548E+03  0.26011209799E+03  0.32512079935E+03  0.80426484744E+02 0.  0.
         23    2    1    2    0    0  0.28612079900E+02  0.19656741976E+03  0.22075190953E+03  0.31034373773E+03  0.90135610949E+02 0.  0.
         13    1    3    3    0    0 -0.52791081712E+01 -0.22899349921E+02  0.10041719391E+03  0.10313031582E+03  0.00000000000E+00 0. -1.
        -14    1    3    3    0    0 -0.35409753002E+02 -0.15007818555E+03  0.15969490408E+03  0.22199048353E+03  0.00000000000E+00 0.  1.
        -13    1    4    4    0    0  0.79618327998E+00  0.16773101582E+03  0.21018302561E+03  0.26890747820E+03  0.00000000000E+00 0. -1.
         13    1    4    4    0    0  0.27815896620E+02  0.28836403938E+02  0.10568883921E+02  0.41436259534E+02  0.00000000000E+00 0.  1.
          2    1    1    2  501    0  0.12076781273E+02 -0.23589884281E+02 -0.21091587374E+03  0.21257430955E+03  0.00000000000E+00 0. -1.
<scales pt_clust_5="13000.00000" pt_clust_6="13000.00000" pt_clust_7="13000.00000" pt_clust_8="13000.00000" pt_clust_9="26.50153"></scales>
<clustering>
<clus scale="   26.502">  2  9  1 -1</clus>
<clus scale="   80.426">  5  6 -1 -1</clus>
<clus scale="   90.136">  7  8 -1 -1</clus>
<clus scale="  202.948">  1  5  2 -1</clus>
<clus scale="   26.502">  2  5  1 -1</clus>
</clustering>
</event>
<event>
 9    1  0.7586638E-005  0.2103043E+03  0.7546771E-02  0.1175153E+00
         21   -1    0    0  501  502  0.00000000000E+00  0.00000000000E+00  0.66105977663E+03  0.66105977663E+03  0.00000000000E+00 0. -1.
         -2   -1    0    0    0  501 -0.00000000000E+00 -0.00000000000E+00 -0.11099565446E+03  0.11099565446E+03  0.00000000000E+00 0.  1.
         23    2    1    2    0    0 -0.12821759619E+02 -0.13869373193E+02  0.14989906303E+03  0.17770263652E+03  0.93550739676E+02 0.  0.
        -24    2    1    2    0    0  0.17317022189E+03 -0.89912947736E+02  0.32755771066E+03  0.39001428488E+03  0.82126881577E+02 0.  0.
         13    1    4    4    0    0  0.16517684324E+03 -0.10221771961E+03  0.31756204014E+03  0.37225999125E+03  0.00000000000E+00 0. -1.
        -14    1    4    4    0    0  0.79933786468E+01  0.12304771878E+02  0.99956705162E+01  0.17754293628E+02  0.00000000000E+00 0.  1.
        -11    1    3    3    0    0  0.36105485053E+02 -0.16827265603E+01  0.27790685913E+02  0.45593418857E+02  0.00000000000E+00 0. -1.
         11    1    3    3    0    0 -0.48927244672E+02 -0.12186646632E+02  0.12210837712E+03  0.13210921766E+03  0.00000000000E+00 0.  1.
         -1    1    1    2    0  502 -0.16034846227E+03  0.10378232093E+03  0.72607348472E+02  0.20433850969E+03  0.00000000000E+00 0.  1.
<scales pt_clust_5="13000.00000" pt_clust_6="13000.00000" pt_clust_7="13000.00000" pt_clust_8="13000.00000" pt_clust_9="193.60557"></scales>
<clustering>
<clus scale="   82.127">  5  6 -1 -1</clus>
<clus scale="   93.551">  7  8 -1 -1</clus>
<clus scale="   95.438">  2  7  1 -1</clus>
<clus scale="  193.606">  1  9  2 -1</clus>
<clus scale="  193.606">  1  5  2 -1</clus>
</clustering>
</event>
<event>
 9    1  0.7586638E-005  0.1161604E+03  0.7546771E-02  0.1252039E+00
         21   -1    0    0  501  502  0.00000000000E+00  0.00000000000E+00  0.26263177729E+03  0.26263177729E+03  0.00000000000E+00 0. -1.
          3   -1    0    0  502    0 -0.00000000000E+00 -0.00000000000E+00 -0.17125250693E+03  0.17125250693E+03  0.00000000000E+00 0. -1.
         23    2    1    2    0    0 -0.63005800998E+02  0.20292144104E+02 -0.77329903123E+02  0.13585613494E+03  0.89974848772E+02 0.  0.
        -24    2    1    2    0    0  0.73929135303E+02 -0.53136420777E+02 -0.28742668739E+01  0.12298831739E+03  0.82636968383E+02 0.  0.
         11    1    4    4    0    0  0.28522323775E+02 -0.34786258556E+02 -0.41044803492E+02  0.60895670056E+02  0.00000000000E+00 0. -1.
        -12    1    4    4    0    0  0.45406811528E+02 -0.18350162222E+02  0.38170536618E+02  0.62092647330E+02  0.00000000000E+00 0.  1.
        -13    1    3    3    0    0 -0.84487931761E+02  0.21110484368E+02 -0.73633859553E+02  0.11404301134E+03  0.00000000000E+00 0. -1.
         13    1    3    3    0    0  0.21482130763E+02 -0.81834026436E+00 -0.36960435706E+01  0.21813123595E+02  0.00000000000E+00 0.  1.
          4    1    1    2  501    0 -0.10923334306E+02  0.32844276674E+02  0.17158344036E+03  0.17503983189E+03  0.00000000000E+00 0. -1.
<scales pt_clust_5="13000.00000" pt_clust_6="13000.00000" pt_clust_7="13000.00000" pt_clust_8="13000.00000" pt_clust_9="34.61309"></scales>
<clustering>
<clus scale="   34.613">  1  9  2 -1</clus>
<clus scale="   82.637">  5  6 -1 -1</clus>
<clus scale="   89.975">  7  8 -1 -1</clus>
<clus scale="  110.574">  1  5  2 -1</clus>
<clus scale="   34.613">  1  5  2 -1</clus>
</clustering>
</event>
<event>
 9    1  0.7586638E-005  0.1412812E+03  0.7546771E-02  0.1214220E+00
         21   -1    0    0  501  502  0.00000000000E+00  0.00000000000E+00  0.38489642225E+03  0.38489642225E+03  0.00000000000E+00 0.  1.
         -2   -1    0    0    0  501 -0.00000000000E+00 -0.00000000000E+00 -0.18921740372E+03  0.18921740372E+03  0.00000000000E+00 0.  1.
        -24    2    1    2    0    0  0.53252739851E+02  0.91771351214E+02 -0.12497666326E+03  0.18317177307E+03  0.81700042121E+02 0.  0.
         23    2    1    2    0    0 -0.18441560302E+02 -0.10847655159E+03  0.12358201610E+03  0.19012145721E+03  0.93629057450E+02 0.  0.
         13    1    3    3    0    0 -0.43048331018E+01  0.44509699655E+02 -0.94261067780E+01  0.45700070464E+02  0.00000000000E+00 0. -1.
        -14    1    3    3    0    0  0.57557572952E+02  0.47261651559E+02 -0.11555055648E+03  0.13747170260E+03  0.00000000000E+00 0.  1.
        -13    1    4    4    0    0 -0.23816190179E+02  0.28649831528E+01  0.53020370871E+02  0.58194319056E+02  0.00000000000E+00 0. -1.
         13    1    4    4    0    0  0.53746298771E+01 -0.11134153474E+03  0.70561645226E+02  0.13192713816E+03  0.00000000000E+00 0.  1.
         -1    1    1    2    0  502 -0.34811179549E+02  0.16705200377E+02  0.19707366570E+03  0.20082059569E+03  0.00000000000E+00 0.  1.
<scales pt_clust_5="13000.00000" pt_clust_6="13000.00000" pt_clust_7="13000.00000" pt_clust_8="13000.00000" pt_clust_9="38.61194"></scales>
<clustering>
<clus scale="   38.612">  1  9  2 -1</clus>
<clus scale="   81.700">  5  6 -1 -1</clus>
<clus scale="   93.629">  7  8 -1 -1</clus>
<clus scale="  133.674">  2  5  1 -1</clus>
<clus scale="   38.612">  1  5  2 -1</clus>
</clustering>
</event>
<event>
 9    1  0.7586638E-005  0.1701814E+03  0.7546771E-02  0.1197433E+00
          1   -1    0    0  502    0 -0.00000000000E+00  0.00000000000E+00  0.32568506424E+03  0.32568506424E+03  0.00000000000E+00 0. -1.
         21   -1    0    0  501  502  0.00000000000E+00 -0.00000000000E+00 -0.15132023307E+03  0.15132023307E+03  0.00000000000E+00 0.  1.
        -24    2    1    2    0    0 -0.22634287888E+02  0.70698791093E+02  0.94302792824E+02  0.14469027224E+03  0.80818488578E+02 0.  0.
         23    2    1    2    0    0  0.14826364314E+03 -0.87259526894E+02  0.41223266703E+02  0.19978033885E+03  0.92825067528E+02 0.  0.
         13    1    3    3    0    0 -0.28961736527E+02 -0.38828068556E+01  0.49428160348E+02  0.57419521132E+02  0.00000000000E+00 0. -1.
        -14    1    3    3    0    0  0.63274486383E+01  0.74581597948E+02  0.44874632476E+02  0.87270751106E+02  0.00000000000E+00 0.  1.
        -11    1    4    4    0    0  0.12711736915E+03 -0.10709926171E+03  0.38762922467E+02  0.17067993894E+03  0.00000000000E+00 0.  1.
         11    1    4    4    0    0  0.21146273994E+02  0.19839734813E+02  0.24603442358E+01  0.29100399912E+02  0.00000000000E+00 0. -1.
          2    1    1    2  501    0 -0.12562935525E+03  0.16560735801E+02  0.38838771643E+02  0.13253468623E+03  0.00000000000E+00 0. -1.
<scales pt_clust_5="13000.00000" pt_clust_6="13000.00000" pt_clust_7="13000.00000" pt_clust_8="13000.00000" pt_clust_9="142.63667"></scales>
<clustering>
<clus scale="   80.818">  5  6 -1 -1</clus>
<clus scale="   92.825">  7  8 -1 -1</clus>
<clus scale="  109.737">  1  5  2 -1</clus>
<clus scale="  142.637">  2  9  1 -1</clus>
<clus scale="  142.637">  2  5  1 -1</clus>
</clustering>
</event>
<event>
 9    1  0.7586638E-005  0.1455927E+03  0.7546771E-02  0.1207624E+00
         -2   -1    0    0    0  501 -0.00000000000E+00  0.00000000000E+00  0.80699272595E+02  0.80699272595E+02  0.00000000000E+00 0.  1.
         21   -1    0    0  501  502  0.00000000000E+00 -0.00000000000E+00 -0.46129568948E+03  0.46129568948E+03  0.00000000000E+00 0.  1.
        -24    2    1    2    0    0  0.52390063554E+02  0.11894072431E+03 -0.94671415345E+02  0.18056976376E+03  0.82165370095E+02 0.  0.
         23    2    1    2    0    0  0.15613453358E+02 -0.93966452944E+02 -0.24557478774E+03  0.27850154490E+03  0.90458056216E+02 0.  0.
         13    1    3    3    0    0 -0.18904566346E+02  0.34415257161E+02 -0.43884269075E+02  0.58886514810E+02  0.00000000000E+00 0. -1.
        -14    1    3    3    0    0  0.71294629899E+02  0.84525467145E+02 -0.50787146271E+02  0.12168324895E+03  0.00000000000E+00 0.  1.
        -13    1    4    4    0    0 -0.14062987006E+02 -0.99497109572E+02 -0.20018605106E+03  0.22399084235E+03  0.00000000000E+00 0.  1.
         13    1    4    4    0    0  0.29676440364E+02  0.55306566283E+01 -0.45388736673E+02  0.54510702547E+02  0.00000000000E+00 0. -1.
         -1    1    1    2    0  502 -0.68003516912E+02 -0.24974271363E+02 -0.40350213808E+02  0.82923653422E+02  0.00000000000E+00 0.  1.
<scales pt_clust_5="13000.00000" pt_clust_6="13000.00000" pt_clust_7="13000.00000" pt_clust_8="13000.00000" pt_clust_9="72.44445"></scales>
<clustering>
<clus scale="   72.444">  2  9  1 -1</clus>
<clus scale="   82.165">  5  6 -1 -1</clus>
<clus scale="   90.458">  7  8 -1 -1</clus>
<clus scale="  140.591">  1  5  2 -1</clus>
<clus scale="   72.444">  2  5  1 -1</clus>
</clustering>
</event>
<event>
 9    1  0.7586638E-005  0.1020178E+03  0.7546771E-02  0.1281543E+00
         -4   -1    0    0    0  501 -0.00000000000E+00  0.00000000000E+00  0.48707947044E+02  0.48707947044E+02  0.00000000000E+00 0.  1.
         21   -1    0    0  501  502  0.00000000000E+00 -0.00000000000E+00 -0.33635966426E+03  0.33635966426E+03  0.00000000000E+00 0. -1.
         23    2    1    2    0    0  0.30151368693E+02 -0.29843062334E+02 -0.11267911894E+03  0.15107296629E+03  0.91250993954E+02 0.  0.
        -24    2    1    2    0    0 -0.50996945130E+02  0.16323211847E+02 -0.18395836902E+03  0.20757365922E+03  0.79868684814E+02 0.  0.
         13    1    4    4    0    0  0.14085483201E+01  0.38641096905E+02 -0.85263172308E+02  0.93621188469E+02  0.00000000000E+00 0. -1.
        -14    1    4    4    0    0 -0.52405493450E+02 -0.22317885058E+02 -0.98695196710E+02  0.11395247075E+03  0.00000000000E+00 0.  1.
        -11    1    3    3    0    0 -0.18993847463E+02  0.21054319095E+02 -0.44835657691E+02  0.53049851975E+02  0.00000000000E+00 0.  1.
         11    1    3    3    0    0  0.49145216156E+02 -0.50897381429E+02 -0.67843461244E+02  0.98023114320E+02  0.00000000000E+00 0. -1.
         -3    1    1    2    0  502  0.20845576437E+02  0.13519850487E+02  0.89857707368E+01  0.26420985787E+02  0.00000000000E+00 0.  1.
<scales pt_clust_5="13000.00000" pt_clust_6="13000.00000" pt_clust_7="13000.00000" pt_clust_8="13000.00000" pt_clust_9="24.84603"></scales>
<clustering>
<clus scale="   24.846">  2  9  1 -1</clus>
<clus scale="   79.869">  5  6 -1 -1</clus>
<clus scale="   91.251">  7  8 -1 -1</clus>
<clus scale="   91.978">  2  5  1 -1</clus>
<clus scale="   24.846">  2  5  1 -1</clus>
</clustering>
</event>
<event>
 9    1  0.7586638E-005  0.1451188E+03  0.7546771E-02  0.1208738E+00
         -4   -1    0    0    0  501 -0.00000000000E+00  0.00000000000E+00  0.40991658431E+03  0.40991658431E+03  0.00000000000E+00 0.  1.
         21   -1    0    0  501  502  0.00000000000E+00 -0.00000000000E+00 -0.56783410997E+03  0.56783410997E+03  0.00000000000E+00 0. -1.
        -24    2    1    2    0    0  0.10813910701E+03 -0.17280276917E+02 -0.47650963570E+02  0.14378410499E+03  0.80066098210E+02 0.  0.
         23    2    1    2    0    0 -0.11307565589E+03  0.95058902830E+02 -0.45164950961E+03  0.48380062717E+03  0.90848601285E+02 0.  0.
         11    1    3    3    0    0  0.67754730491E+02  0.14270804810E+02 -0.59374290410E+02  0.91212201682E+02  0.00000000000E+00 0. -1.
        -12    1    3    3    0    0  0.40384376520E+02 -0.31551081728E+02  0.11723326840E+02  0.52571903307E+02  0.00000000000E+00 0.  1.
        -11    1    4    4    0    0 -0.68242540695E+02  0.41879827550E+02 -0.35971511693E+03  0.36851856081E+03  0.00000000000E+00 0. -1.
         11    1    4    4    0    0 -0.44833115192E+02  0.53179075280E+02 -0.91934392680E+02  0.11528206635E+03  0.00000000000E+00 0.  1.
         -3    1    1    2    0  502  0.49365488754E+01 -0.77778625913E+02  0.34138294753E+03  0.35016596212E+03  0.00000000000E+00 0.  1.
<scales pt_clust_5="13000.00000" pt_clust_6="13000.00000" pt_clust_7="13000.00000" pt_clust_8="13000.00000" pt_clust_9="77.93517"></scales>
<clustering>
<clus scale="   77.935">  2  9  1 -1</clus>
<clus scale="   80.066">  5  6 -1 -1</clus>
<clus scale="   90.849">  7  8 -1 -1</clus>
<clus scale="  138.624">  1  5  2 -1</clus>
<clus scale="   77.935">  2  5  1 -1</clus>
</clustering>
</event>
<event>
 9    1  0.7586638E-005  0.1595066E+03  0.7546771E-02  0.1215598E+00
          1   -1    0    0  502    0 -0.00000000000E+00  0.00000000000E+00  0.66292894170E+03  0.66292894170E+03  0.00000000000E+00 0. -1.
         21   -1    0    0  501  502  0.00000000000E+00 -0.00000000000E+00 -0.13074093331E+03  0.13074093331E+03  0.00000000000E+00 0. -1.
        -24    2    1    2    0    0 -0.40055479582E+02 -0.60176822987E+01  0.15809743359E+03  0.18202728700E+03  0.80613155016E+02 0.  0.
         23    2    1    2    0    0 -0.87820402587E+02  0.29702485930E+02  0.44419203474E+03  0.46390151095E+03  0.96454068610E+02 0.  0.
         11    1    3    3    0    0 -0.39359143787E+02  0.32314858458E+02  0.10302496274E+03  0.11492404111E+03  0.00000000000E+00 0. -1.
        -12    1    3    3    0    0 -0.69633579487E+00 -0.38332540757E+02  0.55072470845E+02  0.67103245893E+02  0.00000000000E+00 0.  1.
        -11    1    4    4    0    0 -0.10770741314E+03  0.34642744477E+02  0.38366994779E+03  0.40000454426E+03  0.00000000000E+00 0. -1.
         11    1    4    4    0    0  0.19887010553E+02 -0.49402585472E+01  0.60522086954E+02  0.63896966692E+02  0.00000000000E+00 0.  1.
          2    1    1    2  501    0  0.12787588217E+03 -0.23684803631E+02 -0.70101459938E+02  0.14774107705E+03  0.00000000000E+00 0. -1.
<scales pt_clust_5="13000.00000" pt_clust_6="13000.00000" pt_clust_7="13000.00000" pt_clust_8="13000.00000" pt_clust_9="127.03924"></scales>
<clustering>
<clus scale="   80.613">  5  6 -1 -1</clus>
<clus scale="   90.217">  1  5  2 -1</clus>
<clus scale="   96.454">  7  8 -1 -1</clus>
<clus scale="  127.039">  2  9  1 -1</clus>
<clus scale="  127.039">  2  5  1 -1</clus>
</clustering>
</event>
<event>
 9    1  0.7586638E-005  0.9790218E+02  0.7546771E-02  0.1289445E+00
          1   -1    0    0  502    0 -0.00000000000E+00  0.00000000000E+00  0.27451425677E+03  0.27451425677E+03  0.00000000000E+00 0. -1.
         21   -1    0    0  501  502  0.00000000000E+00 -0.00000000000E+00 -0.79560338578E+02  0.79560338578E+02  0.00000000000E+00 0.  1.
         23    2    1    2    0    0 -0.31437689453E+02 -0.42105256538E+02  0.89229290293E+02  0.13778171256E+03  0.90888685343E+02 0.  0.
        -24    2    1    2    0    0  0.37426832066E+02 -0.34246100723E+02  0.14950867083E+02  0.97527251238E+02  0.81941888765E+02 0.  0.
         13    1    4    4    0    0 -0.20676649273E+02  0.48333730051E+01  0.17413209830E+02  0.27460975882E+02  0.00000000000E+00 0. -1.
        -14    1    4    4    0    0  0.58103481339E+02 -0.39079473728E+02 -0.24623427473E+01  0.70066275356E+02  0.00000000000E+00 0.  1.
        -13    1    3    3    0    0  0.29890799462E+02 -0.30148851978E+02  0.38140268871E+02  0.57070949507E+02  0.00000000000E+00 0.  1.
         13    1    3    3    0    0 -0.61328488915E+02 -0.11956404560E+02  0.51089021422E+02  0.80710763052E+02  0.00000000000E+00 0. -1.
          2    1    1    2  501    0 -0.59891426127E+01  0.76351357260E+02  0.90773760814E+02  0.11876563155E+03  0.00000000000E+00 0. -1.
<scales pt_clust_5="13000.00000" pt_clust_6="13000.00000" pt_clust_7="13000.00000" pt_clust_8="13000.00000" pt_clust_9="76.58594"></scales>
<clustering>
<clus scale="   76.586">  2  9  1 -1</clus>
<clus scale="   81.942">  5  6 -1 -1</clus>
<clus scale="   89.658">  2  5  1 -1</clus>
<clus scale="   90.889">  7  8 -1 -1</clus>
<clus scale="   76.586">  2  5  1 -1</clus>
</clustering>
</event>
<event>
 9    1  0.7586638E-005  0.2982288E+03  0.7546771E-02  0.1086673E+00
         -2   -1    0    0    0  501 -0.00000000000E+00  0.00000000000E+00  0.35808155325E+03  0.35808155325E+03  0.00000000000E+00 0.  1.
         21   -1    0    0  501  502  0.00000000000E+00 -0.00000000000E+00 -0.40422959039E+03  0.40422959039E+03  0.00000000000E+00 0.  1.
         23    2    1    2    0    0 -0.13026999628E+03  0.31337704055E+03  0.11253983244E+03  0.37051299375E+03  0.97155664692E+02 0.  0.
        -24    2    1    2    0    0  0.88805881575E+02 -0.19169030697E+03 -0.78088121848E+02  0.24006399661E+03  0.83074119336E+02 0.  0.
         11    1    4    4    0    0  0.86286425598E+02 -0.90547759136E+02 -0.52886974305E+02  0.13579865971E+03  0.00000000000E+00 0. -1.
        -12    1    4    4    0    0  0.25194559766E+01 -0.10114254784E+03 -0.25201147543E+02  0.10426533690E+03  0.00000000000E+00 0.  1.
        -13    1    3    3    0    0  0.14001061509E+02  0.56834330713E+02  0.22687159028E+02  0.62776413212E+02  0.00000000000E+00 0. -1.
         13    1    3    3    0    0 -0.14427105779E+03  0.25654270983E+03  0.89852673413E+02  0.30773658054E+03  0.00000000000E+00 0.  1.
         -1    1    1    2    0  502  0.41464114703E+02 -0.12168673358E+03 -0.80599747739E+02  0.15173415328E+03  0.00000000000E+00 0.  1.
<scales pt_clust_5="13000.00000" pt_clust_6="13000.00000" pt_clust_7="13000.00000" pt_clust_8="13000.00000" pt_clust_9="128.55712"></scales>
<clustering>
<clus scale="   83.074">  5  6 -1 -1</clus>
<clus scale="   97.156">  7  8 -1 -1</clus>
<clus scale="  128.557">  2  9  1 -1</clus>
<clus scale="  293.943">  2  5  1 -1</clus>
<clus scale="  128.557">  2  5  1 -1</clus>
</clustering>
</event>
<event>
 9    1  0.7586638E-005  0.1053377E+03  0.7546771E-02  0.1272543E+00
         -2   -1    0    0    0  501 -0.00000000000E+00  0.00000000000E+00  0.16603827395E+03  0.16603827395E+03  0.00000000000E+00 0.  1.
         21   -1    0    0  501  502  0.00000000000E+00 -0.00000000000E+00 -0.14044788050E+03  0.14044788050E+03  0.00000000000E+00 0. -1.
        -24    2    1    2    0    0 -0.27650392654E+02 -0.50771433314E+02  0.10628014322E+03  0.14654477867E+03  0.82689906623E+02 0.  0.
         23    2    1    2    0    0  0.25582081289E+02  0.29490986271E+02 -0.93125200172E+02  0.13520727453E+03  0.89914086909E+02 0.  0.
         13    1    3    3    0    0  0.17800007341E+02 -0.40022973944E+02  0.84139406114E+02  0.94858412205E+02  0.00000000000E+00 0. -1.
        -14    1    3    3    0    0 -0.45450399995E+02 -0.10748459369E+02  0.22140737102E+02  0.51686366461E+02  0.00000000000E+00 0.  1.
        -13    1    4    4    0    0  0.56474734679E+02  0.34721598265E+02 -0.57424622175E+02  0.87707310272E+02  0.00000000000E+00 0. -1.
         13    1    4    4    0    0 -0.30892653390E+02 -0.52306119946E+01 -0.35700577997E+02  0.47499964259E+02  0.00000000000E+00 0.  1.
         -1    1    1    2    0  502  0.20683113645E+01  0.21280447043E+02  0.12435450399E+02  0.24734101255E+02  0.00000000000E+00 0.  1.
<scales pt_clust_5="13000.00000" pt_clust_6="13000.00000" pt_clust_7="13000.00000" pt_clust_8="13000.00000" pt_clust_9="21.38073"></scales>
<clustering>
<clus scale="   21.381">  2  9  1 -1</clus>
<clus scale="   82.690">  5  6 -1 -1</clus>
<clus scale="   89.914">  7  8 -1 -1</clus>
<clus scale="   99.243">  1  5  2 -1</clus>
<clus scale="   21.381">  2  5  1 -1</clus>
</clustering>
</event>
<event>
 9    1  0.7586638E-005  0.2110263E+03  0.7546771E-02  0.1142262E+00
          1   -1    0    0  502    0 -0.00000000000E+00  0.00000000000E+00  0.14534060924E+04  0.14534060924E+04  0.00000000000E+00 0. -1.
         21   -1    0    0  501  502  0.00000000000E+00 -0.00000000000E+00 -0.19852576902E+03  0.19852576902E+03  0.00000000000E+00 0. -1.
         23    2    1    2    0    0 -0.17881340764E+03 -0.11026671817E+03  0.10268571946E+04  0.10525705356E+04  0.96623239787E+02 0.  0.
        -24    2    1    2    0    0  0.17899665170E+03 -0.65122323312E+02  0.33541154138E+03  0.39370719717E+03  0.78890662935E+02 0.  0.
         13    1    4    4    0    0  0.12381958279E+03 -0.10313488685E+02  0.24301809885E+03  0.27293855261E+03  0.00000000000E+00 0. -1.
        -14    1    4    4    0    0  0.55177068910E+02 -0.54808834627E+02  0.92393442536E+02  0.12076864457E+03  0.00000000000E+00 0.  1.
        -11    1    3    3    0    0 -0.11943279251E+02 -0.52477386006E+02  0.20424314152E+03  0.21121500614E+03  0.00000000000E+00 0.  1.
         11    1    3    3    0    0 -0.16687012838E+03 -0.57789332159E+02  0.82261405309E+03  0.84135552949E+03  0.00000000000E+00 0. -1.
          2    1    1    2  501    0 -0.18324406554E+00  0.17538904148E+03 -0.10738841262E+03  0.20565412861E+03  0.00000000000E+00 0. -1.
<scales pt_clust_5="13000.00000" pt_clust_6="13000.00000" pt_clust_7="13000.00000" pt_clust_8="13000.00000" pt_clust_9="175.38914"></scales>
<clustering>
<clus scale="   78.891">  5  6 -1 -1</clus>
<clus scale="   96.623">  7  8 -1 -1</clus>
<clus scale="  175.389">  2  9  1 -1</clus>
<clus scale="  203.518">  2  5  1 -1</clus>
<clus scale="  175.389">  2  5  1 -1</clus>
</clustering>
</event>
<event>
 9    1  0.7586638E-005  0.3705260E+03  0.7546771E-02  0.1102080E+00
          1   -1    0    0  502    0 -0.00000000000E+00  0.00000000000E+00  0.88749917835E+03  0.88749917835E+03  0.00000000000E+00 0. -1.
         21   -1    0    0  501  502  0.00000000000E+00 -0.00000000000E+00 -0.35096208579E+03  0.35096208579E+03  0.00000000000E+00 0. -1.
        -24    2    1    2    0    0  0.30649759603E+02 -0.52745802418E+02  0.48122905869E+03  0.49198868985E+03  0.82157997590E+02 0.  0.
         23    2    1    2    0    0  0.13202196460E+03 -0.30552948617E+03 -0.15248155429E+02  0.34672084119E+03  0.95941489540E+02 0.  0.
         11    1    3    3    0    0 -0.26681838574E+02 -0.28629588321E+02  0.22029922200E+03  0.22374834312E+03  0.00000000000E+00 0. -1.
        -12    1    3    3    0    0  0.57331598177E+02 -0.24116214096E+02  0.26092983670E+03  0.26824034673E+03  0.00000000000E+00 0.  1.
        -11    1    4    4    0    0  0.54815163818E+02 -0.56231106838E+02  0.25531093218E+02  0.82574065429E+02  0.00000000000E+00 0.  1.
         11    1    4    4    0    0  0.77206800787E+02 -0.24929837934E+03 -0.40779248647E+02  0.26414677577E+03  0.00000000000E+00 0. -1.
          2    1    1    2  501    0 -0.16267172421E+03  0.35827528859E+03  0.70556189295E+02  0.39975173310E+03  0.00000000000E+00 0. -1.
<scales pt_clust_5="13000.00000" pt_clust_6="13000.00000" pt_clust_7="13000.00000" pt_clust_8="13000.00000" pt_clust_9="357.88952"></scales>
<clustering>
<clus scale="   82.158">  5  6 -1 -1</clus>
<clus scale="   95.941">  7  8 -1 -1</clus>
<clus scale="  102.330">  1  5  2 -1</clus>
<clus scale="  357.890">  2  9  1 -1</clus>
<clus scale="  357.890">  2  5  1 -1</clus>
</clustering>
</event>
<event>
 9    1  0.7586638E-005  0.1468759E+03  0.7546771E-02  0.1205987E+00
         21   -1    0    0  501  502  0.00000000000E+00  0.00000000000E+00  0.91455525137E+03  0.91455525137E+03  0.00000000000E+00 0. -1.
          1   -1    0    0  502    0 -0.00000000000E+00 -0.00000000000E+00 -0.96595655298E+02  0.96595655298E+02  0.00000000000E+00 0. -1.
         23    2    1    2    0    0 -0.21770923259E+02 -0.10916197434E+03 -0.39954768140E+01  0.14290321656E+03  0.89526843607E+02 0.  0.
        -24    2    1    2    0    0  0.98386499425E+01  0.17290869451E+03  0.73683712578E+03  0.76123793168E+03  0.80993969106E+02 0.  0.
         13    1    4    4    0    0  0.15910876925E+02  0.17983068714E+03  0.71682195942E+03  0.73920629972E+03  0.00000000000E+00 0. -1.
        -14    1    4    4    0    0 -0.60722269825E+01 -0.69219926233E+01  0.20015166359E+02  0.22031631959E+02  0.00000000000E+00 0.  1.
        -13    1    3    3    0    0  0.29742484270E+02 -0.14142910490E+02  0.87325258345E+01  0.34071898907E+02  0.00000000000E+00 0.  1.
         13    1    3    3    0    0 -0.51513407529E+02 -0.95019063853E+02 -0.12728002648E+02  0.10883131765E+03  0.00000000000E+00 0. -1.
          2    1    1    2  501    0  0.11932273316E+02 -0.63746720171E+02  0.85117947108E+02  0.10700975843E+03  0.00000000000E+00 0. -1.
<scales pt_clust_5="13000.00000" pt_clust_6="13000.00000" pt_clust_7="13000.00000" pt_clust_8="13000.00000" pt_clust_9="64.85389"></scales>
<clustering>
<clus scale="   64.854">  1  9  2 -1</clus>
<clus scale="   80.994">  5  6 -1 -1</clus>
<clus scale="   89.527">  7  8 -1 -1</clus>
<clus scale="  141.836">  1  5  2 -1</clus>
<clus scale="   64.854">  1  5  2 -1</clus>
</clustering>
</event>
<event>
 9    1  0.7586638E-005  0.8373249E+02  0.7546771E-02  0.1328487E+00
          1   -1    0    0  502    0 -0.00000000000E+00  0.00000000000E+00  0.60533033783E+02  0.60533033783E+02  0.00000000000E+00 0. -1.
         21   -1    0    0  501  502  0.00000000000E+00 -0.00000000000E+00 -0.43568774426E+03  0.43568774426E+03  0.00000000000E+00 0. -1.
         23    2    1    2    0    0 -0.79981754460E+01  0.24760912634E+02 -0.38200977995E+01  0.73391389094E+02  0.68517364522E+02 0.  0.
        -24    2    1    2    0    0  0.26433417171E+02  0.25796869077E+02 -0.63106146212E+02  0.10993845752E+03  0.82096740224E+02 0.  0.
         13    1    4    4    0    0 -0.35934914448E+01  0.43854552373E+02 -0.60492100258E+02  0.74802601146E+02  0.00000000000E+00 0. -1.
        -14    1    4    4    0    0  0.30026908616E+02 -0.18057683296E+02 -0.26140459535E+01  0.35135856377E+02  0.00000000000E+00 0.  1.
        -13    1    3    3    0    0  0.18744244941E+02  0.85586595197E+01 -0.27361203393E+02  0.34252486367E+02  0.00000000000E+00 0.  1.
         13    1    3    3    0    0 -0.26742420387E+02  0.16202253115E+02  0.23541105593E+02  0.39138902727E+02  0.00000000000E+00 0. -1.
          2    1    1    2  501    0 -0.18435241725E+02 -0.50557781711E+02 -0.30822846646E+03  0.31289093142E+03  0.00000000000E+00 0. -1.
<scales pt_clust_5="13000.00000" pt_clust_6="13000.00000" pt_clust_7="13000.00000" pt_clust_8="13000.00000" pt_clust_9="53.81401"></scales>
<clustering>
<clus scale="   53.814">  2  9  1 -1</clus>
<clus scale="   68.517">  7  8 -1 -1</clus>
<clus scale="   70.469">  1  7  2 -1</clus>
<clus scale="   82.097">  5  6 -1 -1</clus>
<clus scale="   53.814">  2  5  1 -1</clus>
</clustering>
</event>
<event>
 9    1  0.7586638E-005  0.1426741E+03  0.7546771E-02  0.1212185E+00
          1   -1    0    0  502    0 -0.00000000000E+00  0.00000000000E+00  0.14932577305E+04  0.14932577305E+04  0.00000000000E+00 0. -1.
         21   -1    0    0  501  502  0.00000000000E+00 -0.00000000000E+00 -0.42589050690E+02  0.42589050690E+02  0.00000000000E+00 0.  1.
         23    2    1    2    0    0  0.47246474770E+02  0.83612731588E+02  0.18284947911E+03  0.22760057493E+03  0.95628298307E+02 0.  0.
        -24    2    1    2    0    0 -0.99207918394E+02  0.58250132006E+02  0.33184092795E+03  0.36015317772E+03  0.79728420353E+02 0.  0.
         13    1    4    4    0    0 -0.12895680639E+02  0.46176871347E+02  0.16628582810E+03  0.17305946566E+03  0.00000000000E+00 0. -1.
        -14    1    4    4    0    0 -0.86312237754E+02  0.12073260659E+02  0.16555509985E+03  0.18709371207E+03  0.00000000000E+00 0.  1.
        -11    1    3    3    0    0  0.76752738026E+02  0.56624017973E+02  0.12367382207E+03  0.15618090943E+03  0.00000000000E+00 0.  1.
         11    1    3    3    0    0 -0.29506263257E+02  0.26988713615E+02  0.59175657039E+02  0.71419665499E+02  0.00000000000E+00 0. -1.
          2    1    1    2  501    0  0.51961443624E+02 -0.14186286359E+03  0.93597827271E+03  0.94809302849E+03  0.00000000000E+00 0. -1.
<scales pt_clust_5="13000.00000" pt_clust_6="13000.00000" pt_clust_7="13000.00000" pt_clust_8="13000.00000" pt_clust_9="118.31859"></scales>
<clustering>
<clus scale="   79.728">  5  6 -1 -1</clus>
<clus scale="   95.628">  7  8 -1 -1</clus>
<clus scale="  135.529">  1  7  2 -1</clus>
<clus scale="  118.319">  2  9  1 -1</clus>
<clus scale="  118.319">  2  5  1 -1</clus>
</clustering>
</event>
<event>
 9    1  0.7586638E-005  0.3075119E+03  0.7546771E-02  0.1130375E+00
         21   -1    0    0  501  502  0.00000000000E+00  0.00000000000E+00  0.14970056302E+03  0.14970056302E+03  0.00000000000E+00 0. -1.
          1   -1    0    0  502    0 -0.00000000000E+00 -0.00000000000E+00 -0.83690322191E+03  0.83690322191E+03  0.00000000000E+00 0. -1.
        -24    2    1    2    0    0  0.36568089260E+01  0.34270499084E+02 -0.68807169268E+02  0.11153140109E+03  0.80727860917E+02 0.  0.
         23    2    1    2    0    0  0.24460074193E+03  0.14647849936E+03 -0.21794349079E+03  0.37043011909E+03  0.91834820315E+02 0.  0.
         13    1    3    3    0    0 -0.10642392760E+02  0.45958631229E+02 -0.78316739014E+01  0.47820408031E+02  0.00000000000E+00 0. -1.
        -14    1    3    3    0    0  0.14299201686E+02 -0.11688132145E+02 -0.60975495366E+02  0.63710993063E+02  0.00000000000E+00 0.  1.
        -11    1    4    4    0    0  0.17147866919E+03  0.50283746303E+02 -0.12961667729E+03  0.22075749627E+03  0.00000000000E+00 0. -1.
         11    1    4    4    0    0  0.73122072743E+02  0.96194753054E+02 -0.88326813500E+02  0.14967262282E+03  0.00000000000E+00 0.  1.
          2    1    1    2  501    0 -0.24825755086E+03 -0.18074899844E+03 -0.40045199883E+03  0.50464226474E+03  0.00000000000E+00 0. -1.
<scales pt_clust_5="13000.00000" pt_clust_6="13000.00000" pt_clust_7="13000.00000" pt_clust_8="13000.00000" pt_clust_9="293.47915"></scales>
<clustering>
<clus scale="   80.728">  5  6 -1 -1</clus>
<clus scale="   87.777">  2  5  1 -1</clus>
<clus scale="   91.835">  7  8 -1 -1</clus>
<clus scale="  293.479">  1  9  2 -1</clus>
<clus scale="  293.479">  1  5  2 -1</clus>
</clustering>
</event>
<event>
 9    1  0.7586638E-005  0.8637208E+02  0.7546771E-02  0.1313481E+00
         -2   -1    0    0    0  501 -0.00000000000E+00  0.00000000000E+00  0.12400407808E+04  0.12400407808E+04  0.00000000000E+00 0.  1.
         21   -1    0    0  501  502  0.00000000000E+00 -0.00000000000E+00 -0.54879774712E+02  0.54879774712E+02  0.00000000000E+00 0.  1.
        -24    2    1    2    0    0  0.32090329239E+02 -0.14722204464E+02  0.88188147201E+03  0.88666393233E+03  0.84920349050E+02 0.  0.
         23    2    1    2    0    0  0.29595612019E+02 -0.14218070860E+02  0.32488144527E+03  0.33677699352E+03  0.82418056870E+02 0.  0.
         11    1    3    3    0    0  0.20331431748E+01  0.28951191899E+02  0.14489834105E+03  0.14777629858E+03  0.00000000000E+00 0. -1.
        -12    1    3    3    0    0  0.30057186064E+02 -0.43673396363E+02  0.73698313097E+03  0.73888763375E+03  0.00000000000E+00 0.  1.
        -13    1    4    4    0    0  0.55098824201E+02 -0.11036336218E+02  0.27479233465E+03  0.28047906933E+03  0.00000000000E+00 0. -1.
         13    1    4    4    0    0 -0.25503212182E+02 -0.31817346414E+01  0.50089110613E+02  0.56297924197E+02  0.00000000000E+00 0.  1.
         -1    1    1    2    0  502 -0.61685941258E+02  0.28940275324E+02 -0.21601911214E+02  0.71479629635E+02  0.00000000000E+00 0.  1.
<scales pt_clust_5="13000.00000" pt_clust_6="13000.00000" pt_clust_7="13000.00000" pt_clust_8="13000.00000" pt_clust_9="68.13732"></scales>
<clustering>
<clus scale="   68.137">  2  9  1 -1</clus>
<clus scale="   82.418">  7  8 -1 -1</clus>
<clus scale="   83.913">  2  7  1 -1</clus>
<clus scale="   84.920">  5  6 -1 -1</clus>
<clus scale="   68.137">  2  5  1 -1</clus>
</clustering>
</event>
<event>
 9    1  0.7586638E-005  0.1788758E+03  0.7546771E-02  0.1198051E+00
         21   -1    0    0  501  502  0.00000000000E+00  0.00000000000E+00  0.75101410265E+02  0.75101410265E+02  0.00000000000E+00 0. -1.
          1   -1    0    0  502    0 -0.00000000000E+00 -0.00000000000E+00 -0.93387371964E+03  0.93387371964E+03  0.00000000000E+00 0. -1.
         23    2    1    2    0    0  0.31225993000E+02 -0.94591611114E+01 -0.32460653155E+02  0.98724546396E+02  0.87340160809E+02 0.  0.
        -24    2    1    2    0    0  0.14239632621E+03 -0.47920389882E+02 -0.22786690781E+03  0.28449245172E+03  0.80246806324E+02 0.  0.
         13    1    4    4    0    0  0.14162024150E+03 -0.50964246969E+02 -0.23363819819E+03  0.27792167048E+03  0.00000000000E+00 0. -1.
        -14    1    4    4    0    0  0.77608471777E+00  0.30438570865E+01  0.57712903785E+01  0.65707812385E+01  0.00000000000E+00 0.  1.
        -13    1    3    3    0    0  0.52916948512E+02  0.24663704092E+01 -0.46308107090E+02  0.70361404229E+02  0.00000000000E+00 0.  1.
         13    1    3    3    0    0 -0.21690955513E+02 -0.11925531521E+02  0.13847453935E+02  0.28363142167E+02  0.00000000000E+00 0. -1.
          2    1    1    2  501    0 -0.17362231921E+03  0.57379550994E+02 -0.59844474841E+03  0.62575813179E+03  0.00000000000E+00 0. -1.
<scales pt_clust_5="13000.00000" pt_clust_6="13000.00000" pt_clust_7="13000.00000" pt_clust_8="13000.00000" pt_clust_9="159.86569"></scales>
<clustering>
<clus scale="   80.247">  5  6 -1 -1</clus>
<clus scale="   87.340">  7  8 -1 -1</clus>
<clus scale="   93.235">  2  7  1 -1</clus>
<clus scale="  159.866">  1  9  2 -1</clus>
<clus scale="  159.866">  1  5  2 -1</clus>
</clustering>
</event>
<event>
 9    1  0.7586638E-005  0.9842378E+02  0.7546771E-02  0.1290314E+00
         21   -1    0    0  501  502  0.00000000000E+00  0.00000000000E+00  0.12387825174E+03  0.12387825174E+03  0.00000000000E+00 0.  1.
          1   -1    0    0  502    0 -0.00000000000E+00 -0.00000000000E+00 -0.15820090584E+03  0.15820090584E+03  0.00000000000E+00 0. -1.
         23    2    1    2    0    0 -0.42674879891E+01  0.30351032795E+02 -0.98145101688E+02  0.13851869750E+03  0.92820105186E+02 0.  0.
        -24    2    1    2    0    0 -0.25338108475E+02 -0.42590870264E+02  0.58456396614E+02  0.11107816542E+03  0.80406508172E+02 0.  0.
         13    1    4    4    0    0 -0.24081059581E+02 -0.18686853619E+02 -0.14890731335E+02  0.33923882567E+02  0.00000000000E+00 0. -1.
        -14    1    4    4    0    0 -0.12570488943E+01 -0.23904016645E+02  0.73347127950E+02  0.77154282850E+02  0.00000000000E+00 0.  1.
        -11    1    3    3    0    0  0.69958958174E+00  0.56703828690E+02 -0.27639295991E+02  0.63085214564E+02  0.00000000000E+00 0. -1.
         11    1    3    3    0    0 -0.49670775708E+01 -0.26352795895E+02 -0.70505805697E+02  0.75433482937E+02  0.00000000000E+00 0.  1.
          2    1    1    2  501    0  0.29605596464E+02  0.12239837469E+02  0.53660509712E+01  0.32482294659E+02  0.00000000000E+00 0. -1.
<scales pt_clust_5="13000.00000" pt_clust_6="13000.00000" pt_clust_7="13000.00000" pt_clust_8="13000.00000" pt_clust_9="32.03599"></scales>
<clustering>
<clus scale="   32.036">  1  9  2 -1</clus>
<clus scale="   80.407">  5  6 -1 -1</clus>
<clus scale="   86.815">  1  5  2 -1</clus>
<clus scale="   92.820">  7  8 -1 -1</clus>
<clus scale="   32.036">  1  5  2 -1</clus>
</clustering>
</event>
<event>
 9    1  0.7586638E-005  0.1125632E+03  0.7546771E-02  0.1259415E+00
         21   -1    0    0  501  502  0.00000000000E+00  0.00000000000E+00  0.22068656899E+03  0.22068656899E+03  0.00000000000E+00 0.  1.
          1   -1    0    0  502    0 -0.00000000000E+00 -0.00000000000E+00 -0.54194287401E+03  0.54194287401E+03  0.00000000000E+00 0. -1.
        -24    2    1    2    0    0  0.39262090420E+02 -0.53775217722E+02 -0.51334218685E+03  0.52403817746E+03  0.81624290835E+02 0.  0.
         23    2    1    2    0    0 -0.74919499192E+01  0.54282964359E+02  0.16754502998E+03  0.19844337589E+03  0.91135431254E+02 0.  0.
         13    1    3    3    0    0  0.25623573711E+02 -0.67720665282E+02 -0.25845621927E+03  0.26840691741E+03  0.00000000000E+00 0. -1.
        -14    1    3    3    0    0  0.13638516709E+02  0.13945447560E+02 -0.25488596758E+03  0.25563126005E+03  0.00000000000E+00 0.  1.
        -11    1    4    4    0    0  0.31987079497E+02  0.18400693454E+02  0.20931113502E+02  0.42424878159E+02  0.00000000000E+00 0. -1.
         11    1    4    4    0    0 -0.39479029417E+02  0.35882270904E+02  0.14661391647E+03  0.15601849773E+03  0.00000000000E+00 0.  1.
          2    1    1    2  501    0 -0.31770140501E+02 -0.50774663696E+00  0.24540851852E+02  0.40147889655E+02  0.00000000000E+00 0. -1.
<scales pt_clust_5="13000.00000" pt_clust_6="13000.00000" pt_clust_7="13000.00000" pt_clust_8="13000.00000" pt_clust_9="31.77420"></scales>
<clustering>
<clus scale="   31.774">  1  9  2 -1</clus>
<clus scale="   81.624">  5  6 -1 -1</clus>
<clus scale="   91.135">  7  8 -1 -1</clus>
<clus scale="  105.011">  2  5  1 -1</clus>
<clus scale="   31.774">  1  5  2 -1</clus>
</clustering>
</event>
<event>
 9    1  0.7586638E-005  0.1327629E+03  0.7546771E-02  0.1225608E+00
          1   -1    0    0  502    0 -0.00000000000E+00  0.00000000000E+00  0.97941972710E+03  0.97941972710E+03  0.00000000000E+00 0. -1.
         21   -1    0    0  501  502  0.00000000000E+00 -0.00000000000E+00 -0.28609802291E+02  0.28609802291E+02  0.00000000000E+00 0.  1.
        -24    2    1    2    0    0 -0.87333837623E+02  0.78441902184E+02  0.45172608961E+03  0.47334695611E+03  0.78870460942E+02 0.  0.
         23    2    1    2    0    0  0.66373821538E+02 -0.34021119204E+02  0.19458448666E+03  0.22624719675E+03  0.88100799386E+02 0.  0.
         13    1    3    3    0    0 -0.67280889125E+02  0.79650382462E+02  0.43465108396E+03  0.44698150550E+03  0.00000000000E+00 0. -1.
        -14    1    3    3    0    0 -0.20052948497E+02 -0.12084802781E+01  0.17075005653E+02  0.26365450614E+02  0.00000000000E+00 0.  1.
        -11    1    4    4    0    0  0.13672355772E+02 -0.26929760747E+02  0.66377365394E+01  0.30922562517E+02  0.00000000000E+00 0.  1.
         11    1    4    4    0    0  0.52701465765E+02 -0.70913584573E+01  0.18794675012E+03  0.19532463424E+03  0.00000000000E+00 0. -1.
          2    1    1    2  501    0  0.20960016085E+02 -0.44420782980E+02  0.30449934853E+03  0.30843537652E+03  0.00000000000E+00 0. -1.
<scales pt_clust_5="13000.00000" pt_clust_6="13000.00000" pt_clust_7="13000.00000" pt_clust_8="13000.00000" pt_clust_9="49.11752"></scales>
<clustering>
<clus scale="   49.118">  2  9  1 -1</clus>
<clus scale="   78.870">  5  6 -1 -1</clus>
<clus scale="   88.101">  7  8 -1 -1</clus>
<clus scale="  126.826">  1  5  2 -1</clus>
<clus scale="   49.118">  2  5  1 -1</clus>
</clustering>
</event>
<event>
 9    1  0.7586638E-005  0.1330633E+03  0.7546771E-02  0.1225231E+00
         21   -1    0    0  501  502  0.00000000000E+00  0.00000000000E+00  0.77896626916E+03  0.77896626916E+03  0.00000000000E+00 0. -1.
          1   -1    0    0  502    0 -0.00000000000E+00 -0.00000000000E+00 -0.46775529630E+02  0.46775529630E+02  0.00000000000E+00 0. -1.
         23    2    1    2    0    0  0.84984013853E+02  0.53013886827E+02  0.77771226223E+02  0.15623174758E+03  0.91253715085E+02 0.  0.
        -24    2    1    2    0    0 -0.64160073599E+02 -0.53242797271E+02  0.49003998834E+03  0.50381660802E+03  0.82101606794E+02 0.  0.
         11    1    4    4    0    0 -0.88882769888E+01  0.21408542937E+02  0.12592308821E+03  0.12803886646E+03  0.00000000000E+00 0. -1.
        -12    1    4    4    0    0 -0.55271796610E+02 -0.74651340208E+02  0.36411690013E+03  0.37577774156E+03  0.00000000000E+00 0.  1.
        -13    1    3    3    0    0  0.64313498483E+02  0.72205114573E+02  0.83135984353E+02  0.12752018096E+03  0.00000000000E+00 0.  1.
         13    1    3    3    0    0  0.20670515370E+02 -0.19191227746E+02 -0.53647581298E+01  0.28711566621E+02  0.00000000000E+00 0. -1.
          2    1    1    2  501    0 -0.20823940254E+02  0.22891044384E+00  0.16437952497E+03  0.16569344319E+03  0.00000000000E+00 0. -1.
<scales pt_clust_5="13000.00000" pt_clust_6="13000.00000" pt_clust_7="13000.00000" pt_clust_8="13000.00000" pt_clust_9="20.82520"></scales>
<clustering>
<clus scale="   20.825">  1  9  2 -1</clus>
<clus scale="   82.102">  5  6 -1 -1</clus>
<clus scale="   91.254">  7  8 -1 -1</clus>
<clus scale="  126.962">  1  5  2 -1</clus>
<clus scale="   20.825">  1  5  2 -1</clus>
</clustering>
</event>
<event>
 9    1  0.7586638E-005  0.9881838E+02  0.7546771E-02  0.1286882E+00
         -4   -1    0    0    0  501 -0.00000000000E+00  0.00000000000E+00  0.17570595692E+03  0.17570595692E+03  0.00000000000E+00 0.  1.
         21   -1    0    0  501  502  0.00000000000E+00 -0.00000000000E+00 -0.34440621386E+03  0.34440621386E+03  0.00000000000E+00 0. -1.
        -24    2    1    2    0    0 -0.26974474503E+02 -0.34333453765E+02  0.14502133399E+03  0.17179303378E+03  0.81087920321E+02 0.  0.
         23    2    1    2    0    0 -0.22110561129E+02  0.42832753306E+02 -0.20535472220E+03  0.22905071262E+03  0.89275670540E+02 0.  0.
         13    1    3    3    0    0  0.41408385527E+01 -0.42562073257E+02  0.29700918722E+02  0.52065547119E+02  0.00000000000E+00 0. -1.
        -14    1    3    3    0    0 -0.31115313056E+02  0.82286194918E+01  0.11532041527E+03  0.11972748666E+03  0.00000000000E+00 0.  1.
        -11    1    4    4    0    0 -0.62879776492E+01  0.62010189072E+02 -0.80839200928E+02  0.10207731687E+03  0.00000000000E+00 0. -1.
         11    1    4    4    0    0 -0.15822583480E+02 -0.19177435766E+02 -0.12451552127E+03  0.12697339575E+03  0.00000000000E+00 0.  1.
         -3    1    1    2    0  502  0.49085035633E+02 -0.84992995410E+01 -0.10836686873E+03  0.11926842438E+03  0.00000000000E+00 0.  1.
<scales pt_clust_5="13000.00000" pt_clust_6="13000.00000" pt_clust_7="13000.00000" pt_clust_8="13000.00000" pt_clust_9="49.81545"></scales>
<clustering>
<clus scale="   49.815">  2  9  1 -1</clus>
<clus scale="   81.088">  5  6 -1 -1</clus>
<clus scale="   89.276">  7  8 -1 -1</clus>
<clus scale="   91.489">  1  5  2 -1</clus>
<clus scale="   49.815">  2  5  1 -1</clus>
</clustering>
</event>
<event>
 9    1  0.7586638E-005  0.1916856E+03  0.7546771E-02  0.1193993E+00
          1   -1    0    0  502    0 -0.00000000000E+00  0.00000000000E+00  0.35441787201E+03  0.35441787201E+03  0.00000000000E+00 0. -1.
         21   -1    0    0  501  502  0.00000000000E+00 -0.00000000000E+00 -0.15157431441E+03  0.15157431441E+03  0.00000000000E+00 0. -1.
        -24    2    1    2    0    0 -0.85725173241E+00  0.20507002939E+02  0.30947753655E+02  0.88391505671E+02  0.80212360447E+02 0.  0.
         23    2    1    2    0    0  0.28539833074E+02  0.15244177351E+03  0.16238750490E+03  0.24219255000E+03  0.90744218265E+02 0.  0.
         11    1    3    3    0    0 -0.26817041598E+02  0.39881312741E+02  0.80633064071E+01  0.48730788381E+02  0.00000000000E+00 0. -1.
        -12    1    3    3    0    0  0.25959789865E+02 -0.19374309802E+02  0.22884447248E+02  0.39660717290E+02  0.00000000000E+00 0.  1.
        -13    1    4    4    0    0  0.30444388826E+02  0.53786510003E+01  0.41865090099E+02  0.52043025148E+02  0.00000000000E+00 0.  1.
         13    1    4    4    0    0 -0.19045557513E+01  0.14706312251E+03  0.12052241480E+03  0.19014952486E+03  0.00000000000E+00 0. -1.
          2    1    1    2  501    0 -0.27682581342E+02 -0.17294877644E+03  0.95082990442E+01  0.17540813075E+03  0.00000000000E+00 0. -1.
<scales pt_clust_5="13000.00000" pt_clust_6="13000.00000" pt_clust_7="13000.00000" pt_clust_8="13000.00000" pt_clust_9="168.84571"></scales>
<clustering>
<clus scale="   80.212">  5  6 -1 -1</clus>
<clus scale="   82.797">  1  5  2 -1</clus>
<clus scale="   90.744">  7  8 -1 -1</clus>
<clus scale="  168.846">  2  9  1 -1</clus>
<clus scale="  168.846">  2  5  1 -1</clus>
</clustering>
</event>
<event>
 9    1  0.7586638E-005  0.1154507E+03  0.7546771E-02  0.1258813E+00
         21   -1    0    0  501  502  0.00000000000E+00  0.00000000000E+00  0.40654135472E+02  0.40654135472E+02  0.00000000000E+00 0.  1.
          1   -1    0    0  502    0 -0.00000000000E+00 -0.00000000000E+00 -0.77731677621E+03  0.77731677621E+03  0.00000000000E+00 0. -1.
         23    2    1    2    0    0 -0.58270071020E+01 -0.58589918530E+02 -0.34903873091E+03  0.36820421020E+03  0.10138822500E+03 0.  0.
        -24    2    1    2    0    0 -0.48933049568E+02  0.42898876421E+02 -0.66712473838E+02  0.12383876104E+03  0.81551993435E+02 0.  0.
         11    1    4    4    0    0  0.21100728859E+02  0.21744373719E+01 -0.44770606283E+01  0.21679783397E+02  0.00000000000E+00 0. -1.
        -12    1    4    4    0    0 -0.70033778427E+02  0.40724439049E+02 -0.62235413210E+02  0.10215897765E+03  0.00000000000E+00 0.  1.
        -13    1    3    3    0    0  0.34249833948E+02 -0.31137014329E+02 -0.63597176482E+02  0.78658538273E+02  0.00000000000E+00 0.  1.
         13    1    3    3    0    0 -0.40076841050E+02 -0.27452904201E+02 -0.28544155443E+03  0.28954567193E+03  0.00000000000E+00 0. -1.
          2    1    1    2  501    0  0.54760056670E+02  0.15691042110E+02 -0.32091143599E+03  0.32592794044E+03  0.00000000000E+00 0. -1.
<scales pt_clust_5="13000.00000" pt_clust_6="13000.00000" pt_clust_7="13000.00000" pt_clust_8="13000.00000" pt_clust_9="56.96381"></scales>
<clustering>
<clus scale="   56.964">  1  9  2 -1</clus>
<clus scale="   81.552">  5  6 -1 -1</clus>
<clus scale="   98.489">  1  5  2 -1</clus>
<clus scale="  101.388">  7  8 -1 -1</clus>
<clus scale="   56.964">  1  5  2 -1</clus>
</clustering>
</event>
<event>
 9    1  0.7586638E-005  0.1203021E+03  0.7546771E-02  0.1245620E+00
         21   -1    0    0  501  502  0.00000000000E+00  0.00000000000E+00  0.32364508474E+03  0.32364508474E+03  0.00000000000E+00 0.  1.
         -4   -1    0    0    0  501 -0.00000000000E+00 -0.00000000000E+00 -0.79805266160E+02  0.79805266160E+02  0.00000000000E+00 0.  1.
         23    2    1    2    0    0 -0.17339618767E+02 -0.82147809528E+02  0.15694236015E+01  0.12408270833E+03  0.91351685401E+02 0.  0.
        -24    2    1    2    0    0  0.11971981056E+01  0.64832495203E+02  0.14127910042E+03  0.17563896075E+03  0.81759247811E+02 0.  0.
         13    1    4    4    0    0  0.14687220220E+02 -0.15219010211E+02  0.16720515717E+02  0.26961238018E+02  0.00000000000E+00 0. -1.
        -14    1    4    4    0    0 -0.13490022115E+02  0.80051505414E+02  0.12455858470E+03  0.14867772274E+03  0.00000000000E+00 0.  1.
        -11    1    3    3    0    0 -0.46006911802E+02 -0.10934279788E+02 -0.40839849473E+00  0.47290180771E+02  0.00000000000E+00 0. -1.
         11    1    3    3    0    0  0.28667293035E+02 -0.71213529739E+02  0.19778220963E+01  0.76792527554E+02  0.00000000000E+00 0.  1.
         -3    1    1    2    0  502  0.16142420661E+02  0.17315314325E+02  0.10099129456E+03  0.10372868182E+03  0.00000000000E+00 0.  1.
<scales pt_clust_5="13000.00000" pt_clust_6="13000.00000" pt_clust_7="13000.00000" pt_clust_8="13000.00000" pt_clust_9="23.67272"></scales>
<clustering>
<clus scale="   23.673">  1  9  2 -1</clus>
<clus scale="   81.759">  5  6 -1 -1</clus>
<clus scale="   91.352">  7  8 -1 -1</clus>
<clus scale="  113.190">  1  5  2 -1</clus>
<clus scale="   23.673">  1  5  2 -1</clus>
</clustering>
</event>
<event>
 9    1  0.7586638E-005  0.2161701E+03  0.7546771E-02  0.1169998E+00
          1   -1    0    0  502    0 -0.00000000000E+00  0.00000000000E+00  0.27861469419E+03  0.27861469419E+03  0.00000000000E+00 0. -1.
         21   -1    0    0  501  502  0.00000000000E+00 -0.00000000000E+00 -0.36062756590E+03  0.36062756590E+03  0.00000000000E+00 0. -1.
         23    2    1    2    0    0 -0.30508995312E+02  0.22996292570E+02 -0.49420475047E+02  0.11049175740E+03  0.91139545932E+02 0.  0.
        -24    2    1    2    0    0 -0.11886138837E+03 -0.16085831181E+03 -0.17706363381E+03  0.27937250399E+03  0.81817109718E+02 0.  0.
         11    1    4    4    0    0 -0.11586005751E+03 -0.16836125891E+03 -0.15691969063E+03  0.25766811160E+03  0.00000000000E+00 0. -1.
        -12    1    4    4    0    0 -0.30013308627E+01  0.75029470996E+01 -0.20143943180E+02  0.21704392389E+02  0.00000000000E+00 0.  1.
        -11    1    3    3    0    0  0.18450129430E+02  0.23928003163E+02 -0.53407014419E+02  0.61361761713E+02  0.00000000000E+00 0.  1.
         11    1    3    3    0    0 -0.48959124742E+02 -0.93171059255E+00  0.39865393717E+01  0.49129995688E+02  0.00000000000E+00 0. -1.
          2    1    1    2  501    0  0.14937038368E+03  0.13786201924E+03  0.14447123714E+03  0.24937799870E+03  0.00000000000E+00 0. -1.
<scales pt_clust_5="13000.00000" pt_clust_6="13000.00000" pt_clust_7="13000.00000" pt_clust_8="13000.00000" pt_clust_9="200.08874"></scales>
<clustering>
<clus scale="   81.817">  5  6 -1 -1</clus>
<clus scale="   91.140">  7  8 -1 -1</clus>
<clus scale="   98.823">  1  7  2 -1</clus>
<clus scale="  200.089">  2  9  1 -1</clus>
<clus scale="  200.089">  2  5  1 -1</clus>
</clustering>
</event>
<event>
 9    1  0.7586638E-005  0.1159701E+03  0.7546771E-02  0.1252805E+00
          1   -1    0    0  502    0 -0.00000000000E+00  0.00000000000E+00  0.61292144666E+03  0.61292144666E+03  0.00000000000E+00 0. -1.
         21   -1    0    0  501  502  0.00000000000E+00 -0.00000000000E+00 -0.85040367502E+02  0.85040367502E+02  0.00000000000E+00 0.  1.
        -24    2    1    2    0    0 -0.37273024545E+02  0.72022316473E+02  0.53103677224E+03  0.54327980270E+03  0.81094994421E+02 0.  0.
         23    2    1    2    0    0  0.11335515662E+02 -0.23510379132E+02  0.19057604237E+02  0.95355853574E+02  0.89712399863E+02 0.  0.
         13    1    3    3    0    0 -0.48353120999E+02  0.84239534727E+02  0.42424893975E+03  0.43522578784E+03  0.00000000000E+00 0. -1.
        -14    1    3    3    0    0  0.11080096454E+02 -0.12217218254E+02  0.10678783250E+03  0.10805401487E+03  0.00000000000E+00 0.  1.
        -11    1    4    4    0    0  0.40154547644E+01  0.31680647175E+02 -0.87669912744E+01  0.33115667265E+02  0.00000000000E+00 0.  1.
         11    1    4    4    0    0  0.73200608973E+01 -0.55191026307E+02  0.27824595512E+02  0.62240186309E+02  0.00000000000E+00 0. -1.
          2    1    1    2  501    0  0.25937508883E+02 -0.48511937341E+02 -0.22213297323E+02  0.59326157887E+02  0.00000000000E+00 0. -1.
<scales pt_clust_5="13000.00000" pt_clust_6="13000.00000" pt_clust_7="13000.00000" pt_clust_8="13000.00000" pt_clust_9="55.01057"></scales>
<clustering>
<clus scale="   55.011">  2  9  1 -1</clus>
<clus scale="   81.095">  5  6 -1 -1</clus>
<clus scale="   89.712">  7  8 -1 -1</clus>
<clus scale="  109.440">  1  5  2 -1</clus>
<clus scale="   55.011">  2  5  1 -1</clus>
</clustering>
</event>
<event>
 9    1  0.7586638E-005  0.2068454E+03  0.7546771E-02  0.1145336E+00
         21   -1    0    0  501  502  0.00000000000E+00  0.00000000000E+00  0.34920069555E+03  0.34920069555E+03  0.00000000000E+00 0. -1.
          1   -1    0    0  502    0 -0.00000000000E+00 -0.00000000000E+00 -0.30912022178E+03  0.30912022178E+03  0.00000000000E+00 0. -1.
         23    2    1    2    0    0  0.22805354913E+03 -0.47994327058E+02 -0.16684469675E+03  0.30114763001E+03  0.92416803270E+02 0.  0.
        -24    2    1    2    0    0 -0.12179989739E+03  0.47420422864E+00  0.33643898190E+02  0.14842846722E+03  0.77869494164E+02 0.  0.
         13    1    4    4    0    0 -0.63477877150E+02  0.36141607892E+02  0.32768618016E+02  0.80058972234E+02  0.00000000000E+00 0. -1.
        -14    1    4    4    0    0 -0.58322020245E+02 -0.35667403663E+02  0.87528017361E+00  0.68369494988E+02  0.00000000000E+00 0.  1.
        -13    1    3    3    0    0  0.21881792925E+03 -0.67047977947E+02 -0.15851114980E+03  0.27839271205E+03  0.00000000000E+00 0. -1.
         13    1    3    3    0    0  0.92356198747E+01  0.19053650889E+02 -0.83335469462E+01  0.22754917960E+02  0.00000000000E+00 0.  1.
          2    1    1    2  501    0 -0.10625365173E+03  0.47520122829E+02  0.17328127233E+03  0.20874482011E+03  0.00000000000E+00 0. -1.
<scales pt_clust_5="13000.00000" pt_clust_6="13000.00000" pt_clust_7="13000.00000" pt_clust_8="13000.00000" pt_clust_9="116.39588"></scales>
<clustering>
<clus scale="   77.869">  5  6 -1 -1</clus>
<clus scale="   92.417">  7  8 -1 -1</clus>
<clus scale="  116.396">  1  9  2 -1</clus>
<clus scale="  200.768">  1  5  2 -1</clus>
<clus scale="  116.396">  1  5  2 -1</clus>
</clustering>
</event>
<event>
 9    1  0.7586638E-005  0.1562427E+03  0.7546771E-02  0.1200784E+00
         21   -1    0    0  501  502  0.00000000000E+00  0.00000000000E+00  0.26955705889E+03  0.26955705889E+03  0.00000000000E+00 0.  1.
          1   -1    0    0  502    0 -0.00000000000E+00 -0.00000000000E+00 -0.10450604077E+03  0.10450604077E+03  0.00000000000E+00 0. -1.
         23    2    1    2    0    0  0.40478796122E+02  0.97993488965E+02  0.28655820635E+02  0.16166339730E+03  0.11862816342E+03 0.  0.
        -24    2    1    2    0    0 -0.63736584074E+02 -0.75128401617E+02  0.10015943759E+03  0.16364760276E+03  0.83916601884E+02 0.  0.
         13    1    4    4    0    0 -0.33352555455E+01 -0.26283457546E+02 -0.10454719998E+02  0.28482367183E+02  0.00000000000E+00 0. -1.
        -14    1    4    4    0    0 -0.60401328529E+02 -0.48844944071E+02  0.11061415759E+03  0.13516523558E+03  0.00000000000E+00 0.  1.
        -13    1    3    3    0    0  0.13437412322E+02 -0.27539884757E+02  0.70807092592E+01  0.31450687527E+02  0.00000000000E+00 0.  1.
         13    1    3    3    0    0  0.27041383800E+02  0.12553337372E+03  0.21575111375E+02  0.13021270977E+03  0.00000000000E+00 0. -1.
          2    1    1    2  501    0  0.23257787952E+02 -0.22865087349E+02  0.36235759889E+02  0.48752099592E+02  0.00000000000E+00 0. -1.
<scales pt_clust_5="13000.00000" pt_clust_6="13000.00000" pt_clust_7="13000.00000" pt_clust_8="13000.00000" pt_clust_9="32.61498"></scales>
<clustering>
<clus scale="   32.615">  1  9  2 -1</clus>
<clus scale="   83.917">  5  6 -1 -1</clus>
<clus scale="  118.628">  7  8 -1 -1</clus>
<clus scale="  131.838">  1  5  2 -1</clus>
<clus scale="   32.615">  1  5  2 -1</clus>
</clustering>
</event>
<event>
 9    1  0.7586638E-005  0.2115827E+03  0.7546771E-02  0.1165379E+00
         21   -1    0    0  501  502  0.00000000000E+00  0.00000000000E+00  0.46436149387E+03  0.46436149387E+03  0.00000000000E+00 0. -1.
          1   -1    0    0  502    0 -0.00000000000E+00 -0.00000000000E+00 -0.24375915845E+03  0.24375915845E+03  0.00000000000E+00 0. -1.
         23    2    1    2    0    0  0.71340270090E+02  0.26307247726E+01  0.43933742985E+02  0.12515110684E+03  0.92931538900E+02 0.  0.
        -24    2    1    2    0    0  0.11771334873E+03 -0.83039947554E+02 -0.13256762813E+03  0.21170959072E+03  0.80589760004E+02 0.  0.
         11    1    4    4    0    0  0.10023889118E+03 -0.95554404870E+02 -0.93421612399E+02  0.16705112169E+03  0.00000000000E+00 0. -1.
        -12    1    4    4    0    0  0.17474457541E+02  0.12514457316E+02 -0.39146015732E+02  0.44658469028E+02  0.00000000000E+00 0.  1.
        -11    1    3    3    0    0  0.17384933476E+02  0.21403831690E+02 -0.23882707496E+02  0.36479359099E+02  0.00000000000E+00 0.  1.
         11    1    3    3    0    0  0.53955336614E+02 -0.18773106917E+02  0.67816450480E+02  0.88671747745E+02  0.00000000000E+00 0. -1.
          2    1    1    2  501    0 -0.18905361882E+03  0.80409222781E+02  0.30923622056E+03  0.37125995475E+03  0.00000000000E+00 0. -1.
<scales pt_clust_5="13000.00000" pt_clust_6="13000.00000" pt_clust_7="13000.00000" pt_clust_8="13000.00000" pt_clust_9="195.63362"></scales>
<clustering>
<clus scale="   80.590">  5  6 -1 -1</clus>
<clus scale="   92.932">  7  8 -1 -1</clus>
<clus scale="  117.186">  2  7  1 -1</clus>
<clus scale="  195.634">  1  9  2 -1</clus>
<clus scale="  195.634">  1  5  2 -1</clus>
</clustering>
</event>
<event>
 9    1  0.7586638E-005  0.1053172E+03  0.7546771E-02  0.1272930E+00
          1   -1    0    0  502    0 -0.00000000000E+00  0.00000000000E+00  0.97999725430E+02  0.97999725430E+02  0.00000000000E+00 0. -1.
         21   -1    0    0  501  502  0.00000000000E+00 -0.00000000000E+00 -0.26830772974E+03  0.26830772974E+03  0.00000000000E+00 0.  1.
        -24    2    1    2    0    0  0.16541159336E+02 -0.18475170622E+02  0.10631255719E+02  0.10321549730E+03  0.99626670143E+02 0.  0.
         23    2    1    2    0    0 -0.38164677468E+02  0.63717732816E+02 -0.17664519191E+03  0.21276398362E+03  0.92458081428E+02 0.  0.
         11    1    3    3    0    0  0.31695886798E+02  0.27818881295E+02  0.28972279543E+02  0.51165538973E+02  0.00000000000E+00 0. -1.
        -12    1    3    3    0    0 -0.15154727462E+02 -0.46294051917E+02 -0.18341023825E+02  0.52049958331E+02  0.00000000000E+00 0.  1.
        -11    1    4    4    0    0 -0.55989265933E+02  0.86616176097E+01 -0.11508160005E+03  0.12827157202E+03  0.00000000000E+00 0.  1.
         11    1    4    4    0    0  0.17824588464E+02  0.55056115207E+02 -0.61563591861E+02  0.84492411603E+02  0.00000000000E+00 0. -1.
          2    1    1    2  501    0  0.21623518132E+02 -0.45242562195E+02 -0.42940681206E+01  0.50327974243E+02  0.00000000000E+00 0. -1.
<scales pt_clust_5="13000.00000" pt_clust_6="13000.00000" pt_clust_7="13000.00000" pt_clust_8="13000.00000" pt_clust_9="50.14448"></scales>
<clustering>
<clus scale="   50.144">  2  9  1 -1</clus>
<clus scale="   92.458">  7  8 -1 -1</clus>
<clus scale="   98.563">  2  7  1 -1</clus>
<clus scale="   99.627">  5  6 -1 -1</clus>
<clus scale="   50.144">  2  5  1 -1</clus>
</clustering>
</event>
<event>
 9    1  0.7586638E-005  0.2064747E+03  0.7546771E-02  0.1171713E+00
          1   -1    0    0  502    0 -0.00000000000E+00  0.00000000000E+00  0.12118541397E+04  0.12118541397E+04  0.00000000000E+00 0. -1.
         21   -1    0    0  501  502  0.00000000000E+00 -0.00000000000E+00 -0.63520137626E+02  0.63520137626E+02  0.00000000000E+00 0. -1.
         23    2    1    2    0    0  0.47243459007E+01 -0.56788199357E+02  0.82848466630E+02  0.13695330277E+03  0.92979135762E+02 0.  0.
        -24    2    1    2    0    0 -0.10352651912E+03  0.18776886286E+03  0.51196197353E+03  0.56109425835E+03  0.82139018721E+02 0.  0.
         11    1    4    4    0    0 -0.53480357028E+02  0.12985529404E+03  0.23514392169E+03  0.27388904667E+03  0.00000000000E+00 0. -1.
        -12    1    4    4    0    0 -0.50046162092E+02  0.57913568818E+02  0.27681805185E+03  0.28720521169E+03  0.00000000000E+00 0.  1.
        -13    1    3    3    0    0 -0.26275616861E+02  0.11751248971E+01 -0.54637384868E+01  0.26863383968E+02  0.00000000000E+00 0.  1.
         13    1    3    3    0    0  0.30999962762E+02 -0.57963324254E+02  0.88312205117E+02  0.11008991880E+03  0.00000000000E+00 0. -1.
          2    1    1    2  501    0  0.98802173219E+02 -0.13098066350E+03  0.55352356194E+03  0.57732671622E+03  0.00000000000E+00 0. -1.
<scales pt_clust_5="13000.00000" pt_clust_6="13000.00000" pt_clust_7="13000.00000" pt_clust_8="13000.00000" pt_clust_9="189.43338"></scales>
<clustering>
<clus scale="   82.139">  5  6 -1 -1</clus>
<clus scale="   92.979">  7  8 -1 -1</clus>
<clus scale="  109.052">  1  7  2 -1</clus>
<clus scale="  189.433">  2  9  1 -1</clus>
<clus scale="  189.433">  2  5  1 -1</clus>
</clustering>
</event>
<event>
 9    1  0.7586638E-005  0.1026531E+03  0.7546771E-02  0.1280810E+00
         21   -1    0    0  501  502  0.00000000000E+00  0.00000000000E+00  0.13793342375E+03  0.13793342375E+03  0.00000000000E+00 0.  1.
         -2   -1    0    0    0  501 -0.00000000000E+00 -0.00000000000E+00 -0.14513325329E+03  0.14513325329E+03  0.00000000000E+00 0.  1.
        -24    2    1    2    0    0 -0.41667022832E+02  0.84104415209E+01 -0.66791039417E+02  0.11157033402E+03  0.78613104310E+02 0.  0.
         23    2    1    2    0    0  0.68607951006E+02 -0.40358728001E+01  0.78188104886E+02  0.13846915776E+03  0.91307111957E+02 0.  0.
         11    1    3    3    0    0  0.63358852510E+01 -0.22694290929E+02 -0.44167316178E+02  0.50059225933E+02  0.00000000000E+00 0. -1.
        -12    1    3    3    0    0 -0.48002908083E+02  0.31104732450E+02 -0.22623723239E+02  0.61511108089E+02  0.00000000000E+00 0.  1.
        -13    1    4    4    0    0 -0.13628628426E+02 -0.23874093878E+02  0.31634698510E+02  0.41910213804E+02  0.00000000000E+00 0. -1.
         13    1    4    4    0    0  0.82236579433E+02  0.19838221078E+02  0.46553406376E+02  0.96558943954E+02  0.00000000000E+00 0.  1.
         -1    1    1    2    0  502 -0.26940928175E+02 -0.43745687207E+01 -0.18596895004E+02  0.33027185260E+02  0.00000000000E+00 0.  1.
<scales pt_clust_5="13000.00000" pt_clust_6="13000.00000" pt_clust_7="13000.00000" pt_clust_8="13000.00000" pt_clust_9="27.29379"></scales>
<clustering>
<clus scale="   27.294">  1  9  2 -1</clus>
<clus scale="   78.613">  5  6 -1 -1</clus>
<clus scale="   91.307">  7  8 -1 -1</clus>
<clus scale="   91.546">  2  5  1 -1</clus>
<clus scale="   27.294">  1  5  2 -1</clus>
</clustering>
</event>
<event>
 9    1  0.7586638E-005  0.9655070E+02  0.7546771E-02  0.1295179E+00
         21   -1    0    0  501  502  0.00000000000E+00  0.00000000000E+00  0.27848313552E+03  0.27848313552E+03  0.00000000000E+00 0.  1.
          3   -1    0    0  502    0 -0.00000000000E+00 -0.00000000000E+00 -0.54049268463E+02  0.54049268463E+02  0.00000000000E+00 0. -1.
        -24    2    1    2    0    0 -0.21574867235E+02  0.44623660758E+00  0.17450253625E+02  0.84257850739E+02  0.79556269622E+02 0.  0.
         23    2    1    2    0    0  0.48120895844E+02 -0.42327766384E+01  0.18899542491E+03  0.21598516727E+03  0.92718848294E+02 0.  0.
         13    1    3    3    0    0 -0.25034367714E+00 -0.37475952043E+02  0.15937689068E+02  0.40724925860E+02  0.00000000000E+00 0. -1.
        -14    1    3    3    0    0 -0.21324523558E+02  0.37922188650E+02  0.15125645570E+01  0.43532924879E+02  0.00000000000E+00 0.  1.
        -13    1    4    4    0    0 -0.84796327273E+00  0.30087676384E+02  0.12427579485E+03  0.12786891920E+03  0.00000000000E+00 0.  1.
         13    1    4    4    0    0  0.48968859117E+02 -0.34320453022E+02  0.64719630062E+02  0.88116248071E+02  0.00000000000E+00 0. -1.
          4    1    1    2  501    0 -0.26546028609E+02  0.37865400308E+01  0.17988188526E+02  0.32289385977E+02  0.00000000000E+00 0. -1.
<scales pt_clust_5="13000.00000" pt_clust_6="13000.00000" pt_clust_7="13000.00000" pt_clust_8="13000.00000" pt_clust_9="26.81474"></scales>
<clustering>
<clus scale="   26.815">  1  9  2 -1</clus>
<clus scale="   79.556">  5  6 -1 -1</clus>
<clus scale="   83.991">  2  5  1 -1</clus>
<clus scale="   92.719">  7  8 -1 -1</clus>
<clus scale="   26.815">  1  5  2 -1</clus>
</clustering>
</event>
<event>
 9    1  0.7586638E-005  0.1898369E+03  0.7546771E-02  0.1170024E+00
          3   -1    0    0  502    0 -0.00000000000E+00  0.00000000000E+00  0.94881415467E+03  0.94881415467E+03  0.00000000000E+00 0. -1.
         21   -1    0    0  501  502  0.00000000000E+00 -0.00000000000E+00 -0.76099027735E+02  0.76099027735E+02  0.00000000000E+00 0. -1.
         23    2    1    2    0    0 -0.35048123055E+00 -0.12502910987E+03  0.28518979339E+03  0.32031181791E+03  0.75060251042E+02 0.  0.
        -24    2    1    2    0    0 -0.17100812085E+03  0.65879234564E+02  0.37554327549E+03  0.42567687437E+03  0.81143075262E+02 0.  0.
         13    1    4    4    0    0 -0.11508390435E+03  0.73691271958E+01  0.17680365817E+03  0.21108799733E+03  0.00000000000E+00 0. -1.
        -14    1    4    4    0    0 -0.55924216507E+02  0.58510107368E+02  0.19873961731E+03  0.21458887703E+03  0.00000000000E+00 0.  1.
        -13    1    3    3    0    0  0.22282136157E+02 -0.33619041118E+02  0.36526446995E+02  0.54414289001E+02  0.00000000000E+00 0. -1.
         13    1    3    3    0    0 -0.22632617388E+02 -0.91410068749E+02  0.24866334639E+03  0.26589752891E+03  0.00000000000E+00 0.  1.
          4    1    1    2  501    0  0.17135860208E+03  0.59149875304E+02  0.21198205806E+03  0.27892449013E+03  0.00000000000E+00 0. -1.
<scales pt_clust_5="13000.00000" pt_clust_6="13000.00000" pt_clust_7="13000.00000" pt_clust_8="13000.00000" pt_clust_9="171.62122"></scales>
<clustering>
<clus scale="   75.060">  7  8 -1 -1</clus>
<clus scale="   81.143">  5  6 -1 -1</clus>
<clus scale="  145.830">  1  7  2 -1</clus>
<clus scale="  171.621">  2  9  1 -1</clus>
<clus scale="  171.621">  2  5  1 -1</clus>
</clustering>
</event>
<event>
 9    1  0.7586638E-005  0.2027357E+03  0.7546771E-02  0.1153949E+00
          1   -1    0    0  502    0 -0.00000000000E+00  0.00000000000E+00  0.46340604893E+03  0.46340604893E+03  0.00000000000E+00 0. -1.
         21   -1    0    0  501  502  0.00000000000E+00 -0.00000000000E+00 -0.50948140295E+03  0.50948140295E+03  0.00000000000E+00 0. -1.
         23    2    1    2    0    0  0.11891849368E+03  0.94651214449E+02  0.13313265732E+03  0.21896347351E+03  0.84381501240E+02 0.  0.
        -24    2    1    2    0    0  0.57273224388E+02 -0.16876191941E+03  0.23020993775E+03  0.30208443257E+03  0.80607575891E+02 0.  0.
         13    1    4    4    0    0  0.49102681759E+02 -0.17691897521E+03  0.22097431479E+03  0.28729957351E+03  0.00000000000E+00 0. -1.
        -14    1    4    4    0    0  0.81705426289E+01  0.81570557930E+01  0.92356229525E+01  0.14784859059E+02  0.00000000000E+00 0.  1.
        -11    1    3    3    0    0  0.23107171888E+02 -0.13738724722E+02  0.90268919144E+01  0.28358045195E+02  0.00000000000E+00 0.  1.
         11    1    3    3    0    0  0.95811321793E+02  0.10838993917E+03  0.12410576541E+03  0.19060542832E+03  0.00000000000E+00 0. -1.
          2    1    1    2  501    0 -0.17619171807E+03  0.74110704963E+02 -0.40941794909E+03  0.45183954579E+03  0.00000000000E+00 0. -1.
<scales pt_clust_5="13000.00000" pt_clust_6="13000.00000" pt_clust_7="13000.00000" pt_clust_8="13000.00000" pt_clust_9="186.02203"></scales>
<clustering>
<clus scale="   80.608">  5  6 -1 -1</clus>
<clus scale="   84.382">  7  8 -1 -1</clus>
<clus scale="  173.841">  1  7  2 -1</clus>
<clus scale="  186.022">  2  9  1 -1</clus>
<clus scale="  186.022">  2  5  1 -1</clus>
</clustering>
</event>
<event>
 9    1  0.7586638E-005  0.1438310E+03  0.7546771E-02  0.1210448E+00
         -2   -1    0    0    0  501 -0.00000000000E+00  0.00000000000E+00  0.94637877251E+03  0.94637877251E+03  0.00000000000E+00 0.  1.
         21   -1    0    0  501  502  0.00000000000E+00 -0.00000000000E+00 -0.65126748766E+02  0.65126748766E+02  0.00000000000E+00 0. -1.
         23    2    1    2    0    0 -0.51390503864E+02  0.94472849713E+02  0.58279444285E+03  0.59957636295E+03  0.90974442377E+02 0.  0.
        -24    2    1    2    0    0  0.13611267081E+03 -0.53750751685E+02  0.26297403013E+03  0.31145420018E+03  0.80203340515E+02 0.  0.
         13    1    4    4    0    0  0.76101189803E+02 -0.48923472651E+02  0.87191397491E+02  0.12564727240E+03  0.00000000000E+00 0. -1.
        -14    1    4    4    0    0  0.60011481005E+02 -0.48272790343E+01  0.17578263263E+03  0.18580692778E+03  0.00000000000E+00 0.  1.
        -11    1    3    3    0    0 -0.22226198442E+02 -0.15494316777E+02  0.11141095744E+03  0.11465809691E+03  0.00000000000E+00 0.  1.
         11    1    3    3    0    0 -0.29164305422E+02  0.10996716649E+03  0.47138348541E+03  0.48491826604E+03  0.00000000000E+00 0. -1.
         -1    1    1    2    0  502 -0.84722166944E+02 -0.40722098028E+02  0.35483550766E+02  0.10047495815E+03  0.00000000000E+00 0.  1.
<scales pt_clust_5="13000.00000" pt_clust_6="13000.00000" pt_clust_7="13000.00000" pt_clust_8="13000.00000" pt_clust_9="94.00072"></scales>
<clustering>
<clus scale="   80.203">  5  6 -1 -1</clus>
<clus scale="   90.974">  7  8 -1 -1</clus>
<clus scale="   94.001">  2  9  1 -1</clus>
<clus scale="  137.272">  2  5  1 -1</clus>
<clus scale="   94.001">  2  5  1 -1</clus>
</clustering>
</event>
<event>
 9    1  0.7586638E-005  0.2048873E+03  0.7546771E-02  0.1146478E+00
         21   -1    0    0  501  502  0.00000000000E+00  0.00000000000E+00  0.21387118842E+03  0.21387118842E+03  0.00000000000E+00 0.  1.
          1   -1    0    0  502    0 -0.00000000000E+00 -0.00000000000E+00 -0.36795950124E+03  0.36795950124E+03  0.00000000000E+00 0. -1.
        -24    2    1    2    0    0  0.40842537058E+02 -0.15619346208E+03 -0.30997055853E+02  0.18140974834E+03  0.76708336524E+02 0.  0.
         23    2    1    2    0    0 -0.16741107372E+03  0.16459744916E+03 -0.53737369660E+02  0.25585198492E+03  0.86335076389E+02 0.  0.
         13    1    3    3    0    0  0.43392677317E+02 -0.59337274495E+02  0.13584522705E+02  0.74755440246E+02  0.00000000000E+00 0. -1.
        -14    1    3    3    0    0 -0.25501402596E+01 -0.96856187581E+02 -0.44581578558E+02  0.10665430809E+03  0.00000000000E+00 0.  1.
        -13    1    4    4    0    0 -0.15698577449E+03  0.10965015437E+03 -0.57109419618E+02  0.19982286044E+03  0.00000000000E+00 0.  1.
         13    1    4    4    0    0 -0.10425299225E+02  0.54947294786E+02  0.33720499575E+01  0.56029124473E+02  0.00000000000E+00 0. -1.
          2    1    1    2  501    0  0.12656853666E+03 -0.84039870837E+01 -0.69353887303E+02  0.14456895640E+03  0.00000000000E+00 0. -1.
<scales pt_clust_5="13000.00000" pt_clust_6="13000.00000" pt_clust_7="13000.00000" pt_clust_8="13000.00000" pt_clust_9="126.84730"></scales>
<clustering>
<clus scale="   76.708">  5  6 -1 -1</clus>
<clus scale="   86.335">  7  8 -1 -1</clus>
<clus scale="  126.847">  1  9  2 -1</clus>
<clus scale="  201.020">  2  5  1 -1</clus>
<clus scale="  126.847">  1  5  2 -1</clus>
</clustering>
</event>
<event>
 9    1  0.7586638E-005  0.1211163E+03  0.7546771E-02  0.1243819E+00
          3   -1    0    0  502    0 -0.00000000000E+00  0.00000000000E+00  0.22502584672E+03  0.22502584672E+03  0.00000000000E+00 0. -1.
         21   -1    0    0  501  502  0.00000000000E+00 -0.00000000000E+00 -0.23071448826E+03  0.23071448826E+03  0.00000000000E+00 0.  1.
         23    2    1    2    0    0 -0.88944055887E+02  0.19697915468E+02  0.13646339162E+03  0.18745035647E+03  0.90643951464E+02 0.  0.
        -24    2    1    2    0    0  0.23874680084E+02  0.52119750089E+02 -0.13888059612E+03  0.17132347370E+03  0.82325232861E+02 0.  0.
         13    1    4    4    0    0  0.37393163020E+02 -0.66387652183E+01 -0.37521387363E+02  0.53387042940E+02  0.00000000000E+00 0. -1.
        -14    1    4    4    0    0 -0.13518482935E+02  0.58758515307E+02 -0.10135920875E+03  0.11793643076E+03  0.00000000000E+00 0.  1.
        -11    1    3    3    0    0 -0.30862834669E+02  0.53089571030E+02  0.69102486641E+02  0.92445501653E+02  0.00000000000E+00 0.  1.
         11    1    3    3    0    0 -0.58081221218E+02 -0.33391655562E+02  0.67360904984E+02  0.95004854821E+02  0.00000000000E+00 0. -1.
          4    1    1    2  501    0  0.65069375802E+02 -0.71817665557E+02 -0.32714370448E+01  0.96966504803E+02  0.00000000000E+00 0. -1.
<scales pt_clust_5="13000.00000" pt_clust_6="13000.00000" pt_clust_7="13000.00000" pt_clust_8="13000.00000" pt_clust_9="96.91130"></scales>
<clustering>
<clus scale="   82.325">  5  6 -1 -1</clus>
<clus scale="   90.644">  7  8 -1 -1</clus>
<clus scale="   96.911">  2  9  1 -1</clus>
<clus scale="  115.023">  2  5  1 -1</clus>
<clus scale="   96.911">  2  5  1 -1</clus>
</clustering>
</event>
<event>
 9    1  0.7586638E-005  0.1184315E+03  0.7546771E-02  0.1250705E+00
          1   -1    0    0  502    0 -0.00000000000E+00  0.00000000000E+00  0.27421326207E+03  0.27421326207E+03  0.00000000000E+00 0. -1.
         21   -1    0    0  501  502  0.00000000000E+00 -0.00000000000E+00 -0.96529259336E+02  0.96529259336E+02  0.00000000000E+00 0. -1.
        -24    2    1    2    0    0 -0.33649849558E+01  0.47965219867E+02  0.51342113649E+02  0.10570361773E+03  0.78900296117E+02 0.  0.
         23    2    1    2    0    0 -0.59699064235E+02 -0.97659852052E+02  0.10674093958E+03  0.18239008039E+03  0.93654088381E+02 0.  0.
         13    1    3    3    0    0 -0.11425117112E+02  0.39006873961E+02  0.71484290488E+02  0.82231826587E+02  0.00000000000E+00 0. -1.
        -14    1    3    3    0    0  0.80601321563E+01  0.89583459064E+01 -0.20142176840E+02  0.23471791146E+02  0.00000000000E+00 0.  1.
        -13    1    4    4    0    0  0.24070197525E+02 -0.36822116268E+02  0.26022188457E+02  0.51111612647E+02  0.00000000000E+00 0.  1.
         13    1    4    4    0    0 -0.83769261760E+02 -0.60837735784E+02  0.80718751123E+02  0.13127846775E+03  0.00000000000E+00 0. -1.
          2    1    1    2  501    0  0.63064049190E+02  0.49694632184E+02  0.19600949509E+02  0.82648823282E+02  0.00000000000E+00 0. -1.
<scales pt_clust_5="13000.00000" pt_clust_6="13000.00000" pt_clust_7="13000.00000" pt_clust_8="13000.00000" pt_clust_9="80.29091"></scales>
<clustering>
<clus scale="   78.900">  5  6 -1 -1</clus>
<clus scale="   80.291">  2  9  1 -1</clus>
<clus scale="   93.654">  7  8 -1 -1</clus>
<clus scale="  107.146">  1  5  2 -1</clus>
<clus scale="   80.291">  2  5  1 -1</clus>
</clustering>
</event>
<event>
 9    1  0.7586638E-005  0.1319869E+03  0.7546771E-02  0.1227960E+00
         21   -1    0    0  501  502  0.00000000000E+00  0.00000000000E+00  0.13557053675E+03  0.13557053675E+03  0.00000000000E+00 0.  1.
          3   -1    0    0  502    0 -0.00000000000E+00 -0.00000000000E+00 -0.25739215684E+03  0.25739215684E+03  0.00000000000E+00 0. -1.
        -24    2    1    2    0    0 -0.38311514767E+02 -0.10955477369E+03 -0.12339813359E+03  0.18586786509E+03  0.76483614570E+02 0.  0.
         23    2    1    2    0    0  0.28260888912E+02  0.68232455103E+02 -0.60824380469E+02  0.13158045463E+03  0.90329757052E+02 0.  0.
         13    1    3    3    0    0  0.12689037166E+02 -0.66219603064E+02 -0.85739735855E+02  0.10907497329E+03  0.00000000000E+00 0. -1.
        -14    1    3    3    0    0 -0.51000551933E+02 -0.43335170628E+02 -0.37658397730E+02  0.76792891796E+02  0.00000000000E+00 0.  1.
        -13    1    4    4    0    0  0.41918483828E+02  0.36742687610E+01 -0.36027374899E+00  0.42080747790E+02  0.00000000000E+00 0.  1.
         13    1    4    4    0    0 -0.13657594916E+02  0.64558186342E+02 -0.60464106720E+02  0.89499706839E+02  0.00000000000E+00 0. -1.
          4    1    1    2  501    0  0.10050625855E+02  0.41322318589E+02  0.62400893961E+02  0.75514373869E+02  0.00000000000E+00 0. -1.
<scales pt_clust_5="13000.00000" pt_clust_6="13000.00000" pt_clust_7="13000.00000" pt_clust_8="13000.00000" pt_clust_9="42.52704"></scales>
<clustering>
<clus scale="   42.527">  1  9  2 -1</clus>
<clus scale="   76.484">  5  6 -1 -1</clus>
<clus scale="   90.330">  7  8 -1 -1</clus>
<clus scale="  122.926">  2  5  1 -1</clus>
<clus scale="   42.527">  1  5  2 -1</clus>
</clustering>
</event>
<event>
 9    1  0.7586638E-005  0.1973721E+03  0.7546771E-02  0.1154800E+00
          3   -1    0    0  502    0 -0.00000000000E+00  0.00000000000E+00  0.83426476193E+03  0.83426476193E+03  0.00000000000E+00 0. -1.
         21   -1    0    0  501  502  0.00000000000E+00 -0.00000000000E+00 -0.63332272593E+02  0.63332272593E+02  0.00000000000E+00 0. -1.
        -24    2    1    2    0    0  0.15363976654E+03 -0.34389004526E+02  0.31996010590E+03  0.36272785576E+03  0.66402157163E+02 0.  0.
         23    2    1    2    0    0 -0.19685112474E+03 -0.14351124326E+02  0.37715301406E+03  0.43642060878E+03  0.96240488759E+02 0.  0.
         11    1    3    3    0    0  0.13536154402E+03 -0.28615289153E+02  0.21249073318E+03  0.25356240664E+03  0.00000000000E+00 0. -1.
        -12    1    3    3    0    0  0.18278222527E+02 -0.57737153738E+01  0.10746937272E+03  0.10916544912E+03  0.00000000000E+00 0.  1.
        -11    1    4    4    0    0 -0.39921437111E+02  0.27457063028E+02  0.14668627170E+03  0.15448130553E+03  0.00000000000E+00 0.  1.
         11    1    4    4    0    0 -0.15692968763E+03 -0.41808187354E+02  0.23046674235E+03  0.28193930325E+03  0.00000000000E+00 0. -1.
          4    1    1    2  501    0  0.43211358193E+02  0.48740128852E+02  0.73819369378E+02  0.98448569988E+02  0.00000000000E+00 0. -1.
<scales pt_clust_5="13000.00000" pt_clust_6="13000.00000" pt_clust_7="13000.00000" pt_clust_8="13000.00000" pt_clust_9="65.13695"></scales>
<clustering>
<clus scale="   65.137">  2  9  1 -1</clus>
<clus scale="   66.402">  5  6 -1 -1</clus>
<clus scale="   96.240">  7  8 -1 -1</clus>
<clus scale="  184.669">  1  5  2 -1</clus>
<clus scale="   65.137">  2  5  1 -1</clus>
</clustering>
</event>
<event>
 9    1  0.7586638E-005  0.1016212E+03  0.7546771E-02  0.1280359E+00
         -4   -1    0    0    0  501 -0.00000000000E+00  0.00000000000E+00  0.11023273317E+03  0.11023273317E+03  0.00000000000E+00 0.  1.
         21   -1    0    0  501  502  0.00000000000E+00 -0.00000000000E+00 -0.17579699844E+03  0.17579699844E+03  0.00000000000E+00 0. -1.
        -24    2    1    2    0    0 -0.55736884065E+02 -0.42780871339E+01  0.19350118963E+02  0.10029384337E+03  0.80990898501E+02 0.  0.
         23    2    1    2    0    0  0.32250299031E+02 -0.49552312373E+02 -0.56811491502E+02  0.12062748503E+03  0.88475596227E+02 0.  0.
         11    1    3    3    0    0 -0.11234385730E+01 -0.32976074266E+02  0.20023665577E+02  0.38595735145E+02  0.00000000000E+00 0. -1.
        -12    1    3    3    0    0 -0.54613445492E+02  0.28697987132E+02 -0.67354661407E+00  0.61698108229E+02  0.00000000000E+00 0.  1.
        -11    1    4    4    0    0  0.19756467365E+02 -0.75252132974E+02 -0.40199649158E+02  0.87574044740E+02  0.00000000000E+00 0. -1.
         11    1    4    4    0    0  0.12493831666E+02  0.25699820600E+02 -0.16611842344E+02  0.33053440285E+02  0.00000000000E+00 0.  1.
         -3    1    1    2    0  502  0.23486585034E+02  0.53830399507E+02 -0.28102892732E+02  0.65108403202E+02  0.00000000000E+00 0.  1.
<scales pt_clust_5="13000.00000" pt_clust_6="13000.00000" pt_clust_7="13000.00000" pt_clust_8="13000.00000" pt_clust_9="58.73101"></scales>
<clustering>
<clus scale="   58.731">  2  9  1 -1</clus>
<clus scale="   80.991">  5  6 -1 -1</clus>
<clus scale="   88.476">  7  8 -1 -1</clus>
<clus scale="   95.176">  1  5  2 -1</clus>
<clus scale="   58.731">  2  5  1 -1</clus>
</clustering>
</event>
<event>
 9    1  0.7586638E-005  0.1222867E+03  0.7546771E-02  0.1255543E+00
         -2   -1    0    0    0  501 -0.00000000000E+00  0.00000000000E+00  0.59805997665E+03  0.59805997665E+03  0.00000000000E+00 0.  1.
         21   -1    0    0  501  502  0.00000000000E+00 -0.00000000000E+00 -0.41512877968E+02  0.41512877968E+02  0.00000000000E+00 0. -1.
         23    2    1    2    0    0 -0.28131276582E+02  0.30406317413E+01  0.93018216683E+02  0.12832702415E+03  0.83754536175E+02 0.  0.
        -24    2    1    2    0    0 -0.47268315307E+02 -0.66671148776E+02  0.28075684405E+03  0.30354518287E+03  0.81461259819E+02 0.  0.
         13    1    4    4    0    0 -0.69191276027E+02 -0.48947943519E+02  0.23482647888E+03  0.24965337778E+03  0.00000000000E+00 0. -1.
        -14    1    4    4    0    0  0.21922960720E+02 -0.17723205257E+02  0.45930365171E+02  0.53891805092E+02  0.00000000000E+00 0.  1.
        -13    1    3    3    0    0  0.24931961097E+02  0.18832683543E+02  0.46459235989E+02  0.55988688699E+02  0.00000000000E+00 0.  1.
         13    1    3    3    0    0 -0.53063237679E+02 -0.15792051801E+02  0.46558980694E+02  0.72338335455E+02  0.00000000000E+00 0. -1.
         -1    1    1    2    0  502  0.75399591889E+02  0.63630517035E+02  0.18277203795E+03  0.20770064759E+03  0.00000000000E+00 0.  1.
<scales pt_clust_5="13000.00000" pt_clust_6="13000.00000" pt_clust_7="13000.00000" pt_clust_8="13000.00000" pt_clust_9="91.20360"></scales>
<clustering>
<clus scale="   81.461">  5  6 -1 -1</clus>
<clus scale="   83.755">  7  8 -1 -1</clus>
<clus scale="   88.405">  1  7  2 -1</clus>
<clus scale="   91.204">  2  9  1 -1</clus>
<clus scale="   91.204">  2  5  1 -1</clus>
</clustering>
</event>
<event>
 9    1  0.7586638E-005  0.2234501E+03  0.7546771E-02  0.1132791E+00
         21   -1    0    0  501  502  0.00000000000E+00  0.00000000000E+00  0.10084847802E+03  0.10084847802E+03  0.00000000000E+00 0.  1.
          1   -1    0    0  502    0 -0.00000000000E+00 -0.00000000000E+00 -0.82227534499E+03  0.82227534499E+03  0.00000000000E+00 0. -1.
         23    2    1    2    0    0  0.18697496946E+03  0.65999009349E+02 -0.53182771730E+03  0.57481888261E+03  0.90887394499E+02 0.  0.
        -24    2    1    2    0    0 -0.16458166899E+03 -0.99455736122E+02 -0.20875302596E+03  0.30372149673E+03  0.10812193355E+03 0.  0.
         13    1    4    4    0    0 -0.68414351362E+02 -0.38506462801E+02 -0.16318292762E+03  0.18108544673E+03  0.00000000000E+00 0. -1.
        -14    1    4    4    0    0 -0.96167317625E+02 -0.60949273320E+02 -0.45570098341E+02  0.12263605000E+03  0.00000000000E+00 0.  1.
        -13    1    3    3    0    0  0.11833514508E+03 -0.40328912377E+01 -0.32570832708E+03  0.34656223843E+03  0.00000000000E+00 0.  1.
         13    1    3    3    0    0  0.68639824383E+02  0.70031900587E+02 -0.20611939022E+03  0.22825664418E+03  0.00000000000E+00 0. -1.
          2    1    1    2  501    0 -0.22393300471E+02  0.33456726772E+02  0.19153876295E+02  0.44583443669E+02  0.00000000000E+00 0. -1.
<scales pt_clust_5="13000.00000" pt_clust_6="13000.00000" pt_clust_7="13000.00000" pt_clust_8="13000.00000" pt_clust_9="40.25932"></scales>
<clustering>
<clus scale="   40.259">  1  9  2 -1</clus>
<clus scale="   90.887">  7  8 -1 -1</clus>
<clus scale="  108.122">  5  6 -1 -1</clus>
<clus scale="  215.639">  2  7  1 -1</clus>
<clus scale="   40.259">  1  5  2 -1</clus>
</clustering>
</event>
<event>
 9    1  0.7586638E-005  0.1968332E+03  0.7546771E-02  0.1153429E+00
         21   -1    0    0  501  502  0.00000000000E+00  0.00000000000E+00  0.15248701745E+03  0.15248701745E+03  0.00000000000E+00 0.  1.
          1   -1    0    0  502    0 -0.00000000000E+00 -0.00000000000E+00 -0.44073212644E+03  0.44073212644E+03  0.00000000000E+00 0. -1.
         23    2    1    2    0    0 -0.77207552244E+02 -0.14336569459E+03 -0.16126060214E+03  0.24589227116E+03  0.89125185558E+02 0.  0.
        -24    2    1    2    0    0  0.83254787517E+02  0.16959795140E+03 -0.18972991573E+03  0.27905032708E+03  0.78592743689E+02 0.  0.
         13    1    4    4    0    0  0.12173861802E+02  0.11317730438E+03 -0.10268006004E+03  0.15329872755E+03  0.00000000000E+00 0. -1.
        -14    1    4    4    0    0  0.71080925715E+02  0.56420647015E+02 -0.87049855687E+02  0.12575159953E+03  0.00000000000E+00 0.  1.
        -11    1    3    3    0    0  0.18263061546E+02 -0.42366898578E+02 -0.32501873966E+02  0.56434611042E+02  0.00000000000E+00 0.  1.
         11    1    3    3    0    0 -0.95470613790E+02 -0.10099879602E+03 -0.12875872818E+03  0.18945766011E+03  0.00000000000E+00 0. -1.
          2    1    1    2  501    0 -0.60472352728E+01 -0.26232256802E+02  0.62745408872E+02  0.68276545650E+02  0.00000000000E+00 0. -1.
<scales pt_clust_5="13000.00000" pt_clust_6="13000.00000" pt_clust_7="13000.00000" pt_clust_8="13000.00000" pt_clust_9="26.92026"></scales>
<clustering>
<clus scale="   26.920">  1  9  2 -1</clus>
<clus scale="   78.593">  5  6 -1 -1</clus>
<clus scale="   89.125">  7  8 -1 -1</clus>
<clus scale="  192.294">  1  5  2 -1</clus>
<clus scale="   26.920">  1  5  2 -1</clus>
</clustering>
</event>
<event>
 9    1  0.7586638E-005  0.1540385E+03  0.7546771E-02  0.1197731E+00
          1   -1    0    0  502    0 -0.00000000000E+00  0.00000000000E+00  0.48808874306E+03  0.48808874306E+03  0.00000000000E+00 0. -1.
         21   -1    0    0  501  502  0.00000000000E+00 -0.00000000000E+00 -0.79368210233E+02  0.79368210233E+02  0.00000000000E+00 0.  1.
         23    2    1    2    0    0 -0.10575749921E+03 -0.45463479600E+02  0.28531906870E+03  0.32112164995E+03  0.91981337723E+02 0.  0.
        -24    2    1    2    0    0  0.12099580414E+03  0.76518936786E+02  0.13233552994E+03  0.21060765452E+03  0.79672826947E+02 0.  0.
         13    1    4    4    0    0  0.15194663257E+02  0.27308437847E+02  0.73627742879E+02  0.79985455495E+02  0.00000000000E+00 0. -1.
        -14    1    4    4    0    0  0.10580114088E+03  0.49210498939E+02  0.58707787057E+02  0.13062219903E+03  0.00000000000E+00 0.  1.
        -11    1    3    3    0    0 -0.14670485880E+02 -0.51460755977E+02  0.13549922590E+03  0.14568278135E+03  0.00000000000E+00 0. -1.
         11    1    3    3    0    0 -0.91087013333E+02  0.59972763769E+01  0.14981984280E+03  0.17543886861E+03  0.00000000000E+00 0.  1.
          2    1    1    2  501    0 -0.15238304927E+02 -0.31055457185E+02 -0.89340658076E+01  0.35727648816E+02  0.00000000000E+00 0. -1.
<scales pt_clust_5="13000.00000" pt_clust_6="13000.00000" pt_clust_7="13000.00000" pt_clust_8="13000.00000" pt_clust_9="34.59259"></scales>
<clustering>
<clus scale="   34.593">  2  9  1 -1</clus>
<clus scale="   79.673">  5  6 -1 -1</clus>
<clus scale="   91.981">  7  8 -1 -1</clus>
<clus scale="  147.021">  2  5  1 -1</clus>
<clus scale="   34.593">  2  5  1 -1</clus>
</clustering>
</event>
<event>
 9    1  0.7586638E-005  0.1792033E+03  0.7546771E-02  0.1177450E+00
          1   -1    0    0  502    0 -0.00000000000E+00  0.00000000000E+00  0.77813093872E+03  0.77813093872E+03  0.00000000000E+00 0. -1.
         21   -1    0    0  501  502  0.00000000000E+00 -0.00000000000E+00 -0.90188597301E+02  0.90188597301E+02  0.00000000000E+00 0. -1.
        -24    2    1    2    0    0 -0.96105030903E+02 -0.76243525999E+02  0.11110508486E+03  0.18381814919E+03  0.79971994278E+02 0.  0.
         23    2    1    2    0    0  0.11357499021E+03 -0.95388450686E+02  0.40633832938E+03  0.44194702371E+03  0.90598559138E+02 0.  0.
         13    1    3    3    0    0 -0.86943994094E+02 -0.25519794880E+02  0.48670762188E+02  0.10285602137E+03  0.00000000000E+00 0. -1.
        -14    1    3    3    0    0 -0.91610368091E+01 -0.50723731119E+02  0.62434322677E+02  0.80962127826E+02  0.00000000000E+00 0.  1.
        -11    1    4    4    0    0  0.29276716393E+02 -0.72696699257E+02  0.25992662096E+03  0.27148440929E+03  0.00000000000E+00 0.  1.
         11    1    4    4    0    0  0.84298273818E+02 -0.22691751429E+02  0.14641170842E+03  0.17046261442E+03  0.00000000000E+00 0. -1.
          2    1    1    2  501    0 -0.17469959308E+02  0.17163197669E+03  0.17049892718E+03  0.24255436312E+03  0.00000000000E+00 0. -1.
<scales pt_clust_5="13000.00000" pt_clust_6="13000.00000" pt_clust_7="13000.00000" pt_clust_8="13000.00000" pt_clust_9="154.61474"></scales>
<clustering>
<clus scale="   79.972">  5  6 -1 -1</clus>
<clus scale="   90.599">  7  8 -1 -1</clus>
<clus scale="  146.440">  1  5  2 -1</clus>
<clus scale="  154.615">  2  9  1 -1</clus>
<clus scale="  154.615">  2  5  1 -1</clus>
</clustering>
</event>
<event>
 9    1  0.7586638E-005  0.9389475E+02  0.7546771E-02  0.1299779E+00
         21   -1    0    0  501  502  0.00000000000E+00  0.00000000000E+00  0.13456469857E+03  0.13456469857E+03  0.00000000000E+00 0. -1.
          1   -1    0    0  502    0 -0.00000000000E+00 -0.00000000000E+00 -0.31737918221E+03  0.31737918221E+03  0.00000000000E+00 0. -1.
        -24    2    1    2    0    0  0.74224866225E+01  0.19260086375E+02 -0.26761748595E+03  0.28042160566E+03  0.81185675476E+02 0.  0.
         23    2    1    2    0    0 -0.48620258276E+02 -0.56878107864E+01  0.46751709933E+02  0.11382163470E+03  0.91506073226E+02 0.  0.
         13    1    3    3    0    0  0.39112843067E+02 -0.59356551753E+01 -0.17372385675E+03  0.17817133579E+03  0.00000000000E+00 0. -1.
        -14    1    3    3    0    0 -0.31690356445E+02  0.25195741551E+02 -0.93893629200E+02  0.10225026987E+03  0.00000000000E+00 0.  1.
        -11    1    4    4    0    0  0.20035033344E+02  0.21689561939E+02  0.17555133055E+02  0.34351453459E+02  0.00000000000E+00 0.  1.
         11    1    4    4    0    0 -0.68655291620E+02 -0.27377372725E+02  0.29196576878E+02  0.79470181239E+02  0.00000000000E+00 0. -1.
          2    1    1    2  501    0  0.41197771653E+02 -0.13572275589E+02  0.38051292378E+02  0.57700640425E+02  0.00000000000E+00 0. -1.
<scales pt_clust_5="13000.00000" pt_clust_6="13000.00000" pt_clust_7="13000.00000" pt_clust_8="13000.00000" pt_clust_9="43.37583"></scales>
<clustering>
<clus scale="   43.376">  1  9  2 -1</clus>
<clus scale="   81.186">  5  6 -1 -1</clus>
<clus scale="   83.869">  2  5  1 -1</clus>
<clus scale="   91.506">  7  8 -1 -1</clus>
<clus scale="   43.376">  1  5  2 -1</clus>
</clustering>
</event>
<event>
 9    1  0.7586638E-005  0.1797610E+03  0.7546771E-02  0.1169413E+00
         -2   -1    0    0    0  501 -0.00000000000E+00  0.00000000000E+00  0.13863336928E+04  0.13863336928E+04  0.00000000000E+00 0.  1.
         21   -1    0    0  501  502  0.00000000000E+00 -0.00000000000E+00 -0.36625679876E+02  0.36625679876E+02  0.00000000000E+00 0. -1.
        -24    2    1    2    0    0 -0.82744504694E+02 -0.15000790198E+03  0.85209756381E+03  0.87288197672E+03  0.80645293219E+02 0.  0.
         23    2    1    2    0    0  0.45763837271E+02  0.10722486750E+03  0.21172472527E+03  0.25865226852E+03  0.92098510893E+02 0.  0.
         13    1    3    3    0    0 -0.63253566708E+02 -0.45702519802E+02  0.46507677671E+03  0.47157835219E+03  0.00000000000E+00 0. -1.
        -14    1    3    3    0    0 -0.19490937986E+02 -0.10430538218E+03  0.38702078709E+03  0.40130362453E+03  0.00000000000E+00 0.  1.
        -11    1    4    4    0    0  0.70697280477E+02  0.97369915821E+02  0.18577751992E+03  0.22134202692E+03  0.00000000000E+00 0. -1.
         11    1    4    4    0    0 -0.24933443206E+02  0.98549516746E+01  0.25947205342E+02  0.37310241592E+02  0.00000000000E+00 0.  1.
         -1    1    1    2    0  502  0.36980667423E+02  0.42783034485E+02  0.28588572383E+03  0.29142512742E+03  0.00000000000E+00 0.  1.
<scales pt_clust_5="13000.00000" pt_clust_6="13000.00000" pt_clust_7="13000.00000" pt_clust_8="13000.00000" pt_clust_9="56.55052"></scales>
<clustering>
<clus scale="   56.551">  2  9  1 -1</clus>
<clus scale="   80.645">  5  6 -1 -1</clus>
<clus scale="   92.099">  7  8 -1 -1</clus>
<clus scale="  174.171">  1  5  2 -1</clus>
<clus scale="   56.551">  2  5  1 -1</clus>
</clustering>
</event>
<event>
 9    1  0.7586638E-005  0.3537669E+03  0.7546771E-02  0.1093082E+00
         21   -1    0    0  501  502  0.00000000000E+00  0.00000000000E+00  0.33559364913E+03  0.33559364913E+03  0.00000000000E+00 0. -1.
         -2   -1    0    0    0  501 -0.00000000000E+00 -0.00000000000E+00 -0.63914162314E+03  0.63914162314E+03  0.00000000000E+00 0.  1.
         23    2    1    2    0    0  0.86703739021E+02  0.84387633441E+02 -0.18593416302E+03  0.23805165217E+03  0.86361247579E+02 0.  0.
        -24    2    1    2    0    0 -0.34659479956E+03  0.11121726098E+03  0.40234956026E+02  0.37513020591E+03  0.81280904774E+02 0.  0.
         13    1    4    4    0    0 -0.23230635281E+03  0.40850845408E+02  0.47949071660E+02  0.24069513207E+03  0.00000000000E+00 0. -1.
        -14    1    4    4    0    0 -0.11428844675E+03  0.70366415570E+02 -0.77141156342E+01  0.13443507385E+03  0.00000000000E+00 0.  1.
        -13    1    3    3    0    0  0.27916497217E+02  0.78788572983E+02 -0.14073244033E+03  0.16368442141E+03  0.00000000000E+00 0. -1.
         13    1    3    3    0    0  0.58787241804E+02  0.55990604576E+01 -0.45201722690E+02  0.74367230761E+02  0.00000000000E+00 0.  1.
         -1    1    1    2    0  502  0.25989106054E+03 -0.19560489442E+03 -0.15784876701E+03  0.36155341419E+03  0.00000000000E+00 0.  1.
<scales pt_clust_5="13000.00000" pt_clust_6="13000.00000" pt_clust_7="13000.00000" pt_clust_8="13000.00000" pt_clust_9="344.30296"></scales>
<clustering>
<clus scale="   81.281">  5  6 -1 -1</clus>
<clus scale="   86.361">  7  8 -1 -1</clus>
<clus scale="  148.651">  2  7  1 -1</clus>
<clus scale="  344.303">  1  9  2 -1</clus>
<clus scale="  344.303">  1  5  2 -1</clus>
</clustering>
</event>
<event>
 9    1  0.7586638E-005  0.1179730E+03  0.7546771E-02  0.1257828E+00
          1   -1    0    0  502    0 -0.00000000000E+00  0.00000000000E+00  0.46766281849E+03  0.46766281849E+03  0.00000000000E+00 0. -1.
         21   -1    0    0  501  502  0.00000000000E+00 -0.00000000000E+00 -0.12458990044E+03  0.12458990044E+03  0.00000000000E+00 0.  1.
         23    2    1    2    0    0  0.75833426596E+01  0.22710156576E+02 -0.57048318448E+02  0.11005536068E+03  0.91018753444E+02 0.  0.
        -24    2    1    2    0    0 -0.43641032246E+02  0.69155612369E+02  0.64309863304E+02  0.13218485155E+03  0.81547765405E+02 0.  0.
         11    1    4    4    0    0 -0.11955366117E+02  0.67866627822E+02  0.10473629643E+02  0.69702990387E+02  0.00000000000E+00 0. -1.
        -12    1    4    4    0    0 -0.31685666129E+02  0.12889845471E+01  0.53836233661E+02  0.62481861160E+02  0.00000000000E+00 0.  1.
        -13    1    3    3    0    0  0.45528795681E+02 -0.16795403710E+01 -0.43413434366E+02  0.62931855013E+02  0.00000000000E+00 0.  1.
         13    1    3    3    0    0 -0.37945453021E+02  0.24389696947E+02 -0.13634884083E+02  0.47123505665E+02  0.00000000000E+00 0. -1.
          2    1    1    2  501    0  0.36057689586E+02 -0.91865768946E+02  0.33581137320E+03  0.35001250670E+03  0.00000000000E+00 0. -1.
<scales pt_clust_5="13000.00000" pt_clust_6="13000.00000" pt_clust_7="13000.00000" pt_clust_8="13000.00000" pt_clust_9="85.25020"></scales>
<clustering>
<clus scale="   81.548">  5  6 -1 -1</clus>
<clus scale="   91.019">  7  8 -1 -1</clus>
<clus scale="   94.115">  1  7  2 -1</clus>
<clus scale="   85.250">  2  9  1 -1</clus>
<clus scale="   85.250">  2  5  1 -1</clus>
</clustering>
</event>
<event>
 9    1  0.7586638E-005  0.1028365E+03  0.7546771E-02  0.1280265E+00
         21   -1    0    0  501  502  0.00000000000E+00  0.00000000000E+00  0.68927700478E+02  0.68927700478E+02  0.00000000000E+00 0.  1.
         -4   -1    0    0    0  501 -0.00000000000E+00 -0.00000000000E+00 -0.30066443087E+03  0.30066443087E+03  0.00000000000E+00 0.  1.
        -24    2    1    2    0    0 -0.37262875630E+02  0.33872412651E+02 -0.63105575468E+02  0.11292352434E+03  0.78952811569E+02 0.  0.
         23    2    1    2    0    0 -0.22571880956E+02 -0.62053265842E+02 -0.55530924405E+02  0.12564944534E+03  0.91345508574E+02 0.  0.
         13    1    3    3    0    0  0.22739013614E+02 -0.28756454513E+01 -0.11341311526E+02  0.25572591265E+02  0.00000000000E+00 0. -1.
        -14    1    3    3    0    0 -0.60001889244E+02  0.36748058102E+02 -0.51764263942E+02  0.87350933072E+02  0.00000000000E+00 0.  1.
        -13    1    4    4    0    0 -0.16991626501E+02  0.12413534074E+02  0.12631184828E+02  0.24542983305E+02  0.00000000000E+00 0. -1.
         13    1    4    4    0    0 -0.55802544545E+01 -0.74466799915E+02 -0.68162109233E+02  0.10110646203E+03  0.00000000000E+00 0.  1.
         -3    1    1    2    0  502  0.59834756586E+02  0.28180853191E+02 -0.11310023052E+03  0.13101916167E+03  0.00000000000E+00 0.  1.
<scales pt_clust_5="13000.00000" pt_clust_6="13000.00000" pt_clust_7="13000.00000" pt_clust_8="13000.00000" pt_clust_9="66.13897"></scales>
<clustering>
<clus scale="   66.139">  1  9  2 -1</clus>
<clus scale="   78.953">  5  6 -1 -1</clus>
<clus scale="   91.346">  7  8 -1 -1</clus>
<clus scale="   92.005">  2  5  1 -1</clus>
<clus scale="   66.139">  1  5  2 -1</clus>
</clustering>
</event>
<event>
 9    1  0.7586638E-005  0.1111785E+03  0.7546771E-02  0.1262193E+00
         -2   -1    0    0    0  501 -0.00000000000E+00  0.00000000000E+00  0.22976884851E+03  0.22976884851E+03  0.00000000000E+00 0.  1.
         21   -1    0    0  501  502  0.00000000000E+00 -0.00000000000E+00 -0.84649274446E+02  0.84649274446E+02  0.00000000000E+00 0.  1.
        -24    2    1    2    0    0 -0.99651702846E+01  0.45975613732E+02  0.49576773691E+02  0.10627608425E+03  0.81386042523E+02 0.  0.
         23    2    1    2    0    0  0.33240207411E+02 -0.85623531795E+02  0.38956108187E+02  0.13523292753E+03  0.91291104366E+02 0.  0.
         11    1    3    3    0    0  0.25319191794E+01  0.37670008156E+02  0.70827311582E+02  0.80261748019E+02  0.00000000000E+00 0. -1.
        -12    1    3    3    0    0 -0.12497089464E+02  0.83056055766E+01 -0.21250537890E+02  0.26014336234E+02  0.00000000000E+00 0.  1.
        -13    1    4    4    0    0  0.91898830140E+01 -0.10057338793E+03  0.27362823793E+02  0.10463357222E+03  0.00000000000E+00 0.  1.
         13    1    4    4    0    0  0.24050324397E+02  0.14949856135E+02  0.11593284394E+02  0.30599355305E+02  0.00000000000E+00 0. -1.
         -1    1    1    2    0  502 -0.23275037126E+02  0.39647918063E+02  0.56586692184E+02  0.72909111175E+02  0.00000000000E+00 0.  1.
<scales pt_clust_5="13000.00000" pt_clust_6="13000.00000" pt_clust_7="13000.00000" pt_clust_8="13000.00000" pt_clust_9="45.97485"></scales>
<clustering>
<clus scale="   45.975">  2  9  1 -1</clus>
<clus scale="   81.386">  5  6 -1 -1</clus>
<clus scale="   91.291">  7  8 -1 -1</clus>
<clus scale="  103.200">  1  5  2 -1</clus>
<clus scale="   45.975">  2  5  1 -1</clus>
</clustering>
</event>
<event>
 9    1  0.7586638E-005  0.9900708E+02  0.7546771E-02  0.1284834E+00
          1   -1    0    0  502    0 -0.00000000000E+00  0.00000000000E+00  0.45510037989E+03  0.45510037989E+03  0.00000000000E+00 0. -1.
         21   -1    0    0  501  502  0.00000000000E+00 -0.00000000000E+00 -0.59484827710E+02  0.59484827710E+02  0.00000000000E+00 0. -1.
         23    2    1    2    0    0 -0.51695085756E+01  0.61565527024E+02  0.92464410677E+02  0.14024504429E+03  0.85451549259E+02 0.  0.
        -24    2    1    2    0    0 -0.58221980206E+02 -0.22908800621E+02  0.55720782015E+02  0.11600974283E+03  0.80242400003E+02 0.  0.
         13    1    4    4    0    0 -0.49499374413E+02 -0.36442166193E+02  0.70932393354E+02  0.93859597117E+02  0.00000000000E+00 0. -1.
        -14    1    4    4    0    0 -0.87226057934E+01  0.13533365573E+02 -0.15211611339E+02  0.22150145713E+02  0.00000000000E+00 0.  1.
        -13    1    3    3    0    0  0.21308632893E+02  0.63087040886E+01  0.72456520974E+02  0.75787894909E+02  0.00000000000E+00 0.  1.
         13    1    3    3    0    0 -0.26478141469E+02  0.55256822935E+02  0.20007889703E+02  0.64457149386E+02  0.00000000000E+00 0. -1.
          2    1    1    2  501    0  0.63391488782E+02 -0.38656726403E+02  0.24743035948E+03  0.25833042047E+03  0.00000000000E+00 0. -1.
<scales pt_clust_5="13000.00000" pt_clust_6="13000.00000" pt_clust_7="13000.00000" pt_clust_8="13000.00000" pt_clust_9="74.24843"></scales>
<clustering>
<clus scale="   74.248">  2  9  1 -1</clus>
<clus scale="   80.242">  5  6 -1 -1</clus>
<clus scale="   85.452">  7  8 -1 -1</clus>
<clus scale="   94.548">  2  5  1 -1</clus>
<clus scale="   74.248">  2  5  1 -1</clus>
</clustering>
</event>
<event>
 9    1  0.7586638E-005  0.1541340E+03  0.7546771E-02  0.1215115E+00
         21   -1    0    0  501  502  0.00000000000E+00  0.00000000000E+00  0.80972315843E+02  0.80972315843E+02  0.00000000000E+00 0. -1.
          1   -1    0    0  502    0 -0.00000000000E+00 -0.00000000000E+00 -0.56041330656E+03  0.56041330656E+03  0.00000000000E+00 0. -1.
        -24    2    1    2    0    0  0.53552871619E+02 -0.27938969489E+02 -0.25535006490E+03  0.27460295450E+03  0.80960675029E+02 0.  0.
         23    2    1    2    0    0  0.16704035126E+02 -0.10385168009E+03 -0.94465250389E+02  0.16902619141E+03  0.92638942165E+02 0.  0.
         11    1    3    3    0    0  0.16586330752E+02 -0.48078517677E+02 -0.19139260704E+03  0.19803479558E+03  0.00000000000E+00 0. -1.
        -12    1    3    3    0    0  0.36966540867E+02  0.20139548188E+02 -0.63957457858E+02  0.76568158921E+02  0.00000000000E+00 0.  1.
        -13    1    4    4    0    0 -0.52768418292E+01 -0.74581974894E+02 -0.80775991911E+01  0.75203481618E+02  0.00000000000E+00 0. -1.
         13    1    4    4    0    0  0.21980876956E+02 -0.29269705199E+02 -0.86387651198E+02  0.93822709797E+02  0.00000000000E+00 0.  1.
          2    1    1    2  501    0 -0.70256906746E+02  0.13179064958E+03 -0.12962567543E+03  0.19775647649E+03  0.00000000000E+00 0. -1.
<scales pt_clust_5="13000.00000" pt_clust_6="13000.00000" pt_clust_7="13000.00000" pt_clust_8="13000.00000" pt_clust_9="123.18822"></scales>
<clustering>
<clus scale="   80.961">  5  6 -1 -1</clus>
<clus scale="   92.639">  7  8 -1 -1</clus>
<clus scale="  101.011">  2  5  1 -1</clus>
<clus scale="  123.188">  1  9  2 -1</clus>
<clus scale="  123.188">  1  5  2 -1</clus>
</clustering>
</event>
<event>
 9    1  0.7586638E-005  0.1018230E+03  0.7546771E-02  0.1281166E+00
          1   -1    0    0  502    0 -0.00000000000E+00  0.00000000000E+00  0.63567824887E+02  0.63567824887E+02  0.00000000000E+00 0. -1.
         21   -1    0    0  501  502  0.00000000000E+00 -0.00000000000E+00 -0.25924771513E+03  0.25924771513E+03  0.00000000000E+00 0. -1.
         23    2    1    2    0    0  0.67089650440E+02  0.23063292517E+02 -0.55367145545E+02  0.12738503585E+03  0.90158138264E+02 0.  0.
        -24    2    1    2    0    0 -0.17800320764E+02 -0.19164339018E+02 -0.71072514707E+02  0.11034907665E+03  0.80258912664E+02 0.  0.
         13    1    4    4    0    0 -0.19401022340E+02 -0.39916931097E+02 -0.95457017770E+01  0.45396932478E+02  0.00000000000E+00 0. -1.
        -14    1    4    4    0    0  0.16007015762E+01  0.20752592078E+02 -0.61526812930E+02  0.64952144174E+02  0.00000000000E+00 0.  1.
        -13    1    3    3    0    0  0.27215233544E+02 -0.31003290637E+02 -0.15091977714E+01  0.41281359536E+02  0.00000000000E+00 0.  1.
         13    1    3    3    0    0  0.39874416895E+02  0.54066583154E+02 -0.53857947774E+02  0.86103676316E+02  0.00000000000E+00 0. -1.
          2    1    1    2  501    0 -0.49289329675E+02 -0.38989534990E+01 -0.69240229987E+02  0.85081427509E+02  0.00000000000E+00 0. -1.
<scales pt_clust_5="13000.00000" pt_clust_6="13000.00000" pt_clust_7="13000.00000" pt_clust_8="13000.00000" pt_clust_9="49.44330"></scales>
<clustering>
<clus scale="   49.443">  2  9  1 -1</clus>
<clus scale="   80.259">  5  6 -1 -1</clus>
<clus scale="   90.158">  7  8 -1 -1</clus>
<clus scale="   93.171">  2  5  1 -1</clus>
<clus scale="   49.443">  2  5  1 -1</clus>
</clustering>
</event>
<event>
 9    1  0.7586638E-005  0.1675073E+03  0.7546771E-02  0.1203545E+00
          1   -1    0    0  502    0 -0.00000000000E+00  0.00000000000E+00  0.33291955097E+03  0.33291955097E+03  0.00000000000E+00 0. -1.
         21   -1    0    0  501  502  0.00000000000E+00 -0.00000000000E+00 -0.13404328184E+03  0.13404328184E+03  0.00000000000E+00 0.  1.
        -24    2    1    2    0    0  0.53806323557E+02 -0.28820887067E+02  0.16613950705E+02  0.10214335486E+03  0.80196493683E+02 0.  0.
         23    2    1    2    0    0 -0.84372876468E+02 -0.11562520141E+03  0.91863585621E+02  0.19169837142E+03  0.88438553570E+02 0.  0.
         13    1    3    3    0    0  0.48798205433E+00 -0.27497499738E+02  0.36080697621E+02  0.45367029428E+02  0.00000000000E+00 0. -1.
        -14    1    3    3    0    0  0.53318341503E+02 -0.13233873288E+01 -0.19466746916E+02  0.56776325437E+02  0.00000000000E+00 0.  1.
        -11    1    4    4    0    0 -0.10219907947E+03 -0.87567298355E+02  0.68068798678E+02  0.15081791982E+03  0.00000000000E+00 0.  1.
         11    1    4    4    0    0  0.17826203002E+02 -0.28057903054E+02  0.23794786944E+02  0.40880451599E+02  0.00000000000E+00 0. -1.
          2    1    1    2  501    0  0.30566552911E+02  0.14444608848E+03  0.90398732797E+02  0.17312110652E+03  0.00000000000E+00 0. -1.
<scales pt_clust_5="13000.00000" pt_clust_6="13000.00000" pt_clust_7="13000.00000" pt_clust_8="13000.00000" pt_clust_9="142.25794"></scales>
<clustering>
<clus scale="   80.196">  5  6 -1 -1</clus>
<clus scale="   88.439">  7  8 -1 -1</clus>
<clus scale="  100.783">  1  5  2 -1</clus>
<clus scale="  142.258">  2  9  1 -1</clus>
<clus scale="  142.258">  2  5  1 -1</clus>
</clustering>
</event>
<event>
 9    1  0.7586638E-005  0.9558669E+02  0.7546771E-02  0.1295745E+00
         21   -1    0    0  501  502  0.00000000000E+00  0.00000000000E+00  0.12257683420E+03  0.12257683420E+03  0.00000000000E+00 0.  1.
         -4   -1    0    0    0  501 -0.00000000000E+00 -0.00000000000E+00 -0.51392713581E+03  0.51392713581E+03  0.00000000000E+00 0.  1.
        -24    2    1    2    0    0 -0.55799094760E+01  0.22519767244E+02 -0.31800884557E+03  0.32884910547E+03  0.80460133002E+02 0.  0.
         23    2    1    2    0    0  0.20323872804E+02 -0.40758547404E+02 -0.17549281594E+03  0.20284581013E+03  0.90963592982E+02 0.  0.
         13    1    3    3    0    0 -0.25920442236E+02 -0.18712920409E+02 -0.75004293631E+02  0.81533347650E+02  0.00000000000E+00 0. -1.
        -14    1    3    3    0    0  0.20340532760E+02  0.41232687653E+02 -0.24300455194E+03  0.24731575782E+03  0.00000000000E+00 0.  1.
        -11    1    4    4    0    0  0.41750052199E+02  0.11558055787E+02 -0.95772540136E+02  0.10511438986E+03  0.00000000000E+00 0.  1.
         11    1    4    4    0    0 -0.21426179395E+02 -0.52316603192E+02 -0.79720275807E+02  0.97731420269E+02  0.00000000000E+00 0. -1.
         -3    1    1    2    0  502 -0.14743963328E+02  0.18238780160E+02  0.10215135990E+03  0.10480905441E+03  0.00000000000E+00 0.  1.
<scales pt_clust_5="13000.00000" pt_clust_6="13000.00000" pt_clust_7="13000.00000" pt_clust_8="13000.00000" pt_clust_9="23.45288"></scales>
<clustering>
<clus scale="   23.453">  1  9  2 -1</clus>
<clus scale="   80.460">  5  6 -1 -1</clus>
<clus scale="   85.652">  2  5  1 -1</clus>
<clus scale="   90.964">  7  8 -1 -1</clus>
<clus scale="   23.453">  1  5  2 -1</clus>
</clustering>
</event>
<event>
 9    1  0.7586638E-005  0.9430598E+02  0.7546771E-02  0.1297360E+00
         21   -1    0    0  501  502  0.00000000000E+00  0.00000000000E+00  0.14270926254E+03  0.14270926254E+03  0.00000000000E+00 0. -1.
         -4   -1    0    0    0  501 -0.00000000000E+00 -0.00000000000E+00 -0.17754702090E+03  0.17754702090E+03  0.00000000000E+00 0.  1.
        -24    2    1    2    0    0  0.24012885273E+02  0.17696410269E+02 -0.13579288560E+03  0.16153201049E+03  0.82238075358E+02 0.  0.
         23    2    1    2    0    0  0.43633111828E+01 -0.17658811344E+02  0.64356512337E+02  0.11241370664E+03  0.90356010634E+02 0.  0.
         13    1    3    3    0    0 -0.27000204024E+02  0.15606842720E+02 -0.26588815741E+02  0.40982309348E+02  0.00000000000E+00 0. -1.
        -14    1    3    3    0    0  0.51013089297E+02  0.20895675486E+01 -0.10920406986E+03  0.12054970114E+03  0.00000000000E+00 0.  1.
        -13    1    4    4    0    0 -0.33804582254E+02 -0.97214541252E+01  0.64456001575E+02  0.73429099073E+02  0.00000000000E+00 0. -1.
         13    1    4    4    0    0  0.38167893437E+02 -0.79373572185E+01 -0.99489237627E-01  0.38984607566E+02  0.00000000000E+00 0.  1.
         -3    1    1    2    0  502 -0.28376196456E+02 -0.37598924968E-01  0.36598614908E+02  0.46310566312E+02  0.00000000000E+00 0.  1.
<scales pt_clust_5="13000.00000" pt_clust_6="13000.00000" pt_clust_7="13000.00000" pt_clust_8="13000.00000" pt_clust_9="28.37622"></scales>
<clustering>
<clus scale="   28.376">  1  9  2 -1</clus>
<clus scale="   82.238">  5  6 -1 -1</clus>
<clus scale="   86.559">  2  5  1 -1</clus>
<clus scale="   90.356">  7  8 -1 -1</clus>
<clus scale="   28.376">  1  5  2 -1</clus>
</clustering>
</event>
<event>
 9    1  0.7586638E-005  0.1474597E+03  0.7546771E-02  0.1206282E+00
          1   -1    0    0  502    0 -0.00000000000E+00  0.00000000000E+00  0.10249886681E+04  0.10249886681E+04  0.00000000000E+00 0. -1.
         21   -1    0    0  501  502  0.00000000000E+00 -0.00000000000E+00 -0.19385609525E+03  0.19385609525E+03  0.00000000000E+00 0.  1.
        -24    2    1    2    0    0 -0.61357212954E+02 -0.10031488608E+03  0.93746356636E+03  0.94811802603E+03  0.79133236301E+02 0.  0.
         23    2    1    2    0    0  0.72023156118E+02 -0.33914449100E+01 -0.11713038761E+03  0.16591551494E+03  0.92787895121E+02 0.  0.
         13    1    3    3    0    0 -0.66894875789E+02 -0.58731132084E+02  0.44158867293E+03  0.45047178196E+03  0.00000000000E+00 0. -1.
        -14    1    3    3    0    0  0.55376628352E+01 -0.41583753993E+02  0.49587489343E+03  0.49764624407E+03  0.00000000000E+00 0.  1.
        -11    1    4    4    0    0  0.38192348577E+02  0.38126194677E+02 -0.92220817383E+02  0.10685008830E+03  0.00000000000E+00 0.  1.
         11    1    4    4    0    0  0.33830807541E+02 -0.41517639587E+02 -0.24909570225E+02  0.59065426643E+02  0.00000000000E+00 0. -1.
          2    1    1    2  501    0 -0.10665943164E+02  0.10370633099E+03  0.10799394141E+02  0.10481122242E+03  0.00000000000E+00 0. -1.
<scales pt_clust_5="13000.00000" pt_clust_6="13000.00000" pt_clust_7="13000.00000" pt_clust_8="13000.00000" pt_clust_9="104.25337"></scales>
<clustering>
<clus scale="   79.133">  5  6 -1 -1</clus>
<clus scale="   92.788">  7  8 -1 -1</clus>
<clus scale="  104.253">  2  9  1 -1</clus>
<clus scale="  139.273">  1  5  2 -1</clus>
<clus scale="  104.253">  2  5  1 -1</clus>
</clustering>
</event>
<event>
 9    1  0.7586638E-005  0.1385919E+03  0.7546771E-02  0.1217433E+00
          1   -1    0    0  502    0 -0.00000000000E+00  0.00000000000E+00  0.12013233585E+04  0.12013233585E+04  0.00000000000E+00 0. -1.
         21   -1    0    0  501  502  0.00000000000E+00 -0.00000000000E+00 -0.33951077837E+02  0.33951077837E+02  0.00000000000E+00 0. -1.
        -24    2    1    2    0    0  0.19153072322E+02  0.10552965429E+03  0.96318490755E+03  0.97254600625E+03  0.81346297032E+02 0.  0.
         23    2    1    2    0    0 -0.44705302376E+02 -0.82814478976E+02  0.16522146162E+03  0.21088985458E+03  0.91211827066E+02 0.  0.
         11    1    3    3    0    0 -0.69790783913E+01  0.88001818883E+02  0.46099706367E+03  0.46937332730E+03  0.00000000000E+00 0. -1.
        -12    1    3    3    0    0  0.26132150713E+02  0.17527835405E+02  0.50218784387E+03  0.50317267896E+03  0.00000000000E+00 0.  1.
        -11    1    4    4    0    0  0.39709555855E+01 -0.80128796273E+02  0.83966895779E+02  0.11613282080E+03  0.00000000000E+00 0.  1.
         11    1    4    4    0    0 -0.48676257961E+02 -0.26856827029E+01  0.81254565841E+02  0.94757033779E+02  0.00000000000E+00 0. -1.
          2    1    1    2  501    0  0.25552230054E+02 -0.22715175312E+02  0.38965911454E+02  0.51838575459E+02  0.00000000000E+00 0. -1.
<scales pt_clust_5="13000.00000" pt_clust_6="13000.00000" pt_clust_7="13000.00000" pt_clust_8="13000.00000" pt_clust_9="34.18912"></scales>
<clustering>
<clus scale="   34.189">  2  9  1 -1</clus>
<clus scale="   81.346">  5  6 -1 -1</clus>
<clus scale="   91.212">  7  8 -1 -1</clus>
<clus scale="  132.308">  1  5  2 -1</clus>
<clus scale="   34.189">  2  5  1 -1</clus>
</clustering>
</event>
<event>
 9    1  0.7586638E-005  0.1258444E+03  0.7546771E-02  0.1243605E+00
          3   -1    0    0  502    0 -0.00000000000E+00  0.00000000000E+00  0.39382937010E+02  0.39382937010E+02  0.00000000000E+00 0. -1.
         21   -1    0    0  501  502  0.00000000000E+00 -0.00000000000E+00 -0.98800761973E+03  0.98800761973E+03  0.00000000000E+00 0.  1.
        -24    2    1    2    0    0 -0.24771607875E+02 -0.43298975773E+02 -0.56817675828E+03  0.57743431725E+03  0.90095106551E+02 0.  0.
         23    2    1    2    0    0 -0.12502912350E+02 -0.66941568540E+02 -0.25012283541E+03  0.27523647444E+03  0.92499663002E+02 0.  0.
         13    1    3    3    0    0  0.78528149140E+01 -0.26766982138E+02 -0.44756876171E+02  0.52738183505E+02  0.00000000000E+00 0. -1.
        -14    1    3    3    0    0 -0.32624422789E+02 -0.16531993635E+02 -0.52341988211E+03  0.52469613374E+03  0.00000000000E+00 0.  1.
        -11    1    4    4    0    0 -0.12868870754E+02 -0.89682928827E+02 -0.21595858062E+03  0.23419381738E+03  0.00000000000E+00 0.  1.
         11    1    4    4    0    0  0.36595840375E+00  0.22741360287E+02 -0.34164254790E+02  0.41042657061E+02  0.00000000000E+00 0. -1.
          4    1    1    2  501    0  0.37274520225E+02  0.11024054431E+03 -0.13032508903E+03  0.17471976505E+03  0.00000000000E+00 0. -1.
<scales pt_clust_5="13000.00000" pt_clust_6="13000.00000" pt_clust_7="13000.00000" pt_clust_8="13000.00000" pt_clust_9="85.32661"></scales>
<clustering>
<clus scale="   90.095">  5  6 -1 -1</clus>
<clus scale="   92.500">  7  8 -1 -1</clus>
<clus scale="  102.983">  1  5  2 -1</clus>
<clus scale="   85.327">  2  9  1 -1</clus>
<clus scale="   85.327">  2  5  1 -1</clus>
</clustering>
</event>
<event>
 9    1  0.7586638E-005  0.1101550E+03  0.7546771E-02  0.1264980E+00
          1   -1    0    0  502    0 -0.00000000000E+00  0.00000000000E+00  0.18303644481E+03  0.18303644481E+03  0.00000000000E+00 0. -1.
         21   -1    0    0  501  502  0.00000000000E+00 -0.00000000000E+00 -0.18722695196E+03  0.18722695196E+03  0.00000000000E+00 0.  1.
         23    2    1    2    0    0  0.55083790289E+02 -0.42783391024E+02  0.10794715999E+03  0.15850744165E+03  0.92775951666E+02 0.  0.
        -24    2    1    2    0    0 -0.34725780902E+02 -0.30221219030E+02 -0.96888253607E+02  0.13444705364E+03  0.81052295510E+02 0.  0.
         13    1    4    4    0    0 -0.54317422850E+02  0.41561228670E+00 -0.42261451363E+02  0.68822855433E+02  0.00000000000E+00 0. -1.
        -14    1    4    4    0    0  0.19591641949E+02 -0.30636831317E+02 -0.54626802243E+02  0.65624198210E+02  0.00000000000E+00 0.  1.
        -13    1    3    3    0    0  0.75692619825E+02 -0.12688401624E+02  0.55885434196E+02  0.94939717648E+02  0.00000000000E+00 0. -1.
         13    1    3    3    0    0 -0.20608829536E+02 -0.30094989399E+02  0.52061725797E+02  0.63567724001E+02  0.00000000000E+00 0.  1.
          2    1    1    2  501    0 -0.20358009388E+02  0.73004610054E+02 -0.15249413533E+02  0.77308901483E+02  0.00000000000E+00 0. -1.
<scales pt_clust_5="13000.00000" pt_clust_6="13000.00000" pt_clust_7="13000.00000" pt_clust_8="13000.00000" pt_clust_9="75.78998"></scales>
<clustering>
<clus scale="   75.790">  2  9  1 -1</clus>
<clus scale="   81.052">  5  6 -1 -1</clus>
<clus scale="   92.776">  7  8 -1 -1</clus>
<clus scale="  100.480">  2  5  1 -1</clus>
<clus scale="   75.790">  2  5  1 -1</clus>
</clustering>
</event>
<event>
 9    1  0.7586638E-005  0.1234114E+03  0.7546771E-02  0.1252075E+00
         21   -1    0    0  501  502  0.00000000000E+00  0.00000000000E+00  0.42181728052E+03  0.42181728052E+03  0.00000000000E+00 0.  1.
          3   -1    0    0  502    0 -0.00000000000E+00 -0.00000000000E+00 -0.72294163190E+02  0.72294163190E+02  0.00000000000E+00 0. -1.
        -24    2    1    2    0    0 -0.44577067450E+02 -0.11469982892E+02  0.40770907802E+02  0.10075884153E+03  0.79821060959E+02 0.  0.
         23    2    1    2    0    0 -0.13070156566E+02 -0.74944519274E+02  0.24300551890E+03  0.27041645636E+03  0.91026741645E+02 0.  0.
         11    1    3    3    0    0 -0.60614913024E+01 -0.41388316966E+02  0.97253990063E+01  0.42945521814E+02  0.00000000000E+00 0. -1.
        -12    1    3    3    0    0 -0.38515576147E+02  0.29918334074E+02  0.31045508796E+02  0.57813319712E+02  0.00000000000E+00 0.  1.
        -13    1    4    4    0    0  0.32481011131E+02 -0.46390771943E+02  0.74744462275E+02  0.93775553564E+02  0.00000000000E+00 0. -1.
         13    1    4    4    0    0 -0.45551167697E+02 -0.28553747331E+02  0.16826105662E+03  0.17664090280E+03  0.00000000000E+00 0.  1.
          4    1    1    2  501    0  0.57647224016E+02  0.86414502166E+02  0.65746690633E+02  0.12293614583E+03  0.00000000000E+00 0. -1.
<scales pt_clust_5="13000.00000" pt_clust_6="13000.00000" pt_clust_7="13000.00000" pt_clust_8="13000.00000" pt_clust_9="83.33379"></scales>
<clustering>
<clus scale="   79.821">  5  6 -1 -1</clus>
<clus scale="   91.027">  7  8 -1 -1</clus>
<clus scale="   92.142">  2  5  1 -1</clus>
<clus scale="   83.334">  1  9  2 -1</clus>
<clus scale="   83.334">  1  5  2 -1</clus>
</clustering>
</event>
<event>
 9    1  0.7586638E-005  0.1618481E+03  0.7546771E-02  0.1188277E+00
         21   -1    0    0  501  502  0.00000000000E+00  0.00000000000E+00  0.21229687704E+03  0.21229687704E+03  0.00000000000E+00 0. -1.
          3   -1    0    0  502    0 -0.00000000000E+00 -0.00000000000E+00 -0.21230539852E+03  0.21230539852E+03  0.00000000000E+00 0. -1.
         23    2    1    2    0    0  0.48714836231E+02 -0.13322558920E+03 -0.81601286241E+02  0.18905556355E+03  0.94662787328E+02 0.  0.
        -24    2    1    2    0    0 -0.15357310927E+02  0.78289679160E+02  0.10418113811E+03  0.16742246289E+03  0.10397812597E+03 0.  0.
         11    1    4    4    0    0  0.27818086217E+02 -0.63662648062E+01  0.31328203229E+01  0.28708706198E+02  0.00000000000E+00 0. -1.
        -12    1    4    4    0    0 -0.43175397144E+02  0.84655943966E+02  0.10104831779E+03  0.13871375669E+03  0.00000000000E+00 0.  1.
        -13    1    3    3    0    0 -0.23446424570E+02 -0.72236118519E+02 -0.33001956718E+02  0.82806526259E+02  0.00000000000E+00 0. -1.
         13    1    3    3    0    0  0.72161260801E+02 -0.60989470684E+02 -0.48599329523E+02  0.10624903729E+03  0.00000000000E+00 0.  1.
          4    1    1    2  501    0 -0.33357525304E+02  0.54935910044E+02 -0.22588373353E+02  0.68124249115E+02  0.00000000000E+00 0. -1.
<scales pt_clust_5="13000.00000" pt_clust_6="13000.00000" pt_clust_7="13000.00000" pt_clust_8="13000.00000" pt_clust_9="64.27039"></scales>
<clustering>
<clus scale="   64.270">  1  9  2 -1</clus>
<clus scale="   94.663">  7  8 -1 -1</clus>
<clus scale="  103.978">  5  6 -1 -1</clus>
<clus scale="  156.027">  2  7  1 -1</clus>
<clus scale="   64.270">  1  5  2 -1</clus>
</clustering>
</event>
<event>
 9    1  0.7586638E-005  0.1874685E+03  0.7546771E-02  0.1193446E+00
          1   -1    0    0  502    0 -0.00000000000E+00  0.00000000000E+00  0.51092689068E+03  0.51092689068E+03  0.00000000000E+00 0. -1.
         21   -1    0    0  501  502  0.00000000000E+00 -0.00000000000E+00 -0.10775240276E+03  0.10775240276E+03  0.00000000000E+00 0.  1.
        -24    2    1    2    0    0  0.16042837169E+02 -0.36602578796E+02  0.13005806629E+03  0.15792314468E+03  0.80171675926E+02 0.  0.
         23    2    1    2    0    0  0.13942833913E+03 -0.61366494284E+02  0.81852193187E+02  0.19551808396E+03  0.91221879252E+02 0.  0.
         11    1    3    3    0    0  0.66754523943E+01  0.19313754364E+02  0.79085181496E+02  0.81682609560E+02  0.00000000000E+00 0. -1.
        -12    1    3    3    0    0  0.93673847748E+01 -0.55916333161E+02  0.50972884792E+02  0.76240535121E+02  0.00000000000E+00 0.  1.
        -11    1    4    4    0    0  0.19640380256E+02 -0.48547130105E+02  0.46321052543E+02  0.69915722743E+02  0.00000000000E+00 0. -1.
         11    1    4    4    0    0  0.11978795887E+03 -0.12819364180E+02  0.35531140644E+02  0.12560236122E+03  0.00000000000E+00 0.  1.
          2    1    1    2  501    0 -0.15547117630E+03  0.97969073081E+02  0.19126422844E+03  0.26523806480E+03  0.00000000000E+00 0. -1.
<scales pt_clust_5="13000.00000" pt_clust_6="13000.00000" pt_clust_7="13000.00000" pt_clust_8="13000.00000" pt_clust_9="163.77735"></scales>
<clustering>
<clus scale="   80.172">  5  6 -1 -1</clus>
<clus scale="   89.580">  1  5  2 -1</clus>
<clus scale="   91.222">  7  8 -1 -1</clus>
<clus scale="  163.777">  2  9  1 -1</clus>
<clus scale="  163.777">  2  5  1 -1</clus>
</clustering>
</event>
<event>
 9    1  0.7586638E-005  0.1210409E+03  0.7546771E-02  0.1243967E+00
          1   -1    0    0  502    0 -0.00000000000E+00  0.00000000000E+00  0.11706903264E+03  0.11706903264E+03  0.00000000000E+00 0. -1.
         21   -1    0    0  501  502  0.00000000000E+00 -0.00000000000E+00 -0.17422701018E+03  0.17422701018E+03  0.00000000000E+00 0.  1.
        -24    2    1    2    0    0  0.16110017190E+01  0.82375374001E+02  0.37043658819E+02  0.12498830149E+03  0.86380236639E+02 0.  0.
         23    2    1    2    0    0 -0.29937697714E+00 -0.61165097549E+02 -0.64117110579E+02  0.12947467361E+03  0.94400362572E+02 0.  0.
         13    1    3    3    0    0 -0.37452009955E+02  0.27933780934E+02  0.34237224036E+02  0.57923541644E+02  0.00000000000E+00 0. -1.
        -14    1    3    3    0    0  0.39063011674E+02  0.54441593067E+02  0.28064347826E+01  0.67064759844E+02  0.00000000000E+00 0.  1.
        -13    1    4    4    0    0 -0.46950058712E+02 -0.23861158993E+02 -0.32585979796E+02  0.61931486344E+02  0.00000000000E+00 0.  1.
         13    1    4    4    0    0  0.46650681735E+02 -0.37303938555E+02 -0.31531130783E+02  0.67543187270E+02  0.00000000000E+00 0. -1.
          2    1    1    2  501    0 -0.13116247418E+01 -0.21210276452E+02 -0.30084525772E+02  0.36833067719E+02  0.00000000000E+00 0. -1.
<scales pt_clust_5="13000.00000" pt_clust_6="13000.00000" pt_clust_7="13000.00000" pt_clust_8="13000.00000" pt_clust_9="21.25079"></scales>
<clustering>
<clus scale="   21.251">  2  9  1 -1</clus>
<clus scale="   86.380">  5  6 -1 -1</clus>
<clus scale="   94.400">  7  8 -1 -1</clus>
<clus scale="  114.896">  1  5  2 -1</clus>
<clus scale="   21.251">  2  5  1 -1</clus>
</clustering>
</event>
<event>
 9    1  0.7586638E-005  0.1535367E+03  0.7546771E-02  0.1198980E+00
         21   -1    0    0  501  502  0.00000000000E+00  0.00000000000E+00  0.71662117036E+02  0.71662117036E+02  0.00000000000E+00 0.  1.
          1   -1    0    0  502    0 -0.00000000000E+00 -0.00000000000E+00 -0.78659452928E+03  0.78659452928E+03  0.00000000000E+00 0. -1.
        -24    2    1    2    0    0 -0.10194749852E+03  0.46215023131E+02 -0.17523086516E+03  0.22102648121E+03  0.74951507465E+02 0.  0.
         23    2    1    2    0    0  0.85697313117E+02 -0.13627630685E+03 -0.15370319648E+03  0.24053150111E+03  0.91189194170E+02 0.  0.
         11    1    3    3    0    0 -0.15179927551E+02 -0.15836450174E+02 -0.60561566866E+02  0.64412162950E+02  0.00000000000E+00 0. -1.
        -12    1    3    3    0    0 -0.86767570968E+02  0.62051473305E+02 -0.11466929830E+03  0.15661431826E+03  0.00000000000E+00 0.  1.
        -11    1    4    4    0    0  0.62478321516E+02 -0.13360532632E+03 -0.90255926634E+02  0.17291632708E+03  0.00000000000E+00 0.  1.
         11    1    4    4    0    0  0.23218991601E+02 -0.26709805369E+01 -0.63447269841E+02  0.67615174024E+02  0.00000000000E+00 0. -1.
          2    1    1    2  501    0  0.16250185402E+02  0.90061283723E+02 -0.38599835060E+03  0.39669866400E+03  0.00000000000E+00 0. -1.
<scales pt_clust_5="13000.00000" pt_clust_6="13000.00000" pt_clust_7="13000.00000" pt_clust_8="13000.00000" pt_clust_9="91.51564"></scales>
<clustering>
<clus scale="   74.952">  5  6 -1 -1</clus>
<clus scale="   91.189">  7  8 -1 -1</clus>
<clus scale="   91.516">  1  9  2 -1</clus>
<clus scale="  144.485">  2  5  1 -1</clus>
<clus scale="   91.516">  1  5  2 -1</clus>
</clustering>
</event>
<event>
 9    1  0.7586638E-005  0.1392743E+03  0.7546771E-02  0.1216733E+00
         21   -1    0    0  501  502  0.00000000000E+00  0.00000000000E+00  0.51690911006E+02  0.51690911006E+02  0.00000000000E+00 0. -1.
          1   -1    0    0  502    0 -0.00000000000E+00 -0.00000000000E+00 -0.94006656941E+03  0.94006656941E+03  0.00000000000E+00 0. -1.
         23    2    1    2    0    0  0.52517650455E+02 -0.74551226535E+02 -0.21142820387E+03  0.24762926671E+03  0.91117393246E+02 0.  0.
        -24    2    1    2    0    0 -0.12458576848E+03  0.60934422352E+02 -0.17645630141E+03  0.23829165379E+03  0.80071645565E+02 0.  0.
         11    1    4    4    0    0 -0.91870453261E+02  0.80064991545E+02 -0.14138729928E+03  0.18665731020E+03  0.00000000000E+00 0. -1.
        -12    1    4    4    0    0 -0.32715315220E+02 -0.19130569193E+02 -0.35069002126E+02  0.51634343587E+02  0.00000000000E+00 0.  1.
        -13    1    3    3    0    0  0.74027829390E+02 -0.61197801681E+02 -0.12542558707E+03  0.15797742987E+03  0.00000000000E+00 0.  1.
         13    1    3    3    0    0 -0.21510178936E+02 -0.13353424854E+02 -0.86002616796E+02  0.89651836841E+02  0.00000000000E+00 0. -1.
          2    1    1    2  501    0  0.72068118026E+02  0.13616804183E+02 -0.50049115313E+03  0.50583655992E+03  0.00000000000E+00 0. -1.
<scales pt_clust_5="13000.00000" pt_clust_6="13000.00000" pt_clust_7="13000.00000" pt_clust_8="13000.00000" pt_clust_9="73.34328"></scales>
<clustering>
<clus scale="   73.343">  1  9  2 -1</clus>
<clus scale="   80.072">  5  6 -1 -1</clus>
<clus scale="   91.117">  7  8 -1 -1</clus>
<clus scale="  132.312">  1  5  2 -1</clus>
<clus scale="   73.343">  1  5  2 -1</clus>
</clustering>
</event>
<event>
 9    1  0.7586638E-005  0.1566068E+03  0.7546771E-02  0.1193960E+00
         21   -1    0    0  501  502  0.00000000000E+00  0.00000000000E+00  0.17351308450E+03  0.17351308450E+03  0.00000000000E+00 0. -1.
          1   -1    0    0  502    0 -0.00000000000E+00 -0.00000000000E+00 -0.35049718829E+03  0.35049718829E+03  0.00000000000E+00 0. -1.
         23    2    1    2    0    0  0.46356109388E+02 -0.13050225496E+03 -0.95712241342E+02  0.19131223826E+03  0.90883507514E+02 0.  0.
        -24    2    1    2    0    0 -0.72840311390E+02  0.78002266403E+02  0.82861828149E+02  0.15834915974E+03  0.82573054312E+02 0.  0.
         11    1    4    4    0    0 -0.69185352010E+02  0.22120635641E+02  0.70030338806E+02  0.10089689692E+03  0.00000000000E+00 0. -1.
        -12    1    4    4    0    0 -0.36549593803E+01  0.55881630763E+02  0.12831489343E+02  0.57452262823E+02  0.00000000000E+00 0.  1.
        -13    1    3    3    0    0  0.59708360532E+02 -0.72000993255E+02 -0.21682476462E+02  0.96017504303E+02  0.00000000000E+00 0. -1.
         13    1    3    3    0    0 -0.13352251144E+02 -0.58501261708E+02 -0.74029764880E+02  0.95294733958E+02  0.00000000000E+00 0.  1.
          2    1    1    2  501    0  0.26484202002E+02  0.52499988560E+02 -0.16413369060E+03  0.17434887480E+03  0.00000000000E+00 0. -1.
<scales pt_clust_5="13000.00000" pt_clust_6="13000.00000" pt_clust_7="13000.00000" pt_clust_8="13000.00000" pt_clust_9="58.80192"></scales>
<clustering>
<clus scale="   58.802">  1  9  2 -1</clus>
<clus scale="   82.573">  5  6 -1 -1</clus>
<clus scale="   90.884">  7  8 -1 -1</clus>
<clus scale="  151.935">  1  5  2 -1</clus>
<clus scale="   58.802">  1  5  2 -1</clus>
</clustering>
</event>
<event>
 9    1  0.7586638E-005  0.1064579E+03  0.7546771E-02  0.1267832E+00
          3   -1    0    0  502    0 -0.00000000000E+00  0.00000000000E+00  0.46761723278E+03  0.46761723278E+03  0.00000000000E+00 0. -1.
         21   -1    0    0  501  502  0.00000000000E+00 -0.00000000000E+00 -0.48064223374E+02  0.48064223374E+02  0.00000000000E+00 0.  1.
         23    2    1    2    0    0  0.53738803658E+02 -0.36777703340E+02  0.28914512995E+03  0.30996622594E+03  0.90739718810E+02 0.  0.
        -24    2    1    2    0    0 -0.41068233136E+02 -0.17770363019E+02  0.93537470012E+02  0.13866702372E+03  0.92070079816E+02 0.  0.
         11    1    4    4    0    0 -0.26351768422E+02 -0.28357043149E+02  0.10847603069E+03  0.11517632929E+03  0.00000000000E+00 0. -1.
        -12    1    4    4    0    0 -0.14716464714E+02  0.10586680130E+02 -0.14938560676E+02  0.23490694433E+02  0.00000000000E+00 0.  1.
        -13    1    3    3    0    0  0.68847343825E+02 -0.17463001670E+02  0.26903425485E+03  0.27825230181E+03  0.00000000000E+00 0.  1.
         13    1    3    3    0    0 -0.15108540167E+02 -0.19314701670E+02  0.20110875095E+02  0.31713924129E+02  0.00000000000E+00 0. -1.
          4    1    1    2  501    0 -0.12670570523E+02  0.54548066359E+02  0.36870409449E+02  0.67048206492E+02  0.00000000000E+00 0. -1.
<scales pt_clust_5="13000.00000" pt_clust_6="13000.00000" pt_clust_7="13000.00000" pt_clust_8="13000.00000" pt_clust_9="56.00031"></scales>
<clustering>
<clus scale="   56.000">  2  9  1 -1</clus>
<clus scale="   90.740">  7  8 -1 -1</clus>
<clus scale="   92.070">  5  6 -1 -1</clus>
<clus scale="  105.309">  1  7  2 -1</clus>
<clus scale="   56.000">  2  5  1 -1</clus>
</clustering>
</event>
<event>
 9    1  0.7586638E-005  0.9736159E+02  0.7546771E-02  0.1297107E+00
         -4   -1    0    0    0  501 -0.00000000000E+00  0.00000000000E+00  0.77175167429E+02  0.77175167429E+02  0.00000000000E+00 0.  1.
         21   -1    0    0  501  502  0.00000000000E+00 -0.00000000000E+00 -0.19759562649E+03  0.19759562649E+03  0.00000000000E+00 0.  1.
        -24    2    1    2    0    0  0.40124490718E+02 -0.29839210529E+02 -0.18918528636E+02  0.91127174603E+02  0.73796327720E+02 0.  0.
         23    2    1    2    0    0  0.71558847867E+01 -0.51041359608E+01 -0.70631450417E+02  0.11723987012E+03  0.93161829446E+02 0.  0.
         13    1    3    3    0    0  0.21441785760E+02  0.28580219726E+01 -0.41797739219E+02  0.47063462155E+02  0.00000000000E+00 0. -1.
        -14    1    3    3    0    0  0.18682704958E+02 -0.32697232502E+02  0.22879210583E+02  0.44063712448E+02  0.00000000000E+00 0.  1.
        -11    1    4    4    0    0  0.41230769835E+02 -0.11222966846E+02 -0.70711468980E+02  0.82619871770E+02  0.00000000000E+00 0.  1.
         11    1    4    4    0    0 -0.34074885049E+02  0.61188308850E+01  0.80018562983E-01  0.34619998345E+02  0.00000000000E+00 0. -1.
         -3    1    1    2    0  502 -0.47280375505E+02  0.34943346490E+02 -0.30870480006E+02  0.66403749198E+02  0.00000000000E+00 0.  1.
<scales pt_clust_5="13000.00000" pt_clust_6="13000.00000" pt_clust_7="13000.00000" pt_clust_8="13000.00000" pt_clust_9="58.79176"></scales>
<clustering>
<clus scale="   58.792">  2  9  1 -1</clus>
<clus scale="   73.796">  5  6 -1 -1</clus>
<clus scale="   79.032">  1  5  2 -1</clus>
<clus scale="   93.162">  7  8 -1 -1</clus>
<clus scale="   58.792">  2  5  1 -1</clus>
</clustering>
</event>
<event>
 9    1  0.7586638E-005  0.9522153E+02  0.7546771E-02  0.1297354E+00
         21   -1    0    0  501  502  0.00000000000E+00  0.00000000000E+00  0.17337741660E+03  0.17337741660E+03  0.00000000000E+00 0.  1.
         -4   -1    0    0    0  501 -0.00000000000E+00 -0.00000000000E+00 -0.16746139501E+03  0.16746139501E+03  0.00000000000E+00 0.  1.
        -24    2    1    2    0    0  0.22075341602E+02  0.14126318100E+02 -0.11361201846E+03  0.14125107569E+03  0.79732691394E+02 0.  0.
         23    2    1    2    0    0 -0.10542656821E+02 -0.34162177885E+02  0.23626598184E+02  0.10093924355E+03  0.91390988268E+02 0.  0.
         13    1    3    3    0    0  0.90571251442E+01  0.42430999030E+02 -0.32048818571E+02  0.53940225865E+02  0.00000000000E+00 0. -1.
        -14    1    3    3    0    0  0.13018216458E+02 -0.28304680929E+02 -0.81563199884E+02  0.87310849828E+02  0.00000000000E+00 0.  1.
        -13    1    4    4    0    0 -0.25822435999E+02 -0.61368991873E+02  0.20034036607E+02  0.69529231171E+02  0.00000000000E+00 0.  1.
         13    1    4    4    0    0  0.15279779178E+02  0.27206813988E+02  0.35925615768E+01  0.31410012381E+02  0.00000000000E+00 0. -1.
         -3    1    1    2    0  502 -0.11532684781E+02  0.20035859785E+02  0.95901441854E+02  0.98648492362E+02  0.00000000000E+00 0.  1.
<scales pt_clust_5="13000.00000" pt_clust_6="13000.00000" pt_clust_7="13000.00000" pt_clust_8="13000.00000" pt_clust_9="23.11793"></scales>
<clustering>
<clus scale="   23.118">  1  9  2 -1</clus>
<clus scale="   79.733">  5  6 -1 -1</clus>
<clus scale="   84.096">  2  5  1 -1</clus>
<clus scale="   91.391">  7  8 -1 -1</clus>
<clus scale="   23.118">  1  5  2 -1</clus>
</clustering>
</event>
<event>
 9    1  0.7586638E-005  0.1543471E+03  0.7546771E-02  0.1220816E+00
         21   -1    0    0  501  502  0.00000000000E+00  0.00000000000E+00  0.89453031638E+02  0.89453031638E+02  0.00000000000E+00 0.  1.
          1   -1    0    0  502    0 -0.00000000000E+00 -0.00000000000E+00 -0.43001205921E+03  0.43001205921E+03  0.00000000000E+00 0. -1.
         23    2    1    2    0    0  0.11489533937E+02 -0.11504113468E+02 -0.12121555148E+03  0.15050382875E+03  0.87714528616E+02 0.  0.
        -24    2    1    2    0    0 -0.49352577146E+02 -0.12431795636E+03 -0.83555782754E+02  0.17320748217E+03  0.71614467135E+02 0.  0.
         13    1    4    4    0    0  0.11408540431E+02 -0.62027450161E+02 -0.47778018664E+02  0.79122047722E+02  0.00000000000E+00 0. -1.
        -14    1    4    4    0    0 -0.60761117577E+02 -0.62290506203E+02 -0.35777764090E+02  0.94085434450E+02  0.00000000000E+00 0.  1.
        -11    1    3    3    0    0 -0.13653280203E+02 -0.42382727241E+02 -0.88098785360E+02  0.98712226247E+02  0.00000000000E+00 0. -1.
         11    1    3    3    0    0  0.25142814140E+02  0.30878613773E+02 -0.33116766122E+02  0.51791602502E+02  0.00000000000E+00 0.  1.
          2    1    1    2  501    0  0.37863043209E+02  0.13582206983E+03 -0.13578769334E+03  0.19575377993E+03  0.00000000000E+00 0. -1.
<scales pt_clust_5="13000.00000" pt_clust_6="13000.00000" pt_clust_7="13000.00000" pt_clust_8="13000.00000" pt_clust_9="136.72756"></scales>
<clustering>
<clus scale="   71.614">  5  6 -1 -1</clus>
<clus scale="   87.715">  7  8 -1 -1</clus>
<clus scale="   89.209">  2  7  1 -1</clus>
<clus scale="  136.728">  1  9  2 -1</clus>
<clus scale="  136.728">  1  5  2 -1</clus>
</clustering>
</event>
<event>
 9    1  0.7586638E-005  0.1259888E+03  0.7546771E-02  0.1234079E+00
         21   -1    0    0  501  502  0.00000000000E+00  0.00000000000E+00  0.78305298053E+02  0.78305298053E+02  0.00000000000E+00 0. -1.
          3   -1    0    0  502    0 -0.00000000000E+00 -0.00000000000E+00 -0.45121944463E+03  0.45121944463E+03  0.00000000000E+00 0. -1.
         23    2    1    2    0    0 -0.81416114379E+02  0.92997181822E+02 -0.30896113058E+03  0.34192685583E+03  0.78612562731E+02 0.  0.
        -24    2    1    2    0    0  0.14440273417E+02 -0.47593512823E+02 -0.41862048572E+02  0.10372138673E+03  0.80820981163E+02 0.  0.
         13    1    4    4    0    0 -0.40965171138E+01 -0.28562654080E+02 -0.63311281523E+02  0.69576756382E+02  0.00000000000E+00 0. -1.
        -14    1    4    4    0    0  0.18536790531E+02 -0.19030858744E+02  0.21449232951E+02  0.34144630352E+02  0.00000000000E+00 0.  1.
        -13    1    3    3    0    0 -0.92421271884E+02  0.58639349113E+02 -0.21453478063E+03  0.24084317898E+03  0.00000000000E+00 0. -1.
         13    1    3    3    0    0  0.11005157505E+02  0.34357832710E+02 -0.94426349948E+02  0.10108367685E+03  0.00000000000E+00 0.  1.
          4    1    1    2  501    0  0.66975840962E+02 -0.45403668999E+02 -0.22090967427E+02  0.83876500123E+02  0.00000000000E+00 0. -1.
<scales pt_clust_5="13000.00000" pt_clust_6="13000.00000" pt_clust_7="13000.00000" pt_clust_8="13000.00000" pt_clust_9="80.91512"></scales>
<clustering>
<clus scale="   78.613">  7  8 -1 -1</clus>
<clus scale="   80.821">  5  6 -1 -1</clus>
<clus scale="   80.915">  1  9  2 -1</clus>
<clus scale="  124.584">  2  7  1 -1</clus>
<clus scale="   80.915">  1  5  2 -1</clus>
</clustering>
</event>
<event>
 9    1  0.7586638E-005  0.1000571E+03  0.7546771E-02  0.1282463E+00
          1   -1    0    0  502    0 -0.00000000000E+00  0.00000000000E+00  0.25341788823E+03  0.25341788823E+03  0.00000000000E+00 0. -1.
         21   -1    0    0  501  502  0.00000000000E+00 -0.00000000000E+00 -0.87921653099E+02  0.87921653099E+02  0.00000000000E+00 0. -1.
        -24    2    1    2    0    0  0.36770213115E+01 -0.44058005071E+02  0.11373574297E+03  0.14707458405E+03  0.82100461309E+02 0.  0.
         23    2    1    2    0    0 -0.43464211150E+02  0.62895358143E+02 -0.12351217266E+02  0.11649492686E+03  0.87026155203E+02 0.  0.
         11    1    3    3    0    0 -0.15849108616E+02 -0.35608557517E+02  0.87392779128E+01  0.39944193455E+02  0.00000000000E+00 0. -1.
        -12    1    3    3    0    0  0.19526129928E+02 -0.84494475545E+01  0.10499646506E+03  0.10713039059E+03  0.00000000000E+00 0.  1.
        -11    1    4    4    0    0 -0.46304915196E+01  0.47202757710E+02 -0.43453492891E+02  0.64325328072E+02  0.00000000000E+00 0. -1.
         11    1    4    4    0    0 -0.38833719630E+02  0.15692600434E+02  0.31102275625E+02  0.52169598788E+02  0.00000000000E+00 0.  1.
          2    1    1    2  501    0  0.39787189838E+02 -0.18837353072E+02  0.64111709422E+02  0.77770030417E+02  0.00000000000E+00 0. -1.
<scales pt_clust_5="13000.00000" pt_clust_6="13000.00000" pt_clust_7="13000.00000" pt_clust_8="13000.00000" pt_clust_9="44.02123"></scales>
<clustering>
<clus scale="   44.021">  2  9  1 -1</clus>
<clus scale="   82.100">  5  6 -1 -1</clus>
<clus scale="   87.026">  7  8 -1 -1</clus>
<clus scale="   95.804">  1  5  2 -1</clus>
<clus scale="   44.021">  2  5  1 -1</clus>
</clustering>
</event>
<event>
 9    1  0.7586638E-005  0.1953107E+03  0.7546771E-02  0.1154492E+00
         21   -1    0    0  501  502  0.00000000000E+00  0.00000000000E+00  0.57161316980E+03  0.57161316980E+03  0.00000000000E+00 0. -1.
          1   -1    0    0  502    0 -0.00000000000E+00 -0.00000000000E+00 -0.38099319655E+03  0.38099319655E+03  0.00000000000E+00 0. -1.
         23    2    1    2    0    0  0.12996408597E+03  0.15088790607E+03 -0.30004500446E+03  0.37072982741E+03  0.88066885913E+02 0.  0.
        -24    2    1    2    0    0 -0.37205072727E+02 -0.95548777532E+02  0.70661707968E+02  0.14820684865E+03  0.80364212737E+02 0.  0.
         11    1    4    4    0    0 -0.31312250262E+00 -0.90738911317E+02  0.36859431526E+02  0.97940113156E+02  0.00000000000E+00 0. -1.
        -12    1    4    4    0    0 -0.36891950224E+02 -0.48098662152E+01  0.33802276442E+02  0.50266735492E+02  0.00000000000E+00 0.  1.
        -13    1    3    3    0    0  0.23109697103E+02 -0.94223190218E+01 -0.30439819460E+02  0.39362682895E+02  0.00000000000E+00 0.  1.
         13    1    3    3    0    0  0.10685438886E+03  0.16031022509E+03 -0.26960518500E+03  0.33136714452E+03  0.00000000000E+00 0. -1.
          2    1    1    2  501    0 -0.92759013241E+02 -0.55339128540E+02  0.42000326973E+03  0.43366969029E+03  0.00000000000E+00 0. -1.
<scales pt_clust_5="13000.00000" pt_clust_6="13000.00000" pt_clust_7="13000.00000" pt_clust_8="13000.00000" pt_clust_9="108.01228"></scales>
<clustering>
<clus scale="   80.364">  5  6 -1 -1</clus>
<clus scale="   88.067">  7  8 -1 -1</clus>
<clus scale="  108.012">  1  9  2 -1</clus>
<clus scale="  191.961">  1  5  2 -1</clus>
<clus scale="  108.012">  1  5  2 -1</clus>
</clustering>
</event>
<event>
 9    1  0.7586638E-005  0.9682168E+02  0.7546771E-02  0.1293176E+00
          1   -1    0    0  502    0 -0.00000000000E+00  0.00000000000E+00  0.16560067675E+03  0.16560067675E+03  0.00000000000E+00 0. -1.
         21   -1    0    0  501  502  0.00000000000E+00 -0.00000000000E+00 -0.21127406238E+03  0.21127406238E+03  0.00000000000E+00 0. -1.
         23    2    1    2    0    0  0.13025770612E+02  0.39010527718E+02  0.92183610743E+02  0.13663789312E+03  0.92090193696E+02 0.  0.
        -24    2    1    2    0    0 -0.48626205109E+02  0.39067409551E+02 -0.39441481901E+02  0.10966438063E+03  0.81116432192E+02 0.  0.
         13    1    4    4    0    0 -0.70187587183E+02  0.18661687827E+02 -0.27184847945E+02  0.77547223967E+02  0.00000000000E+00 0. -1.
        -14    1    4    4    0    0  0.21561382074E+02  0.20405721724E+02 -0.12256633956E+02  0.32117156661E+02  0.00000000000E+00 0.  1.
        -13    1    3    3    0    0 -0.23518743419E+02 -0.15428725584E+02  0.53673908201E+02  0.60597568324E+02  0.00000000000E+00 0.  1.
         13    1    3    3    0    0  0.36544514031E+02  0.54439253302E+02  0.38509702541E+02  0.76040324800E+02  0.00000000000E+00 0. -1.
          2    1    1    2  501    0  0.35600434496E+02 -0.78077937270E+02 -0.98415514475E+02  0.13057246537E+03  0.00000000000E+00 0. -1.
<scales pt_clust_5="13000.00000" pt_clust_6="13000.00000" pt_clust_7="13000.00000" pt_clust_8="13000.00000" pt_clust_9="85.81116"></scales>
<clustering>
<clus scale="   81.116">  5  6 -1 -1</clus>
<clus scale="   85.811">  2  9  1 -1</clus>
<clus scale="   86.451">  2  5  1 -1</clus>
<clus scale="   92.090">  7  8 -1 -1</clus>
<clus scale="   85.811">  2  5  1 -1</clus>
</clustering>
</event>
<event>
 9    1  0.7586638E-005  0.1068936E+03  0.7546771E-02  0.1271919E+00
         21   -1    0    0  501  502  0.00000000000E+00  0.00000000000E+00  0.28285377007E+03  0.28285377007E+03  0.00000000000E+00 0. -1.
          1   -1    0    0  502    0 -0.00000000000E+00 -0.00000000000E+00 -0.16390792990E+03  0.16390792990E+03  0.00000000000E+00 0. -1.
        -24    2    1    2    0    0 -0.49808922936E+02 -0.27127777415E+02 -0.11869502260E+03  0.15389740417E+03  0.79869002179E+02 0.  0.
         23    2    1    2    0    0  0.17213798060E+02  0.39330152535E+02  0.75224610400E+02  0.12676077641E+03  0.92554722651E+02 0.  0.
         11    1    3    3    0    0 -0.19630791487E+02  0.16649540330E+02 -0.89729240490E+02  0.93348335639E+02  0.00000000000E+00 0. -1.
        -12    1    3    3    0    0 -0.30178131450E+02 -0.43777317745E+02 -0.28965782105E+02  0.60549068529E+02  0.00000000000E+00 0.  1.
        -13    1    4    4    0    0 -0.19568737264E+02  0.49760167771E+02  0.70132320336E+02  0.88190431059E+02  0.00000000000E+00 0. -1.
         13    1    4    4    0    0  0.36782535324E+02 -0.10430015235E+02  0.50922900646E+01  0.38570345355E+02  0.00000000000E+00 0.  1.
          2    1    1    2  501    0  0.32595124876E+02 -0.12202375121E+02  0.16241625236E+03  0.16610351939E+03  0.00000000000E+00 0. -1.
<scales pt_clust_5="13000.00000" pt_clust_6="13000.00000" pt_clust_7="13000.00000" pt_clust_8="13000.00000" pt_clust_9="34.80431"></scales>
<clustering>
<clus scale="   34.804">  1  9  2 -1</clus>
<clus scale="   79.869">  5  6 -1 -1</clus>
<clus scale="   92.555">  7  8 -1 -1</clus>
<clus scale="   96.119">  2  5  1 -1</clus>
<clus scale="   34.804">  1  5  2 -1</clus>
</clustering>
</event>
<event>
 9    1  0.7586638E-005  0.1390943E+03  0.7546771E-02  0.1235815E+00
         -2   -1    0    0    0  501 -0.00000000000E+00  0.00000000000E+00  0.36836953520E+03  0.36836953520E+03  0.00000000000E+00 0.  1.
         21   -1    0    0  501  502  0.00000000000E+00 -0.00000000000E+00 -0.19643563200E+03  0.19643563200E+03  0.00000000000E+00 0.  1.
         23    2    1    2    0    0  0.45484204297E+01  0.20161930403E+02 -0.12390783413E+03  0.15276208276E+03  0.86924743341E+02 0.  0.
        -24    2    1    2    0    0  0.40419348151E+02 -0.11130598830E+03  0.60406696105E+02  0.15560791108E+03  0.80883288256E+02 0.  0.
         11    1    4    4    0    0 -0.15043926103E+02 -0.13680563684E+02  0.35016669916E+02  0.40492526561E+02  0.00000000000E+00 0. -1.
        -12    1    4    4    0    0  0.55463274254E+02 -0.97625424616E+02  0.25390026189E+02  0.11511538452E+03  0.00000000000E+00 0.  1.
        -11    1    3    3    0    0 -0.22090144192E+02 -0.27169246149E+02 -0.50128489922E+02  0.61147427653E+02  0.00000000000E+00 0.  1.
         11    1    3    3    0    0  0.26638564622E+02  0.47331176552E+02 -0.73779344207E+02  0.91614655108E+02  0.00000000000E+00 0. -1.
         -1    1    1    2    0  502 -0.44967768581E+02  0.91144057897E+02  0.23543504122E+03  0.25643517336E+03  0.00000000000E+00 0.  1.
<scales pt_clust_5="13000.00000" pt_clust_6="13000.00000" pt_clust_7="13000.00000" pt_clust_8="13000.00000" pt_clust_9="113.15970"></scales>
<clustering>
<clus scale="   80.883">  5  6 -1 -1</clus>
<clus scale="   86.925">  7  8 -1 -1</clus>
<clus scale="   89.348">  1  7  2 -1</clus>
<clus scale="  113.160">  2  9  1 -1</clus>
<clus scale="  113.160">  2  5  1 -1</clus>
</clustering>
</event>
<event>
 9    1  0.7586638E-005  0.9680302E+02  0.7546771E-02  0.1295112E+00
          3   -1    0    0  502    0 -0.00000000000E+00  0.00000000000E+00  0.58408462760E+03  0.58408462760E+03  0.00000000000E+00 0. -1.
         21   -1    0    0  501  502  0.00000000000E+00 -0.00000000000E+00 -0.24305449650E+02  0.24305449650E+02  0.00000000000E+00 0.  1.
         23    2    1    2    0    0 -0.12274749660E+02  0.35580025673E+01  0.35595232710E+03  0.36835476500E+03  0.93914029147E+02 0.  0.
        -24    2    1    2    0    0  0.41423670845E+02 -0.21322159666E+02  0.14906901898E+03  0.17550899951E+03  0.80070478282E+02 0.  0.
         13    1    4    4    0    0 -0.85119433154E+01 -0.20605209833E+02  0.10962809760E+03  0.11187201453E+03  0.00000000000E+00 0. -1.
        -14    1    4    4    0    0  0.49935614161E+02 -0.71694983254E+00  0.39440921372E+02  0.63636984980E+02  0.00000000000E+00 0.  1.
        -13    1    3    3    0    0 -0.48911086223E+02 -0.53731615667E+01  0.27068819101E+03  0.27512408468E+03  0.00000000000E+00 0. -1.
         13    1    3    3    0    0  0.36636336563E+02  0.89311641340E+01  0.85264136090E+02  0.93230680319E+02  0.00000000000E+00 0.  1.
          4    1    1    2  501    0 -0.29148921186E+02  0.17764157099E+02  0.54757831876E+02  0.64526312737E+02  0.00000000000E+00 0. -1.
<scales pt_clust_5="13000.00000" pt_clust_6="13000.00000" pt_clust_7="13000.00000" pt_clust_8="13000.00000" pt_clust_9="34.13539"></scales>
<clustering>
<clus scale="   34.135">  2  9  1 -1</clus>
<clus scale="   80.070">  5  6 -1 -1</clus>
<clus scale="   83.440">  2  5  1 -1</clus>
<clus scale="   93.914">  7  8 -1 -1</clus>
<clus scale="   34.135">  2  5  1 -1</clus>
</clustering>
</event>
<event>
 9    1  0.7586638E-005  0.9665802E+02  0.7546771E-02  0.1292651E+00
         21   -1    0    0  501  502  0.00000000000E+00  0.00000000000E+00  0.79857832995E+02  0.79857832995E+02  0.00000000000E+00 0. -1.
          3   -1    0    0  502    0 -0.00000000000E+00 -0.00000000000E+00 -0.17106570832E+03  0.17106570832E+03  0.00000000000E+00 0. -1.
         23    2    1    2    0    0  0.26077526677E+02  0.12727553907E+01 -0.43629679603E+02  0.10551143616E+03  0.92452457590E+02 0.  0.
        -24    2    1    2    0    0 -0.15251530067E+02  0.40904098245E+02 -0.31963140993E+02  0.99152845330E+02  0.83089649971E+02 0.  0.
         13    1    4    4    0    0 -0.67057480794E+00  0.56864847873E+02 -0.46198053185E+02  0.73268824968E+02  0.00000000000E+00 0. -1.
        -14    1    4    4    0    0 -0.14580955260E+02 -0.15960749629E+02  0.14234912192E+02  0.25884020362E+02  0.00000000000E+00 0.  1.
        -13    1    3    3    0    0  0.57240322755E+02 -0.12999179181E+02 -0.40028580530E+02  0.71047311474E+02  0.00000000000E+00 0.  1.
         13    1    3    3    0    0 -0.31162796078E+02  0.14271934571E+02 -0.36010990734E+01  0.34464124686E+02  0.00000000000E+00 0. -1.
          4    1    1    2  501    0 -0.10825996609E+02 -0.42176853635E+02 -0.15615054726E+02  0.46259259822E+02  0.00000000000E+00 0. -1.
<scales pt_clust_5="13000.00000" pt_clust_6="13000.00000" pt_clust_7="13000.00000" pt_clust_8="13000.00000" pt_clust_9="43.54411"></scales>
<clustering>
<clus scale="   43.544">  1  9  2 -1</clus>
<clus scale="   83.090">  5  6 -1 -1</clus>
<clus scale="   87.745">  1  5  2 -1</clus>
<clus scale="   92.452">  7  8 -1 -1</clus>
<clus scale="   43.544">  1  5  2 -1</clus>
</clustering>
</event>
<event>
 9    1  0.7586638E-005  0.1450168E+03  0.7546771E-02  0.1208915E+00
         -4   -1    0    0    0  501 -0.00000000000E+00  0.00000000000E+00  0.33018530577E+03  0.33018530577E+03  0.00000000000E+00 0.  1.
         21   -1    0    0  501  502  0.00000000000E+00 -0.00000000000E+00 -0.98883019278E+02  0.98883019278E+02  0.00000000000E+00 0.  1.
        -24    2    1    2    0    0 -0.12354670010E+03 -0.27180939168E+02  0.18922231597E+03  0.24141675842E+03  0.80463506182E+02 0.  0.
         23    2    1    2    0    0  0.74629479036E+02  0.50899631450E+02  0.30465825481E+02  0.13206056694E+03  0.91386515395E+02 0.  0.
         11    1    3    3    0    0 -0.36025490041E+02 -0.20090076626E+01  0.12467904146E+03  0.12979497457E+03  0.00000000000E+00 0. -1.
        -12    1    3    3    0    0 -0.87521210061E+02 -0.25171931505E+02  0.64543274509E+02  0.11162178385E+03  0.00000000000E+00 0.  1.
        -11    1    4    4    0    0  0.44611311712E+02  0.54352265116E+02  0.58023571843E+02  0.91165085122E+02  0.00000000000E+00 0.  1.
         11    1    4    4    0    0  0.30018167324E+02 -0.34526336664E+01 -0.27557746362E+02  0.40895481820E+02  0.00000000000E+00 0. -1.
         -3    1    1    2    0  502  0.48917221066E+02 -0.23718692282E+02  0.11614145042E+02  0.55590999680E+02  0.00000000000E+00 0.  1.
<scales pt_clust_5="13000.00000" pt_clust_6="13000.00000" pt_clust_7="13000.00000" pt_clust_8="13000.00000" pt_clust_9="54.36424"></scales>
<clustering>
<clus scale="   54.364">  2  9  1 -1</clus>
<clus scale="   80.464">  5  6 -1 -1</clus>
<clus scale="   91.387">  7  8 -1 -1</clus>
<clus scale="  138.393">  1  5  2 -1</clus>
<clus scale="   54.364">  2  5  1 -1</clus>
</clustering>
</event>
<event>
 9    1  0.7586638E-005  0.1080202E+03  0.7546771E-02  0.1264619E+00
         21   -1    0    0  501  502  0.00000000000E+00  0.00000000000E+00  0.14044648806E+03  0.14044648806E+03  0.00000000000E+00 0. -1.
          3   -1    0    0  502    0 -0.00000000000E+00 -0.00000000000E+00 -0.20174993932E+03  0.20174993932E+03  0.00000000000E+00 0. -1.
        -24    2    1    2    0    0  0.58275080377E+02 -0.55750301803E+02 -0.13529406283E+03  0.17669546858E+03  0.80079485740E+02 0.  0.
         23    2    1    2    0    0 -0.73955021500E+01  0.53991995715E+02  0.38787418079E+02  0.10360517580E+03  0.79118516157E+02 0.  0.
         11    1    3    3    0    0  0.55160947208E+01 -0.52149421578E+02 -0.10060333546E+03  0.11345052039E+03  0.00000000000E+00 0. -1.
        -12    1    3    3    0    0  0.52758985656E+02 -0.36008802251E+01 -0.34690727367E+02  0.63244948187E+02  0.00000000000E+00 0.  1.
        -11    1    4    4    0    0  0.31219834378E+01 -0.20401563843E+02  0.50680946551E+01  0.21252203915E+02  0.00000000000E+00 0.  1.
         11    1    4    4    0    0 -0.10517485588E+02  0.74393559558E+02  0.33719323424E+02  0.82352971890E+02  0.00000000000E+00 0. -1.
          4    1    1    2  501    0 -0.50879578227E+02  0.17583060876E+01  0.35203193485E+02  0.61895782993E+02  0.00000000000E+00 0. -1.
<scales pt_clust_5="13000.00000" pt_clust_6="13000.00000" pt_clust_7="13000.00000" pt_clust_8="13000.00000" pt_clust_9="50.90995"></scales>
<clustering>
<clus scale="   50.910">  1  9  2 -1</clus>
<clus scale="   79.119">  7  8 -1 -1</clus>
<clus scale="   80.079">  5  6 -1 -1</clus>
<clus scale="  107.310">  1  7  2 -1</clus>
<clus scale="   50.910">  1  5  2 -1</clus>
</clustering>
</event>
<event>
 9    1  0.7586638E-005  0.9277073E+02  0.7546771E-02  0.1302393E+00
         21   -1    0    0  501  502  0.00000000000E+00  0.00000000000E+00  0.26487317168E+02  0.26487317168E+02  0.00000000000E+00 0.  1.
          1   -1    0    0  502    0 -0.00000000000E+00 -0.00000000000E+00 -0.91262202313E+03  0.91262202313E+03  0.00000000000E+00 0. -1.
        -24    2    1    2    0    0 -0.85142937924E+01  0.13638690302E+02 -0.60131164543E+03  0.60681488108E+03  0.79938087908E+02 0.  0.
         23    2    1    2    0    0  0.66615811349E+02 -0.13972051926E+02 -0.18300993717E+03  0.21506899457E+03  0.90161803261E+02 0.  0.
         11    1    3    3    0    0  0.93170550398E+01  0.42873060798E+02 -0.24831085027E+03  0.25215706459E+03  0.00000000000E+00 0. -1.
        -12    1    3    3    0    0 -0.17831348832E+02 -0.29234370496E+02 -0.35300079515E+03  0.35465781649E+03  0.00000000000E+00 0.  1.
        -13    1    4    4    0    0  0.11247721286E+02  0.16952856565E+02  0.10678551754E+01  0.20372797906E+02  0.00000000000E+00 0.  1.
         13    1    4    4    0    0  0.55368090062E+02 -0.30924908491E+02 -0.18407779234E+03  0.19469619666E+03  0.00000000000E+00 0. -1.
          2    1    1    2  501    0 -0.58101517556E+02  0.33336162424E+00 -0.10181312337E+03  0.11722546465E+03  0.00000000000E+00 0. -1.
<scales pt_clust_5="13000.00000" pt_clust_6="13000.00000" pt_clust_7="13000.00000" pt_clust_8="13000.00000" pt_clust_9="58.10247"></scales>
<clustering>
<clus scale="   58.102">  1  9  2 -1</clus>
<clus scale="   79.938">  5  6 -1 -1</clus>
<clus scale="   82.870">  2  5  1 -1</clus>
<clus scale="   90.162">  7  8 -1 -1</clus>
<clus scale="   58.102">  1  5  2 -1</clus>
</clustering>
</event>
<event>
 9    1  0.7586638E-005  0.1756913E+03  0.7546771E-02  0.1197570E+00
          3   -1    0    0  502    0 -0.00000000000E+00  0.00000000000E+00  0.21587576882E+03  0.21587576882E+03  0.00000000000E+00 0. -1.
         21   -1    0    0  501  502  0.00000000000E+00 -0.00000000000E+00 -0.89861271589E+03  0.89861271589E+03  0.00000000000E+00 0. -1.
        -24    2    1    2    0    0  0.40573650369E+02  0.73266712119E+01  0.16652278475E+03  0.19395146958E+03  0.90484437874E+02 0.  0.
         23    2    1    2    0    0  0.99479210476E+02 -0.85155747781E+02 -0.21925702414E+03  0.27047887874E+03  0.89093021691E+02 0.  0.
         11    1    3    3    0    0  0.68969131205E+02  0.34141480185E+01  0.13289747733E+03  0.14976694211E+03  0.00000000000E+00 0. -1.
        -12    1    3    3    0    0 -0.28395480836E+02  0.39125231934E+01  0.33625307413E+02  0.44184527476E+02  0.00000000000E+00 0.  1.
        -11    1    4    4    0    0  0.30143613384E+02 -0.81568570379E+02 -0.14287432089E+03  0.16725770736E+03  0.00000000000E+00 0. -1.
         11    1    4    4    0    0  0.69335597092E+02 -0.35871774018E+01 -0.76382703251E+02  0.10322117138E+03  0.00000000000E+00 0.  1.
          4    1    1    2  501    0 -0.14005286085E+03  0.77829076569E+02 -0.63000270768E+03  0.65005813638E+03  0.00000000000E+00 0. -1.
<scales pt_clust_5="13000.00000" pt_clust_6="13000.00000" pt_clust_7="13000.00000" pt_clust_8="13000.00000" pt_clust_9="151.42614"></scales>
<clustering>
<clus scale="   89.093">  7  8 -1 -1</clus>
<clus scale="   90.484">  5  6 -1 -1</clus>
<clus scale="   99.435">  1  5  2 -1</clus>
<clus scale="  151.426">  2  9  1 -1</clus>
<clus scale="  151.426">  2  5  1 -1</clus>
</clustering>
</event>
<event>
 9    1  0.7586638E-005  0.1970693E+03  0.7546771E-02  0.1152933E+00
         -2   -1    0    0    0  501 -0.00000000000E+00  0.00000000000E+00  0.21767434919E+03  0.21767434919E+03  0.00000000000E+00 0.  1.
         21   -1    0    0  501  502  0.00000000000E+00 -0.00000000000E+00 -0.33232463035E+03  0.33232463035E+03  0.00000000000E+00 0. -1.
         23    2    1    2    0    0  0.16470463489E+03 -0.19267179775E+02  0.13401068203E+02  0.18987149005E+03  0.91502749336E+02 0.  0.
        -24    2    1    2    0    0 -0.18357338180E+03  0.49725205170E+01  0.26461051733E+02  0.20381226635E+03  0.84352475890E+02 0.  0.
         11    1    4    4    0    0 -0.62867894427E+02  0.42144286625E+02  0.68023825099E+01  0.75992009137E+02  0.00000000000E+00 0. -1.
        -12    1    4    4    0    0 -0.12070548737E+03 -0.37171766108E+02  0.19658669223E+02  0.12782025721E+03  0.00000000000E+00 0.  1.
        -13    1    3    3    0    0  0.60830758962E+02 -0.16549163139E+02  0.49200112465E+02  0.79968163059E+02  0.00000000000E+00 0.  1.
         13    1    3    3    0    0  0.10387387592E+03 -0.27180166361E+01 -0.35799044262E+02  0.10990332699E+03  0.00000000000E+00 0. -1.
         -1    1    1    2    0  502  0.18868746915E+02  0.14294659258E+02 -0.15451240110E+03  0.15631522314E+03  0.00000000000E+00 0.  1.
<scales pt_clust_5="13000.00000" pt_clust_6="13000.00000" pt_clust_7="13000.00000" pt_clust_8="13000.00000" pt_clust_9="23.67207"></scales>
<clustering>
<clus scale="   23.672">  2  9  1 -1</clus>
<clus scale="   84.352">  5  6 -1 -1</clus>
<clus scale="   91.503">  7  8 -1 -1</clus>
<clus scale="  193.853">  2  5  1 -1</clus>
<clus scale="   23.672">  2  5  1 -1</clus>
</clustering>
</event>
<event>
 9    1  0.7586638E-005  0.1504155E+03  0.7546771E-02  0.1202605E+00
          1   -1    0    0  502    0 -0.00000000000E+00  0.00000000000E+00  0.26335121769E+02  0.26335121769E+02  0.00000000000E+00 0. -1.
         21   -1    0    0  501  502  0.00000000000E+00 -0.00000000000E+00 -0.10559855533E+04  0.10559855533E+04  0.00000000000E+00 0.  1.
         23    2    1    2    0    0 -0.10911302019E+03 -0.70721933808E+02 -0.36174936243E+03  0.39564988614E+03  0.93642875248E+02 0.  0.
        -24    2    1    2    0    0  0.78977620595E+02  0.61171603381E+02 -0.54745330162E+03  0.56214361997E+03  0.79504103017E+02 0.  0.
         11    1    4    4    0    0  0.68411158948E+02  0.75105788287E+01 -0.23231599421E+03  0.24229572144E+03  0.00000000000E+00 0. -1.
        -12    1    4    4    0    0  0.10566461647E+02  0.53661024552E+02 -0.31513730742E+03  0.31984789853E+03  0.00000000000E+00 0.  1.
        -11    1    3    3    0    0 -0.15130341405E+02 -0.25463034669E+02 -0.14320516697E+02  0.32899400664E+02  0.00000000000E+00 0.  1.
         11    1    3    3    0    0 -0.93982678787E+02 -0.45258899139E+02 -0.34742884574E+03  0.36275048548E+03  0.00000000000E+00 0. -1.
          2    1    1    2  501    0  0.30135399596E+02  0.95503304273E+01 -0.12044776744E+03  0.12452716893E+03  0.00000000000E+00 0. -1.
<scales pt_clust_5="13000.00000" pt_clust_6="13000.00000" pt_clust_7="13000.00000" pt_clust_8="13000.00000" pt_clust_9="31.61252"></scales>
<clustering>
<clus scale="   31.613">  2  9  1 -1</clus>
<clus scale="   79.504">  5  6 -1 -1</clus>
<clus scale="   93.643">  7  8 -1 -1</clus>
<clus scale="  142.045">  2  5  1 -1</clus>
<clus scale="   31.613">  2  5  1 -1</clus>
</clustering>
</event>
<event>
 9    1  0.7586638E-005  0.1056929E+03  0.7546771E-02  0.1272483E+00
         -4   -1    0    0    0  501 -0.00000000000E+00  0.00000000000E+00  0.38490655773E+03  0.38490655773E+03  0.00000000000E+00 0.  1.
         21   -1    0    0  501  502  0.00000000000E+00 -0.00000000000E+00 -0.13705514101E+03  0.13705514101E+03  0.00000000000E+00 0.  1.
         23    2    1    2    0    0 -0.32048645646E+02  0.43678350105E+02  0.24307357876E+03  0.26488989466E+03  0.90260609613E+02 0.  0.
        -24    2    1    2    0    0  0.15233809398E+02 -0.56972312127E+02  0.11034763651E+03  0.14934784894E+03  0.81549161861E+02 0.  0.
         13    1    4    4    0    0  0.35443196483E+02  0.10297595443E+01  0.21938045927E+02  0.41696024280E+02  0.00000000000E+00 0. -1.
        -14    1    4    4    0    0 -0.20209387085E+02 -0.58002071672E+02  0.88409590583E+02  0.10765182466E+03  0.00000000000E+00 0.  1.
        -13    1    3    3    0    0 -0.21635050670E+02 -0.26451111342E+02  0.71568790490E+02  0.79308438901E+02  0.00000000000E+00 0.  1.
         13    1    3    3    0    0 -0.10413594975E+02  0.70129461447E+02  0.17150478827E+03  0.18558145576E+03  0.00000000000E+00 0. -1.
         -3    1    1    2    0  502  0.16814836248E+02  0.13293962023E+02 -0.10556979855E+03  0.10772395514E+03  0.00000000000E+00 0.  1.
<scales pt_clust_5="13000.00000" pt_clust_6="13000.00000" pt_clust_7="13000.00000" pt_clust_8="13000.00000" pt_clust_9="21.43521"></scales>
<clustering>
<clus scale="   21.435">  2  9  1 -1</clus>
<clus scale="   81.549">  5  6 -1 -1</clus>
<clus scale="   90.261">  7  8 -1 -1</clus>
<clus scale="   98.358">  2  5  1 -1</clus>
<clus scale="   21.435">  2  5  1 -1</clus>
</clustering>
</event>
<event>
 9    1  0.7586638E-005  0.1091115E+03  0.7546771E-02  0.1266124E+00
         21   -1    0    0  501  502  0.00000000000E+00  0.00000000000E+00  0.79874077693E+02  0.79874077693E+02  0.00000000000E+00 0.  1.
          1   -1    0    0  502    0 -0.00000000000E+00 -0.00000000000E+00 -0.22747288926E+03  0.22747288926E+03  0.00000000000E+00 0. -1.
        -24    2    1    2    0    0  0.31179843049E+01 -0.49411381732E+02 -0.95716990106E+02  0.13577995556E+03  0.82602951922E+02 0.  0.
         23    2    1    2    0    0  0.24341332590E+02  0.78300038853E+02 -0.34900252541E+02  0.12824331952E+03  0.92222149278E+02 0.  0.
         13    1    3    3    0    0 -0.14373932857E+02  0.14445664652E+02 -0.53516438915E+02  0.57265141292E+02  0.00000000000E+00 0. -1.
        -14    1    3    3    0    0  0.17491917161E+02 -0.63857046384E+02 -0.42200551191E+02  0.78514814269E+02  0.00000000000E+00 0.  1.
        -11    1    4    4    0    0  0.24593709411E+02 -0.10192723015E+02 -0.29277666867E+02  0.39571756623E+02  0.00000000000E+00 0.  1.
         11    1    4    4    0    0 -0.25237682042E+00  0.88492761868E+02 -0.56225856741E+01  0.88671562898E+02  0.00000000000E+00 0. -1.
          2    1    1    2  501    0 -0.27459316895E+02 -0.28888657121E+02 -0.16981568924E+02  0.43323691876E+02  0.00000000000E+00 0. -1.
<scales pt_clust_5="13000.00000" pt_clust_6="13000.00000" pt_clust_7="13000.00000" pt_clust_8="13000.00000" pt_clust_9="39.85685"></scales>
<clustering>
<clus scale="   39.857">  1  9  2 -1</clus>
<clus scale="   82.603">  5  6 -1 -1</clus>
<clus scale="   92.222">  7  8 -1 -1</clus>
<clus scale="  101.112">  2  5  1 -1</clus>
<clus scale="   39.857">  1  5  2 -1</clus>
</clustering>
</event>
<event>
 9    1  0.7586638E-005  0.1118155E+03  0.7546771E-02  0.1265364E+00
         21   -1    0    0  501  502  0.00000000000E+00  0.00000000000E+00  0.36618881105E+03  0.36618881105E+03  0.00000000000E+00 0. -1.
         -2   -1    0    0    0  501 -0.00000000000E+00 -0.00000000000E+00 -0.68070019501E+02  0.68070019501E+02  0.00000000000E+00 0.  1.
         23    2    1    2    0    0  0.39952259494E+02  0.64234400253E+02  0.60962952330E+02  0.13048888736E+03  0.87112725557E+02 0.  0.
        -24    2    1    2    0    0  0.36360822525E+02 -0.76947876339E+02  0.10032986038E+03  0.14658639619E+03  0.64640587687E+02 0.  0.
         13    1    4    4    0    0  0.13297069079E+02 -0.34649380457E+02  0.89946427054E+02  0.97302370742E+02  0.00000000000E+00 0. -1.
        -14    1    4    4    0    0  0.23063753446E+02 -0.42298495882E+02  0.10383433328E+02  0.49284025450E+02  0.00000000000E+00 0.  1.
        -11    1    3    3    0    0  0.44054597772E+02  0.11024331496E+02 -0.49469952192E+01  0.45681683764E+02  0.00000000000E+00 0. -1.
         11    1    3    3    0    0 -0.41023382784E+01  0.53210068757E+02  0.65909947549E+02  0.84807203600E+02  0.00000000000E+00 0.  1.
         -1    1    1    2    0  502 -0.76313082019E+02  0.12713476086E+02  0.13682597883E+03  0.15718354699E+03  0.00000000000E+00 0.  1.
<scales pt_clust_5="13000.00000" pt_clust_6="13000.00000" pt_clust_7="13000.00000" pt_clust_8="13000.00000" pt_clust_9="77.36484"></scales>
<clustering>
<clus scale="   64.641">  5  6 -1 -1</clus>
<clus scale="   77.365">  1  9  2 -1</clus>
<clus scale="   87.113">  7  8 -1 -1</clus>
<clus scale="   95.355">  1  5  2 -1</clus>
<clus scale="   77.365">  1  5  2 -1</clus>
</clustering>
</event>
<event>
 9    1  0.7586638E-005  0.1997279E+03  0.7546771E-02  0.1160783E+00
          1   -1    0    0  502    0 -0.00000000000E+00  0.00000000000E+00  0.28547738234E+03  0.28547738234E+03  0.00000000000E+00 0. -1.
         21   -1    0    0  501  502  0.00000000000E+00 -0.00000000000E+00 -0.46784741975E+03  0.46784741975E+03  0.00000000000E+00 0. -1.
        -24    2    1    2    0    0 -0.13153611582E+03  0.99743796322E+01 -0.88581941457E+02  0.17848837420E+03  0.81302529843E+02 0.  0.
         23    2    1    2    0    0  0.29339086554E+03  0.80029318108E+01  0.99238336358E+02  0.32229069479E+03  0.88773856770E+02 0.  0.
         13    1    3    3    0    0 -0.11993784220E+03 -0.14906912173E+02 -0.49218874433E+02  0.13049827441E+03  0.00000000000E+00 0. -1.
        -14    1    3    3    0    0 -0.11598273617E+02  0.24881291805E+02 -0.39363067023E+02  0.47990099794E+02  0.00000000000E+00 0.  1.
        -13    1    4    4    0    0  0.61589644475E+02 -0.23513434379E+02  0.51207672208E+02  0.83476892586E+02  0.00000000000E+00 0.  1.
         13    1    4    4    0    0  0.23180122106E+03  0.31516366189E+02  0.48030664150E+02  0.23881380220E+03  0.00000000000E+00 0. -1.
          2    1    1    2  501    0 -0.16185474972E+03 -0.17977311443E+02 -0.19302643232E+03  0.25254573310E+03  0.00000000000E+00 0. -1.
<scales pt_clust_5="13000.00000" pt_clust_6="13000.00000" pt_clust_7="13000.00000" pt_clust_8="13000.00000" pt_clust_9="178.91465"></scales>
<clustering>
<clus scale="   81.303">  5  6 -1 -1</clus>
<clus scale="   88.774">  7  8 -1 -1</clus>
<clus scale="  154.956">  1  5  2 -1</clus>
<clus scale="  178.915">  2  9  1 -1</clus>
<clus scale="  178.915">  2  5  1 -1</clus>
</clustering>
</event>
<event>
 9    1  0.7586638E-005  0.9560388E+02  0.7546771E-02  0.1295684E+00
         21   -1    0    0  501  502  0.00000000000E+00  0.00000000000E+00  0.22750417124E+03  0.22750417124E+03  0.00000000000E+00 0. -1.
          1   -1    0    0  502    0 -0.00000000000E+00 -0.00000000000E+00 -0.63907760574E+03  0.63907760574E+03  0.00000000000E+00 0. -1.
        -24    2    1    2    0    0  0.30079329566E+02 -0.10643165505E+01 -0.56823669394E+03  0.57483455978E+03  0.81461229693E+02 0.  0.
         23    2    1    2    0    0  0.84114916421E+01  0.99472143322E+01 -0.32678537370E+02  0.98328590356E+02  0.91820066500E+02 0.  0.
         11    1    3    3    0    0  0.47311344053E+02 -0.24398724930E+02 -0.27049437738E+03  0.27568255159E+03  0.00000000000E+00 0. -1.
        -12    1    3    3    0    0 -0.17232014487E+02  0.23334408380E+02 -0.29774231656E+03  0.29915200820E+03  0.00000000000E+00 0.  1.
        -13    1    4    4    0    0 -0.44349138714E+01  0.49859192245E+02 -0.11522803833E+02  0.51365187828E+02  0.00000000000E+00 0. -1.
         13    1    4    4    0    0  0.12846405513E+02 -0.39911977913E+02 -0.21155733537E+02  0.46963402528E+02  0.00000000000E+00 0.  1.
          2    1    1    2  501    0 -0.38490821209E+02 -0.88828977817E+01  0.18934179681E+03  0.19341862684E+03  0.00000000000E+00 0. -1.
<scales pt_clust_5="13000.00000" pt_clust_6="13000.00000" pt_clust_7="13000.00000" pt_clust_8="13000.00000" pt_clust_9="39.50252"></scales>
<clustering>
<clus scale="   39.503">  1  9  2 -1</clus>
<clus scale="   81.461">  5  6 -1 -1</clus>
<clus scale="   85.704">  2  5  1 -1</clus>
<clus scale="   91.820">  7  8 -1 -1</clus>
<clus scale="   39.503">  1  5  2 -1</clus>
</clustering>
</event>
<event>
 9    1  0.7586638E-005  0.1338540E+03  0.7546771E-02  0.1239837E+00
         21   -1    0    0  501  502  0.00000000000E+00  0.00000000000E+00  0.13251745602E+03  0.13251745602E+03  0.00000000000E+00 0. -1.
          1   -1    0    0  502    0 -0.00000000000E+00 -0.00000000000E+00 -0.58944268017E+03  0.58944268017E+03  0.00000000000E+00 0. -1.
         23    2    1    2    0    0 -0.36482731941E+01  0.95031506483E+01 -0.13672553641E+03  0.16500126785E+03  0.91803738039E+02 0.  0.
        -24    2    1    2    0    0 -0.81333589293E+02 -0.69031500291E+02 -0.40228416196E+03  0.42465844404E+03  0.84390439902E+02 0.  0.
         13    1    4    4    0    0 -0.39814347525E+02 -0.70251062089E+02 -0.34230748863E+03  0.35170273067E+03  0.00000000000E+00 0. -1.
        -14    1    4    4    0    0 -0.41519241767E+02  0.12195617979E+01 -0.59976673333E+02  0.72955713361E+02  0.00000000000E+00 0.  1.
        -11    1    3    3    0    0  0.12181485444E+02 -0.35501116661E+02 -0.92996826081E+02  0.10028523088E+03  0.00000000000E+00 0. -1.
         11    1    3    3    0    0 -0.15829758638E+02  0.45004267309E+02 -0.43728710328E+02  0.64716036974E+02  0.00000000000E+00 0.  1.
          2    1    1    2  501    0  0.84981862487E+02  0.59528349642E+02  0.82084474218E+02  0.13230042430E+03  0.00000000000E+00 0. -1.
<scales pt_clust_5="13000.00000" pt_clust_6="13000.00000" pt_clust_7="13000.00000" pt_clust_8="13000.00000" pt_clust_9="103.89973"></scales>
<clustering>
<clus scale="   84.390">  5  6 -1 -1</clus>
<clus scale="   91.804">  7  8 -1 -1</clus>
<clus scale="   92.366">  2  7  1 -1</clus>
<clus scale="  103.900">  1  9  2 -1</clus>
<clus scale="  103.900">  1  5  2 -1</clus>
</clustering>
</event>
<event>
 9    1  0.7586638E-005  0.9147455E+02  0.7546771E-02  0.1304471E+00
         21   -1    0    0  501  502  0.00000000000E+00  0.00000000000E+00  0.15259821429E+03  0.15259821429E+03  0.00000000000E+00 0.  1.
         -2   -1    0    0    0  501 -0.00000000000E+00 -0.00000000000E+00 -0.12922845317E+03  0.12922845317E+03  0.00000000000E+00 0.  1.
         23    2    1    2    0    0  0.10547686025E+02 -0.88882307365E+01 -0.53847660210E+02  0.10658441357E+03  0.90941807653E+02 0.  0.
        -24    2    1    2    0    0  0.23054562433E+02  0.10447228094E+02 -0.48482561519E+01  0.86549993827E+02  0.82624078935E+02 0.  0.
         11    1    4    4    0    0  0.11450797051E+01  0.24753465553E+02 -0.37350862485E+02  0.44823344284E+02  0.00000000000E+00 0. -1.
        -12    1    4    4    0    0  0.21909482728E+02 -0.14306237459E+02  0.32502606333E+02  0.41726649543E+02  0.00000000000E+00 0.  1.
        -13    1    3    3    0    0 -0.36773801096E+02 -0.16680093969E+01 -0.44601138737E+02  0.57830409640E+02  0.00000000000E+00 0. -1.
         13    1    3    3    0    0  0.47321487121E+02 -0.72202213395E+01 -0.92465214730E+01  0.48754003927E+02  0.00000000000E+00 0.  1.
         -1    1    1    2    0  502 -0.33602248459E+02 -0.15589973579E+01  0.82065677482E+02  0.88692260062E+02  0.00000000000E+00 0.  1.
<scales pt_clust_5="13000.00000" pt_clust_6="13000.00000" pt_clust_7="13000.00000" pt_clust_8="13000.00000" pt_clust_9="33.63839"></scales>
<clustering>
<clus scale="   33.638">  1  9  2 -1</clus>
<clus scale="   82.624">  5  6 -1 -1</clus>
<clus scale="   83.210">  1  5  2 -1</clus>
<clus scale="   90.942">  7  8 -1 -1</clus>
<clus scale="   33.638">  1  5  2 -1</clus>
</clustering>
</event>
<event>
 9    1  0.9504569E-005  0.9165240E+02  0.7546771E-02  0.1299690E+00
          1   -1    0    0  502    0 -0.00000000000E+00  0.00000000000E+00  0.42894772850E+03  0.42894772850E+03  0.00000000000E+00 0. -1.
         21   -1    0    0  501  502  0.00000000000E+00 -0.00000000000E+00 -0.21986565227E+03  0.21986565227E+03  0.00000000000E+00 0. -1.
         23    2    1    2    0    0  0.13686050322E+02 -0.14217239167E+02  0.20049401540E+03  0.21974651087E+03  0.87756714630E+02 0.  0.
        -24    2    1    2    0    0  0.12896962340E+02  0.83695954921E+02 -0.18474691143E+03  0.22191388294E+03  0.89123541500E+02 0.  0.
         13    1    4    4    0    0  0.85434010445E+01  0.10275493278E+03 -0.16051412672E+03  0.19077827651E+03  0.00000000000E+00 0. -1.
        -14    1    4    4    0    0  0.43535612954E+01 -0.19058977855E+02 -0.24232784711E+02  0.31135606429E+02  0.00000000000E+00 0.  1.
        -11    1    3    3    0    0  0.34737856060E+02  0.10795046904E+02  0.17372564459E+03  0.17749324288E+03  0.00000000000E+00 0.  1.
         11    1    3    3    0    0 -0.21051805738E+02 -0.25012286071E+02  0.26768370818E+02  0.42253267987E+02  0.00000000000E+00 0. -1.
          2    1    1    2  501    0 -0.26583012662E+02 -0.69478715753E+02  0.19333497227E+03  0.20715298696E+03  0.00000000000E+00 0. -1.
<scales pt_clust_5="13000.00000" pt_clust_6="13000.00000" pt_clust_7="13000.00000" pt_clust_8="13000.00000" pt_clust_9="74.39055"></scales>
<clustering>
<clus scale="   74.391">  2  9  1 -1</clus>
<clus scale="   87.757">  7  8 -1 -1</clus>
<clus scale="   89.124">  5  6 -1 -1</clus>
<clus scale="   90.324">  1  7  2 -1</clus>
<clus scale="   74.391">  2  5  1 -1</clus>
</clustering>
</event>
<event>
 9    1  0.7586638E-005  0.2038841E+03  0.7546771E-02  0.1185234E+00
         21   -1    0    0  501  502  0.00000000000E+00  0.00000000000E+00  0.15151543744E+03  0.15151543744E+03  0.00000000000E+00 0. -1.
          1   -1    0    0  502    0 -0.00000000000E+00 -0.00000000000E+00 -0.54566126419E+03  0.54566126419E+03  0.00000000000E+00 0. -1.
        -24    2    1    2    0    0  0.44136920225E+02  0.28169299458E+01 -0.24684234462E+03  0.26058522456E+03  0.70834407875E+02 0.  0.
         23    2    1    2    0    0  0.15538621910E+03  0.61269129571E+02 -0.19952168598E+02  0.19136736894E+03  0.91239232447E+02 0.  0.
         11    1    3    3    0    0  0.60673187758E+02  0.13704196570E+02 -0.20619141428E+03  0.21536931081E+03  0.00000000000E+00 0. -1.
        -12    1    3    3    0    0 -0.16536267533E+02 -0.10887266625E+02 -0.40650930343E+02  0.45215913750E+02  0.00000000000E+00 0.  1.
        -11    1    4    4    0    0  0.13775600122E+03  0.75980924203E+02  0.50747359267E+01  0.15740257196E+03  0.00000000000E+00 0. -1.
         11    1    4    4    0    0  0.17630217889E+02 -0.14711794632E+02 -0.25026904525E+02  0.33964796985E+02  0.00000000000E+00 0.  1.
          2    1    1    2  501    0 -0.19952313933E+03 -0.64086059517E+02 -0.12735131353E+03  0.24522410813E+03  0.00000000000E+00 0. -1.
<scales pt_clust_5="13000.00000" pt_clust_6="13000.00000" pt_clust_7="13000.00000" pt_clust_8="13000.00000" pt_clust_9="182.32977"></scales>
<clustering>
<clus scale="   70.834">  5  6 -1 -1</clus>
<clus scale="   83.508">  2  5  1 -1</clus>
<clus scale="   91.239">  7  8 -1 -1</clus>
<clus scale="  182.330">  1  9  2 -1</clus>
<clus scale="  182.330">  1  5  2 -1</clus>
</clustering>
</event>
<event>
 9    1  0.7586638E-005  0.1207680E+03  0.7546771E-02  0.1245276E+00
         21   -1    0    0  501  502  0.00000000000E+00  0.00000000000E+00  0.35571123575E+02  0.35571123575E+02  0.00000000000E+00 0. -1.
          1   -1    0    0  502    0 -0.00000000000E+00 -0.00000000000E+00 -0.73125090811E+03  0.73125090811E+03  0.00000000000E+00 0. -1.
        -24    2    1    2    0    0  0.90692493607E+02  0.33521219362E+02 -0.45279333117E+03  0.46983031496E+03  0.79811800878E+02 0.  0.
         23    2    1    2    0    0 -0.48690462392E+02  0.15822438694E+02 -0.12837754761E+03  0.16541946770E+03  0.90893865960E+02 0.  0.
         11    1    3    3    0    0  0.89419967642E+02 -0.32355872396E+00 -0.28679382959E+03  0.30041094520E+03  0.00000000000E+00 0. -1.
        -12    1    3    3    0    0  0.12725259645E+01  0.33844778086E+02 -0.16599950158E+03  0.16941936976E+03  0.00000000000E+00 0.  1.
        -13    1    4    4    0    0  0.21542696679E+02 -0.12817310717E+02 -0.15654159048E+02  0.29553746458E+02  0.00000000000E+00 0.  1.
         13    1    4    4    0    0 -0.70233159071E+02  0.28639749411E+02 -0.11272338856E+03  0.13586572124E+03  0.00000000000E+00 0. -1.
          2    1    1    2  501    0 -0.42002031215E+02 -0.49343658056E+02 -0.11450890575E+03  0.13157224902E+03  0.00000000000E+00 0. -1.
<scales pt_clust_5="13000.00000" pt_clust_6="13000.00000" pt_clust_7="13000.00000" pt_clust_8="13000.00000" pt_clust_9="64.79944"></scales>
<clustering>
<clus scale="   64.799">  1  9  2 -1</clus>
<clus scale="   79.812">  5  6 -1 -1</clus>
<clus scale="   90.894">  7  8 -1 -1</clus>
<clus scale="  112.664">  2  5  1 -1</clus>
<clus scale="   64.799">  1  5  2 -1</clus>
</clustering>
</event>
<event>
 9    1  0.7586638E-005  0.1005353E+03  0.7546771E-02  0.1283696E+00
         21   -1    0    0  501  502  0.00000000000E+00  0.00000000000E+00  0.33791054699E+03  0.33791054699E+03  0.00000000000E+00 0.  1.
         -4   -1    0    0    0  501 -0.00000000000E+00 -0.00000000000E+00 -0.81830506845E+02  0.81830506845E+02  0.00000000000E+00 0.  1.
        -24    2    1    2    0    0 -0.19744870398E+02 -0.40221435416E+02 -0.14056423212E+02  0.93568123831E+02  0.80930754288E+02 0.  0.
         23    2    1    2    0    0 -0.67194894911E+01  0.48525964300E+02  0.70355340396E+02  0.12447557098E+03  0.90246180526E+02 0.  0.
         13    1    3    3    0    0  0.27472193456E+02 -0.34598879335E+02 -0.12818827678E+02  0.46001371801E+02  0.00000000000E+00 0. -1.
        -14    1    3    3    0    0 -0.47217063855E+02 -0.56225560818E+01 -0.12375955335E+01  0.47566752030E+02  0.00000000000E+00 0.  1.
        -13    1    4    4    0    0  0.14982234091E+02 -0.23267494110E+02  0.19727364159E+02  0.33985475091E+02  0.00000000000E+00 0. -1.
         13    1    4    4    0    0 -0.21701723582E+02  0.71793458410E+02  0.50627976237E+02  0.90490095894E+02  0.00000000000E+00 0.  1.
         -3    1    1    2    0  502  0.26464359889E+02 -0.83045288838E+01  0.19978112296E+03  0.20169735902E+03  0.00000000000E+00 0.  1.
<scales pt_clust_5="13000.00000" pt_clust_6="13000.00000" pt_clust_7="13000.00000" pt_clust_8="13000.00000" pt_clust_9="27.73675"></scales>
<clustering>
<clus scale="   27.737">  1  9  2 -1</clus>
<clus scale="   80.931">  5  6 -1 -1</clus>
<clus scale="   90.246">  7  8 -1 -1</clus>
<clus scale="   92.265">  2  5  1 -1</clus>
<clus scale="   27.737">  1  5  2 -1</clus>
</clustering>
</event>
<event>
 9    1  0.7586638E-005  0.1933453E+03  0.7546771E-02  0.1184478E+00
         21   -1    0    0  501  502  0.00000000000E+00  0.00000000000E+00  0.76876687268E+03  0.76876687268E+03  0.00000000000E+00 0. -1.
          3   -1    0    0  502    0 -0.00000000000E+00 -0.00000000000E+00 -0.76962260746E+02  0.76962260746E+02  0.00000000000E+00 0. -1.
        -24    2    1    2    0    0 -0.37207453879E+02 -0.45167104858E+02  0.16820522833E+03  0.19547464684E+03  0.80578388763E+02 0.  0.
         23    2    1    2    0    0 -0.14498548873E+03  0.35200444373E+02  0.13539904222E+03  0.22131030874E+03  0.91572315108E+02 0.  0.
         11    1    3    3    0    0  0.14728797553E+01 -0.25611665214E+02  0.43954332083E+01  0.26027804419E+02  0.00000000000E+00 0. -1.
        -12    1    3    3    0    0 -0.38680333634E+02 -0.19555439644E+02  0.16380979512E+03  0.16944684242E+03  0.00000000000E+00 0.  1.
        -11    1    4    4    0    0 -0.57139569042E+02  0.60569668636E+02  0.57521203766E+02  0.10120426864E+03  0.00000000000E+00 0.  1.
         11    1    4    4    0    0 -0.87845919684E+02 -0.25369224263E+02  0.77877838453E+02  0.12010604009E+03  0.00000000000E+00 0. -1.
          4    1    1    2  501    0  0.18219294260E+03  0.99666604843E+01  0.38820034139E+03  0.42894417785E+03  0.00000000000E+00 0. -1.
<scales pt_clust_5="13000.00000" pt_clust_6="13000.00000" pt_clust_7="13000.00000" pt_clust_8="13000.00000" pt_clust_9="170.28478"></scales>
<clustering>
<clus scale="   80.578">  5  6 -1 -1</clus>
<clus scale="   91.572">  7  8 -1 -1</clus>
<clus scale="   99.586">  2  5  1 -1</clus>
<clus scale="  170.285">  1  9  2 -1</clus>
<clus scale="  170.285">  1  5  2 -1</clus>
</clustering>
</event>
<event>
 9    1  0.7586638E-005  0.3174752E+03  0.7546771E-02  0.1105130E+00
          1   -1    0    0  502    0 -0.00000000000E+00  0.00000000000E+00  0.15590124348E+04  0.15590124348E+04  0.00000000000E+00 0. -1.
         21   -1    0    0  501  502  0.00000000000E+00 -0.00000000000E+00 -0.11014956933E+03  0.11014956933E+03  0.00000000000E+00 0.  1.
         23    2    1    2    0    0  0.11360748259E+03 -0.36761295154E+02  0.32107643114E+03  0.35454783870E+03  0.91411390817E+02 0.  0.
        -24    2    1    2    0    0 -0.29493128500E+03  0.18110363795E+03  0.33361891179E+03  0.48732033185E+03  0.79978353186E+02 0.  0.
         11    1    4    4    0    0 -0.15747813271E+03  0.59233305139E+02  0.19256385665E+03  0.25571231024E+03  0.00000000000E+00 0. -1.
        -12    1    4    4    0    0 -0.13745315229E+03  0.12187033281E+03  0.14105505515E+03  0.23160802161E+03  0.00000000000E+00 0.  1.
        -11    1    3    3    0    0  0.36893080139E+02 -0.55871300625E+02  0.10571138203E+03  0.12513032361E+03  0.00000000000E+00 0.  1.
         11    1    3    3    0    0  0.76714402447E+02  0.19110005471E+02  0.21536504911E+03  0.22941751509E+03  0.00000000000E+00 0. -1.
          2    1    1    2  501    0  0.18132380241E+03 -0.14434234280E+03  0.79416752252E+03  0.82729383357E+03  0.00000000000E+00 0. -1.
<scales pt_clust_5="13000.00000" pt_clust_6="13000.00000" pt_clust_7="13000.00000" pt_clust_8="13000.00000" pt_clust_9="307.23619"></scales>
<clustering>
<clus scale="   79.978">  5  6 -1 -1</clus>
<clus scale="   91.411">  7  8 -1 -1</clus>
<clus scale="  150.380">  1  7  2 -1</clus>
<clus scale="  307.236">  2  9  1 -1</clus>
<clus scale="  307.236">  2  5  1 -1</clus>
</clustering>
</event>
<event>
 9    1  0.7586638E-005  0.1044834E+03  0.7546771E-02  0.1275693E+00
         21   -1    0    0  501  502  0.00000000000E+00  0.00000000000E+00  0.13672351566E+03  0.13672351566E+03  0.00000000000E+00 0.  1.
         -2   -1    0    0    0  501 -0.00000000000E+00 -0.00000000000E+00 -0.12959395675E+03  0.12959395675E+03  0.00000000000E+00 0.  1.
         23    2    1    2    0    0 -0.53707331534E+02  0.16888248510E+02 -0.31935335796E+02  0.11099376036E+03  0.90166838520E+02 0.  0.
        -24    2    1    2    0    0  0.50501273768E+02  0.24327692224E+02  0.53826109968E+02  0.11142694619E+03  0.79852983423E+02 0.  0.
         11    1    4    4    0    0  0.41668265608E+02 -0.22793894314E+02  0.38360336130E+02  0.61051792478E+02  0.00000000000E+00 0. -1.
        -12    1    4    4    0    0  0.88330081603E+01  0.47121586537E+02  0.15465773838E+02  0.50375153711E+02  0.00000000000E+00 0.  1.
        -11    1    3    3    0    0 -0.46763939725E+02  0.50867068707E+02 -0.96430368485E+01  0.69766130014E+02  0.00000000000E+00 0.  1.
         11    1    3    3    0    0 -0.69433918087E+01 -0.33978820197E+02 -0.22292298948E+02  0.41227630348E+02  0.00000000000E+00 0. -1.
         -1    1    1    2    0  502  0.32060577657E+01 -0.41215940734E+02 -0.14761215261E+02  0.43896765860E+02  0.00000000000E+00 0.  1.
<scales pt_clust_5="13000.00000" pt_clust_6="13000.00000" pt_clust_7="13000.00000" pt_clust_8="13000.00000" pt_clust_9="41.34047"></scales>
<clustering>
<clus scale="   41.340">  1  9  2 -1</clus>
<clus scale="   79.853">  5  6 -1 -1</clus>
<clus scale="   90.167">  7  8 -1 -1</clus>
<clus scale="   95.725">  1  5  2 -1</clus>
<clus scale="   41.340">  1  5  2 -1</clus>
</clustering>
</event>
<event>
 9    1  0.7586638E-005  0.1365714E+03  0.7546771E-02  0.1220404E+00
          3   -1    0    0  502    0 -0.00000000000E+00  0.00000000000E+00  0.28591509907E+03  0.28591509907E+03  0.00000000000E+00 0. -1.
         21   -1    0    0  501  502  0.00000000000E+00 -0.00000000000E+00 -0.18229583684E+03  0.18229583684E+03  0.00000000000E+00 0. -1.
        -24    2    1    2    0    0  0.61780412931E+02  0.67601632891E+02  0.11515999677E+03  0.16781912758E+03  0.80713285966E+02 0.  0.
         23    2    1    2    0    0 -0.11868398531E+03 -0.44677792612E+02  0.91136766746E+02  0.18078332923E+03  0.91075289476E+02 0.  0.
         11    1    3    3    0    0  0.17705754645E+02  0.35582527048E+02  0.10517524302E+03  0.11243416617E+03  0.00000000000E+00 0. -1.
        -12    1    3    3    0    0  0.44074658286E+02  0.32019105843E+02  0.99847537554E+01  0.55384961403E+02  0.00000000000E+00 0.  1.
        -13    1    4    4    0    0 -0.68310711965E+02  0.19991261566E+02  0.60016294988E+02  0.93101877383E+02  0.00000000000E+00 0. -1.
         13    1    4    4    0    0 -0.50373273347E+02 -0.64669054177E+02  0.31120471758E+02  0.87681451849E+02  0.00000000000E+00 0.  1.
          4    1    1    2  501    0  0.56903572381E+02 -0.22923840280E+02 -0.10267750129E+03  0.11960847910E+03  0.00000000000E+00 0. -1.
<scales pt_clust_5="13000.00000" pt_clust_6="13000.00000" pt_clust_7="13000.00000" pt_clust_8="13000.00000" pt_clust_9="61.34753"></scales>
<clustering>
<clus scale="   61.348">  2  9  1 -1</clus>
<clus scale="   80.713">  5  6 -1 -1</clus>
<clus scale="   91.075">  7  8 -1 -1</clus>
<clus scale="  129.891">  1  5  2 -1</clus>
<clus scale="   61.348">  2  5  1 -1</clus>
</clustering>
</event>
<event>
 9    1  0.7586638E-005  0.1606644E+03  0.7546771E-02  0.1190225E+00
         21   -1    0    0  501  502  0.00000000000E+00  0.00000000000E+00  0.43795189114E+02  0.43795189114E+02  0.00000000000E+00 0. -1.
          1   -1    0    0  502    0 -0.00000000000E+00 -0.00000000000E+00 -0.11623763753E+04  0.11623763753E+04  0.00000000000E+00 0. -1.
         23    2    1    2    0    0  0.93145363153E+02  0.62308233792E+02 -0.35288221678E+03  0.38319260179E+03  0.98753918774E+02 0.  0.
        -24    2    1    2    0    0 -0.16374827950E+03 -0.14463322843E+01 -0.33706643569E+03  0.38432785775E+03  0.85314296887E+02 0.  0.
         11    1    4    4    0    0 -0.91646268388E+02 -0.39277842841E+02 -0.14778112738E+03  0.17827240128E+03  0.00000000000E+00 0. -1.
        -12    1    4    4    0    0 -0.72102011110E+02  0.37831510557E+02 -0.18928530832E+03  0.20605545647E+03  0.00000000000E+00 0.  1.
        -11    1    3    3    0    0  0.10105371646E+03  0.29484842494E+02 -0.19356844772E+03  0.22034053984E+03  0.00000000000E+00 0.  1.
         11    1    3    3    0    0 -0.79083533028E+01  0.32823391298E+02 -0.15931376906E+03  0.16285206195E+03  0.00000000000E+00 0. -1.
          2    1    1    2  501    0  0.70602916345E+02 -0.60861901508E+02 -0.42863253370E+03  0.43865110487E+03  0.00000000000E+00 0. -1.
<scales pt_clust_5="13000.00000" pt_clust_6="13000.00000" pt_clust_7="13000.00000" pt_clust_8="13000.00000" pt_clust_9="93.21455"></scales>
<clustering>
<clus scale="   85.314">  5  6 -1 -1</clus>
<clus scale="   93.215">  1  9  2 -1</clus>
<clus scale="   98.754">  7  8 -1 -1</clus>
<clus scale="  152.772">  1  5  2 -1</clus>
<clus scale="   93.215">  1  5  2 -1</clus>
</clustering>
</event>
<event>
 9    1  0.7586638E-005  0.8542244E+02  0.7546771E-02  0.1326463E+00
          1   -1    0    0  502    0 -0.00000000000E+00  0.00000000000E+00  0.35966443255E+03  0.35966443255E+03  0.00000000000E+00 0. -1.
         21   -1    0    0  501  502  0.00000000000E+00 -0.00000000000E+00 -0.31630786748E+02  0.31630786748E+02  0.00000000000E+00 0. -1.
        -24    2    1    2    0    0 -0.33566634580E+02  0.19634473894E+01  0.26109021783E+03  0.27568925174E+03  0.81889484042E+02 0.  0.
         23    2    1    2    0    0  0.50078318686E+01  0.17818483778E+01  0.53362118924E+02  0.83761275564E+02  0.64344247485E+02 0.  0.
         13    1    3    3    0    0 -0.47055177100E+02  0.11260204270E+01  0.25741641628E+03  0.26168429258E+03  0.00000000000E+00 0. -1.
        -14    1    3    3    0    0  0.13488542521E+02  0.83742696241E+00  0.36738015511E+01  0.14004959160E+02  0.00000000000E+00 0.  1.
        -13    1    4    4    0    0  0.32930967845E+02  0.43001580010E+01  0.15501934581E+02  0.36650374866E+02  0.00000000000E+00 0. -1.
         13    1    4    4    0    0 -0.27923135976E+02 -0.25183096233E+01  0.37860184343E+02  0.47110900698E+02  0.00000000000E+00 0.  1.
          2    1    1    2  501    0  0.28558802711E+02 -0.37452957672E+01  0.13581309049E+02  0.31844691993E+02  0.00000000000E+00 0. -1.
<scales pt_clust_5="13000.00000" pt_clust_6="13000.00000" pt_clust_7="13000.00000" pt_clust_8="13000.00000" pt_clust_9="28.80334"></scales>
<clustering>
<clus scale="   28.803">  2  9  1 -1</clus>
<clus scale="   64.344">  7  8 -1 -1</clus>
<clus scale="   68.784">  2  7  1 -1</clus>
<clus scale="   81.889">  5  6 -1 -1</clus>
<clus scale="   28.803">  2  5  1 -1</clus>
</clustering>
</event>
<event>
 9    1  0.7586638E-005  0.1140928E+03  0.7546771E-02  0.1259640E+00
          1   -1    0    0  502    0 -0.00000000000E+00  0.00000000000E+00  0.26294090695E+03  0.26294090695E+03  0.00000000000E+00 0. -1.
         21   -1    0    0  501  502  0.00000000000E+00 -0.00000000000E+00 -0.58481694105E+02  0.58481694105E+02  0.00000000000E+00 0.  1.
         23    2    1    2    0    0 -0.70813482077E+02  0.30883444216E+02  0.10568406695E+03  0.16083821554E+03  0.93442352274E+02 0.  0.
        -24    2    1    2    0    0  0.47591734846E+02 -0.24420144819E+02  0.48706273475E+02  0.10501536745E+03  0.76122333299E+02 0.  0.
         13    1    4    4    0    0  0.28217772034E+02 -0.25515398466E+02  0.67830444602E+02  0.77770479183E+02  0.00000000000E+00 0. -1.
        -14    1    4    4    0    0  0.19373962812E+02  0.10952536473E+01 -0.19124171127E+02  0.27244888271E+02  0.00000000000E+00 0.  1.
        -13    1    3    3    0    0 -0.36091674715E+02  0.47257400448E+02  0.10701543675E+03  0.12242620056E+03  0.00000000000E+00 0. -1.
         13    1    3    3    0    0 -0.34721807362E+02 -0.16373956231E+02 -0.13313697937E+01  0.38412014978E+02  0.00000000000E+00 0.  1.
          2    1    1    2  501    0  0.23221747231E+02 -0.64632993972E+01  0.50068872414E+02  0.55569018062E+02  0.00000000000E+00 0. -1.
<scales pt_clust_5="13000.00000" pt_clust_6="13000.00000" pt_clust_7="13000.00000" pt_clust_8="13000.00000" pt_clust_9="24.10445"></scales>
<clustering>
<clus scale="   24.104">  2  9  1 -1</clus>
<clus scale="   76.122">  5  6 -1 -1</clus>
<clus scale="   93.442">  7  8 -1 -1</clus>
<clus scale="  100.401">  2  5  1 -1</clus>
<clus scale="   24.104">  2  5  1 -1</clus>
</clustering>
</event>
<event>
 9    1  0.7586638E-005  0.1674245E+03  0.7546771E-02  0.1182330E+00
         21   -1    0    0  501  502  0.00000000000E+00  0.00000000000E+00  0.30512754097E+03  0.30512754097E+03  0.00000000000E+00 0. -1.
          3   -1    0    0  502    0 -0.00000000000E+00 -0.00000000000E+00 -0.39519314034E+03  0.39519314034E+03  0.00000000000E+00 0. -1.
         23    2    1    2    0    0  0.13282756221E+03  0.37788150460E+02 -0.30824736090E+03  0.35066756981E+03  0.94234831246E+02 0.  0.
        -24    2    1    2    0    0 -0.12296534024E+03 -0.84661828580E+02  0.24215516430E+03  0.29608885883E+03  0.82105959647E+02 0.  0.
         11    1    4    4    0    0 -0.10348976428E+03 -0.10108862037E+03  0.20012516655E+03  0.24693951236E+03  0.00000000000E+00 0. -1.
        -12    1    4    4    0    0 -0.19475575961E+02  0.16426791793E+02  0.42029997748E+02  0.49149346469E+02  0.00000000000E+00 0.  1.
        -11    1    3    3    0    0  0.43657329486E+02 -0.31624441810E+02 -0.90307022732E+02  0.10517331454E+03  0.00000000000E+00 0.  1.
         11    1    3    3    0    0  0.89170232721E+02  0.69412592270E+02 -0.21794033817E+03  0.24549425527E+03  0.00000000000E+00 0. -1.
          4    1    1    2  501    0 -0.98622219702E+01  0.46873678120E+02 -0.23973402767E+02  0.53564252659E+02  0.00000000000E+00 0. -1.
<scales pt_clust_5="13000.00000" pt_clust_6="13000.00000" pt_clust_7="13000.00000" pt_clust_8="13000.00000" pt_clust_9="47.89997"></scales>
<clustering>
<clus scale="   47.900">  1  9  2 -1</clus>
<clus scale="   82.106">  5  6 -1 -1</clus>
<clus scale="   94.235">  7  8 -1 -1</clus>
<clus scale="  160.910">  1  5  2 -1</clus>
<clus scale="   47.900">  1  5  2 -1</clus>
</clustering>
</event>
<event>
 9    1  0.7586638E-005  0.1241249E+03  0.7546771E-02  0.1239988E+00
          1   -1    0    0  502    0 -0.00000000000E+00  0.00000000000E+00  0.46103372048E+02  0.46103372048E+02  0.00000000000E+00 0. -1.
         21   -1    0    0  501  502  0.00000000000E+00 -0.00000000000E+00 -0.43469163954E+03  0.43469163954E+03  0.00000000000E+00 0.  1.
        -24    2    1    2    0    0 -0.33172505348E+02  0.76531708336E+02 -0.12387713845E+03  0.16916439811E+03  0.79457728795E+02 0.  0.
         23    2    1    2    0    0  0.14123131403E+02 -0.85015259482E+02 -0.26198499273E+03  0.29060013305E+03  0.91570976457E+02 0.  0.
         13    1    3    3    0    0 -0.41687806104E+02  0.53006926128E+02 -0.33327132803E+02  0.75221706815E+02  0.00000000000E+00 0. -1.
        -14    1    3    3    0    0  0.85153007565E+01  0.23524782208E+02 -0.90550005646E+02  0.93942691294E+02  0.00000000000E+00 0.  1.
        -13    1    4    4    0    0  0.33401463587E+02  0.35206699624E+01 -0.52051777489E+02  0.61947077627E+02  0.00000000000E+00 0. -1.
         13    1    4    4    0    0 -0.19278332184E+02 -0.88535929445E+02 -0.20993321524E+03  0.22865305543E+03  0.00000000000E+00 0.  1.
          2    1    1    2  501    0  0.19049373945E+02  0.84835511466E+01 -0.27261363123E+01  0.21030480426E+02  0.00000000000E+00 0. -1.
<scales pt_clust_5="13000.00000" pt_clust_6="13000.00000" pt_clust_7="13000.00000" pt_clust_8="13000.00000" pt_clust_9="20.85305"></scales>
<clustering>
<clus scale="   20.853">  2  9  1 -1</clus>
<clus scale="   79.458">  5  6 -1 -1</clus>
<clus scale="   91.571">  7  8 -1 -1</clus>
<clus scale="  115.479">  1  5  2 -1</clus>
<clus scale="   20.853">  2  5  1 -1</clus>
</clustering>
</event>
<event>
 9    1  0.7586638E-005  0.1714752E+03  0.7546771E-02  0.1200109E+00
         21   -1    0    0  501  502  0.00000000000E+00  0.00000000000E+00  0.10562075868E+04  0.10562075868E+04  0.00000000000E+00 0. -1.
          1   -1    0    0  502    0 -0.00000000000E+00 -0.00000000000E+00 -0.94280695942E+02  0.94280695942E+02  0.00000000000E+00 0. -1.
         23    2    1    2    0    0 -0.40303981304E+02 -0.35387212284E+01 -0.23741780457E+01  0.10123053499E+03  0.92763414318E+02 0.  0.
        -24    2    1    2    0    0  0.16762317279E+02  0.15300303524E+03  0.17961071263E+03  0.25011273818E+03  0.81274040327E+02 0.  0.
         11    1    4    4    0    0 -0.23853123943E+02  0.57922865339E+02  0.33259120028E+02  0.70923895240E+02  0.00000000000E+00 0. -1.
        -12    1    4    4    0    0  0.40615441222E+02  0.95080169902E+02  0.14635159261E+03  0.17918884294E+03  0.00000000000E+00 0.  1.
        -13    1    3    3    0    0 -0.24723396568E+02  0.99264152428E+01 -0.45904259067E+02  0.53075239594E+02  0.00000000000E+00 0. -1.
         13    1    3    3    0    0 -0.15580584737E+02 -0.13465136471E+02  0.43530081021E+02  0.48155295396E+02  0.00000000000E+00 0.  1.
          2    1    1    2  501    0  0.23541664025E+02 -0.14946431401E+03  0.78469035623E+03  0.79914500954E+03  0.00000000000E+00 0. -1.
<scales pt_clust_5="13000.00000" pt_clust_6="13000.00000" pt_clust_7="13000.00000" pt_clust_8="13000.00000" pt_clust_9="150.99102"></scales>
<clustering>
<clus scale="   81.274">  5  6 -1 -1</clus>
<clus scale="   92.763">  7  8 -1 -1</clus>
<clus scale="  101.203">  2  7  1 -1</clus>
<clus scale="  150.991">  1  9  2 -1</clus>
<clus scale="  150.991">  1  5  2 -1</clus>
</clustering>
</event>
<event>
 9    1  0.7586638E-005  0.1188487E+03  0.7546771E-02  0.1247599E+00
          1   -1    0    0  502    0 -0.00000000000E+00  0.00000000000E+00  0.31987247761E+03  0.31987247761E+03  0.00000000000E+00 0. -1.
         21   -1    0    0  501  502  0.00000000000E+00 -0.00000000000E+00 -0.57940693306E+02  0.57940693306E+02  0.00000000000E+00 0. -1.
         23    2    1    2    0    0  0.38987181222E+02  0.59676234894E+02  0.11928217919E+03  0.16578004727E+03  0.90407590894E+02 0.  0.
        -24    2    1    2    0    0 -0.21946557249E+02 -0.84547058964E+02  0.85324761454E+02  0.14726369832E+03  0.82319046232E+02 0.  0.
         11    1    4    4    0    0 -0.19271472144E+02 -0.98738222650E+02  0.86634193261E+02  0.13276335975E+03  0.00000000000E+00 0. -1.
        -12    1    4    4    0    0 -0.26750851047E+01  0.14191163686E+02 -0.13094318065E+01  0.14500338573E+02  0.00000000000E+00 0.  1.
        -13    1    3    3    0    0  0.30942231172E+01  0.24479409421E+02  0.11235749886E+03  0.11503487841E+03  0.00000000000E+00 0.  1.
         13    1    3    3    0    0  0.35892958105E+02  0.35196825473E+02  0.69246803319E+01  0.50745168859E+02  0.00000000000E+00 0. -1.
          2    1    1    2  501    0 -0.17040623973E+02  0.24870824070E+02  0.57324843662E+02  0.64769425320E+02  0.00000000000E+00 0. -1.
<scales pt_clust_5="13000.00000" pt_clust_6="13000.00000" pt_clust_7="13000.00000" pt_clust_8="13000.00000" pt_clust_9="30.14866"></scales>
<clustering>
<clus scale="   30.149">  2  9  1 -1</clus>
<clus scale="   82.319">  5  6 -1 -1</clus>
<clus scale="   90.408">  7  8 -1 -1</clus>
<clus scale="  112.818">  2  5  1 -1</clus>
<clus scale="   30.149">  2  5  1 -1</clus>
</clustering>
</event>
<event>
 9    1  0.7586638E-005  0.1257100E+03  0.7546771E-02  0.1245095E+00
         21   -1    0    0  501  502  0.00000000000E+00  0.00000000000E+00  0.11935571880E+04  0.11935571880E+04  0.00000000000E+00 0.  1.
          1   -1    0    0  502    0 -0.00000000000E+00 -0.00000000000E+00 -0.52571646556E+02  0.52571646556E+02  0.00000000000E+00 0. -1.
         23    2    1    2    0    0  0.31321757018E+02  0.11994679038E+02  0.34890572887E+02  0.10615396206E+03  0.94479557565E+02 0.  0.
        -24    2    1    2    0    0  0.52786679286E+02  0.65859258428E+02  0.86116187271E+03  0.86955356032E+03  0.86021786883E+02 0.  0.
         11    1    4    4    0    0 -0.16524942121E+02  0.34864728422E+02  0.17494278619E+03  0.17914687114E+03  0.00000000000E+00 0. -1.
        -12    1    4    4    0    0  0.69311621407E+02  0.30994530006E+02  0.68621908652E+03  0.69040668917E+03  0.00000000000E+00 0.  1.
        -13    1    3    3    0    0  0.34037991519E+01  0.51642591669E+02  0.17239347443E+02  0.54550327435E+02  0.00000000000E+00 0.  1.
         13    1    3    3    0    0  0.27917957866E+02 -0.39647912631E+02  0.17651225444E+02  0.51603634630E+02  0.00000000000E+00 0. -1.
          2    1    1    2  501    0 -0.84108436304E+02 -0.77853937466E+02  0.24493309584E+03  0.27042131217E+03  0.00000000000E+00 0. -1.
<scales pt_clust_5="13000.00000" pt_clust_6="13000.00000" pt_clust_7="13000.00000" pt_clust_8="13000.00000" pt_clust_9="91.66936"></scales>
<clustering>
<clus scale="   86.022">  5  6 -1 -1</clus>
<clus scale="   94.480">  7  8 -1 -1</clus>
<clus scale="  100.256">  2  7  1 -1</clus>
<clus scale="   91.669">  1  9  2 -1</clus>
<clus scale="   91.669">  1  5  2 -1</clus>
</clustering>
</event>
<event>
 9    1  0.7586638E-005  0.1493485E+03  0.7546771E-02  0.1225603E+00
         -4   -1    0    0    0  501 -0.00000000000E+00  0.00000000000E+00  0.29549432560E+02  0.29549432560E+02  0.00000000000E+00 0.  1.
         21   -1    0    0  501  502  0.00000000000E+00 -0.00000000000E+00 -0.13555309666E+04  0.13555309666E+04  0.00000000000E+00 0.  1.
        -24    2    1    2    0    0 -0.26790145980E+02  0.25165552778E+02 -0.59986882036E+03  0.60645007265E+03  0.81166939156E+02 0.  0.
         23    2    1    2    0    0 -0.81024688482E+02  0.46529886770E+02 -0.21624337053E+03  0.25257802715E+03  0.91128667233E+02 0.  0.
         11    1    3    3    0    0  0.14382183426E+02  0.29235118046E+02 -0.10706803439E+03  0.11191560800E+03  0.00000000000E+00 0. -1.
        -12    1    3    3    0    0 -0.41172329406E+02 -0.40695652683E+01 -0.49280078598E+03  0.49453446465E+03  0.00000000000E+00 0.  1.
        -13    1    4    4    0    0 -0.11240582201E+02  0.43551461732E+02 -0.31062394421E+02  0.54662170231E+02  0.00000000000E+00 0.  1.
         13    1    4    4    0    0 -0.69784106281E+02  0.29784250386E+01 -0.18518097611E+03  0.19791585692E+03  0.00000000000E+00 0. -1.
         -3    1    1    2    0  502  0.10781483446E+03 -0.71695439548E+02 -0.50986934319E+03  0.52605229940E+03  0.00000000000E+00 0.  1.
<scales pt_clust_5="13000.00000" pt_clust_6="13000.00000" pt_clust_7="13000.00000" pt_clust_8="13000.00000" pt_clust_9="118.32392"></scales>
<clustering>
<clus scale="   81.167">  5  6 -1 -1</clus>
<clus scale="   89.102">  1  5  2 -1</clus>
<clus scale="   91.129">  7  8 -1 -1</clus>
<clus scale="  118.324">  2  9  1 -1</clus>
<clus scale="  118.324">  2  5  1 -1</clus>
</clustering>
</event>
<event>
 9    1  0.7586638E-005  0.1699458E+03  0.7546771E-02  0.1179171E+00
         21   -1    0    0  501  502  0.00000000000E+00  0.00000000000E+00  0.36831643666E+03  0.36831643666E+03  0.00000000000E+00 0. -1.
         -4   -1    0    0    0  501 -0.00000000000E+00 -0.00000000000E+00 -0.23607562057E+03  0.23607562057E+03  0.00000000000E+00 0.  1.
        -24    2    1    2    0    0 -0.13351736972E+03  0.66124666639E+02 -0.16859219270E+03  0.23898945121E+03  0.80580833909E+02 0.  0.
         23    2    1    2    0    0  0.10238669677E+03 -0.27059898012E+02  0.27732858354E+03  0.31019723534E+03  0.89977262725E+02 0.  0.
         11    1    3    3    0    0 -0.62230100022E+02 -0.11270289142E+02 -0.75591814586E+02  0.98558242671E+02  0.00000000000E+00 0. -1.
        -12    1    3    3    0    0 -0.71287269698E+02  0.77394955781E+02 -0.93000378118E+02  0.14043120854E+03  0.00000000000E+00 0.  1.
        -13    1    4    4    0    0  0.94462828529E+02  0.15396507436E+02  0.19546486186E+03  0.21763912938E+03  0.00000000000E+00 0. -1.
         13    1    4    4    0    0  0.79238682401E+01 -0.42456405448E+02  0.81863721673E+02  0.92558105953E+02  0.00000000000E+00 0.  1.
         -3    1    1    2    0  502  0.31130672951E+02 -0.39064768627E+02  0.23504425249E+02  0.55205370686E+02  0.00000000000E+00 0.  1.
<scales pt_clust_5="13000.00000" pt_clust_6="13000.00000" pt_clust_7="13000.00000" pt_clust_8="13000.00000" pt_clust_9="49.95173"></scales>
<clustering>
<clus scale="   49.952">  1  9  2 -1</clus>
<clus scale="   80.581">  5  6 -1 -1</clus>
<clus scale="   89.977">  7  8 -1 -1</clus>
<clus scale="  165.163">  2  5  1 -1</clus>
<clus scale="   49.952">  1  5  2 -1</clus>
</clustering>
</event>
<event>
 9    1  0.7586638E-005  0.1150974E+03  0.7546771E-02  0.1252120E+00
         21   -1    0    0  501  502  0.00000000000E+00  0.00000000000E+00  0.14398493641E+03  0.14398493641E+03  0.00000000000E+00 0. -1.
          1   -1    0    0  502    0 -0.00000000000E+00 -0.00000000000E+00 -0.19262364321E+03  0.19262364321E+03  0.00000000000E+00 0. -1.
         23    2    1    2    0    0 -0.19950656090E+02  0.93258229422E+02 -0.60098875612E+02  0.13726943699E+03  0.78331969513E+02 0.  0.
        -24    2    1    2    0    0  0.58457292928E+02 -0.36426308793E+02  0.53552865569E+02  0.11881322505E+03  0.80650740651E+02 0.  0.
         11    1    4    4    0    0  0.36482194592E+02 -0.54494626160E+02  0.60830076667E+02  0.89447822947E+02  0.00000000000E+00 0. -1.
        -12    1    4    4    0    0  0.21975098336E+02  0.18068317367E+02 -0.72772110981E+01  0.29365402104E+02  0.00000000000E+00 0.  1.
        -11    1    3    3    0    0  0.13366094712E+02  0.17930598831E+02  0.14077008978E+02  0.26425764777E+02  0.00000000000E+00 0.  1.
         11    1    3    3    0    0 -0.33316750802E+02  0.75327630591E+02 -0.74175884590E+02  0.11084367221E+03  0.00000000000E+00 0. -1.
          2    1    1    2  501    0 -0.38506636838E+02 -0.56831920629E+02 -0.42092696753E+02  0.80525917585E+02  0.00000000000E+00 0. -1.
<scales pt_clust_5="13000.00000" pt_clust_6="13000.00000" pt_clust_7="13000.00000" pt_clust_8="13000.00000" pt_clust_9="68.64862"></scales>
<clustering>
<clus scale="   68.649">  1  9  2 -1</clus>
<clus scale="   78.332">  7  8 -1 -1</clus>
<clus scale="   80.651">  5  6 -1 -1</clus>
<clus scale="  113.485">  2  7  1 -1</clus>
<clus scale="   68.649">  1  5  2 -1</clus>
</clustering>
</event>
<event>
 9    1  0.7586638E-005  0.2874224E+03  0.7546771E-02  0.1126457E+00
         21   -1    0    0  501  502  0.00000000000E+00  0.00000000000E+00  0.11855490132E+03  0.11855490132E+03  0.00000000000E+00 0. -1.
          1   -1    0    0  502    0 -0.00000000000E+00 -0.00000000000E+00 -0.11095312358E+04  0.11095312358E+04  0.00000000000E+00 0. -1.
         23    2    1    2    0    0  0.61637469872E+02 -0.23795203275E+02 -0.34975418029E+03  0.36924752935E+03  0.98236255589E+02 0.  0.
        -24    2    1    2    0    0 -0.23986620509E+03  0.18764732527E+03 -0.26515700717E+03  0.41158253487E+03  0.79653182809E+02 0.  0.
         11    1    4    4    0    0 -0.19374583966E+03  0.16020784786E+03 -0.25276907327E+03  0.35650555298E+03  0.00000000000E+00 0. -1.
        -12    1    4    4    0    0 -0.46120365432E+02  0.27439477416E+02 -0.12387933903E+02  0.55076981897E+02  0.00000000000E+00 0.  1.
        -11    1    3    3    0    0  0.25964487305E+02  0.37052073801E+02 -0.10067483723E+03  0.11037406228E+03  0.00000000000E+00 0.  1.
         11    1    3    3    0    0  0.35672982567E+02 -0.60847277077E+02 -0.24907934306E+03  0.25887346707E+03  0.00000000000E+00 0. -1.
          2    1    1    2  501    0  0.17822873522E+03 -0.16385212200E+03 -0.37606514706E+03  0.44725607293E+03  0.00000000000E+00 0. -1.
<scales pt_clust_5="13000.00000" pt_clust_6="13000.00000" pt_clust_7="13000.00000" pt_clust_8="13000.00000" pt_clust_9="276.16492"></scales>
<clustering>
<clus scale="   79.653">  5  6 -1 -1</clus>
<clus scale="   98.236">  7  8 -1 -1</clus>
<clus scale="  118.388">  2  7  1 -1</clus>
<clus scale="  276.165">  1  9  2 -1</clus>
<clus scale="  276.165">  1  5  2 -1</clus>
</clustering>
</event>
<event>
 9    1  0.7586638E-005  0.9437947E+02  0.7546771E-02  0.1299156E+00
          1   -1    0    0  502    0 -0.00000000000E+00  0.00000000000E+00  0.39575193270E+03  0.39575193270E+03  0.00000000000E+00 0. -1.
         21   -1    0    0  501  502  0.00000000000E+00 -0.00000000000E+00 -0.54403431000E+02  0.54403431000E+02  0.00000000000E+00 0.  1.
        -24    2    1    2    0    0 -0.20824304241E+02  0.18119480725E+02  0.24924394647E+03  0.26315318133E+03  0.79781481334E+02 0.  0.
         23    2    1    2    0    0  0.15573046002E+02  0.95352594391E+01  0.23247819375E+01  0.92913032839E+02  0.91071324389E+02 0.  0.
         13    1    3    3    0    0  0.30029692333E+02  0.95639834991E+01  0.72830140714E+02  0.79356673308E+02  0.00000000000E+00 0. -1.
        -14    1    3    3    0    0 -0.50853996574E+02  0.85554972259E+01  0.17641380576E+03  0.18379650803E+03  0.00000000000E+00 0.  1.
        -11    1    4    4    0    0 -0.28765290111E+02 -0.23768864231E+02  0.32110577708E+01  0.37452793140E+02  0.00000000000E+00 0. -1.
         11    1    4    4    0    0  0.44338336113E+02  0.33304123670E+02 -0.88627583325E+00  0.55460239699E+02  0.00000000000E+00 0.  1.
          2    1    1    2  501    0  0.52512582394E+01 -0.27654740164E+02  0.89779773293E+02  0.94089149530E+02  0.00000000000E+00 0. -1.
<scales pt_clust_5="13000.00000" pt_clust_6="13000.00000" pt_clust_7="13000.00000" pt_clust_8="13000.00000" pt_clust_9="28.14891"></scales>
<clustering>
<clus scale="   28.149">  2  9  1 -1</clus>
<clus scale="   79.781">  5  6 -1 -1</clus>
<clus scale="   83.538">  1  5  2 -1</clus>
<clus scale="   91.071">  7  8 -1 -1</clus>
<clus scale="   28.149">  2  5  1 -1</clus>
</clustering>
</event>
<event>
 9    1  0.7586638E-005  0.2334996E+03  0.7546771E-02  0.1125271E+00
         -2   -1    0    0    0  501 -0.00000000000E+00  0.00000000000E+00  0.12327177003E+04  0.12327177003E+04  0.00000000000E+00 0.  1.
         21   -1    0    0  501  502  0.00000000000E+00 -0.00000000000E+00 -0.90524666031E+02  0.90524666031E+02  0.00000000000E+00 0. -1.
        -24    2    1    2    0    0  0.13964419049E+02 -0.23959087374E+03  0.61028195460E+03  0.66077294444E+03  0.81105044250E+02 0.  0.
         23    2    1    2    0    0 -0.30901134136E+02  0.14466179912E+03  0.69358468169E+02  0.18997254367E+03  0.96938403272E+02 0.  0.
         11    1    3    3    0    0  0.21120490372E+02 -0.53415502546E+02  0.78302389336E+02  0.97111045724E+02  0.00000000000E+00 0. -1.
        -12    1    3    3    0    0 -0.71560713233E+01 -0.18617537120E+03  0.53197956527E+03  0.56366189871E+03  0.00000000000E+00 0.  1.
        -11    1    4    4    0    0 -0.48730953583E+02  0.29571546330E+02  0.58025991208E+01  0.57296180903E+02  0.00000000000E+00 0. -1.
         11    1    4    4    0    0  0.17829819447E+02  0.11509025279E+03  0.63555869048E+02  0.13267636277E+03  0.00000000000E+00 0.  1.
         -1    1    1    2    0  502  0.16936715087E+02  0.94929074629E+02  0.46255261155E+03  0.47249687827E+03  0.00000000000E+00 0.  1.
<scales pt_clust_5="13000.00000" pt_clust_6="13000.00000" pt_clust_7="13000.00000" pt_clust_8="13000.00000" pt_clust_9="96.42816"></scales>
<clustering>
<clus scale="   81.105">  5  6 -1 -1</clus>
<clus scale="   96.428">  2  9  1 -1</clus>
<clus scale="   96.938">  7  8 -1 -1</clus>
<clus scale="  227.383">  1  5  2 -1</clus>
<clus scale="   96.428">  2  5  1 -1</clus>
</clustering>
</event>
<event>
 9    1  0.7586638E-005  0.1024905E+03  0.7546771E-02  0.1276614E+00
         21   -1    0    0  501  502  0.00000000000E+00  0.00000000000E+00  0.13939178480E+03  0.13939178480E+03  0.00000000000E+00 0.  1.
         -2   -1    0    0    0  501 -0.00000000000E+00 -0.00000000000E+00 -0.13342019416E+03  0.13342019416E+03  0.00000000000E+00 0.  1.
        -24    2    1    2    0    0 -0.30159747921E+02 -0.37128563050E+02  0.14682449293E+02  0.10041967762E+03  0.87065473905E+02 0.  0.
         23    2    1    2    0    0  0.62991020828E+02 -0.71383482260E+01  0.16891371886E+02  0.11162285078E+03  0.90307904696E+02 0.  0.
         13    1    3    3    0    0  0.25594298316E+01  0.26915327894E+02  0.79823614361E+01  0.28190488659E+02  0.00000000000E+00 0. -1.
        -14    1    3    3    0    0 -0.32719177753E+02 -0.64043890944E+02  0.67000878568E+01  0.72229188957E+02  0.00000000000E+00 0.  1.
        -11    1    4    4    0    0  0.22682038700E+02  0.91619319794E+01 -0.35767791803E+02  0.43333022138E+02  0.00000000000E+00 0.  1.
         11    1    4    4    0    0  0.40308982127E+02 -0.16300280205E+02  0.52659163688E+02  0.68289828637E+02  0.00000000000E+00 0. -1.
         -1    1    1    2    0  502 -0.32831272906E+02  0.44266911276E+02 -0.25602230539E+02  0.60769450575E+02  0.00000000000E+00 0.  1.
<scales pt_clust_5="13000.00000" pt_clust_6="13000.00000" pt_clust_7="13000.00000" pt_clust_8="13000.00000" pt_clust_9="55.11311"></scales>
<clustering>
<clus scale="   55.113">  1  9  2 -1</clus>
<clus scale="   87.065">  5  6 -1 -1</clus>
<clus scale="   90.308">  7  8 -1 -1</clus>
<clus scale="   99.645">  2  5  1 -1</clus>
<clus scale="   55.113">  1  5  2 -1</clus>
</clustering>
</event>
<event>
 9    1  0.7586638E-005  0.9102545E+02  0.7546771E-02  0.1304581E+00
         21   -1    0    0  501  502  0.00000000000E+00  0.00000000000E+00  0.16442159156E+03  0.16442159156E+03  0.00000000000E+00 0. -1.
          3   -1    0    0  502    0 -0.00000000000E+00 -0.00000000000E+00 -0.13876119745E+03  0.13876119745E+03  0.00000000000E+00 0. -1.
         23    2    1    2    0    0  0.20373098641E+02 -0.39512285871E+02 -0.74861291643E+02  0.12260804542E+03  0.86326333945E+02 0.  0.
        -24    2    1    2    0    0  0.84255408844E+01 -0.21497566564E+02  0.57931959250E+02  0.10079098248E+03  0.79180648772E+02 0.  0.
         11    1    4    4    0    0 -0.20682373368E+02 -0.40694770770E+02  0.43492872153E+02  0.63051208270E+02  0.00000000000E+00 0. -1.
        -12    1    4    4    0    0  0.29107914252E+02  0.19197204206E+02  0.14439087097E+02  0.37739774213E+02  0.00000000000E+00 0.  1.
        -13    1    3    3    0    0  0.21460719467E+02 -0.18713442797E+02  0.13723103667E+02  0.31608210889E+02  0.00000000000E+00 0.  1.
         13    1    3    3    0    0 -0.10876208266E+01 -0.20798843074E+02 -0.88584395310E+02  0.90999834531E+02  0.00000000000E+00 0. -1.
          4    1    1    2  501    0 -0.28798639525E+02  0.61009852435E+02  0.42589726505E+02  0.79783761107E+02  0.00000000000E+00 0. -1.
<scales pt_clust_5="13000.00000" pt_clust_6="13000.00000" pt_clust_7="13000.00000" pt_clust_8="13000.00000" pt_clust_9="67.46528"></scales>
<clustering>
<clus scale="   67.465">  1  9  2 -1</clus>
<clus scale="   79.181">  5  6 -1 -1</clus>
<clus scale="   84.279">  1  5  2 -1</clus>
<clus scale="   86.326">  7  8 -1 -1</clus>
<clus scale="   67.465">  1  5  2 -1</clus>
</clustering>
</event>
<event>
 9    1  0.7586638E-005  0.1123256E+03  0.7546771E-02  0.1261116E+00
          1   -1    0    0  502    0 -0.00000000000E+00  0.00000000000E+00  0.88200416946E+03  0.88200416946E+03  0.00000000000E+00 0. -1.
         21   -1    0    0  501  502  0.00000000000E+00 -0.00000000000E+00 -0.17684849601E+02  0.17684849601E+02  0.00000000000E+00 0.  1.
        -24    2    1    2    0    0  0.30114659190E+02 -0.51906132854E+02  0.38043103470E+03  0.39309003547E+03  0.78682046890E+02 0.  0.
         23    2    1    2    0    0 -0.60575924250E+02  0.45391555630E+02  0.39146581706E+03  0.40906826537E+03  0.91441368572E+02 0.  0.
         13    1    3    3    0    0  0.25863508125E+01 -0.67177760886E+02  0.27168406604E+03  0.27987813868E+03  0.00000000000E+00 0. -1.
        -14    1    3    3    0    0  0.27528308377E+02  0.15271628032E+02  0.10874696866E+03  0.11321189680E+03  0.00000000000E+00 0.  1.
        -13    1    4    4    0    0 -0.82630839670E+02  0.36983613710E+02  0.25539324811E+03  0.27096375132E+03  0.00000000000E+00 0.  1.
         13    1    4    4    0    0  0.22054915421E+02  0.84079419193E+01  0.13607256895E+03  0.13810451405E+03  0.00000000000E+00 0. -1.
          2    1    1    2  501    0  0.30461265060E+02  0.65145772248E+01  0.92422468101E+02  0.97530718214E+02  0.00000000000E+00 0. -1.
<scales pt_clust_5="13000.00000" pt_clust_6="13000.00000" pt_clust_7="13000.00000" pt_clust_8="13000.00000" pt_clust_9="31.15009"></scales>
<clustering>
<clus scale="   31.150">  2  9  1 -1</clus>
<clus scale="   78.682">  5  6 -1 -1</clus>
<clus scale="   91.441">  7  8 -1 -1</clus>
<clus scale="  102.208">  1  5  2 -1</clus>
<clus scale="   31.150">  2  5  1 -1</clus>
</clustering>
</event>
<event>
 9    1  0.7586638E-005  0.9378193E+02  0.7546771E-02  0.1299390E+00
         21   -1    0    0  501  502  0.00000000000E+00  0.00000000000E+00  0.75534766267E+02  0.75534766267E+02  0.00000000000E+00 0. -1.
          1   -1    0    0  502    0 -0.00000000000E+00 -0.00000000000E+00 -0.49282085492E+03  0.49282085492E+03  0.00000000000E+00 0. -1.
        -24    2    1    2    0    0  0.50116627830E+01  0.18171263712E+02 -0.33667546021E+03  0.34680809391E+03  0.81056627749E+02 0.  0.
         23    2    1    2    0    0 -0.73238808855E+02 -0.29255851162E+02 -0.92377200259E+02  0.15143145386E+03  0.90432904083E+02 0.  0.
         11    1    3    3    0    0  0.38486451938E+02  0.28813850171E+02 -0.19790785293E+03  0.20366384853E+03  0.00000000000E+00 0. -1.
        -12    1    3    3    0    0 -0.33474789155E+02 -0.10642586459E+02 -0.13876760728E+03  0.14314424538E+03  0.00000000000E+00 0.  1.
        -11    1    4    4    0    0 -0.70249584390E+02 -0.56888472508E+02 -0.81077559404E+02  0.12142846886E+03  0.00000000000E+00 0. -1.
         11    1    4    4    0    0 -0.29892244651E+01  0.27632621346E+02 -0.11299640855E+02  0.30002984999E+02  0.00000000000E+00 0.  1.
          2    1    1    2  501    0  0.68227146072E+02  0.11084587450E+02  0.11766571814E+02  0.70116073423E+02  0.00000000000E+00 0. -1.
<scales pt_clust_5="13000.00000" pt_clust_6="13000.00000" pt_clust_7="13000.00000" pt_clust_8="13000.00000" pt_clust_9="69.12172"></scales>
<clustering>
<clus scale="   69.122">  1  9  2 -1</clus>
<clus scale="   81.057">  5  6 -1 -1</clus>
<clus scale="   84.777">  2  5  1 -1</clus>
<clus scale="   90.433">  7  8 -1 -1</clus>
<clus scale="   69.122">  1  5  2 -1</clus>
</clustering>
</event>
<event>
 9    1  0.7586638E-005  0.1388225E+03  0.7546771E-02  0.1217302E+00
          1   -1    0    0  502    0 -0.00000000000E+00  0.00000000000E+00  0.11835064624E+03  0.11835064624E+03  0.00000000000E+00 0. -1.
         21   -1    0    0  501  502  0.00000000000E+00 -0.00000000000E+00 -0.24206814204E+03  0.24206814204E+03  0.00000000000E+00 0. -1.
        -24    2    1    2    0    0  0.64893343593E+02  0.87135160126E+02  0.66164642177E+01  0.13779578670E+03  0.84499816927E+02 0.  0.
         23    2    1    2    0    0 -0.53217617628E+02 -0.63616179757E+02 -0.14538694455E+03  0.19235656213E+03  0.94786867213E+02 0.  0.
         13    1    3    3    0    0  0.77673126608E+02  0.93449947032E+02  0.12937750309E+02  0.12220226095E+03  0.00000000000E+00 0. -1.
        -14    1    3    3    0    0 -0.12779783015E+02 -0.63147869060E+01 -0.63212860916E+01  0.15593525754E+02  0.00000000000E+00 0.  1.
        -13    1    4    4    0    0 -0.72562072786E+02 -0.40962829501E+02 -0.13873314143E+03  0.16183353280E+03  0.00000000000E+00 0. -1.
         13    1    4    4    0    0  0.19344455158E+02 -0.22653350256E+02 -0.66538031123E+01  0.30523029323E+02  0.00000000000E+00 0.  1.
          2    1    1    2  501    0 -0.11675725965E+02 -0.23518980369E+02  0.15052984528E+02  0.30266439460E+02  0.00000000000E+00 0. -1.
<scales pt_clust_5="13000.00000" pt_clust_6="13000.00000" pt_clust_7="13000.00000" pt_clust_8="13000.00000" pt_clust_9="26.25768"></scales>
<clustering>
<clus scale="   26.258">  2  9  1 -1</clus>
<clus scale="   84.500">  5  6 -1 -1</clus>
<clus scale="   94.787">  7  8 -1 -1</clus>
<clus scale="  132.013">  1  5  2 -1</clus>
<clus scale="   26.258">  2  5  1 -1</clus>
</clustering>
</event>
<event>
 9    1  0.7586638E-005  0.1011749E+03  0.7546771E-02  0.1283296E+00
          1   -1    0    0  502    0 -0.00000000000E+00  0.00000000000E+00  0.28753282490E+03  0.28753282490E+03  0.00000000000E+00 0. -1.
         21   -1    0    0  501  502  0.00000000000E+00 -0.00000000000E+00 -0.18520897860E+03  0.18520897860E+03  0.00000000000E+00 0. -1.
        -24    2    1    2    0    0 -0.24334282408E+01 -0.42444150403E+02  0.24104729406E+03  0.25805128420E+03  0.81726616402E+02 0.  0.
         23    2    1    2    0    0  0.18238921564E+02  0.23775030547E+02 -0.28117252138E+02  0.10141174739E+03  0.92713819377E+02 0.  0.
         13    1    3    3    0    0 -0.17200858547E+02 -0.52508933065E+02  0.23106825422E+03  0.23758281860E+03  0.00000000000E+00 0. -1.
        -14    1    3    3    0    0  0.14767430307E+02  0.10064782661E+02  0.99790398372E+01  0.20468465598E+02  0.00000000000E+00 0.  1.
        -13    1    4    4    0    0  0.26784461646E+02  0.56541995679E+02 -0.25108299355E+02  0.67415364403E+02  0.00000000000E+00 0.  1.
         13    1    4    4    0    0 -0.85455400825E+01 -0.32766965133E+02 -0.30089527830E+01  0.33996382986E+02  0.00000000000E+00 0. -1.
          2    1    1    2  501    0 -0.15805493323E+02  0.18669119856E+02 -0.11060619562E+03  0.11327877191E+03  0.00000000000E+00 0. -1.
<scales pt_clust_5="13000.00000" pt_clust_6="13000.00000" pt_clust_7="13000.00000" pt_clust_8="13000.00000" pt_clust_9="24.46119"></scales>
<clustering>
<clus scale="   24.461">  2  9  1 -1</clus>
<clus scale="   81.727">  5  6 -1 -1</clus>
<clus scale="   91.213">  1  5  2 -1</clus>
<clus scale="   92.714">  7  8 -1 -1</clus>
<clus scale="   24.461">  2  5  1 -1</clus>
</clustering>
</event>
<event>
 9    1  0.7586638E-005  0.1428104E+03  0.7546771E-02  0.1215382E+00
         21   -1    0    0  501  502  0.00000000000E+00  0.00000000000E+00  0.16659541685E+03  0.16659541685E+03  0.00000000000E+00 0.  1.
         -4   -1    0    0    0  501 -0.00000000000E+00 -0.00000000000E+00 -0.19845559328E+03  0.19845559328E+03  0.00000000000E+00 0.  1.
        -24    2    1    2    0    0 -0.70008643962E+02 -0.78925395681E+02 -0.10090198434E+03  0.16621472232E+03  0.79471348052E+02 0.  0.
         23    2    1    2    0    0  0.19503920130E+02  0.83583019425E+02  0.40357544944E+02  0.14056787844E+03  0.10375005050E+03 0.  0.
         13    1    3    3    0    0  0.10726073264E+02 -0.36159698991E+02 -0.14319879083E+02  0.40343914234E+02  0.00000000000E+00 0. -1.
        -14    1    3    3    0    0 -0.80734717226E+02 -0.42765696690E+02 -0.86582105254E+02  0.12587080809E+03  0.00000000000E+00 0.  1.
        -13    1    4    4    0    0 -0.18199620022E+02  0.93759942582E+02  0.26339706794E+02  0.99075391273E+02  0.00000000000E+00 0. -1.
         13    1    4    4    0    0  0.37703540152E+02 -0.10176923156E+02  0.14017838150E+02  0.41492487167E+02  0.00000000000E+00 0.  1.
         -3    1    1    2    0  502  0.50504723832E+02 -0.46576237441E+01  0.28684262961E+02  0.58268409365E+02  0.00000000000E+00 0.  1.
<scales pt_clust_5="13000.00000" pt_clust_6="13000.00000" pt_clust_7="13000.00000" pt_clust_8="13000.00000" pt_clust_9="50.71904"></scales>
<clustering>
<clus scale="   50.719">  1  9  2 -1</clus>
<clus scale="   79.471">  5  6 -1 -1</clus>
<clus scale="  103.750">  7  8 -1 -1</clus>
<clus scale="  126.279">  2  5  1 -1</clus>
<clus scale="   50.719">  1  5  2 -1</clus>
</clustering>
</event>
<event>
 9    1  0.7586638E-005  0.1173225E+03  0.7546771E-02  0.1255917E+00
         -4   -1    0    0    0  501 -0.00000000000E+00  0.00000000000E+00  0.55648390566E+03  0.55648390566E+03  0.00000000000E+00 0.  1.
         21   -1    0    0  501  502  0.00000000000E+00 -0.00000000000E+00 -0.86989899645E+02  0.86989899645E+02  0.00000000000E+00 0. -1.
        -24    2    1    2    0    0 -0.49189477769E+02 -0.34561129561E+02  0.42919476842E+03  0.44078375232E+03  0.80424440739E+02 0.  0.
         23    2    1    2    0    0  0.13367307271E+02  0.41241340868E+02 -0.37478205773E+02  0.11679951906E+03  0.10177415509E+03 0.  0.
         13    1    3    3    0    0 -0.53153231620E+02  0.33861257172E+00  0.14516827869E+03  0.15459369271E+03  0.00000000000E+00 0. -1.
        -14    1    3    3    0    0  0.39637538507E+01 -0.34899742133E+02  0.28402648974E+03  0.28619005961E+03  0.00000000000E+00 0.  1.
        -13    1    4    4    0    0  0.14370526729E+02  0.72073154816E+02 -0.76502073509E+01  0.73888952869E+02  0.00000000000E+00 0.  1.
         13    1    4    4    0    0 -0.10032194572E+01 -0.30831813948E+02 -0.29827998422E+02  0.42910566187E+02  0.00000000000E+00 0. -1.
         -3    1    1    2    0  502  0.35822170498E+02 -0.66802113064E+01  0.77777443366E+02  0.85890533930E+02  0.00000000000E+00 0.  1.
<scales pt_clust_5="13000.00000" pt_clust_6="13000.00000" pt_clust_7="13000.00000" pt_clust_8="13000.00000" pt_clust_9="36.43974"></scales>
<clustering>
<clus scale="   36.440">  2  9  1 -1</clus>
<clus scale="   80.424">  5  6 -1 -1</clus>
<clus scale="   99.371">  1  5  2 -1</clus>
<clus scale="  101.774">  7  8 -1 -1</clus>
<clus scale="   36.440">  2  5  1 -1</clus>
</clustering>
</event>
<event>
 9    1  0.7586638E-005  0.1050445E+03  0.7546771E-02  0.1275323E+00
         -2   -1    0    0    0  501 -0.00000000000E+00  0.00000000000E+00  0.55807239281E+02  0.55807239281E+02  0.00000000000E+00 0.  1.
         21   -1    0    0  501  502  0.00000000000E+00 -0.00000000000E+00 -0.63778593029E+03  0.63778593029E+03  0.00000000000E+00 0. -1.
         23    2    1    2    0    0 -0.49609745642E+02 -0.25837985114E+02 -0.17737030929E+02  0.10994275533E+03  0.92973538415E+02 0.  0.
        -24    2    1    2    0    0  0.26657211177E+02 -0.28223663385E+02 -0.31945051050E+03  0.33191208266E+03  0.81300798721E+02 0.  0.
         11    1    4    4    0    0  0.53320844863E+02 -0.26609984784E+02 -0.25990728231E+03  0.26665145637E+03  0.00000000000E+00 0. -1.
        -12    1    4    4    0    0 -0.26663633686E+02 -0.16136786008E+01 -0.59543228190E+02  0.65260626286E+02  0.00000000000E+00 0.  1.
        -13    1    3    3    0    0  0.25111233502E+02  0.53982905168E+01  0.42260248309E+01  0.26030268427E+02  0.00000000000E+00 0. -1.
         13    1    3    3    0    0 -0.74720979144E+02 -0.31236275631E+02 -0.21963055760E+02  0.83912486900E+02  0.00000000000E+00 0.  1.
         -1    1    1    2    0  502  0.22952534465E+02  0.54061648499E+02 -0.24479114958E+03  0.25173833158E+03  0.00000000000E+00 0.  1.
<scales pt_clust_5="13000.00000" pt_clust_6="13000.00000" pt_clust_7="13000.00000" pt_clust_8="13000.00000" pt_clust_9="58.73228"></scales>
<clustering>
<clus scale="   58.732">  2  9  1 -1</clus>
<clus scale="   81.301">  5  6 -1 -1</clus>
<clus scale="   92.974">  7  8 -1 -1</clus>
<clus scale="   94.869">  2  5  1 -1</clus>
<clus scale="   58.732">  2  5  1 -1</clus>
</clustering>
</event>
<event>
 9    1  0.7586638E-005  0.1542704E+03  0.7546771E-02  0.1225809E+00
          1   -1    0    0  502    0 -0.00000000000E+00  0.00000000000E+00  0.11070514922E+04  0.11070514922E+04  0.00000000000E+00 0. -1.
         21   -1    0    0  501  502  0.00000000000E+00 -0.00000000000E+00 -0.48846616213E+02  0.48846616213E+02  0.00000000000E+00 0.  1.
        -24    2    1    2    0    0  0.14121288834E+02  0.72844736957E+01  0.58234086855E+03  0.58787789895E+03  0.78911738840E+02 0.  0.
         23    2    1    2    0    0 -0.46564735863E+02 -0.11290837397E+03  0.12701310054E+03  0.20208860274E+03  0.98948977299E+02 0.  0.
         11    1    3    3    0    0  0.34100528858E+02 -0.23888563204E+02  0.24517709646E+03  0.24868718935E+03  0.00000000000E+00 0. -1.
        -12    1    3    3    0    0 -0.19979240024E+02  0.31173036899E+02  0.33716377210E+03  0.33919070960E+03  0.00000000000E+00 0.  1.
        -13    1    4    4    0    0 -0.22707845277E+02 -0.32773436594E+02  0.10967690297E+03  0.11669947484E+03  0.00000000000E+00 0. -1.
         13    1    4    4    0    0 -0.23856890586E+02 -0.80134937378E+02  0.17336197574E+02  0.85389127899E+02  0.00000000000E+00 0.  1.
          2    1    1    2  501    0  0.32443447029E+02  0.10562390028E+03  0.34885090693E+03  0.36593160677E+03  0.00000000000E+00 0. -1.
<scales pt_clust_5="13000.00000" pt_clust_6="13000.00000" pt_clust_7="13000.00000" pt_clust_8="13000.00000" pt_clust_9="118.35740"></scales>
<clustering>
<clus scale="   78.912">  5  6 -1 -1</clus>
<clus scale="   80.496">  1  5  2 -1</clus>
<clus scale="   98.949">  7  8 -1 -1</clus>
<clus scale="  118.357">  2  9  1 -1</clus>
<clus scale="  118.357">  2  5  1 -1</clus>
</clustering>
</event>
<event>
 9    1  0.7586638E-005  0.2780102E+03  0.7546771E-02  0.1109206E+00
         21   -1    0    0  501  502  0.00000000000E+00  0.00000000000E+00  0.75134101269E+03  0.75134101269E+03  0.00000000000E+00 0.  1.
          1   -1    0    0  502    0 -0.00000000000E+00 -0.00000000000E+00 -0.33680776563E+03  0.33680776563E+03  0.00000000000E+00 0. -1.
         23    2    1    2    0    0 -0.91615158562E+02 -0.16545649445E+03  0.22776830422E+03  0.30427099641E+03  0.70237098556E+02 0.  0.
        -24    2    1    2    0    0  0.32072720187E+03  0.24680071194E+03 -0.82771910574E+02  0.42089110797E+03  0.80756461994E+02 0.  0.
         13    1    4    4    0    0  0.12989420635E+02  0.34350335817E+02  0.41941935008E+01  0.36962979835E+02  0.00000000000E+00 0. -1.
        -14    1    4    4    0    0  0.30773778124E+03  0.21245037613E+03 -0.86966104075E+02  0.38392812814E+03  0.00000000000E+00 0.  1.
        -11    1    3    3    0    0 -0.11168272480E+02 -0.22651902445E+02  0.20753431603E+01  0.25340600700E+02  0.00000000000E+00 0. -1.
         11    1    3    3    0    0 -0.80446886082E+02 -0.14280459201E+03  0.22569296106E+03  0.27893039571E+03  0.00000000000E+00 0.  1.
          2    1    1    2  501    0 -0.22911204331E+03 -0.81344217491E+02  0.26953685341E+03  0.36298667394E+03  0.00000000000E+00 0. -1.
<scales pt_clust_5="13000.00000" pt_clust_6="13000.00000" pt_clust_7="13000.00000" pt_clust_8="13000.00000" pt_clust_9="266.02266"></scales>
<clustering>
<clus scale="   70.237">  7  8 -1 -1</clus>
<clus scale="   80.756">  5  6 -1 -1</clus>
<clus scale="  201.749">  2  7  1 -1</clus>
<clus scale="  266.023">  1  9  2 -1</clus>
<clus scale="  266.023">  1  5  2 -1</clus>
</clustering>
</event>
<event>
 9    1  0.7586638E-005  0.1032493E+03  0.7546771E-02  0.1278215E+00
          3   -1    0    0  502    0 -0.00000000000E+00  0.00000000000E+00  0.23904380490E+03  0.23904380490E+03  0.00000000000E+00 0. -1.
         21   -1    0    0  501  502  0.00000000000E+00 -0.00000000000E+00 -0.87288526686E+02  0.87288526686E+02  0.00000000000E+00 0. -1.
        -24    2    1    2    0    0  0.39464349988E+02  0.16354853213E+02  0.64549984915E+02  0.11106891968E+03  0.79653551223E+02 0.  0.
         23    2    1    2    0    0 -0.68095035150E+02 -0.25285792199E+02 -0.76521826460E+01  0.11577764133E+03  0.89830959221E+02 0.  0.
         13    1    3    3    0    0  0.52563821373E+02  0.31765720866E+02  0.66770864291E+02  0.90721357230E+02  0.00000000000E+00 0. -1.
        -14    1    3    3    0    0 -0.13099471385E+02 -0.15410867653E+02 -0.22208793762E+01  0.20347562448E+02  0.00000000000E+00 0.  1.
        -11    1    4    4    0    0 -0.48390162152E+02  0.12224913643E+02  0.30725328687E+02  0.58609744323E+02  0.00000000000E+00 0.  1.
         11    1    4    4    0    0 -0.19704872998E+02 -0.37510705842E+02 -0.38377511333E+02  0.57167897012E+02  0.00000000000E+00 0. -1.
          4    1    1    2  501    0  0.28630685162E+02  0.89309389860E+01  0.94857475949E+02  0.99485770577E+02  0.00000000000E+00 0. -1.
<scales pt_clust_5="13000.00000" pt_clust_6="13000.00000" pt_clust_7="13000.00000" pt_clust_8="13000.00000" pt_clust_9="29.99131"></scales>
<clustering>
<clus scale="   29.991">  2  9  1 -1</clus>
<clus scale="   79.654">  5  6 -1 -1</clus>
<clus scale="   89.831">  7  8 -1 -1</clus>
<clus scale="   94.528">  1  5  2 -1</clus>
<clus scale="   29.991">  2  5  1 -1</clus>
</clustering>
</event>
<event>
 9    1  0.7586638E-005  0.1559766E+03  0.7546771E-02  0.1195442E+00
          1   -1    0    0  502    0 -0.00000000000E+00  0.00000000000E+00  0.39700492386E+03  0.39700492386E+03  0.00000000000E+00 0. -1.
         21   -1    0    0  501  502  0.00000000000E+00 -0.00000000000E+00 -0.10940797681E+03  0.10940797681E+03  0.00000000000E+00 0. -1.
        -24    2    1    2    0    0 -0.12478186854E+03  0.98401379874E+02  0.17564706882E+03  0.24958137654E+03  0.78648740956E+02 0.  0.
         23    2    1    2    0    0  0.29747407682E+02 -0.89895190393E+02  0.40699532125E+02  0.13774955307E+03  0.91391651353E+02 0.  0.
         11    1    3    3    0    0 -0.10347378081E+03  0.63381510605E+02  0.79517049774E+02  0.14507584364E+03  0.00000000000E+00 0. -1.
        -12    1    3    3    0    0 -0.21308087731E+02  0.35019869269E+02  0.96130019047E+02  0.10450553291E+03  0.00000000000E+00 0.  1.
        -11    1    4    4    0    0 -0.11754134391E+02 -0.45519224338E+02 -0.20701573334E+02  0.51368420241E+02  0.00000000000E+00 0. -1.
         11    1    4    4    0    0  0.41501542073E+02 -0.44375966055E+02  0.61401105459E+02  0.86381132832E+02  0.00000000000E+00 0.  1.
          2    1    1    2  501    0  0.95034460861E+02 -0.85061894804E+01  0.71250346109E+02  0.11908197106E+03  0.00000000000E+00 0. -1.
<scales pt_clust_5="13000.00000" pt_clust_6="13000.00000" pt_clust_7="13000.00000" pt_clust_8="13000.00000" pt_clust_9="95.41443"></scales>
<clustering>
<clus scale="   78.649">  5  6 -1 -1</clus>
<clus scale="   91.392">  7  8 -1 -1</clus>
<clus scale="   95.414">  2  9  1 -1</clus>
<clus scale="  148.869">  1  5  2 -1</clus>
<clus scale="   95.414">  2  5  1 -1</clus>
</clustering>
</event>
<event>
 9    1  0.7586638E-005  0.1042916E+03  0.7546771E-02  0.1274979E+00
         -2   -1    0    0    0  501 -0.00000000000E+00  0.00000000000E+00  0.34758076095E+02  0.34758076095E+02  0.00000000000E+00 0.  1.
         21   -1    0    0  501  502  0.00000000000E+00 -0.00000000000E+00 -0.50424415131E+03  0.50424415131E+03  0.00000000000E+00 0.  1.
         23    2    1    2    0    0  0.59684875585E+02 -0.35596464429E+02 -0.13728127667E+03  0.17798704455E+03  0.89464218828E+02 0.  0.
        -24    2    1    2    0    0 -0.10856890582E+02  0.39606611941E+02 -0.19470367952E+03  0.21504665496E+03  0.81541309827E+02 0.  0.
         13    1    4    4    0    0 -0.14977402815E+02  0.48683936369E+02 -0.54906160654E+02  0.74894156869E+02  0.00000000000E+00 0. -1.
        -14    1    4    4    0    0  0.41205122329E+01 -0.90773244277E+01 -0.13979751887E+03  0.14015249810E+03  0.00000000000E+00 0.  1.
        -11    1    3    3    0    0 -0.20685945368E+02 -0.36030252063E+01 -0.53873880595E+02  0.57821147833E+02  0.00000000000E+00 0. -1.
         11    1    3    3    0    0  0.80370820953E+02 -0.31993439223E+02 -0.83407396079E+02  0.12016589672E+03  0.00000000000E+00 0.  1.
         -1    1    1    2    0  502 -0.48827985003E+02 -0.40101475120E+01 -0.13750111901E+03  0.14596852788E+03  0.00000000000E+00 0.  1.
<scales pt_clust_5="13000.00000" pt_clust_6="13000.00000" pt_clust_7="13000.00000" pt_clust_8="13000.00000" pt_clust_9="48.99238"></scales>
<clustering>
<clus scale="   48.992">  2  9  1 -1</clus>
<clus scale="   81.541">  5  6 -1 -1</clus>
<clus scale="   89.464">  7  8 -1 -1</clus>
<clus scale="   97.580">  2  5  1 -1</clus>
<clus scale="   48.992">  2  5  1 -1</clus>
</clustering>
</event>
<event>
 9    1  0.7586638E-005  0.2203078E+03  0.7546771E-02  0.1173079E+00
          1   -1    0    0  502    0 -0.00000000000E+00  0.00000000000E+00  0.15526563530E+04  0.15526563530E+04  0.00000000000E+00 0. -1.
         21   -1    0    0  501  502  0.00000000000E+00 -0.00000000000E+00 -0.84278557917E+02  0.84278557917E+02  0.00000000000E+00 0. -1.
        -24    2    1    2    0    0 -0.37897670364E+01  0.33914395373E+02  0.50352889156E+03  0.51099339736E+03  0.80052226439E+02 0.  0.
         23    2    1    2    0    0 -0.78698262992E+01  0.17087933260E+03  0.88462572265E+03  0.90568671595E+03  0.91891663376E+02 0.  0.
         13    1    3    3    0    0 -0.37853095726E+02  0.34830460003E+02  0.25473345718E+03  0.25987526240E+03  0.00000000000E+00 0. -1.
        -14    1    3    3    0    0  0.34063328690E+02 -0.91606462944E+00  0.24879543438E+03  0.25111813496E+03  0.00000000000E+00 0.  1.
        -11    1    4    4    0    0  0.20386003507E+02  0.13964549572E+03  0.78402291516E+03  0.79662311359E+03  0.00000000000E+00 0. -1.
         11    1    4    4    0    0 -0.28255829807E+02  0.31233836880E+02  0.10060280749E+03  0.10906360236E+03  0.00000000000E+00 0.  1.
          2    1    1    2  501    0  0.11659593336E+02 -0.20479372797E+03  0.80223180908E+02  0.22025479765E+03  0.00000000000E+00 0. -1.
<scales pt_clust_5="13000.00000" pt_clust_6="13000.00000" pt_clust_7="13000.00000" pt_clust_8="13000.00000" pt_clust_9="200.22846"></scales>
<clustering>
<clus scale="   80.052">  5  6 -1 -1</clus>
<clus scale="   87.022">  1  5  2 -1</clus>
<clus scale="   91.892">  7  8 -1 -1</clus>
<clus scale="  200.228">  2  9  1 -1</clus>
<clus scale="  200.228">  2  5  1 -1</clus>
</clustering>
</event>
<event>
 9    1  0.7586638E-005  0.1189890E+03  0.7546771E-02  0.1244985E+00
         21   -1    0    0  501  502  0.00000000000E+00  0.00000000000E+00  0.19182118689E+03  0.19182118689E+03  0.00000000000E+00 0.  1.
         -2   -1    0    0    0  501 -0.00000000000E+00 -0.00000000000E+00 -0.37187811305E+03  0.37187811305E+03  0.00000000000E+00 0.  1.
        -24    2    1    2    0    0  0.73255695219E+02 -0.19776354973E+02 -0.29377385895E+03  0.31599098188E+03  0.88259386645E+02 0.  0.
         23    2    1    2    0    0 -0.12713689283E+03 -0.12357115342E+02  0.63656080259E+02  0.16744729186E+03  0.87578600016E+02 0.  0.
         13    1    3    3    0    0  0.16423356302E+02  0.32879091870E+02 -0.12485771556E+03  0.13015456369E+03  0.00000000000E+00 0. -1.
        -14    1    3    3    0    0  0.56832338917E+02 -0.52655446843E+02 -0.16891614338E+03  0.18583641819E+03  0.00000000000E+00 0.  1.
        -11    1    4    4    0    0 -0.88544188794E+02 -0.58712528112E+01  0.84992323427E+02  0.12287489581E+03  0.00000000000E+00 0. -1.
         11    1    4    4    0    0 -0.38592704035E+02 -0.64858625312E+01 -0.21336243167E+02  0.44572396054E+02  0.00000000000E+00 0.  1.
         -1    1    1    2    0  502  0.53881197609E+02  0.32133470315E+02  0.50060852522E+02  0.80261026193E+02  0.00000000000E+00 0.  1.
<scales pt_clust_5="13000.00000" pt_clust_6="13000.00000" pt_clust_7="13000.00000" pt_clust_8="13000.00000" pt_clust_9="62.73550"></scales>
<clustering>
<clus scale="   62.736">  1  9  2 -1</clus>
<clus scale="   87.579">  7  8 -1 -1</clus>
<clus scale="   88.259">  5  6 -1 -1</clus>
<clus scale="  118.485">  1  7  2 -1</clus>
<clus scale="   62.736">  1  5  2 -1</clus>
</clustering>
</event>
<event>
 9    1  0.7586638E-005  0.1767162E+03  0.7546771E-02  0.1171755E+00
          1   -1    0    0  502    0 -0.00000000000E+00  0.00000000000E+00  0.55576181120E+03  0.55576181120E+03  0.00000000000E+00 0. -1.
         21   -1    0    0  501  502  0.00000000000E+00 -0.00000000000E+00 -0.77983689616E+02  0.77983689616E+02  0.00000000000E+00 0.  1.
         23    2    1    2    0    0 -0.14882041853E+03  0.41841557116E+02  0.32238607508E+03  0.37016084008E+03  0.95854229160E+02 0.  0.
        -24    2    1    2    0    0  0.12952361671E+03 -0.22661481613E+02  0.16574022407E+03  0.23447578518E+03  0.10108987056E+03 0.  0.
         13    1    4    4    0    0  0.12324082512E+03 -0.15603956437E+02  0.17919003228E+03  0.21803864818E+03  0.00000000000E+00 0. -1.
        -14    1    4    4    0    0  0.62827915941E+01 -0.70575251757E+01 -0.13449808214E+02  0.16437137002E+02  0.00000000000E+00 0.  1.
        -13    1    3    3    0    0 -0.11522034964E+03  0.32127036215E+02  0.31126790573E+03  0.33346001944E+03  0.00000000000E+00 0.  1.
         13    1    3    3    0    0 -0.33600068896E+02  0.97145209015E+01  0.11118169355E+02  0.36700820645E+02  0.00000000000E+00 0. -1.
          2    1    1    2  501    0  0.19296801823E+02 -0.19180075504E+02 -0.10348177566E+02  0.29108875552E+02  0.00000000000E+00 0. -1.
<scales pt_clust_5="13000.00000" pt_clust_6="13000.00000" pt_clust_7="13000.00000" pt_clust_8="13000.00000" pt_clust_9="27.20739"></scales>
<clustering>
<clus scale="   27.207">  2  9  1 -1</clus>
<clus scale="   95.854">  7  8 -1 -1</clus>
<clus scale="  101.090">  5  6 -1 -1</clus>
<clus scale="  173.774">  1  7  2 -1</clus>
<clus scale="   27.207">  2  5  1 -1</clus>
</clustering>
</event>
<event>
 9    1  0.7586638E-005  0.1038632E+03  0.7546771E-02  0.1277940E+00
         21   -1    0    0  501  502  0.00000000000E+00  0.00000000000E+00  0.18691294209E+03  0.18691294209E+03  0.00000000000E+00 0. -1.
         -4   -1    0    0    0  501 -0.00000000000E+00 -0.00000000000E+00 -0.13492943232E+03  0.13492943232E+03  0.00000000000E+00 0.  1.
         23    2    1    2    0    0  0.35545477004E+02 -0.41052268413E+02 -0.46921162797E+02  0.11668335832E+03  0.92003483157E+02 0.  0.
        -24    2    1    2    0    0  0.20130055499E+02  0.45110576509E+02  0.11360118522E+03  0.14743361209E+03  0.79945340342E+02 0.  0.
         11    1    4    4    0    0 -0.28425092519E+01 -0.22402957750E+02  0.29942413730E+02  0.37503606690E+02  0.00000000000E+00 0. -1.
        -12    1    4    4    0    0  0.22972564751E+02  0.67513534259E+02  0.83658771489E+02  0.10993000540E+03  0.00000000000E+00 0.  1.
        -13    1    3    3    0    0  0.33178590691E+02 -0.64106442114E+02 -0.96935838999E+01  0.72831451788E+02  0.00000000000E+00 0.  1.
         13    1    3    3    0    0  0.23668863131E+01  0.23054173701E+02 -0.37227578897E+02  0.43851906531E+02  0.00000000000E+00 0. -1.
         -3    1    1    2    0  502 -0.55675532503E+02 -0.40583080964E+01 -0.14696512653E+02  0.57725404011E+02  0.00000000000E+00 0.  1.
<scales pt_clust_5="13000.00000" pt_clust_6="13000.00000" pt_clust_7="13000.00000" pt_clust_8="13000.00000" pt_clust_9="55.82327"></scales>
<clustering>
<clus scale="   55.823">  1  9  2 -1</clus>
<clus scale="   79.945">  5  6 -1 -1</clus>
<clus scale="   92.003">  7  8 -1 -1</clus>
<clus scale="   93.350">  1  5  2 -1</clus>
<clus scale="   55.823">  1  5  2 -1</clus>
</clustering>
</event>
<event>
 9    1  0.7586638E-005  0.9363849E+02  0.7546771E-02  0.1303011E+00
         -2   -1    0    0    0  501 -0.00000000000E+00  0.00000000000E+00  0.13826256791E+03  0.13826256791E+03  0.00000000000E+00 0.  1.
         21   -1    0    0  501  502  0.00000000000E+00 -0.00000000000E+00 -0.15494437632E+03  0.15494437632E+03  0.00000000000E+00 0.  1.
         23    2    1    2    0    0 -0.12033637278E+02 -0.15929292121E+02  0.63704756319E+02  0.11359866950E+03  0.91911973977E+02 0.  0.
        -24    2    1    2    0    0  0.30903007702E+02 -0.39187583641E+02 -0.17606518740E+02  0.93962158016E+02  0.77641709411E+02 0.  0.
         13    1    4    4    0    0  0.56563573427E+02 -0.19280216585E+02 -0.13041304108E+02  0.61165678311E+02  0.00000000000E+00 0. -1.
        -14    1    4    4    0    0 -0.25660565725E+02 -0.19907367056E+02 -0.45652146319E+01  0.32796479705E+02  0.00000000000E+00 0.  1.
        -13    1    3    3    0    0 -0.23353388624E+02  0.33775343713E+02  0.16937875257E+02  0.44418984921E+02  0.00000000000E+00 0. -1.
         13    1    3    3    0    0  0.11319751345E+02 -0.49704635834E+02  0.46766881063E+02  0.69179684578E+02  0.00000000000E+00 0.  1.
         -1    1    1    2    0  502 -0.18869370424E+02  0.55116875762E+02 -0.62780045994E+02  0.85646116719E+02  0.00000000000E+00 0.  1.
<scales pt_clust_5="13000.00000" pt_clust_6="13000.00000" pt_clust_7="13000.00000" pt_clust_8="13000.00000" pt_clust_9="58.25739"></scales>
<clustering>
<clus scale="   58.257">  2  9  1 -1</clus>
<clus scale="   77.642">  5  6 -1 -1</clus>
<clus scale="   79.678">  2  5  1 -1</clus>
<clus scale="   91.912">  7  8 -1 -1</clus>
<clus scale="   58.257">  2  5  1 -1</clus>
</clustering>
</event>
<event>
 9    1  0.7586638E-005  0.1379142E+03  0.7546771E-02  0.1219316E+00
          1   -1    0    0  502    0 -0.00000000000E+00  0.00000000000E+00  0.84931234778E+03  0.84931234778E+03  0.00000000000E+00 0. -1.
         21   -1    0    0  501  502  0.00000000000E+00 -0.00000000000E+00 -0.94894587575E+02  0.94894587575E+02  0.00000000000E+00 0. -1.
        -24    2    1    2    0    0  0.11990105191E+03 -0.39099491499E+02  0.70064912949E+03  0.71633033070E+03  0.79466392546E+02 0.  0.
         23    2    1    2    0    0 -0.25626525871E+02  0.16887602855E+02  0.81050858460E+02  0.12725168622E+03  0.93176392019E+02 0.  0.
         13    1    3    3    0    0  0.12927445423E+03 -0.29507604646E+02  0.66800962332E+03  0.68104290621E+03  0.00000000000E+00 0. -1.
        -14    1    3    3    0    0 -0.93734023178E+01 -0.95918868533E+01  0.32639506168E+02  0.35287424492E+02  0.00000000000E+00 0.  1.
        -13    1    4    4    0    0 -0.38497243060E+02 -0.28298712178E+02  0.57298301954E+02  0.74605296333E+02  0.00000000000E+00 0.  1.
         13    1    4    4    0    0  0.12870717190E+02  0.45186315033E+02  0.23752556506E+02  0.52646389884E+02  0.00000000000E+00 0. -1.
          2    1    1    2  501    0 -0.94274526044E+02  0.22211888645E+02 -0.27282227749E+02  0.10062491843E+03  0.00000000000E+00 0. -1.
<scales pt_clust_5="13000.00000" pt_clust_6="13000.00000" pt_clust_7="13000.00000" pt_clust_8="13000.00000" pt_clust_9="96.85584"></scales>
<clustering>
<clus scale="   79.466">  5  6 -1 -1</clus>
<clus scale="   93.176">  7  8 -1 -1</clus>
<clus scale="   96.856">  2  9  1 -1</clus>
<clus scale="  129.048">  1  5  2 -1</clus>
<clus scale="   96.856">  2  5  1 -1</clus>
</clustering>
</event>
<event>
 9    1  0.1503069E-004  0.1008079E+03  0.7546771E-02  0.1282892E+00
         21   -1    0    0  501  502  0.00000000000E+00  0.00000000000E+00  0.85002154377E+02  0.85002154377E+02  0.00000000000E+00 0.  1.
          3   -1    0    0  502    0 -0.00000000000E+00 -0.00000000000E+00 -0.44632345550E+03  0.44632345550E+03  0.00000000000E+00 0. -1.
         23    2    1    2    0    0  0.59804568629E+01  0.14838903755E+02 -0.38835447203E+03  0.39931219013E+03  0.91515410248E+02 0.  0.
        -24    2    1    2    0    0  0.17297911926E+02 -0.23905791965E+02  0.17428010179E+02  0.10524870365E+03  0.99513061627E+02 0.  0.
         11    1    4    4    0    0  0.14485086377E+02  0.33232180329E+02 -0.15292167125E+02  0.39345214603E+02  0.00000000000E+00 0. -1.
        -12    1    4    4    0    0  0.28128255487E+01 -0.57137972294E+02  0.32720177304E+02  0.65903489045E+02  0.00000000000E+00 0.  1.
        -13    1    3    3    0    0 -0.10375812612E+02  0.49770387828E+02 -0.27260528237E+03  0.27730558769E+03  0.00000000000E+00 0. -1.
         13    1    3    3    0    0  0.16356269475E+02 -0.34931484073E+02 -0.11574918966E+03  0.12200660243E+03  0.00000000000E+00 0.  1.
          4    1    1    2  501    0 -0.23278368789E+02  0.90668882095E+01  0.96051607259E+01  0.26764716099E+02  0.00000000000E+00 0. -1.
<scales pt_clust_5="13000.00000" pt_clust_6="13000.00000" pt_clust_7="13000.00000" pt_clust_8="13000.00000" pt_clust_9="24.98181"></scales>
<clustering>
<clus scale="   24.982">  1  9  2 -1</clus>
<clus scale="   91.515">  7  8 -1 -1</clus>
<clus scale="   92.922">  2  7  1 -1</clus>
<clus scale="   99.513">  5  6 -1 -1</clus>
<clus scale="   24.982">  1  5  2 -1</clus>
</clustering>
</event>
<event>
 9    1  0.7586638E-005  0.1807470E+03  0.7546771E-02  0.1189184E+00
         21   -1    0    0  501  502  0.00000000000E+00  0.00000000000E+00  0.40939346372E+03  0.40939346372E+03  0.00000000000E+00 0. -1.
          1   -1    0    0  502    0 -0.00000000000E+00 -0.00000000000E+00 -0.12353582534E+03  0.12353582534E+03  0.00000000000E+00 0. -1.
         23    2    1    2    0    0 -0.51586102501E+02 -0.38882359178E+02  0.38363744602E+02  0.11630537562E+03  0.88781753029E+02 0.  0.
        -24    2    1    2    0    0  0.11245768550E+03 -0.10043613912E+03  0.12961453006E+03  0.22424268262E+03  0.10368560766E+03 0.  0.
         11    1    4    4    0    0  0.11975003637E+03 -0.10160917858E+03  0.84132887010E+02  0.17816520160E+03  0.00000000000E+00 0. -1.
        -12    1    4    4    0    0 -0.72923508705E+01  0.11730394687E+01  0.45481643051E+02  0.46077481023E+02  0.00000000000E+00 0.  1.
        -13    1    3    3    0    0 -0.74709165748E+02 -0.34755540113E+02  0.42086184300E+02  0.92523801934E+02  0.00000000000E+00 0. -1.
         13    1    3    3    0    0  0.23123063247E+02 -0.41268190645E+01 -0.37224396984E+01  0.23781573683E+02  0.00000000000E+00 0.  1.
          2    1    1    2  501    0 -0.60871582997E+02  0.13931849829E+03  0.11787936371E+03  0.19238123082E+03  0.00000000000E+00 0. -1.
<scales pt_clust_5="13000.00000" pt_clust_6="13000.00000" pt_clust_7="13000.00000" pt_clust_8="13000.00000" pt_clust_9="148.04987"></scales>
<clustering>
<clus scale="   88.782">  7  8 -1 -1</clus>
<clus scale="  103.686">  5  6 -1 -1</clus>
<clus scale="  109.796">  2  7  1 -1</clus>
<clus scale="  148.050">  1  9  2 -1</clus>
<clus scale="  148.050">  1  5  2 -1</clus>
</clustering>
</event>
<event>
 9    1  0.7586638E-005  0.1189888E+03  0.7546771E-02  0.1247960E+00
         21   -1    0    0  501  502  0.00000000000E+00  0.00000000000E+00  0.15207396068E+03  0.15207396068E+03  0.00000000000E+00 0. -1.
          3   -1    0    0  502    0 -0.00000000000E+00 -0.00000000000E+00 -0.21845265640E+03  0.21845265640E+03  0.00000000000E+00 0. -1.
         23    2    1    2    0    0  0.48923473026E+02  0.34302132486E+02 -0.67320504666E+02  0.12865722079E+03  0.91926533742E+02 0.  0.
        -24    2    1    2    0    0 -0.73931427613E+02 -0.55275178814E+02 -0.84969806766E+02  0.14996688175E+03  0.82152274343E+02 0.  0.
         11    1    4    4    0    0 -0.24017959416E+02  0.26710826932E+01 -0.67251644241E+02  0.71461742984E+02  0.00000000000E+00 0. -1.
        -12    1    4    4    0    0 -0.49913468197E+02 -0.57946261507E+02 -0.17718162525E+02  0.78505138770E+02  0.00000000000E+00 0.  1.
        -11    1    3    3    0    0  0.38135327920E+02  0.76919967949E+01 -0.86008378677E+02  0.94397623132E+02  0.00000000000E+00 0. -1.
         11    1    3    3    0    0  0.10788145106E+02  0.26610135691E+02  0.18687874011E+02  0.34259597653E+02  0.00000000000E+00 0.  1.
          4    1    1    2  501    0  0.25007954587E+02  0.20973046328E+02  0.85911615711E+02  0.91902514541E+02  0.00000000000E+00 0. -1.
<scales pt_clust_5="13000.00000" pt_clust_6="13000.00000" pt_clust_7="13000.00000" pt_clust_8="13000.00000" pt_clust_9="32.63842"></scales>
<clustering>
<clus scale="   32.638">  1  9  2 -1</clus>
<clus scale="   82.152">  5  6 -1 -1</clus>
<clus scale="   91.927">  7  8 -1 -1</clus>
<clus scale="  111.610">  1  5  2 -1</clus>
<clus scale="   32.638">  1  5  2 -1</clus>
</clustering>
</event>
<event>
 9    1  0.7586638E-005  0.2523382E+03  0.7546771E-02  0.1112476E+00
          1   -1    0    0  502    0 -0.00000000000E+00  0.00000000000E+00  0.37731950045E+03  0.37731950045E+03  0.00000000000E+00 0. -1.
         21   -1    0    0  501  502  0.00000000000E+00 -0.00000000000E+00 -0.50664981990E+03  0.50664981990E+03  0.00000000000E+00 0. -1.
         23    2    1    2    0    0  0.19467783940E+02  0.23021134964E+03  0.12193292097E+03  0.27683396498E+03  0.91614119209E+02 0.  0.
        -24    2    1    2    0    0 -0.23264721160E+03 -0.19782330120E+03 -0.65099757019E+02  0.32226468889E+03  0.79735611738E+02 0.  0.
         11    1    4    4    0    0 -0.21925527583E+03 -0.19668225275E+03 -0.44820286404E+02  0.29793563499E+03  0.00000000000E+00 0. -1.
        -12    1    4    4    0    0 -0.13391935778E+02 -0.11410484526E+01 -0.20279470615E+02  0.24329053905E+02  0.00000000000E+00 0.  1.
        -11    1    3    3    0    0  0.38334914695E+02  0.40860346184E+02  0.12798967556E+02  0.57471272349E+02  0.00000000000E+00 0.  1.
         11    1    3    3    0    0 -0.18867130755E+02  0.18935100346E+03  0.10913395341E+03  0.21936269264E+03  0.00000000000E+00 0. -1.
          2    1    1    2  501    0  0.21317942766E+03 -0.32388048441E+02 -0.18616348340E+03  0.28487066646E+03  0.00000000000E+00 0. -1.
<scales pt_clust_5="13000.00000" pt_clust_6="13000.00000" pt_clust_7="13000.00000" pt_clust_8="13000.00000" pt_clust_9="215.62573"></scales>
<clustering>
<clus scale="   79.736">  5  6 -1 -1</clus>
<clus scale="   91.614">  7  8 -1 -1</clus>
<clus scale="  215.626">  2  9  1 -1</clus>
<clus scale="  248.272">  2  5  1 -1</clus>
<clus scale="  215.626">  2  5  1 -1</clus>
</clustering>
</event>
<event>
 9    1  0.7586638E-005  0.2235064E+03  0.7546771E-02  0.1131557E+00
         21   -1    0    0  501  502  0.00000000000E+00  0.00000000000E+00  0.78603859063E+02  0.78603859063E+02  0.00000000000E+00 0. -1.
          1   -1    0    0  502    0 -0.00000000000E+00 -0.00000000000E+00 -0.11474856993E+04  0.11474856993E+04  0.00000000000E+00 0. -1.
        -24    2    1    2    0    0 -0.25356894071E+03  0.62944176821E+02 -0.71886576363E+03  0.76945129011E+03  0.83833911129E+02 0.  0.
         23    2    1    2    0    0  0.12412262608E+03 -0.57565679785E+02 -0.17338883693E+03  0.23758928195E+03  0.87548525586E+02 0.  0.
         11    1    3    3    0    0 -0.24229986866E+03  0.51896220709E+02 -0.70846759758E+03  0.75055231723E+03  0.00000000000E+00 0. -1.
        -12    1    3    3    0    0 -0.11269072041E+02  0.11047956112E+02 -0.10398166050E+02  0.18898972885E+02  0.00000000000E+00 0.  1.
        -13    1    4    4    0    0  0.72353206375E+02 -0.62005276597E+02 -0.15599609498E+03  0.18279612263E+03  0.00000000000E+00 0. -1.
         13    1    4    4    0    0  0.51769419700E+02  0.44395968123E+01 -0.17392741951E+02  0.54793159323E+02  0.00000000000E+00 0.  1.
          2    1    1    2  501    0  0.12944631463E+03 -0.53784970365E+01 -0.17662723967E+03  0.21904898629E+03  0.00000000000E+00 0. -1.
<scales pt_clust_5="13000.00000" pt_clust_6="13000.00000" pt_clust_7="13000.00000" pt_clust_8="13000.00000" pt_clust_9="129.55800"></scales>
<clustering>
<clus scale="   83.834">  5  6 -1 -1</clus>
<clus scale="   87.549">  7  8 -1 -1</clus>
<clus scale="  129.558">  1  9  2 -1</clus>
<clus scale="  222.078">  2  5  1 -1</clus>
<clus scale="  129.558">  1  5  2 -1</clus>
</clustering>
</event>
<event>
 9    1  0.7586638E-005  0.1046169E+03  0.7546771E-02  0.1275533E+00
         21   -1    0    0  501  502  0.00000000000E+00  0.00000000000E+00  0.40457681389E+03  0.40457681389E+03  0.00000000000E+00 0. -1.
          1   -1    0    0  502    0 -0.00000000000E+00 -0.00000000000E+00 -0.13227043441E+03  0.13227043441E+03  0.00000000000E+00 0. -1.
         23    2    1    2    0    0 -0.37936659952E+01 -0.50046388155E+02 -0.87293151152E+02  0.13624524497E+03  0.91780388259E+02 0.  0.
        -24    2    1    2    0    0 -0.37303608004E+02  0.50809512102E+02  0.12276431450E+03  0.16022628100E+03  0.81413871789E+02 0.  0.
         13    1    4    4    0    0 -0.58294274340E+02  0.13930492263E+02  0.63294219922E+02  0.87169027246E+02  0.00000000000E+00 0. -1.
        -14    1    4    4    0    0  0.20990666337E+02  0.36879019839E+02  0.59470094576E+02  0.73057253756E+02  0.00000000000E+00 0.  1.
        -13    1    3    3    0    0 -0.32546858471E+02  0.12852117217E+02 -0.23449417956E+02  0.42123035453E+02  0.00000000000E+00 0.  1.
         13    1    3    3    0    0  0.28753192475E+02 -0.62898505372E+02 -0.63843733196E+02  0.94122209514E+02  0.00000000000E+00 0. -1.
          2    1    1    2  501    0  0.41097273999E+02 -0.76312394686E+00  0.23683521613E+03  0.24037572233E+03  0.00000000000E+00 0. -1.
<scales pt_clust_5="13000.00000" pt_clust_6="13000.00000" pt_clust_7="13000.00000" pt_clust_8="13000.00000" pt_clust_9="41.10436"></scales>
<clustering>
<clus scale="   41.104">  1  9  2 -1</clus>
<clus scale="   81.414">  5  6 -1 -1</clus>
<clus scale="   91.780">  7  8 -1 -1</clus>
<clus scale="   95.652">  1  5  2 -1</clus>
<clus scale="   41.104">  1  5  2 -1</clus>
</clustering>
</event>
<event>
 9    1  0.7586638E-005  0.1469894E+03  0.7546771E-02  0.1216773E+00
          1   -1    0    0  502    0 -0.00000000000E+00  0.00000000000E+00  0.11527593510E+04  0.11527593510E+04  0.00000000000E+00 0. -1.
         21   -1    0    0  501  502  0.00000000000E+00 -0.00000000000E+00 -0.39357559019E+02  0.39357559019E+02  0.00000000000E+00 0. -1.
         23    2    1    2    0    0  0.63938960248E+02 -0.19921520818E+02  0.14219353611E+03  0.18128791119E+03  0.90339622556E+02 0.  0.
        -24    2    1    2    0    0 -0.11110686248E+03 -0.84583007759E+02  0.47185276975E+03  0.49847959753E+03  0.79610632059E+02 0.  0.
         11    1    4    4    0    0 -0.10389485044E+03 -0.56263907464E+02  0.43848507930E+03  0.45412435742E+03  0.00000000000E+00 0. -1.
        -12    1    4    4    0    0 -0.72120120467E+01 -0.28319100295E+02  0.33367690453E+02  0.44355240112E+02  0.00000000000E+00 0.  1.
        -11    1    3    3    0    0  0.28939598058E+02 -0.47448364814E+02  0.36215381877E+02  0.66335522488E+02  0.00000000000E+00 0. -1.
         11    1    3    3    0    0  0.34999362190E+02  0.27526843996E+02  0.10597815423E+03  0.11495238870E+03  0.00000000000E+00 0.  1.
          2    1    1    2  501    0  0.47167902235E+02  0.10450452858E+03  0.49935548615E+03  0.51234940133E+03  0.00000000000E+00 0. -1.
<scales pt_clust_5="13000.00000" pt_clust_6="13000.00000" pt_clust_7="13000.00000" pt_clust_8="13000.00000" pt_clust_9="123.56399"></scales>
<clustering>
<clus scale="   79.611">  5  6 -1 -1</clus>
<clus scale="   90.340">  7  8 -1 -1</clus>
<clus scale="  112.456">  1  7  2 -1</clus>
<clus scale="  123.564">  2  9  1 -1</clus>
<clus scale="  123.564">  2  5  1 -1</clus>
</clustering>
</event>
<event>
 9    1  0.7586638E-005  0.1478553E+03  0.7546771E-02  0.1205283E+00
         21   -1    0    0  501  502  0.00000000000E+00  0.00000000000E+00  0.60203138835E+03  0.60203138835E+03  0.00000000000E+00 0.  1.
         -2   -1    0    0    0  501 -0.00000000000E+00 -0.00000000000E+00 -0.62121661326E+02  0.62121661326E+02  0.00000000000E+00 0.  1.
         23    2    1    2    0    0 -0.55644235900E+02 -0.86222259944E+02  0.13218424665E+03  0.19037110532E+03  0.90763007773E+02 0.  0.
        -24    2    1    2    0    0  0.35901169841E+02  0.13375132510E+03  0.18119869016E+03  0.24148216524E+03  0.79387403609E+02 0.  0.
         11    1    4    4    0    0  0.24566516887E+02  0.66193098407E+01  0.61269394902E+02  0.66342051267E+02  0.00000000000E+00 0. -1.
        -12    1    4    4    0    0  0.11334652954E+02  0.12713201526E+03  0.11992929526E+03  0.17514011397E+03  0.00000000000E+00 0.  1.
        -13    1    3    3    0    0 -0.53930033211E+02 -0.59057270529E+02  0.14070810558E+03  0.16184863502E+03  0.00000000000E+00 0.  1.
         13    1    3    3    0    0 -0.17142026888E+01 -0.27164989415E+02 -0.85238589270E+01  0.28522470296E+02  0.00000000000E+00 0. -1.
         -1    1    1    2    0  502  0.19743066058E+02 -0.47529065156E+02  0.22652679022E+03  0.23229977912E+03  0.00000000000E+00 0.  1.
<scales pt_clust_5="13000.00000" pt_clust_6="13000.00000" pt_clust_7="13000.00000" pt_clust_8="13000.00000" pt_clust_9="51.46650"></scales>
<clustering>
<clus scale="   51.467">  1  9  2 -1</clus>
<clus scale="   79.387">  5  6 -1 -1</clus>
<clus scale="   90.763">  7  8 -1 -1</clus>
<clus scale="  141.158">  1  5  2 -1</clus>
<clus scale="   51.467">  1  5  2 -1</clus>
</clustering>
</event>
<event>
 9    1  0.7586638E-005  0.1230468E+03  0.7546771E-02  0.1255616E+00
         21   -1    0    0  501  502  0.00000000000E+00  0.00000000000E+00  0.10614881118E+03  0.10614881118E+03  0.00000000000E+00 0.  1.
         -2   -1    0    0    0  501 -0.00000000000E+00 -0.00000000000E+00 -0.22953847630E+03  0.22953847630E+03  0.00000000000E+00 0.  1.
        -24    2    1    2    0    0  0.88461079256E+01  0.30050381637E+02 -0.90913791289E+02  0.12559425818E+03  0.80791838568E+02 0.  0.
         23    2    1    2    0    0  0.74183232249E+02 -0.18244332863E+01 -0.31599738203E+02  0.12239272654E+03  0.92059521791E+02 0.  0.
         13    1    3    3    0    0  0.13828872852E+02 -0.21253615630E+02 -0.56776987950E+01  0.25984421589E+02  0.00000000000E+00 0. -1.
        -14    1    3    3    0    0 -0.49827649263E+01  0.51303997267E+02 -0.85236092494E+02  0.99609836590E+02  0.00000000000E+00 0.  1.
        -11    1    4    4    0    0  0.81312166867E+02 -0.30809063572E+02 -0.14995663545E+02  0.88236822268E+02  0.00000000000E+00 0.  1.
         11    1    4    4    0    0 -0.71289346176E+01  0.28984630286E+02 -0.16604074658E+02  0.34155904275E+02  0.00000000000E+00 0. -1.
         -1    1    1    2    0  502 -0.83029340175E+02 -0.28225948350E+02 -0.87613562593E+00  0.87700302758E+02  0.00000000000E+00 0.  1.
<scales pt_clust_5="13000.00000" pt_clust_6="13000.00000" pt_clust_7="13000.00000" pt_clust_8="13000.00000" pt_clust_9="81.64284"></scales>
<clustering>
<clus scale="   80.792">  5  6 -1 -1</clus>
<clus scale="   86.652">  2  5  1 -1</clus>
<clus scale="   81.643">  1  9  2 -1</clus>
<clus scale="   92.060">  7  8 -1 -1</clus>
<clus scale="   81.643">  1  5  2 -1</clus>
</clustering>
</event>
<event>
 9    1  0.7586638E-005  0.9404752E+02  0.7546771E-02  0.1299177E+00
         21   -1    0    0  501  502  0.00000000000E+00  0.00000000000E+00  0.16415423286E+03  0.16415423286E+03  0.00000000000E+00 0.  1.
          1   -1    0    0  502    0 -0.00000000000E+00 -0.00000000000E+00 -0.21231304514E+03  0.21231304514E+03  0.00000000000E+00 0. -1.
         23    2    1    2    0    0  0.26270562859E+00 -0.16531678780E+02 -0.13563748352E+03  0.16365258412E+03  0.90062622300E+02 0.  0.
        -24    2    1    2    0    0 -0.35036588330E+02  0.61141379921E+02 -0.24410808345E+01  0.10658470674E+03  0.79928155082E+02 0.  0.
         11    1    4    4    0    0  0.23058396222E+02  0.12259676802E+02 -0.14246925033E+02  0.29748347593E+02  0.00000000000E+00 0. -1.
        -12    1    4    4    0    0 -0.58094984552E+02  0.48881703119E+02  0.11805844198E+02  0.76836359148E+02  0.00000000000E+00 0.  1.
        -13    1    3    3    0    0 -0.23427418940E+02  0.17029321260E+02 -0.11319596776E+03  0.11684249594E+03  0.00000000000E+00 0. -1.
         13    1    3    3    0    0  0.23690124569E+02 -0.33561000040E+02 -0.22441515767E+02  0.46810088183E+02  0.00000000000E+00 0.  1.
          2    1    1    2  501    0  0.34773882702E+02 -0.44609701141E+02  0.89919752077E+02  0.10622998714E+03  0.00000000000E+00 0. -1.
<scales pt_clust_5="13000.00000" pt_clust_6="13000.00000" pt_clust_7="13000.00000" pt_clust_8="13000.00000" pt_clust_9="56.56190"></scales>
<clustering>
<clus scale="   56.562">  1  9  2 -1</clus>
<clus scale="   79.928">  5  6 -1 -1</clus>
<clus scale="   84.393">  1  5  2 -1</clus>
<clus scale="   90.063">  7  8 -1 -1</clus>
<clus scale="   56.562">  1  5  2 -1</clus>
</clustering>
</event>
<event>
 9    1  0.7586638E-005  0.1403141E+03  0.7546771E-02  0.1229275E+00
         -2   -1    0    0    0  501 -0.00000000000E+00  0.00000000000E+00  0.26040272563E+03  0.26040272563E+03  0.00000000000E+00 0.  1.
         21   -1    0    0  501  502  0.00000000000E+00 -0.00000000000E+00 -0.22433685297E+03  0.22433685297E+03  0.00000000000E+00 0.  1.
        -24    2    1    2    0    0  0.40959925479E+02  0.43035976149E+02  0.11233136703E+03  0.15010616570E+03  0.79898149077E+02 0.  0.
         23    2    1    2    0    0  0.25609547758E+02 -0.12896837068E+03  0.52670063101E+02  0.16599104225E+03  0.86545947258E+02 0.  0.
         11    1    3    3    0    0  0.86571917476E+01  0.47693930146E+02  0.10641819666E+03  0.11693797724E+03  0.00000000000E+00 0. -1.
        -12    1    3    3    0    0  0.32302733732E+02 -0.46579539969E+01  0.59131703677E+01  0.33168188461E+02  0.00000000000E+00 0.  1.
        -11    1    4    4    0    0  0.52284513551E+02 -0.44195867100E+02  0.20273767543E+02  0.71400074765E+02  0.00000000000E+00 0.  1.
         11    1    4    4    0    0 -0.26674965793E+02 -0.84772503582E+02  0.32396295557E+02  0.94590967484E+02  0.00000000000E+00 0. -1.
         -1    1    1    2    0  502 -0.66569473237E+02  0.85932394533E+02 -0.12893555747E+03  0.16864237064E+03  0.00000000000E+00 0.  1.
<scales pt_clust_5="13000.00000" pt_clust_6="13000.00000" pt_clust_7="13000.00000" pt_clust_8="13000.00000" pt_clust_9="110.44387"></scales>
<clustering>
<clus scale="   79.898">  5  6 -1 -1</clus>
<clus scale="   86.546">  7  8 -1 -1</clus>
<clus scale="   99.567">  1  5  2 -1</clus>
<clus scale="  110.444">  2  9  1 -1</clus>
<clus scale="  110.444">  2  5  1 -1</clus>
</clustering>
</event>
<event>
 9    1  0.7586638E-005  0.1678595E+03  0.7546771E-02  0.1186614E+00
         -2   -1    0    0    0  501 -0.00000000000E+00  0.00000000000E+00  0.40600350287E+03  0.40600350287E+03  0.00000000000E+00 0.  1.
         21   -1    0    0  501  502  0.00000000000E+00 -0.00000000000E+00 -0.24839064388E+03  0.24839064388E+03  0.00000000000E+00 0.  1.
         23    2    1    2    0    0 -0.11106387373E+03 -0.16363857552E+01  0.17272070184E+03  0.22558930120E+03  0.93382172616E+02 0.  0.
        -24    2    1    2    0    0  0.39447069692E+02 -0.13552717544E+03  0.13643399285E+03  0.21222290469E+03  0.80626548228E+02 0.  0.
         13    1    4    4    0    0  0.41407061875E+02 -0.53662908556E+02  0.21516011052E+02  0.71113931543E+02  0.00000000000E+00 0. -1.
        -14    1    4    4    0    0 -0.19599921837E+01 -0.81864266884E+02  0.11491798180E+03  0.14110897314E+03  0.00000000000E+00 0.  1.
        -11    1    3    3    0    0 -0.68514814368E+02  0.19100793657E+02  0.16218674906E+03  0.17709788728E+03  0.00000000000E+00 0.  1.
         11    1    3    3    0    0 -0.42549059367E+02 -0.20737179413E+02  0.10533952781E+02  0.48491413922E+02  0.00000000000E+00 0. -1.
         -1    1    1    2    0  502  0.71616804043E+02  0.13716356120E+03 -0.15154183570E+03  0.21658194087E+03  0.00000000000E+00 0.  1.
<scales pt_clust_5="13000.00000" pt_clust_6="13000.00000" pt_clust_7="13000.00000" pt_clust_8="13000.00000" pt_clust_9="147.22830"></scales>
<clustering>
<clus scale="   80.627">  5  6 -1 -1</clus>
<clus scale="   93.382">  7  8 -1 -1</clus>
<clus scale="  145.114">  1  7  2 -1</clus>
<clus scale="  147.228">  2  9  1 -1</clus>
<clus scale="  147.228">  2  5  1 -1</clus>
</clustering>
</event>
<event>
 9    1  0.7586638E-005  0.1575715E+03  0.7546771E-02  0.1207467E+00
         -2   -1    0    0    0  501 -0.00000000000E+00  0.00000000000E+00  0.33953074317E+03  0.33953074317E+03  0.00000000000E+00 0.  1.
         21   -1    0    0  501  502  0.00000000000E+00 -0.00000000000E+00 -0.16915086838E+03  0.16915086838E+03  0.00000000000E+00 0.  1.
        -24    2    1    2    0    0  0.78763270718E+02  0.19296892536E+01 -0.64857480401E+02  0.12879840993E+03  0.78582193419E+02 0.  0.
         23    2    1    2    0    0  0.82493178170E+02  0.13134676985E+02  0.15899428176E+03  0.20087598477E+03  0.89968524708E+02 0.  0.
         13    1    3    3    0    0  0.14994852203E+02 -0.33740998135E+02 -0.31253118888E+02  0.48374145863E+02  0.00000000000E+00 0. -1.
        -14    1    3    3    0    0  0.63768418515E+02  0.35670687388E+02 -0.33604361513E+02  0.80424264071E+02  0.00000000000E+00 0.  1.
        -13    1    4    4    0    0  0.93875597388E+02 -0.92086899653E+01  0.14239767453E+03  0.17080551943E+03  0.00000000000E+00 0.  1.
         13    1    4    4    0    0 -0.11382419218E+02  0.22343366950E+02  0.16596607233E+02  0.30070465337E+02  0.00000000000E+00 0. -1.
         -1    1    1    2    0  502 -0.16125644889E+03 -0.15064366238E+02  0.76243073425E+02  0.17900721685E+03  0.00000000000E+00 0.  1.
<scales pt_clust_5="13000.00000" pt_clust_6="13000.00000" pt_clust_7="13000.00000" pt_clust_8="13000.00000" pt_clust_9="129.36163"></scales>
<clustering>
<clus scale="   78.582">  5  6 -1 -1</clus>
<clus scale="   89.969">  7  8 -1 -1</clus>
<clus scale="  111.277">  1  5  2 -1</clus>
<clus scale="  129.362">  2  9  1 -1</clus>
<clus scale="  129.362">  2  5  1 -1</clus>
</clustering>
</event>
<event>
 9    1  0.7586638E-005  0.1734404E+03  0.7546771E-02  0.1189996E+00
          1   -1    0    0  502    0 -0.00000000000E+00  0.00000000000E+00  0.37332549709E+03  0.37332549709E+03  0.00000000000E+00 0. -1.
         21   -1    0    0  501  502  0.00000000000E+00 -0.00000000000E+00 -0.21394991988E+03  0.21394991988E+03  0.00000000000E+00 0. -1.
         23    2    1    2    0    0 -0.12618223683E+02 -0.81941174859E+02 -0.71233585529E+02  0.14132032174E+03  0.89574739321E+02 0.  0.
        -24    2    1    2    0    0  0.16359077057E+03  0.58113636033E+02  0.22199854505E+03  0.29287144405E+03  0.79694377655E+02 0.  0.
         13    1    4    4    0    0  0.14694485783E+03  0.49883550304E+02  0.14066957094E+03  0.20944948800E+03  0.00000000000E+00 0. -1.
        -14    1    4    4    0    0  0.16645912732E+02  0.82300857283E+01  0.81328974114E+02  0.83421956056E+02  0.00000000000E+00 0.  1.
        -13    1    3    3    0    0 -0.28678341680E+02 -0.10604601049E+02  0.98610673280E+01  0.32127021240E+02  0.00000000000E+00 0.  1.
         13    1    3    3    0    0  0.16060117996E+02 -0.71336573810E+02 -0.81094652857E+02  0.10919330050E+03  0.00000000000E+00 0. -1.
          2    1    1    2  501    0 -0.15097254688E+03  0.23827538827E+02  0.86106176944E+01  0.15308365117E+03  0.00000000000E+00 0. -1.
<scales pt_clust_5="13000.00000" pt_clust_6="13000.00000" pt_clust_7="13000.00000" pt_clust_8="13000.00000" pt_clust_9="154.04669"></scales>
<clustering>
<clus scale="   79.694">  5  6 -1 -1</clus>
<clus scale="   89.575">  7  8 -1 -1</clus>
<clus scale="  122.054">  1  7  2 -1</clus>
<clus scale="  154.047">  2  9  1 -1</clus>
<clus scale="  154.047">  2  5  1 -1</clus>
</clustering>
</event>
<event>
 9    1  0.7586638E-005  0.9815222E+02  0.7546771E-02  0.1290234E+00
         21   -1    0    0  501  502  0.00000000000E+00  0.00000000000E+00  0.11688719119E+03  0.11688719119E+03  0.00000000000E+00 0. -1.
          1   -1    0    0  502    0 -0.00000000000E+00 -0.00000000000E+00 -0.10919808862E+03  0.10919808862E+03  0.00000000000E+00 0. -1.
         23    2    1    2    0    0 -0.14475731781E+02 -0.23913512307E+02 -0.18854632214E+01  0.95401421080E+02  0.91194699906E+02 0.  0.
        -24    2    1    2    0    0  0.74870000287E+00  0.50130365069E+02  0.24729993326E+02  0.97435674512E+02  0.79803032800E+02 0.  0.
         13    1    4    4    0    0  0.20192508587E+02  0.41841124760E+02 -0.17952072696E+02  0.49806566217E+02  0.00000000000E+00 0. -1.
        -14    1    4    4    0    0 -0.19443808584E+02  0.82892403090E+01  0.42682066022E+02  0.47629108296E+02  0.00000000000E+00 0.  1.
        -11    1    3    3    0    0  0.17937170474E+02 -0.10165693766E+02 -0.39080432791E+02  0.44185559196E+02  0.00000000000E+00 0.  1.
         11    1    3    3    0    0 -0.32412902255E+02 -0.13747818542E+02  0.37194969569E+02  0.51215861884E+02  0.00000000000E+00 0. -1.
          2    1    1    2  501    0  0.13727031778E+02 -0.26216852762E+02 -0.15155427527E+02  0.33248184217E+02  0.00000000000E+00 0. -1.
<scales pt_clust_5="13000.00000" pt_clust_6="13000.00000" pt_clust_7="13000.00000" pt_clust_8="13000.00000" pt_clust_9="29.59317"></scales>
<clustering>
<clus scale="   29.593">  1  9  2 -1</clus>
<clus scale="   79.803">  5  6 -1 -1</clus>
<clus scale="   87.669">  1  5  2 -1</clus>
<clus scale="   91.195">  7  8 -1 -1</clus>
<clus scale="   29.593">  1  5  2 -1</clus>
</clustering>
</event>
<event>
 9    1  0.7586638E-005  0.1534359E+03  0.7546771E-02  0.1200782E+00
         -2   -1    0    0    0  501 -0.00000000000E+00  0.00000000000E+00  0.90951146925E+03  0.90951146925E+03  0.00000000000E+00 0.  1.
         21   -1    0    0  501  502  0.00000000000E+00 -0.00000000000E+00 -0.65086135779E+02  0.65086135779E+02  0.00000000000E+00 0.  1.
         23    2    1    2    0    0  0.41333324727E+02  0.11197338636E+03  0.54595240956E+03  0.56778380265E+03  0.10033907548E+03 0.  0.
        -24    2    1    2    0    0 -0.10580704466E+03 -0.64369776746E+02  0.64295058716E+02  0.15930170821E+03  0.76841270196E+02 0.  0.
         13    1    4    4    0    0 -0.75175499725E+02 -0.72748501583E+02  0.71532769826E+02  0.12673057011E+03  0.00000000000E+00 0. -1.
        -14    1    4    4    0    0 -0.30631544935E+02  0.83787248377E+01 -0.72377111095E+01  0.32571138099E+02  0.00000000000E+00 0.  1.
        -11    1    3    3    0    0  0.70388643279E+02  0.96751554837E+02  0.37206156464E+03  0.39082634551E+03  0.00000000000E+00 0. -1.
         11    1    3    3    0    0 -0.29055318551E+02  0.15221831523E+02  0.17389084492E+03  0.17695745714E+03  0.00000000000E+00 0.  1.
         -1    1    1    2    0  502  0.64473719932E+02 -0.47603609614E+02  0.23417786520E+03  0.24751209416E+03  0.00000000000E+00 0.  1.
<scales pt_clust_5="13000.00000" pt_clust_6="13000.00000" pt_clust_7="13000.00000" pt_clust_8="13000.00000" pt_clust_9="80.14344"></scales>
<clustering>
<clus scale="   76.841">  5  6 -1 -1</clus>
<clus scale="   80.143">  2  9  1 -1</clus>
<clus scale="  100.339">  7  8 -1 -1</clus>
<clus scale="  139.209">  2  5  1 -1</clus>
<clus scale="   80.143">  2  5  1 -1</clus>
</clustering>
</event>
<event>
 9    1  0.7586638E-005  0.1399752E+03  0.7546771E-02  0.1224749E+00
          1   -1    0    0  502    0 -0.00000000000E+00  0.00000000000E+00  0.40346288390E+03  0.40346288390E+03  0.00000000000E+00 0. -1.
         21   -1    0    0  501  502  0.00000000000E+00 -0.00000000000E+00 -0.11900553031E+03  0.11900553031E+03  0.00000000000E+00 0. -1.
         23    2    1    2    0    0 -0.26840622356E+02 -0.56328363803E+02  0.11223442564E+03  0.15726844829E+03  0.90793694452E+02 0.  0.
        -24    2    1    2    0    0 -0.57979322003E+02 -0.17931012908E+02  0.21711644329E+03  0.24385621573E+03  0.92968709779E+02 0.  0.
         11    1    4    4    0    0 -0.60089234627E+02 -0.26880686343E+02  0.22328329446E+03  0.23278470096E+03  0.00000000000E+00 0. -1.
        -12    1    4    4    0    0  0.21099126235E+01  0.89496734355E+01 -0.61668511697E+01  0.11071514767E+02  0.00000000000E+00 0.  1.
        -13    1    3    3    0    0 -0.29454165622E+02 -0.67277514040E+01 -0.43689278940E+01  0.30527005133E+02  0.00000000000E+00 0. -1.
         13    1    3    3    0    0  0.26135432658E+01 -0.49600612399E+02  0.11660335353E+03  0.12674144316E+03  0.00000000000E+00 0.  1.
          2    1    1    2  501    0  0.84819944360E+02  0.74259376711E+02 -0.44893515336E+02  0.12134375019E+03  0.00000000000E+00 0. -1.
<scales pt_clust_5="13000.00000" pt_clust_6="13000.00000" pt_clust_7="13000.00000" pt_clust_8="13000.00000" pt_clust_9="104.64169"></scales>
<clustering>
<clus scale="   90.794">  7  8 -1 -1</clus>
<clus scale="   92.969">  5  6 -1 -1</clus>
<clus scale="  110.167">  1  7  2 -1</clus>
<clus scale="  104.642">  2  9  1 -1</clus>
<clus scale="  104.642">  2  5  1 -1</clus>
</clustering>
</event>
<event>
 9    1  0.7586638E-005  0.9700411E+02  0.7546771E-02  0.1291537E+00
         21   -1    0    0  501  502  0.00000000000E+00  0.00000000000E+00  0.21742180238E+03  0.21742180238E+03  0.00000000000E+00 0. -1.
         -2   -1    0    0    0  501 -0.00000000000E+00 -0.00000000000E+00 -0.36095790066E+03  0.36095790066E+03  0.00000000000E+00 0.  1.
        -24    2    1    2    0    0 -0.35211842061E+02 -0.35380134428E+01 -0.29265967907E+03  0.30551907554E+03  0.80248529023E+02 0.  0.
         23    2    1    2    0    0  0.79102481329E+02  0.75714777071E+02  0.11304002361E+03  0.18100260378E+03  0.89408979516E+02 0.  0.
         13    1    3    3    0    0 -0.24986641143E+02 -0.36308198724E+00 -0.18356100234E+02  0.31006619938E+02  0.00000000000E+00 0. -1.
        -14    1    3    3    0    0 -0.10225200918E+02 -0.31749314555E+01 -0.27430357883E+03  0.27451245561E+03  0.00000000000E+00 0.  1.
        -11    1    4    4    0    0  0.66870373152E+02  0.25230638790E+02  0.19626296688E+02  0.74117632591E+02  0.00000000000E+00 0.  1.
         11    1    4    4    0    0  0.12232108177E+02  0.50484138281E+02  0.93413726925E+02  0.10688497119E+03  0.00000000000E+00 0. -1.
         -1    1    1    2    0  502 -0.43890639268E+02 -0.72176763628E+02  0.36083557168E+02  0.91858023716E+02  0.00000000000E+00 0.  1.
<scales pt_clust_5="13000.00000" pt_clust_6="13000.00000" pt_clust_7="13000.00000" pt_clust_8="13000.00000" pt_clust_9="84.47410"></scales>
<clustering>
<clus scale="   80.249">  5  6 -1 -1</clus>
<clus scale="   84.474">  1  9  2 -1</clus>
<clus scale="   88.632">  2  5  1 -1</clus>
<clus scale="   89.409">  7  8 -1 -1</clus>
<clus scale="   84.474">  1  5  2 -1</clus>
</clustering>
</event>
<event>
 9    1  0.7586638E-005  0.4108072E+03  0.7546771E-02  0.1072756E+00
          1   -1    0    0  502    0 -0.00000000000E+00  0.00000000000E+00  0.61280205994E+03  0.61280205994E+03  0.00000000000E+00 0. -1.
         21   -1    0    0  501  502  0.00000000000E+00 -0.00000000000E+00 -0.47327673621E+03  0.47327673621E+03  0.00000000000E+00 0. -1.
        -24    2    1    2    0    0  0.10806917241E+03  0.99460258565E+02 -0.13871566106E+03  0.21452938745E+03  0.72177104379E+02 0.  0.
         23    2    1    2    0    0  0.71856957100E+01  0.34880439604E+03  0.15567190896E+03  0.39275084610E+03  0.91122680781E+02 0.  0.
         11    1    3    3    0    0  0.22340524600E+02  0.54946524959E+02 -0.86039618136E+02  0.10450375847E+03  0.00000000000E+00 0. -1.
        -12    1    3    3    0    0  0.85728647813E+02  0.44513733606E+02 -0.52676042928E+02  0.11002562899E+03  0.00000000000E+00 0.  1.
        -13    1    4    4    0    0  0.45782065192E+02  0.13143443347E+03  0.71578499026E+02  0.15650715421E+03  0.00000000000E+00 0.  1.
         13    1    4    4    0    0 -0.38596369483E+02  0.21736996257E+03  0.84093409934E+02  0.23624369189E+03  0.00000000000E+00 0. -1.
          2    1    1    2  501    0 -0.11525486812E+03 -0.44826465461E+03  0.12256907584E+03  0.47879856260E+03  0.00000000000E+00 0. -1.
<scales pt_clust_5="13000.00000" pt_clust_6="13000.00000" pt_clust_7="13000.00000" pt_clust_8="13000.00000" pt_clust_9="400.57383"></scales>
<clustering>
<clus scale="   72.177">  5  6 -1 -1</clus>
<clus scale="   91.123">  7  8 -1 -1</clus>
<clus scale="  163.649">  1  5  2 -1</clus>
<clus scale="  400.574">  2  9  1 -1</clus>
<clus scale="  400.574">  2  5  1 -1</clus>
</clustering>
</event>
<event>
 9    1  0.7586638E-005  0.1844578E+03  0.7546771E-02  0.1164976E+00
         -4   -1    0    0    0  501 -0.00000000000E+00  0.00000000000E+00  0.47789560700E+02  0.47789560700E+02  0.00000000000E+00 0.  1.
         21   -1    0    0  501  502  0.00000000000E+00 -0.00000000000E+00 -0.15751170439E+04  0.15751170439E+04  0.00000000000E+00 0.  1.
        -24    2    1    2    0    0  0.19630163706E+03  0.45025519681E+02 -0.44120722583E+03  0.49132186030E+03  0.78560321704E+02 0.  0.
         23    2    1    2    0    0 -0.70271702910E+02 -0.12296732414E+03 -0.53624767369E+03  0.56209521194E+03  0.91270941222E+02 0.  0.
         11    1    3    3    0    0  0.33110265806E+02 -0.18367236238E+02 -0.11545148234E+03  0.12150181004E+03  0.00000000000E+00 0. -1.
        -12    1    3    3    0    0  0.16319137126E+03  0.63392755919E+02 -0.32575574350E+03  0.36982005026E+03  0.00000000000E+00 0.  1.
        -13    1    4    4    0    0 -0.14279383225E+02 -0.69498399371E+02 -0.12596972564E+03  0.14457627772E+03  0.00000000000E+00 0.  1.
         13    1    4    4    0    0 -0.55992319686E+02 -0.53468924772E+02 -0.41027794804E+03  0.41751893422E+03  0.00000000000E+00 0. -1.
         -3    1    1    2    0  502 -0.12602993415E+03  0.77941804463E+02 -0.54987258364E+03  0.56948953232E+03  0.00000000000E+00 0.  1.
<scales pt_clust_5="13000.00000" pt_clust_6="13000.00000" pt_clust_7="13000.00000" pt_clust_8="13000.00000" pt_clust_9="148.18390"></scales>
<clustering>
<clus scale="   78.560">  5  6 -1 -1</clus>
<clus scale="   91.271">  7  8 -1 -1</clus>
<clus scale="  148.184">  2  9  1 -1</clus>
<clus scale="  178.511">  1  5  2 -1</clus>
<clus scale="  148.184">  2  5  1 -1</clus>
</clustering>
</event>
<event>
 9    1  0.7586638E-005  0.1094404E+03  0.7546771E-02  0.1266732E+00
         -2   -1    0    0    0  501 -0.00000000000E+00  0.00000000000E+00  0.10401925711E+04  0.10401925711E+04  0.00000000000E+00 0.  1.
         21   -1    0    0  501  502  0.00000000000E+00 -0.00000000000E+00 -0.54680444846E+02  0.54680444846E+02  0.00000000000E+00 0.  1.
        -24    2    1    2    0    0 -0.27542393330E+02  0.55677463082E+02  0.71689477607E+03  0.72413098341E+03  0.81049354439E+02 0.  0.
         23    2    1    2    0    0  0.31097901734E+02 -0.33819418402E+02  0.30823173149E+03  0.32535794978E+03  0.93488836935E+02 0.  0.
         11    1    3    3    0    0 -0.15458984600E+01  0.59993476867E+02  0.27599676407E+03  0.28244613795E+03  0.00000000000E+00 0. -1.
        -12    1    3    3    0    0 -0.25996494870E+02 -0.43160137851E+01  0.44089801200E+03  0.44168484546E+03  0.00000000000E+00 0.  1.
        -11    1    4    4    0    0 -0.31168501743E+01  0.29079763504E+02  0.56228584771E+02  0.63379816549E+02  0.00000000000E+00 0.  1.
         11    1    4    4    0    0  0.34214751909E+02 -0.62899181905E+02  0.25200314672E+03  0.26197813323E+03  0.00000000000E+00 0. -1.
         -1    1    1    2    0  502 -0.35555084042E+01 -0.21858044681E+02 -0.39614381332E+02  0.45384082734E+02  0.00000000000E+00 0.  1.
<scales pt_clust_5="13000.00000" pt_clust_6="13000.00000" pt_clust_7="13000.00000" pt_clust_8="13000.00000" pt_clust_9="22.14533"></scales>
<clustering>
<clus scale="   22.145">  2  9  1 -1</clus>
<clus scale="   81.049">  5  6 -1 -1</clus>
<clus scale="   93.489">  7  8 -1 -1</clus>
<clus scale="   99.025">  1  5  2 -1</clus>
<clus scale="   22.145">  2  5  1 -1</clus>
</clustering>
</event>
<event>
 9    1  0.7586638E-005  0.1750365E+03  0.7546771E-02  0.1174271E+00
         21   -1    0    0  501  502  0.00000000000E+00  0.00000000000E+00  0.30518185073E+02  0.30518185073E+02  0.00000000000E+00 0. -1.
          1   -1    0    0  502    0 -0.00000000000E+00 -0.00000000000E+00 -0.11322057458E+04  0.11322057458E+04  0.00000000000E+00 0. -1.
         23    2    1    2    0    0  0.21047771915E+02  0.15528645140E+03 -0.64311051341E+03  0.66774407151E+03  0.87943856435E+02 0.  0.
        -24    2    1    2    0    0 -0.35060738573E+01 -0.14525384566E+03 -0.42958164325E+03  0.45963728156E+03  0.74933771780E+02 0.  0.
         11    1    4    4    0    0  0.13607634869E+02 -0.14515539833E+03 -0.37137963993E+03  0.39897129514E+03  0.00000000000E+00 0. -1.
        -12    1    4    4    0    0 -0.17113708727E+02 -0.98447328330E-01 -0.58202003318E+02  0.60665986421E+02  0.00000000000E+00 0.  1.
        -13    1    3    3    0    0  0.30120349295E+02  0.14318490814E+02 -0.70853116739E+02  0.78309761668E+02  0.00000000000E+00 0.  1.
         13    1    3    3    0    0 -0.90725773804E+01  0.14096796058E+03 -0.57225739667E+03  0.58943430984E+03  0.00000000000E+00 0. -1.
          2    1    1    2  501    0 -0.17541698057E+02 -0.10032605736E+02 -0.28995404056E+02  0.35342577792E+02  0.00000000000E+00 0. -1.
<scales pt_clust_5="13000.00000" pt_clust_6="13000.00000" pt_clust_7="13000.00000" pt_clust_8="13000.00000" pt_clust_9="20.20803"></scales>
<clustering>
<clus scale="   20.208">  1  9  2 -1</clus>
<clus scale="   74.934">  5  6 -1 -1</clus>
<clus scale="   87.944">  7  8 -1 -1</clus>
<clus scale="  168.875">  1  5  2 -1</clus>
<clus scale="   20.208">  1  5  2 -1</clus>
</clustering>
</event>
<event>
 9    1  0.7586638E-005  0.1278574E+03  0.7546771E-02  0.1234729E+00
         21   -1    0    0  501  502  0.00000000000E+00  0.00000000000E+00  0.75008924933E+02  0.75008924933E+02  0.00000000000E+00 0.  1.
          1   -1    0    0  502    0 -0.00000000000E+00 -0.00000000000E+00 -0.50245486418E+03  0.50245486418E+03  0.00000000000E+00 0. -1.
        -24    2    1    2    0    0 -0.61038965536E+02 -0.71786044841E+02 -0.40368697435E+03  0.42158545761E+03  0.76760232286E+02 0.  0.
         23    2    1    2    0    0  0.42992665319E+02  0.51360615538E+02 -0.44170779739E+02  0.12182676328E+03  0.91675625814E+02 0.  0.
         11    1    3    3    0    0 -0.75976350010E+02 -0.68305237896E+02 -0.30358416241E+03  0.32031446260E+03  0.00000000000E+00 0. -1.
        -12    1    3    3    0    0  0.14937384474E+02 -0.34808069452E+01 -0.10010281194E+03  0.10127099501E+03  0.00000000000E+00 0.  1.
        -11    1    4    4    0    0 -0.23369375686E+02  0.11734102314E+01 -0.28982833710E+02  0.37249285381E+02  0.00000000000E+00 0. -1.
         11    1    4    4    0    0  0.66362041005E+02  0.50187205306E+02 -0.15187946028E+02  0.84577477897E+02  0.00000000000E+00 0.  1.
          2    1    1    2  501    0  0.18046300218E+02  0.20425429303E+02  0.20411814839E+02  0.34051568228E+02  0.00000000000E+00 0. -1.
<scales pt_clust_5="13000.00000" pt_clust_6="13000.00000" pt_clust_7="13000.00000" pt_clust_8="13000.00000" pt_clust_9="27.25559"></scales>
<clustering>
<clus scale="   27.256">  1  9  2 -1</clus>
<clus scale="   76.760">  5  6 -1 -1</clus>
<clus scale="   91.676">  7  8 -1 -1</clus>
<clus scale="  117.623">  2  5  1 -1</clus>
<clus scale="   27.256">  1  5  2 -1</clus>
</clustering>
</event>
<event>
 9    1  0.7586638E-005  0.1027956E+03  0.7546771E-02  0.1280493E+00
         21   -1    0    0  501  502  0.00000000000E+00  0.00000000000E+00  0.35316467183E+03  0.35316467183E+03  0.00000000000E+00 0. -1.
          1   -1    0    0  502    0 -0.00000000000E+00 -0.00000000000E+00 -0.13181140160E+03  0.13181140160E+03  0.00000000000E+00 0. -1.
        -24    2    1    2    0    0  0.27920680980E+02 -0.43757129461E+02 -0.75961096598E+02  0.12223905047E+03  0.80486312239E+02 0.  0.
         23    2    1    2    0    0 -0.37395826419E+02 -0.10521170365E+02  0.56039550630E+02  0.11525076245E+03  0.92914822022E+02 0.  0.
         11    1    3    3    0    0  0.50283535925E+01 -0.58452956963E+02 -0.23608865208E+02  0.63240896847E+02  0.00000000000E+00 0. -1.
        -12    1    3    3    0    0  0.22892327387E+02  0.14695827502E+02 -0.52352231390E+02  0.58998153621E+02  0.00000000000E+00 0.  1.
        -13    1    4    4    0    0 -0.44093179030E+02  0.33832966763E+02  0.26767456114E+02  0.61687719878E+02  0.00000000000E+00 0.  1.
         13    1    4    4    0    0  0.66973526105E+01 -0.44354137128E+02  0.29272094516E+02  0.53563042573E+02  0.00000000000E+00 0. -1.
          2    1    1    2  501    0  0.94751454396E+01  0.54278299826E+02  0.24127481619E+03  0.24748626051E+03  0.00000000000E+00 0. -1.
<scales pt_clust_5="13000.00000" pt_clust_6="13000.00000" pt_clust_7="13000.00000" pt_clust_8="13000.00000" pt_clust_9="55.09911"></scales>
<clustering>
<clus scale="   55.099">  1  9  2 -1</clus>
<clus scale="   80.486">  5  6 -1 -1</clus>
<clus scale="   91.716">  2  5  1 -1</clus>
<clus scale="   92.915">  7  8 -1 -1</clus>
<clus scale="   55.099">  1  5  2 -1</clus>
</clustering>
</event>
<event>
 9    1  0.7586638E-005  0.1170674E+03  0.7546771E-02  0.1250525E+00
          1   -1    0    0  502    0 -0.00000000000E+00  0.00000000000E+00  0.10621728187E+04  0.10621728187E+04  0.00000000000E+00 0. -1.
         21   -1    0    0  501  502  0.00000000000E+00 -0.00000000000E+00 -0.17959667021E+02  0.17959667021E+02  0.00000000000E+00 0. -1.
         23    2    1    2    0    0  0.56330292053E+02  0.62329644866E+00  0.37604497694E+03  0.39109935890E+03  0.91517176259E+02 0.  0.
        -24    2    1    2    0    0 -0.91675784713E+02 -0.16152712396E+02  0.43619089808E+03  0.45386526444E+03  0.84058426558E+02 0.  0.
         11    1    4    4    0    0 -0.30274811451E+02  0.34214610962E+02  0.14394669052E+03  0.15102269208E+03  0.00000000000E+00 0. -1.
        -12    1    4    4    0    0 -0.61400973262E+02 -0.50367323358E+02  0.29224420756E+03  0.30284257236E+03  0.00000000000E+00 0.  1.
        -13    1    3    3    0    0  0.12066874058E+02 -0.40724817869E+02  0.21237063411E+03  0.21657656030E+03  0.00000000000E+00 0.  1.
         13    1    3    3    0    0  0.44263417995E+02  0.41348114317E+02  0.16367434283E+03  0.17452279860E+03  0.00000000000E+00 0. -1.
          2    1    1    2  501    0  0.35345492660E+02  0.15529415947E+02  0.23197727668E+03  0.23516786240E+03  0.00000000000E+00 0. -1.
<scales pt_clust_5="13000.00000" pt_clust_6="13000.00000" pt_clust_7="13000.00000" pt_clust_8="13000.00000" pt_clust_9="38.60658"></scales>
<clustering>
<clus scale="   38.607">  2  9  1 -1</clus>
<clus scale="   84.058">  5  6 -1 -1</clus>
<clus scale="   91.517">  7  8 -1 -1</clus>
<clus scale="  111.334">  2  5  1 -1</clus>
<clus scale="   38.607">  2  5  1 -1</clus>
</clustering>
</event>
<event>
 9    1  0.7586638E-005  0.2119544E+03  0.7546771E-02  0.1141100E+00
         21   -1    0    0  501  502  0.00000000000E+00  0.00000000000E+00  0.12560499011E+03  0.12560499011E+03  0.00000000000E+00 0. -1.
          1   -1    0    0  502    0 -0.00000000000E+00 -0.00000000000E+00 -0.89551774075E+03  0.89551774075E+03  0.00000000000E+00 0. -1.
        -24    2    1    2    0    0 -0.66656442435E+02 -0.16131031119E+03 -0.43178288697E+03  0.47254376108E+03  0.79981540621E+02 0.  0.
         23    2    1    2    0    0  0.12845903389E+03  0.17815051746E+03 -0.39597343521E+03  0.46227119711E+03  0.93061098348E+02 0.  0.
         13    1    3    3    0    0 -0.23588757513E+02 -0.52289940069E+02 -0.24810049045E+03  0.25464587308E+03  0.00000000000E+00 0. -1.
        -14    1    3    3    0    0 -0.43067684922E+02 -0.10902037113E+03 -0.18368239651E+03  0.21789788800E+03  0.00000000000E+00 0.  1.
        -11    1    4    4    0    0 -0.10472707162E+01  0.65308620640E+02 -0.13292910500E+03  0.14810962042E+03  0.00000000000E+00 0.  1.
         11    1    4    4    0    0  0.12950630460E+03  0.11284189682E+03 -0.26304433021E+03  0.31416157669E+03  0.00000000000E+00 0. -1.
          2    1    1    2  501    0 -0.61802591450E+02 -0.16840206268E+02  0.57843571536E+02  0.86307772681E+02  0.00000000000E+00 0. -1.
<scales pt_clust_5="13000.00000" pt_clust_6="13000.00000" pt_clust_7="13000.00000" pt_clust_8="13000.00000" pt_clust_9="64.05586"></scales>
<clustering>
<clus scale="   64.056">  1  9  2 -1</clus>
<clus scale="   79.982">  5  6 -1 -1</clus>
<clus scale="   93.061">  7  8 -1 -1</clus>
<clus scale="  206.546">  2  5  1 -1</clus>
<clus scale="   64.056">  1  5  2 -1</clus>
</clustering>
</event>
<event>
 9    1  0.7586638E-005  0.1335651E+03  0.7546771E-02  0.1237187E+00
         21   -1    0    0  501  502  0.00000000000E+00  0.00000000000E+00  0.19834082993E+02  0.19834082993E+02  0.00000000000E+00 0. -1.
          1   -1    0    0  502    0 -0.00000000000E+00 -0.00000000000E+00 -0.15898667349E+04  0.15898667349E+04  0.00000000000E+00 0. -1.
         23    2    1    2    0    0 -0.40911881278E+02  0.55563569909E+01 -0.41721313469E+03  0.42859585455E+03  0.89010963644E+02 0.  0.
        -24    2    1    2    0    0  0.60819333649E+02 -0.10391967169E+03 -0.46794205154E+03  0.48891366656E+03  0.74622518358E+02 0.  0.
         13    1    4    4    0    0  0.61114786224E+02 -0.11018450823E+03 -0.46538632136E+03  0.48214113189E+03  0.00000000000E+00 0. -1.
        -14    1    4    4    0    0 -0.29545257496E+00  0.62648365464E+01 -0.25557301776E+01  0.67725346746E+01  0.00000000000E+00 0.  1.
        -13    1    3    3    0    0  0.50767416442E+01  0.36741532242E+02 -0.10225926370E+03  0.10877807918E+03  0.00000000000E+00 0.  1.
         13    1    3    3    0    0 -0.45988622922E+02 -0.31185175251E+02 -0.31495387099E+03  0.31981777537E+03  0.00000000000E+00 0. -1.
          2    1    1    2  501    0 -0.19907452371E+02  0.98363314697E+02 -0.68487746565E+03  0.69219129674E+03  0.00000000000E+00 0. -1.
<scales pt_clust_5="13000.00000" pt_clust_6="13000.00000" pt_clust_7="13000.00000" pt_clust_8="13000.00000" pt_clust_9="110.77514"></scales>
<clustering>
<clus scale="   74.623">  5  6 -1 -1</clus>
<clus scale="   89.011">  7  8 -1 -1</clus>
<clus scale="   98.120">  2  7  1 -1</clus>
<clus scale="  110.775">  1  9  2 -1</clus>
<clus scale="  110.775">  1  5  2 -1</clus>
</clustering>
</event>
<event>
 9    1  0.7586638E-005  0.1248663E+03  0.7546771E-02  0.1238834E+00
         -4   -1    0    0    0  501 -0.00000000000E+00  0.00000000000E+00  0.33816993054E+03  0.33816993054E+03  0.00000000000E+00 0.  1.
         21   -1    0    0  501  502  0.00000000000E+00 -0.00000000000E+00 -0.78783231072E+02  0.78783231072E+02  0.00000000000E+00 0. -1.
        -24    2    1    2    0    0 -0.76889489736E+02 -0.24387676799E+01  0.19766526015E+03  0.22692299642E+03  0.80650790527E+02 0.  0.
         23    2    1    2    0    0  0.10155653239E+03 -0.21439100573E+01  0.79850685508E+02  0.15907643366E+03  0.92794688140E+02 0.  0.
         13    1    3    3    0    0  0.68034378924E-01  0.28080927505E+02  0.60707821814E+02  0.66887837068E+02  0.00000000000E+00 0. -1.
        -14    1    3    3    0    0 -0.76957524115E+02 -0.30519695185E+02  0.13695743834E+03  0.16003515935E+03  0.00000000000E+00 0.  1.
        -11    1    4    4    0    0  0.18959517366E+02  0.38027816912E+02  0.99146775188E+01  0.43633461795E+02  0.00000000000E+00 0.  1.
         11    1    4    4    0    0  0.82597015025E+02 -0.40171726970E+02  0.69936007989E+02  0.11544297186E+03  0.00000000000E+00 0. -1.
         -3    1    1    2    0  502 -0.24667042655E+02  0.45826777372E+01 -0.18129246193E+02  0.30953731538E+02  0.00000000000E+00 0.  1.
<scales pt_clust_5="13000.00000" pt_clust_6="13000.00000" pt_clust_7="13000.00000" pt_clust_8="13000.00000" pt_clust_9="25.08912"></scales>
<clustering>
<clus scale="   25.089">  2  9  1 -1</clus>
<clus scale="   80.651">  5  6 -1 -1</clus>
<clus scale="   92.795">  7  8 -1 -1</clus>
<clus scale="  116.126">  1  5  2 -1</clus>
<clus scale="   25.089">  2  5  1 -1</clus>
</clustering>
</event>
<event>
 9    1  0.7586638E-005  0.9484417E+02  0.7546771E-02  0.1298486E+00
          1   -1    0    0  502    0 -0.00000000000E+00  0.00000000000E+00  0.17818265510E+03  0.17818265510E+03  0.00000000000E+00 0. -1.
         21   -1    0    0  501  502  0.00000000000E+00 -0.00000000000E+00 -0.10744999254E+03  0.10744999254E+03  0.00000000000E+00 0.  1.
         23    2    1    2    0    0  0.73826255843E+01  0.65709301887E+01  0.88897717063E+02  0.12888566081E+03  0.92795631255E+02 0.  0.
        -24    2    1    2    0    0 -0.48803101122E+02  0.29523869964E+02 -0.61295129741E+00  0.99070590279E+02  0.81001262782E+02 0.  0.
         13    1    4    4    0    0 -0.40704428633E+02 -0.66094249900E+01  0.30024305422E+02  0.51009743433E+02  0.00000000000E+00 0. -1.
        -14    1    4    4    0    0 -0.80986724896E+01  0.36133294954E+02 -0.30637256719E+02  0.48060846847E+02  0.00000000000E+00 0.  1.
        -11    1    3    3    0    0 -0.62020573517E+01 -0.39776464721E+02  0.20559097810E+02  0.45202977378E+02  0.00000000000E+00 0.  1.
         11    1    3    3    0    0  0.13584682936E+02  0.46347394910E+02  0.68338619253E+02  0.83682683434E+02  0.00000000000E+00 0. -1.
          2    1    1    2  501    0  0.41420475538E+02 -0.36094800153E+02 -0.17552103202E+02  0.57676396547E+02  0.00000000000E+00 0. -1.
<scales pt_clust_5="13000.00000" pt_clust_6="13000.00000" pt_clust_7="13000.00000" pt_clust_8="13000.00000" pt_clust_9="54.94079"></scales>
<clustering>
<clus scale="   54.941">  2  9  1 -1</clus>
<clus scale="   81.001">  5  6 -1 -1</clus>
<clus scale="   83.340">  2  5  1 -1</clus>
<clus scale="   92.796">  7  8 -1 -1</clus>
<clus scale="   54.941">  2  5  1 -1</clus>
</clustering>
</event>
<event>
 9    1  0.7586638E-005  0.2078468E+03  0.7546771E-02  0.1144129E+00
         21   -1    0    0  501  502  0.00000000000E+00  0.00000000000E+00  0.24438864322E+03  0.24438864322E+03  0.00000000000E+00 0. -1.
          1   -1    0    0  502    0 -0.00000000000E+00 -0.00000000000E+00 -0.39737077900E+03  0.39737077900E+03  0.00000000000E+00 0. -1.
        -24    2    1    2    0    0  0.23125929181E+03  0.45289018323E+02 -0.11853269233E+03  0.27572777993E+03  0.80273621093E+02 0.  0.
         23    2    1    2    0    0 -0.91307117490E+02 -0.63966153489E+02  0.96935100027E+02  0.17316551064E+03  0.90339481745E+02 0.  0.
         13    1    3    3    0    0  0.10847137244E+03  0.11630271224E+02 -0.98231649913E+02  0.14680176733E+03  0.00000000000E+00 0. -1.
        -14    1    3    3    0    0  0.12278791937E+03  0.33658747099E+02 -0.20301042413E+02  0.12892601259E+03  0.00000000000E+00 0.  1.
        -11    1    4    4    0    0 -0.10440760264E+03 -0.35005652004E+02  0.63877167521E+02  0.12730528540E+03  0.00000000000E+00 0. -1.
         11    1    4    4    0    0  0.13100485149E+02 -0.28960501485E+02  0.33057932506E+02  0.45860225238E+02  0.00000000000E+00 0.  1.
          2    1    1    2  501    0 -0.13995217432E+03  0.18677135166E+02 -0.13138454347E+03  0.19286613165E+03  0.00000000000E+00 0. -1.
<scales pt_clust_5="13000.00000" pt_clust_6="13000.00000" pt_clust_7="13000.00000" pt_clust_8="13000.00000" pt_clust_9="141.19301"></scales>
<clustering>
<clus scale="   80.274">  5  6 -1 -1</clus>
<clus scale="   90.339">  7  8 -1 -1</clus>
<clus scale="  141.193">  1  9  2 -1</clus>
<clus scale="  203.674">  2  5  1 -1</clus>
<clus scale="  141.193">  1  5  2 -1</clus>
</clustering>
</event>
<event>
 9    1  0.7586638E-005  0.1655887E+03  0.7546771E-02  0.1183648E+00
         21   -1    0    0  501  502  0.00000000000E+00  0.00000000000E+00  0.20292025769E+03  0.20292025769E+03  0.00000000000E+00 0. -1.
         -2   -1    0    0    0  501 -0.00000000000E+00 -0.00000000000E+00 -0.21275425690E+03  0.21275425690E+03  0.00000000000E+00 0.  1.
         23    2    1    2    0    0  0.82376108821E+02  0.11480258506E+03 -0.99015521662E+02  0.19400679322E+03  0.88707978478E+02 0.  0.
        -24    2    1    2    0    0 -0.10674445264E+03 -0.89753876642E+02  0.49109188305E+02  0.16849774922E+03  0.80806203824E+02 0.  0.
         13    1    4    4    0    0 -0.67397628318E+02 -0.98242748441E+02  0.47361800549E+02  0.12820771457E+03  0.00000000000E+00 0. -1.
        -14    1    4    4    0    0 -0.39346824319E+02  0.84888717985E+01  0.17473877558E+01  0.40290034654E+02  0.00000000000E+00 0.  1.
        -13    1    3    3    0    0  0.94314208069E+02  0.84957813884E+02 -0.52273511065E+02  0.13727898580E+03  0.00000000000E+00 0.  1.
         13    1    3    3    0    0 -0.11938099248E+02  0.29844771175E+02 -0.46742010597E+02  0.56727807421E+02  0.00000000000E+00 0. -1.
         -1    1    1    2    0  502  0.24368343816E+02 -0.25048708417E+02  0.40072334146E+02  0.53169972142E+02  0.00000000000E+00 0.  1.
<scales pt_clust_5="13000.00000" pt_clust_6="13000.00000" pt_clust_7="13000.00000" pt_clust_8="13000.00000" pt_clust_9="34.94644"></scales>
<clustering>
<clus scale="   34.946">  1  9  2 -1</clus>
<clus scale="   80.806">  5  6 -1 -1</clus>
<clus scale="   88.708">  7  8 -1 -1</clus>
<clus scale="  161.494">  1  5  2 -1</clus>
<clus scale="   34.946">  1  5  2 -1</clus>
</clustering>
</event>
<event>
 9    1  0.7586638E-005  0.1641563E+03  0.7546771E-02  0.1208429E+00
         21   -1    0    0  501  502  0.00000000000E+00  0.00000000000E+00  0.83378902953E+02  0.83378902953E+02  0.00000000000E+00 0. -1.
          3   -1    0    0  502    0 -0.00000000000E+00 -0.00000000000E+00 -0.64763353955E+03  0.64763353955E+03  0.00000000000E+00 0. -1.
        -24    2    1    2    0    0  0.80851239414E+00  0.53739704139E+02 -0.25919532898E+03  0.27654447738E+03  0.80037615631E+02 0.  0.
         23    2    1    2    0    0  0.13114327118E+03 -0.40130765370E+02 -0.63473581384E+02  0.17885929413E+03  0.95669826268E+02 0.  0.
         11    1    3    3    0    0  0.26530498725E+02  0.38862610318E+02 -0.23043781318E+03  0.23519301772E+03  0.00000000000E+00 0. -1.
        -12    1    3    3    0    0 -0.25721986331E+02  0.14877093821E+02 -0.28757515800E+02  0.41351459664E+02  0.00000000000E+00 0.  1.
        -13    1    4    4    0    0  0.10999573889E+03 -0.62829027205E+02 -0.73254351115E+02  0.14633095773E+03  0.00000000000E+00 0. -1.
         13    1    4    4    0    0  0.21147532286E+02  0.22698261835E+02  0.97807697308E+01  0.32528336396E+02  0.00000000000E+00 0.  1.
          4    1    1    2  501    0 -0.13195178357E+03 -0.13608938769E+02 -0.24158572623E+03  0.27560867099E+03  0.00000000000E+00 0. -1.
<scales pt_clust_5="13000.00000" pt_clust_6="13000.00000" pt_clust_7="13000.00000" pt_clust_8="13000.00000" pt_clust_9="133.39640"></scales>
<clustering>
<clus scale="   80.038">  5  6 -1 -1</clus>
<clus scale="   95.670">  7  8 -1 -1</clus>
<clus scale="   96.409">  2  5  1 -1</clus>
<clus scale="  133.396">  1  9  2 -1</clus>
<clus scale="  133.396">  1  5  2 -1</clus>
</clustering>
</event>
<event>
 9    1  0.7586638E-005  0.9515401E+02  0.7546771E-02  0.1296138E+00
          1   -1    0    0  502    0 -0.00000000000E+00  0.00000000000E+00  0.22884559075E+03  0.22884559075E+03  0.00000000000E+00 0. -1.
         21   -1    0    0  501  502  0.00000000000E+00 -0.00000000000E+00 -0.96937830258E+02  0.96937830258E+02  0.00000000000E+00 0. -1.
        -24    2    1    2    0    0 -0.36552927036E+02  0.26210751387E+02  0.10908295674E+03  0.14342196658E+03  0.81533116482E+02 0.  0.
         23    2    1    2    0    0  0.88613835882E+01  0.43419184837E+02  0.33708586306E+02  0.10664087388E+03  0.90951951376E+02 0.  0.
         11    1    3    3    0    0 -0.26143698279E+02 -0.16574638842E+02  0.62801010225E+01  0.31585618267E+02  0.00000000000E+00 0. -1.
        -12    1    3    3    0    0 -0.10409228757E+02  0.42785390228E+02  0.10280285572E+03  0.11183634831E+03  0.00000000000E+00 0.  1.
        -13    1    4    4    0    0 -0.21552957650E+02 -0.14048261500E+02  0.32707975229E+02  0.41613642934E+02  0.00000000000E+00 0.  1.
         13    1    4    4    0    0  0.30414341238E+02  0.57467446337E+02  0.10006110767E+01  0.65027230942E+02  0.00000000000E+00 0. -1.
          2    1    1    2  501    0  0.27691543448E+02 -0.69629936224E+02 -0.10883782552E+02  0.75720580556E+02  0.00000000000E+00 0. -1.
<scales pt_clust_5="13000.00000" pt_clust_6="13000.00000" pt_clust_7="13000.00000" pt_clust_8="13000.00000" pt_clust_9="74.93430"></scales>
<clustering>
<clus scale="   74.934">  2  9  1 -1</clus>
<clus scale="   81.533">  5  6 -1 -1</clus>
<clus scale="   86.196">  1  5  2 -1</clus>
<clus scale="   90.952">  7  8 -1 -1</clus>
<clus scale="   74.934">  2  5  1 -1</clus>
</clustering>
</event>
<event>
 9    1  0.7586638E-005  0.1584125E+03  0.7546771E-02  0.1192045E+00
          3   -1    0    0  502    0 -0.00000000000E+00  0.00000000000E+00  0.11409931606E+04  0.11409931606E+04  0.00000000000E+00 0. -1.
         21   -1    0    0  501  502  0.00000000000E+00 -0.00000000000E+00 -0.61273572650E+02  0.61273572650E+02  0.00000000000E+00 0. -1.
         23    2    1    2    0    0 -0.13254364307E+03 -0.43630544865E+01  0.96058044719E+03  0.97393223158E+03  0.90787348326E+02 0.  0.
        -24    2    1    2    0    0  0.11722216491E+03 -0.15620109547E+02  0.13629140805E+03  0.19786689906E+03  0.81184592544E+02 0.  0.
         13    1    4    4    0    0  0.59879511993E+01 -0.24122722509E+02  0.53344360695E+02  0.58850506529E+02  0.00000000000E+00 0. -1.
        -14    1    4    4    0    0  0.11123421371E+03  0.85026129616E+01  0.82947047359E+02  0.13901639253E+03  0.00000000000E+00 0.  1.
        -11    1    3    3    0    0 -0.12967434033E+03  0.24279440878E+02  0.78716919878E+03  0.79814802718E+03  0.00000000000E+00 0.  1.
         11    1    3    3    0    0 -0.28693027449E+01 -0.28642495365E+02  0.17341124842E+03  0.17578420440E+03  0.00000000000E+00 0. -1.
          4    1    1    2  501    0  0.15321478158E+02  0.19983164034E+02 -0.17152267271E+02  0.30467602634E+02  0.00000000000E+00 0. -1.
<scales pt_clust_5="13000.00000" pt_clust_6="13000.00000" pt_clust_7="13000.00000" pt_clust_8="13000.00000" pt_clust_9="25.18084"></scales>
<clustering>
<clus scale="   25.181">  2  9  1 -1</clus>
<clus scale="   81.185">  5  6 -1 -1</clus>
<clus scale="   90.787">  7  8 -1 -1</clus>
<clus scale="  153.111">  2  5  1 -1</clus>
<clus scale="   25.181">  2  5  1 -1</clus>
</clustering>
</event>
<event>
 9    1  0.7586638E-005  0.1275216E+03  0.7546771E-02  0.1235732E+00
         21   -1    0    0  501  502  0.00000000000E+00  0.00000000000E+00  0.21735999746E+03  0.21735999746E+03  0.00000000000E+00 0.  1.
          1   -1    0    0  502    0 -0.00000000000E+00 -0.00000000000E+00 -0.16535079954E+03  0.16535079954E+03  0.00000000000E+00 0. -1.
         23    2    1    2    0    0 -0.98674231470E+02  0.15766118044E+02  0.48057462894E+02  0.14605311258E+03  0.95062177121E+02 0.  0.
        -24    2    1    2    0    0  0.68906340473E+02  0.26761084540E+02  0.86867312890E+02  0.13883292608E+03  0.79148037946E+02 0.  0.
         11    1    4    4    0    0  0.67958959376E+02  0.20962982872E+02  0.23071805498E+02  0.74767473003E+02  0.00000000000E+00 0. -1.
        -12    1    4    4    0    0  0.94738109743E+00  0.57981016670E+01  0.63795507392E+02  0.64065453072E+02  0.00000000000E+00 0.  1.
        -13    1    3    3    0    0 -0.69846071409E+02 -0.36046945347E+02  0.28846734231E+02  0.83725683252E+02  0.00000000000E+00 0. -1.
         13    1    3    3    0    0 -0.28828160061E+02  0.51813063391E+02  0.19210728662E+02  0.62327429324E+02  0.00000000000E+00 0.  1.
          2    1    1    2  501    0  0.29767890997E+02 -0.42527202583E+02 -0.82915577865E+02  0.97824758352E+02  0.00000000000E+00 0. -1.
<scales pt_clust_5="13000.00000" pt_clust_6="13000.00000" pt_clust_7="13000.00000" pt_clust_8="13000.00000" pt_clust_9="51.91043"></scales>
<clustering>
<clus scale="   51.910">  1  9  2 -1</clus>
<clus scale="   79.148">  5  6 -1 -1</clus>
<clus scale="   95.062">  7  8 -1 -1</clus>
<clus scale="  116.144">  1  5  2 -1</clus>
<clus scale="   51.910">  1  5  2 -1</clus>
</clustering>
</event>
<event>
 9    1  0.7586638E-005  0.9227364E+02  0.7546771E-02  0.1301277E+00
         21   -1    0    0  501  502  0.00000000000E+00  0.00000000000E+00  0.10311951100E+03  0.10311951100E+03  0.00000000000E+00 0.  1.
          1   -1    0    0  502    0 -0.00000000000E+00 -0.00000000000E+00 -0.13109526793E+03  0.13109526793E+03  0.00000000000E+00 0. -1.
        -24    2    1    2    0    0  0.11336003729E+01 -0.30369343392E+02 -0.62260522196E+02  0.10793886104E+03  0.82769819559E+02 0.  0.
         23    2    1    2    0    0  0.14370662207E+02  0.50667446707E+01  0.17805061118E+02  0.92332077373E+02  0.89308479310E+02 0.  0.
         11    1    3    3    0    0  0.29604908902E+02 -0.27984400245E+02 -0.67549037662E+02  0.78882506155E+02  0.00000000000E+00 0. -1.
        -12    1    3    3    0    0 -0.28471308529E+02 -0.23849431463E+01  0.52885154664E+01  0.29056354881E+02  0.00000000000E+00 0.  1.
        -11    1    4    4    0    0  0.50486713693E+01 -0.39220475232E+02 -0.78396837950E+01  0.40313712332E+02  0.00000000000E+00 0. -1.
         11    1    4    4    0    0  0.93219908378E+01  0.44287219902E+02  0.25644744913E+02  0.52018365041E+02  0.00000000000E+00 0.  1.
          2    1    1    2  501    0 -0.15504262580E+02  0.25302598721E+02  0.16479704150E+02  0.33943840517E+02  0.00000000000E+00 0. -1.
<scales pt_clust_5="13000.00000" pt_clust_6="13000.00000" pt_clust_7="13000.00000" pt_clust_8="13000.00000" pt_clust_9="29.67497"></scales>
<clustering>
<clus scale="   29.675">  1  9  2 -1</clus>
<clus scale="   82.770">  5  6 -1 -1</clus>
<clus scale="   85.961">  2  5  1 -1</clus>
<clus scale="   89.308">  7  8 -1 -1</clus>
<clus scale="   29.675">  1  5  2 -1</clus>
</clustering>
</event>
<event>
 9    1  0.7586638E-005  0.1505629E+03  0.7546771E-02  0.1201959E+00
         21   -1    0    0  501  502  0.00000000000E+00  0.00000000000E+00  0.10244705257E+03  0.10244705257E+03  0.00000000000E+00 0.  1.
         -4   -1    0    0    0  501 -0.00000000000E+00 -0.00000000000E+00 -0.28804873967E+03  0.28804873967E+03  0.00000000000E+00 0.  1.
        -24    2    1    2    0    0 -0.12138141186E+03  0.26473252351E+02 -0.13355630464E+03  0.19920078207E+03  0.80058633704E+02 0.  0.
         23    2    1    2    0    0  0.11390314497E+03  0.99138720377E+01 -0.45282675007E+02  0.15353681227E+03  0.91928345863E+02 0.  0.
         13    1    3    3    0    0 -0.73882663040E+02  0.51994434879E+02 -0.10381574769E+03  0.13762186827E+03  0.00000000000E+00 0. -1.
        -14    1    3    3    0    0 -0.47498748818E+02 -0.25521182528E+02 -0.29740556953E+02  0.61578913800E+02  0.00000000000E+00 0.  1.
        -13    1    4    4    0    0  0.10645523692E+03  0.41213106905E+02 -0.30683491347E+02  0.11820623626E+03  0.00000000000E+00 0.  1.
         13    1    4    4    0    0  0.74479080437E+01 -0.31299234868E+02 -0.14599183660E+02  0.35330576008E+02  0.00000000000E+00 0. -1.
         -3    1    1    2    0  502  0.74782668900E+01 -0.36387124388E+02 -0.67627074537E+01  0.37758197905E+02  0.00000000000E+00 0.  1.
<scales pt_clust_5="13000.00000" pt_clust_6="13000.00000" pt_clust_7="13000.00000" pt_clust_8="13000.00000" pt_clust_9="37.14764"></scales>
<clustering>
<clus scale="   37.148">  1  9  2 -1</clus>
<clus scale="   80.059">  5  6 -1 -1</clus>
<clus scale="   91.928">  7  8 -1 -1</clus>
<clus scale="  143.624">  2  5  1 -1</clus>
<clus scale="   37.148">  1  5  2 -1</clus>
</clustering>
</event>
<event>
 9    1  0.7586638E-005  0.9426284E+02  0.7546771E-02  0.1295515E+00
          3   -1    0    0  502    0 -0.00000000000E+00  0.00000000000E+00  0.22885015347E+03  0.22885015347E+03  0.00000000000E+00 0. -1.
         21   -1    0    0  501  502  0.00000000000E+00 -0.00000000000E+00 -0.16349084111E+03  0.16349084111E+03  0.00000000000E+00 0. -1.
        -24    2    1    2    0    0 -0.20396260934E+02  0.22010004776E+02  0.17086554538E+03  0.19404835173E+03  0.86944122521E+02 0.  0.
         23    2    1    2    0    0 -0.33812123277E+02  0.19050282397E+02 -0.56243810260E+02  0.11432072851E+03  0.91649821797E+02 0.  0.
         11    1    3    3    0    0  0.21459204923E+02  0.56937312713E+01  0.13430568762E+03  0.13612837243E+03  0.00000000000E+00 0. -1.
        -12    1    3    3    0    0 -0.41855465857E+02  0.16316273505E+02  0.36559857753E+02  0.57919979300E+02  0.00000000000E+00 0.  1.
        -11    1    4    4    0    0  0.24866940315E+02 -0.16386031163E+02 -0.91529526417E+01  0.31155148530E+02  0.00000000000E+00 0.  1.
         11    1    4    4    0    0 -0.58679063592E+02  0.35436313560E+02 -0.47090857619E+02  0.83165579983E+02  0.00000000000E+00 0. -1.
          4    1    1    2  501    0  0.54208384211E+02 -0.41060287174E+02 -0.49262422760E+02  0.83971914338E+02  0.00000000000E+00 0. -1.
<scales pt_clust_5="13000.00000" pt_clust_6="13000.00000" pt_clust_7="13000.00000" pt_clust_8="13000.00000" pt_clust_9="68.00365"></scales>
<clustering>
<clus scale="   68.004">  2  9  1 -1</clus>
<clus scale="   86.944">  5  6 -1 -1</clus>
<clus scale="   89.694">  1  5  2 -1</clus>
<clus scale="   91.650">  7  8 -1 -1</clus>
<clus scale="   68.004">  2  5  1 -1</clus>
</clustering>
</event>
<event>
 9    1  0.7586638E-005  0.1058995E+03  0.7546771E-02  0.1275690E+00
         21   -1    0    0  501  502  0.00000000000E+00  0.00000000000E+00  0.41913276807E+03  0.41913276807E+03  0.00000000000E+00 0. -1.
          3   -1    0    0  502    0 -0.00000000000E+00 -0.00000000000E+00 -0.35479023951E+02  0.35479023951E+02  0.00000000000E+00 0. -1.
        -24    2    1    2    0    0 -0.18840453646E+02  0.30875777684E+02  0.10285857652E+03  0.13545670878E+03  0.80376345092E+02 0.  0.
         23    2    1    2    0    0  0.30171143127E+02 -0.47973130064E+02  0.15077776136E+03  0.18752974408E+03  0.96029956307E+02 0.  0.
         13    1    3    3    0    0  0.30379576689E+02  0.21400858367E+02  0.53249874497E+02  0.64934309518E+02  0.00000000000E+00 0. -1.
        -14    1    3    3    0    0 -0.49220030334E+02  0.94749193172E+01  0.49608702020E+02  0.70522399267E+02  0.00000000000E+00 0.  1.
        -11    1    4    4    0    0  0.30985445223E+02 -0.71340402561E+02  0.14318512236E+03  0.16294640259E+03  0.00000000000E+00 0.  1.
         11    1    4    4    0    0 -0.81430209598E+00  0.23367272497E+02  0.75926390085E+01  0.24583341493E+02  0.00000000000E+00 0. -1.
          4    1    1    2  501    0 -0.11330689482E+02  0.17097352379E+02  0.13001740623E+03  0.13162533915E+03  0.00000000000E+00 0. -1.
<scales pt_clust_5="13000.00000" pt_clust_6="13000.00000" pt_clust_7="13000.00000" pt_clust_8="13000.00000" pt_clust_9="20.51107"></scales>
<clustering>
<clus scale="   20.511">  1  9  2 -1</clus>
<clus scale="   80.376">  5  6 -1 -1</clus>
<clus scale="   91.942">  2  5  1 -1</clus>
<clus scale="   96.030">  7  8 -1 -1</clus>
<clus scale="   20.511">  1  5  2 -1</clus>
</clustering>
</event>
<event>
 9    1  0.7586638E-005  0.1107446E+03  0.7546771E-02  0.1265923E+00
         21   -1    0    0  501  502  0.00000000000E+00  0.00000000000E+00  0.84996314057E+02  0.84996314057E+02  0.00000000000E+00 0.  1.
          1   -1    0    0  502    0 -0.00000000000E+00 -0.00000000000E+00 -0.27481061182E+03  0.27481061182E+03  0.00000000000E+00 0. -1.
        -24    2    1    2    0    0  0.68787454186E+02 -0.46127497275E+02 -0.10715538177E+03  0.15551101504E+03  0.76432585319E+02 0.  0.
         23    2    1    2    0    0 -0.26965423291E+02 -0.14749975943E+02 -0.66867664751E+01  0.98338766122E+02  0.93172443527E+02 0.  0.
         11    1    3    3    0    0  0.52749116779E+02  0.10006438651E+02 -0.43154441765E+02  0.68883263421E+02  0.00000000000E+00 0. -1.
        -12    1    3    3    0    0  0.16038337407E+02 -0.56133935926E+02 -0.64000940000E+02  0.86627751617E+02  0.00000000000E+00 0.  1.
        -13    1    4    4    0    0 -0.31443736166E+02  0.26153706139E+02  0.23624354533E+02  0.47231716208E+02  0.00000000000E+00 0.  1.
         13    1    4    4    0    0  0.44783128754E+01 -0.40903682082E+02 -0.30311121008E+02  0.51107049913E+02  0.00000000000E+00 0. -1.
          2    1    1    2  501    0 -0.41822030896E+02  0.60877473218E+02 -0.75972149521E+02  0.10595714472E+03  0.00000000000E+00 0. -1.
<scales pt_clust_5="13000.00000" pt_clust_6="13000.00000" pt_clust_7="13000.00000" pt_clust_8="13000.00000" pt_clust_9="73.85902"></scales>
<clustering>
<clus scale="   73.859">  1  9  2 -1</clus>
<clus scale="   76.433">  5  6 -1 -1</clus>
<clus scale="   93.172">  7  8 -1 -1</clus>
<clus scale="   97.083">  2  5  1 -1</clus>
<clus scale="   73.859">  1  5  2 -1</clus>
</clustering>
</event>
<event>
 9    1  0.7586638E-005  0.9417704E+02  0.7546771E-02  0.1300664E+00
         21   -1    0    0  501  502  0.00000000000E+00  0.00000000000E+00  0.59186279470E+02  0.59186279470E+02  0.00000000000E+00 0.  1.
         -2   -1    0    0    0  501 -0.00000000000E+00 -0.00000000000E+00 -0.10064982349E+04  0.10064982349E+04  0.00000000000E+00 0.  1.
        -24    2    1    2    0    0  0.15801269847E+02  0.32016133854E+02 -0.76438071298E+03  0.76918075579E+03  0.78015689183E+02 0.  0.
         23    2    1    2    0    0  0.46122477820E+02  0.25619786658E+02 -0.18398224510E+03  0.21190142729E+03  0.90934547601E+02 0.  0.
         13    1    3    3    0    0  0.16218042235E+02  0.25330725025E+02 -0.92512457512E+02  0.97279110395E+02  0.00000000000E+00 0. -1.
        -14    1    3    3    0    0 -0.41677238813E+00  0.66854088282E+01 -0.67186825546E+03  0.67190164540E+03  0.00000000000E+00 0.  1.
        -13    1    4    4    0    0 -0.23623784509E+02  0.26232254630E+02 -0.57936055634E+02  0.67843945345E+02  0.00000000000E+00 0. -1.
         13    1    4    4    0    0  0.69746262329E+02 -0.61246797224E+00 -0.12604618947E+03  0.14405748195E+03  0.00000000000E+00 0.  1.
         -1    1    1    2    0  502 -0.61923747667E+02 -0.57635920511E+02  0.10510026103E+01  0.84602331320E+02  0.00000000000E+00 0.  1.
<scales pt_clust_5="13000.00000" pt_clust_6="13000.00000" pt_clust_7="13000.00000" pt_clust_8="13000.00000" pt_clust_9="84.59580"></scales>
<clustering>
<clus scale="   78.016">  5  6 -1 -1</clus>
<clus scale="   84.596">  1  9  2 -1</clus>
<clus scale="   81.772">  2  5  1 -1</clus>
<clus scale="   90.935">  7  8 -1 -1</clus>
<clus scale="   84.596">  1  5  2 -1</clus>
</clustering>
</event>
<event>
 9    1  0.7586638E-005  0.2350216E+03  0.7546771E-02  0.1123723E+00
         21   -1    0    0  501  502  0.00000000000E+00  0.00000000000E+00  0.50111252604E+03  0.50111252604E+03  0.00000000000E+00 0.  1.
         -4   -1    0    0    0  501 -0.00000000000E+00 -0.00000000000E+00 -0.14504500543E+03  0.14504500543E+03  0.00000000000E+00 0.  1.
        -24    2    1    2    0    0  0.99438820382E+02 -0.17171133538E+03  0.11663169653E+03  0.24413323786E+03  0.81395475894E+02 0.  0.
         23    2    1    2    0    0 -0.12576935910E+03  0.21279913853E+03  0.23532764842E+03  0.35305101575E+03  0.90357692329E+02 0.  0.
         13    1    3    3    0    0  0.17778243596E+02 -0.11083221109E+03  0.68259164955E+02  0.13137411678E+03  0.00000000000E+00 0. -1.
        -14    1    3    3    0    0  0.81660576786E+02 -0.60879124296E+02  0.48372531573E+02  0.11275912108E+03  0.00000000000E+00 0.  1.
        -13    1    4    4    0    0 -0.85573619933E+02  0.15161125587E+03  0.10426802046E+03  0.20293012942E+03  0.00000000000E+00 0.  1.
         13    1    4    4    0    0 -0.40195739164E+02  0.61187882659E+02  0.13105962796E+03  0.15012088633E+03  0.00000000000E+00 0. -1.
         -3    1    1    2    0  502  0.26330538715E+02 -0.41087803151E+02  0.41081756593E+01  0.48973277857E+02  0.00000000000E+00 0.  1.
<scales pt_clust_5="13000.00000" pt_clust_6="13000.00000" pt_clust_7="13000.00000" pt_clust_8="13000.00000" pt_clust_9="48.80069"></scales>
<clustering>
<clus scale="   48.801">  1  9  2 -1</clus>
<clus scale="   81.395">  5  6 -1 -1</clus>
<clus scale="   90.358">  7  8 -1 -1</clus>
<clus scale="  231.724">  2  5  1 -1</clus>
<clus scale="   48.801">  1  5  2 -1</clus>
</clustering>
</event>
<event>
 9    1  0.7586638E-005  0.1149107E+03  0.7546771E-02  0.1255095E+00
         -2   -1    0    0    0  501 -0.00000000000E+00  0.00000000000E+00  0.78564845365E+03  0.78564845365E+03  0.00000000000E+00 0.  1.
         21   -1    0    0  501  502  0.00000000000E+00 -0.00000000000E+00 -0.32392334785E+02  0.32392334785E+02  0.00000000000E+00 0. -1.
        -24    2    1    2    0    0 -0.54837422070E+02  0.79418195593E+02  0.46721464063E+03  0.48382022317E+03  0.80486615526E+02 0.  0.
         23    2    1    2    0    0  0.38066704821E+01 -0.43339453473E+02  0.22767119288E+03  0.24870504940E+03  0.90151153980E+02 0.  0.
         13    1    3    3    0    0 -0.67103051067E+02  0.27943939011E+02  0.27795565192E+03  0.28730302404E+03  0.00000000000E+00 0. -1.
        -14    1    3    3    0    0  0.12265628996E+02  0.51474256581E+02  0.18925898871E+03  0.19651719913E+03  0.00000000000E+00 0.  1.
        -13    1    4    4    0    0 -0.20884342359E+02 -0.54882965759E+02  0.84117833034E+02  0.10258706312E+03  0.00000000000E+00 0. -1.
         13    1    4    4    0    0  0.24691012841E+02  0.11543512286E+02  0.14355335985E+03  0.14611798628E+03  0.00000000000E+00 0.  1.
         -1    1    1    2    0  502  0.51030751588E+02 -0.36078742119E+02  0.58370285355E+02  0.85515515861E+02  0.00000000000E+00 0.  1.
<scales pt_clust_5="13000.00000" pt_clust_6="13000.00000" pt_clust_7="13000.00000" pt_clust_8="13000.00000" pt_clust_9="62.49651"></scales>
<clustering>
<clus scale="   62.497">  2  9  1 -1</clus>
<clus scale="   80.487">  5  6 -1 -1</clus>
<clus scale="   90.151">  7  8 -1 -1</clus>
<clus scale="  107.496">  1  5  2 -1</clus>
<clus scale="   62.497">  2  5  1 -1</clus>
</clustering>
</event>
<event>
 9    1  0.7586638E-005  0.9319718E+02  0.7546771E-02  0.1298261E+00
          1   -1    0    0  502    0 -0.00000000000E+00  0.00000000000E+00  0.74039398937E+03  0.74039398937E+03  0.00000000000E+00 0. -1.
         21   -1    0    0  501  502  0.00000000000E+00 -0.00000000000E+00 -0.73291341016E+02  0.73291341016E+02  0.00000000000E+00 0.  1.
        -24    2    1    2    0    0 -0.30081454832E+02  0.12916313958E+02  0.51937544705E+03  0.52693763375E+03  0.82708462565E+02 0.  0.
         23    2    1    2    0    0 -0.14541517872E+02 -0.16814614727E+02 -0.35986899886E+02  0.97651748979E+02  0.88014885700E+02 0.  0.
         13    1    3    3    0    0 -0.71990441571E+01  0.43728534947E+02  0.17896695231E+03  0.18437239767E+03  0.00000000000E+00 0. -1.
        -14    1    3    3    0    0 -0.22882410675E+02 -0.30812220988E+02  0.34040849474E+03  0.34256523608E+03  0.00000000000E+00 0.  1.
        -13    1    4    4    0    0 -0.27394699885E+02  0.14521683618E+02  0.16547907909E+02  0.35145158031E+02  0.00000000000E+00 0. -1.
         13    1    4    4    0    0  0.12853182013E+02 -0.31336298345E+02 -0.52534807795E+02  0.62506590947E+02  0.00000000000E+00 0.  1.
          2    1    1    2  501    0  0.44622972704E+02  0.38983007685E+01  0.18371410120E+03  0.18909594766E+03  0.00000000000E+00 0. -1.
<scales pt_clust_5="13000.00000" pt_clust_6="13000.00000" pt_clust_7="13000.00000" pt_clust_8="13000.00000" pt_clust_9="44.79295"></scales>
<clustering>
<clus scale="   44.793">  2  9  1 -1</clus>
<clus scale="   82.708">  5  6 -1 -1</clus>
<clus scale="   88.015">  7  8 -1 -1</clus>
<clus scale="   88.203">  1  5  2 -1</clus>
<clus scale="   44.793">  2  5  1 -1</clus>
</clustering>
</event>
<event>
 9    1  0.7586638E-005  0.1310586E+03  0.7546771E-02  0.1226400E+00
         21   -1    0    0  501  502  0.00000000000E+00  0.00000000000E+00  0.29528496524E+02  0.29528496524E+02  0.00000000000E+00 0. -1.
          1   -1    0    0  502    0 -0.00000000000E+00 -0.00000000000E+00 -0.83675733055E+03  0.83675733055E+03  0.00000000000E+00 0. -1.
        -24    2    1    2    0    0 -0.50595809521E+02 -0.78064693247E+02 -0.48854305138E+03  0.50483378704E+03  0.86768699524E+02 0.  0.
         23    2    1    2    0    0  0.76009539567E+02  0.74261178650E+02 -0.22410019804E+03  0.26343797362E+03  0.88805936885E+02 0.  0.
         13    1    3    3    0    0 -0.72800842779E+02 -0.67722999433E+02 -0.33837966316E+03  0.35268564445E+03  0.00000000000E+00 0. -1.
        -14    1    3    3    0    0  0.22205033258E+02 -0.10341693814E+02 -0.15016338822E+03  0.15214814259E+03  0.00000000000E+00 0.  1.
        -11    1    4    4    0    0  0.54264206024E+02  0.60809136245E+02 -0.22346162704E+03  0.23786015611E+03  0.00000000000E+00 0. -1.
         11    1    4    4    0    0  0.21745333543E+02  0.13452042405E+02 -0.63857099961E+00  0.25577817512E+02  0.00000000000E+00 0.  1.
          2    1    1    2  501    0 -0.25413730046E+02  0.38035145970E+01 -0.94585584607E+02  0.98014066407E+02  0.00000000000E+00 0. -1.
<scales pt_clust_5="13000.00000" pt_clust_6="13000.00000" pt_clust_7="13000.00000" pt_clust_8="13000.00000" pt_clust_9="25.69679"></scales>
<clustering>
<clus scale="   25.697">  1  9  2 -1</clus>
<clus scale="   86.769">  5  6 -1 -1</clus>
<clus scale="   88.806">  7  8 -1 -1</clus>
<clus scale="  129.687">  2  5  1 -1</clus>
<clus scale="   25.697">  1  5  2 -1</clus>
</clustering>
</event>
<event>
 9    1  0.7586638E-005  0.1380874E+03  0.7546771E-02  0.1219411E+00
         21   -1    0    0  501  502  0.00000000000E+00  0.00000000000E+00  0.28854266177E+02  0.28854266177E+02  0.00000000000E+00 0.  1.
          1   -1    0    0  502    0 -0.00000000000E+00 -0.00000000000E+00 -0.88544677452E+03  0.88544677452E+03  0.00000000000E+00 0. -1.
        -24    2    1    2    0    0  0.14342231452E+01  0.89917358964E+02 -0.29020470333E+03  0.31431197577E+03  0.80536077877E+02 0.  0.
         23    2    1    2    0    0 -0.23400888326E+02 -0.11153912881E+03 -0.33396209882E+03  0.36552852622E+03  0.95351146837E+02 0.  0.
         11    1    3    3    0    0  0.32893600609E+02  0.11507790360E+02 -0.10777072285E+03  0.11326494119E+03  0.00000000000E+00 0. -1.
        -12    1    3    3    0    0 -0.31459377464E+02  0.78409568603E+02 -0.18243398048E+03  0.20104703457E+03  0.00000000000E+00 0.  1.
        -13    1    4    4    0    0  0.32855556742E+02 -0.15272341179E+02 -0.99860031649E+02  0.10622974129E+03  0.00000000000E+00 0.  1.
         13    1    4    4    0    0 -0.56256445068E+02 -0.96266787626E+02 -0.23410206717E+03  0.25929878493E+03  0.00000000000E+00 0. -1.
          2    1    1    2  501    0  0.21966665181E+02  0.21621769842E+02 -0.23242570619E+03  0.23446053870E+03  0.00000000000E+00 0. -1.
<scales pt_clust_5="13000.00000" pt_clust_6="13000.00000" pt_clust_7="13000.00000" pt_clust_8="13000.00000" pt_clust_9="30.82266"></scales>
<clustering>
<clus scale="   30.823">  1  9  2 -1</clus>
<clus scale="   80.536">  5  6 -1 -1</clus>
<clus scale="   95.351">  7  8 -1 -1</clus>
<clus scale="  128.306">  2  5  1 -1</clus>
<clus scale="   30.823">  1  5  2 -1</clus>
</clustering>
</event>
<event>
 9    1  0.7586638E-005  0.9920491E+02  0.7546771E-02  0.1287391E+00
          1   -1    0    0  502    0 -0.00000000000E+00  0.00000000000E+00  0.49847069945E+03  0.49847069945E+03  0.00000000000E+00 0. -1.
         21   -1    0    0  501  502  0.00000000000E+00 -0.00000000000E+00 -0.33227976554E+02  0.33227976554E+02  0.00000000000E+00 0. -1.
        -24    2    1    2    0    0 -0.24183131008E+02  0.23711904973E+02  0.18819603612E+03  0.20652123601E+03  0.78014067008E+02 0.  0.
         23    2    1    2    0    0 -0.16712704271E+01 -0.67040749464E+02  0.23279744435E+03  0.25806682761E+03  0.88918964144E+02 0.  0.
         13    1    3    3    0    0  0.18438407076E+01  0.37108988781E+02  0.36704156336E+02  0.52227118332E+02  0.00000000000E+00 0. -1.
        -14    1    3    3    0    0 -0.26026971716E+02 -0.13397083808E+02  0.15149187978E+03  0.15429411768E+03  0.00000000000E+00 0.  1.
        -13    1    4    4    0    0  0.23798498184E+02 -0.20764765409E+02  0.16939375463E+02  0.35839732691E+02  0.00000000000E+00 0.  1.
         13    1    4    4    0    0 -0.25469768611E+02 -0.46275984055E+02  0.21585806889E+03  0.22222709492E+03  0.00000000000E+00 0. -1.
          2    1    1    2  501    0  0.25854401435E+02  0.43328844491E+02  0.44249242434E+02  0.67110612383E+02  0.00000000000E+00 0. -1.
<scales pt_clust_5="13000.00000" pt_clust_6="13000.00000" pt_clust_7="13000.00000" pt_clust_8="13000.00000" pt_clust_9="50.45631"></scales>
<clustering>
<clus scale="   50.456">  2  9  1 -1</clus>
<clus scale="   78.014">  5  6 -1 -1</clus>
<clus scale="   88.919">  7  8 -1 -1</clus>
<clus scale="   89.561">  1  5  2 -1</clus>
<clus scale="   50.456">  2  5  1 -1</clus>
</clustering>
</event>
<event>
 9    1  0.7586638E-005  0.1113123E+03  0.7546771E-02  0.1266850E+00
         -2   -1    0    0    0  501 -0.00000000000E+00  0.00000000000E+00  0.12810245972E+03  0.12810245972E+03  0.00000000000E+00 0.  1.
         21   -1    0    0  501  502  0.00000000000E+00 -0.00000000000E+00 -0.18092645121E+03  0.18092645121E+03  0.00000000000E+00 0. -1.
         23    2    1    2    0    0  0.47105614997E+02 -0.19202797769E+02  0.23906721654E+02  0.11363772303E+03  0.98763932424E+02 0.  0.
        -24    2    1    2    0    0 -0.36050194064E+02  0.45767014522E+02 -0.11275056469E+03  0.14929010713E+03  0.78616856578E+02 0.  0.
         13    1    4    4    0    0 -0.34227325340E+02  0.34423263954E+02 -0.12402892815E+03  0.13319026211E+03  0.00000000000E+00 0. -1.
        -14    1    4    4    0    0 -0.18228687234E+01  0.11343750569E+02  0.11278363463E+02  0.16099845022E+02  0.00000000000E+00 0.  1.
        -13    1    3    3    0    0  0.33104082178E+02 -0.50564758449E+02  0.43157825212E+02  0.74264883565E+02  0.00000000000E+00 0.  1.
         13    1    3    3    0    0  0.14001532819E+02  0.31361960680E+02 -0.19251103559E+02  0.39372839461E+02  0.00000000000E+00 0. -1.
         -1    1    1    2    0  502 -0.11055420933E+02 -0.26564216754E+02  0.36019851542E+02  0.46101080778E+02  0.00000000000E+00 0.  1.
<scales pt_clust_5="13000.00000" pt_clust_6="13000.00000" pt_clust_7="13000.00000" pt_clust_8="13000.00000" pt_clust_9="28.77292"></scales>
<clustering>
<clus scale="   28.773">  2  9  1 -1</clus>
<clus scale="   78.617">  5  6 -1 -1</clus>
<clus scale="   93.897">  2  5  1 -1</clus>
<clus scale="   98.764">  7  8 -1 -1</clus>
<clus scale="   28.773">  2  5  1 -1</clus>
</clustering>
</event>
<event>
 9    1  0.7586638E-005  0.9457528E+02  0.7546771E-02  0.1298477E+00
         21   -1    0    0  501  502  0.00000000000E+00  0.00000000000E+00  0.36517069844E+03  0.36517069844E+03  0.00000000000E+00 0.  1.
          1   -1    0    0  502    0 -0.00000000000E+00 -0.00000000000E+00 -0.36914188566E+02  0.36914188566E+02  0.00000000000E+00 0. -1.
         23    2    1    2    0    0 -0.13190996074E+02 -0.65357135646E+01  0.12020463172E+03  0.15179936618E+03  0.91526914921E+02 0.  0.
        -24    2    1    2    0    0  0.39489348289E+02  0.89937778836E+00  0.20426588291E+03  0.22312478869E+03  0.80621975279E+02 0.  0.
         11    1    4    4    0    0  0.16723575966E+02 -0.27596384783E+02  0.17015087038E+03  0.17318359373E+03  0.00000000000E+00 0. -1.
        -12    1    4    4    0    0  0.22765772322E+02  0.28495762572E+02  0.34115012530E+02  0.49941194959E+02  0.00000000000E+00 0.  1.
        -11    1    3    3    0    0 -0.48939355759E+02 -0.14200802613E+02  0.93636969281E+02  0.10660490304E+03  0.00000000000E+00 0.  1.
         11    1    3    3    0    0  0.35748359684E+02  0.76650890480E+01  0.26567662441E+02  0.45194463132E+02  0.00000000000E+00 0. -1.
          2    1    1    2  501    0 -0.26298352214E+02  0.56363357762E+01  0.37859952365E+01  0.27160732135E+02  0.00000000000E+00 0. -1.
<scales pt_clust_5="13000.00000" pt_clust_6="13000.00000" pt_clust_7="13000.00000" pt_clust_8="13000.00000" pt_clust_9="26.89558"></scales>
<clustering>
<clus scale="   26.896">  1  9  2 -1</clus>
<clus scale="   80.622">  5  6 -1 -1</clus>
<clus scale="   84.067">  1  5  2 -1</clus>
<clus scale="   91.527">  7  8 -1 -1</clus>
<clus scale="   26.896">  1  5  2 -1</clus>
</clustering>
</event>
<event>
 9    1  0.7586638E-005  0.1135608E+03  0.7546771E-02  0.1257681E+00
         21   -1    0    0  501  502  0.00000000000E+00  0.00000000000E+00  0.18662202408E+03  0.18662202408E+03  0.00000000000E+00 0. -1.
         -2   -1    0    0    0  501 -0.00000000000E+00 -0.00000000000E+00 -0.11233591608E+03  0.11233591608E+03  0.00000000000E+00 0.  1.
        -24    2    1    2    0    0 -0.59617962356E+02  0.14507796885E+02 -0.37103735214E+02  0.10885143504E+03  0.81897314588E+02 0.  0.
         23    2    1    2    0    0  0.79811697543E+02 -0.26166821688E+02  0.70227684151E+02  0.14279854449E+03  0.91678171152E+02 0.  0.
         13    1    3    3    0    0 -0.16514414681E+02  0.38186581714E+02  0.77143867234E+01  0.42313741004E+02  0.00000000000E+00 0. -1.
        -14    1    3    3    0    0 -0.43103547675E+02 -0.23678784829E+02 -0.44818121938E+02  0.66537694033E+02  0.00000000000E+00 0.  1.
        -11    1    4    4    0    0  0.22861454258E+02 -0.59847148889E+01 -0.22167431314E+02  0.32401510985E+02  0.00000000000E+00 0.  1.
         11    1    4    4    0    0  0.56950243286E+02 -0.20182106799E+02  0.92395115465E+02  0.11039703351E+03  0.00000000000E+00 0. -1.
         -1    1    1    2    0  502 -0.20193735187E+02  0.11659024803E+02  0.41162159067E+02  0.47307960632E+02  0.00000000000E+00 0.  1.
<scales pt_clust_5="13000.00000" pt_clust_6="13000.00000" pt_clust_7="13000.00000" pt_clust_8="13000.00000" pt_clust_9="23.31780"></scales>
<clustering>
<clus scale="   23.318">  1  9  2 -1</clus>
<clus scale="   81.897">  5  6 -1 -1</clus>
<clus scale="   91.678">  7  8 -1 -1</clus>
<clus scale="  105.822">  2  5  1 -1</clus>
<clus scale="   23.318">  1  5  2 -1</clus>
</clustering>
</event>
<event>
 9    1  0.7586638E-005  0.2656614E+03  0.7546771E-02  0.1120979E+00
         21   -1    0    0  501  502  0.00000000000E+00  0.00000000000E+00  0.39692976990E+03  0.39692976990E+03  0.00000000000E+00 0. -1.
          1   -1    0    0  502    0 -0.00000000000E+00 -0.00000000000E+00 -0.33007576680E+03  0.33007576680E+03  0.00000000000E+00 0. -1.
         23    2    1    2    0    0 -0.12453937379E+03 -0.75850803014E+02 -0.40948318127E+02  0.17659991065E+03  0.90814997333E+02 0.  0.
        -24    2    1    2    0    0  0.28457798111E+03  0.17005488394E+03  0.12669486613E+03  0.36374097234E+03  0.79703293335E+02 0.  0.
         13    1    4    4    0    0  0.25507409184E+03  0.17633355881E+03  0.12193421327E+03  0.33320304418E+03  0.00000000000E+00 0. -1.
        -14    1    4    4    0    0  0.29503889272E+02 -0.62786748655E+01  0.47606528643E+01  0.30537928154E+02  0.00000000000E+00 0.  1.
        -13    1    3    3    0    0 -0.31748675064E+02  0.19311053986E+02 -0.19504458946E+02  0.41968072307E+02  0.00000000000E+00 0.  1.
         13    1    3    3    0    0 -0.92790698729E+02 -0.95161857000E+02 -0.21443859182E+02  0.13463183834E+03  0.00000000000E+00 0. -1.
          2    1    1    2  501    0 -0.16003860731E+03 -0.94204080927E+02 -0.18892544902E+02  0.18666465372E+03  0.00000000000E+00 0. -1.
<scales pt_clust_5="13000.00000" pt_clust_6="13000.00000" pt_clust_7="13000.00000" pt_clust_8="13000.00000" pt_clust_9="253.42324"></scales>
<clustering>
<clus scale="   79.703">  5  6 -1 -1</clus>
<clus scale="   90.815">  7  8 -1 -1</clus>
<clus scale="  171.787">  2  7  1 -1</clus>
<clus scale="  253.423">  1  9  2 -1</clus>
<clus scale="  253.423">  1  5  2 -1</clus>
</clustering>
</event>
<event>
 9    1  0.7586638E-005  0.8764095E+02  0.7546771E-02  0.1309167E+00
         21   -1    0    0  501  502  0.00000000000E+00  0.00000000000E+00  0.26132608085E+03  0.26132608085E+03  0.00000000000E+00 0. -1.
          1   -1    0    0  502    0 -0.00000000000E+00 -0.00000000000E+00 -0.39103701344E+03  0.39103701344E+03  0.00000000000E+00 0. -1.
        -24    2    1    2    0    0 -0.13303646190E+02  0.20077471269E+02 -0.27120359481E+03  0.28560618594E+03  0.86252024633E+02 0.  0.
         23    2    1    2    0    0  0.12255709808E+02  0.19871622308E+02 -0.93262726632E+02  0.12862433847E+03  0.85447062396E+02 0.  0.
         13    1    3    3    0    0 -0.58171398683E+01  0.45278369345E+02 -0.24218522699E+03  0.24645010453E+03  0.00000000000E+00 0. -1.
        -14    1    3    3    0    0 -0.74865063213E+01 -0.25200898076E+02 -0.29018367814E+02  0.39156081410E+02  0.00000000000E+00 0.  1.
        -11    1    4    4    0    0  0.23184050700E+02 -0.29443206221E+02 -0.32468306078E+02  0.49584206145E+02  0.00000000000E+00 0.  1.
         11    1    4    4    0    0 -0.10928340893E+02  0.49314828529E+02 -0.60794420554E+02  0.79040132326E+02  0.00000000000E+00 0. -1.
          2    1    1    2  501    0  0.10479363819E+01 -0.39949093577E+02  0.23475538885E+03  0.23813256989E+03  0.00000000000E+00 0. -1.
<scales pt_clust_5="13000.00000" pt_clust_6="13000.00000" pt_clust_7="13000.00000" pt_clust_8="13000.00000" pt_clust_9="39.96284"></scales>
<clustering>
<clus scale="   39.963">  1  9  2 -1</clus>
<clus scale="   85.447">  7  8 -1 -1</clus>
<clus scale="   86.252">  5  6 -1 -1</clus>
<clus scale="   86.849">  1  7  2 -1</clus>
<clus scale="   39.963">  1  5  2 -1</clus>
</clustering>
</event>
<event>
 9    1  0.7586638E-005  0.9954162E+02  0.7546771E-02  0.1288987E+00
         21   -1    0    0  501  502  0.00000000000E+00  0.00000000000E+00  0.85393764983E+02  0.85393764983E+02  0.00000000000E+00 0.  1.
          1   -1    0    0  502    0 -0.00000000000E+00 -0.00000000000E+00 -0.32995463073E+03  0.32995463073E+03  0.00000000000E+00 0. -1.
        -24    2    1    2    0    0 -0.19481189297E+02 -0.11839176153E+02 -0.91013164445E+02  0.12324207963E+03  0.79909519209E+02 0.  0.
         23    2    1    2    0    0  0.73172266646E+02  0.43587807419E+01  0.99561933921E+01  0.11985007764E+03  0.94296000701E+02 0.  0.
         11    1    3    3    0    0  0.16692415552E+02 -0.28852950912E+02 -0.71221205317E+02  0.78635803551E+02  0.00000000000E+00 0. -1.
        -12    1    3    3    0    0 -0.36173604849E+02  0.17013774759E+02 -0.19791959128E+02  0.44606276077E+02  0.00000000000E+00 0.  1.
        -11    1    4    4    0    0  0.39730394018E+02 -0.32744707592E+02  0.36666042279E+02  0.63206951678E+02  0.00000000000E+00 0.  1.
         11    1    4    4    0    0  0.33441872628E+02  0.37103488333E+02 -0.26709848887E+02  0.56643125964E+02  0.00000000000E+00 0. -1.
          2    1    1    2  501    0 -0.53691077349E+02  0.74803954109E+01 -0.16350389470E+03  0.17225623845E+03  0.00000000000E+00 0. -1.
<scales pt_clust_5="13000.00000" pt_clust_6="13000.00000" pt_clust_7="13000.00000" pt_clust_8="13000.00000" pt_clust_9="54.20970"></scales>
<clustering>
<clus scale="   54.210">  1  9  2 -1</clus>
<clus scale="   79.910">  5  6 -1 -1</clus>
<clus scale="   86.037">  2  5  1 -1</clus>
<clus scale="   94.296">  7  8 -1 -1</clus>
<clus scale="   54.210">  1  5  2 -1</clus>
</clustering>
</event>
<event>
 9    1  0.7586638E-005  0.1592167E+03  0.7546771E-02  0.1191622E+00
          1   -1    0    0  502    0 -0.00000000000E+00  0.00000000000E+00  0.34300435739E+03  0.34300435739E+03  0.00000000000E+00 0. -1.
         21   -1    0    0  501  502  0.00000000000E+00 -0.00000000000E+00 -0.18324534391E+03  0.18324534391E+03  0.00000000000E+00 0. -1.
        -24    2    1    2    0    0 -0.13368912064E+03  0.11201831076E+02  0.12895856421E+02  0.15613841204E+03  0.78832979157E+02 0.  0.
         23    2    1    2    0    0  0.11701369220E+03  0.86952803998E+02 -0.22499565020E+02  0.17365230136E+03  0.91629127775E+02 0.  0.
         13    1    3    3    0    0 -0.10030246836E+03 -0.18915618971E+02 -0.15085317239E+02  0.10317922561E+03  0.00000000000E+00 0. -1.
        -14    1    3    3    0    0 -0.33386652278E+02  0.30117450047E+02  0.27981173660E+02  0.52959186427E+02  0.00000000000E+00 0.  1.
        -11    1    4    4    0    0  0.25361318402E+02 -0.98681556357E+01  0.19942949145E+02  0.33738674950E+02  0.00000000000E+00 0.  1.
         11    1    4    4    0    0  0.91652373799E+02  0.96820959633E+02 -0.42442514165E+02  0.13991362641E+03  0.00000000000E+00 0. -1.
          2    1    1    2  501    0  0.16675428442E+02 -0.98154635074E+02  0.16936272207E+03  0.19645898790E+03  0.00000000000E+00 0. -1.
<scales pt_clust_5="13000.00000" pt_clust_6="13000.00000" pt_clust_7="13000.00000" pt_clust_8="13000.00000" pt_clust_9="99.56110"></scales>
<clustering>
<clus scale="   78.833">  5  6 -1 -1</clus>
<clus scale="   91.629">  7  8 -1 -1</clus>
<clus scale="   99.561">  2  9  1 -1</clus>
<clus scale="  152.213">  1  5  2 -1</clus>
<clus scale="   99.561">  2  5  1 -1</clus>
</clustering>
</event>
<event>
 9    1  0.7586638E-005  0.1314824E+03  0.7546771E-02  0.1243017E+00
         -2   -1    0    0    0  501 -0.00000000000E+00  0.00000000000E+00  0.13026663088E+03  0.13026663088E+03  0.00000000000E+00 0.  1.
         21   -1    0    0  501  502  0.00000000000E+00 -0.00000000000E+00 -0.46003217181E+03  0.46003217181E+03  0.00000000000E+00 0.  1.
        -24    2    1    2    0    0  0.28552757862E+02  0.33299336674E+02 -0.15681890887E+03  0.18149761483E+03  0.80156772681E+02 0.  0.
         23    2    1    2    0    0  0.54511230746E+02 -0.83625482362E+02  0.67182631966E+02  0.14977529999E+03  0.89187660990E+02 0.  0.
         13    1    3    3    0    0  0.24319315677E+02  0.29922704916E+02 -0.16622797602E+03  0.17064154651E+03  0.00000000000E+00 0. -1.
        -14    1    3    3    0    0  0.42334421848E+01  0.33766317587E+01  0.94090671500E+01  0.10856068321E+02  0.00000000000E+00 0.  1.
        -11    1    4    4    0    0  0.71936757724E+02 -0.68141894929E+02  0.75974936423E+02  0.12486154701E+03  0.00000000000E+00 0.  1.
         11    1    4    4    0    0 -0.17425526978E+02 -0.15483587432E+02 -0.87923044575E+01  0.24913752988E+02  0.00000000000E+00 0. -1.
         -1    1    1    2    0  502 -0.83063988608E+02  0.50326145687E+02 -0.24012926402E+03  0.25902588786E+03  0.00000000000E+00 0.  1.
<scales pt_clust_5="13000.00000" pt_clust_6="13000.00000" pt_clust_7="13000.00000" pt_clust_8="13000.00000" pt_clust_9="96.60844"></scales>
<clustering>
<clus scale="   80.157">  5  6 -1 -1</clus>
<clus scale="   89.188">  7  8 -1 -1</clus>
<clus scale="   91.374">  1  5  2 -1</clus>
<clus scale="   96.608">  2  9  1 -1</clus>
<clus scale="   96.608">  2  5  1 -1</clus>
</clustering>
</event>
<event>
 9    1  0.7586638E-005  0.1609458E+03  0.7546771E-02  0.1189519E+00
         21   -1    0    0  501  502  0.00000000000E+00  0.00000000000E+00  0.11765562316E+03  0.11765562316E+03  0.00000000000E+00 0.  1.
         -4   -1    0    0    0  501 -0.00000000000E+00 -0.00000000000E+00 -0.45868396387E+03  0.45868396387E+03  0.00000000000E+00 0.  1.
         23    2    1    2    0    0  0.82786169403E+02 -0.10581271368E+03 -0.11749579409E+03  0.20170555085E+03  0.93968012611E+02 0.  0.
        -24    2    1    2    0    0 -0.15481835524E+03  0.68986134732E+01 -0.10591685686E+03  0.20491048009E+03  0.82180352260E+02 0.  0.
         13    1    4    4    0    0 -0.25277275501E+02  0.23438291977E+02 -0.54653508940E+02  0.64616563101E+02  0.00000000000E+00 0. -1.
        -14    1    4    4    0    0 -0.12954107973E+03 -0.16539678504E+02 -0.51263347918E+02  0.14029391699E+03  0.00000000000E+00 0.  1.
        -11    1    3    3    0    0  0.67048318901E+02 -0.54905374986E+02 -0.12039651102E+03  0.14834216237E+03  0.00000000000E+00 0. -1.
         11    1    3    3    0    0  0.15737850501E+02 -0.50907338696E+02  0.29007169338E+01  0.53363388481E+02  0.00000000000E+00 0.  1.
         -3    1    1    2    0  502  0.72032185833E+02  0.98914100209E+02 -0.11761568976E+03  0.16972355610E+03  0.00000000000E+00 0.  1.
<scales pt_clust_5="13000.00000" pt_clust_6="13000.00000" pt_clust_7="13000.00000" pt_clust_8="13000.00000" pt_clust_9="122.36278"></scales>
<clustering>
<clus scale="   82.180">  5  6 -1 -1</clus>
<clus scale="   93.968">  7  8 -1 -1</clus>
<clus scale="  122.363">  1  9  2 -1</clus>
<clus scale="  154.361">  1  5  2 -1</clus>
<clus scale="  122.363">  1  5  2 -1</clus>
</clustering>
</event>
<event>
 9    1  0.7586638E-005  0.9984813E+02  0.7546771E-02  0.1283654E+00
          3   -1    0    0  502    0 -0.00000000000E+00  0.00000000000E+00  0.22386218231E+03  0.22386218231E+03  0.00000000000E+00 0. -1.
         21   -1    0    0  501  502  0.00000000000E+00 -0.00000000000E+00 -0.21740986246E+03  0.21740986246E+03  0.00000000000E+00 0. -1.
        -24    2    1    2    0    0  0.50319308818E+02  0.19258983633E+02  0.17032766960E+03  0.19611087421E+03  0.80901289612E+02 0.  0.
         23    2    1    2    0    0 -0.24761225657E+02  0.48336425791E+02 -0.61473793271E+02  0.11982787985E+03  0.87350816688E+02 0.  0.
         13    1    3    3    0    0  0.43439683229E+01 -0.26946385909E+02  0.81391774499E+02  0.85846367020E+02  0.00000000000E+00 0. -1.
        -14    1    3    3    0    0  0.45975340495E+02  0.46205369543E+02  0.88935895106E+02  0.11026450719E+03  0.00000000000E+00 0.  1.
        -13    1    4    4    0    0  0.19189274224E+02 -0.14830896091E+02 -0.24426411682E+02  0.34421407753E+02  0.00000000000E+00 0. -1.
         13    1    4    4    0    0 -0.43950499881E+02  0.63167321881E+02 -0.37047381589E+02  0.85406472097E+02  0.00000000000E+00 0.  1.
          4    1    1    2  501    0 -0.25558083161E+02 -0.67595409424E+02 -0.10240155649E+03  0.12533329071E+03  0.00000000000E+00 0. -1.
<scales pt_clust_5="13000.00000" pt_clust_6="13000.00000" pt_clust_7="13000.00000" pt_clust_8="13000.00000" pt_clust_9="72.26586"></scales>
<clustering>
<clus scale="   72.266">  2  9  1 -1</clus>
<clus scale="   80.901">  5  6 -1 -1</clus>
<clus scale="   87.351">  7  8 -1 -1</clus>
<clus scale="   94.258">  1  5  2 -1</clus>
<clus scale="   72.266">  2  5  1 -1</clus>
</clustering>
</event>
<event>
 9    1  0.7586638E-005  0.9997658E+02  0.7546771E-02  0.1287167E+00
         21   -1    0    0  501  502  0.00000000000E+00  0.00000000000E+00  0.24072195442E+03  0.24072195442E+03  0.00000000000E+00 0. -1.
          3   -1    0    0  502    0 -0.00000000000E+00 -0.00000000000E+00 -0.28164956133E+03  0.28164956133E+03  0.00000000000E+00 0. -1.
         23    2    1    2    0    0  0.26395593039E+02 -0.27599710222E+02 -0.22814476887E+03  0.24921292991E+03  0.92728515245E+02 0.  0.
        -24    2    1    2    0    0 -0.48687812292E+01  0.40018008469E+02  0.50516437701E+01  0.89305672409E+02  0.79528850030E+02 0.  0.
         13    1    4    4    0    0 -0.63029086148E+01  0.60242902141E+02  0.20357833127E+02  0.63901293297E+02  0.00000000000E+00 0. -1.
        -14    1    4    4    0    0  0.14341273856E+01 -0.20224893672E+02 -0.15306189357E+02  0.25404379112E+02  0.00000000000E+00 0.  1.
        -11    1    3    3    0    0 -0.38350027293E+01 -0.46844837049E+02 -0.54767847307E+02  0.72171068322E+02  0.00000000000E+00 0.  1.
         11    1    3    3    0    0  0.30230595768E+02  0.19245126827E+02 -0.17337692156E+03  0.17704186159E+03  0.00000000000E+00 0. -1.
          4    1    1    2  501    0 -0.21526811810E+02 -0.12418298247E+02  0.18216551818E+03  0.18385291342E+03  0.00000000000E+00 0. -1.
<scales pt_clust_5="13000.00000" pt_clust_6="13000.00000" pt_clust_7="13000.00000" pt_clust_8="13000.00000" pt_clust_9="24.85192"></scales>
<clustering>
<clus scale="   24.852">  1  9  2 -1</clus>
<clus scale="   79.529">  5  6 -1 -1</clus>
<clus scale="   87.873">  1  5  2 -1</clus>
<clus scale="   92.729">  7  8 -1 -1</clus>
<clus scale="   24.852">  1  5  2 -1</clus>
</clustering>
</event>
<event>
 9    1  0.7586638E-005  0.4102557E+03  0.7546771E-02  0.1040285E+00
          1   -1    0    0  502    0 -0.00000000000E+00  0.00000000000E+00  0.34964500510E+03  0.34964500510E+03  0.00000000000E+00 0. -1.
         21   -1    0    0  501  502  0.00000000000E+00 -0.00000000000E+00 -0.13341782239E+04  0.13341782239E+04  0.00000000000E+00 0. -1.
        -24    2    1    2    0    0  0.18205494825E+03 -0.20982069048E+02  0.86519039425E+02  0.21747092103E+03  0.78891101555E+02 0.  0.
         23    2    1    2    0    0  0.18364033604E+03 -0.48906880849E+02  0.10317195311E+03  0.23451627800E+03  0.90762198764E+02 0.  0.
         11    1    3    3    0    0  0.14879260452E+03  0.27634763197E+01  0.93864982103E+02  0.17594746610E+03  0.00000000000E+00 0. -1.
        -12    1    3    3    0    0  0.33262343738E+02 -0.23745545368E+02 -0.73459426783E+01  0.41523454933E+02  0.00000000000E+00 0.  1.
        -13    1    4    4    0    0  0.22818406075E+02 -0.11316291596E+02  0.57919090352E+02  0.63272103952E+02  0.00000000000E+00 0.  1.
         13    1    4    4    0    0  0.16082192997E+03 -0.37590589253E+02  0.45252862753E+02  0.17124417405E+03  0.00000000000E+00 0. -1.
          2    1    1    2  501    0 -0.36569528430E+03  0.69888949897E+02 -0.11742242113E+04  0.12318360299E+04  0.00000000000E+00 0. -1.
<scales pt_clust_5="13000.00000" pt_clust_6="13000.00000" pt_clust_7="13000.00000" pt_clust_8="13000.00000" pt_clust_9="372.31372"></scales>
<clustering>
<clus scale="   78.891">  5  6 -1 -1</clus>
<clus scale="   90.762">  7  8 -1 -1</clus>
<clus scale="   95.396">  5  7 -1 -1</clus>
<clus scale="  372.314">  2  9  1 -1</clus>
<clus scale="  372.314">  2  5  1 -1</clus>
</clustering>
</event>
<event>
 9    1  0.7586638E-005  0.1062930E+03  0.7546771E-02  0.1271594E+00
         21   -1    0    0  501  502  0.00000000000E+00  0.00000000000E+00  0.12216054956E+03  0.12216054956E+03  0.00000000000E+00 0. -1.
          1   -1    0    0  502    0 -0.00000000000E+00 -0.00000000000E+00 -0.71551277310E+03  0.71551277310E+03  0.00000000000E+00 0. -1.
        -24    2    1    2    0    0 -0.65618942822E+02  0.35658016746E+01 -0.59964162416E+03  0.60873653881E+03  0.81679469010E+02 0.  0.
         23    2    1    2    0    0  0.17311761849E+01  0.23048682624E+02 -0.76408499846E+02  0.12109931244E+03  0.91063416817E+02 0.  0.
         13    1    3    3    0    0 -0.70559841842E+02 -0.25605602546E+02 -0.41338436993E+03  0.42014399373E+03  0.00000000000E+00 0. -1.
        -14    1    3    3    0    0  0.49408990199E+01  0.29171404221E+02 -0.18625725423E+03  0.18859254508E+03  0.00000000000E+00 0.  1.
        -13    1    4    4    0    0 -0.14419250854E+02  0.54641246375E+02 -0.34593132899E+02  0.66259078203E+02  0.00000000000E+00 0. -1.
         13    1    4    4    0    0  0.16150427039E+02 -0.31592563751E+02 -0.41815366948E+02  0.54840234234E+02  0.00000000000E+00 0.  1.
          2    1    1    2  501    0  0.63887766637E+02 -0.26614484299E+02  0.82697900462E+02  0.10783747142E+03  0.00000000000E+00 0. -1.
<scales pt_clust_5="13000.00000" pt_clust_6="13000.00000" pt_clust_7="13000.00000" pt_clust_8="13000.00000" pt_clust_9="69.20966"></scales>
<clustering>
<clus scale="   69.210">  1  9  2 -1</clus>
<clus scale="   81.679">  5  6 -1 -1</clus>
<clus scale="   91.063">  7  8 -1 -1</clus>
<clus scale="   98.373">  2  5  1 -1</clus>
<clus scale="   69.210">  1  5  2 -1</clus>
</clustering>
</event>
<event>
 9    1  0.7586638E-005  0.1111231E+03  0.7546771E-02  0.1265870E+00
          1   -1    0    0  502    0 -0.00000000000E+00  0.00000000000E+00  0.47977363749E+03  0.47977363749E+03  0.00000000000E+00 0. -1.
         21   -1    0    0  501  502  0.00000000000E+00 -0.00000000000E+00 -0.42425715775E+02  0.42425715775E+02  0.00000000000E+00 0. -1.
         23    2    1    2    0    0  0.68828145846E+01  0.54744661698E+02  0.28057061963E+03  0.30031060441E+03  0.91772737770E+02 0.  0.
        -24    2    1    2    0    0  0.28383126444E+02 -0.77905110609E+02  0.13491967311E+03  0.17437192095E+03  0.72989317699E+02 0.  0.
         13    1    4    4    0    0 -0.43402435544E+01 -0.77256611628E+02  0.10103213675E+03  0.12725924097E+03  0.00000000000E+00 0. -1.
        -14    1    4    4    0    0  0.32723369998E+02 -0.64849898043E+00  0.33887536357E+02  0.47112679985E+02  0.00000000000E+00 0.  1.
        -11    1    3    3    0    0  0.27156343260E+02  0.61777713376E+02  0.26586682314E+03  0.27429750363E+03  0.00000000000E+00 0. -1.
         11    1    3    3    0    0 -0.20273528676E+02 -0.70330516783E+01  0.14703796488E+02  0.26013100777E+02  0.00000000000E+00 0.  1.
          2    1    1    2  501    0 -0.35265941028E+02  0.23160448910E+02  0.21857628979E+02  0.47516827913E+02  0.00000000000E+00 0. -1.
<scales pt_clust_5="13000.00000" pt_clust_6="13000.00000" pt_clust_7="13000.00000" pt_clust_8="13000.00000" pt_clust_9="42.19115"></scales>
<clustering>
<clus scale="   42.191">  2  9  1 -1</clus>
<clus scale="   72.989">  5  6 -1 -1</clus>
<clus scale="   91.773">  7  8 -1 -1</clus>
<clus scale="   96.195">  2  5  1 -1</clus>
<clus scale="   42.191">  2  5  1 -1</clus>
</clustering>
</event>
<event>
 9    1  0.7586638E-005  0.1260498E+03  0.7546771E-02  0.1235708E+00
          1   -1    0    0  502    0 -0.00000000000E+00  0.00000000000E+00  0.68104168845E+03  0.68104168845E+03  0.00000000000E+00 0. -1.
         21   -1    0    0  501  502  0.00000000000E+00 -0.00000000000E+00 -0.56792812780E+02  0.56792812780E+02  0.00000000000E+00 0.  1.
        -24    2    1    2    0    0  0.92334201511E+02  0.19877148885E+02  0.57344202198E+03  0.58667341087E+03  0.80182495757E+02 0.  0.
         23    2    1    2    0    0 -0.63532178128E+02 -0.13087384132E+02  0.52182496257E+02  0.12153762249E+03  0.88548085716E+02 0.  0.
         13    1    3    3    0    0  0.61309980144E+02 -0.27166371053E+02  0.28561363070E+03  0.29338042100E+03  0.00000000000E+00 0. -1.
        -14    1    3    3    0    0  0.31024221366E+02  0.47043519938E+02  0.28782839128E+03  0.29329298987E+03  0.00000000000E+00 0.  1.
        -13    1    4    4    0    0 -0.18679285123E+02  0.35317418873E+02  0.35558472674E+02  0.53484958142E+02  0.00000000000E+00 0. -1.
         13    1    4    4    0    0 -0.44852893005E+02 -0.48404803005E+02  0.16624023583E+02  0.68052664348E+02  0.00000000000E+00 0.  1.
          2    1    1    2  501    0 -0.28802023383E+02 -0.67897647534E+01 -0.13756425693E+01  0.29623467873E+02  0.00000000000E+00 0. -1.
<scales pt_clust_5="13000.00000" pt_clust_6="13000.00000" pt_clust_7="13000.00000" pt_clust_8="13000.00000" pt_clust_9="29.59151"></scales>
<clustering>
<clus scale="   29.592">  2  9  1 -1</clus>
<clus scale="   80.182">  5  6 -1 -1</clus>
<clus scale="   88.548">  7  8 -1 -1</clus>
<clus scale="  120.321">  1  5  2 -1</clus>
<clus scale="   29.592">  2  5  1 -1</clus>
</clustering>
</event>
<event>
 9    1  0.7586638E-005  0.1219514E+03  0.7546771E-02  0.1257043E+00
          1   -1    0    0  502    0 -0.00000000000E+00  0.00000000000E+00  0.59075634372E+03  0.59075634372E+03  0.00000000000E+00 0. -1.
         21   -1    0    0  501  502  0.00000000000E+00 -0.00000000000E+00 -0.41520268981E+02  0.41520268981E+02  0.00000000000E+00 0.  1.
         23    2    1    2    0    0 -0.39466671858E+02  0.43541844253E+01  0.39117467640E+03  0.40992560726E+03  0.11595170943E+03 0.  0.
        -24    2    1    2    0    0  0.27137491862E+02  0.51260050027E+02  0.80468907120E+02  0.12609329694E+03  0.77847532562E+02 0.  0.
         11    1    4    4    0    0 -0.13050979676E+02  0.53834083554E+02  0.57002820793E+02  0.79484326764E+02  0.00000000000E+00 0. -1.
        -12    1    4    4    0    0  0.40188471537E+02 -0.25740335271E+01  0.23466086326E+02  0.46608970173E+02  0.00000000000E+00 0.  1.
        -11    1    3    3    0    0 -0.33244081786E+01 -0.53889938893E+02  0.17628294111E+03  0.18436608292E+03  0.00000000000E+00 0.  1.
         11    1    3    3    0    0 -0.36142263680E+02  0.58244123319E+02  0.21489173529E+03  0.22555952434E+03  0.00000000000E+00 0. -1.
          2    1    1    2  501    0  0.12329179997E+02 -0.55614234453E+02  0.77592491214E+02  0.96257708501E+02  0.00000000000E+00 0. -1.
<scales pt_clust_5="13000.00000" pt_clust_6="13000.00000" pt_clust_7="13000.00000" pt_clust_8="13000.00000" pt_clust_9="56.96448"></scales>
<clustering>
<clus scale="   56.964">  2  9  1 -1</clus>
<clus scale="   77.848">  5  6 -1 -1</clus>
<clus scale="   86.531">  2  5  1 -1</clus>
<clus scale="  115.952">  7  8 -1 -1</clus>
<clus scale="   56.964">  2  5  1 -1</clus>
</clustering>
</event>
<event>
 9    1  0.7586638E-005  0.1269940E+03  0.7546771E-02  0.1234586E+00
          1   -1    0    0  502    0 -0.00000000000E+00  0.00000000000E+00  0.89174148396E+03  0.89174148396E+03  0.00000000000E+00 0. -1.
         21   -1    0    0  501  502  0.00000000000E+00 -0.00000000000E+00 -0.36409450684E+02  0.36409450684E+02  0.00000000000E+00 0. -1.
        -24    2    1    2    0    0  0.54837259280E+02 -0.10431428325E+03  0.39108918388E+03  0.41646195363E+03  0.81247857692E+02 0.  0.
         23    2    1    2    0    0 -0.74651454126E+02  0.11656171692E+02  0.21955150534E+03  0.24929236935E+03  0.90747539791E+02 0.  0.
         11    1    3    3    0    0  0.17900551284E+01 -0.85679308485E+02  0.26200542557E+03  0.27566463543E+03  0.00000000000E+00 0. -1.
        -12    1    3    3    0    0  0.53047204152E+02 -0.18634974764E+02  0.12908375832E+03  0.14079731821E+03  0.00000000000E+00 0.  1.
        -13    1    4    4    0    0 -0.34248484771E+02 -0.14116322144E+02  0.18869016656E+03  0.19229198687E+03  0.00000000000E+00 0.  1.
         13    1    4    4    0    0 -0.40402969354E+02  0.25772493836E+02  0.30861338780E+02  0.57000382476E+02  0.00000000000E+00 0. -1.
          2    1    1    2  501    0  0.19814194845E+02  0.92658111558E+02  0.24469134406E+03  0.26239661166E+03  0.00000000000E+00 0. -1.
<scales pt_clust_5="13000.00000" pt_clust_6="13000.00000" pt_clust_7="13000.00000" pt_clust_8="13000.00000" pt_clust_9="94.75303"></scales>
<clustering>
<clus scale="   81.248">  5  6 -1 -1</clus>
<clus scale="   90.748">  7  8 -1 -1</clus>
<clus scale="   94.753">  2  9  1 -1</clus>
<clus scale="  120.389">  1  5  2 -1</clus>
<clus scale="   94.753">  2  5  1 -1</clus>
</clustering>
</event>
<event>
 9    1  0.7586638E-005  0.1029087E+03  0.7546771E-02  0.1282047E+00
         21   -1    0    0  501  502  0.00000000000E+00  0.00000000000E+00  0.51935360947E+02  0.51935360947E+02  0.00000000000E+00 0. -1.
          1   -1    0    0  502    0 -0.00000000000E+00 -0.00000000000E+00 -0.30223477645E+03  0.30223477645E+03  0.00000000000E+00 0. -1.
        -24    2    1    2    0    0 -0.62793732872E+02  0.11493999499E+02 -0.13305548272E+03  0.16694633504E+03  0.78052241409E+02 0.  0.
         23    2    1    2    0    0  0.13771583200E+02 -0.11104193482E+02 -0.89603859256E+02  0.13094506062E+03  0.93833883486E+02 0.  0.
         11    1    3    3    0    0 -0.40194751549E+02 -0.25674298375E+02 -0.10461597503E+03  0.11497517071E+03  0.00000000000E+00 0. -1.
        -12    1    3    3    0    0 -0.22598981323E+02  0.37168297874E+02 -0.28439507687E+02  0.51971164324E+02  0.00000000000E+00 0.  1.
        -11    1    4    4    0    0 -0.24004779990E+02  0.27215515698E+02 -0.58359890024E+02  0.68722561948E+02  0.00000000000E+00 0.  1.
         11    1    4    4    0    0  0.37776363190E+02 -0.38319709179E+02 -0.31243969232E+02  0.62222498671E+02  0.00000000000E+00 0. -1.
          2    1    1    2  501    0  0.49022149672E+02 -0.38980601753E+00 -0.27640073532E+02  0.56278741742E+02  0.00000000000E+00 0. -1.
<scales pt_clust_5="13000.00000" pt_clust_6="13000.00000" pt_clust_7="13000.00000" pt_clust_8="13000.00000" pt_clust_9="49.02370"></scales>
<clustering>
<clus scale="   49.024">  1  9  2 -1</clus>
<clus scale="   78.052">  5  6 -1 -1</clus>
<clus scale="   88.756">  2  5  1 -1</clus>
<clus scale="   93.834">  7  8 -1 -1</clus>
<clus scale="   49.024">  1  5  2 -1</clus>
</clustering>
</event>
<event>
 9    1  0.7586638E-005  0.1000893E+03  0.7546771E-02  0.1287008E+00
         21   -1    0    0  501  502  0.00000000000E+00  0.00000000000E+00  0.16648224402E+03  0.16648224402E+03  0.00000000000E+00 0.  1.
          1   -1    0    0  502    0 -0.00000000000E+00 -0.00000000000E+00 -0.14546417380E+03  0.14546417380E+03  0.00000000000E+00 0. -1.
        -24    2    1    2    0    0 -0.42162939146E+01 -0.28619422462E+02 -0.30978735401E+02  0.91669271007E+02  0.81281761321E+02 0.  0.
         23    2    1    2    0    0  0.79719839781E+02  0.15729091910E+02  0.68184722236E+02  0.14198925053E+03  0.94388207589E+02 0.  0.
         13    1    3    3    0    0  0.13528836051E+02 -0.48172140735E+02  0.11921002972E+01  0.50050031479E+02  0.00000000000E+00 0. -1.
        -14    1    3    3    0    0 -0.17745129966E+02  0.19552718273E+02 -0.32170835698E+02  0.41619239528E+02  0.00000000000E+00 0.  1.
        -13    1    4    4    0    0  0.31718070716E+02 -0.92240108092E+01  0.80055057560E+02  0.86602139849E+02  0.00000000000E+00 0.  1.
         13    1    4    4    0    0  0.48001769064E+02  0.24953102719E+02 -0.11870335324E+02  0.55387110679E+02  0.00000000000E+00 0. -1.
          2    1    1    2  501    0 -0.75503545866E+02  0.12890330552E+02 -0.16187916610E+02  0.78287896282E+02  0.00000000000E+00 0. -1.
<scales pt_clust_5="13000.00000" pt_clust_6="13000.00000" pt_clust_7="13000.00000" pt_clust_8="13000.00000" pt_clust_9="76.59603"></scales>
<clustering>
<clus scale="   76.596">  1  9  2 -1</clus>
<clus scale="   81.282">  5  6 -1 -1</clus>
<clus scale="   87.838">  2  5  1 -1</clus>
<clus scale="   94.388">  7  8 -1 -1</clus>
<clus scale="   76.596">  1  5  2 -1</clus>
</clustering>
</event>
<event>
 9    1  0.7586638E-005  0.9722438E+02  0.7546771E-02  0.1293713E+00
         21   -1    0    0  501  502  0.00000000000E+00  0.00000000000E+00  0.41361916868E+03  0.41361916868E+03  0.00000000000E+00 0. -1.
          3   -1    0    0  502    0 -0.00000000000E+00 -0.00000000000E+00 -0.10275320151E+03  0.10275320151E+03  0.00000000000E+00 0. -1.
        -24    2    1    2    0    0 -0.16794440803E+02  0.26737440823E+02 -0.54087758360E+02  0.10113493174E+03  0.79409349763E+02 0.  0.
         23    2    1    2    0    0  0.49801484326E+02  0.24054027726E+02  0.11393351691E+03  0.15701198786E+03  0.92806971531E+02 0.  0.
         13    1    3    3    0    0  0.27257234138E+02  0.24468551608E+02 -0.41312270601E+02  0.55212050613E+02  0.00000000000E+00 0. -1.
        -14    1    3    3    0    0 -0.44051674942E+02  0.22688892148E+01 -0.12775487759E+02  0.45922881126E+02  0.00000000000E+00 0.  1.
        -11    1    4    4    0    0  0.76059242543E+02  0.24569305990E+02  0.72243897265E+02  0.10773968566E+03  0.00000000000E+00 0. -1.
         11    1    4    4    0    0 -0.26257758217E+02 -0.51527826388E+00  0.41689619641E+02  0.49272302200E+02  0.00000000000E+00 0.  1.
          4    1    1    2  501    0 -0.33007043523E+02 -0.50791468549E+02  0.25102020862E+03  0.25822545059E+03  0.00000000000E+00 0. -1.
<scales pt_clust_5="13000.00000" pt_clust_6="13000.00000" pt_clust_7="13000.00000" pt_clust_8="13000.00000" pt_clust_9="60.57424"></scales>
<clustering>
<clus scale="   60.574">  1  9  2 -1</clus>
<clus scale="   79.409">  5  6 -1 -1</clus>
<clus scale="   84.530">  2  5  1 -1</clus>
<clus scale="   92.807">  7  8 -1 -1</clus>
<clus scale="   60.574">  1  5  2 -1</clus>
</clustering>
</event>
<event>
 9    1  0.7586638E-005  0.1533147E+03  0.7546771E-02  0.1198406E+00
         21   -1    0    0  501  502  0.00000000000E+00  0.00000000000E+00  0.33031071502E+03  0.33031071502E+03  0.00000000000E+00 0.  1.
          1   -1    0    0  502    0 -0.00000000000E+00 -0.00000000000E+00 -0.15856962482E+03  0.15856962482E+03  0.00000000000E+00 0. -1.
        -24    2    1    2    0    0  0.90046718084E+02 -0.68394002027E+02 -0.35833413694E+02  0.14364629758E+03  0.81018975064E+02 0.  0.
         23    2    1    2    0    0 -0.12028751128E+03  0.74747938927E+02  0.38363727480E+02  0.17322484210E+03  0.92080022750E+02 0.  0.
         11    1    3    3    0    0  0.18585308713E+02 -0.16682070266E+02  0.25901061860E+02  0.35980135822E+02  0.00000000000E+00 0. -1.
        -12    1    3    3    0    0  0.71461409371E+02 -0.51711931761E+02 -0.61734475554E+02  0.10766616176E+03  0.00000000000E+00 0.  1.
        -11    1    4    4    0    0 -0.84755735686E+02  0.76862867251E+02 -0.80882566572E+01  0.11470333469E+03  0.00000000000E+00 0. -1.
         11    1    4    4    0    0 -0.35531775596E+02 -0.21149283238E+01  0.46451984138E+02  0.58521507407E+02  0.00000000000E+00 0.  1.
          2    1    1    2  501    0  0.30240793199E+02 -0.63539369000E+01  0.16921077641E+03  0.17200920016E+03  0.00000000000E+00 0. -1.
<scales pt_clust_5="13000.00000" pt_clust_6="13000.00000" pt_clust_7="13000.00000" pt_clust_8="13000.00000" pt_clust_9="30.90110"></scales>
<clustering>
<clus scale="   30.901">  1  9  2 -1</clus>
<clus scale="   81.019">  5  6 -1 -1</clus>
<clus scale="   92.080">  7  8 -1 -1</clus>
<clus scale="  146.938">  2  5  1 -1</clus>
<clus scale="   30.901">  1  5  2 -1</clus>
</clustering>
</event>
<event>
 9    1  0.7586638E-005  0.9913250E+02  0.7546771E-02  0.1289816E+00
         21   -1    0    0  501  502  0.00000000000E+00  0.00000000000E+00  0.10246066218E+03  0.10246066218E+03  0.00000000000E+00 0.  1.
          1   -1    0    0  502    0 -0.00000000000E+00 -0.00000000000E+00 -0.40438931259E+03  0.40438931259E+03  0.00000000000E+00 0. -1.
         23    2    1    2    0    0  0.35136180111E+02 -0.13596154216E+02 -0.33548419253E+03  0.35003329931E+03  0.92489245999E+02 0.  0.
        -24    2    1    2    0    0  0.81782820275E+00  0.52521783923E+02 -0.12508846018E+00  0.94029095169E+02  0.77988771382E+02 0.  0.
         11    1    4    4    0    0 -0.33976078320E+02  0.60414916928E+01  0.79408963071E+01  0.35410893156E+02  0.00000000000E+00 0. -1.
        -12    1    4    4    0    0  0.34793906523E+02  0.46480292231E+02 -0.80659847673E+01  0.58618202013E+02  0.00000000000E+00 0.  1.
        -13    1    3    3    0    0  0.57351881049E+02  0.69584345143E+01 -0.28789958580E+03  0.29363894424E+03  0.00000000000E+00 0. -1.
         13    1    3    3    0    0 -0.22215700937E+02 -0.20554588731E+02 -0.47584606734E+02  0.56394355072E+02  0.00000000000E+00 0.  1.
          2    1    1    2  501    0 -0.35954008314E+02 -0.38925629707E+02  0.33680630579E+02  0.62787580286E+02  0.00000000000E+00 0. -1.
<scales pt_clust_5="13000.00000" pt_clust_6="13000.00000" pt_clust_7="13000.00000" pt_clust_8="13000.00000" pt_clust_9="52.98958"></scales>
<clustering>
<clus scale="   52.990">  1  9  2 -1</clus>
<clus scale="   77.989">  5  6 -1 -1</clus>
<clus scale="   85.763">  1  5  2 -1</clus>
<clus scale="   92.489">  7  8 -1 -1</clus>
<clus scale="   52.990">  1  5  2 -1</clus>
</clustering>
</event>
<event>
 9    1  0.7586638E-005  0.9666986E+02  0.7546771E-02  0.1294616E+00
         21   -1    0    0  501  502  0.00000000000E+00  0.00000000000E+00  0.65645369829E+02  0.65645369829E+02  0.00000000000E+00 0.  1.
          1   -1    0    0  502    0 -0.00000000000E+00 -0.00000000000E+00 -0.38995856946E+03  0.38995856946E+03  0.00000000000E+00 0. -1.
         23    2    1    2    0    0  0.24666001516E+02  0.57689171396E+01 -0.28473568428E+03  0.30085724485E+03  0.93802877586E+02 0.  0.
        -24    2    1    2    0    0 -0.81029162570E+01 -0.28236575667E+02 -0.71631392745E+02  0.11224278252E+03  0.81267609438E+02 0.  0.
         11    1    4    4    0    0  0.63349102005E+01  0.25621274029E+02 -0.78734872164E+01  0.27542196192E+02  0.00000000000E+00 0. -1.
        -12    1    4    4    0    0 -0.14437826457E+02 -0.53857849696E+02 -0.63757905528E+02  0.84700586327E+02  0.00000000000E+00 0.  1.
        -11    1    3    3    0    0  0.60839068892E+01 -0.38285359604E+02 -0.62576291813E+02  0.73610970515E+02  0.00000000000E+00 0.  1.
         11    1    3    3    0    0  0.18582094626E+02  0.44054276744E+02 -0.22215939246E+03  0.22724627434E+03  0.00000000000E+00 0. -1.
          2    1    1    2  501    0 -0.16563085259E+02  0.22467658527E+02  0.32053877388E+02  0.42503911921E+02  0.00000000000E+00 0. -1.
<scales pt_clust_5="13000.00000" pt_clust_6="13000.00000" pt_clust_7="13000.00000" pt_clust_8="13000.00000" pt_clust_9="27.91293"></scales>
<clustering>
<clus scale="   27.913">  1  9  2 -1</clus>
<clus scale="   81.268">  5  6 -1 -1</clus>
<clus scale="   84.561">  1  5  2 -1</clus>
<clus scale="   93.803">  7  8 -1 -1</clus>
<clus scale="   27.913">  1  5  2 -1</clus>
</clustering>
</event>
<event>
 9    1  0.7586638E-005  0.1388761E+03  0.7546771E-02  0.1222035E+00
          1   -1    0    0  502    0 -0.00000000000E+00  0.00000000000E+00  0.67314105839E+03  0.67314105839E+03  0.00000000000E+00 0. -1.
         21   -1    0    0  501  502  0.00000000000E+00 -0.00000000000E+00 -0.81784015374E+02  0.81784015374E+02  0.00000000000E+00 0. -1.
         23    2    1    2    0    0 -0.24834176956E+02  0.77673747292E+02  0.37668703021E+03  0.39515149194E+03  0.87187358531E+02 0.  0.
        -24    2    1    2    0    0 -0.10285191435E+03 -0.87362421433E+01  0.50983045953E+02  0.14102820325E+03  0.81454557434E+02 0.  0.
         11    1    4    4    0    0 -0.54602590075E+02 -0.19928839033E+02  0.67255960597E+02  0.88893001434E+02  0.00000000000E+00 0. -1.
        -12    1    4    4    0    0 -0.48249324273E+02  0.11192596890E+02 -0.16272914644E+02  0.52135201821E+02  0.00000000000E+00 0.  1.
        -13    1    3    3    0    0  0.29999236670E+02  0.36122336978E+02  0.10741585672E+03  0.11723030199E+03  0.00000000000E+00 0.  1.
         13    1    3    3    0    0 -0.54833413626E+02  0.41551410314E+02  0.26927117349E+03  0.27792118995E+03  0.00000000000E+00 0. -1.
          2    1    1    2  501    0  0.12768609130E+03 -0.68937505149E+02  0.16368696685E+03  0.21874537857E+03  0.00000000000E+00 0. -1.
<scales pt_clust_5="13000.00000" pt_clust_6="13000.00000" pt_clust_7="13000.00000" pt_clust_8="13000.00000" pt_clust_9="112.47993"></scales>
<clustering>
<clus scale="   81.455">  5  6 -1 -1</clus>
<clus scale="   87.187">  7  8 -1 -1</clus>
<clus scale="  119.380">  1  7  2 -1</clus>
<clus scale="  112.480">  2  9  1 -1</clus>
<clus scale="  112.480">  2  5  1 -1</clus>
</clustering>
</event>
<event>
 9    1  0.7586638E-005  0.9798823E+02  0.7546771E-02  0.1290085E+00
          1   -1    0    0  502    0 -0.00000000000E+00  0.00000000000E+00  0.38985937416E+03  0.38985937416E+03  0.00000000000E+00 0. -1.
         21   -1    0    0  501  502  0.00000000000E+00 -0.00000000000E+00 -0.12457800618E+03  0.12457800618E+03  0.00000000000E+00 0. -1.
         23    2    1    2    0    0 -0.30780615486E+02 -0.25935060685E+02  0.26659975359E+03  0.28449805437E+03  0.90794496878E+02 0.  0.
        -24    2    1    2    0    0  0.11423412084E+02  0.31673242928E+02  0.96545952365E+02  0.13001407036E+03  0.80304725342E+02 0.  0.
         13    1    4    4    0    0  0.34925904522E+02  0.31829466726E+02  0.22518461207E+02  0.52345151198E+02  0.00000000000E+00 0. -1.
        -14    1    4    4    0    0 -0.23502492438E+02 -0.15622379809E+00  0.74027491158E+02  0.77668919162E+02  0.00000000000E+00 0.  1.
        -11    1    3    3    0    0 -0.43367672021E+02 -0.74399358968E+01  0.25597870917E+03  0.25973295357E+03  0.00000000000E+00 0. -1.
         11    1    3    3    0    0  0.12587056534E+02 -0.18495124788E+02  0.10621044426E+02  0.24765100804E+02  0.00000000000E+00 0.  1.
          2    1    1    2  501    0  0.19357203403E+02 -0.57381822434E+01 -0.97864337982E+02  0.99925255604E+02  0.00000000000E+00 0. -1.
<scales pt_clust_5="13000.00000" pt_clust_6="13000.00000" pt_clust_7="13000.00000" pt_clust_8="13000.00000" pt_clust_9="20.18980"></scales>
<clustering>
<clus scale="   20.190">  2  9  1 -1</clus>
<clus scale="   80.305">  5  6 -1 -1</clus>
<clus scale="   88.357">  2  5  1 -1</clus>
<clus scale="   90.794">  7  8 -1 -1</clus>
<clus scale="   20.190">  2  5  1 -1</clus>
</clustering>
</event>
<event>
 9    1  0.7586638E-005  0.1309397E+03  0.7546771E-02  0.1230181E+00
          1   -1    0    0  502    0 -0.00000000000E+00  0.00000000000E+00  0.50425179893E+03  0.50425179893E+03  0.00000000000E+00 0. -1.
         21   -1    0    0  501  502  0.00000000000E+00 -0.00000000000E+00 -0.20209099394E+03  0.20209099394E+03  0.00000000000E+00 0.  1.
         23    2    1    2    0    0  0.91211379474E+02  0.17263812881E+02  0.39202684213E+03  0.41322597546E+03  0.91940779148E+02 0.  0.
        -24    2    1    2    0    0 -0.83250464212E+02 -0.88354045013E+02 -0.14425256448E+03  0.20325530377E+03  0.75939706952E+02 0.  0.
         13    1    4    4    0    0 -0.36626286978E+02  0.63691756684E+01 -0.44771707029E+02  0.58194132409E+02  0.00000000000E+00 0. -1.
        -14    1    4    4    0    0 -0.46624177234E+02 -0.94723220682E+02 -0.99480857450E+02  0.14506117137E+03  0.00000000000E+00 0.  1.
        -13    1    3    3    0    0  0.85824857150E+02  0.45633636415E+02  0.24873122804E+03  0.26704973072E+03  0.00000000000E+00 0. -1.
         13    1    3    3    0    0  0.53865223244E+01 -0.28369823535E+02  0.14329561409E+03  0.14617624474E+03  0.00000000000E+00 0.  1.
          2    1    1    2  501    0 -0.79609152626E+01  0.71090232132E+02  0.54386527338E+02  0.89861513633E+02  0.00000000000E+00 0. -1.
<scales pt_clust_5="13000.00000" pt_clust_6="13000.00000" pt_clust_7="13000.00000" pt_clust_8="13000.00000" pt_clust_9="71.53462"></scales>
<clustering>
<clus scale="   71.535">  2  9  1 -1</clus>
<clus scale="   75.940">  5  6 -1 -1</clus>
<clus scale="   91.941">  7  8 -1 -1</clus>
<clus scale="  120.245">  2  5  1 -1</clus>
<clus scale="   71.535">  2  5  1 -1</clus>
</clustering>
</event>
<event>
 9    1  0.7586638E-005  0.1303263E+03  0.7546771E-02  0.1247534E+00
          1   -1    0    0  502    0 -0.00000000000E+00  0.00000000000E+00  0.11326069591E+04  0.11326069591E+04  0.00000000000E+00 0. -1.
         21   -1    0    0  501  502  0.00000000000E+00 -0.00000000000E+00 -0.31791510327E+02  0.31791510327E+02  0.00000000000E+00 0. -1.
        -24    2    1    2    0    0 -0.18938865375E+02 -0.27624668035E+02  0.27595338955E+03  0.28894633531E+03  0.78853716341E+02 0.  0.
         23    2    1    2    0    0 -0.22743303781E+02  0.13140799954E+03  0.66178471696E+03  0.67770835372E+03  0.59533863374E+02 0.  0.
         13    1    3    3    0    0 -0.47040910973E+02 -0.30715581065E+02  0.15931893107E+03  0.16893435419E+03  0.00000000000E+00 0. -1.
        -14    1    3    3    0    0  0.28102045599E+02  0.30909130302E+01  0.11663445848E+03  0.12001198113E+03  0.00000000000E+00 0.  1.
        -13    1    4    4    0    0 -0.42769512749E+02  0.77331392260E+02  0.40437751368E+03  0.41392094537E+03  0.00000000000E+00 0. -1.
         13    1    4    4    0    0  0.20026208968E+02  0.54076607278E+02  0.25740720328E+03  0.26378740835E+03  0.00000000000E+00 0.  1.
          2    1    1    2  501    0  0.41682169155E+02 -0.10378333150E+03  0.16307734223E+03  0.19774378036E+03  0.00000000000E+00 0. -1.
<scales pt_clust_5="13000.00000" pt_clust_6="13000.00000" pt_clust_7="13000.00000" pt_clust_8="13000.00000" pt_clust_9="115.93384"></scales>
<clustering>
<clus scale="   59.534">  7  8 -1 -1</clus>
<clus scale="   78.854">  5  6 -1 -1</clus>
<clus scale="   85.672">  1  5  2 -1</clus>
<clus scale="  115.934">  2  9  1 -1</clus>
<clus scale="  115.934">  2  5  1 -1</clus>
</clustering>
</event>
<event>
 9    1  0.7586638E-005  0.1210138E+03  0.7546771E-02  0.1244935E+00
         21   -1    0    0  501  502  0.00000000000E+00  0.00000000000E+00  0.16316945097E+03  0.16316945097E+03  0.00000000000E+00 0. -1.
          1   -1    0    0  502    0 -0.00000000000E+00 -0.00000000000E+00 -0.23052857088E+03  0.23052857088E+03  0.00000000000E+00 0. -1.
         23    2    1    2    0    0  0.61155503149E+02 -0.61073304074E+01 -0.52170983050E+02  0.12147139617E+03  0.90863598678E+02 0.  0.
        -24    2    1    2    0    0 -0.12676664852E+03  0.62484445753E+02  0.43244963218E+02  0.16783491761E+03  0.79525741649E+02 0.  0.
         13    1    4    4    0    0 -0.85344080305E+02  0.70848833129E+02  0.55230380057E+02  0.12390949956E+03  0.00000000000E+00 0. -1.
        -14    1    4    4    0    0 -0.41422568218E+02 -0.83643873763E+01 -0.11985416839E+02  0.43925418049E+02  0.00000000000E+00 0.  1.
        -13    1    3    3    0    0  0.59458271978E+02 -0.42568266790E+02 -0.36853060499E+02  0.81887065598E+02  0.00000000000E+00 0.  1.
         13    1    3    3    0    0  0.16972311716E+01  0.36460936382E+02 -0.15317922551E+02  0.39584330572E+02  0.00000000000E+00 0. -1.
          2    1    1    2  501    0  0.65611145374E+02 -0.56377115346E+02 -0.58433100076E+02  0.10439170808E+03  0.00000000000E+00 0. -1.
<scales pt_clust_5="13000.00000" pt_clust_6="13000.00000" pt_clust_7="13000.00000" pt_clust_8="13000.00000" pt_clust_9="86.50554"></scales>
<clustering>
<clus scale="   79.526">  5  6 -1 -1</clus>
<clus scale="   86.506">  1  9  2 -1</clus>
<clus scale="   90.864">  7  8 -1 -1</clus>
<clus scale="  112.750">  1  5  2 -1</clus>
<clus scale="   86.506">  1  5  2 -1</clus>
</clustering>
</event>
<event>
 9    1  0.7586638E-005  0.9028724E+02  0.7546771E-02  0.1307868E+00
          3   -1    0    0  502    0 -0.00000000000E+00  0.00000000000E+00  0.25158189523E+03  0.25158189523E+03  0.00000000000E+00 0. -1.
         21   -1    0    0  501  502  0.00000000000E+00 -0.00000000000E+00 -0.62993349950E+02  0.62993349950E+02  0.00000000000E+00 0. -1.
        -24    2    1    2    0    0  0.74899119151E+01 -0.18271312561E+02  0.13902986789E+03  0.16119928895E+03  0.79157860937E+02 0.  0.
         23    2    1    2    0    0 -0.40684262819E+02 -0.14526382801E+02  0.36883324550E+02  0.10502082907E+03  0.88333288577E+02 0.  0.
         13    1    3    3    0    0 -0.26121059782E+02 -0.31552647675E+02  0.99698835407E+02  0.10778560721E+03  0.00000000000E+00 0. -1.
        -14    1    3    3    0    0  0.33610971697E+02  0.13281335114E+02  0.39331032485E+02  0.53413681742E+02  0.00000000000E+00 0.  1.
        -13    1    4    4    0    0 -0.24062601109E+02  0.31049256406E+02  0.40440959345E+02  0.56378509099E+02  0.00000000000E+00 0.  1.
         13    1    4    4    0    0 -0.16621661711E+02 -0.45575639207E+02 -0.35576347943E+01  0.48642319974E+02  0.00000000000E+00 0. -1.
          4    1    1    2  501    0  0.33194350904E+02  0.32797695363E+02  0.12675352838E+02  0.48355127160E+02  0.00000000000E+00 0. -1.
<scales pt_clust_5="13000.00000" pt_clust_6="13000.00000" pt_clust_7="13000.00000" pt_clust_8="13000.00000" pt_clust_9="46.66427"></scales>
<clustering>
<clus scale="   46.664">  2  9  1 -1</clus>
<clus scale="   79.158">  5  6 -1 -1</clus>
<clus scale="   81.333">  1  5  2 -1</clus>
<clus scale="   88.333">  7  8 -1 -1</clus>
<clus scale="   46.664">  2  5  1 -1</clus>
</clustering>
</event>
<event>
 9    1  0.9353266E-005  0.9524572E+02  0.7546771E-02  0.1296969E+00
          3   -1    0    0  502    0 -0.00000000000E+00  0.00000000000E+00  0.32833419680E+03  0.32833419680E+03  0.00000000000E+00 0. -1.
         21   -1    0    0  501  502  0.00000000000E+00 -0.00000000000E+00 -0.11627131766E+03  0.11627131766E+03  0.00000000000E+00 0.  1.
         23    2    1    2    0    0  0.13694609134E+02  0.25948890117E+02  0.16433917035E+03  0.19032751873E+03  0.91412877953E+02 0.  0.
        -24    2    1    2    0    0 -0.15544111356E+02  0.14468074396E+01 -0.85457288783E+02  0.11829592699E+03  0.80294865878E+02 0.  0.
         11    1    4    4    0    0 -0.75038270035E-01  0.34401175390E+02 -0.12215481569E+02  0.36505677489E+02  0.00000000000E+00 0. -1.
        -12    1    4    4    0    0 -0.15469073085E+02 -0.32954367951E+02 -0.73241807214E+02  0.81790249499E+02  0.00000000000E+00 0.  1.
        -11    1    3    3    0    0 -0.32167899413E+02  0.26316684676E+02  0.11810242894E+03  0.12520193835E+03  0.00000000000E+00 0.  1.
         11    1    3    3    0    0  0.45862508548E+02 -0.36779455886E+00  0.46236741407E+02  0.65125580374E+02  0.00000000000E+00 0. -1.
          4    1    1    2  501    0  0.18495022211E+01 -0.27395697557E+02  0.13318099757E+03  0.13598206873E+03  0.00000000000E+00 0. -1.
<scales pt_clust_5="13000.00000" pt_clust_6="13000.00000" pt_clust_7="13000.00000" pt_clust_8="13000.00000" pt_clust_9="27.45807"></scales>
<clustering>
<clus scale="   27.458">  2  9  1 -1</clus>
<clus scale="   80.295">  5  6 -1 -1</clus>
<clus scale="   84.633">  2  5  1 -1</clus>
<clus scale="   91.413">  7  8 -1 -1</clus>
<clus scale="   27.458">  2  5  1 -1</clus>
</clustering>
</event>
<event>
 9    1  0.7586638E-005  0.1321330E+03  0.7546771E-02  0.1249342E+00
          1   -1    0    0  502    0 -0.00000000000E+00  0.00000000000E+00  0.16393336699E+03  0.16393336699E+03  0.00000000000E+00 0. -1.
         21   -1    0    0  501  502  0.00000000000E+00 -0.00000000000E+00 -0.34911676780E+03  0.34911676780E+03  0.00000000000E+00 0.  1.
        -24    2    1    2    0    0  0.16184168168E+01  0.14660216832E+02  0.46892439451E+02  0.92110839874E+02  0.77897141886E+02 0.  0.
         23    2    1    2    0    0 -0.98748276066E+02 -0.25882889644E+02 -0.28160982631E+03  0.31133193332E+03  0.84866556603E+02 0.  0.
         11    1    3    3    0    0  0.26598982473E+02  0.15814017309E+02 -0.78516509756E+01  0.31925498197E+02  0.00000000000E+00 0. -1.
        -12    1    3    3    0    0 -0.24980565656E+02 -0.11538004774E+01  0.54744090427E+02  0.60185341677E+02  0.00000000000E+00 0.  1.
        -13    1    4    4    0    0 -0.49093021313E+02 -0.58211388795E+01 -0.23558878966E+03  0.24071993730E+03  0.00000000000E+00 0.  1.
         13    1    4    4    0    0 -0.49655254753E+02 -0.20061750764E+02 -0.46021036654E+02  0.70611996028E+02  0.00000000000E+00 0. -1.
          2    1    1    2  501    0  0.97129859249E+02  0.11222672812E+02  0.49533986049E+02  0.10960736160E+03  0.00000000000E+00 0. -1.
<scales pt_clust_5="13000.00000" pt_clust_6="13000.00000" pt_clust_7="13000.00000" pt_clust_8="13000.00000" pt_clust_9="101.27592"></scales>
<clustering>
<clus scale="   77.897">  5  6 -1 -1</clus>
<clus scale="   79.281">  1  5  2 -1</clus>
<clus scale="   84.867">  7  8 -1 -1</clus>
<clus scale="  101.276">  2  9  1 -1</clus>
<clus scale="  101.276">  2  5  1 -1</clus>
</clustering>
</event>
<event>
 9    1  0.7586638E-005  0.1330431E+03  0.7546771E-02  0.1227436E+00
         21   -1    0    0  501  502  0.00000000000E+00  0.00000000000E+00  0.21700972904E+03  0.21700972904E+03  0.00000000000E+00 0.  1.
         -2   -1    0    0    0  501 -0.00000000000E+00 -0.00000000000E+00 -0.22054281693E+03  0.22054281693E+03  0.00000000000E+00 0.  1.
         23    2    1    2    0    0  0.58739895359E+02 -0.56829266687E+02 -0.50016772572E+02  0.13513215010E+03  0.95284204316E+02 0.  0.
        -24    2    1    2    0    0 -0.14851031228E+03  0.20366271679E+02  0.95175465722E+02  0.19398070158E+03  0.78102787619E+02 0.  0.
         13    1    4    4    0    0 -0.37583147603E+02  0.26535288366E+02  0.63574860584E+02  0.78475329949E+02  0.00000000000E+00 0. -1.
        -14    1    4    4    0    0 -0.11092716467E+03 -0.61690166866E+01  0.31600605138E+02  0.11550537163E+03  0.00000000000E+00 0.  1.
        -13    1    3    3    0    0  0.28130504475E+02 -0.77385973746E+02 -0.53345804273E+02  0.98110596004E+02  0.00000000000E+00 0.  1.
         13    1    3    3    0    0  0.30609390883E+02  0.20556707059E+02  0.33290317008E+01  0.37021554093E+02  0.00000000000E+00 0. -1.
         -1    1    1    2    0  502  0.89770416919E+02  0.36462995007E+02 -0.48691781041E+02  0.10843969430E+03  0.00000000000E+00 0.  1.
<scales pt_clust_5="13000.00000" pt_clust_6="13000.00000" pt_clust_7="13000.00000" pt_clust_8="13000.00000" pt_clust_9="96.89317"></scales>
<clustering>
<clus scale="   78.103">  5  6 -1 -1</clus>
<clus scale="   95.284">  7  8 -1 -1</clus>
<clus scale="   96.893">  1  9  2 -1</clus>
<clus scale="  121.332">  1  5  2 -1</clus>
<clus scale="   96.893">  1  5  2 -1</clus>
</clustering>
</event>
<event>
 9    1  0.7586638E-005  0.2754540E+03  0.7546771E-02  0.1098700E+00
         21   -1    0    0  501  502  0.00000000000E+00  0.00000000000E+00  0.95148900183E+03  0.95148900183E+03  0.00000000000E+00 0. -1.
         -2   -1    0    0    0  501 -0.00000000000E+00 -0.00000000000E+00 -0.13370031185E+03  0.13370031185E+03  0.00000000000E+00 0.  1.
         23    2    1    2    0    0 -0.26021216565E+03  0.14981412666E+02  0.77278051491E+02  0.28689884225E+03  0.91674612433E+02 0.  0.
        -24    2    1    2    0    0  0.25452951501E+03 -0.38111575834E+02  0.63037120105E+03  0.68560510128E+03  0.80304032088E+02 0.  0.
         13    1    4    4    0    0  0.18310881218E+03 -0.18006990435E+02  0.34796759385E+03  0.39361724450E+03  0.00000000000E+00 0. -1.
        -14    1    4    4    0    0  0.71420702834E+02 -0.20104585399E+02  0.28240360720E+03  0.29198785678E+03  0.00000000000E+00 0.  1.
        -11    1    3    3    0    0 -0.18745214097E+03 -0.22536041607E+02  0.79854977345E+02  0.20499511148E+03  0.00000000000E+00 0.  1.
         11    1    3    3    0    0 -0.72760024678E+02  0.37517454273E+02 -0.25769258544E+01  0.81903730765E+02  0.00000000000E+00 0. -1.
         -1    1    1    2    0  502  0.56826506390E+01  0.23130163167E+02  0.11013943744E+03  0.11268537015E+03  0.00000000000E+00 0.  1.
<scales pt_clust_5="13000.00000" pt_clust_6="13000.00000" pt_clust_7="13000.00000" pt_clust_8="13000.00000" pt_clust_9="23.81800"></scales>
<clustering>
<clus scale="   23.818">  1  9  2 -1</clus>
<clus scale="   80.304">  5  6 -1 -1</clus>
<clus scale="   91.675">  7  8 -1 -1</clus>
<clus scale="  271.881">  1  5  2 -1</clus>
<clus scale="   23.818">  1  5  2 -1</clus>
</clustering>
</event>
<event>
 9    1  0.7586638E-005  0.1067366E+03  0.7546771E-02  0.1284482E+00
         -4   -1    0    0    0  501 -0.00000000000E+00  0.00000000000E+00  0.39481812703E+02  0.39481812703E+02  0.00000000000E+00 0.  1.
         21   -1    0    0  501  502  0.00000000000E+00 -0.00000000000E+00 -0.41856148021E+03  0.41856148021E+03  0.00000000000E+00 0.  1.
        -24    2    1    2    0    0  0.14594642113E+02 -0.35353919791E+02 -0.83770859664E+02  0.11308314169E+03  0.65630303848E+02 0.  0.
         23    2    1    2    0    0  0.41688250774E+02 -0.16293401889E+02 -0.19441278734E+03  0.21840890934E+03  0.88897326168E+02 0.  0.
         11    1    3    3    0    0  0.21556013658E+02 -0.48654038975E+02 -0.39320442357E+02  0.66166263462E+02  0.00000000000E+00 0. -1.
        -12    1    3    3    0    0 -0.69613715452E+01  0.13300119184E+02 -0.44450417306E+02  0.46916878230E+02  0.00000000000E+00 0.  1.
        -13    1    4    4    0    0 -0.19210023535E+02  0.16045109431E+02 -0.88961301843E+02  0.92415278858E+02  0.00000000000E+00 0. -1.
         13    1    4    4    0    0  0.60898274309E+02 -0.32338511320E+02 -0.10545148549E+03  0.12599363048E+03  0.00000000000E+00 0.  1.
         -3    1    1    2    0  502 -0.56282892887E+02  0.51647321680E+02 -0.10089602051E+03  0.12655124189E+03  0.00000000000E+00 0.  1.
<scales pt_clust_5="13000.00000" pt_clust_6="13000.00000" pt_clust_7="13000.00000" pt_clust_8="13000.00000" pt_clust_9="59.07591"></scales>
<clustering>
<clus scale="   65.630">  5  6 -1 -1</clus>
<clus scale="   75.962">  1  5  2 -1</clus>
<clus scale="   59.076">  2  9  1 -1</clus>
<clus scale="   88.897">  7  8 -1 -1</clus>
<clus scale="   59.076">  2  5  1 -1</clus>
</clustering>
</event>
<event>
 9    1  0.7586638E-005  0.9850283E+02  0.7546771E-02  0.1285184E+00
         21   -1    0    0  501  502  0.00000000000E+00  0.00000000000E+00  0.42555030281E+02  0.42555030281E+02  0.00000000000E+00 0. -1.
          3   -1    0    0  502    0 -0.00000000000E+00 -0.00000000000E+00 -0.57672476785E+03  0.57672476785E+03  0.00000000000E+00 0. -1.
         23    2    1    2    0    0 -0.22796992789E+01  0.13900687647E+02 -0.22569035835E+03  0.24512956202E+03  0.94625251253E+02 0.  0.
        -24    2    1    2    0    0  0.65846108169E+02  0.57201593651E+02 -0.17432356452E+03  0.20954766821E+03  0.76901156214E+02 0.  0.
         11    1    4    4    0    0  0.80106751808E+02  0.35410155451E+02 -0.15112644359E+03  0.17467161402E+03  0.00000000000E+00 0. -1.
        -12    1    4    4    0    0 -0.14260643640E+02  0.21791438200E+02 -0.23197120931E+02  0.34876054182E+02  0.00000000000E+00 0.  1.
        -11    1    3    3    0    0  0.13678898633E+02  0.41749052453E+02 -0.50118837034E+02  0.66648281855E+02  0.00000000000E+00 0. -1.
         11    1    3    3    0    0 -0.15958597912E+02 -0.27848364805E+02 -0.17557152132E+03  0.17848128016E+03  0.00000000000E+00 0.  1.
          4    1    1    2  501    0 -0.63566408890E+02 -0.71102281298E+02 -0.13415581469E+03  0.16460256791E+03  0.00000000000E+00 0. -1.
<scales pt_clust_5="13000.00000" pt_clust_6="13000.00000" pt_clust_7="13000.00000" pt_clust_8="13000.00000" pt_clust_9="95.37412"></scales>
<clustering>
<clus scale="   76.901">  5  6 -1 -1</clus>
<clus scale="   94.625">  7  8 -1 -1</clus>
<clus scale="   95.374">  1  9  2 -1</clus>
<clus scale="   95.374">  1  5  2 -1</clus>
<clus scale="   95.374">  1  5  2 -1</clus>
</clustering>
</event>
<event>
 9    1  0.7586638E-005  0.1008933E+03  0.7546771E-02  0.1284485E+00
         21   -1    0    0  501  502  0.00000000000E+00  0.00000000000E+00  0.32225859570E+03  0.32225859570E+03  0.00000000000E+00 0. -1.
         -2   -1    0    0    0  501 -0.00000000000E+00 -0.00000000000E+00 -0.21199161341E+03  0.21199161341E+03  0.00000000000E+00 0.  1.
         23    2    1    2    0    0  0.17692222238E+02 -0.37594378513E+02 -0.18900060221E+03  0.21435713614E+03  0.92203048515E+02 0.  0.
        -24    2    1    2    0    0  0.30609331274E+01  0.32385149544E+02  0.27097016073E+03  0.28441669046E+03  0.80061592432E+02 0.  0.
         11    1    4    4    0    0  0.37734098797E+02  0.34031252734E+02  0.14044190468E+03  0.14935165538E+03  0.00000000000E+00 0. -1.
        -12    1    4    4    0    0 -0.34673165670E+02 -0.16461031899E+01  0.13052825605E+03  0.13506503508E+03  0.00000000000E+00 0.  1.
        -11    1    3    3    0    0 -0.18483542902E+02 -0.54907279870E+02 -0.84762152658E+02  0.10266972905E+03  0.00000000000E+00 0.  1.
         11    1    3    3    0    0  0.36175765140E+02  0.17312901356E+02 -0.10423844955E+03  0.11168740709E+03  0.00000000000E+00 0. -1.
         -1    1    1    2    0  502 -0.20753155366E+02  0.52092289695E+01  0.28297423763E+02  0.35476382506E+02  0.00000000000E+00 0.  1.
<scales pt_clust_5="13000.00000" pt_clust_6="13000.00000" pt_clust_7="13000.00000" pt_clust_8="13000.00000" pt_clust_9="21.39695"></scales>
<clustering>
<clus scale="   21.397">  1  9  2 -1</clus>
<clus scale="   80.062">  5  6 -1 -1</clus>
<clus scale="   89.933">  1  5  2 -1</clus>
<clus scale="   92.203">  7  8 -1 -1</clus>
<clus scale="   21.397">  1  5  2 -1</clus>
</clustering>
</event>
<event>
 9    1  0.7586638E-005  0.3381832E+03  0.7546771E-02  0.1067829E+00
         21   -1    0    0  501  502  0.00000000000E+00  0.00000000000E+00  0.26427150468E+04  0.26427150468E+04  0.00000000000E+00 0. -1.
         -2   -1    0    0    0  501 -0.00000000000E+00 -0.00000000000E+00 -0.69675276706E+02  0.69675276706E+02  0.00000000000E+00 0.  1.
         23    2    1    2    0    0 -0.26852719219E+03 -0.12428540258E+03  0.91898856317E+03  0.96940368906E+03  0.87463243107E+02 0.  0.
        -24    2    1    2    0    0  0.37841894633E+03  0.77051426848E+01  0.10820389236E+04  0.11489620500E+04  0.77751476132E+02 0.  0.
         13    1    4    4    0    0  0.31633366781E+03 -0.22888491405E+02  0.88301621447E+03  0.93824757258E+03  0.00000000000E+00 0. -1.
        -14    1    4    4    0    0  0.62085278517E+02  0.30593634090E+02  0.19902270914E+03  0.21071447746E+03  0.00000000000E+00 0.  1.
        -13    1    3    3    0    0 -0.12568252300E+03 -0.12117331315E+02  0.40850518713E+03  0.42757386989E+03  0.00000000000E+00 0. -1.
         13    1    3    3    0    0 -0.14284466920E+03 -0.11216807126E+03  0.51048337604E+03  0.54182981917E+03  0.00000000000E+00 0.  1.
         -1    1    1    2    0  502 -0.10989175413E+03  0.11658025989E+03  0.57201228329E+03  0.59402458439E+03  0.00000000000E+00 0.  1.
<scales pt_clust_5="13000.00000" pt_clust_6="13000.00000" pt_clust_7="13000.00000" pt_clust_8="13000.00000" pt_clust_9="160.20972"></scales>
<clustering>
<clus scale="   77.751">  5  6 -1 -1</clus>
<clus scale="   87.463">  7  8 -1 -1</clus>
<clus scale="  160.210">  1  9  2 -1</clus>
<clus scale="  335.803">  1  5  2 -1</clus>
<clus scale="  160.210">  1  5  2 -1</clus>
</clustering>
</event>
<event>
 9    1  0.7586638E-005  0.1109305E+03  0.7546771E-02  0.1260521E+00
          1   -1    0    0  502    0 -0.00000000000E+00  0.00000000000E+00  0.22877700233E+03  0.22877700233E+03  0.00000000000E+00 0. -1.
         21   -1    0    0  501  502  0.00000000000E+00 -0.00000000000E+00 -0.93318846854E+02  0.93318846854E+02  0.00000000000E+00 0. -1.
         23    2    1    2    0    0  0.56543304693E+01  0.34530379858E+02  0.34557493338E+02  0.10268239173E+03  0.90139528725E+02 0.  0.
        -24    2    1    2    0    0  0.36826373475E+02 -0.82581306876E+02  0.66840341033E+02  0.14679385081E+03  0.94366039542E+02 0.  0.
         13    1    4    4    0    0  0.19017806224E+02 -0.10191381148E+03  0.59364896135E+02  0.11946670171E+03  0.00000000000E+00 0. -1.
        -14    1    4    4    0    0  0.17808567251E+02  0.19332504605E+02  0.74754448973E+01  0.27327149105E+02  0.00000000000E+00 0.  1.
        -11    1    3    3    0    0 -0.27789163970E+02  0.48239298951E+02  0.36360515652E+02  0.66493268050E+02  0.00000000000E+00 0.  1.
         11    1    3    3    0    0  0.33443494439E+02 -0.13708919094E+02 -0.18030223141E+01  0.36189123677E+02  0.00000000000E+00 0. -1.
          2    1    1    2  501    0 -0.42480703944E+02  0.48050927018E+02  0.34060321101E+02  0.72619606639E+02  0.00000000000E+00 0. -1.
<scales pt_clust_5="13000.00000" pt_clust_6="13000.00000" pt_clust_7="13000.00000" pt_clust_8="13000.00000" pt_clust_9="64.13662"></scales>
<clustering>
<clus scale="   64.137">  2  9  1 -1</clus>
<clus scale="   90.140">  7  8 -1 -1</clus>
<clus scale="   94.366">  5  6 -1 -1</clus>
<clus scale="  107.358">  1  7  2 -1</clus>
<clus scale="   64.137">  2  5  1 -1</clus>
</clustering>
</event>
<event>
 9    1  0.7586638E-005  0.2360529E+03  0.7546771E-02  0.1123059E+00
          1   -1    0    0  502    0 -0.00000000000E+00  0.00000000000E+00  0.97167197939E+03  0.97167197939E+03  0.00000000000E+00 0. -1.
         21   -1    0    0  501  502  0.00000000000E+00 -0.00000000000E+00 -0.79781208111E+02  0.79781208111E+02  0.00000000000E+00 0.  1.
         23    2    1    2    0    0  0.12215065600E+03 -0.16744807003E+03  0.53448120461E+03  0.58023937480E+03  0.89710284015E+02 0.  0.
        -24    2    1    2    0    0 -0.11551575535E+03  0.20993312392E+03  0.34278082904E+03  0.42579353447E+03  0.79910143167E+02 0.  0.
         11    1    4    4    0    0 -0.75202832776E+02  0.61708690736E+02  0.10938461293E+03  0.14638450094E+03  0.00000000000E+00 0. -1.
        -12    1    4    4    0    0 -0.40312922570E+02  0.14822443319E+03  0.23339621612E+03  0.27940903353E+03  0.00000000000E+00 0.  1.
        -11    1    3    3    0    0  0.37565748730E+02 -0.10788518884E+03  0.20235917393E+03  0.23237821482E+03  0.00000000000E+00 0.  1.
         11    1    3    3    0    0  0.84584907273E+02 -0.59562881186E+02  0.33212203068E+03  0.34786115997E+03  0.00000000000E+00 0. -1.
          2    1    1    2  501    0 -0.66349006563E+01 -0.42485053895E+02  0.14628737622E+02  0.45420278242E+02  0.00000000000E+00 0. -1.
<scales pt_clust_5="13000.00000" pt_clust_6="13000.00000" pt_clust_7="13000.00000" pt_clust_8="13000.00000" pt_clust_9="43.00002"></scales>
<clustering>
<clus scale="   43.000">  2  9  1 -1</clus>
<clus scale="   79.910">  5  6 -1 -1</clus>
<clus scale="   89.710">  7  8 -1 -1</clus>
<clus scale="  232.505">  2  5  1 -1</clus>
<clus scale="   43.000">  2  5  1 -1</clus>
</clustering>
</event>
<event>
 9    1  0.7586638E-005  0.1327373E+03  0.7546771E-02  0.1225496E+00
         21   -1    0    0  501  502  0.00000000000E+00  0.00000000000E+00  0.54108863393E+02  0.54108863393E+02  0.00000000000E+00 0. -1.
          1   -1    0    0  502    0 -0.00000000000E+00 -0.00000000000E+00 -0.38188569323E+03  0.38188569323E+03  0.00000000000E+00 0. -1.
        -24    2    1    2    0    0  0.82252628723E+02 -0.70401894730E+02 -0.17690013271E+03  0.22358641471E+03  0.83518298462E+02 0.  0.
         23    2    1    2    0    0 -0.60146955450E+02  0.56500677745E+02 -0.12390248651E+03  0.17486466494E+03  0.91737898635E+02 0.  0.
         11    1    3    3    0    0  0.17946957414E+02  0.17259442431E+02 -0.54228017972E+02  0.59671262486E+02  0.00000000000E+00 0. -1.
        -12    1    3    3    0    0  0.64305671309E+02 -0.87661337161E+02 -0.12267211474E+03  0.16391515223E+03  0.00000000000E+00 0.  1.
        -13    1    4    4    0    0 -0.25514088474E+02  0.77402228547E+02 -0.94890502474E+02  0.12508509565E+03  0.00000000000E+00 0.  1.
         13    1    4    4    0    0 -0.34632866975E+02 -0.20901550802E+02 -0.29011984040E+02  0.49779569291E+02  0.00000000000E+00 0. -1.
          2    1    1    2  501    0 -0.22105673273E+02  0.13901216985E+02 -0.26974210611E+02  0.37543476965E+02  0.00000000000E+00 0. -1.
<scales pt_clust_5="13000.00000" pt_clust_6="13000.00000" pt_clust_7="13000.00000" pt_clust_8="13000.00000" pt_clust_9="26.11330"></scales>
<clustering>
<clus scale="   26.113">  1  9  2 -1</clus>
<clus scale="   83.518">  5  6 -1 -1</clus>
<clus scale="   91.738">  7  8 -1 -1</clus>
<clus scale="  127.195">  2  5  1 -1</clus>
<clus scale="   26.113">  1  5  2 -1</clus>
</clustering>
</event>
<event>
 9    1  0.7586638E-005  0.1604009E+03  0.7546771E-02  0.1207683E+00
          1   -1    0    0  502    0 -0.00000000000E+00  0.00000000000E+00  0.68548669463E+02  0.68548669463E+02  0.00000000000E+00 0. -1.
         21   -1    0    0  501  502  0.00000000000E+00 -0.00000000000E+00 -0.62416912960E+03  0.62416912960E+03  0.00000000000E+00 0. -1.
        -24    2    1    2    0    0 -0.64117616025E+02  0.22953130246E+02 -0.84304398034E+02  0.13465903218E+03  0.79924392697E+02 0.  0.
         23    2    1    2    0    0  0.10480160550E+03 -0.12282925597E+03 -0.34340357875E+03  0.39075057555E+03  0.93217979790E+02 0.  0.
         13    1    3    3    0    0 -0.36522242327E+02  0.42133645706E+02 -0.84276293577E+02  0.10105252072E+03  0.00000000000E+00 0. -1.
        -14    1    3    3    0    0 -0.27595373698E+02 -0.19180515460E+02 -0.28104457584E-01  0.33606511463E+02  0.00000000000E+00 0.  1.
        -11    1    4    4    0    0  0.45634204732E+02 -0.72467632538E+02 -0.83992373055E+02  0.11995314560E+03  0.00000000000E+00 0. -1.
         11    1    4    4    0    0  0.59167400771E+02 -0.50361623428E+02 -0.25941120570E+03  0.27079742995E+03  0.00000000000E+00 0.  1.
          2    1    1    2  501    0 -0.40683989477E+02  0.99876125720E+02 -0.12791248335E+03  0.16730819133E+03  0.00000000000E+00 0. -1.
<scales pt_clust_5="13000.00000" pt_clust_6="13000.00000" pt_clust_7="13000.00000" pt_clust_8="13000.00000" pt_clust_9="130.53304"></scales>
<clustering>
<clus scale="   79.924">  5  6 -1 -1</clus>
<clus scale="   93.218">  7  8 -1 -1</clus>
<clus scale="  105.004">  1  5  2 -1</clus>
<clus scale="  130.533">  2  9  1 -1</clus>
<clus scale="  130.533">  2  5  1 -1</clus>
</clustering>
</event>
<event>
 9    1  0.7586638E-005  0.1403229E+03  0.7546771E-02  0.1216226E+00
          1   -1    0    0  502    0 -0.00000000000E+00  0.00000000000E+00  0.16394885076E+03  0.16394885076E+03  0.00000000000E+00 0. -1.
         21   -1    0    0  501  502  0.00000000000E+00 -0.00000000000E+00 -0.20109688333E+03  0.20109688333E+03  0.00000000000E+00 0. -1.
         23    2    1    2    0    0  0.11495337711E+03 -0.51699259571E+02  0.54050041127E+02  0.16479289587E+03  0.91368480529E+02 0.  0.
        -24    2    1    2    0    0 -0.50294703575E+02  0.65258086098E+02 -0.52567883226E+02  0.12372259939E+03  0.75866489597E+02 0.  0.
         13    1    4    4    0    0 -0.43881646762E+02  0.79374424860E+02 -0.57576596504E+02  0.10742887279E+03  0.00000000000E+00 0. -1.
        -14    1    4    4    0    0 -0.64130568129E+01 -0.14116338761E+02  0.50087132784E+01  0.16293726597E+02  0.00000000000E+00 0.  1.
        -13    1    3    3    0    0  0.32637735188E+02 -0.32634233552E+02  0.64864351999E+02  0.79609039173E+02  0.00000000000E+00 0.  1.
         13    1    3    3    0    0  0.82315641921E+02 -0.19065026019E+02 -0.10814310873E+02  0.85183856696E+02  0.00000000000E+00 0. -1.
          2    1    1    2  501    0 -0.64658673533E+02 -0.13558826528E+02 -0.38630190465E+02  0.76530238829E+02  0.00000000000E+00 0. -1.
<scales pt_clust_5="13000.00000" pt_clust_6="13000.00000" pt_clust_7="13000.00000" pt_clust_8="13000.00000" pt_clust_9="66.06501"></scales>
<clustering>
<clus scale="   66.065">  2  9  1 -1</clus>
<clus scale="   75.866">  5  6 -1 -1</clus>
<clus scale="   91.368">  7  8 -1 -1</clus>
<clus scale="  130.759">  2  5  1 -1</clus>
<clus scale="   66.065">  2  5  1 -1</clus>
</clustering>
</event>
<event>
 9    1  0.7586638E-005  0.1046562E+03  0.7546771E-02  0.1273116E+00
         21   -1    0    0  501  502  0.00000000000E+00  0.00000000000E+00  0.85896477112E+02  0.85896477112E+02  0.00000000000E+00 0.  1.
         -2   -1    0    0    0  501 -0.00000000000E+00 -0.00000000000E+00 -0.25056417543E+03  0.25056417543E+03  0.00000000000E+00 0.  1.
         23    2    1    2    0    0  0.23728825286E+02  0.46388069052E+02 -0.75581930099E+02  0.12607103385E+03  0.86408143815E+02 0.  0.
        -24    2    1    2    0    0  0.13069577707E+02 -0.81930419711E+02 -0.10065733159E+02  0.11625382798E+03  0.80809813763E+02 0.  0.
         11    1    4    4    0    0 -0.34207082789E+02 -0.37215081707E+02 -0.10491509827E+01  0.50558753319E+02  0.00000000000E+00 0. -1.
        -12    1    4    4    0    0  0.47276660496E+02 -0.44715338004E+02 -0.90165821765E+01  0.65695074660E+02  0.00000000000E+00 0.  1.
        -11    1    3    3    0    0 -0.31724496080E+02  0.28436784836E+02 -0.30963229550E+02  0.52667029226E+02  0.00000000000E+00 0.  1.
         11    1    3    3    0    0  0.55453321366E+02  0.17951284217E+02 -0.44618700549E+02  0.73404004620E+02  0.00000000000E+00 0. -1.
         -1    1    1    2    0  502 -0.36798402993E+02  0.35542350659E+02 -0.79020035062E+02  0.94135790719E+02  0.00000000000E+00 0.  1.
<scales pt_clust_5="13000.00000" pt_clust_6="13000.00000" pt_clust_7="13000.00000" pt_clust_8="13000.00000" pt_clust_9="51.16037"></scales>
<clustering>
<clus scale="   51.160">  1  9  2 -1</clus>
<clus scale="   80.810">  5  6 -1 -1</clus>
<clus scale="   86.408">  7  8 -1 -1</clus>
<clus scale="  100.084">  1  5  2 -1</clus>
<clus scale="   51.160">  1  5  2 -1</clus>
</clustering>
</event>
<event>
 9    1  0.7586638E-005  0.1085552E+03  0.7546771E-02  0.1264962E+00
          1   -1    0    0  502    0 -0.00000000000E+00  0.00000000000E+00  0.37193284793E+03  0.37193284793E+03  0.00000000000E+00 0. -1.
         21   -1    0    0  501  502  0.00000000000E+00 -0.00000000000E+00 -0.74809525226E+02  0.74809525226E+02  0.00000000000E+00 0. -1.
        -24    2    1    2    0    0  0.73224442221E+02 -0.14132939380E+02  0.18484285240E+03  0.21988962264E+03  0.92860148326E+02 0.  0.
         23    2    1    2    0    0 -0.41020772298E+01  0.61749764180E+02  0.88104667453E+02  0.13950440887E+03  0.88708439580E+02 0.  0.
         13    1    3    3    0    0  0.81396068092E+02 -0.20319663936E+02  0.19051980627E+03  0.20817301752E+03  0.00000000000E+00 0. -1.
        -14    1    3    3    0    0 -0.81716258704E+01  0.61867245559E+01 -0.56769538743E+01  0.11716605114E+02  0.00000000000E+00 0.  1.
        -11    1    4    4    0    0  0.30911176350E+02  0.65347008777E+02  0.51754106769E+02  0.88905680060E+02  0.00000000000E+00 0. -1.
         11    1    4    4    0    0 -0.35013253580E+02 -0.35972445967E+01  0.36350560683E+02  0.50598728808E+02  0.00000000000E+00 0.  1.
          2    1    1    2  501    0 -0.69122364992E+02 -0.47616824800E+02  0.24175802859E+02  0.87348341656E+02  0.00000000000E+00 0. -1.
<scales pt_clust_5="13000.00000" pt_clust_6="13000.00000" pt_clust_7="13000.00000" pt_clust_8="13000.00000" pt_clust_9="83.93607"></scales>
<clustering>
<clus scale="   83.936">  2  9  1 -1</clus>
<clus scale="   88.708">  7  8 -1 -1</clus>
<clus scale="   92.860">  5  6 -1 -1</clus>
<clus scale="  105.026">  2  7  1 -1</clus>
<clus scale="   83.936">  2  5  1 -1</clus>
</clustering>
</event>
<event>
 9    1  0.7586638E-005  0.1234484E+03  0.7546771E-02  0.1237733E+00
         21   -1    0    0  501  502  0.00000000000E+00  0.00000000000E+00  0.94122973138E+02  0.94122973138E+02  0.00000000000E+00 0. -1.
          1   -1    0    0  502    0 -0.00000000000E+00 -0.00000000000E+00 -0.73169651367E+03  0.73169651367E+03  0.00000000000E+00 0. -1.
         23    2    1    2    0    0  0.70890399820E+02 -0.67965314514E+02 -0.61647806302E+03  0.62954332261E+03  0.81454650549E+02 0.  0.
        -24    2    1    2    0    0 -0.47433917984E+02  0.46869606576E+02 -0.77781649729E+02  0.13140276786E+03  0.82279801717E+02 0.  0.
         13    1    4    4    0    0 -0.29444855763E+02  0.58169652999E+02 -0.86602363712E+02  0.10840054179E+03  0.00000000000E+00 0. -1.
        -14    1    4    4    0    0 -0.17989062221E+02 -0.11300046422E+02  0.88207139835E+01  0.23002226065E+02  0.00000000000E+00 0.  1.
        -11    1    3    3    0    0  0.12701842512E+02  0.17724825417E+02 -0.69367986808E+02  0.72714674124E+02  0.00000000000E+00 0. -1.
         11    1    3    3    0    0  0.58188557309E+02 -0.85690139931E+02 -0.54711007621E+03  0.55682864848E+03  0.00000000000E+00 0.  1.
          2    1    1    2  501    0 -0.23456481836E+02  0.21095707938E+02  0.56686172209E+02  0.64873396344E+02  0.00000000000E+00 0. -1.
<scales pt_clust_5="13000.00000" pt_clust_6="13000.00000" pt_clust_7="13000.00000" pt_clust_8="13000.00000" pt_clust_9="31.54735"></scales>
<clustering>
<clus scale="   31.547">  1  9  2 -1</clus>
<clus scale="   81.455">  7  8 -1 -1</clus>
<clus scale="   82.280">  5  6 -1 -1</clus>
<clus scale="  122.900">  2  7  1 -1</clus>
<clus scale="   31.547">  1  5  2 -1</clus>
</clustering>
</event>
<event>
 9    1  0.7586638E-005  0.1034485E+03  0.7546771E-02  0.1280833E+00
          3   -1    0    0  502    0 -0.00000000000E+00  0.00000000000E+00  0.23284784556E+03  0.23284784556E+03  0.00000000000E+00 0. -1.
         21   -1    0    0  501  502  0.00000000000E+00 -0.00000000000E+00 -0.23648333768E+03  0.23648333768E+03  0.00000000000E+00 0. -1.
        -24    2    1    2    0    0 -0.26520803115E+02 -0.26775311625E+02  0.14983027927E+03  0.17416441987E+03  0.80398148309E+02 0.  0.
         23    2    1    2    0    0  0.48452034923E+02  0.11102175084E+02  0.28192211791E+02  0.11151968609E+03  0.95765242132E+02 0.  0.
         11    1    3    3    0    0  0.66737784573E+01 -0.48157909869E+02  0.71789955210E+02  0.86703640471E+02  0.00000000000E+00 0. -1.
        -12    1    3    3    0    0 -0.33194581572E+02  0.21382598244E+02  0.78040324063E+02  0.87460779400E+02  0.00000000000E+00 0.  1.
        -13    1    4    4    0    0  0.22180574526E+02 -0.41250083487E+02  0.76389285569E+00  0.46841549999E+02  0.00000000000E+00 0. -1.
         13    1    4    4    0    0  0.26271460396E+02  0.52352258571E+02  0.27428318935E+02  0.64678136093E+02  0.00000000000E+00 0.  1.
          4    1    1    2  501    0 -0.21931231808E+02  0.15673136541E+02 -0.18165798319E+03  0.18364707728E+03  0.00000000000E+00 0. -1.
<scales pt_clust_5="13000.00000" pt_clust_6="13000.00000" pt_clust_7="13000.00000" pt_clust_8="13000.00000" pt_clust_9="26.95600"></scales>
<clustering>
<clus scale="   26.956">  2  9  1 -1</clus>
<clus scale="   80.398">  5  6 -1 -1</clus>
<clus scale="   89.412">  1  5  2 -1</clus>
<clus scale="   95.765">  7  8 -1 -1</clus>
<clus scale="   26.956">  2  5  1 -1</clus>
</clustering>
</event>
<event>
 9    1  0.7586638E-005  0.1021949E+03  0.7546771E-02  0.1280788E+00
         21   -1    0    0  501  502  0.00000000000E+00  0.00000000000E+00  0.15209804569E+03  0.15209804569E+03  0.00000000000E+00 0.  1.
          1   -1    0    0  502    0 -0.00000000000E+00 -0.00000000000E+00 -0.11478835302E+03  0.11478835302E+03  0.00000000000E+00 0. -1.
         23    2    1    2    0    0  0.10450063274E+02 -0.53138889666E+02 -0.36649317254E+02  0.11176892273E+03  0.90643114553E+02 0.  0.
        -24    2    1    2    0    0 -0.78659804124E+01  0.26340212468E+02  0.90250175973E+02  0.12364925908E+03  0.79927245466E+02 0.  0.
         13    1    4    4    0    0  0.33645936009E+02  0.25903799710E+02  0.38613613174E+02  0.57393962851E+02  0.00000000000E+00 0. -1.
        -14    1    4    4    0    0 -0.41511916422E+02  0.43641275744E+00  0.51636562799E+02  0.66255296232E+02  0.00000000000E+00 0.  1.
        -13    1    3    3    0    0 -0.35554297069E+02 -0.34540972015E+01 -0.21805834179E+01  0.35788179216E+02  0.00000000000E+00 0.  1.
         13    1    3    3    0    0  0.46004360343E+02 -0.49684792465E+02 -0.34468733836E+02  0.75980743515E+02  0.00000000000E+00 0. -1.
          2    1    1    2  501    0 -0.25840828612E+01  0.26798677199E+02 -0.16291166050E+02  0.31468216904E+02  0.00000000000E+00 0. -1.
<scales pt_clust_5="13000.00000" pt_clust_6="13000.00000" pt_clust_7="13000.00000" pt_clust_8="13000.00000" pt_clust_9="26.92299"></scales>
<clustering>
<clus scale="   26.923">  1  9  2 -1</clus>
<clus scale="   79.927">  5  6 -1 -1</clus>
<clus scale="   90.643">  7  8 -1 -1</clus>
<clus scale="   92.822">  1  5  2 -1</clus>
<clus scale="   26.923">  1  5  2 -1</clus>
</clustering>
</event>
<event>
 9    1  0.7586638E-005  0.1075176E+03  0.7546771E-02  0.1272925E+00
         21   -1    0    0  501  502  0.00000000000E+00  0.00000000000E+00  0.33824740831E+03  0.33824740831E+03  0.00000000000E+00 0.  1.
          1   -1    0    0  502    0 -0.00000000000E+00 -0.00000000000E+00 -0.11733097208E+03  0.11733097208E+03  0.00000000000E+00 0. -1.
         23    2    1    2    0    0  0.47102258030E+02 -0.18458600138E+02 -0.64955208164E+02  0.12616643290E+03  0.95600455508E+02 0.  0.
        -24    2    1    2    0    0 -0.18132165068E+02  0.50000214709E+02  0.26562181734E+03  0.28203900972E+03  0.78500039978E+02 0.  0.
         11    1    4    4    0    0  0.30688815852E+02  0.17430475948E+02  0.82185695187E+02  0.89443353043E+02  0.00000000000E+00 0. -1.
        -12    1    4    4    0    0 -0.48820980920E+02  0.32569738761E+02  0.18343612215E+03  0.19259565668E+03  0.00000000000E+00 0.  1.
        -11    1    3    3    0    0 -0.18724109490E+02 -0.17886334999E+02 -0.53378048713E+02  0.59327306868E+02  0.00000000000E+00 0.  1.
         11    1    3    3    0    0  0.65826367520E+02 -0.57226513903E+00 -0.11577159452E+02  0.66839126036E+02  0.00000000000E+00 0. -1.
          2    1    1    2  501    0 -0.28970092962E+02 -0.31541614571E+02  0.20249827056E+02  0.47372937758E+02  0.00000000000E+00 0. -1.
<scales pt_clust_5="13000.00000" pt_clust_6="13000.00000" pt_clust_7="13000.00000" pt_clust_8="13000.00000" pt_clust_9="42.82688"></scales>
<clustering>
<clus scale="   42.827">  1  9  2 -1</clus>
<clus scale="   78.500">  5  6 -1 -1</clus>
<clus scale="   92.644">  1  5  2 -1</clus>
<clus scale="   95.600">  7  8 -1 -1</clus>
<clus scale="   42.827">  1  5  2 -1</clus>
</clustering>
</event>
<event>
 9    1  0.7586638E-005  0.3436441E+03  0.7546771E-02  0.1065605E+00
         21   -1    0    0  501  502  0.00000000000E+00  0.00000000000E+00  0.48516748070E+03  0.48516748070E+03  0.00000000000E+00 0.  1.
          1   -1    0    0  502    0 -0.00000000000E+00 -0.00000000000E+00 -0.39200173314E+03  0.39200173314E+03  0.00000000000E+00 0. -1.
        -24    2    1    2    0    0 -0.17307539144E+03  0.27406507360E+03 -0.11495475982E+03  0.35338199912E+03  0.81224902632E+02 0.  0.
         23    2    1    2    0    0  0.16550305073E+03 -0.29868963086E+03  0.43183093806E+02  0.35684992242E+03  0.94182440771E+02 0.  0.
         11    1    3    3    0    0 -0.93243134907E+02  0.14847119414E+03 -0.19088893611E+02  0.17635862201E+03  0.00000000000E+00 0. -1.
        -12    1    3    3    0    0 -0.79832256534E+02  0.12559387946E+03 -0.95865866209E+02  0.17702337711E+03  0.00000000000E+00 0.  1.
        -13    1    4    4    0    0  0.61228036897E+01 -0.88706515270E+02 -0.41541148216E+01  0.89014556373E+02  0.00000000000E+00 0. -1.
         13    1    4    4    0    0  0.15938024704E+03 -0.20998311559E+03  0.47337208628E+02  0.26783536604E+03  0.00000000000E+00 0.  1.
          2    1    1    2  501    0  0.75723407067E+01  0.24624557265E+02  0.16493741357E+03  0.16693729230E+03  0.00000000000E+00 0. -1.
<scales pt_clust_5="13000.00000" pt_clust_6="13000.00000" pt_clust_7="13000.00000" pt_clust_8="13000.00000" pt_clust_9="25.76255"></scales>
<clustering>
<clus scale="   25.763">  1  9  2 -1</clus>
<clus scale="   81.225">  5  6 -1 -1</clus>
<clus scale="   94.182">  7  8 -1 -1</clus>
<clus scale="  340.321">  2  5  1 -1</clus>
<clus scale="   25.763">  1  5  2 -1</clus>
</clustering>
</event>
<event>
 9    1  0.7586638E-005  0.2629428E+03  0.7546771E-02  0.1106204E+00
         21   -1    0    0  501  502  0.00000000000E+00  0.00000000000E+00  0.18808825065E+03  0.18808825065E+03  0.00000000000E+00 0. -1.
          1   -1    0    0  502    0 -0.00000000000E+00 -0.00000000000E+00 -0.70331562675E+03  0.70331562675E+03  0.00000000000E+00 0. -1.
         23    2    1    2    0    0  0.54551846449E+02  0.23740610795E+03 -0.47983433110E+03  0.54606827544E+03  0.92800927226E+02 0.  0.
        -24    2    1    2    0    0 -0.82872208139E+02 -0.24457632033E+03  0.32775111151E+02  0.27117124162E+03  0.75988519008E+02 0.  0.
         11    1    4    4    0    0 -0.52496587572E+02 -0.22807287676E+03  0.34464394986E+02  0.23656061241E+03  0.00000000000E+00 0. -1.
        -12    1    4    4    0    0 -0.30375620567E+02 -0.16503443570E+02 -0.16892838350E+01  0.34610629211E+02  0.00000000000E+00 0.  1.
        -13    1    3    3    0    0  0.53995970777E+02  0.15170073534E+03 -0.22119516560E+03  0.27359820769E+03  0.00000000000E+00 0. -1.
         13    1    3    3    0    0  0.55587567276E+00  0.85705372613E+02 -0.25863916549E+03  0.27247006775E+03  0.00000000000E+00 0.  1.
          2    1    1    2  501    0  0.28320361689E+02  0.71702123794E+01 -0.68168156156E+02  0.74164360345E+02  0.00000000000E+00 0. -1.
<scales pt_clust_5="13000.00000" pt_clust_6="13000.00000" pt_clust_7="13000.00000" pt_clust_8="13000.00000" pt_clust_9="29.21396"></scales>
<clustering>
<clus scale="   29.214">  1  9  2 -1</clus>
<clus scale="   75.989">  5  6 -1 -1</clus>
<clus scale="   92.801">  7  8 -1 -1</clus>
<clus scale="  257.490">  1  5  2 -1</clus>
<clus scale="   29.214">  1  5  2 -1</clus>
</clustering>
</event>
<event>
 9    1  0.7586638E-005  0.1065491E+03  0.7546771E-02  0.1273852E+00
          1   -1    0    0  502    0 -0.00000000000E+00  0.00000000000E+00  0.42713498117E+03  0.42713498117E+03  0.00000000000E+00 0. -1.
         21   -1    0    0  501  502  0.00000000000E+00 -0.00000000000E+00 -0.80510639409E+02  0.80510639409E+02  0.00000000000E+00 0. -1.
         23    2    1    2    0    0  0.19819904627E+02  0.54293352540E+02  0.36437608399E+03  0.38022282157E+03  0.91972097444E+02 0.  0.
        -24    2    1    2    0    0 -0.25458947182E+02 -0.27954867516E+02  0.13259201075E+02  0.86347341628E+02  0.76488066936E+02 0.  0.
         11    1    4    4    0    0 -0.13059237111E+02 -0.50044850584E+02  0.26114901704E+02  0.57939786286E+02  0.00000000000E+00 0. -1.
        -12    1    4    4    0    0 -0.12399710071E+02  0.22089983068E+02 -0.12855700630E+02  0.28407555341E+02  0.00000000000E+00 0.  1.
        -11    1    3    3    0    0  0.15287498059E+01 -0.23677645434E+02  0.44015984078E+02  0.50003748096E+02  0.00000000000E+00 0.  1.
         11    1    3    3    0    0  0.18291154822E+02  0.77970997974E+02  0.32036009991E+03  0.33021907347E+03  0.00000000000E+00 0. -1.
          2    1    1    2  501    0  0.56390425541E+01 -0.26338485024E+02 -0.31010943306E+02  0.41075457380E+02  0.00000000000E+00 0. -1.
<scales pt_clust_5="13000.00000" pt_clust_6="13000.00000" pt_clust_7="13000.00000" pt_clust_8="13000.00000" pt_clust_9="26.93538"></scales>
<clustering>
<clus scale="   26.935">  2  9  1 -1</clus>
<clus scale="   76.488">  5  6 -1 -1</clus>
<clus scale="   91.972">  7  8 -1 -1</clus>
<clus scale="   93.511">  2  5  1 -1</clus>
<clus scale="   26.935">  2  5  1 -1</clus>
</clustering>
</event>
<event>
 9    1  0.7586638E-005  0.1590338E+03  0.7546771E-02  0.1203412E+00
         21   -1    0    0  501  502  0.00000000000E+00  0.00000000000E+00  0.13888971259E+03  0.13888971259E+03  0.00000000000E+00 0.  1.
          1   -1    0    0  502    0 -0.00000000000E+00 -0.00000000000E+00 -0.86786364529E+03  0.86786364529E+03  0.00000000000E+00 0. -1.
        -24    2    1    2    0    0 -0.68671939590E+02 -0.50697931367E+02  0.20127704342E+02  0.11980616348E+03  0.81622771301E+02 0.  0.
         23    2    1    2    0    0 -0.12006901095E+03  0.27101963025E+02 -0.47850833584E+02  0.16035748523E+03  0.90960084668E+02 0.  0.
         11    1    3    3    0    0 -0.23179923129E+02  0.20661011544E+02 -0.51715851466E+01  0.31479064904E+02  0.00000000000E+00 0. -1.
        -12    1    3    3    0    0 -0.45492016461E+02 -0.71358942912E+02  0.25299289488E+02  0.88327098581E+02  0.00000000000E+00 0.  1.
        -11    1    4    4    0    0 -0.50464873054E+02  0.39300587699E+02  0.15098316081E+02  0.65720611336E+02  0.00000000000E+00 0.  1.
         11    1    4    4    0    0 -0.69604137897E+02 -0.12198624674E+02 -0.62949149665E+02  0.94636873891E+02  0.00000000000E+00 0. -1.
          2    1    1    2  501    0  0.18874095054E+03  0.23595968343E+02 -0.70125080346E+03  0.72658970918E+03  0.00000000000E+00 0. -1.
<scales pt_clust_5="13000.00000" pt_clust_6="13000.00000" pt_clust_7="13000.00000" pt_clust_8="13000.00000" pt_clust_9="130.45322"></scales>
<clustering>
<clus scale="   81.623">  5  6 -1 -1</clus>
<clus scale="   90.960">  7  8 -1 -1</clus>
<clus scale="  118.103">  2  5  1 -1</clus>
<clus scale="  130.453">  1  9  2 -1</clus>
<clus scale="  130.453">  1  5  2 -1</clus>
</clustering>
</event>
<event>
 9    1  0.7586638E-005  0.3387914E+03  0.7546771E-02  0.1098231E+00
         21   -1    0    0  501  502  0.00000000000E+00  0.00000000000E+00  0.10376193204E+03  0.10376193204E+03  0.00000000000E+00 0. -1.
          1   -1    0    0  502    0 -0.00000000000E+00 -0.00000000000E+00 -0.20800520689E+04  0.20800520689E+04  0.00000000000E+00 0. -1.
        -24    2    1    2    0    0  0.11737015977E+03 -0.40446091003E+02 -0.90281610294E+03  0.91485374786E+03  0.80428997033E+02 0.  0.
         23    2    1    2    0    0  0.66389463929E+02 -0.28047991104E+03 -0.48874607965E+03  0.57710197382E+03  0.10534427555E+03 0.  0.
         13    1    3    3    0    0  0.92392698984E+02 -0.19942511488E+02 -0.40063405467E+03  0.41163304089E+03  0.00000000000E+00 0. -1.
        -14    1    3    3    0    0  0.24977460791E+02 -0.20503579516E+02 -0.50218204827E+03  0.50322070697E+03  0.00000000000E+00 0.  1.
        -13    1    4    4    0    0  0.42172863440E+02 -0.26595299322E+03 -0.47423648827E+03  0.54535290576E+03  0.00000000000E+00 0. -1.
         13    1    4    4    0    0  0.24216600489E+02 -0.14526917814E+02 -0.14509591386E+02  0.31749068059E+02  0.00000000000E+00 0.  1.
          2    1    1    2  501    0 -0.18375962370E+03  0.32092600204E+03 -0.58472795428E+03  0.69185827928E+03  0.00000000000E+00 0. -1.
<scales pt_clust_5="13000.00000" pt_clust_6="13000.00000" pt_clust_7="13000.00000" pt_clust_8="13000.00000" pt_clust_9="321.99739"></scales>
<clustering>
<clus scale="   80.429">  5  6 -1 -1</clus>
<clus scale="  105.344">  7  8 -1 -1</clus>
<clus scale="  147.920">  2  5  1 -1</clus>
<clus scale="  321.997">  1  9  2 -1</clus>
<clus scale="  321.997">  1  5  2 -1</clus>
</clustering>
</event>
<event>
 9    1  0.7586638E-005  0.1066878E+03  0.7546771E-02  0.1275609E+00
          1   -1    0    0  502    0 -0.00000000000E+00  0.00000000000E+00  0.18747280602E+03  0.18747280602E+03  0.00000000000E+00 0. -1.
         21   -1    0    0  501  502  0.00000000000E+00 -0.00000000000E+00 -0.29658444805E+03  0.29658444805E+03  0.00000000000E+00 0. -1.
        -24    2    1    2    0    0 -0.22634151147E+02  0.51951629832E+02  0.13567139838E+03  0.16484947183E+03  0.74547591397E+02 0.  0.
         23    2    1    2    0    0 -0.81359007467E+01 -0.26825456979E+02 -0.32593401379E+02  0.10333151314E+03  0.93964215372E+02 0.  0.
         11    1    3    3    0    0 -0.29986616921E+02  0.37844005146E+02  0.14022241484E+03  0.14830270241E+03  0.00000000000E+00 0. -1.
        -12    1    3    3    0    0  0.73524657745E+01  0.14107624686E+02 -0.45510164586E+01  0.16546769414E+02  0.00000000000E+00 0.  1.
        -13    1    4    4    0    0 -0.35583751965E+02  0.18171503956E+01  0.17284225145E+02  0.39601134811E+02  0.00000000000E+00 0. -1.
         13    1    4    4    0    0  0.27447851219E+02 -0.28642607374E+02 -0.49877626524E+02  0.63730378324E+02  0.00000000000E+00 0.  1.
          2    1    1    2  501    0  0.30770051893E+02 -0.25126172854E+02 -0.21218963902E+03  0.21587626911E+03  0.00000000000E+00 0. -1.
<scales pt_clust_5="13000.00000" pt_clust_6="13000.00000" pt_clust_7="13000.00000" pt_clust_8="13000.00000" pt_clust_9="39.72557"></scales>
<clustering>
<clus scale="   39.726">  2  9  1 -1</clus>
<clus scale="   74.548">  5  6 -1 -1</clus>
<clus scale="   90.058">  1  5  2 -1</clus>
<clus scale="   93.964">  7  8 -1 -1</clus>
<clus scale="   39.726">  2  5  1 -1</clus>
</clustering>
</event>
<event>
 9    1  0.7586638E-005  0.1603651E+03  0.7546771E-02  0.1190220E+00
          1   -1    0    0  502    0 -0.00000000000E+00  0.00000000000E+00  0.10775667044E+04  0.10775667044E+04  0.00000000000E+00 0. -1.
         21   -1    0    0  501  502  0.00000000000E+00 -0.00000000000E+00 -0.55981142883E+02  0.55981142883E+02  0.00000000000E+00 0. -1.
        -24    2    1    2    0    0  0.10964152663E+02  0.12421815642E+03  0.68171752876E+03  0.69771298379E+03  0.80710939153E+02 0.  0.
         23    2    1    2    0    0 -0.41765170443E+02 -0.16111909324E+03  0.15754657499E+03  0.24728382055E+03  0.92869117287E+02 0.  0.
         11    1    3    3    0    0  0.40324308219E+02  0.55265266644E+02  0.23511315880E+03  0.24486424192E+03  0.00000000000E+00 0. -1.
        -12    1    3    3    0    0 -0.29360155556E+02  0.68952889780E+02  0.44660436996E+03  0.45284874187E+03  0.00000000000E+00 0.  1.
        -13    1    4    4    0    0 -0.68034329808E+02 -0.14394462733E+03  0.13202045109E+03  0.20682873417E+03  0.00000000000E+00 0. -1.
         13    1    4    4    0    0  0.26269159365E+02 -0.17174465907E+02  0.25526123907E+02  0.40455086388E+02  0.00000000000E+00 0.  1.
          2    1    1    2  501    0  0.30801017780E+02  0.36900936817E+02  0.18232145777E+03  0.18855104295E+03  0.00000000000E+00 0. -1.
<scales pt_clust_5="13000.00000" pt_clust_6="13000.00000" pt_clust_7="13000.00000" pt_clust_8="13000.00000" pt_clust_9="48.06646"></scales>
<clustering>
<clus scale="   48.066">  2  9  1 -1</clus>
<clus scale="   80.711">  5  6 -1 -1</clus>
<clus scale="   92.869">  7  8 -1 -1</clus>
<clus scale="  153.644">  1  5  2 -1</clus>
<clus scale="   48.066">  2  5  1 -1</clus>
</clustering>
</event>
<event>
 9    1  0.7586638E-005  0.9460726E+02  0.7546771E-02  0.1300223E+00
         -4   -1    0    0    0  501 -0.00000000000E+00  0.00000000000E+00  0.14523282774E+03  0.14523282774E+03  0.00000000000E+00 0.  1.
         21   -1    0    0  501  502  0.00000000000E+00 -0.00000000000E+00 -0.38616816136E+03  0.38616816136E+03  0.00000000000E+00 0.  1.
        -24    2    1    2    0    0  0.52252226502E+01 -0.24815220676E+02  0.79934326978E+02  0.11617002442E+03  0.80392038254E+02 0.  0.
         23    2    1    2    0    0 -0.20815461300E+02 -0.56178080915E+02 -0.33474785227E+02  0.11623466901E+03  0.93811922637E+02 0.  0.
         11    1    3    3    0    0  0.12120746864E+02 -0.16063017283E+02 -0.12088714843E+02  0.23474881370E+02  0.00000000000E+00 0. -1.
        -12    1    3    3    0    0 -0.68955242134E+01 -0.87522033929E+01  0.92023041821E+02  0.92695143047E+02  0.00000000000E+00 0.  1.
        -11    1    4    4    0    0 -0.52832827434E+02 -0.31516844698E+02 -0.42567436377E+02  0.74810465806E+02  0.00000000000E+00 0.  1.
         11    1    4    4    0    0  0.32017366134E+02 -0.24661236218E+02  0.90926511499E+01  0.41424203202E+02  0.00000000000E+00 0. -1.
         -3    1    1    2    0  502  0.15590238650E+02  0.80993301591E+02 -0.28739487536E+03  0.29899629568E+03  0.00000000000E+00 0.  1.
<scales pt_clust_5="13000.00000" pt_clust_6="13000.00000" pt_clust_7="13000.00000" pt_clust_8="13000.00000" pt_clust_9="82.48012"></scales>
<clustering>
<clus scale="   80.392">  5  6 -1 -1</clus>
<clus scale="   82.480">  2  9  1 -1</clus>
<clus scale="   81.319">  1  5  2 -1</clus>
<clus scale="   93.812">  7  8 -1 -1</clus>
<clus scale="   82.480">  2  5  1 -1</clus>
</clustering>
</event>
<event>
 9    1  0.7586638E-005  0.9920478E+02  0.7546771E-02  0.1286534E+00
         -4   -1    0    0    0  501 -0.00000000000E+00  0.00000000000E+00  0.22331523700E+03  0.22331523700E+03  0.00000000000E+00 0.  1.
         21   -1    0    0  501  502  0.00000000000E+00 -0.00000000000E+00 -0.21468361489E+03  0.21468361489E+03  0.00000000000E+00 0. -1.
         23    2    1    2    0    0 -0.37139072479E+02  0.14389247473E+02  0.19013257745E+03  0.21411418039E+03  0.90045122530E+02 0.  0.
        -24    2    1    2    0    0  0.61541637417E+02 -0.24575429905E+02 -0.14681901947E+03  0.18027182747E+03  0.80936903890E+02 0.  0.
         13    1    4    4    0    0  0.45108403947E+02  0.66408635643E+01 -0.22116680998E+02  0.50675603143E+02  0.00000000000E+00 0. -1.
        -14    1    4    4    0    0  0.16433233470E+02 -0.31216293469E+02 -0.12470233847E+03  0.12959622433E+03  0.00000000000E+00 0.  1.
        -11    1    3    3    0    0 -0.40320211096E+02  0.38673890472E+02  0.17842527831E+03  0.18696782923E+03  0.00000000000E+00 0.  1.
         11    1    3    3    0    0  0.31811386171E+01 -0.24284642999E+02  0.11707299140E+02  0.27146351166E+02  0.00000000000E+00 0. -1.
         -3    1    1    2    0  502 -0.24402564938E+02  0.10186182432E+02 -0.34681935870E+02  0.43612844023E+02  0.00000000000E+00 0.  1.
<scales pt_clust_5="13000.00000" pt_clust_6="13000.00000" pt_clust_7="13000.00000" pt_clust_8="13000.00000" pt_clust_9="26.44321"></scales>
<clustering>
<clus scale="   26.443">  2  9  1 -1</clus>
<clus scale="   80.937">  5  6 -1 -1</clus>
<clus scale="   90.045">  7  8 -1 -1</clus>
<clus scale="   91.018">  2  5  1 -1</clus>
<clus scale="   26.443">  2  5  1 -1</clus>
</clustering>
</event>
<event>
 9    1  0.7586638E-005  0.9770543E+02  0.7546771E-02  0.1288481E+00
         -2   -1    0    0    0  501 -0.00000000000E+00  0.00000000000E+00  0.26039326470E+03  0.26039326470E+03  0.00000000000E+00 0.  1.
         21   -1    0    0  501  502  0.00000000000E+00 -0.00000000000E+00 -0.16014592040E+03  0.16014592040E+03  0.00000000000E+00 0. -1.
        -24    2    1    2    0    0  0.83634731636E+01  0.72541223918E+01  0.21488109004E+03  0.23619883133E+03  0.97434260361E+02 0.  0.
         23    2    1    2    0    0  0.58305761326E+01  0.29026000761E+02 -0.48922488390E+02  0.10794868071E+03  0.91558743212E+02 0.  0.
         13    1    3    3    0    0  0.40865408369E+02  0.68967902941E+01  0.37585422788E+02  0.55948291517E+02  0.00000000000E+00 0. -1.
        -14    1    3    3    0    0 -0.32501935205E+02  0.35733209777E+00  0.17729566725E+03  0.18025053981E+03  0.00000000000E+00 0.  1.
        -13    1    4    4    0    0  0.23324232985E+02  0.53509069115E+02 -0.10768177128E+02  0.59356498890E+02  0.00000000000E+00 0.  1.
         13    1    4    4    0    0 -0.17493656853E+02 -0.24483068354E+02 -0.38154311262E+02  0.48592181820E+02  0.00000000000E+00 0. -1.
         -1    1    1    2    0  502 -0.14194049296E+02 -0.36280123153E+02 -0.65711257340E+02  0.76391673058E+02  0.00000000000E+00 0.  1.
<scales pt_clust_5="13000.00000" pt_clust_6="13000.00000" pt_clust_7="13000.00000" pt_clust_8="13000.00000" pt_clust_9="38.95791"></scales>
<clustering>
<clus scale="   38.958">  2  9  1 -1</clus>
<clus scale="   91.559">  7  8 -1 -1</clus>
<clus scale="   91.847">  2  7  1 -1</clus>
<clus scale="   97.434">  5  6 -1 -1</clus>
<clus scale="   38.958">  2  5  1 -1</clus>
</clustering>
</event>
<event>
 9    1  0.7586638E-005  0.1528700E+03  0.7546771E-02  0.1204705E+00
         21   -1    0    0  501  502  0.00000000000E+00  0.00000000000E+00  0.11413626573E+03  0.11413626573E+03  0.00000000000E+00 0. -1.
          1   -1    0    0  502    0 -0.00000000000E+00 -0.00000000000E+00 -0.58019283232E+03  0.58019283232E+03  0.00000000000E+00 0. -1.
        -24    2    1    2    0    0 -0.10112581812E+03  0.81284495361E+01  0.11449063551E+02  0.12982336020E+03  0.80190529452E+02 0.  0.
         23    2    1    2    0    0 -0.16684677739E+02 -0.91216196188E+02 -0.34295231956E+03  0.36730665073E+03  0.93269015534E+02 0.  0.
         13    1    3    3    0    0 -0.12272819689E+02 -0.26348167174E+02  0.18171820349E+02  0.34279192979E+02  0.00000000000E+00 0. -1.
        -14    1    3    3    0    0 -0.88852998432E+02  0.34476616710E+02 -0.67227567978E+01  0.95544167216E+02  0.00000000000E+00 0.  1.
        -11    1    4    4    0    0 -0.44877839771E+02 -0.10909775152E+02 -0.13106719419E+03  0.13896637395E+03  0.00000000000E+00 0.  1.
         11    1    4    4    0    0  0.28193162032E+02 -0.80306421036E+02 -0.21188512537E+03  0.22834027678E+03  0.00000000000E+00 0. -1.
          2    1    1    2  501    0  0.11781049586E+03  0.83087746652E+02 -0.13455331058E+03  0.19719908713E+03  0.00000000000E+00 0. -1.
<scales pt_clust_5="13000.00000" pt_clust_6="13000.00000" pt_clust_7="13000.00000" pt_clust_8="13000.00000" pt_clust_9="121.12035"></scales>
<clustering>
<clus scale="   80.191">  5  6 -1 -1</clus>
<clus scale="   93.269">  7  8 -1 -1</clus>
<clus scale="  129.318">  2  5  1 -1</clus>
<clus scale="  121.120">  1  9  2 -1</clus>
<clus scale="  121.120">  1  5  2 -1</clus>
</clustering>
</event>
<event>
 9    1  0.7586638E-005  0.1195614E+03  0.7546771E-02  0.1246549E+00
         21   -1    0    0  501  502  0.00000000000E+00  0.00000000000E+00  0.14548831909E+03  0.14548831909E+03  0.00000000000E+00 0.  1.
          1   -1    0    0  502    0 -0.00000000000E+00 -0.00000000000E+00 -0.19609027082E+03  0.19609027082E+03  0.00000000000E+00 0. -1.
         23    2    1    2    0    0  0.75965930878E+02  0.93949414293E+01 -0.64267905011E+01  0.11924234841E+03  0.91204969379E+02 0.  0.
        -24    2    1    2    0    0 -0.52056338658E+02 -0.81149642318E+02  0.12813430308E+02  0.12763616091E+03  0.82653969856E+02 0.  0.
         11    1    4    4    0    0 -0.38071388110E+02  0.34766377459E+01  0.16824943413E+02  0.41768365104E+02  0.00000000000E+00 0. -1.
        -12    1    4    4    0    0 -0.13984950548E+02 -0.84626280064E+02 -0.40115131049E+01  0.85867795807E+02  0.00000000000E+00 0.  1.
        -13    1    3    3    0    0  0.40577446875E+02  0.53351516768E+01  0.42316950517E+02  0.58870343462E+02  0.00000000000E+00 0.  1.
         13    1    3    3    0    0  0.35388484003E+02  0.40597897525E+01 -0.48743741018E+02  0.60372004947E+02  0.00000000000E+00 0. -1.
          2    1    1    2  501    0 -0.23909592219E+02  0.71754700889E+02 -0.56988591535E+02  0.94700080596E+02  0.00000000000E+00 0. -1.
<scales pt_clust_5="13000.00000" pt_clust_6="13000.00000" pt_clust_7="13000.00000" pt_clust_8="13000.00000" pt_clust_9="75.63340"></scales>
<clustering>
<clus scale="   75.633">  1  9  2 -1</clus>
<clus scale="   82.654">  5  6 -1 -1</clus>
<clus scale="   91.205">  7  8 -1 -1</clus>
<clus scale="  113.174">  1  5  2 -1</clus>
<clus scale="   75.633">  1  5  2 -1</clus>
</clustering>
</event>
<event>
 9    1  0.7586638E-005  0.1092052E+03  0.7546771E-02  0.1267326E+00
         21   -1    0    0  501  502  0.00000000000E+00  0.00000000000E+00  0.79737589759E+02  0.79737589759E+02  0.00000000000E+00 0.  1.
         -2   -1    0    0    0  501 -0.00000000000E+00 -0.00000000000E+00 -0.39363054781E+03  0.39363054781E+03  0.00000000000E+00 0.  1.
        -24    2    1    2    0    0  0.26925013012E+02 -0.56820730096E+02 -0.22733576536E+03  0.24841176399E+03  0.77931396628E+02 0.  0.
         23    2    1    2    0    0 -0.76359838772E+02  0.12478885773E+02 -0.10162028647E+03  0.15686160176E+03  0.91062241994E+02 0.  0.
         13    1    3    3    0    0  0.37803466804E+02 -0.50962658423E+01 -0.47230409096E+02  0.60710670984E+02  0.00000000000E+00 0. -1.
        -14    1    3    3    0    0 -0.10878453791E+02 -0.51724464253E+02 -0.18010535627E+03  0.18770109300E+03  0.00000000000E+00 0.  1.
        -11    1    4    4    0    0 -0.57887502340E+01  0.35571331934E+02 -0.72161046000E+01  0.36754611281E+02  0.00000000000E+00 0. -1.
         11    1    4    4    0    0 -0.70571088538E+02 -0.23092446161E+02 -0.94404181873E+02  0.12010699048E+03  0.00000000000E+00 0.  1.
         -1    1    1    2    0  502  0.49434825760E+02  0.44341844323E+02  0.15063093778E+02  0.68094771826E+02  0.00000000000E+00 0.  1.
<scales pt_clust_5="13000.00000" pt_clust_6="13000.00000" pt_clust_7="13000.00000" pt_clust_8="13000.00000" pt_clust_9="66.40784"></scales>
<clustering>
<clus scale="   66.408">  1  9  2 -1</clus>
<clus scale="   77.931">  5  6 -1 -1</clus>
<clus scale="   91.062">  7  8 -1 -1</clus>
<clus scale="   98.523">  2  5  1 -1</clus>
<clus scale="   66.408">  1  5  2 -1</clus>
</clustering>
</event>
<event>
 9    1  0.7586638E-005  0.9923690E+02  0.7546771E-02  0.1288810E+00
         -2   -1    0    0    0  501 -0.00000000000E+00  0.00000000000E+00  0.58202356534E+03  0.58202356534E+03  0.00000000000E+00 0.  1.
         21   -1    0    0  501  502  0.00000000000E+00 -0.00000000000E+00 -0.66543314610E+02  0.66543314610E+02  0.00000000000E+00 0. -1.
         23    2    1    2    0    0  0.23153023334E+02  0.12332454025E+02  0.12563076088E+03  0.15845256947E+03  0.92929956300E+02 0.  0.
        -24    2    1    2    0    0 -0.88786856226E+01 -0.76442523764E+02  0.17817504963E+02  0.11232911287E+03  0.79862855057E+02 0.  0.
         11    1    4    4    0    0 -0.30926852881E+02 -0.49895511705E+02 -0.19159843212E+02  0.61750562016E+02  0.00000000000E+00 0. -1.
        -12    1    4    4    0    0  0.22048167258E+02 -0.26547012060E+02  0.36977348175E+02  0.50578550857E+02  0.00000000000E+00 0.  1.
        -13    1    3    3    0    0  0.44946692604E+02 -0.40508990257E+01  0.12305139969E+03  0.13106586865E+03  0.00000000000E+00 0. -1.
         13    1    3    3    0    0 -0.21793669269E+02  0.16383353050E+02  0.25793611933E+01  0.27386700816E+02  0.00000000000E+00 0.  1.
         -1    1    1    2    0  502 -0.14274337711E+02  0.64110069740E+02  0.37203198488E+03  0.37778519761E+03  0.00000000000E+00 0.  1.
<scales pt_clust_5="13000.00000" pt_clust_6="13000.00000" pt_clust_7="13000.00000" pt_clust_8="13000.00000" pt_clust_9="65.68000"></scales>
<clustering>
<clus scale="   65.680">  2  9  1 -1</clus>
<clus scale="   79.863">  5  6 -1 -1</clus>
<clus scale="   87.121">  2  5  1 -1</clus>
<clus scale="   92.930">  7  8 -1 -1</clus>
<clus scale="   65.680">  2  5  1 -1</clus>
</clustering>
</event>
<event>
 9    1  0.7586638E-005  0.1064885E+03  0.7546771E-02  0.1270723E+00
         21   -1    0    0  501  502  0.00000000000E+00  0.00000000000E+00  0.53273323975E+03  0.53273323975E+03  0.00000000000E+00 0.  1.
          1   -1    0    0  502    0 -0.00000000000E+00 -0.00000000000E+00 -0.38940294483E+02  0.38940294483E+02  0.00000000000E+00 0. -1.
         23    2    1    2    0    0  0.17141039356E+02  0.54167641886E+02  0.72279859185E+02  0.12989119597E+03  0.91757267225E+02 0.  0.
        -24    2    1    2    0    0  0.11815702987E+02 -0.50633412969E+02  0.26730537541E+03  0.28483966805E+03  0.83535138892E+02 0.  0.
         11    1    4    4    0    0 -0.30536497568E+02 -0.25780271643E+02  0.62155880118E+02  0.73894881574E+02  0.00000000000E+00 0. -1.
        -12    1    4    4    0    0  0.42352200555E+02 -0.24853141327E+02  0.20514949529E+03  0.21094478648E+03  0.00000000000E+00 0.  1.
        -13    1    3    3    0    0  0.52381860565E+02  0.50038160358E+02  0.48444850626E+02  0.87146889562E+02  0.00000000000E+00 0. -1.
         13    1    3    3    0    0 -0.35240821209E+02  0.41294815285E+01  0.23835008559E+02  0.42744306407E+02  0.00000000000E+00 0.  1.
          2    1    1    2  501    0 -0.28956742343E+02 -0.35342289172E+01  0.15420771068E+03  0.15694267021E+03  0.00000000000E+00 0. -1.
<scales pt_clust_5="13000.00000" pt_clust_6="13000.00000" pt_clust_7="13000.00000" pt_clust_8="13000.00000" pt_clust_9="29.17162"></scales>
<clustering>
<clus scale="   29.172">  1  9  2 -1</clus>
<clus scale="   83.535">  5  6 -1 -1</clus>
<clus scale="   91.757">  7  8 -1 -1</clus>
<clus scale="   99.491">  1  5  2 -1</clus>
<clus scale="   29.172">  1  5  2 -1</clus>
</clustering>
</event>
<event>
 9    1  0.7586638E-005  0.1981480E+03  0.7546771E-02  0.1152388E+00
         21   -1    0    0  501  502  0.00000000000E+00  0.00000000000E+00  0.42425327591E+03  0.42425327591E+03  0.00000000000E+00 0. -1.
         -2   -1    0    0    0  501 -0.00000000000E+00 -0.00000000000E+00 -0.29440400623E+03  0.29440400623E+03  0.00000000000E+00 0.  1.
         23    2    1    2    0    0 -0.10155548531E+03 -0.15571936336E+03 -0.18301131369E+03  0.27688451468E+03  0.92789314085E+02 0.  0.
        -24    2    1    2    0    0  0.34809273032E+01  0.11696781106E+03  0.30416306528E+03  0.33596185802E+03  0.81618711593E+02 0.  0.
         13    1    4    4    0    0 -0.36272729672E+02  0.44821214240E+02  0.15789042947E+03  0.16808938063E+03  0.00000000000E+00 0. -1.
        -14    1    4    4    0    0  0.39753656975E+02  0.72146596820E+02  0.14627263582E+03  0.16787247739E+03  0.00000000000E+00 0.  1.
        -13    1    3    3    0    0 -0.74392340231E+02 -0.44797186172E+02 -0.45176503202E+02  0.97887305692E+02  0.00000000000E+00 0. -1.
         13    1    3    3    0    0 -0.27163145079E+02 -0.11092217719E+03 -0.13783481049E+03  0.17899720899E+03  0.00000000000E+00 0.  1.
         -1    1    1    2    0  502  0.98074558007E+02  0.38751552303E+02  0.86975180904E+01  0.10581090943E+03  0.00000000000E+00 0.  1.
<scales pt_clust_5="13000.00000" pt_clust_6="13000.00000" pt_clust_7="13000.00000" pt_clust_8="13000.00000" pt_clust_9="105.45289"></scales>
<clustering>
<clus scale="   81.619">  5  6 -1 -1</clus>
<clus scale="   92.789">  7  8 -1 -1</clus>
<clus scale="  105.453">  1  9  2 -1</clus>
<clus scale="  193.169">  1  5  2 -1</clus>
<clus scale="  105.453">  1  5  2 -1</clus>
</clustering>
</event>
<event>
 9    1  0.1304939E-004  0.1346930E+03  0.7546771E-02  0.1237846E+00
         21   -1    0    0  501  502  0.00000000000E+00  0.00000000000E+00  0.21002037852E+03  0.21002037852E+03  0.00000000000E+00 0. -1.
          1   -1    0    0  502    0 -0.00000000000E+00 -0.00000000000E+00 -0.65410366432E+03  0.65410366432E+03  0.00000000000E+00 0. -1.
         23    2    1    2    0    0  0.22246364899E+02  0.29678377416E+01 -0.54535444208E+03  0.55346438639E+03  0.91693242355E+02 0.  0.
        -24    2    1    2    0    0  0.85926070762E+02  0.54120002723E+02  0.13084146232E+03  0.18482365062E+03  0.82024564821E+02 0.  0.
         13    1    4    4    0    0  0.23134426760E+02  0.35509967974E+02  0.46316034654E+01  0.42633452565E+02  0.00000000000E+00 0. -1.
        -14    1    4    4    0    0  0.62791644002E+02  0.18610034749E+02  0.12620985885E+03  0.14219019805E+03  0.00000000000E+00 0.  1.
        -11    1    3    3    0    0  0.48846522204E+02  0.29238787902E+02 -0.34055844223E+03  0.34528385717E+03  0.00000000000E+00 0. -1.
         11    1    3    3    0    0 -0.26600157305E+02 -0.26270950161E+02 -0.20479599985E+03  0.20818052922E+03  0.00000000000E+00 0.  1.
          2    1    1    2  501    0 -0.10817243566E+03 -0.57087840464E+02 -0.29570306034E+02  0.12583600584E+03  0.00000000000E+00 0. -1.
<scales pt_clust_5="13000.00000" pt_clust_6="13000.00000" pt_clust_7="13000.00000" pt_clust_8="13000.00000" pt_clust_9="106.83725"></scales>
<clustering>
<clus scale="   82.025">  5  6 -1 -1</clus>
<clus scale="   91.693">  7  8 -1 -1</clus>
<clus scale="   94.400">  2  7  1 -1</clus>
<clus scale="  106.837">  1  9  2 -1</clus>
<clus scale="  106.837">  1  5  2 -1</clus>
</clustering>
</event>
<event>
 9    1  0.7586638E-005  0.1412562E+03  0.7546771E-02  0.1214039E+00
          1   -1    0    0  502    0 -0.00000000000E+00  0.00000000000E+00  0.19282664149E+03  0.19282664149E+03  0.00000000000E+00 0. -1.
         21   -1    0    0  501  502  0.00000000000E+00 -0.00000000000E+00 -0.13182820959E+03  0.13182820959E+03  0.00000000000E+00 0.  1.
         23    2    1    2    0    0 -0.10497558550E+03  0.41305808135E+02  0.80528439668E+02  0.16613222754E+03  0.91591725029E+02 0.  0.
        -24    2    1    2    0    0  0.95754230145E+02 -0.21311414970E+02 -0.35056353571E+02  0.13158052698E+03  0.80383071334E+02 0.  0.
         11    1    4    4    0    0 -0.60891760996E+01 -0.24183659981E+02 -0.72059129029E+01  0.25958672085E+02  0.00000000000E+00 0. -1.
        -12    1    4    4    0    0  0.10184340624E+03  0.28722450114E+01 -0.27850440668E+02  0.10562185490E+03  0.00000000000E+00 0.  1.
        -11    1    3    3    0    0 -0.14832002660E+02  0.43793697969E+02  0.56110897920E+02  0.72707008947E+02  0.00000000000E+00 0.  1.
         11    1    3    3    0    0 -0.90143582843E+02 -0.24878898341E+01  0.24417541749E+02  0.93425218591E+02  0.00000000000E+00 0. -1.
          2    1    1    2  501    0  0.92213553586E+01 -0.19994393165E+02  0.15526345812E+02  0.26942096558E+02  0.00000000000E+00 0. -1.
<scales pt_clust_5="13000.00000" pt_clust_6="13000.00000" pt_clust_7="13000.00000" pt_clust_8="13000.00000" pt_clust_9="22.01839"></scales>
<clustering>
<clus scale="   22.018">  2  9  1 -1</clus>
<clus scale="   80.383">  5  6 -1 -1</clus>
<clus scale="   91.592">  7  8 -1 -1</clus>
<clus scale="  134.260">  2  5  1 -1</clus>
<clus scale="   22.018">  2  5  1 -1</clus>
</clustering>
</event>
<event>
 9    1  0.7586638E-005  0.9665302E+02  0.7546771E-02  0.1293233E+00
         21   -1    0    0  501  502  0.00000000000E+00  0.00000000000E+00  0.53065521046E+03  0.53065521046E+03  0.00000000000E+00 0. -1.
          1   -1    0    0  502    0 -0.00000000000E+00 -0.00000000000E+00 -0.25794707525E+02  0.25794707525E+02  0.00000000000E+00 0. -1.
         23    2    1    2    0    0 -0.30736762125E+02  0.31696968860E+02  0.13948113451E+03  0.17224435328E+03  0.90904807194E+02 0.  0.
        -24    2    1    2    0    0  0.52529346476E+00 -0.14702751484E+02  0.28905860644E+03  0.30038197034E+03  0.80361703028E+02 0.  0.
         11    1    4    4    0    0 -0.39649780367E+02 -0.10485189986E+02  0.15823224348E+03  0.16346096528E+03  0.00000000000E+00 0. -1.
        -12    1    4    4    0    0  0.40175073831E+02 -0.42175614982E+01  0.13082636296E+03  0.13692100506E+03  0.00000000000E+00 0.  1.
        -11    1    3    3    0    0 -0.21229074699E+02 -0.26112060912E+02  0.19934130767E+02  0.39113717633E+02  0.00000000000E+00 0.  1.
         11    1    3    3    0    0 -0.95076874261E+01  0.57809029771E+02  0.11954700374E+03  0.13313063564E+03  0.00000000000E+00 0. -1.
          2    1    1    2  501    0  0.30211468660E+02 -0.16994217376E+02  0.76320761992E+02  0.83823594375E+02  0.00000000000E+00 0. -1.
<scales pt_clust_5="13000.00000" pt_clust_6="13000.00000" pt_clust_7="13000.00000" pt_clust_8="13000.00000" pt_clust_9="34.66318"></scales>
<clustering>
<clus scale="   34.663">  1  9  2 -1</clus>
<clus scale="   80.362">  5  6 -1 -1</clus>
<clus scale="   86.811">  1  5  2 -1</clus>
<clus scale="   90.905">  7  8 -1 -1</clus>
<clus scale="   34.663">  1  5  2 -1</clus>
</clustering>
</event>
<event>
 9    1  0.7586638E-005  0.1190605E+03  0.7546771E-02  0.1248135E+00
          3   -1    0    0  502    0 -0.00000000000E+00  0.00000000000E+00  0.22595443216E+03  0.22595443216E+03  0.00000000000E+00 0. -1.
         21   -1    0    0  501  502  0.00000000000E+00 -0.00000000000E+00 -0.11343051926E+03  0.11343051926E+03  0.00000000000E+00 0. -1.
         23    2    1    2    0    0 -0.13142275288E+02  0.82801511006E+02  0.99420205021E+02  0.15915619033E+03  0.91746967949E+02 0.  0.
        -24    2    1    2    0    0  0.29250241423E+02 -0.62791800166E+02  0.63197031511E+02  0.12393314694E+03  0.81038097999E+02 0.  0.
         13    1    4    4    0    0  0.35981057536E+02 -0.26988032008E+02 -0.63483194218E+01  0.45423468962E+02  0.00000000000E+00 0. -1.
        -14    1    4    4    0    0 -0.67308161136E+01 -0.35803768159E+02  0.69545350932E+02  0.78509677978E+02  0.00000000000E+00 0.  1.
        -11    1    3    3    0    0  0.36521933310E+02  0.42496721139E+02  0.25968017642E+02  0.61758892968E+02  0.00000000000E+00 0.  1.
         11    1    3    3    0    0 -0.49664208598E+02  0.40304789866E+02  0.73452187378E+02  0.97397297358E+02  0.00000000000E+00 0. -1.
          4    1    1    2  501    0 -0.16107966135E+02 -0.20009710839E+02 -0.50093323625E+02  0.56295614151E+02  0.00000000000E+00 0. -1.
<scales pt_clust_5="13000.00000" pt_clust_6="13000.00000" pt_clust_7="13000.00000" pt_clust_8="13000.00000" pt_clust_9="25.68764"></scales>
<clustering>
<clus scale="   25.688">  2  9  1 -1</clus>
<clus scale="   81.038">  5  6 -1 -1</clus>
<clus scale="   91.747">  7  8 -1 -1</clus>
<clus scale="  111.018">  2  5  1 -1</clus>
<clus scale="   25.688">  2  5  1 -1</clus>
</clustering>
</event>
<event>
 9    1  0.7586638E-005  0.9964517E+02  0.7546771E-02  0.1286674E+00
         21   -1    0    0  501  502  0.00000000000E+00  0.00000000000E+00  0.10063408197E+03  0.10063408197E+03  0.00000000000E+00 0. -1.
          1   -1    0    0  502    0 -0.00000000000E+00 -0.00000000000E+00 -0.25616629679E+03  0.25616629679E+03  0.00000000000E+00 0. -1.
         23    2    1    2    0    0  0.90378972591E+01  0.45434566738E+02 -0.17426472899E+03  0.20214376590E+03  0.91366968214E+02 0.  0.
        -24    2    1    2    0    0 -0.11348703446E+02 -0.14659955341E+01  0.54697451860E+02  0.97805475478E+02  0.80269281675E+02 0.  0.
         11    1    4    4    0    0 -0.36380750123E+02 -0.17967528998E+02  0.54345090817E+02  0.67821677757E+02  0.00000000000E+00 0. -1.
        -12    1    4    4    0    0  0.25032046677E+02  0.16501533464E+02  0.35236104261E+00  0.29983797721E+02  0.00000000000E+00 0.  1.
        -13    1    3    3    0    0 -0.35024903577E+02  0.19822672128E+02 -0.33257503074E+02  0.52208655523E+02  0.00000000000E+00 0.  1.
         13    1    3    3    0    0  0.44062800836E+02  0.25611894610E+02 -0.14100722592E+03  0.14993511038E+03  0.00000000000E+00 0. -1.
          2    1    1    2  501    0  0.23108061867E+01 -0.43968571204E+02 -0.35964937691E+02  0.56851137385E+02  0.00000000000E+00 0. -1.
<scales pt_clust_5="13000.00000" pt_clust_6="13000.00000" pt_clust_7="13000.00000" pt_clust_8="13000.00000" pt_clust_9="44.02927"></scales>
<clustering>
<clus scale="   44.029">  1  9  2 -1</clus>
<clus scale="   80.269">  5  6 -1 -1</clus>
<clus scale="   89.579">  1  5  2 -1</clus>
<clus scale="   91.367">  7  8 -1 -1</clus>
<clus scale="   44.029">  1  5  2 -1</clus>
</clustering>
</event>
<event>
 9    1  0.7586638E-005  0.1188595E+03  0.7546771E-02  0.1249252E+00
         21   -1    0    0  501  502  0.00000000000E+00  0.00000000000E+00  0.20921923488E+03  0.20921923488E+03  0.00000000000E+00 0.  1.
          3   -1    0    0  502    0 -0.00000000000E+00 -0.00000000000E+00 -0.11600282482E+03  0.11600282482E+03  0.00000000000E+00 0. -1.
         23    2    1    2    0    0 -0.56988701881E+02 -0.40456066620E+02 -0.29258710128E+02  0.12014726937E+03  0.93246387327E+02 0.  0.
        -24    2    1    2    0    0  0.40931485760E+02  0.80077967907E+02  0.79810528280E+02  0.14467614255E+03  0.80458674663E+02 0.  0.
         13    1    4    4    0    0  0.93322163949E+01  0.45112390169E+02 -0.63158316779E+01  0.46498470290E+02  0.00000000000E+00 0. -1.
        -14    1    4    4    0    0  0.31599269365E+02  0.34965577738E+02  0.86126359958E+02  0.98177672261E+02  0.00000000000E+00 0.  1.
        -13    1    3    3    0    0 -0.21513019226E+02  0.26976892392E+02  0.78647449322E+01  0.35389503136E+02  0.00000000000E+00 0.  1.
         13    1    3    3    0    0 -0.35475682655E+02 -0.67432959012E+02 -0.37123455060E+02  0.84757766231E+02  0.00000000000E+00 0. -1.
          4    1    1    2  501    0  0.16057216121E+02 -0.39621901287E+02  0.42664591909E+02  0.60398647782E+02  0.00000000000E+00 0. -1.
<scales pt_clust_5="13000.00000" pt_clust_6="13000.00000" pt_clust_7="13000.00000" pt_clust_8="13000.00000" pt_clust_9="42.75195"></scales>
<clustering>
<clus scale="   42.752">  1  9  2 -1</clus>
<clus scale="   80.459">  5  6 -1 -1</clus>
<clus scale="   93.246">  7  8 -1 -1</clus>
<clus scale="  109.116">  1  5  2 -1</clus>
<clus scale="   42.752">  1  5  2 -1</clus>
</clustering>
</event>
<event>
 9    1  0.7586638E-005  0.1495528E+03  0.7546771E-02  0.1202446E+00
          1   -1    0    0  502    0 -0.00000000000E+00  0.00000000000E+00  0.48590341889E+03  0.48590341889E+03  0.00000000000E+00 0. -1.
         21   -1    0    0  501  502  0.00000000000E+00 -0.00000000000E+00 -0.93887819300E+02  0.93887819300E+02  0.00000000000E+00 0. -1.
        -24    2    1    2    0    0  0.10807104157E+03  0.80905230984E+01  0.12894374050E+03  0.18662831476E+03  0.80366865474E+02 0.  0.
         23    2    1    2    0    0 -0.14386658986E+03 -0.38825830502E+02  0.57884545050E+02  0.18262120727E+03  0.88288413723E+02 0.  0.
         13    1    3    3    0    0  0.10781334197E+03  0.28709649682E+02  0.12084739442E+03  0.16447508452E+03  0.00000000000E+00 0. -1.
        -14    1    3    3    0    0  0.25769960756E+00 -0.20619126584E+02  0.80963460781E+01  0.22153230238E+02  0.00000000000E+00 0.  1.
        -13    1    4    4    0    0 -0.16273783671E+02  0.25543961780E+02  0.10740838295E+02  0.32135581925E+02  0.00000000000E+00 0.  1.
         13    1    4    4    0    0 -0.12759280619E+03 -0.64369792281E+02  0.47143706755E+02  0.15048562535E+03  0.00000000000E+00 0. -1.
          2    1    1    2  501    0  0.35795548286E+02  0.30735307403E+02  0.20518731404E+03  0.21054171616E+03  0.00000000000E+00 0. -1.
<scales pt_clust_5="13000.00000" pt_clust_6="13000.00000" pt_clust_7="13000.00000" pt_clust_8="13000.00000" pt_clust_9="47.18032"></scales>
<clustering>
<clus scale="   47.180">  2  9  1 -1</clus>
<clus scale="   80.367">  5  6 -1 -1</clus>
<clus scale="   88.288">  7  8 -1 -1</clus>
<clus scale="  145.017">  1  5  2 -1</clus>
<clus scale="   47.180">  2  5  1 -1</clus>
</clustering>
</event>
<event>
 9    1  0.7586638E-005  0.2590326E+03  0.7546771E-02  0.1107726E+00
         21   -1    0    0  501  502  0.00000000000E+00  0.00000000000E+00  0.64106807819E+02  0.64106807819E+02  0.00000000000E+00 0. -1.
          1   -1    0    0  502    0 -0.00000000000E+00 -0.00000000000E+00 -0.69074914928E+03  0.69074914928E+03  0.00000000000E+00 0. -1.
        -24    2    1    2    0    0  0.48894581071E+02 -0.12029463785E+03 -0.27073388401E+03  0.31108787114E+03  0.81347081457E+02 0.  0.
         23    2    1    2    0    0 -0.12459004563E+02 -0.37307553825E+02 -0.12181967159E+03  0.15922711928E+03  0.94689823957E+02 0.  0.
         11    1    3    3    0    0  0.68264434067E+02 -0.11090295070E+03 -0.24563797486E+03  0.27802430132E+03  0.00000000000E+00 0. -1.
        -12    1    3    3    0    0 -0.19369852996E+02 -0.93916871448E+01 -0.25095909157E+02  0.33063569815E+02  0.00000000000E+00 0.  1.
        -11    1    4    4    0    0 -0.49992356104E+02 -0.49862795691E+01 -0.79672156883E+02  0.94189974176E+02  0.00000000000E+00 0. -1.
         11    1    4    4    0    0  0.37533351541E+02 -0.32321274256E+02 -0.42147514708E+02  0.65037145106E+02  0.00000000000E+00 0.  1.
          2    1    1    2  501    0 -0.36435576508E+02  0.15760219167E+03 -0.23408878585E+03  0.28454096668E+03  0.00000000000E+00 0. -1.
<scales pt_clust_5="13000.00000" pt_clust_6="13000.00000" pt_clust_7="13000.00000" pt_clust_8="13000.00000" pt_clust_9="161.75909"></scales>
<clustering>
<clus scale="   81.347">  5  6 -1 -1</clus>
<clus scale="   94.690">  7  8 -1 -1</clus>
<clus scale="  101.692">  5  7 -1 -1</clus>
<clus scale="  161.759">  1  9  2 -1</clus>
<clus scale="  161.759">  1  5  2 -1</clus>
</clustering>
</event>
<event>
 9    1  0.7586638E-005  0.4599205E+03  0.7546771E-02  0.1024804E+00
         21   -1    0    0  501  502  0.00000000000E+00  0.00000000000E+00  0.73352052384E+02  0.73352052384E+02  0.00000000000E+00 0. -1.
          1   -1    0    0  502    0 -0.00000000000E+00 -0.00000000000E+00 -0.25627174473E+04  0.25627174473E+04  0.00000000000E+00 0. -1.
        -24    2    1    2    0    0 -0.45457376599E+02  0.92056052187E+02 -0.23267026206E+03  0.26559099070E+03  0.76566530958E+02 0.  0.
         23    2    1    2    0    0 -0.16831065347E+03  0.25401589322E+03 -0.10462114211E+04  0.10934767946E+04  0.90997871560E+02 0.  0.
         11    1    3    3    0    0  0.11838831717E+02  0.61594034175E+02 -0.12564698744E+03  0.14043200645E+03  0.00000000000E+00 0. -1.
        -12    1    3    3    0    0 -0.57296208316E+02  0.30462018012E+02 -0.10702327462E+03  0.12515898425E+03  0.00000000000E+00 0.  1.
        -11    1    4    4    0    0 -0.93402255941E+02  0.69827503310E+02 -0.45579947762E+03  0.47048169511E+03  0.00000000000E+00 0. -1.
         11    1    4    4    0    0 -0.74908397533E+02  0.18418838992E+03 -0.59041194351E+03  0.62299509953E+03  0.00000000000E+00 0.  1.
          2    1    1    2  501    0  0.21376803007E+03 -0.34607194541E+03 -0.12104837117E+04  0.12770017143E+04  0.00000000000E+00 0. -1.
<scales pt_clust_5="13000.00000" pt_clust_6="13000.00000" pt_clust_7="13000.00000" pt_clust_8="13000.00000" pt_clust_9="406.77110"></scales>
<clustering>
<clus scale="   76.567">  5  6 -1 -1</clus>
<clus scale="   90.998">  7  8 -1 -1</clus>
<clus scale="  114.244">  5  7 -1 -1</clus>
<clus scale="  406.771">  1  9  2 -1</clus>
<clus scale="  406.771">  1  5  2 -1</clus>
</clustering>
</event>
<event>
 9    1  0.7586638E-005  0.1034587E+03  0.7546771E-02  0.1279969E+00
          1   -1    0    0  502    0 -0.00000000000E+00  0.00000000000E+00  0.40824521054E+03  0.40824521054E+03  0.00000000000E+00 0. -1.
         21   -1    0    0  501  502  0.00000000000E+00 -0.00000000000E+00 -0.53337744250E+02  0.53337744250E+02  0.00000000000E+00 0. -1.
        -24    2    1    2    0    0 -0.17448832589E+02 -0.33654973467E+02  0.26244281455E+03  0.27698068255E+03  0.80030922761E+02 0.  0.
         23    2    1    2    0    0  0.12214805206E+02  0.71438108058E+02  0.54107757932E+02  0.13050780298E+03  0.94085240186E+02 0.  0.
         11    1    3    3    0    0 -0.31356491537E+02 -0.38678956204E+02  0.82005718237E+02  0.95938673318E+02  0.00000000000E+00 0. -1.
        -12    1    3    3    0    0  0.13907658948E+02  0.50239827363E+01  0.18043709632E+03  0.18104200923E+03  0.00000000000E+00 0.  1.
        -11    1    4    4    0    0  0.19027226752E+02 -0.16126322624E+02  0.30811978896E+02  0.39641792123E+02  0.00000000000E+00 0.  1.
         11    1    4    4    0    0 -0.68124215465E+01  0.87564430681E+02  0.23295779035E+02  0.90866010855E+02  0.00000000000E+00 0. -1.
          2    1    1    2  501    0  0.52340273835E+01 -0.37783134590E+02  0.38356893801E+02  0.54094469257E+02  0.00000000000E+00 0. -1.
<scales pt_clust_5="13000.00000" pt_clust_6="13000.00000" pt_clust_7="13000.00000" pt_clust_8="13000.00000" pt_clust_9="38.14394"></scales>
<clustering>
<clus scale="   38.144">  2  9  1 -1</clus>
<clus scale="   80.031">  5  6 -1 -1</clus>
<clus scale="   90.866">  1  5  2 -1</clus>
<clus scale="   94.085">  7  8 -1 -1</clus>
<clus scale="   38.144">  2  5  1 -1</clus>
</clustering>
</event>
<event>
 9    1  0.7586638E-005  0.2095752E+03  0.7546771E-02  0.1169648E+00
          3   -1    0    0  502    0 -0.00000000000E+00  0.00000000000E+00  0.22935904791E+03  0.22935904791E+03  0.00000000000E+00 0. -1.
         21   -1    0    0  501  502  0.00000000000E+00 -0.00000000000E+00 -0.39078242369E+03  0.39078242369E+03  0.00000000000E+00 0. -1.
        -24    2    1    2    0    0  0.20221652770E+02 -0.74937185624E+02  0.11244018952E+02  0.10989835063E+03  0.76985209481E+02 0.  0.
         23    2    1    2    0    0 -0.79813862811E+02 -0.11592190961E+03  0.80146370537E+02  0.18791840016E+03  0.95298177237E+02 0.  0.
         13    1    3    3    0    0 -0.18653711704E+02 -0.24416513754E+02 -0.22203767247E+02  0.37909555315E+02  0.00000000000E+00 0. -1.
        -14    1    3    3    0    0  0.38875364473E+02 -0.50520671870E+02  0.33447786199E+02  0.71988795314E+02  0.00000000000E+00 0.  1.
        -11    1    4    4    0    0 -0.69064632349E+02 -0.33627334513E+02  0.67260303408E+01  0.77110054806E+02  0.00000000000E+00 0.  1.
         11    1    4    4    0    0 -0.10749230462E+02 -0.82294575101E+02  0.73420340196E+02  0.11080834536E+03  0.00000000000E+00 0. -1.
          4    1    1    2  501    0  0.59592210041E+02  0.19085909524E+03 -0.25281376526E+03  0.32232472080E+03  0.00000000000E+00 0. -1.
<scales pt_clust_5="13000.00000" pt_clust_6="13000.00000" pt_clust_7="13000.00000" pt_clust_8="13000.00000" pt_clust_9="186.65487"></scales>
<clustering>
<clus scale="   76.985">  5  6 -1 -1</clus>
<clus scale="   95.298">  7  8 -1 -1</clus>
<clus scale="  109.322">  1  5  2 -1</clus>
<clus scale="  186.655">  2  9  1 -1</clus>
<clus scale="  186.655">  2  5  1 -1</clus>
</clustering>
</event>
<event>
 9    1  0.7586638E-005  0.1037229E+03  0.7546771E-02  0.1278882E+00
         21   -1    0    0  501  502  0.00000000000E+00  0.00000000000E+00  0.13483873744E+03  0.13483873744E+03  0.00000000000E+00 0. -1.
          1   -1    0    0  502    0 -0.00000000000E+00 -0.00000000000E+00 -0.31973458636E+03  0.31973458636E+03  0.00000000000E+00 0. -1.
         23    2    1    2    0    0  0.43417742682E+02 -0.16812387778E+02 -0.24367039295E+03  0.26483225744E+03  0.92699015207E+02 0.  0.
        -24    2    1    2    0    0 -0.50291209764E+02 -0.28742040049E+01  0.10382702894E+03  0.14009700486E+03  0.79433317966E+02 0.  0.
         13    1    4    4    0    0  0.19962795354E+02 -0.10668789287E+02  0.33136602191E+02  0.40129423968E+02  0.00000000000E+00 0. -1.
        -14    1    4    4    0    0 -0.70254005118E+02  0.77945852824E+01  0.70690426747E+02  0.99967580887E+02  0.00000000000E+00 0.  1.
        -11    1    3    3    0    0  0.32817686224E+02  0.26039949171E+02 -0.19360054902E+03  0.19808142786E+03  0.00000000000E+00 0.  1.
         11    1    3    3    0    0  0.10600056458E+02 -0.42852336949E+02 -0.50069843921E+02  0.66750829577E+02  0.00000000000E+00 0. -1.
          2    1    1    2  501    0  0.68734670819E+01  0.19686591783E+02 -0.45052484916E+02  0.49644061507E+02  0.00000000000E+00 0. -1.
<scales pt_clust_5="13000.00000" pt_clust_6="13000.00000" pt_clust_7="13000.00000" pt_clust_8="13000.00000" pt_clust_9="20.85202"></scales>
<clustering>
<clus scale="   20.852">  1  9  2 -1</clus>
<clus scale="   79.433">  5  6 -1 -1</clus>
<clus scale="   92.060">  1  5  2 -1</clus>
<clus scale="   92.699">  7  8 -1 -1</clus>
<clus scale="   20.852">  1  5  2 -1</clus>
</clustering>
</event>
<event>
 9    1  0.7586638E-005  0.1349939E+03  0.7546771E-02  0.1244152E+00
         21   -1    0    0  501  502  0.00000000000E+00  0.00000000000E+00  0.11243605871E+03  0.11243605871E+03  0.00000000000E+00 0. -1.
         -4   -1    0    0    0  501 -0.00000000000E+00 -0.00000000000E+00 -0.23075525944E+03  0.23075525944E+03  0.00000000000E+00 0.  1.
        -24    2    1    2    0    0 -0.15691555103E+02 -0.45342552952E+01 -0.91611901331E+01  0.83021973188E+02  0.80882236954E+02 0.  0.
         23    2    1    2    0    0 -0.31234656963E+02 -0.86899776147E+02 -0.81564453453E+02  0.15375667711E+03  0.91984676974E+02 0.  0.
         13    1    3    3    0    0 -0.38174290656E+02 -0.46481265058E+01  0.22223002457E+02  0.44415575931E+02  0.00000000000E+00 0. -1.
        -14    1    3    3    0    0  0.22482735553E+02  0.11387121058E+00 -0.31384192590E+02  0.38606397257E+02  0.00000000000E+00 0.  1.
        -11    1    4    4    0    0  0.85458429911E+01 -0.34185962574E+02  0.13727956104E+02  0.37817565341E+02  0.00000000000E+00 0.  1.
         11    1    4    4    0    0 -0.39780499954E+02 -0.52713813573E+02 -0.95292409557E+02  0.11593911177E+03  0.00000000000E+00 0. -1.
         -3    1    1    2    0  502  0.46926212066E+02  0.91434031442E+02 -0.27593557147E+02  0.10641266786E+03  0.00000000000E+00 0.  1.
<scales pt_clust_5="13000.00000" pt_clust_6="13000.00000" pt_clust_7="13000.00000" pt_clust_8="13000.00000" pt_clust_9="98.80369"></scales>
<clustering>
<clus scale="   80.882">  5  6 -1 -1</clus>
<clus scale="   82.515">  2  5  1 -1</clus>
<clus scale="   91.985">  7  8 -1 -1</clus>
<clus scale="   98.804">  1  9  2 -1</clus>
<clus scale="   98.804">  1  5  2 -1</clus>
</clustering>
</event>
<event>
 9    1  0.7586638E-005  0.2126129E+03  0.7546771E-02  0.1173796E+00
          1   -1    0    0  502    0 -0.00000000000E+00  0.00000000000E+00  0.66095503155E+03  0.66095503155E+03  0.00000000000E+00 0. -1.
         21   -1    0    0  501  502  0.00000000000E+00 -0.00000000000E+00 -0.21034327584E+03  0.21034327584E+03  0.00000000000E+00 0. -1.
        -24    2    1    2    0    0 -0.35299760876E+02 -0.37064113450E+02  0.39762423311E+03  0.40887371659E+03  0.80329718924E+02 0.  0.
         23    2    1    2    0    0  0.12330719984E+03 -0.13807602631E+03  0.13856271309E+03  0.24854964814E+03  0.91146297548E+02 0.  0.
         13    1    3    3    0    0  0.77106616328E+01 -0.49798654812E+02  0.21185483358E+03  0.21776554097E+03  0.00000000000E+00 0. -1.
        -14    1    3    3    0    0 -0.43010422508E+02  0.12734541363E+02  0.18576939953E+03  0.19110817563E+03  0.00000000000E+00 0.  1.
        -11    1    4    4    0    0  0.76361412457E+02 -0.74451533069E+02  0.13128717265E+03  0.16914614329E+03  0.00000000000E+00 0.  1.
         11    1    4    4    0    0  0.46945787386E+02 -0.63624493239E+02  0.72755404425E+01  0.79403504846E+02  0.00000000000E+00 0. -1.
          2    1    1    2  501    0 -0.88007438967E+02  0.17514013976E+03 -0.85575190484E+02  0.21387494265E+03  0.00000000000E+00 0. -1.
<scales pt_clust_5="13000.00000" pt_clust_6="13000.00000" pt_clust_7="13000.00000" pt_clust_8="13000.00000" pt_clust_9="192.08486"></scales>
<clustering>
<clus scale="   80.330">  5  6 -1 -1</clus>
<clus scale="   91.146">  7  8 -1 -1</clus>
<clus scale="   95.251">  1  5  2 -1</clus>
<clus scale="  192.085">  2  9  1 -1</clus>
<clus scale="  192.085">  2  5  1 -1</clus>
</clustering>
</event>
<event>
 9    1  0.7586638E-005  0.1490309E+03  0.7546771E-02  0.1206588E+00
         21   -1    0    0  501  502  0.00000000000E+00  0.00000000000E+00  0.17370234642E+03  0.17370234642E+03  0.00000000000E+00 0. -1.
         -2   -1    0    0    0  501 -0.00000000000E+00 -0.00000000000E+00 -0.15907024070E+03  0.15907024070E+03  0.00000000000E+00 0.  1.
        -24    2    1    2    0    0 -0.12202788711E+03 -0.52608799774E+02 -0.31044884201E+02  0.15088655943E+03  0.64377619843E+02 0.  0.
         23    2    1    2    0    0  0.90102149887E+02  0.39674765771E+02  0.14193158482E+02  0.13521940606E+03  0.91598895050E+02 0.  0.
         13    1    3    3    0    0 -0.44884947324E+02 -0.46670788328E+02  0.61422300906E+01  0.65042662691E+02  0.00000000000E+00 0. -1.
        -14    1    3    3    0    0 -0.77142939782E+02 -0.59380114458E+01 -0.37187114292E+02  0.85843896740E+02  0.00000000000E+00 0.  1.
        -13    1    4    4    0    0  0.54743269181E+02 -0.14767837365E+02  0.35497977842E+02  0.66895597553E+02  0.00000000000E+00 0.  1.
         13    1    4    4    0    0  0.35358880705E+02  0.54442603137E+02 -0.21304819360E+02  0.68323808508E+02  0.00000000000E+00 0. -1.
         -1    1    1    2    0  502  0.31925737220E+02  0.12934034003E+02  0.31483831433E+02  0.46666621630E+02  0.00000000000E+00 0.  1.
<scales pt_clust_5="13000.00000" pt_clust_6="13000.00000" pt_clust_7="13000.00000" pt_clust_8="13000.00000" pt_clust_9="34.44622"></scales>
<clustering>
<clus scale="   34.446">  1  9  2 -1</clus>
<clus scale="   64.378">  5  6 -1 -1</clus>
<clus scale="   91.599">  7  8 -1 -1</clus>
<clus scale="  134.031">  2  5  1 -1</clus>
<clus scale="   34.446">  1  5  2 -1</clus>
</clustering>
</event>
<event>
 9    1  0.7586638E-005  0.1262713E+03  0.7546771E-02  0.1244246E+00
         21   -1    0    0  501  502  0.00000000000E+00  0.00000000000E+00  0.18870794153E+03  0.18870794153E+03  0.00000000000E+00 0.  1.
         -2   -1    0    0    0  501 -0.00000000000E+00 -0.00000000000E+00 -0.21479017887E+03  0.21479017887E+03  0.00000000000E+00 0.  1.
         23    2    1    2    0    0  0.35781031959E+02 -0.24107208218E+02  0.62910842445E+01  0.10082785182E+03  0.90913355597E+02 0.  0.
        -24    2    1    2    0    0  0.72567263078E+02  0.12229734557E+02 -0.12313281472E+03  0.16083334457E+03  0.72733077682E+02 0.  0.
         11    1    4    4    0    0 -0.52772947307E+01  0.24146651142E+02 -0.29546464633E+02  0.38521476781E+02  0.00000000000E+00 0. -1.
        -12    1    4    4    0    0  0.77844557809E+02 -0.11916916585E+02 -0.93586350084E+02  0.12231186779E+03  0.00000000000E+00 0.  1.
        -11    1    3    3    0    0  0.19503398082E+02  0.24256647476E+02 -0.25901143141E+02  0.40492427681E+02  0.00000000000E+00 0.  1.
         11    1    3    3    0    0  0.16277633877E+02 -0.48363855694E+02  0.32192227385E+02  0.60335424140E+02  0.00000000000E+00 0. -1.
         -1    1    1    2    0  502 -0.10834829504E+03  0.11877473661E+02  0.90759493125E+02  0.14183692400E+03  0.00000000000E+00 0.  1.
<scales pt_clust_5="13000.00000" pt_clust_6="13000.00000" pt_clust_7="13000.00000" pt_clust_8="13000.00000" pt_clust_9="103.21989"></scales>
<clustering>
<clus scale="   72.733">  5  6 -1 -1</clus>
<clus scale="   90.913">  7  8 -1 -1</clus>
<clus scale="  100.631">  2  7  1 -1</clus>
<clus scale="  103.220">  1  9  2 -1</clus>
<clus scale="  103.220">  1  5  2 -1</clus>
</clustering>
</event>
<event>
 9    1  0.7586638E-005  0.1074159E+03  0.7546771E-02  0.1269094E+00
         -2   -1    0    0    0  501 -0.00000000000E+00  0.00000000000E+00  0.38012997454E+02  0.38012997454E+02  0.00000000000E+00 0.  1.
         21   -1    0    0  501  502  0.00000000000E+00 -0.00000000000E+00 -0.65013837549E+03  0.65013837549E+03  0.00000000000E+00 0.  1.
        -24    2    1    2    0    0  0.86990721712E+01  0.52476615187E+02 -0.12985556148E+03  0.16202667973E+03  0.80998204290E+02 0.  0.
         23    2    1    2    0    0 -0.39585783947E+02 -0.69913824541E+02 -0.47479900871E+03  0.48987751120E+03  0.89949431058E+02 0.  0.
         11    1    3    3    0    0 -0.29744450464E+02  0.49755238893E+01 -0.71197174285E+02  0.77320927294E+02  0.00000000000E+00 0. -1.
        -12    1    3    3    0    0  0.38443522635E+02  0.47501091298E+02 -0.58658387195E+02  0.84705752434E+02  0.00000000000E+00 0.  1.
        -13    1    4    4    0    0 -0.44818973112E+02 -0.89617961256E+02 -0.39124789359E+03  0.40387502222E+03  0.00000000000E+00 0.  1.
         13    1    4    4    0    0  0.52331891655E+01  0.19704136716E+02 -0.83551115119E+02  0.86002488976E+02  0.00000000000E+00 0. -1.
         -1    1    1    2    0  502  0.30886711775E+02  0.17437209354E+02 -0.74708078379E+01  0.36247182016E+02  0.00000000000E+00 0.  1.
<scales pt_clust_5="13000.00000" pt_clust_6="13000.00000" pt_clust_7="13000.00000" pt_clust_8="13000.00000" pt_clust_9="35.46895"></scales>
<clustering>
<clus scale="   35.469">  2  9  1 -1</clus>
<clus scale="   80.998">  5  6 -1 -1</clus>
<clus scale="   89.949">  7  8 -1 -1</clus>
<clus scale="  100.040">  1  5  2 -1</clus>
<clus scale="   35.469">  2  5  1 -1</clus>
</clustering>
</event>
<event>
 9    1  0.7586638E-005  0.1885574E+03  0.7546771E-02  0.1169156E+00
         21   -1    0    0  501  502  0.00000000000E+00  0.00000000000E+00  0.76637072420E+02  0.76637072420E+02  0.00000000000E+00 0. -1.
          1   -1    0    0  502    0 -0.00000000000E+00 -0.00000000000E+00 -0.96480489771E+03  0.96480489771E+03  0.00000000000E+00 0. -1.
        -24    2    1    2    0    0 -0.12345426015E+03  0.36578892598E+02 -0.26754921904E+03  0.30761584462E+03  0.80411152956E+02 0.  0.
         23    2    1    2    0    0  0.63305171899E+02 -0.17922755635E+03 -0.21976981727E+03  0.30412122012E+03  0.89782415882E+02 0.  0.
         11    1    3    3    0    0 -0.83635764560E+02 -0.12072584310E+01 -0.95150192057E+02  0.12668842739E+03  0.00000000000E+00 0. -1.
        -12    1    3    3    0    0 -0.39818495593E+02  0.37786151029E+02 -0.17239902698E+03  0.18092741723E+03  0.00000000000E+00 0.  1.
        -11    1    4    4    0    0  0.79014022671E+02 -0.15199979072E+03 -0.15040725191E+03  0.22796818546E+03  0.00000000000E+00 0. -1.
         11    1    4    4    0    0 -0.15708850772E+02 -0.27227765629E+02 -0.69362565367E+02  0.76153034660E+02  0.00000000000E+00 0.  1.
          2    1    1    2  501    0  0.60149088255E+02  0.14264866375E+03 -0.40084878898E+03  0.42970490539E+03  0.00000000000E+00 0. -1.
<scales pt_clust_5="13000.00000" pt_clust_6="13000.00000" pt_clust_7="13000.00000" pt_clust_8="13000.00000" pt_clust_9="165.81027"></scales>
<clustering>
<clus scale="   80.411">  5  6 -1 -1</clus>
<clus scale="   89.782">  7  8 -1 -1</clus>
<clus scale="  151.806">  2  5  1 -1</clus>
<clus scale="  165.810">  1  9  2 -1</clus>
<clus scale="  165.810">  1  5  2 -1</clus>
</clustering>
</event>
<event>
 9    1  0.7586638E-005  0.1416979E+03  0.7546771E-02  0.1222293E+00
          1   -1    0    0  502    0 -0.00000000000E+00  0.00000000000E+00  0.53178943198E+03  0.53178943198E+03  0.00000000000E+00 0. -1.
         21   -1    0    0  501  502  0.00000000000E+00 -0.00000000000E+00 -0.74643113354E+02  0.74643113354E+02  0.00000000000E+00 0. -1.
         23    2    1    2    0    0  0.24890839278E+02  0.60638756782E+02  0.13135678256E+03  0.17248236433E+03  0.90548047885E+02 0.  0.
        -24    2    1    2    0    0  0.97678579825E+02 -0.58020588513E+02  0.25974984661E+03  0.29469732506E+03  0.80430323504E+02 0.  0.
         11    1    4    4    0    0  0.10821112994E+03 -0.41322579145E+02  0.24136401000E+03  0.26771960988E+03  0.00000000000E+00 0. -1.
        -12    1    4    4    0    0 -0.10532550117E+02 -0.16698009367E+02  0.18385836608E+02  0.26977715184E+02  0.00000000000E+00 0.  1.
        -11    1    3    3    0    0 -0.24182058305E+02  0.46648193571E+01  0.39776440217E+01  0.24947026586E+02  0.00000000000E+00 0. -1.
         11    1    3    3    0    0  0.49072897583E+02  0.55973937425E+02  0.12737913854E+03  0.14753533774E+03  0.00000000000E+00 0.  1.
          2    1    1    2  501    0 -0.12256941910E+03 -0.26181682693E+01  0.66039689456E+02  0.13925285594E+03  0.00000000000E+00 0. -1.
<scales pt_clust_5="13000.00000" pt_clust_6="13000.00000" pt_clust_7="13000.00000" pt_clust_8="13000.00000" pt_clust_9="116.65877"></scales>
<clustering>
<clus scale="   80.430">  5  6 -1 -1</clus>
<clus scale="   90.548">  7  8 -1 -1</clus>
<clus scale="  111.784">  1  7  2 -1</clus>
<clus scale="  116.659">  2  9  1 -1</clus>
<clus scale="  116.659">  2  5  1 -1</clus>
</clustering>
</event>
<event>
 9    1  0.7586638E-005  0.1465642E+03  0.7546771E-02  0.1213983E+00
         21   -1    0    0  501  502  0.00000000000E+00  0.00000000000E+00  0.94058024928E+02  0.94058024928E+02  0.00000000000E+00 0.  1.
         -2   -1    0    0    0  501 -0.00000000000E+00 -0.00000000000E+00 -0.53216570263E+03  0.53216570263E+03  0.00000000000E+00 0.  1.
         23    2    1    2    0    0 -0.66288481649E+02 -0.41432719397E+02 -0.45688256177E+02  0.12871972465E+03  0.91490533536E+02 0.  0.
        -24    2    1    2    0    0  0.10453892027E+03 -0.78342933114E+02 -0.10901819350E+03  0.18746278139E+03  0.78684985057E+02 0.  0.
         11    1    4    4    0    0  0.88104194530E+00 -0.27935418854E+02 -0.51612947064E+02  0.58694634901E+02  0.00000000000E+00 0. -1.
        -12    1    4    4    0    0  0.10365787833E+03 -0.50407514261E+02 -0.57405246437E+02  0.12876814649E+03  0.00000000000E+00 0.  1.
        -11    1    3    3    0    0 -0.43656691019E+02  0.88764333745E+01  0.14714312250E+02  0.46917040883E+02  0.00000000000E+00 0.  1.
         11    1    3    3    0    0 -0.22631790630E+02 -0.50309152771E+02 -0.60402568427E+02  0.81802683771E+02  0.00000000000E+00 0. -1.
         -1    1    1    2    0  502 -0.38250438623E+02  0.11977565251E+03 -0.28340122802E+03  0.31004122150E+03  0.00000000000E+00 0.  1.
<scales pt_clust_5="13000.00000" pt_clust_6="13000.00000" pt_clust_7="13000.00000" pt_clust_8="13000.00000" pt_clust_9="123.65172"></scales>
<clustering>
<clus scale="   78.685">  5  6 -1 -1</clus>
<clus scale="   91.491">  7  8 -1 -1</clus>
<clus scale="  120.339">  2  7  1 -1</clus>
<clus scale="  123.652">  1  9  2 -1</clus>
<clus scale="  123.652">  1  5  2 -1</clus>
</clustering>
</event>
<event>
 9    1  0.7586638E-005  0.1303276E+03  0.7546771E-02  0.1229766E+00
          3   -1    0    0  502    0 -0.00000000000E+00  0.00000000000E+00  0.48646402583E+03  0.48646402583E+03  0.00000000000E+00 0. -1.
         21   -1    0    0  501  502  0.00000000000E+00 -0.00000000000E+00 -0.70910126544E+02  0.70910126544E+02  0.00000000000E+00 0.  1.
        -24    2    1    2    0    0  0.84826322147E+02 -0.67288978456E+02  0.28417804580E+03  0.31421154364E+03  0.79046953698E+02 0.  0.
         23    2    1    2    0    0 -0.76755172172E+02  0.19359798713E+02  0.14919921488E+03  0.19139368037E+03  0.90027645218E+02 0.  0.
         11    1    3    3    0    0  0.79909050156E+02 -0.16620926595E+02  0.19733277684E+03  0.21354609880E+03  0.00000000000E+00 0. -1.
        -12    1    3    3    0    0  0.49172719910E+01 -0.50668051861E+02  0.86845268968E+02  0.10066544484E+03  0.00000000000E+00 0.  1.
        -11    1    4    4    0    0 -0.39746930758E+02 -0.32412641090E+02  0.94308167709E+02  0.10735189008E+03  0.00000000000E+00 0. -1.
         11    1    4    4    0    0 -0.37008241413E+02  0.51772439803E+02  0.54891047170E+02  0.84041790289E+02  0.00000000000E+00 0.  1.
          4    1    1    2  501    0 -0.80711499752E+01  0.47929179743E+02 -0.17823361395E+02  0.51768928366E+02  0.00000000000E+00 0. -1.
<scales pt_clust_5="13000.00000" pt_clust_6="13000.00000" pt_clust_7="13000.00000" pt_clust_8="13000.00000" pt_clust_9="48.60401"></scales>
<clustering>
<clus scale="   48.604">  2  9  1 -1</clus>
<clus scale="   79.047">  5  6 -1 -1</clus>
<clus scale="   90.028">  7  8 -1 -1</clus>
<clus scale="  122.999">  1  5  2 -1</clus>
<clus scale="   48.604">  2  5  1 -1</clus>
</clustering>
</event>
<event>
 9    1  0.7586638E-005  0.1160606E+03  0.7546771E-02  0.1253650E+00
         21   -1    0    0  501  502  0.00000000000E+00  0.00000000000E+00  0.16271304034E+03  0.16271304034E+03  0.00000000000E+00 0.  1.
          1   -1    0    0  502    0 -0.00000000000E+00 -0.00000000000E+00 -0.17708733065E+03  0.17708733065E+03  0.00000000000E+00 0. -1.
         23    2    1    2    0    0  0.38585013921E+02 -0.50160666878E+02 -0.79213083299E+02  0.13717026538E+03  0.92390872594E+02 0.  0.
        -24    2    1    2    0    0 -0.26366816469E+02  0.99552145995E+02  0.74517517500E+02  0.15083743947E+03  0.81198731191E+02 0.  0.
         13    1    4    4    0    0 -0.78034654257E+01  0.32090081993E+02 -0.15781652765E+02  0.36602294996E+02  0.00000000000E+00 0. -1.
        -14    1    4    4    0    0 -0.18563351043E+02  0.67462064002E+02  0.90299170265E+02  0.11423514447E+03  0.00000000000E+00 0.  1.
        -13    1    3    3    0    0  0.46744182874E+02  0.12307490834E+02 -0.27133547310E+02  0.55432141874E+02  0.00000000000E+00 0.  1.
         13    1    3    3    0    0 -0.81591689526E+01 -0.62468157712E+02 -0.52079535989E+02  0.81738123509E+02  0.00000000000E+00 0. -1.
          2    1    1    2  501    0 -0.12218197452E+02 -0.49391479117E+02 -0.96787245137E+01  0.51792666147E+02  0.00000000000E+00 0. -1.
<scales pt_clust_5="13000.00000" pt_clust_6="13000.00000" pt_clust_7="13000.00000" pt_clust_8="13000.00000" pt_clust_9="50.88030"></scales>
<clustering>
<clus scale="   50.880">  1  9  2 -1</clus>
<clus scale="   81.199">  5  6 -1 -1</clus>
<clus scale="   92.391">  7  8 -1 -1</clus>
<clus scale="  107.365">  1  5  2 -1</clus>
<clus scale="   50.880">  1  5  2 -1</clus>
</clustering>
</event>
<event>
 9    1  0.7586638E-005  0.1962521E+03  0.7546771E-02  0.1185619E+00
          1   -1    0    0  502    0 -0.00000000000E+00  0.00000000000E+00  0.61956623063E+03  0.61956623063E+03  0.00000000000E+00 0. -1.
         21   -1    0    0  501  502  0.00000000000E+00 -0.00000000000E+00 -0.12390498736E+03  0.12390498736E+03  0.00000000000E+00 0.  1.
         23    2    1    2    0    0  0.69641551031E+01  0.13930972609E+02 -0.30454683287E+02  0.97703393098E+02  0.91519909499E+02 0.  0.
        -24    2    1    2    0    0 -0.52234253592E+02 -0.17843245426E+03  0.27392443688E+03  0.34128356134E+03  0.82905452997E+02 0.  0.
         13    1    4    4    0    0  0.22762280362E+02 -0.46683041608E+02  0.72542714533E+02  0.89218121549E+02  0.00000000000E+00 0. -1.
        -14    1    4    4    0    0 -0.74996533954E+02 -0.13174941265E+03  0.20138172234E+03  0.25206543979E+03  0.00000000000E+00 0.  1.
        -11    1    3    3    0    0  0.44145948834E+02 -0.61114659318E+01 -0.32896755179E+02  0.55393242509E+02  0.00000000000E+00 0.  1.
         11    1    3    3    0    0 -0.37181793731E+02  0.20042438541E+02  0.24420718926E+01  0.42310150589E+02  0.00000000000E+00 0. -1.
          2    1    1    2  501    0  0.45270098489E+02  0.16450148165E+03  0.25219148969E+03  0.30448426356E+03  0.00000000000E+00 0. -1.
<scales pt_clust_5="13000.00000" pt_clust_6="13000.00000" pt_clust_7="13000.00000" pt_clust_8="13000.00000" pt_clust_9="177.88080"></scales>
<clustering>
<clus scale="   82.905">  5  6 -1 -1</clus>
<clus scale="   91.520">  7  8 -1 -1</clus>
<clus scale="   92.836">  1  7  2 -1</clus>
<clus scale="  177.881">  2  9  1 -1</clus>
<clus scale="  177.881">  2  5  1 -1</clus>
</clustering>
</event>
<event>
 9    1  0.7586638E-005  0.1353936E+03  0.7546771E-02  0.1221511E+00
          3   -1    0    0  502    0 -0.00000000000E+00  0.00000000000E+00  0.14112398069E+03  0.14112398069E+03  0.00000000000E+00 0. -1.
         21   -1    0    0  501  502  0.00000000000E+00 -0.00000000000E+00 -0.18573053105E+03  0.18573053105E+03  0.00000000000E+00 0. -1.
        -24    2    1    2    0    0 -0.29969021029E+02 -0.85492247476E+02 -0.36337160637E+00  0.12151253764E+03  0.80982085450E+02 0.  0.
         23    2    1    2    0    0  0.13128712001E+02  0.12355970827E+03 -0.54835829265E+02  0.16238930452E+03  0.89016590961E+02 0.  0.
         13    1    3    3    0    0 -0.45154605728E+02 -0.54712238915E+02 -0.29171272815E+02  0.76702872588E+02  0.00000000000E+00 0. -1.
        -14    1    3    3    0    0  0.15185584699E+02 -0.30780008561E+02  0.28807901209E+02  0.44809665048E+02  0.00000000000E+00 0.  1.
        -13    1    4    4    0    0  0.34677215330E+02  0.16693611726E+02  0.36779593887E+01  0.38661522483E+02  0.00000000000E+00 0.  1.
         13    1    4    4    0    0 -0.21548503329E+02  0.10686609654E+03 -0.58513788653E+02  0.12372778204E+03  0.00000000000E+00 0. -1.
          4    1    1    2  501    0  0.16840309028E+02 -0.38067460793E+02  0.10592650503E+02  0.42952669580E+02  0.00000000000E+00 0. -1.
<scales pt_clust_5="13000.00000" pt_clust_6="13000.00000" pt_clust_7="13000.00000" pt_clust_8="13000.00000" pt_clust_9="41.62607"></scales>
<clustering>
<clus scale="   41.626">  2  9  1 -1</clus>
<clus scale="   80.982">  5  6 -1 -1</clus>
<clus scale="   89.017">  7  8 -1 -1</clus>
<clus scale="  130.252">  1  5  2 -1</clus>
<clus scale="   41.626">  2  5  1 -1</clus>
</clustering>
</event>
<event>
 9    1  0.1947594E-004  0.9416525E+02  0.7546771E-02  0.1295621E+00
         21   -1    0    0  501  502  0.00000000000E+00  0.00000000000E+00  0.90031272038E+02  0.90031272038E+02  0.00000000000E+00 0.  1.
          1   -1    0    0  502    0 -0.00000000000E+00 -0.00000000000E+00 -0.83374275088E+03  0.83374275088E+03  0.00000000000E+00 0. -1.
         23    2    1    2    0    0  0.15462553550E+02  0.25568477487E+02 -0.49088973424E+03  0.50010574996E+03  0.90775505252E+02 0.  0.
        -24    2    1    2    0    0  0.14993757933E+02  0.58906384638E+02  0.47229357480E+02  0.11046825205E+03  0.79232869279E+02 0.  0.
         13    1    4    4    0    0  0.23623619898E+02  0.13539332771E+01 -0.12764602509E+02  0.26885751424E+02  0.00000000000E+00 0. -1.
        -14    1    4    4    0    0 -0.86298619649E+01  0.57552451361E+02  0.59993959989E+02  0.83582500623E+02  0.00000000000E+00 0.  1.
        -13    1    3    3    0    0 -0.45986777536E+01 -0.32023779791E+02 -0.12240187471E+03  0.12660524966E+03  0.00000000000E+00 0. -1.
         13    1    3    3    0    0  0.20061231303E+02  0.57592257279E+02 -0.36848785953E+03  0.37350050029E+03  0.00000000000E+00 0.  1.
          2    1    1    2  501    0 -0.30456311483E+02 -0.84474862126E+02 -0.30005110209E+03  0.31320002092E+03  0.00000000000E+00 0. -1.
<scales pt_clust_5="13000.00000" pt_clust_6="13000.00000" pt_clust_7="13000.00000" pt_clust_8="13000.00000" pt_clust_9="89.79754"></scales>
<clustering>
<clus scale="   79.233">  5  6 -1 -1</clus>
<clus scale="   89.798">  1  9  2 -1</clus>
<clus scale="   89.798">  1  5  2 -1</clus>
<clus scale="   90.776">  7  8 -1 -1</clus>
<clus scale="   89.798">  1  5  2 -1</clus>
</clustering>
</event>
<event>
 9    1  0.7586638E-005  0.1014808E+03  0.7546771E-02  0.1280693E+00
         -2   -1    0    0    0  501 -0.00000000000E+00  0.00000000000E+00  0.11053871041E+03  0.11053871041E+03  0.00000000000E+00 0.  1.
         21   -1    0    0  501  502  0.00000000000E+00 -0.00000000000E+00 -0.17779606578E+03  0.17779606578E+03  0.00000000000E+00 0. -1.
         23    2    1    2    0    0  0.42227981811E+02 -0.30069567054E+02  0.56521350140E+02  0.11885316262E+03  0.90796640532E+02 0.  0.
        -24    2    1    2    0    0 -0.20764479677E+02  0.12087383079E+02 -0.83872540102E+02  0.12073181458E+03  0.83452379371E+02 0.  0.
         13    1    4    4    0    0 -0.30051732270E+02  0.46533483185E+01 -0.97798030808E+02  0.10241686918E+03  0.00000000000E+00 0. -1.
        -14    1    4    4    0    0  0.92872525928E+01  0.74340347610E+01  0.13925490706E+02  0.18314945399E+02  0.00000000000E+00 0.  1.
        -13    1    3    3    0    0  0.21300485165E+02 -0.45203948150E+02 -0.68337905606E+01  0.50436180368E+02  0.00000000000E+00 0. -1.
         13    1    3    3    0    0  0.20927496645E+02  0.15134381097E+02  0.63355140701E+02  0.68416982250E+02  0.00000000000E+00 0.  1.
         -1    1    1    2    0  502 -0.21463502133E+02  0.17982183974E+02 -0.39906165402E+02  0.48749798989E+02  0.00000000000E+00 0.  1.
<scales pt_clust_5="13000.00000" pt_clust_6="13000.00000" pt_clust_7="13000.00000" pt_clust_8="13000.00000" pt_clust_9="28.00073"></scales>
<clustering>
<clus scale="   28.001">  2  9  1 -1</clus>
<clus scale="   83.452">  5  6 -1 -1</clus>
<clus scale="   90.797">  7  8 -1 -1</clus>
<clus scale="   94.966">  2  5  1 -1</clus>
<clus scale="   28.001">  2  5  1 -1</clus>
</clustering>
</event>
<event>
 9    1  0.7586638E-005  0.9421038E+02  0.7546771E-02  0.1300000E+00
          1   -1    0    0  502    0 -0.00000000000E+00  0.00000000000E+00  0.31174487289E+03  0.31174487289E+03  0.00000000000E+00 0. -1.
         21   -1    0    0  501  502  0.00000000000E+00 -0.00000000000E+00 -0.13520232576E+03  0.13520232576E+03  0.00000000000E+00 0. -1.
         23    2    1    2    0    0 -0.84504958894E+01 -0.10196004749E+02  0.16048087295E+03  0.18529537482E+03  0.91678219637E+02 0.  0.
        -24    2    1    2    0    0  0.42037591262E+02  0.85758534587E+02 -0.70499336343E+02  0.14194135046E+03  0.77817126729E+02 0.  0.
         13    1    4    4    0    0  0.57533994853E+02  0.81403149133E+02 -0.39909976061E+02  0.10737522732E+03  0.00000000000E+00 0. -1.
        -14    1    4    4    0    0 -0.15496403590E+02  0.43553854539E+01 -0.30589360282E+02  0.34566123143E+02  0.00000000000E+00 0.  1.
        -11    1    3    3    0    0  0.50365410426E+01 -0.27044534235E+02  0.16136731565E+03  0.16369540048E+03  0.00000000000E+00 0.  1.
         11    1    3    3    0    0 -0.13487036932E+02  0.16848529486E+02 -0.88644270353E+00  0.21599974345E+02  0.00000000000E+00 0. -1.
          2    1    1    2  501    0 -0.33587095373E+02 -0.75562529838E+02  0.86561010526E+02  0.11971047337E+03  0.00000000000E+00 0. -1.
<scales pt_clust_5="13000.00000" pt_clust_6="13000.00000" pt_clust_7="13000.00000" pt_clust_8="13000.00000" pt_clust_9="82.69097"></scales>
<clustering>
<clus scale="   77.817">  5  6 -1 -1</clus>
<clus scale="   82.691">  2  9  1 -1</clus>
<clus scale="   82.691">  2  5  1 -1</clus>
<clus scale="   91.678">  7  8 -1 -1</clus>
<clus scale="   82.691">  2  5  1 -1</clus>
</clustering>
</event>
<event>
 9    1  0.7586638E-005  0.1029504E+03  0.7546771E-02  0.1277583E+00
         21   -1    0    0  501  502  0.00000000000E+00  0.00000000000E+00  0.13898225991E+03  0.13898225991E+03  0.00000000000E+00 0.  1.
         -2   -1    0    0    0  501 -0.00000000000E+00 -0.00000000000E+00 -0.23241093939E+03  0.23241093939E+03  0.00000000000E+00 0.  1.
        -24    2    1    2    0    0  0.22416905096E+02 -0.27630481240E+02 -0.16203371285E+03  0.19243443470E+03  0.97519877117E+02 0.  0.
         23    2    1    2    0    0  0.32579786882E+02  0.41372941642E+02  0.62142287251E+02  0.12190389246E+03  0.90695823053E+02 0.  0.
         11    1    3    3    0    0 -0.63127469589E+01  0.20309736169E+02 -0.25077854475E+00  0.21269674358E+02  0.00000000000E+00 0. -1.
        -12    1    3    3    0    0  0.28729652055E+02 -0.47940217409E+02 -0.16178293430E+03  0.17116476035E+03  0.00000000000E+00 0.  1.
        -13    1    4    4    0    0  0.51732346836E+02 -0.66432739459E+01  0.22712451294E+02  0.56887821558E+02  0.00000000000E+00 0. -1.
         13    1    4    4    0    0 -0.19152559954E+02  0.48016215588E+02  0.39429835957E+02  0.65016070904E+02  0.00000000000E+00 0.  1.
         -1    1    1    2    0  502 -0.54996691978E+02 -0.13742460402E+02  0.64627461245E+01  0.57054872131E+02  0.00000000000E+00 0.  1.
<scales pt_clust_5="13000.00000" pt_clust_6="13000.00000" pt_clust_7="13000.00000" pt_clust_8="13000.00000" pt_clust_9="56.68766"></scales>
<clustering>
<clus scale="   56.688">  1  9  2 -1</clus>
<clus scale="   90.696">  7  8 -1 -1</clus>
<clus scale="   96.511">  1  7  2 -1</clus>
<clus scale="   97.520">  5  6 -1 -1</clus>
<clus scale="   56.688">  1  5  2 -1</clus>
</clustering>
</event>
<event>
 9    1  0.7586638E-005  0.9072788E+02  0.7546771E-02  0.1307736E+00
         21   -1    0    0  501  502  0.00000000000E+00  0.00000000000E+00  0.57431854827E+02  0.57431854827E+02  0.00000000000E+00 0.  1.
          1   -1    0    0  502    0 -0.00000000000E+00 -0.00000000000E+00 -0.36401422696E+03  0.36401422696E+03  0.00000000000E+00 0. -1.
        -24    2    1    2    0    0  0.91484467759E+01 -0.82105647298E+01 -0.21041496315E+03  0.22531625741E+03  0.79635743750E+02 0.  0.
         23    2    1    2    0    0 -0.18167264819E+02 -0.33886715258E+02 -0.83356452005E+01  0.98313983176E+02  0.90098819776E+02 0.  0.
         13    1    3    3    0    0 -0.14978453139E+02 -0.38041174204E+02 -0.12880540549E+03  0.13513814220E+03  0.00000000000E+00 0. -1.
        -14    1    3    3    0    0  0.24126899915E+02  0.29830609474E+02 -0.81609557662E+02  0.90178115210E+02  0.00000000000E+00 0.  1.
        -11    1    4    4    0    0  0.59461738838E+01  0.25380223246E+02  0.15156030025E+02  0.30153241318E+02  0.00000000000E+00 0.  1.
         11    1    4    4    0    0 -0.24113438703E+02 -0.59266938504E+02 -0.23491675226E+02  0.68160741858E+02  0.00000000000E+00 0. -1.
          2    1    1    2  501    0  0.90188180431E+01  0.42097279988E+02 -0.87831763786E+02  0.97815841208E+02  0.00000000000E+00 0. -1.
<scales pt_clust_5="13000.00000" pt_clust_6="13000.00000" pt_clust_7="13000.00000" pt_clust_8="13000.00000" pt_clust_9="43.05255"></scales>
<clustering>
<clus scale="   43.053">  1  9  2 -1</clus>
<clus scale="   79.636">  5  6 -1 -1</clus>
<clus scale="   80.347">  2  5  1 -1</clus>
<clus scale="   90.099">  7  8 -1 -1</clus>
<clus scale="   43.053">  1  5  2 -1</clus>
</clustering>
</event>
<event>
 9    1  0.7586638E-005  0.1050285E+03  0.7546771E-02  0.1274796E+00
          1   -1    0    0  502    0 -0.00000000000E+00  0.00000000000E+00  0.19709801670E+03  0.19709801670E+03  0.00000000000E+00 0. -1.
         21   -1    0    0  501  502  0.00000000000E+00 -0.00000000000E+00 -0.14159096014E+03  0.14159096014E+03  0.00000000000E+00 0.  1.
         23    2    1    2    0    0  0.52239749873E+02 -0.22844481425E+02  0.11527001162E+03  0.15730315673E+03  0.90588331138E+02 0.  0.
        -24    2    1    2    0    0 -0.44482008497E+01  0.68308297039E+02 -0.40532835622E+02  0.11267782798E+03  0.79797068990E+02 0.  0.
         11    1    4    4    0    0 -0.30120871120E+02  0.19935646515E+02  0.10714174827E+02  0.37676125348E+02  0.00000000000E+00 0. -1.
        -12    1    4    4    0    0  0.25672670271E+02  0.48372650524E+02 -0.51247010449E+02  0.75001702631E+02  0.00000000000E+00 0.  1.
        -11    1    3    3    0    0 -0.24152829844E+02 -0.11008921204E+02  0.14337226284E+02  0.30168055838E+02  0.00000000000E+00 0.  1.
         11    1    3    3    0    0  0.76392579717E+02 -0.11835560221E+02  0.10093278534E+03  0.12713510089E+03  0.00000000000E+00 0. -1.
          2    1    1    2  501    0 -0.47791549023E+02 -0.45463815615E+02 -0.19230119441E+02  0.68707992126E+02  0.00000000000E+00 0. -1.
<scales pt_clust_5="13000.00000" pt_clust_6="13000.00000" pt_clust_7="13000.00000" pt_clust_8="13000.00000" pt_clust_9="65.96204"></scales>
<clustering>
<clus scale="   65.962">  2  9  1 -1</clus>
<clus scale="   79.797">  5  6 -1 -1</clus>
<clus scale="   90.588">  7  8 -1 -1</clus>
<clus scale="   95.877">  2  5  1 -1</clus>
<clus scale="   65.962">  2  5  1 -1</clus>
</clustering>
</event>
<event>
 9    1  0.7586638E-005  0.9186887E+02  0.7546771E-02  0.1305443E+00
         21   -1    0    0  501  502  0.00000000000E+00  0.00000000000E+00  0.10872924574E+03  0.10872924574E+03  0.00000000000E+00 0.  1.
          1   -1    0    0  502    0 -0.00000000000E+00 -0.00000000000E+00 -0.15543485223E+03  0.15543485223E+03  0.00000000000E+00 0. -1.
        -24    2    1    2    0    0 -0.70759895956E+01 -0.17803075976E+02 -0.25531517460E+02  0.85637647731E+02  0.79466528691E+02 0.  0.
         23    2    1    2    0    0 -0.25696268845E+02  0.40214032099E+01  0.44074184410E+02  0.10422104926E+03  0.90791097923E+02 0.  0.
         13    1    3    3    0    0 -0.75003123074E+01 -0.49265097417E+02 -0.11268283501E+02  0.51090886871E+02  0.00000000000E+00 0. -1.
        -14    1    3    3    0    0  0.42432271180E+00  0.31462021441E+02 -0.14263233959E+02  0.34546760860E+02  0.00000000000E+00 0.  1.
        -13    1    4    4    0    0 -0.11746063265E+02  0.24323184010E+02  0.65956162066E+02  0.71272733897E+02  0.00000000000E+00 0.  1.
         13    1    4    4    0    0 -0.13950205580E+02 -0.20301780800E+02 -0.21881977657E+02  0.32948315367E+02  0.00000000000E+00 0. -1.
          2    1    1    2  501    0  0.32772258440E+02  0.13781672766E+02 -0.65248273443E+02  0.74305400980E+02  0.00000000000E+00 0. -1.
<scales pt_clust_5="13000.00000" pt_clust_6="13000.00000" pt_clust_7="13000.00000" pt_clust_8="13000.00000" pt_clust_9="35.55217"></scales>
<clustering>
<clus scale="   35.552">  1  9  2 -1</clus>
<clus scale="   79.467">  5  6 -1 -1</clus>
<clus scale="   80.696">  2  5  1 -1</clus>
<clus scale="   90.791">  7  8 -1 -1</clus>
<clus scale="   35.552">  1  5  2 -1</clus>
</clustering>
</event>
<event>
 9    1  0.7586638E-005  0.1365969E+03  0.7546771E-02  0.1235525E+00
         21   -1    0    0  501  502  0.00000000000E+00  0.00000000000E+00  0.37246825025E+03  0.37246825025E+03  0.00000000000E+00 0. -1.
          1   -1    0    0  502    0 -0.00000000000E+00 -0.00000000000E+00 -0.21793551803E+03  0.21793551803E+03  0.00000000000E+00 0. -1.
         23    2    1    2    0    0  0.27103499171E+02 -0.11412360868E+02 -0.16218063259E+03  0.18790572304E+03  0.90228385302E+02 0.  0.
        -24    2    1    2    0    0  0.41560108835E+02  0.10072153191E+03  0.17143619339E+03  0.21866041136E+03  0.80931683876E+02 0.  0.
         13    1    4    4    0    0  0.28706938557E+01  0.81390858619E+02  0.14931567163E+03  0.17008198771E+03  0.00000000000E+00 0. -1.
        -14    1    4    4    0    0  0.38689414979E+02  0.19330673292E+02  0.22120521767E+02  0.48578423653E+02  0.00000000000E+00 0.  1.
        -11    1    3    3    0    0 -0.20256894874E+02  0.21512739536E+02 -0.23655027092E+02  0.37851024543E+02  0.00000000000E+00 0. -1.
         11    1    3    3    0    0  0.47360394045E+02 -0.32925100405E+02 -0.13852560550E+03  0.15005469850E+03  0.00000000000E+00 0.  1.
          2    1    1    2  501    0 -0.68663608006E+02 -0.89309171043E+02  0.14527717142E+03  0.18383763388E+03  0.00000000000E+00 0. -1.
<scales pt_clust_5="13000.00000" pt_clust_6="13000.00000" pt_clust_7="13000.00000" pt_clust_8="13000.00000" pt_clust_9="110.03997"></scales>
<clustering>
<clus scale="   80.932">  5  6 -1 -1</clus>
<clus scale="   90.228">  7  8 -1 -1</clus>
<clus scale="   94.900">  2  7  1 -1</clus>
<clus scale="  110.040">  1  9  2 -1</clus>
<clus scale="  110.040">  1  5  2 -1</clus>
</clustering>
</event>
<event>
 9    1  0.7586638E-005  0.1069449E+03  0.7546771E-02  0.1268798E+00
         -2   -1    0    0    0  501 -0.00000000000E+00  0.00000000000E+00  0.13668681947E+03  0.13668681947E+03  0.00000000000E+00 0.  1.
         21   -1    0    0  501  502  0.00000000000E+00 -0.00000000000E+00 -0.25664170056E+03  0.25664170056E+03  0.00000000000E+00 0. -1.
         23    2    1    2    0    0 -0.41984193466E+02 -0.43595495732E+02  0.91275883034E+02  0.13982390220E+03  0.86926388700E+02 0.  0.
        -24    2    1    2    0    0  0.68701601407E+02  0.39062881021E+02 -0.17426464195E+03  0.20766949297E+03  0.80700893218E+02 0.  0.
         13    1    4    4    0    0  0.48827408343E+02 -0.12174902676E+02 -0.12138720152E+03  0.13140470598E+03  0.00000000000E+00 0. -1.
        -14    1    4    4    0    0  0.19874193064E+02  0.51237783697E+02 -0.52877440434E+02  0.76264786993E+02  0.00000000000E+00 0.  1.
        -13    1    3    3    0    0  0.15624655022E+02 -0.43570180810E+02  0.54383322314E+02  0.71414538060E+02  0.00000000000E+00 0. -1.
         13    1    3    3    0    0 -0.57608848488E+02 -0.25314921607E-01  0.36892560720E+02  0.68409364135E+02  0.00000000000E+00 0.  1.
         -1    1    1    2    0  502 -0.26717407941E+02  0.45326147109E+01 -0.36966122168E+02  0.45835124865E+02  0.00000000000E+00 0.  1.
<scales pt_clust_5="13000.00000" pt_clust_6="13000.00000" pt_clust_7="13000.00000" pt_clust_8="13000.00000" pt_clust_9="27.09916"></scales>
<clustering>
<clus scale="   27.099">  2  9  1 -1</clus>
<clus scale="   80.701">  5  6 -1 -1</clus>
<clus scale="   86.926">  7  8 -1 -1</clus>
<clus scale="  101.949">  2  5  1 -1</clus>
<clus scale="   27.099">  2  5  1 -1</clus>
</clustering>
</event>
<event>
 9    1  0.7586638E-005  0.1105999E+03  0.7546771E-02  0.1265494E+00
         21   -1    0    0  501  502  0.00000000000E+00  0.00000000000E+00  0.20640353684E+03  0.20640353684E+03  0.00000000000E+00 0. -1.
          1   -1    0    0  502    0 -0.00000000000E+00 -0.00000000000E+00 -0.25539025587E+03  0.25539025587E+03  0.00000000000E+00 0. -1.
        -24    2    1    2    0    0 -0.49769911961E+02  0.35820476687E+02 -0.20402253956E+03  0.22852957506E+03  0.82706827663E+02 0.  0.
         23    2    1    2    0    0 -0.16522860960E+02 -0.41387161507E+01  0.69777217527E+02  0.12071425062E+03  0.97020288139E+02 0.  0.
         13    1    3    3    0    0 -0.68016648382E+02  0.83412769646E+01 -0.11881186624E+03  0.13715721242E+03  0.00000000000E+00 0. -1.
        -14    1    3    3    0    0  0.18246736421E+02  0.27479199723E+02 -0.85210673321E+02  0.91372362644E+02  0.00000000000E+00 0.  1.
        -13    1    4    4    0    0  0.31672064396E+02  0.14330401560E+02  0.10683922480E+01  0.34779613769E+02  0.00000000000E+00 0.  1.
         13    1    4    4    0    0 -0.48194925356E+02 -0.18469117710E+02  0.68708825279E+02  0.85934636848E+02  0.00000000000E+00 0. -1.
          2    1    1    2  501    0  0.66292772921E+02 -0.31681760537E+02  0.85258603003E+02  0.11254996703E+03  0.00000000000E+00 0. -1.
<scales pt_clust_5="13000.00000" pt_clust_6="13000.00000" pt_clust_7="13000.00000" pt_clust_8="13000.00000" pt_clust_9="73.47425"></scales>
<clustering>
<clus scale="   73.474">  1  9  2 -1</clus>
<clus scale="   82.707">  5  6 -1 -1</clus>
<clus scale="   97.020">  7  8 -1 -1</clus>
<clus scale="   98.284">  2  5  1 -1</clus>
<clus scale="   73.474">  1  5  2 -1</clus>
</clustering>
</event>
<event>
 9    1  0.7586638E-005  0.9084212E+02  0.7546771E-02  0.1307166E+00
         21   -1    0    0  501  502  0.00000000000E+00  0.00000000000E+00  0.94349447437E+02  0.94349447437E+02  0.00000000000E+00 0. -1.
         -2   -1    0    0    0  501 -0.00000000000E+00 -0.00000000000E+00 -0.20151053329E+03  0.20151053329E+03  0.00000000000E+00 0.  1.
        -24    2    1    2    0    0  0.10518229271E+02  0.98619890705E+01 -0.10660948738E+03  0.13454029551E+03  0.80793665225E+02 0.  0.
         23    2    1    2    0    0  0.33856527017E+02  0.25791140836E+02  0.17153551968E+02  0.10170645666E+03  0.90766247103E+02 0.  0.
         13    1    3    3    0    0 -0.31269972785E+02 -0.89235129719E+01 -0.25262038803E+02  0.41177796034E+02  0.00000000000E+00 0. -1.
        -14    1    3    3    0    0  0.41788202056E+02  0.18785502042E+02 -0.81347448580E+02  0.93362499476E+02  0.00000000000E+00 0.  1.
        -11    1    4    4    0    0  0.26030322762E+02  0.56717462382E+02  0.27462514848E+02  0.68180920820E+02  0.00000000000E+00 0. -1.
         11    1    4    4    0    0  0.78262042546E+01 -0.30926321546E+02 -0.10308962880E+02  0.33525535836E+02  0.00000000000E+00 0.  1.
         -1    1    1    2    0  502 -0.44374756288E+02 -0.35653129906E+02 -0.17705150444E+02  0.59613228565E+02  0.00000000000E+00 0.  1.
<scales pt_clust_5="13000.00000" pt_clust_6="13000.00000" pt_clust_7="13000.00000" pt_clust_8="13000.00000" pt_clust_9="56.92332"></scales>
<clustering>
<clus scale="   56.923">  1  9  2 -1</clus>
<clus scale="   80.794">  5  6 -1 -1</clus>
<clus scale="   80.879">  2  5  1 -1</clus>
<clus scale="   90.766">  7  8 -1 -1</clus>
<clus scale="   56.923">  1  5  2 -1</clus>
</clustering>
</event>
<event>
 9    1  0.7586638E-005  0.1744474E+03  0.7546771E-02  0.1175981E+00
         21   -1    0    0  501  502  0.00000000000E+00  0.00000000000E+00  0.11948676408E+03  0.11948676408E+03  0.00000000000E+00 0. -1.
          1   -1    0    0  502    0 -0.00000000000E+00 -0.00000000000E+00 -0.41576376242E+03  0.41576376242E+03  0.00000000000E+00 0. -1.
         23    2    1    2    0    0  0.65007378270E+02  0.13708712557E+03 -0.23163528626E+03  0.29155018371E+03  0.91256586352E+02 0.  0.
        -24    2    1    2    0    0 -0.94333398387E+02 -0.10887895187E+03  0.83256174969E+01  0.16015426147E+03  0.69474134376E+02 0.  0.
         11    1    4    4    0    0 -0.96186751400E+02 -0.10508882975E+03 -0.85892629415E+01  0.14272115723E+03  0.00000000000E+00 0. -1.
        -12    1    4    4    0    0  0.18533530128E+01 -0.37901221215E+01  0.16914880438E+02  0.17433104237E+02  0.00000000000E+00 0.  1.
        -11    1    3    3    0    0 -0.33835083217E+01  0.98386706041E+02 -0.13116754881E+03  0.16400096925E+03  0.00000000000E+00 0. -1.
         11    1    3    3    0    0  0.68390886591E+02  0.38700419531E+02 -0.10046773745E+03  0.12754921446E+03  0.00000000000E+00 0.  1.
          2    1    1    2  501    0  0.29326020117E+02 -0.28208173700E+02 -0.72967329583E+02  0.83546081332E+02  0.00000000000E+00 0. -1.
<scales pt_clust_5="13000.00000" pt_clust_6="13000.00000" pt_clust_7="13000.00000" pt_clust_8="13000.00000" pt_clust_9="40.69052"></scales>
<clustering>
<clus scale="   40.691">  1  9  2 -1</clus>
<clus scale="   69.474">  5  6 -1 -1</clus>
<clus scale="   91.257">  7  8 -1 -1</clus>
<clus scale="  164.106">  1  5  2 -1</clus>
<clus scale="   40.691">  1  5  2 -1</clus>
</clustering>
</event>
<event>
 9    1  0.7586638E-005  0.1288731E+03  0.7546771E-02  0.1250770E+00
         21   -1    0    0  501  502  0.00000000000E+00  0.00000000000E+00  0.55960084853E+03  0.55960084853E+03  0.00000000000E+00 0. -1.
          3   -1    0    0  502    0 -0.00000000000E+00 -0.00000000000E+00 -0.64548836392E+02  0.64548836392E+02  0.00000000000E+00 0. -1.
        -24    2    1    2    0    0 -0.19154807831E+02  0.18220640198E+01  0.15988418390E+02  0.84572697834E+02  0.80787902039E+02 0.  0.
         23    2    1    2    0    0  0.36737445275E+02 -0.89984195039E+02  0.16063857721E+03  0.20870510608E+03  0.91138759996E+02 0.  0.
         13    1    3    3    0    0  0.66402114867E+01 -0.29614756107E+02 -0.14608010151E+02  0.33682638679E+02  0.00000000000E+00 0. -1.
        -14    1    3    3    0    0 -0.25795019318E+02  0.31436820126E+02  0.30596428541E+02  0.50890059154E+02  0.00000000000E+00 0.  1.
        -11    1    4    4    0    0  0.56932728486E+02 -0.96316709698E+02  0.13901748579E+03  0.17844916782E+03  0.00000000000E+00 0. -1.
         11    1    4    4    0    0 -0.20195283211E+02  0.63325146589E+01  0.21621091420E+02  0.30255938261E+02  0.00000000000E+00 0.  1.
          4    1    1    2  501    0 -0.17582637444E+02  0.88162131019E+02  0.31842501654E+03  0.33087188101E+03  0.00000000000E+00 0. -1.
<scales pt_clust_5="13000.00000" pt_clust_6="13000.00000" pt_clust_7="13000.00000" pt_clust_8="13000.00000" pt_clust_9="91.11533"></scales>
<clustering>
<clus scale="   80.788">  5  6 -1 -1</clus>
<clus scale="   83.048">  2  5  1 -1</clus>
<clus scale="   91.115">  1  9  2 -1</clus>
<clus scale="   91.139">  7  8 -1 -1</clus>
<clus scale="   91.115">  1  5  2 -1</clus>
</clustering>
</event>
<event>
 9    1  0.7586638E-005  0.1133433E+03  0.7546771E-02  0.1258368E+00
         21   -1    0    0  501  502  0.00000000000E+00  0.00000000000E+00  0.47946985023E+02  0.47946985023E+02  0.00000000000E+00 0. -1.
          1   -1    0    0  502    0 -0.00000000000E+00 -0.00000000000E+00 -0.59108295753E+03  0.59108295753E+03  0.00000000000E+00 0. -1.
         23    2    1    2    0    0  0.28612612990E+02  0.70056395737E+02 -0.37800595489E+03  0.39603533865E+03  0.90713324980E+02 0.  0.
        -24    2    1    2    0    0  0.36848308466E+02 -0.56082112736E+02 -0.66597903001E+02  0.12387705509E+03  0.80045255243E+02 0.  0.
         11    1    4    4    0    0  0.57775962362E+02 -0.56403866793E+02 -0.40225195311E+02  0.90208227750E+02  0.00000000000E+00 0. -1.
        -12    1    4    4    0    0 -0.20927653896E+02  0.32175405637E+00 -0.26372707690E+02  0.33668827336E+02  0.00000000000E+00 0.  1.
        -11    1    3    3    0    0 -0.29659227557E+02  0.42507409725E+02 -0.20378727496E+03  0.21027554089E+03  0.00000000000E+00 0.  1.
         11    1    3    3    0    0  0.58271840546E+02  0.27548986012E+02 -0.17421867993E+03  0.18575979777E+03  0.00000000000E+00 0. -1.
          2    1    1    2  501    0 -0.65460921456E+02 -0.13974283001E+02 -0.98532114621E+02  0.11911754881E+03  0.00000000000E+00 0. -1.
<scales pt_clust_5="13000.00000" pt_clust_6="13000.00000" pt_clust_7="13000.00000" pt_clust_8="13000.00000" pt_clust_9="66.93589"></scales>
<clustering>
<clus scale="   66.936">  1  9  2 -1</clus>
<clus scale="   80.045">  5  6 -1 -1</clus>
<clus scale="   90.713">  7  8 -1 -1</clus>
<clus scale="  105.000">  1  5  2 -1</clus>
<clus scale="   66.936">  1  5  2 -1</clus>
</clustering>
</event>
<event>
 9    1  0.7586638E-005  0.1480213E+03  0.7546771E-02  0.1206106E+00
          1   -1    0    0  502    0 -0.00000000000E+00  0.00000000000E+00  0.16909750335E+04  0.16909750335E+04  0.00000000000E+00 0. -1.
         21   -1    0    0  501  502  0.00000000000E+00 -0.00000000000E+00 -0.18697823419E+02  0.18697823419E+02  0.00000000000E+00 0. -1.
        -24    2    1    2    0    0 -0.34854086763E+02  0.90964114701E+02  0.67214125754E+03  0.68375743351E+03  0.79126988243E+02 0.  0.
         23    2    1    2    0    0  0.71878632817E+02 -0.12519049215E+03  0.67038279913E+03  0.69232974610E+03  0.95227006540E+02 0.  0.
         13    1    3    3    0    0 -0.55622070506E+02  0.51050123187E+02  0.32174204936E+03  0.33048127955E+03  0.00000000000E+00 0. -1.
        -14    1    3    3    0    0  0.20767983743E+02  0.39913991514E+02  0.35039920817E+03  0.35327615396E+03  0.00000000000E+00 0.  1.
        -11    1    4    4    0    0  0.42401053254E+02  0.18492341678E+01  0.17389939252E+03  0.17900354103E+03  0.00000000000E+00 0.  1.
         11    1    4    4    0    0  0.29477579563E+02 -0.12703972632E+03  0.49648340661E+03  0.51332620506E+03  0.00000000000E+00 0. -1.
          2    1    1    2  501    0 -0.37024546054E+02  0.34226377453E+02  0.32975315338E+03  0.33358567729E+03  0.00000000000E+00 0. -1.
<scales pt_clust_5="13000.00000" pt_clust_6="13000.00000" pt_clust_7="13000.00000" pt_clust_8="13000.00000" pt_clust_9="50.42087"></scales>
<clustering>
<clus scale="   50.421">  2  9  1 -1</clus>
<clus scale="   79.127">  5  6 -1 -1</clus>
<clus scale="   95.227">  7  8 -1 -1</clus>
<clus scale="  138.214">  1  5  2 -1</clus>
<clus scale="   50.421">  2  5  1 -1</clus>
</clustering>
</event>
<event>
 9    1  0.7586638E-005  0.1076693E+03  0.7546771E-02  0.1269904E+00
          1   -1    0    0  502    0 -0.00000000000E+00  0.00000000000E+00  0.39857256087E+03  0.39857256087E+03  0.00000000000E+00 0. -1.
         21   -1    0    0  501  502  0.00000000000E+00 -0.00000000000E+00 -0.16484611604E+03  0.16484611604E+03  0.00000000000E+00 0.  1.
         23    2    1    2    0    0 -0.49432707533E+02  0.33214624590E+02  0.32271777493E+03  0.34083790825E+03  0.92070155753E+02 0.  0.
        -24    2    1    2    0    0 -0.43525852758E+01 -0.39260675011E+01 -0.12709850498E+03  0.15045009505E+03  0.80292229551E+02 0.  0.
         11    1    4    4    0    0  0.19052278854E+02 -0.10667752226E+02 -0.82720903148E+00  0.21851190857E+02  0.00000000000E+00 0. -1.
        -12    1    4    4    0    0 -0.23404864130E+02  0.67416847246E+01 -0.12627129595E+03  0.12859890419E+03  0.00000000000E+00 0.  1.
        -11    1    3    3    0    0 -0.48579318348E+02 -0.15755971751E+02  0.23390314093E+03  0.23941361731E+03  0.00000000000E+00 0. -1.
         11    1    3    3    0    0 -0.85338918526E+00  0.48970596341E+02  0.88814634009E+02  0.10142429094E+03  0.00000000000E+00 0.  1.
          2    1    1    2  501    0  0.53785292809E+02 -0.29288557089E+02  0.38107174877E+02  0.72130673614E+02  0.00000000000E+00 0. -1.
<scales pt_clust_5="13000.00000" pt_clust_6="13000.00000" pt_clust_7="13000.00000" pt_clust_8="13000.00000" pt_clust_9="61.24280"></scales>
<clustering>
<clus scale="   61.243">  2  9  1 -1</clus>
<clus scale="   80.292">  5  6 -1 -1</clus>
<clus scale="   92.070">  7  8 -1 -1</clus>
<clus scale="   97.789">  2  5  1 -1</clus>
<clus scale="   61.243">  2  5  1 -1</clus>
</clustering>
</event>
<event>
 9    1  0.7586638E-005  0.1154294E+03  0.7546771E-02  0.1255080E+00
          1   -1    0    0  502    0 -0.00000000000E+00  0.00000000000E+00  0.38015278266E+03  0.38015278266E+03  0.00000000000E+00 0. -1.
         21   -1    0    0  501  502  0.00000000000E+00 -0.00000000000E+00 -0.11165456164E+03  0.11165456164E+03  0.00000000000E+00 0. -1.
        -24    2    1    2    0    0 -0.38689484854E+02  0.68091557656E+02  0.23705536402E+03  0.26236419510E+03  0.80662189390E+02 0.  0.
         23    2    1    2    0    0  0.77237365633E+02  0.26066096358E+02  0.14955438563E+01  0.12338446504E+03  0.92609057510E+02 0.  0.
         13    1    3    3    0    0 -0.62116018213E+02  0.61698681546E+02  0.17375712460E+03  0.19456789399E+03  0.00000000000E+00 0. -1.
        -14    1    3    3    0    0  0.23426533359E+02  0.63928761103E+01  0.63298239422E+02  0.67796301109E+02  0.00000000000E+00 0.  1.
        -13    1    4    4    0    0  0.54374249755E+01 -0.21014586069E+02 -0.25399553293E+02  0.33411311341E+02  0.00000000000E+00 0.  1.
         13    1    4    4    0    0  0.71799940657E+02  0.47080682427E+02  0.26895097149E+02  0.89973153701E+02  0.00000000000E+00 0. -1.
          2    1    1    2  501    0 -0.38547880779E+02 -0.94157654014E+02  0.29947313143E+02  0.10605868416E+03  0.00000000000E+00 0. -1.
<scales pt_clust_5="13000.00000" pt_clust_6="13000.00000" pt_clust_7="13000.00000" pt_clust_8="13000.00000" pt_clust_9="101.74283"></scales>
<clustering>
<clus scale="   80.662">  5  6 -1 -1</clus>
<clus scale="   92.609">  7  8 -1 -1</clus>
<clus scale="  101.743">  2  9  1 -1</clus>
<clus scale="  106.084">  1  5  2 -1</clus>
<clus scale="  101.743">  2  5  1 -1</clus>
</clustering>
</event>
<event>
 9    1  0.7586638E-005  0.3332107E+03  0.7546771E-02  0.1095870E+00
          1   -1    0    0  502    0 -0.00000000000E+00  0.00000000000E+00  0.15029512766E+04  0.15029512766E+04  0.00000000000E+00 0. -1.
         21   -1    0    0  501  502  0.00000000000E+00 -0.00000000000E+00 -0.15582823480E+03  0.15582823480E+03  0.00000000000E+00 0. -1.
         23    2    1    2    0    0  0.58915418476E+02  0.12519263311E+03  0.69408350276E+03  0.71350872454E+03  0.90545951171E+02 0.  0.
        -24    2    1    2    0    0 -0.27529774935E+03  0.14204543150E+03  0.42843787027E+03  0.53455993245E+03  0.78927544578E+02 0.  0.
         13    1    4    4    0    0 -0.11275862387E+03  0.59558543223E+02  0.11368223210E+03  0.17083728288E+03  0.00000000000E+00 0. -1.
        -14    1    4    4    0    0 -0.16253912549E+03  0.82486888278E+02  0.31475563817E+03  0.36372264957E+03  0.00000000000E+00 0.  1.
        -11    1    3    3    0    0  0.54949354649E+02  0.17624526749E+02  0.24574154242E+03  0.25242614997E+03  0.00000000000E+00 0.  1.
         11    1    3    3    0    0  0.39660638269E+01  0.10756810636E+03  0.44834196034E+03  0.46108257456E+03  0.00000000000E+00 0. -1.
          2    1    1    2  501    0  0.21638233087E+03 -0.26723806461E+03  0.22460166873E+03  0.41071085436E+03  0.00000000000E+00 0. -1.
<scales pt_clust_5="13000.00000" pt_clust_6="13000.00000" pt_clust_7="13000.00000" pt_clust_8="13000.00000" pt_clust_9="323.72800"></scales>
<clustering>
<clus scale="   78.928">  5  6 -1 -1</clus>
<clus scale="   90.546">  7  8 -1 -1</clus>
<clus scale="  165.357">  1  7  2 -1</clus>
<clus scale="  323.728">  2  9  1 -1</clus>
<clus scale="  323.728">  2  5  1 -1</clus>
</clustering>
</event>
<event>
 9    1  0.7586638E-005  0.2961368E+03  0.7546771E-02  0.1137123E+00
         21   -1    0    0  501  502  0.00000000000E+00  0.00000000000E+00  0.55475730810E+03  0.55475730810E+03  0.00000000000E+00 0.  1.
          1   -1    0    0  502    0 -0.00000000000E+00 -0.00000000000E+00 -0.37997527569E+03  0.37997527569E+03  0.00000000000E+00 0. -1.
        -24    2    1    2    0    0  0.12451245121E+01 -0.25156421867E+02  0.96539648705E+02  0.12755470940E+03  0.79472663361E+02 0.  0.
         23    2    1    2    0    0 -0.20514672086E+03 -0.18954065179E+03  0.31308470968E+03  0.42926040656E+03  0.90728305619E+02 0.  0.
         11    1    3    3    0    0 -0.13629651934E+02  0.26103034983E+02  0.41495718305E+02  0.50882516495E+02  0.00000000000E+00 0. -1.
        -12    1    3    3    0    0  0.14874776446E+02 -0.51259456850E+02  0.55043930400E+02  0.76672192904E+02  0.00000000000E+00 0.  1.
        -13    1    4    4    0    0 -0.26824430662E+02 -0.45595920527E+02  0.18522313703E+02  0.56050103960E+02  0.00000000000E+00 0. -1.
         13    1    4    4    0    0 -0.17832229020E+03 -0.14394473126E+03  0.29456239598E+03  0.37321030260E+03  0.00000000000E+00 0.  1.
          2    1    1    2  501    0  0.20390159635E+03  0.21469707366E+03 -0.23484232597E+03  0.37791746784E+03  0.00000000000E+00 0. -1.
<scales pt_clust_5="13000.00000" pt_clust_6="13000.00000" pt_clust_7="13000.00000" pt_clust_8="13000.00000" pt_clust_9="281.89623"></scales>
<clustering>
<clus scale="   79.473">  5  6 -1 -1</clus>
<clus scale="   83.369">  2  5  1 -1</clus>
<clus scale="   90.728">  7  8 -1 -1</clus>
<clus scale="  281.896">  1  9  2 -1</clus>
<clus scale="  281.896">  1  5  2 -1</clus>
</clustering>
</event>
<event>
 9    1  0.7586638E-005  0.9344677E+02  0.7546771E-02  0.1301368E+00
         -2   -1    0    0    0  501 -0.00000000000E+00  0.00000000000E+00  0.57183911316E+03  0.57183911316E+03  0.00000000000E+00 0.  1.
         21   -1    0    0  501  502  0.00000000000E+00 -0.00000000000E+00 -0.29513587247E+02  0.29513587247E+02  0.00000000000E+00 0. -1.
        -24    2    1    2    0    0  0.19678627492E+02 -0.96607560248E+01  0.38442020269E+03  0.39297061128E+03  0.78526622905E+02 0.  0.
         23    2    1    2    0    0 -0.35451035791E+02  0.30801220753E+02  0.90104314539E+02  0.13563138542E+03  0.89842050692E+02 0.  0.
         11    1    3    3    0    0 -0.15715295773E+02 -0.34545880920E+02  0.16264385320E+03  0.16701320724E+03  0.00000000000E+00 0. -1.
        -12    1    3    3    0    0  0.35393923264E+02  0.24885124895E+02  0.22177634949E+03  0.22595740404E+03  0.00000000000E+00 0.  1.
        -11    1    4    4    0    0 -0.40703188549E+02 -0.19931759466E+02  0.21547603000E+02  0.50182903349E+02  0.00000000000E+00 0.  1.
         11    1    4    4    0    0  0.52521527575E+01  0.50732980219E+02  0.68556711539E+02  0.85448482066E+02  0.00000000000E+00 0. -1.
         -1    1    1    2    0  502  0.15772408300E+02 -0.21140464728E+02  0.67801008683E+02  0.72750703714E+02  0.00000000000E+00 0.  1.
<scales pt_clust_5="13000.00000" pt_clust_6="13000.00000" pt_clust_7="13000.00000" pt_clust_8="13000.00000" pt_clust_9="26.37591"></scales>
<clustering>
<clus scale="   26.376">  2  9  1 -1</clus>
<clus scale="   78.527">  5  6 -1 -1</clus>
<clus scale="   82.626">  1  5  2 -1</clus>
<clus scale="   89.842">  7  8 -1 -1</clus>
<clus scale="   26.376">  2  5  1 -1</clus>
</clustering>
</event>
<event>
 9    1  0.7586638E-005  0.1647635E+03  0.7546771E-02  0.1184602E+00
         21   -1    0    0  501  502  0.00000000000E+00  0.00000000000E+00  0.16606696020E+02  0.16606696020E+02  0.00000000000E+00 0. -1.
         -4   -1    0    0    0  501 -0.00000000000E+00 -0.00000000000E+00 -0.18260633267E+04  0.18260633267E+04  0.00000000000E+00 0.  1.
        -24    2    1    2    0    0  0.13781260312E+03 -0.11836866925E+02 -0.88851227572E+03  0.90310479833E+03  0.83736417788E+02 0.  0.
         23    2    1    2    0    0 -0.13585023394E+03 -0.10002753888E+02 -0.81027372387E+03  0.82674320298E+03  0.91681377213E+02 0.  0.
         13    1    3    3    0    0  0.32616902910E+02 -0.40634643954E+02 -0.25440988143E+03  0.25969101719E+03  0.00000000000E+00 0. -1.
        -14    1    3    3    0    0  0.10519570021E+03  0.28797777030E+02 -0.63410239430E+03  0.64341378114E+03  0.00000000000E+00 0.  1.
        -11    1    4    4    0    0 -0.12430487277E+03 -0.40767162247E+02 -0.61972485982E+03  0.63338184754E+03  0.00000000000E+00 0.  1.
         11    1    4    4    0    0 -0.11545361167E+02  0.30764408359E+02 -0.19054886406E+03  0.19336135545E+03  0.00000000000E+00 0. -1.
         -3    1    1    2    0  502 -0.19623691795E+01  0.21839620812E+02 -0.11067063109E+03  0.11282202142E+03  0.00000000000E+00 0.  1.
<scales pt_clust_5="13000.00000" pt_clust_6="13000.00000" pt_clust_7="13000.00000" pt_clust_8="13000.00000" pt_clust_9="21.92761"></scales>
<clustering>
<clus scale="   21.928">  1  9  2 -1</clus>
<clus scale="   83.736">  5  6 -1 -1</clus>
<clus scale="   91.681">  7  8 -1 -1</clus>
<clus scale="  160.478">  2  5  1 -1</clus>
<clus scale="   21.928">  1  5  2 -1</clus>
</clustering>
</event>
<event>
 9    1  0.7586638E-005  0.1430733E+03  0.7546771E-02  0.1226373E+00
          3   -1    0    0  502    0 -0.00000000000E+00  0.00000000000E+00  0.84502210631E+03  0.84502210631E+03  0.00000000000E+00 0. -1.
         21   -1    0    0  501  502  0.00000000000E+00 -0.00000000000E+00 -0.59393760832E+02  0.59393760832E+02  0.00000000000E+00 0. -1.
         23    2    1    2    0    0 -0.97374875005E+01  0.36424032148E+02  0.70276133188E+02  0.12200896001E+03  0.92335922832E+02 0.  0.
        -24    2    1    2    0    0 -0.10950013543E+03 -0.92016338379E+01  0.59709758396E+03  0.61228099256E+03  0.79294005737E+02 0.  0.
         13    1    4    4    0    0 -0.11258412640E+03 -0.24960134513E+02  0.45948757405E+03  0.47373729486E+03  0.00000000000E+00 0. -1.
        -14    1    4    4    0    0  0.30839909689E+01  0.15758500675E+02  0.13761000991E+03  0.13854369769E+03  0.00000000000E+00 0.  1.
        -13    1    3    3    0    0 -0.13284017968E+00 -0.31269923739E+02  0.19611249308E+02  0.36911067128E+02  0.00000000000E+00 0.  1.
         13    1    3    3    0    0 -0.96046473208E+01  0.67693955886E+02  0.50664883880E+02  0.85097892878E+02  0.00000000000E+00 0. -1.
          4    1    1    2  501    0  0.11923762293E+03 -0.27222398310E+02  0.11825462833E+03  0.17012591458E+03  0.00000000000E+00 0. -1.
<scales pt_clust_5="13000.00000" pt_clust_6="13000.00000" pt_clust_7="13000.00000" pt_clust_8="13000.00000" pt_clust_9="119.09001"></scales>
<clustering>
<clus scale="   79.294">  5  6 -1 -1</clus>
<clus scale="   92.336">  7  8 -1 -1</clus>
<clus scale="   99.737">  1  7  2 -1</clus>
<clus scale="  119.090">  2  9  1 -1</clus>
<clus scale="  119.090">  2  5  1 -1</clus>
</clustering>
</event>
<event>
 9    1  0.7586638E-005  0.1362926E+03  0.7546771E-02  0.1220723E+00
          3   -1    0    0  502    0 -0.00000000000E+00  0.00000000000E+00  0.89810873699E+03  0.89810873699E+03  0.00000000000E+00 0. -1.
         21   -1    0    0  501  502  0.00000000000E+00 -0.00000000000E+00 -0.89328773161E+02  0.89328773161E+02  0.00000000000E+00 0. -1.
        -24    2    1    2    0    0  0.86641370445E+02 -0.46538099567E+02  0.65961272299E+02  0.14385866634E+03  0.81681727789E+02 0.  0.
         23    2    1    2    0    0 -0.11780548831E+03 -0.45902895134E+02  0.83467615921E+02  0.17705023928E+03  0.91622789006E+02 0.  0.
         13    1    3    3    0    0  0.85978650401E+02 -0.70456447992E+01  0.32821590462E+02  0.92299654582E+02  0.00000000000E+00 0. -1.
        -14    1    3    3    0    0  0.66272004333E+00 -0.39492454768E+02  0.33139681837E+02  0.51559011760E+02  0.00000000000E+00 0.  1.
        -11    1    4    4    0    0 -0.15940256879E+02 -0.32952887470E+02 -0.10264930038E+02  0.38017803338E+02  0.00000000000E+00 0.  1.
         11    1    4    4    0    0 -0.10186523143E+03 -0.12950007664E+02  0.93732545959E+02  0.13903243594E+03  0.00000000000E+00 0. -1.
          4    1    1    2  501    0  0.31164117865E+02  0.92440994701E+02  0.65935107561E+03  0.66652860453E+03  0.00000000000E+00 0. -1.
<scales pt_clust_5="13000.00000" pt_clust_6="13000.00000" pt_clust_7="13000.00000" pt_clust_8="13000.00000" pt_clust_9="97.55280"></scales>
<clustering>
<clus scale="   81.682">  5  6 -1 -1</clus>
<clus scale="   91.623">  7  8 -1 -1</clus>
<clus scale="   97.553">  2  9  1 -1</clus>
<clus scale="  129.818">  1  5  2 -1</clus>
<clus scale="   97.553">  2  5  1 -1</clus>
</clustering>
</event>
<event>
 9    1  0.7586638E-005  0.1042097E+03  0.7546771E-02  0.1279496E+00
          1   -1    0    0  502    0 -0.00000000000E+00  0.00000000000E+00  0.27248284917E+03  0.27248284917E+03  0.00000000000E+00 0. -1.
         21   -1    0    0  501  502  0.00000000000E+00 -0.00000000000E+00 -0.89246859062E+02  0.89246859062E+02  0.00000000000E+00 0.  1.
        -24    2    1    2    0    0  0.52696104678E+02  0.12440853237E+02  0.16820881540E+03  0.19048395047E+03  0.71121554615E+02 0.  0.
         23    2    1    2    0    0 -0.62179860076E+02  0.13206590767E+02 -0.34685425059E+02  0.11450885993E+03  0.88704291053E+02 0.  0.
         11    1    3    3    0    0  0.46753283772E+02  0.17826160955E+01  0.17156297981E+03  0.17782829726E+03  0.00000000000E+00 0. -1.
        -12    1    3    3    0    0  0.59428209064E+01  0.10658237141E+02 -0.33541644135E+01  0.12655653211E+02  0.00000000000E+00 0.  1.
        -13    1    4    4    0    0 -0.31019684265E+02 -0.31485465218E+02  0.84726398112E+01  0.45003788255E+02  0.00000000000E+00 0. -1.
         13    1    4    4    0    0 -0.31160175811E+02  0.44692055985E+02 -0.43158064870E+02  0.69505071672E+02  0.00000000000E+00 0.  1.
          2    1    1    2  501    0  0.94837553981E+01 -0.25647444004E+02  0.49712599770E+02  0.56736897838E+02  0.00000000000E+00 0. -1.
<scales pt_clust_5="13000.00000" pt_clust_6="13000.00000" pt_clust_7="13000.00000" pt_clust_8="13000.00000" pt_clust_9="27.34472"></scales>
<clustering>
<clus scale="   27.345">  2  9  1 -1</clus>
<clus scale="   71.122">  5  6 -1 -1</clus>
<clus scale="   88.704">  7  8 -1 -1</clus>
<clus scale="   89.719">  1  5  2 -1</clus>
<clus scale="   27.345">  2  5  1 -1</clus>
</clustering>
</event>
<event>
 9    1  0.7586638E-005  0.1051351E+03  0.7546771E-02  0.1273666E+00
         21   -1    0    0  501  502  0.00000000000E+00  0.00000000000E+00  0.54368612593E+02  0.54368612593E+02  0.00000000000E+00 0. -1.
         -2   -1    0    0    0  501 -0.00000000000E+00 -0.00000000000E+00 -0.43036308974E+03  0.43036308974E+03  0.00000000000E+00 0.  1.
         23    2    1    2    0    0  0.31081203806E+02  0.47609620486E+02 -0.32962213632E+03  0.34647976171E+03  0.90359035678E+02 0.  0.
        -24    2    1    2    0    0 -0.23532352094E+01 -0.48756799160E+02 -0.52875409292E+02  0.10877479527E+03  0.81568278135E+02 0.  0.
         13    1    4    4    0    0 -0.12986509177E+02 -0.40755128381E+02  0.10477985437E+02  0.44038824789E+02  0.00000000000E+00 0. -1.
        -14    1    4    4    0    0  0.10633273968E+02 -0.80016707789E+01 -0.63353394728E+02  0.64735970481E+02  0.00000000000E+00 0.  1.
        -11    1    3    3    0    0  0.58122796035E+02  0.14327135766E+02 -0.23649155432E+03  0.24395036689E+03  0.00000000000E+00 0.  1.
         11    1    3    3    0    0 -0.27041592229E+02  0.33282484720E+02 -0.93130581996E+02  0.10252939482E+03  0.00000000000E+00 0. -1.
         -1    1    1    2    0  502 -0.28727968597E+02  0.11471786738E+01  0.65030684669E+01  0.29477145352E+02  0.00000000000E+00 0.  1.
<scales pt_clust_5="13000.00000" pt_clust_6="13000.00000" pt_clust_7="13000.00000" pt_clust_8="13000.00000" pt_clust_9="28.75086"></scales>
<clustering>
<clus scale="   28.751">  1  9  2 -1</clus>
<clus scale="   81.568">  5  6 -1 -1</clus>
<clus scale="   90.359">  7  8 -1 -1</clus>
<clus scale="   97.683">  1  5  2 -1</clus>
<clus scale="   28.751">  1  5  2 -1</clus>
</clustering>
</event>
<event>
 9    1  0.7586638E-005  0.1172284E+03  0.7546771E-02  0.1251074E+00
         21   -1    0    0  501  502  0.00000000000E+00  0.00000000000E+00  0.40770442660E+03  0.40770442660E+03  0.00000000000E+00 0. -1.
         -2   -1    0    0    0  501 -0.00000000000E+00 -0.00000000000E+00 -0.61904029407E+02  0.61904029407E+02  0.00000000000E+00 0.  1.
        -24    2    1    2    0    0  0.79934342214E+02  0.11393891113E+02  0.27134998306E+02  0.11775089528E+03  0.81299725629E+02 0.  0.
         23    2    1    2    0    0 -0.43834125995E+02 -0.33565684964E+02  0.23561527497E+03  0.25862592909E+03  0.91239945152E+02 0.  0.
         11    1    3    3    0    0  0.41200000363E+01 -0.28087020575E+02  0.12546254657E+02  0.31036488703E+02  0.00000000000E+00 0. -1.
        -12    1    3    3    0    0  0.75814342178E+02  0.39480911688E+02  0.14588743649E+02  0.86714406582E+02  0.00000000000E+00 0.  1.
        -13    1    4    4    0    0 -0.84013620239E+01 -0.43433065396E+02  0.40186183616E+02  0.59765737736E+02  0.00000000000E+00 0.  1.
         13    1    4    4    0    0 -0.35432763971E+02  0.98673804320E+01  0.19542909135E+03  0.19886019136E+03  0.00000000000E+00 0. -1.
         -1    1    1    2    0  502 -0.36100216219E+02  0.22171793850E+02  0.83050123923E+02  0.93231631635E+02  0.00000000000E+00 0.  1.
<scales pt_clust_5="13000.00000" pt_clust_6="13000.00000" pt_clust_7="13000.00000" pt_clust_8="13000.00000" pt_clust_9="42.36525"></scales>
<clustering>
<clus scale="   42.365">  1  9  2 -1</clus>
<clus scale="   81.300">  5  6 -1 -1</clus>
<clus scale="   91.240">  7  8 -1 -1</clus>
<clus scale="  109.670">  2  5  1 -1</clus>
<clus scale="   42.365">  1  5  2 -1</clus>
</clustering>
</event>
<event>
 9    1  0.7586638E-005  0.1445972E+03  0.7546771E-02  0.1234216E+00
         21   -1    0    0  501  502  0.00000000000E+00  0.00000000000E+00  0.12038715952E+03  0.12038715952E+03  0.00000000000E+00 0. -1.
          1   -1    0    0  502    0 -0.00000000000E+00 -0.00000000000E+00 -0.33312531696E+03  0.33312531696E+03  0.00000000000E+00 0. -1.
        -24    2    1    2    0    0  0.13524532113E+02  0.22127232133E+01 -0.14672920933E+03  0.16817449721E+03  0.81027103678E+02 0.  0.
         23    2    1    2    0    0  0.98485458035E+02  0.29316369336E+02  0.17478009838E+02  0.14212347680E+03  0.96616597302E+02 0.  0.
         11    1    3    3    0    0  0.12539326072E+02 -0.28784299991E+02 -0.18921109096E+02  0.36657591216E+02  0.00000000000E+00 0. -1.
        -12    1    3    3    0    0  0.98520604089E+00  0.30997023205E+02 -0.12780810023E+03  0.13151690600E+03  0.00000000000E+00 0.  1.
        -13    1    4    4    0    0  0.32994894690E+02  0.56618704322E+02 -0.94955609153E+01  0.66215605652E+02  0.00000000000E+00 0.  1.
         13    1    4    4    0    0  0.65490563345E+02 -0.27302334986E+02  0.26973570753E+02  0.75907871148E+02  0.00000000000E+00 0. -1.
          2    1    1    2  501    0 -0.11200999015E+03 -0.31529092549E+02 -0.83486957951E+02  0.14321450247E+03  0.00000000000E+00 0. -1.
<scales pt_clust_5="13000.00000" pt_clust_6="13000.00000" pt_clust_7="13000.00000" pt_clust_8="13000.00000" pt_clust_9="107.58058"></scales>
<clustering>
<clus scale="   81.027">  5  6 -1 -1</clus>
<clus scale="   82.178">  2  5  1 -1</clus>
<clus scale="   96.617">  7  8 -1 -1</clus>
<clus scale="  107.581">  1  9  2 -1</clus>
<clus scale="  107.581">  1  5  2 -1</clus>
</clustering>
</event>
<event>
 9    1  0.7586638E-005  0.1710433E+03  0.7546771E-02  0.1177606E+00
         21   -1    0    0  501  502  0.00000000000E+00  0.00000000000E+00  0.10587451067E+03  0.10587451067E+03  0.00000000000E+00 0.  1.
          1   -1    0    0  502    0 -0.00000000000E+00 -0.00000000000E+00 -0.91984339340E+03  0.91984339340E+03  0.00000000000E+00 0. -1.
        -24    2    1    2    0    0  0.47153199366E+02  0.15234707111E+03 -0.79256455212E+03  0.81251721800E+03  0.81194864276E+02 0.  0.
         23    2    1    2    0    0 -0.44500439530E+02 -0.81825592236E+02 -0.49622342616E+02  0.13719692091E+03  0.87663570293E+02 0.  0.
         13    1    3    3    0    0  0.57427085574E+02  0.15696172434E+03 -0.75611319319E+03  0.77436555579E+03  0.00000000000E+00 0. -1.
        -14    1    3    3    0    0 -0.10273886208E+02 -0.46146532300E+01 -0.36451358929E+02  0.38151662218E+02  0.00000000000E+00 0.  1.
        -11    1    4    4    0    0 -0.63821695679E+02 -0.55036010694E+02 -0.88700779107E+01  0.84739893761E+02  0.00000000000E+00 0.  1.
         11    1    4    4    0    0  0.19321256149E+02 -0.26789581542E+02 -0.40752264705E+02  0.52457027146E+02  0.00000000000E+00 0. -1.
          2    1    1    2  501    0 -0.26527598354E+01 -0.70521478872E+02  0.28218012012E+02  0.76003765163E+02  0.00000000000E+00 0. -1.
<scales pt_clust_5="13000.00000" pt_clust_6="13000.00000" pt_clust_7="13000.00000" pt_clust_8="13000.00000" pt_clust_9="70.57135"></scales>
<clustering>
<clus scale="   70.571">  1  9  2 -1</clus>
<clus scale="   81.195">  5  6 -1 -1</clus>
<clus scale="   87.664">  7  8 -1 -1</clus>
<clus scale="  167.820">  2  5  1 -1</clus>
<clus scale="   70.571">  1  5  2 -1</clus>
</clustering>
</event>
<event>
 9    1  0.7586638E-005  0.1146969E+03  0.7546771E-02  0.1256756E+00
         21   -1    0    0  501  502  0.00000000000E+00  0.00000000000E+00  0.20958528275E+03  0.20958528275E+03  0.00000000000E+00 0.  1.
         -2   -1    0    0    0  501 -0.00000000000E+00 -0.00000000000E+00 -0.79789399099E+02  0.79789399099E+02  0.00000000000E+00 0.  1.
         23    2    1    2    0    0 -0.78893610491E+02  0.95673238839E+00  0.29952526285E+02  0.12478531052E+03  0.91919001182E+02 0.  0.
        -24    2    1    2    0    0  0.54965231651E+02 -0.20399705438E+02  0.64144803805E+02  0.11741964331E+03  0.78965132225E+02 0.  0.
         11    1    4    4    0    0  0.56172818445E+02 -0.87451704104E+01  0.79729517602E+02  0.97921700939E+02  0.00000000000E+00 0. -1.
        -12    1    4    4    0    0 -0.12075867944E+01 -0.11654535028E+02 -0.15584713797E+02  0.19497942371E+02  0.00000000000E+00 0.  1.
        -13    1    3    3    0    0 -0.50863844468E+01  0.38023308737E+02  0.63230971768E+01  0.38879620266E+02  0.00000000000E+00 0.  1.
         13    1    3    3    0    0 -0.73807226044E+02 -0.37066576349E+02  0.23629429108E+02  0.85905690257E+02  0.00000000000E+00 0. -1.
         -1    1    1    2    0  502  0.23928378840E+02  0.19442973050E+02  0.35698553558E+02  0.47169728016E+02  0.00000000000E+00 0.  1.
<scales pt_clust_5="13000.00000" pt_clust_6="13000.00000" pt_clust_7="13000.00000" pt_clust_8="13000.00000" pt_clust_9="30.83175"></scales>
<clustering>
<clus scale="   30.832">  1  9  2 -1</clus>
<clus scale="   78.965">  5  6 -1 -1</clus>
<clus scale="   91.919">  7  8 -1 -1</clus>
<clus scale="  104.603">  1  5  2 -1</clus>
<clus scale="   30.832">  1  5  2 -1</clus>
</clustering>
</event>
<event>
 9    1  0.7586638E-005  0.1312134E+03  0.7546771E-02  0.1230062E+00
         -2   -1    0    0    0  501 -0.00000000000E+00  0.00000000000E+00  0.23128250312E+03  0.23128250312E+03  0.00000000000E+00 0.  1.
         21   -1    0    0  501  502  0.00000000000E+00 -0.00000000000E+00 -0.17156878273E+03  0.17156878273E+03  0.00000000000E+00 0.  1.
         23    2    1    2    0    0 -0.72533454122E+02  0.12833047260E+02 -0.49646825655E+02  0.12967053605E+03  0.94466139718E+02 0.  0.
        -24    2    1    2    0    0  0.12479911549E+02  0.96068281288E+02  0.76780980124E+02  0.14462198716E+03  0.75068884358E+02 0.  0.
         13    1    4    4    0    0 -0.26083364847E+02  0.66415803690E+02  0.30915157482E+02  0.77763409542E+02  0.00000000000E+00 0. -1.
        -14    1    4    4    0    0  0.38563276396E+02  0.29652477598E+02  0.45865822642E+02  0.66858577615E+02  0.00000000000E+00 0.  1.
        -11    1    3    3    0    0  0.20706972774E+02  0.79354067917E+01  0.31656116505E+01  0.22400234363E+02  0.00000000000E+00 0. -1.
         11    1    3    3    0    0 -0.93240426896E+02  0.48976404686E+01 -0.52812437306E+02  0.10727030169E+03  0.00000000000E+00 0.  1.
         -1    1    1    2    0  502  0.60053542573E+02 -0.10890132855E+03  0.32579565923E+02  0.12855876264E+03  0.00000000000E+00 0.  1.
<scales pt_clust_5="13000.00000" pt_clust_6="13000.00000" pt_clust_7="13000.00000" pt_clust_8="13000.00000" pt_clust_9="107.61789"></scales>
<clustering>
<clus scale="   75.069">  5  6 -1 -1</clus>
<clus scale="   94.466">  7  8 -1 -1</clus>
<clus scale="  119.790">  1  7  2 -1</clus>
<clus scale="  107.618">  2  9  1 -1</clus>
<clus scale="  107.618">  2  5  1 -1</clus>
</clustering>
</event>
<event>
 9    1  0.7586638E-005  0.1276865E+03  0.7546771E-02  0.1235477E+00
         21   -1    0    0  501  502  0.00000000000E+00  0.00000000000E+00  0.18453676234E+03  0.18453676234E+03  0.00000000000E+00 0. -1.
          1   -1    0    0  502    0 -0.00000000000E+00 -0.00000000000E+00 -0.12481007514E+03  0.12481007514E+03  0.00000000000E+00 0. -1.
         23    2    1    2    0    0  0.10193290319E+03  0.31725822905E+02 -0.72042614258E+01  0.14405051412E+03  0.96445863799E+02 0.  0.
        -24    2    1    2    0    0 -0.58103093684E+02 -0.19693893561E+02  0.27408371012E+02  0.10506465672E+03  0.80768461366E+02 0.  0.
         13    1    4    4    0    0 -0.43724933668E+02  0.15292962801E+02 -0.14568577874E+02  0.48559118575E+02  0.00000000000E+00 0. -1.
        -14    1    4    4    0    0 -0.14378160016E+02 -0.34986856362E+02  0.41976948886E+02  0.56505538147E+02  0.00000000000E+00 0.  1.
        -13    1    3    3    0    0  0.64953961292E+02  0.48510845803E+02 -0.41337816708E+02  0.91000738119E+02  0.00000000000E+00 0. -1.
         13    1    3    3    0    0  0.36978941896E+02 -0.16785022898E+02  0.34133555282E+02  0.53049776000E+02  0.00000000000E+00 0.  1.
          2    1    1    2  501    0 -0.43829809504E+02 -0.12031929344E+02  0.39522577616E+02  0.60231666640E+02  0.00000000000E+00 0. -1.
<scales pt_clust_5="13000.00000" pt_clust_6="13000.00000" pt_clust_7="13000.00000" pt_clust_8="13000.00000" pt_clust_9="45.45129"></scales>
<clustering>
<clus scale="   45.451">  1  9  2 -1</clus>
<clus scale="   80.768">  5  6 -1 -1</clus>
<clus scale="   96.446">  7  8 -1 -1</clus>
<clus scale="  116.300">  1  5  2 -1</clus>
<clus scale="   45.451">  1  5  2 -1</clus>
</clustering>
</event>
<event>
 9    1  0.7586638E-005  0.1274993E+03  0.7546771E-02  0.1233679E+00
         21   -1    0    0  501  502  0.00000000000E+00  0.00000000000E+00  0.90469760297E+02  0.90469760297E+02  0.00000000000E+00 0.  1.
          3   -1    0    0  502    0 -0.00000000000E+00 -0.00000000000E+00 -0.25641755127E+03  0.25641755127E+03  0.00000000000E+00 0. -1.
         23    2    1    2    0    0  0.43946758446E+02  0.10265753045E+03 -0.11625842788E+03  0.18467846651E+03  0.90112306609E+02 0.  0.
        -24    2    1    2    0    0 -0.17869885161E+02 -0.61299252027E+02 -0.20051395456E+02  0.10503437837E+03  0.80952029535E+02 0.  0.
         13    1    4    4    0    0 -0.11248565664E+02 -0.41033426896E+02 -0.51648808129E+02  0.66916901703E+02  0.00000000000E+00 0. -1.
        -14    1    4    4    0    0 -0.66213194964E+01 -0.20265825131E+02  0.31597412673E+02  0.38117476671E+02  0.00000000000E+00 0.  1.
        -13    1    3    3    0    0 -0.14287499968E+02  0.79340050850E+02 -0.69517880606E+02  0.10645051455E+03  0.00000000000E+00 0.  1.
         13    1    3    3    0    0  0.58234258414E+02  0.23317479602E+02 -0.46740547276E+02  0.78227951959E+02  0.00000000000E+00 0. -1.
          4    1    1    2  501    0 -0.26076873286E+02 -0.41358278426E+02 -0.29637967631E+02  0.57174466679E+02  0.00000000000E+00 0. -1.
<scales pt_clust_5="13000.00000" pt_clust_6="13000.00000" pt_clust_7="13000.00000" pt_clust_8="13000.00000" pt_clust_9="48.89287"></scales>
<clustering>
<clus scale="   48.893">  1  9  2 -1</clus>
<clus scale="   80.952">  5  6 -1 -1</clus>
<clus scale="   90.112">  7  8 -1 -1</clus>
<clus scale="  121.198">  1  5  2 -1</clus>
<clus scale="   48.893">  1  5  2 -1</clus>
</clustering>
</event>
<event>
 9    1  0.7586638E-005  0.1062763E+03  0.7546771E-02  0.1273931E+00
         21   -1    0    0  501  502  0.00000000000E+00  0.00000000000E+00  0.81144388260E+02  0.81144388260E+02  0.00000000000E+00 0.  1.
         -4   -1    0    0    0  501 -0.00000000000E+00 -0.00000000000E+00 -0.17309273322E+03  0.17309273322E+03  0.00000000000E+00 0.  1.
        -24    2    1    2    0    0 -0.21895530942E+02 -0.38238836557E+02 -0.55065832262E+02  0.10649522720E+03  0.79795768291E+02 0.  0.
         23    2    1    2    0    0  0.10695027933E+02  0.58849690457E+02 -0.48689490100E+02  0.12148045332E+03  0.93857148920E+02 0.  0.
         13    1    3    3    0    0  0.28529704797E+02 -0.26295297938E+02 -0.29318860498E+02  0.48631083993E+02  0.00000000000E+00 0. -1.
        -14    1    3    3    0    0 -0.50425235738E+02 -0.11943538620E+02 -0.25746971764E+02  0.57864143207E+02  0.00000000000E+00 0.  1.
        -13    1    4    4    0    0 -0.26755998736E+02  0.64325285251E+02 -0.16029887829E+02  0.71488342369E+02  0.00000000000E+00 0.  1.
         13    1    4    4    0    0  0.37451026668E+02 -0.54755947941E+01 -0.32659602271E+02  0.49992110951E+02  0.00000000000E+00 0. -1.
         -3    1    1    2    0  502  0.11200503009E+02 -0.20610853899E+02  0.11806977400E+02  0.26261440963E+02  0.00000000000E+00 0.  1.
<scales pt_clust_5="13000.00000" pt_clust_6="13000.00000" pt_clust_7="13000.00000" pt_clust_8="13000.00000" pt_clust_9="23.45759"></scales>
<clustering>
<clus scale="   23.458">  1  9  2 -1</clus>
<clus scale="   79.796">  5  6 -1 -1</clus>
<clus scale="   93.857">  7  8 -1 -1</clus>
<clus scale="   94.090">  2  5  1 -1</clus>
<clus scale="   23.458">  1  5  2 -1</clus>
</clustering>
</event>
<event>
 9    1  0.7586638E-005  0.9353993E+02  0.7546771E-02  0.1301162E+00
         21   -1    0    0  501  502  0.00000000000E+00  0.00000000000E+00  0.36911149442E+02  0.36911149442E+02  0.00000000000E+00 0. -1.
          1   -1    0    0  502    0 -0.00000000000E+00 -0.00000000000E+00 -0.33047327159E+03  0.33047327159E+03  0.00000000000E+00 0. -1.
        -24    2    1    2    0    0 -0.77417018221E+01 -0.23758822152E+02 -0.17304779020E+03  0.19247715557E+03  0.80482930774E+02 0.  0.
         23    2    1    2    0    0 -0.13174297127E+02  0.68757059735E+01 -0.65196316091E+02  0.11340440779E+03  0.91592372151E+02 0.  0.
         11    1    3    3    0    0 -0.32079885344E+02 -0.12670212403E+02 -0.26465779368E+02  0.43475174566E+02  0.00000000000E+00 0. -1.
        -12    1    3    3    0    0  0.24338183522E+02 -0.11088609749E+02 -0.14658201083E+03  0.14900198100E+03  0.00000000000E+00 0.  1.
        -11    1    4    4    0    0  0.33630751962E+02 -0.10074847327E+02 -0.52722398380E+01  0.35501077999E+02  0.00000000000E+00 0. -1.
         11    1    4    4    0    0 -0.46805049088E+02  0.16950553300E+02 -0.59924076253E+02  0.77903329788E+02  0.00000000000E+00 0.  1.
          2    1    1    2  501    0  0.20915998949E+02  0.16883116179E+02 -0.55318015856E+02  0.61502857675E+02  0.00000000000E+00 0. -1.
<scales pt_clust_5="13000.00000" pt_clust_6="13000.00000" pt_clust_7="13000.00000" pt_clust_8="13000.00000" pt_clust_9="26.87972"></scales>
<clustering>
<clus scale="   26.880">  1  9  2 -1</clus>
<clus scale="   80.483">  5  6 -1 -1</clus>
<clus scale="   82.693">  2  5  1 -1</clus>
<clus scale="   91.592">  7  8 -1 -1</clus>
<clus scale="   26.880">  1  5  2 -1</clus>
</clustering>
</event>
<event>
 9    1  0.7586638E-005  0.1156144E+03  0.7546771E-02  0.1254365E+00
         21   -1    0    0  501  502  0.00000000000E+00  0.00000000000E+00  0.13227026484E+03  0.13227026484E+03  0.00000000000E+00 0. -1.
          1   -1    0    0  502    0 -0.00000000000E+00 -0.00000000000E+00 -0.18650854979E+03  0.18650854979E+03  0.00000000000E+00 0. -1.
         23    2    1    2    0    0 -0.16215715194E+02  0.36991731715E+02 -0.41893291478E+01  0.99234470043E+02  0.90546076290E+02 0.  0.
        -24    2    1    2    0    0  0.53804576395E+02 -0.99326300153E+02 -0.15347725774E+02  0.13890504726E+03  0.79362542323E+02 0.  0.
         11    1    4    4    0    0  0.50622990429E+01 -0.81890107456E+02 -0.25971868803E+02  0.86059017772E+02  0.00000000000E+00 0. -1.
        -12    1    4    4    0    0  0.48742277352E+02 -0.17436192697E+02  0.10624143030E+02  0.52846029485E+02  0.00000000000E+00 0.  1.
        -11    1    3    3    0    0  0.21451644144E+02  0.49882302256E+01 -0.34736132459E+02  0.41129726178E+02  0.00000000000E+00 0.  1.
         11    1    3    3    0    0 -0.37667359338E+02  0.32003501490E+02  0.30546803311E+02  0.58104743865E+02  0.00000000000E+00 0. -1.
          2    1    1    2  501    0 -0.37588861201E+02  0.62334568438E+02 -0.34701230022E+02  0.80639297329E+02  0.00000000000E+00 0. -1.
<scales pt_clust_5="13000.00000" pt_clust_6="13000.00000" pt_clust_7="13000.00000" pt_clust_8="13000.00000" pt_clust_9="72.79098"></scales>
<clustering>
<clus scale="   72.791">  1  9  2 -1</clus>
<clus scale="   79.363">  5  6 -1 -1</clus>
<clus scale="   90.546">  7  8 -1 -1</clus>
<clus scale="  107.082">  1  5  2 -1</clus>
<clus scale="   72.791">  1  5  2 -1</clus>
</clustering>
</event>
<event>
 9    1  0.7586638E-005  0.9540125E+02  0.7546771E-02  0.1297730E+00
         21   -1    0    0  501  502  0.00000000000E+00  0.00000000000E+00  0.39658113383E+03  0.39658113383E+03  0.00000000000E+00 0.  1.
         -2   -1    0    0    0  501 -0.00000000000E+00 -0.00000000000E+00 -0.18858326348E+03  0.18858326348E+03  0.00000000000E+00 0.  1.
         23    2    1    2    0    0 -0.19733479194E+02 -0.16305413950E+02 -0.16339706177E+03  0.18926498456E+03  0.92018247433E+02 0.  0.
        -24    2    1    2    0    0 -0.16508054563E+02  0.42931571242E+02  0.26616279848E+03  0.28146076992E+03  0.79132130245E+02 0.  0.
         11    1    4    4    0    0  0.69208941152E+01 -0.20905450420E+02  0.89319187228E+02  0.91993770657E+02  0.00000000000E+00 0. -1.
        -12    1    4    4    0    0 -0.23428948678E+02  0.63837021662E+02  0.17684361125E+03  0.18946699927E+03  0.00000000000E+00 0.  1.
        -13    1    3    3    0    0 -0.27975453971E+02  0.26471549265E+02 -0.29660175679E+02  0.48611675209E+02  0.00000000000E+00 0. -1.
         13    1    3    3    0    0  0.82419747769E+01 -0.42776963215E+02 -0.13373688609E+03  0.14065330935E+03  0.00000000000E+00 0.  1.
         -1    1    1    2    0  502  0.36241533757E+02 -0.26626157292E+02  0.10523213364E+03  0.11443864282E+03  0.00000000000E+00 0.  1.
<scales pt_clust_5="13000.00000" pt_clust_6="13000.00000" pt_clust_7="13000.00000" pt_clust_8="13000.00000" pt_clust_9="44.97111"></scales>
<clustering>
<clus scale="   44.971">  1  9  2 -1</clus>
<clus scale="   79.132">  5  6 -1 -1</clus>
<clus scale="   83.042">  1  5  2 -1</clus>
<clus scale="   92.018">  7  8 -1 -1</clus>
<clus scale="   44.971">  1  5  2 -1</clus>
</clustering>
</event>
<event>
 9    1  0.7586638E-005  0.2798873E+03  0.7546771E-02  0.1096160E+00
         21   -1    0    0  501  502  0.00000000000E+00  0.00000000000E+00  0.94758541101E+03  0.94758541101E+03  0.00000000000E+00 0.  1.
         -2   -1    0    0    0  501 -0.00000000000E+00 -0.00000000000E+00 -0.15264857555E+03  0.15264857555E+03  0.00000000000E+00 0.  1.
        -24    2    1    2    0    0  0.23560531344E+03  0.22750026125E+03  0.18311176491E+03  0.38356008866E+03  0.79512203948E+02 0.  0.
         23    2    1    2    0    0 -0.83355631791E+02 -0.15944258195E+03  0.39490423320E+03  0.44305653194E+03  0.89328824013E+02 0.  0.
         11    1    3    3    0    0  0.40585029298E+01  0.28625800219E+02  0.31478206256E+02  0.42740909599E+02  0.00000000000E+00 0. -1.
        -12    1    3    3    0    0  0.23154681051E+03  0.19887446103E+03  0.15163355865E+03  0.34081917906E+03  0.00000000000E+00 0.  1.
        -13    1    4    4    0    0 -0.42669099151E+02 -0.29513204417E+02  0.19065535411E+03  0.19758832281E+03  0.00000000000E+00 0.  1.
         13    1    4    4    0    0 -0.40686532640E+02 -0.12992937753E+03  0.20424887909E+03  0.24546820913E+03  0.00000000000E+00 0. -1.
         -1    1    1    2    0  502 -0.15224968165E+03 -0.68057679301E+02  0.21692083735E+03  0.27361736595E+03  0.00000000000E+00 0.  1.
<scales pt_clust_5="13000.00000" pt_clust_6="13000.00000" pt_clust_7="13000.00000" pt_clust_8="13000.00000" pt_clust_9="166.76874"></scales>
<clustering>
<clus scale="   79.512">  5  6 -1 -1</clus>
<clus scale="   89.329">  7  8 -1 -1</clus>
<clus scale="  166.769">  1  9  2 -1</clus>
<clus scale="  276.911">  2  5  1 -1</clus>
<clus scale="  166.769">  1  5  2 -1</clus>
</clustering>
</event>
<event>
 9    1  0.7586638E-005  0.8280910E+02  0.7546771E-02  0.1322595E+00
         -2   -1    0    0    0  501 -0.00000000000E+00  0.00000000000E+00  0.15290521426E+03  0.15290521426E+03  0.00000000000E+00 0.  1.
         21   -1    0    0  501  502  0.00000000000E+00 -0.00000000000E+00 -0.21649566263E+03  0.21649566263E+03  0.00000000000E+00 0.  1.
        -24    2    1    2    0    0 -0.14337997318E+02  0.12916959198E+02  0.10979006739E+03  0.13744287647E+03  0.80400618110E+02 0.  0.
         23    2    1    2    0    0 -0.19321578526E+01 -0.31252336765E+02 -0.34944165853E+02  0.91368075488E+02  0.78400183061E+02 0.  0.
         13    1    3    3    0    0  0.24814765897E+02  0.10619816539E+02  0.76851134418E+01  0.28064462910E+02  0.00000000000E+00 0. -1.
        -14    1    3    3    0    0 -0.39152763215E+02  0.22971426591E+01  0.10210495395E+03  0.10937841356E+03  0.00000000000E+00 0.  1.
        -13    1    4    4    0    0 -0.24482968701E+02 -0.30736944408E+02  0.10464513256E+02  0.40665483467E+02  0.00000000000E+00 0.  1.
         13    1    4    4    0    0  0.22550810848E+02 -0.51539235660E+00 -0.45408679109E+02  0.50702592021E+02  0.00000000000E+00 0. -1.
         -1    1    1    2    0  502  0.16270155171E+02  0.18335377566E+02 -0.13843634990E+03  0.14058992494E+03  0.00000000000E+00 0.  1.
<scales pt_clust_5="13000.00000" pt_clust_6="13000.00000" pt_clust_7="13000.00000" pt_clust_8="13000.00000" pt_clust_9="24.51334"></scales>
<clustering>
<clus scale="   24.513">  2  9  1 -1</clus>
<clus scale="   78.400">  7  8 -1 -1</clus>
<clus scale="   80.401">  5  6 -1 -1</clus>
<clus scale="   80.868">  2  7  1 -1</clus>
<clus scale="   24.513">  2  5  1 -1</clus>
</clustering>
</event>
<event>
 9    1  0.7586638E-005  0.1188681E+03  0.7546771E-02  0.1249900E+00
         21   -1    0    0  501  502  0.00000000000E+00  0.00000000000E+00  0.23772944718E+03  0.23772944718E+03  0.00000000000E+00 0.  1.
          1   -1    0    0  502    0 -0.00000000000E+00 -0.00000000000E+00 -0.35327246698E+03  0.35327246698E+03  0.00000000000E+00 0. -1.
         23    2    1    2    0    0  0.42909457892E+02 -0.59108210719E+02 -0.29477055733E+03  0.31793117551E+03  0.94103925215E+02 0.  0.
        -24    2    1    2    0    0 -0.84271754703E+01  0.78608381740E+02  0.26401983428E+02  0.11519441219E+03  0.79513476242E+02 0.  0.
         11    1    4    4    0    0 -0.29408646033E+02 -0.13470202110E+01  0.80285354037E+01  0.30514591685E+02  0.00000000000E+00 0. -1.
        -12    1    4    4    0    0  0.20981470563E+02  0.79955401951E+02  0.18373448024E+02  0.84679820503E+02  0.00000000000E+00 0.  1.
        -11    1    3    3    0    0  0.72499693331E+02 -0.33134681342E+02 -0.19346452779E+03  0.20924300742E+03  0.00000000000E+00 0.  1.
         11    1    3    3    0    0 -0.29590235438E+02 -0.25973529377E+02 -0.10130602954E+03  0.10868816809E+03  0.00000000000E+00 0. -1.
          2    1    1    2  501    0 -0.34482282422E+02 -0.19500171021E+02  0.15282555410E+03  0.15787632646E+03  0.00000000000E+00 0. -1.
<scales pt_clust_5="13000.00000" pt_clust_6="13000.00000" pt_clust_7="13000.00000" pt_clust_8="13000.00000" pt_clust_9="39.61420"></scales>
<clustering>
<clus scale="   39.614">  1  9  2 -1</clus>
<clus scale="   79.513">  5  6 -1 -1</clus>
<clus scale="   94.104">  7  8 -1 -1</clus>
<clus scale="  107.687">  1  5  2 -1</clus>
<clus scale="   39.614">  1  5  2 -1</clus>
</clustering>
</event>
<event>
 9    1  0.7586638E-005  0.1256388E+03  0.7546771E-02  0.1245079E+00
         21   -1    0    0  501  502  0.00000000000E+00  0.00000000000E+00  0.95563645540E+02  0.95563645540E+02  0.00000000000E+00 0.  1.
          1   -1    0    0  502    0 -0.00000000000E+00 -0.00000000000E+00 -0.27685355381E+03  0.27685355381E+03  0.00000000000E+00 0. -1.
        -24    2    1    2    0    0 -0.20935282120E+02  0.77504711027E+02 -0.96387428884E+02  0.14923271629E+03  0.80836878313E+02 0.  0.
         23    2    1    2    0    0  0.42196226007E+02 -0.35567952718E+01 -0.15232837988E+02  0.11938573108E+03  0.11057911716E+03 0.  0.
         11    1    3    3    0    0  0.28667206670E+02  0.24649456756E+02 -0.51807559552E+02  0.64136009257E+02  0.00000000000E+00 0. -1.
        -12    1    3    3    0    0 -0.49602488790E+02  0.52855254271E+02 -0.44579869332E+02  0.85096707033E+02  0.00000000000E+00 0.  1.
        -11    1    4    4    0    0  0.46350024134E+02  0.40005382855E+02 -0.35916292124E+02  0.70984050565E+02  0.00000000000E+00 0.  1.
         11    1    4    4    0    0 -0.41537981274E+01 -0.43562178127E+02  0.20683454136E+02  0.48401680519E+02  0.00000000000E+00 0. -1.
          2    1    1    2  501    0 -0.21260943887E+02 -0.73947915755E+02 -0.69669641397E+02  0.10379875198E+03  0.00000000000E+00 0. -1.
<scales pt_clust_5="13000.00000" pt_clust_6="13000.00000" pt_clust_7="13000.00000" pt_clust_8="13000.00000" pt_clust_9="76.94367"></scales>
<clustering>
<clus scale="   76.944">  1  9  2 -1</clus>
<clus scale="   80.837">  5  6 -1 -1</clus>
<clus scale="  100.459">  2  5  1 -1</clus>
<clus scale="  110.579">  7  8 -1 -1</clus>
<clus scale="   76.944">  1  5  2 -1</clus>
</clustering>
</event>
<event>
 9    1  0.7586638E-005  0.3584720E+03  0.7546771E-02  0.1105490E+00
         -2   -1    0    0    0  501 -0.00000000000E+00  0.00000000000E+00  0.51550462051E+03  0.51550462051E+03  0.00000000000E+00 0.  1.
         21   -1    0    0  501  502  0.00000000000E+00 -0.00000000000E+00 -0.36117035642E+03  0.36117035642E+03  0.00000000000E+00 0.  1.
         23    2    1    2    0    0  0.46501199742E+02  0.23381758620E+01  0.55134645480E+02  0.11726888664E+03  0.92435566735E+02 0.  0.
        -24    2    1    2    0    0  0.40691063281E+02 -0.34544526523E+03 -0.74940054371E+02  0.36488157747E+03  0.80835387874E+02 0.  0.
         13    1    4    4    0    0  0.15188952826E+02 -0.37117439787E+02 -0.34436259940E+02  0.52860804222E+02  0.00000000000E+00 0. -1.
        -14    1    4    4    0    0  0.25502110455E+02 -0.30832782544E+03 -0.40503794431E+02  0.31202077325E+03  0.00000000000E+00 0.  1.
        -13    1    3    3    0    0  0.72980648539E+02 -0.10339282064E+02  0.34493511388E+02  0.81381067471E+02  0.00000000000E+00 0. -1.
         13    1    3    3    0    0 -0.26479448797E+02  0.12677457926E+02  0.20641134092E+02  0.35887819168E+02  0.00000000000E+00 0.  1.
         -1    1    1    2    0  502 -0.87192263024E+02  0.34310708936E+03  0.17413967298E+03  0.39452451281E+03  0.00000000000E+00 0.  1.
<scales pt_clust_5="13000.00000" pt_clust_6="13000.00000" pt_clust_7="13000.00000" pt_clust_8="13000.00000" pt_clust_9="349.23910"></scales>
<clustering>
<clus scale="   80.835">  5  6 -1 -1</clus>
<clus scale="   92.436">  7  8 -1 -1</clus>
<clus scale="  103.500">  1  7  2 -1</clus>
<clus scale="  349.239">  2  9  1 -1</clus>
<clus scale="  349.239">  2  5  1 -1</clus>
</clustering>
</event>
<event>
 9    1  0.7586638E-005  0.1330962E+03  0.7546771E-02  0.1226925E+00
         21   -1    0    0  501  502  0.00000000000E+00  0.00000000000E+00  0.84569873640E+03  0.84569873640E+03  0.00000000000E+00 0.  1.
          3   -1    0    0  502    0 -0.00000000000E+00 -0.00000000000E+00 -0.36881164850E+02  0.36881164850E+02  0.00000000000E+00 0. -1.
        -24    2    1    2    0    0  0.11271260705E+02  0.90413019134E+02  0.14664133848E+03  0.18989614432E+03  0.79090505951E+02 0.  0.
         23    2    1    2    0    0  0.98842891311E+01 -0.10435889708E+03  0.64885662684E+03  0.66405760262E+03  0.94705326292E+02 0.  0.
         11    1    3    3    0    0 -0.31388023685E+02  0.61019156716E+02  0.89289411523E+02  0.11261058799E+03  0.00000000000E+00 0. -1.
        -12    1    3    3    0    0  0.42659284390E+02  0.29393862418E+02  0.57351926953E+02  0.77285556333E+02  0.00000000000E+00 0.  1.
        -13    1    4    4    0    0 -0.17768835518E+02  0.94854481744E+01  0.51059120337E+02  0.54888423300E+02  0.00000000000E+00 0. -1.
         13    1    4    4    0    0  0.27653124649E+02 -0.11384434525E+03  0.59779750650E+03  0.60916917932E+03  0.00000000000E+00 0.  1.
          4    1    1    2  501    0 -0.21155549836E+02  0.13945877943E+02  0.13319606236E+02  0.28626154313E+02  0.00000000000E+00 0. -1.
<scales pt_clust_5="13000.00000" pt_clust_6="13000.00000" pt_clust_7="13000.00000" pt_clust_8="13000.00000" pt_clust_9="25.33862"></scales>
<clustering>
<clus scale="   25.339">  1  9  2 -1</clus>
<clus scale="   79.091">  5  6 -1 -1</clus>
<clus scale="   94.705">  7  8 -1 -1</clus>
<clus scale="  122.478">  2  5  1 -1</clus>
<clus scale="   25.339">  1  5  2 -1</clus>
</clustering>
</event>
<event>
 9    1  0.7586638E-005  0.1219103E+03  0.7546771E-02  0.1243310E+00
         21   -1    0    0  501  502  0.00000000000E+00  0.00000000000E+00  0.10821505207E+03  0.10821505207E+03  0.00000000000E+00 0. -1.
          1   -1    0    0  502    0 -0.00000000000E+00 -0.00000000000E+00 -0.40756890546E+03  0.40756890546E+03  0.00000000000E+00 0. -1.
         23    2    1    2    0    0  0.14235645927E+02 -0.80781352495E+02 -0.29663342997E+03  0.32108791400E+03  0.91530192895E+02 0.  0.
        -24    2    1    2    0    0 -0.37873093231E+02  0.69859310672E+02 -0.62626266564E+02  0.12937583261E+03  0.80631025798E+02 0.  0.
         11    1    4    4    0    0 -0.48157893180E+02  0.56667209915E+02 -0.77198453387E+02  0.10719121494E+03  0.00000000000E+00 0. -1.
        -12    1    4    4    0    0  0.10284799949E+02  0.13192100756E+02  0.14572186823E+02  0.22184617669E+02  0.00000000000E+00 0.  1.
        -13    1    3    3    0    0 -0.24949290191E+02 -0.38233183272E+02 -0.22209480633E+03  0.22673849780E+03  0.00000000000E+00 0.  1.
         13    1    3    3    0    0  0.39184936118E+02 -0.42548169224E+02 -0.74538623644E+02  0.94349416201E+02  0.00000000000E+00 0. -1.
          2    1    1    2  501    0  0.23637447304E+02  0.10922041824E+02  0.59905843148E+02  0.65320210930E+02  0.00000000000E+00 0. -1.
<scales pt_clust_5="13000.00000" pt_clust_6="13000.00000" pt_clust_7="13000.00000" pt_clust_8="13000.00000" pt_clust_9="26.03882"></scales>
<clustering>
<clus scale="   26.039">  1  9  2 -1</clus>
<clus scale="   80.631">  5  6 -1 -1</clus>
<clus scale="   91.530">  7  8 -1 -1</clus>
<clus scale="  113.955">  1  5  2 -1</clus>
<clus scale="   26.039">  1  5  2 -1</clus>
</clustering>
</event>
<event>
 9    1  0.7586638E-005  0.1583838E+03  0.7546771E-02  0.1209748E+00
         21   -1    0    0  501  502  0.00000000000E+00  0.00000000000E+00  0.13440868323E+03  0.13440868323E+03  0.00000000000E+00 0.  1.
          1   -1    0    0  502    0 -0.00000000000E+00 -0.00000000000E+00 -0.33354828248E+03  0.33354828248E+03  0.00000000000E+00 0. -1.
         23    2    1    2    0    0  0.38782836467E+02 -0.33642012137E+02  0.86014428575E+01  0.10470550998E+03  0.90848035843E+02 0.  0.
        -24    2    1    2    0    0  0.64107871320E+02  0.12309153929E+03 -0.11643463327E+03  0.19916435705E+03  0.82753072952E+02 0.  0.
         11    1    4    4    0    0  0.81792819030E+02  0.92361172721E+02 -0.10471898058E+03  0.16182310207E+03  0.00000000000E+00 0. -1.
        -12    1    4    4    0    0 -0.17684947710E+02  0.30730366574E+02 -0.11715652697E+02  0.37341254979E+02  0.00000000000E+00 0.  1.
        -13    1    3    3    0    0  0.61752673831E+02 -0.30298822683E+02 -0.16272048374E+02  0.70683738862E+02  0.00000000000E+00 0.  1.
         13    1    3    3    0    0 -0.22969837363E+02 -0.33431894539E+01  0.24873491231E+02  0.34021771122E+02  0.00000000000E+00 0. -1.
          2    1    1    2  501    0 -0.10289070779E+03 -0.89449527157E+02 -0.91306408837E+02  0.16408709868E+03  0.00000000000E+00 0. -1.
<scales pt_clust_5="13000.00000" pt_clust_6="13000.00000" pt_clust_7="13000.00000" pt_clust_8="13000.00000" pt_clust_9="135.04581"></scales>
<clustering>
<clus scale="   82.753">  5  6 -1 -1</clus>
<clus scale="   90.848">  7  8 -1 -1</clus>
<clus scale="  104.352">  2  7  1 -1</clus>
<clus scale="  135.046">  1  9  2 -1</clus>
<clus scale="  135.046">  1  5  2 -1</clus>
</clustering>
</event>
<event>
 9    1  0.7586638E-005  0.2374170E+03  0.7546771E-02  0.1147123E+00
          1   -1    0    0  502    0 -0.00000000000E+00  0.00000000000E+00  0.13844999358E+04  0.13844999358E+04  0.00000000000E+00 0. -1.
         21   -1    0    0  501  502  0.00000000000E+00 -0.00000000000E+00 -0.65373064745E+02  0.65373064745E+02  0.00000000000E+00 0. -1.
         23    2    1    2    0    0  0.29451176365E+02 -0.82682289992E+02  0.25223151027E+03  0.28250250300E+03  0.92104270034E+02 0.  0.
        -24    2    1    2    0    0 -0.22573713623E+03  0.10423152583E+03  0.45947709863E+03  0.52866125791E+03  0.80882975958E+02 0.  0.
         13    1    4    4    0    0 -0.15087880516E+03  0.71762984703E+02  0.37835080763E+03  0.41359844469E+03  0.00000000000E+00 0. -1.
        -14    1    4    4    0    0 -0.74858331071E+02  0.32468541127E+02  0.81126291001E+02  0.11506281322E+03  0.00000000000E+00 0.  1.
        -13    1    3    3    0    0 -0.69747575406E+01 -0.77089444016E+02  0.10332025214E+03  0.12909881535E+03  0.00000000000E+00 0. -1.
         13    1    3    3    0    0  0.36425933906E+02 -0.55928459765E+01  0.14891125813E+03  0.15340368765E+03  0.00000000000E+00 0.  1.
          2    1    1    2  501    0  0.19628595986E+03 -0.21549235838E+02  0.60741826217E+03  0.63870923965E+03  0.00000000000E+00 0. -1.
<scales pt_clust_5="13000.00000" pt_clust_6="13000.00000" pt_clust_7="13000.00000" pt_clust_8="13000.00000" pt_clust_9="223.21474"></scales>
<clustering>
<clus scale="   80.883">  5  6 -1 -1</clus>
<clus scale="   92.104">  7  8 -1 -1</clus>
<clus scale="  127.228">  1  7  2 -1</clus>
<clus scale="  223.215">  2  9  1 -1</clus>
<clus scale="  223.215">  2  5  1 -1</clus>
</clustering>
</event>
<event>
 9    1  0.7586638E-005  0.1068379E+03  0.7546771E-02  0.1270273E+00
         21   -1    0    0  501  502  0.00000000000E+00  0.00000000000E+00  0.36033389535E+03  0.36033389535E+03  0.00000000000E+00 0. -1.
          3   -1    0    0  502    0 -0.00000000000E+00 -0.00000000000E+00 -0.97042038234E+02  0.97042038234E+02  0.00000000000E+00 0. -1.
         23    2    1    2    0    0  0.62000775079E+02 -0.86020758215E+01 -0.31654047140E+02  0.11444638462E+03  0.90431766721E+02 0.  0.
        -24    2    1    2    0    0 -0.13218129350E+02  0.37358540998E+02  0.26242695261E+03  0.27762898978E+03  0.81483562668E+02 0.  0.
         13    1    4    4    0    0 -0.37257315169E+02  0.39325558383E+02  0.10289550005E+03  0.11628452608E+03  0.00000000000E+00 0. -1.
        -14    1    4    4    0    0  0.24039185818E+02 -0.19670173852E+01  0.15953145256E+03  0.16134446370E+03  0.00000000000E+00 0.  1.
        -13    1    3    3    0    0  0.61142554395E+02 -0.32816260772E+02 -0.48739438885E+02  0.84798890511E+02  0.00000000000E+00 0. -1.
         13    1    3    3    0    0  0.85822068390E+00  0.24214184951E+02  0.17085391746E+02  0.29647494104E+02  0.00000000000E+00 0.  1.
          4    1    1    2  501    0 -0.48782645728E+02 -0.28756465177E+02  0.32518951654E+02  0.65300559189E+02  0.00000000000E+00 0. -1.
<scales pt_clust_5="13000.00000" pt_clust_6="13000.00000" pt_clust_7="13000.00000" pt_clust_8="13000.00000" pt_clust_9="56.62759"></scales>
<clustering>
<clus scale="   56.628">  1  9  2 -1</clus>
<clus scale="   81.484">  5  6 -1 -1</clus>
<clus scale="   90.432">  7  8 -1 -1</clus>
<clus scale="   99.378">  1  5  2 -1</clus>
<clus scale="   56.628">  1  5  2 -1</clus>
</clustering>
</event>
<event>
 9    1  0.7586638E-005  0.1288247E+03  0.7546771E-02  0.1244436E+00
         -2   -1    0    0    0  501 -0.00000000000E+00  0.00000000000E+00  0.51574202612E+02  0.51574202612E+02  0.00000000000E+00 0.  1.
         21   -1    0    0  501  502  0.00000000000E+00 -0.00000000000E+00 -0.65980561667E+03  0.65980561667E+03  0.00000000000E+00 0.  1.
        -24    2    1    2    0    0  0.53693016898E+02 -0.38180971834E+01 -0.25187515507E+03  0.26898582974E+03  0.77554915592E+02 0.  0.
         23    2    1    2    0    0  0.20160044960E+02 -0.67378678004E+02 -0.56779396837E+02  0.12574031140E+03  0.87409452250E+02 0.  0.
         13    1    3    3    0    0  0.72568926868E+02 -0.20934986280E+01 -0.16834553489E+03  0.18333262394E+03  0.00000000000E+00 0. -1.
        -14    1    3    3    0    0 -0.18875909970E+02 -0.17245985555E+01 -0.83529620181E+02  0.85653205806E+02  0.00000000000E+00 0.  1.
        -13    1    4    4    0    0  0.43887273465E+02 -0.56182246144E+02 -0.98420795957E+01  0.71968076845E+02  0.00000000000E+00 0.  1.
         13    1    4    4    0    0 -0.23727228505E+02 -0.11196431860E+02 -0.46937317241E+02  0.53772234552E+02  0.00000000000E+00 0. -1.
         -1    1    1    2    0  502 -0.73853061858E+02  0.71196775188E+02 -0.29957686215E+03  0.31665367814E+03  0.00000000000E+00 0.  1.
<scales pt_clust_5="13000.00000" pt_clust_6="13000.00000" pt_clust_7="13000.00000" pt_clust_8="13000.00000" pt_clust_9="94.63290"></scales>
<clustering>
<clus scale="   77.555">  5  6 -1 -1</clus>
<clus scale="   87.409">  7  8 -1 -1</clus>
<clus scale="   94.405">  1  5  2 -1</clus>
<clus scale="   94.633">  2  9  1 -1</clus>
<clus scale="   94.633">  2  5  1 -1</clus>
</clustering>
</event>
<event>
 9    1  0.7586638E-005  0.1000654E+03  0.7546771E-02  0.1285489E+00
          1   -1    0    0  502    0 -0.00000000000E+00  0.00000000000E+00  0.40903392450E+03  0.40903392450E+03  0.00000000000E+00 0. -1.
         21   -1    0    0  501  502  0.00000000000E+00 -0.00000000000E+00 -0.31316020300E+02  0.31316020300E+02  0.00000000000E+00 0.  1.
        -24    2    1    2    0    0 -0.30071408786E+02  0.38604843504E+02  0.19831952257E+03  0.21976269666E+03  0.81057919060E+02 0.  0.
         23    2    1    2    0    0  0.29698609430E+02 -0.81966662773E+01  0.12245838324E+03  0.15603525640E+03  0.91661076104E+02 0.  0.
         11    1    3    3    0    0 -0.26482640972E+02  0.50515415157E+02  0.19928442278E+03  0.20728583793E+03  0.00000000000E+00 0. -1.
        -12    1    3    3    0    0 -0.35887678145E+01 -0.11910571652E+02 -0.96490020894E+00  0.12476858736E+02  0.00000000000E+00 0.  1.
        -13    1    4    4    0    0  0.53964662073E+02 -0.94749346489E+01  0.34419466663E+02  0.64704395713E+02  0.00000000000E+00 0.  1.
         13    1    4    4    0    0 -0.24266052642E+02  0.12782683717E+01  0.88038916581E+02  0.91330860686E+02  0.00000000000E+00 0. -1.
          2    1    1    2  501    0  0.37279935585E+00 -0.30408177227E+02  0.56939998383E+02  0.64551991739E+02  0.00000000000E+00 0. -1.
<scales pt_clust_5="13000.00000" pt_clust_6="13000.00000" pt_clust_7="13000.00000" pt_clust_8="13000.00000" pt_clust_9="30.41048"></scales>
<clustering>
<clus scale="   30.410">  2  9  1 -1</clus>
<clus scale="   81.058">  5  6 -1 -1</clus>
<clus scale="   90.453">  1  5  2 -1</clus>
<clus scale="   91.661">  7  8 -1 -1</clus>
<clus scale="   30.410">  2  5  1 -1</clus>
</clustering>
</event>
<event>
 9    1  0.7586638E-005  0.1709680E+03  0.7546771E-02  0.1200368E+00
          1   -1    0    0  502    0 -0.00000000000E+00  0.00000000000E+00  0.44767128438E+03  0.44767128438E+03  0.00000000000E+00 0. -1.
         21   -1    0    0  501  502  0.00000000000E+00 -0.00000000000E+00 -0.14975823695E+03  0.14975823695E+03  0.00000000000E+00 0. -1.
        -24    2    1    2    0    0  0.57721136988E+02 -0.24495061994E+02 -0.49797975347E+02  0.11308753140E+03  0.79857458590E+02 0.  0.
         23    2    1    2    0    0  0.27983516748E+02  0.13815814286E+03  0.10378821505E+03  0.20191869105E+03  0.10064002467E+03 0.  0.
         11    1    3    3    0    0  0.14872810836E+02 -0.44333438609E+02 -0.46196186768E+02  0.65732350886E+02  0.00000000000E+00 0. -1.
        -12    1    3    3    0    0  0.42848326152E+02  0.19838376615E+02 -0.36017885787E+01  0.47355180516E+02  0.00000000000E+00 0.  1.
        -13    1    4    4    0    0 -0.21332505470E+02  0.74563823014E+02  0.97801078856E+01  0.78169623271E+02  0.00000000000E+00 0. -1.
         13    1    4    4    0    0  0.49316022217E+02  0.63594319842E+02  0.94008107165E+02  0.12374906778E+03  0.00000000000E+00 0.  1.
          2    1    1    2  501    0 -0.85704653736E+02 -0.11366308086E+03  0.24392280773E+03  0.28242329888E+03  0.00000000000E+00 0. -1.
<scales pt_clust_5="13000.00000" pt_clust_6="13000.00000" pt_clust_7="13000.00000" pt_clust_8="13000.00000" pt_clust_9="138.20872"></scales>
<clustering>
<clus scale="   79.857">  5  6 -1 -1</clus>
<clus scale="  100.640">  7  8 -1 -1</clus>
<clus scale="  101.533">  1  5  2 -1</clus>
<clus scale="  138.209">  2  9  1 -1</clus>
<clus scale="  138.209">  2  5  1 -1</clus>
</clustering>
</event>
<event>
 9    1  0.7586638E-005  0.1005267E+03  0.7546771E-02  0.1283739E+00
          1   -1    0    0  502    0 -0.00000000000E+00  0.00000000000E+00  0.44035432925E+03  0.44035432925E+03  0.00000000000E+00 0. -1.
         21   -1    0    0  501  502  0.00000000000E+00 -0.00000000000E+00 -0.36081684515E+02  0.36081684515E+02  0.00000000000E+00 0.  1.
        -24    2    1    2    0    0 -0.27872622638E+02  0.35291533020E+02  0.23021998056E+03  0.24783651027E+03  0.79995755986E+02 0.  0.
         23    2    1    2    0    0  0.13164956246E+02 -0.49956007846E+02  0.75672161176E+02  0.12805058186E+03  0.89452539063E+02 0.  0.
         13    1    3    3    0    0 -0.36860415914E+02  0.16166351366E+02  0.41051735615E+02  0.57491618301E+02  0.00000000000E+00 0. -1.
        -14    1    3    3    0    0  0.89877932758E+01  0.19125181654E+02  0.18916824495E+03  0.19034489197E+03  0.00000000000E+00 0.  1.
        -13    1    4    4    0    0 -0.29144723302E+02 -0.32596568505E+02  0.51917012204E+01  0.44032998265E+02  0.00000000000E+00 0.  1.
         13    1    4    4    0    0  0.42309679548E+02 -0.17359439341E+02  0.70480459955E+02  0.84017583595E+02  0.00000000000E+00 0. -1.
          2    1    1    2  501    0  0.14707666392E+02  0.14664474826E+02  0.98380502997E+02  0.10054892164E+03  0.00000000000E+00 0. -1.
<scales pt_clust_5="13000.00000" pt_clust_6="13000.00000" pt_clust_7="13000.00000" pt_clust_8="13000.00000" pt_clust_9="20.76927"></scales>
<clustering>
<clus scale="   20.769">  2  9  1 -1</clus>
<clus scale="   79.996">  5  6 -1 -1</clus>
<clus scale="   89.453">  7  8 -1 -1</clus>
<clus scale="   92.213">  1  5  2 -1</clus>
<clus scale="   20.769">  2  5  1 -1</clus>
</clustering>
</event>
<event>
 9    1  0.7586638E-005  0.1036431E+03  0.7546771E-02  0.1278016E+00
         -2   -1    0    0    0  501 -0.00000000000E+00  0.00000000000E+00  0.27326994229E+03  0.27326994229E+03  0.00000000000E+00 0.  1.
         21   -1    0    0  501  502  0.00000000000E+00 -0.00000000000E+00 -0.11893521086E+03  0.11893521086E+03  0.00000000000E+00 0. -1.
        -24    2    1    2    0    0 -0.34002500399E+02 -0.33676793096E+02  0.13658024510E+03  0.16540353971E+03  0.80086647879E+02 0.  0.
         23    2    1    2    0    0  0.24673048222E+02  0.53839647771E+02 -0.74467799144E+02  0.13194103509E+03  0.91408515201E+02 0.  0.
         11    1    3    3    0    0  0.15838596465E+02  0.15463788698E+02  0.44897520771E+02  0.50057739364E+02  0.00000000000E+00 0. -1.
        -12    1    3    3    0    0 -0.49841096864E+02 -0.49140581795E+02  0.91682724332E+02  0.11534580034E+03  0.00000000000E+00 0.  1.
        -13    1    4    4    0    0 -0.15176048398E+02  0.59944074680E+02 -0.21692649048E+02  0.65529959232E+02  0.00000000000E+00 0.  1.
         13    1    4    4    0    0  0.39849096620E+02 -0.61044269088E+01 -0.52775150096E+02  0.66411075861E+02  0.00000000000E+00 0. -1.
         -1    1    1    2    0  502  0.93294521777E+01 -0.20162854674E+02  0.92222285473E+02  0.94860578347E+02  0.00000000000E+00 0.  1.
<scales pt_clust_5="13000.00000" pt_clust_6="13000.00000" pt_clust_7="13000.00000" pt_clust_8="13000.00000" pt_clust_9="22.21666"></scales>
<clustering>
<clus scale="   22.217">  2  9  1 -1</clus>
<clus scale="   80.087">  5  6 -1 -1</clus>
<clus scale="   91.409">  7  8 -1 -1</clus>
<clus scale="   93.810">  1  5  2 -1</clus>
<clus scale="   22.217">  2  5  1 -1</clus>
</clustering>
</event>
<event>
 9    1  0.7586638E-005  0.8643017E+02  0.7546771E-02  0.1313103E+00
          1   -1    0    0  502    0 -0.00000000000E+00  0.00000000000E+00  0.46354792331E+02  0.46354792331E+02  0.00000000000E+00 0. -1.
         21   -1    0    0  501  502  0.00000000000E+00 -0.00000000000E+00 -0.26696057463E+03  0.26696057463E+03  0.00000000000E+00 0. -1.
        -24    2    1    2    0    0  0.11644858094E+02  0.13701512784E+02 -0.43165672225E+02  0.92414910850E+02  0.79711393892E+02 0.  0.
         23    2    1    2    0    0 -0.81259936237E+01 -0.48002717983E+02 -0.11313491665E+03  0.14793393648E+03  0.81942952666E+02 0.  0.
         13    1    3    3    0    0  0.21290078026E+02 -0.20692384412E+02 -0.47927613454E+02  0.56378172429E+02  0.00000000000E+00 0. -1.
        -14    1    3    3    0    0 -0.96452199320E+01  0.34393897195E+02  0.47619412291E+01  0.36036738422E+02  0.00000000000E+00 0.  1.
        -13    1    4    4    0    0  0.16317975827E+01 -0.26947526879E+02 -0.12057789549E+03  0.12356318566E+03  0.00000000000E+00 0.  1.
         13    1    4    4    0    0 -0.97577912064E+01 -0.21055191104E+02  0.74429788446E+01  0.24370750824E+02  0.00000000000E+00 0. -1.
          2    1    1    2  501    0 -0.35188644702E+01  0.34301205199E+02 -0.64305193431E+02  0.72966519634E+02  0.00000000000E+00 0. -1.
<scales pt_clust_5="13000.00000" pt_clust_6="13000.00000" pt_clust_7="13000.00000" pt_clust_8="13000.00000" pt_clust_9="34.48123"></scales>
<clustering>
<clus scale="   34.481">  2  9  1 -1</clus>
<clus scale="   79.711">  5  6 -1 -1</clus>
<clus scale="   81.943">  7  8 -1 -1</clus>
<clus scale="   84.317">  1  5  2 -1</clus>
<clus scale="   34.481">  2  5  1 -1</clus>
</clustering>
</event>
<event>
 9    1  0.7586638E-005  0.1135257E+03  0.7546771E-02  0.1265223E+00
         21   -1    0    0  501  502  0.00000000000E+00  0.00000000000E+00  0.92810394118E+02  0.92810394118E+02  0.00000000000E+00 0.  1.
          1   -1    0    0  502    0 -0.00000000000E+00 -0.00000000000E+00 -0.59178775570E+03  0.59178775570E+03  0.00000000000E+00 0. -1.
         23    2    1    2    0    0 -0.32611133124E+02 -0.35547080377E+02 -0.52717942285E+03  0.53963693198E+03  0.10470335982E+03 0.  0.
        -24    2    1    2    0    0 -0.93291209811E+01  0.30541590438E+02 -0.11461087148E+02  0.87019823426E+02  0.80132839122E+02 0.  0.
         13    1    4    4    0    0 -0.40200588392E+02  0.98017204291E+01 -0.23923130769E+02  0.47796205040E+02  0.00000000000E+00 0. -1.
        -14    1    4    4    0    0  0.30871467411E+02  0.20739870009E+02  0.12462043622E+02  0.39223618386E+02  0.00000000000E+00 0.  1.
        -11    1    3    3    0    0  0.37093561161E+01  0.35391601976E+02 -0.16309249827E+03  0.16692958936E+03  0.00000000000E+00 0.  1.
         11    1    3    3    0    0 -0.36320489241E+02 -0.70938682353E+02 -0.36408692458E+03  0.37270734262E+03  0.00000000000E+00 0. -1.
          2    1    1    2  501    0  0.41940254106E+02  0.50054899390E+01  0.39663148415E+02  0.57941394410E+02  0.00000000000E+00 0. -1.
<scales pt_clust_5="13000.00000" pt_clust_6="13000.00000" pt_clust_7="13000.00000" pt_clust_8="13000.00000" pt_clust_9="42.23790"></scales>
<clustering>
<clus scale="   42.238">  1  9  2 -1</clus>
<clus scale="   80.133">  5  6 -1 -1</clus>
<clus scale="   91.360">  1  5  2 -1</clus>
<clus scale="  104.703">  7  8 -1 -1</clus>
<clus scale="   42.238">  1  5  2 -1</clus>
</clustering>
</event>
<event>
 9    1  0.7586638E-005  0.3644950E+03  0.7546771E-02  0.1056818E+00
         21   -1    0    0  501  502  0.00000000000E+00  0.00000000000E+00  0.22326986284E+03  0.22326986284E+03  0.00000000000E+00 0. -1.
          1   -1    0    0  502    0 -0.00000000000E+00 -0.00000000000E+00 -0.53810479188E+03  0.53810479188E+03  0.00000000000E+00 0. -1.
        -24    2    1    2    0    0  0.12200857399E+03  0.15193015303E+03 -0.22030287281E+03  0.30461209562E+03  0.79286250428E+02 0.  0.
         23    2    1    2    0    0  0.56928575490E+01  0.11300634970E+03 -0.70501855981E+02  0.16167535737E+03  0.91463466946E+02 0.  0.
         13    1    3    3    0    0  0.10063961588E+03  0.12078672526E+03 -0.12106618928E+03  0.19843081280E+03  0.00000000000E+00 0. -1.
        -14    1    3    3    0    0  0.21368958112E+02  0.31143427773E+02 -0.99236683530E+02  0.10618128282E+03  0.00000000000E+00 0.  1.
        -11    1    4    4    0    0  0.71336005239E+01  0.65538369975E+02  0.11493918999E+02  0.66919925055E+02  0.00000000000E+00 0.  1.
         11    1    4    4    0    0 -0.14407429749E+01  0.47467979725E+02 -0.81995774980E+02  0.94755432319E+02  0.00000000000E+00 0. -1.
          2    1    1    2  501    0 -0.12770143154E+03 -0.26493650273E+03 -0.24030200258E+02  0.29508720172E+03  0.00000000000E+00 0. -1.
<scales pt_clust_5="13000.00000" pt_clust_6="13000.00000" pt_clust_7="13000.00000" pt_clust_8="13000.00000" pt_clust_9="294.10713"></scales>
<clustering>
<clus scale="   79.286">  5  6 -1 -1</clus>
<clus scale="   91.463">  7  8 -1 -1</clus>
<clus scale="  127.107">  5  7 -1 -1</clus>
<clus scale="  294.107">  1  9  2 -1</clus>
<clus scale="  294.107">  1  5  2 -1</clus>
</clustering>
</event>
<event>
 9    1  0.7586638E-005  0.1164018E+03  0.7546771E-02  0.1251562E+00
          3   -1    0    0  502    0 -0.00000000000E+00  0.00000000000E+00  0.60347922927E+03  0.60347922927E+03  0.00000000000E+00 0. -1.
         21   -1    0    0  501  502  0.00000000000E+00 -0.00000000000E+00 -0.54427621345E+02  0.54427621345E+02  0.00000000000E+00 0. -1.
         23    2    1    2    0    0  0.55851055569E+02 -0.49841787787E+02  0.42123826755E+03  0.43701657771E+03  0.89096952408E+02 0.  0.
        -24    2    1    2    0    0 -0.88101502880E+02  0.73776987223E+01  0.11388845694E+03  0.16577954264E+03  0.81828912276E+02 0.  0.
         11    1    4    4    0    0 -0.53079362131E+02 -0.32055998157E+02  0.86276888948E+02  0.10624832831E+03  0.00000000000E+00 0. -1.
        -12    1    4    4    0    0 -0.35022140749E+02  0.39433696879E+02  0.27611567995E+02  0.59531214328E+02  0.00000000000E+00 0.  1.
        -13    1    3    3    0    0 -0.20085973524E+02  0.68212172431E+01  0.92179708018E+02  0.94588973498E+02  0.00000000000E+00 0.  1.
         13    1    3    3    0    0  0.75937029093E+02 -0.56663005030E+02  0.32905855953E+03  0.34242760421E+03  0.00000000000E+00 0. -1.
          4    1    1    2  501    0  0.32250447311E+02  0.42464089065E+02  0.13924883434E+02  0.55110730267E+02  0.00000000000E+00 0. -1.
<scales pt_clust_5="13000.00000" pt_clust_6="13000.00000" pt_clust_7="13000.00000" pt_clust_8="13000.00000" pt_clust_9="53.32251"></scales>
<clustering>
<clus scale="   53.323">  2  9  1 -1</clus>
<clus scale="   81.829">  5  6 -1 -1</clus>
<clus scale="   89.097">  7  8 -1 -1</clus>
<clus scale="  110.937">  2  5  1 -1</clus>
<clus scale="   53.323">  2  5  1 -1</clus>
</clustering>
</event>
<event>
 9    1  0.7586638E-005  0.9611996E+02  0.7546771E-02  0.1295393E+00
          1   -1    0    0  502    0 -0.00000000000E+00  0.00000000000E+00  0.10990580657E+03  0.10990580657E+03  0.00000000000E+00 0. -1.
         21   -1    0    0  501  502  0.00000000000E+00 -0.00000000000E+00 -0.17102125698E+03  0.17102125698E+03  0.00000000000E+00 0.  1.
         23    2    1    2    0    0 -0.31237237145E+01  0.36076259676E+02  0.59636950665E+02  0.11445093555E+03  0.90725942269E+02 0.  0.
        -24    2    1    2    0    0  0.23024289745E+01 -0.10671877311E+02 -0.11609535793E+03  0.14063536140E+03  0.78619225367E+02 0.  0.
         13    1    4    4    0    0 -0.17428360025E+02  0.22059621989E+02 -0.13568098943E+02  0.31216469441E+02  0.00000000000E+00 0. -1.
        -14    1    4    4    0    0  0.19730788999E+02 -0.32731499301E+02 -0.10252725899E+03  0.10941889195E+03  0.00000000000E+00 0.  1.
        -11    1    3    3    0    0 -0.38632027082E+01  0.66296366551E+02  0.48507401390E+02  0.82238072343E+02  0.00000000000E+00 0. -1.
         11    1    3    3    0    0  0.73947899369E+00 -0.30220106874E+02  0.11129549275E+02  0.32212863203E+02  0.00000000000E+00 0.  1.
          2    1    1    2  501    0  0.82129474003E+00 -0.25404382365E+02 -0.46570431480E+01  0.25840766616E+02  0.00000000000E+00 0. -1.
<scales pt_clust_5="13000.00000" pt_clust_6="13000.00000" pt_clust_7="13000.00000" pt_clust_8="13000.00000" pt_clust_9="25.41767"></scales>
<clustering>
<clus scale="   25.418">  2  9  1 -1</clus>
<clus scale="   78.619">  5  6 -1 -1</clus>
<clus scale="   84.787">  2  5  1 -1</clus>
<clus scale="   90.726">  7  8 -1 -1</clus>
<clus scale="   25.418">  2  5  1 -1</clus>
</clustering>
</event>
<event>
 9    1  0.7586638E-005  0.9576865E+02  0.7546771E-02  0.1296956E+00
         -2   -1    0    0    0  501 -0.00000000000E+00  0.00000000000E+00  0.34467180157E+03  0.34467180157E+03  0.00000000000E+00 0.  1.
         21   -1    0    0  501  502  0.00000000000E+00 -0.00000000000E+00 -0.45533548530E+02  0.45533548530E+02  0.00000000000E+00 0.  1.
         23    2    1    2    0    0 -0.18330975731E+02 -0.14271533873E+02  0.23694042984E+03  0.25568603436E+03  0.93246337868E+02 0.  0.
        -24    2    1    2    0    0  0.27776222098E+02 -0.15122437617E+02  0.56286712788E+02  0.10308431192E+03  0.80361524958E+02 0.  0.
         13    1    4    4    0    0  0.54739480695E+02 -0.18834042223E+02  0.46175381339E+02  0.74049292603E+02  0.00000000000E+00 0. -1.
        -14    1    4    4    0    0 -0.26963258597E+02  0.37116046060E+01  0.10111331450E+02  0.29035019315E+02  0.00000000000E+00 0.  1.
        -13    1    3    3    0    0 -0.14105361511E+01 -0.49474610477E+02  0.17968423278E+03  0.18637636708E+03  0.00000000000E+00 0.  1.
         13    1    3    3    0    0 -0.16920439580E+02  0.35203076604E+02  0.57256197054E+02  0.69309667285E+02  0.00000000000E+00 0. -1.
         -1    1    1    2    0  502 -0.94452463670E+01  0.29393971489E+02  0.59111104144E+01  0.31435003820E+02  0.00000000000E+00 0.  1.
<scales pt_clust_5="13000.00000" pt_clust_6="13000.00000" pt_clust_7="13000.00000" pt_clust_8="13000.00000" pt_clust_9="30.87423"></scales>
<clustering>
<clus scale="   30.874">  2  9  1 -1</clus>
<clus scale="   80.362">  5  6 -1 -1</clus>
<clus scale="   83.275">  2  5  1 -1</clus>
<clus scale="   93.246">  7  8 -1 -1</clus>
<clus scale="   30.874">  2  5  1 -1</clus>
</clustering>
</event>
<event>
 9    1  0.7586638E-005  0.1779086E+03  0.7546771E-02  0.1171185E+00
         21   -1    0    0  501  502  0.00000000000E+00  0.00000000000E+00  0.11014252214E+04  0.11014252214E+04  0.00000000000E+00 0.  1.
          3   -1    0    0  502    0 -0.00000000000E+00 -0.00000000000E+00 -0.81889579828E+02  0.81889579828E+02  0.00000000000E+00 0. -1.
         23    2    1    2    0    0  0.14922846594E+03  0.18859904821E+02  0.39884255784E+02  0.18060594350E+03  0.91667452845E+02 0.  0.
        -24    2    1    2    0    0 -0.16411156863E+03 -0.36638514507E+02  0.79408510744E+03  0.81569968852E+03  0.80745503240E+02 0.  0.
         13    1    4    4    0    0 -0.48210902824E+02  0.19920541020E+02  0.14948573731E+03  0.15832594470E+03  0.00000000000E+00 0. -1.
        -14    1    4    4    0    0 -0.11590066581E+03 -0.56559055527E+02  0.64459937013E+03  0.65737374382E+03  0.00000000000E+00 0.  1.
        -11    1    3    3    0    0  0.45202440701E+02  0.26636694704E+02 -0.24621173222E+02  0.57956676241E+02  0.00000000000E+00 0. -1.
         11    1    3    3    0    0  0.10402602524E+03 -0.77767898830E+01  0.64505429005E+02  0.12264926726E+03  0.00000000000E+00 0.  1.
          4    1    1    2  501    0  0.14883102698E+02  0.17778609687E+02  0.18556627839E+03  0.18700916926E+03  0.00000000000E+00 0. -1.
<scales pt_clust_5="13000.00000" pt_clust_6="13000.00000" pt_clust_7="13000.00000" pt_clust_8="13000.00000" pt_clust_9="23.18589"></scales>
<clustering>
<clus scale="   23.186">  1  9  2 -1</clus>
<clus scale="   80.746">  5  6 -1 -1</clus>
<clus scale="   91.667">  7  8 -1 -1</clus>
<clus scale="  172.535">  1  5  2 -1</clus>
<clus scale="   23.186">  1  5  2 -1</clus>
</clustering>
</event>
<event>
 9    1  0.7586638E-005  0.9158442E+02  0.7546771E-02  0.1304987E+00
         21   -1    0    0  501  502  0.00000000000E+00  0.00000000000E+00  0.24123882267E+03  0.24123882267E+03  0.00000000000E+00 0.  1.
          1   -1    0    0  502    0 -0.00000000000E+00 -0.00000000000E+00 -0.77908600060E+02  0.77908600060E+02  0.00000000000E+00 0. -1.
        -24    2    1    2    0    0 -0.17024300989E+02 -0.87423861257E+01 -0.26104994469E+02  0.87240863738E+02  0.81013834808E+02 0.  0.
         23    2    1    2    0    0 -0.17494149042E+02 -0.53988424851E+01  0.15837245778E+03  0.18336386897E+03  0.90583002319E+02 0.  0.
         13    1    3    3    0    0  0.29251397045E+02  0.60335361777E+01 -0.24511043886E+02  0.38637275528E+02  0.00000000000E+00 0. -1.
        -14    1    3    3    0    0 -0.46275698034E+02 -0.14775922303E+02 -0.15939505833E+01  0.48603588210E+02  0.00000000000E+00 0.  1.
        -11    1    4    4    0    0  0.28269281064E+02 -0.28931477842E+02  0.60296418407E+02  0.72607442695E+02  0.00000000000E+00 0. -1.
         11    1    4    4    0    0 -0.45763430106E+02  0.23532635357E+02  0.98076039373E+02  0.11075642627E+03  0.00000000000E+00 0.  1.
          2    1    1    2  501    0  0.34518450031E+02  0.14141228611E+02  0.31062759294E+02  0.48542690018E+02  0.00000000000E+00 0. -1.
<scales pt_clust_5="13000.00000" pt_clust_6="13000.00000" pt_clust_7="13000.00000" pt_clust_8="13000.00000" pt_clust_9="37.30278"></scales>
<clustering>
<clus scale="   37.303">  1  9  2 -1</clus>
<clus scale="   81.014">  5  6 -1 -1</clus>
<clus scale="   82.132">  2  5  1 -1</clus>
<clus scale="   90.583">  7  8 -1 -1</clus>
<clus scale="   37.303">  1  5  2 -1</clus>
</clustering>
</event>
<event>
 9    1  0.7586638E-005  0.9215352E+02  0.7546771E-02  0.1303676E+00
          3   -1    0    0  502    0 -0.00000000000E+00  0.00000000000E+00  0.16734969039E+03  0.16734969039E+03  0.00000000000E+00 0. -1.
         21   -1    0    0  501  502  0.00000000000E+00 -0.00000000000E+00 -0.12007964319E+03  0.12007964319E+03  0.00000000000E+00 0.  1.
         23    2    1    2    0    0  0.72977469896E+01  0.17127418691E+01  0.11293567742E+03  0.14575988308E+03  0.91843811357E+02 0.  0.
        -24    2    1    2    0    0  0.36923067659E+00  0.33955912595E+02 -0.48851964586E+02  0.10149813225E+03  0.82232694680E+02 0.  0.
         13    1    4    4    0    0 -0.36381239640E+02  0.13556331616E+02 -0.24690357146E+01  0.38903275723E+02  0.00000000000E+00 0. -1.
        -14    1    4    4    0    0  0.36750470317E+02  0.20399580980E+02 -0.46382928871E+02  0.62594856525E+02  0.00000000000E+00 0.  1.
        -11    1    3    3    0    0  0.27745943900E+02  0.15904007051E+02  0.19749279944E+01  0.32041772482E+02  0.00000000000E+00 0. -1.
         11    1    3    3    0    0 -0.20448196911E+02 -0.14191265182E+02  0.11096074943E+03  0.11371811060E+03  0.00000000000E+00 0.  1.
          4    1    1    2  501    0 -0.76669776662E+01 -0.35668654464E+02 -0.16813665632E+02  0.40171318249E+02  0.00000000000E+00 0. -1.
<scales pt_clust_5="13000.00000" pt_clust_6="13000.00000" pt_clust_7="13000.00000" pt_clust_8="13000.00000" pt_clust_9="36.48336"></scales>
<clustering>
<clus scale="   36.483">  2  9  1 -1</clus>
<clus scale="   82.233">  5  6 -1 -1</clus>
<clus scale="   82.578">  2  5  1 -1</clus>
<clus scale="   91.844">  7  8 -1 -1</clus>
<clus scale="   36.483">  2  5  1 -1</clus>
</clustering>
</event>
<event>
 9    1  0.7586638E-005  0.1042645E+03  0.7546771E-02  0.1272501E+00
         21   -1    0    0  501  502  0.00000000000E+00  0.00000000000E+00  0.23295453448E+03  0.23295453448E+03  0.00000000000E+00 0.  1.
         -2   -1    0    0    0  501 -0.00000000000E+00 -0.00000000000E+00 -0.98749336708E+02  0.98749336708E+02  0.00000000000E+00 0.  1.
         23    2    1    2    0    0  0.14320952379E+02 -0.67952656434E+02 -0.29405998700E+02  0.11186211453E+03  0.82618198440E+02 0.  0.
        -24    2    1    2    0    0 -0.20997647778E+02  0.47990480518E+02  0.57752824675E+02  0.11191093804E+03  0.80278775916E+02 0.  0.
         11    1    4    4    0    0 -0.11256300947E+02  0.62546545664E+02  0.66796988001E+02  0.92198765130E+02  0.00000000000E+00 0. -1.
        -12    1    4    4    0    0 -0.97413468320E+01 -0.14556065146E+02 -0.90441633252E+01  0.19712172911E+02  0.00000000000E+00 0.  1.
        -11    1    3    3    0    0  0.34682644609E+02 -0.17627684055E+02 -0.40816260463E+02  0.56387837344E+02  0.00000000000E+00 0.  1.
         11    1    3    3    0    0 -0.20361692230E+02 -0.50324972379E+02  0.11410261763E+02  0.55474277183E+02  0.00000000000E+00 0. -1.
         -1    1    1    2    0  502  0.66766953991E+01  0.19962175916E+02  0.10585837180E+03  0.10793081862E+03  0.00000000000E+00 0.  1.
<scales pt_clust_5="13000.00000" pt_clust_6="13000.00000" pt_clust_7="13000.00000" pt_clust_8="13000.00000" pt_clust_9="21.04915"></scales>
<clustering>
<clus scale="   21.049">  1  9  2 -1</clus>
<clus scale="   80.279">  5  6 -1 -1</clus>
<clus scale="   82.618">  7  8 -1 -1</clus>
<clus scale="  102.421">  1  5  2 -1</clus>
<clus scale="   21.049">  1  5  2 -1</clus>
</clustering>
</event>
<event>
 9    1  0.7586638E-005  0.1457338E+03  0.7546771E-02  0.1207993E+00
          1   -1    0    0  502    0 -0.00000000000E+00  0.00000000000E+00  0.91743588711E+02  0.91743588711E+02  0.00000000000E+00 0. -1.
         21   -1    0    0  501  502  0.00000000000E+00 -0.00000000000E+00 -0.42323291743E+03  0.42323291743E+03  0.00000000000E+00 0. -1.
        -24    2    1    2    0    0 -0.29494462608E+02  0.10596726668E+03 -0.78665034051E+02  0.15732982238E+03  0.80408335985E+02 0.  0.
         23    2    1    2    0    0  0.87115500257E+02 -0.89331529447E+02 -0.78861545437E+02  0.17363589643E+03  0.91438769914E+02 0.  0.
         13    1    3    3    0    0  0.74282547373E+01  0.41835485906E+02 -0.71250752414E+02  0.82958161558E+02  0.00000000000E+00 0. -1.
        -14    1    3    3    0    0 -0.36922717345E+02  0.64131780772E+02 -0.74142816365E+01  0.74371660822E+02  0.00000000000E+00 0.  1.
        -11    1    4    4    0    0  0.63789263554E+02 -0.10450386973E+03 -0.79181558088E+02  0.14580757208E+03  0.00000000000E+00 0. -1.
         11    1    4    4    0    0  0.23326236703E+02  0.15172340285E+02  0.32001265121E+00  0.27828324358E+02  0.00000000000E+00 0.  1.
          2    1    1    2  501    0 -0.57621037649E+02 -0.16635737231E+02 -0.17396274923E+03  0.18401078733E+03  0.00000000000E+00 0. -1.
<scales pt_clust_5="13000.00000" pt_clust_6="13000.00000" pt_clust_7="13000.00000" pt_clust_8="13000.00000" pt_clust_9="59.97443"></scales>
<clustering>
<clus scale="   59.974">  2  9  1 -1</clus>
<clus scale="   80.408">  5  6 -1 -1</clus>
<clus scale="   91.439">  7  8 -1 -1</clus>
<clus scale="  139.078">  1  5  2 -1</clus>
<clus scale="   59.974">  2  5  1 -1</clus>
</clustering>
</event>
<event>
 9    1  0.7586638E-005  0.1149607E+03  0.7546771E-02  0.1258075E+00
         21   -1    0    0  501  502  0.00000000000E+00  0.00000000000E+00  0.12665542943E+03  0.12665542943E+03  0.00000000000E+00 0. -1.
          3   -1    0    0  502    0 -0.00000000000E+00 -0.00000000000E+00 -0.62428046890E+03  0.62428046890E+03  0.00000000000E+00 0. -1.
         23    2    1    2    0    0 -0.70007727195E+02 -0.46145315479E+01 -0.57107797389E+03  0.58241395649E+03  0.90297224168E+02 0.  0.
        -24    2    1    2    0    0  0.87285661416E+02  0.30747136972E+02  0.71073943604E+02  0.13710379940E+03  0.71984534649E+02 0.  0.
         13    1    4    4    0    0  0.58487584098E+02  0.53804975489E+02  0.56155671393E+02  0.97309980529E+02  0.00000000000E+00 0. -1.
        -14    1    4    4    0    0  0.28798077318E+02 -0.23057838517E+02  0.14918272211E+02  0.39793818867E+02  0.00000000000E+00 0.  1.
        -13    1    3    3    0    0 -0.40817443225E+02 -0.47385278997E+02 -0.30616446919E+03  0.31248697658E+03  0.00000000000E+00 0.  1.
         13    1    3    3    0    0 -0.29190283969E+02  0.42770747449E+02 -0.26491350470E+03  0.26992697992E+03  0.00000000000E+00 0. -1.
          4    1    1    2  501    0 -0.17277934221E+02 -0.26132605424E+02  0.23789908196E+01  0.31418142442E+02  0.00000000000E+00 0. -1.
<scales pt_clust_5="13000.00000" pt_clust_6="13000.00000" pt_clust_7="13000.00000" pt_clust_8="13000.00000" pt_clust_9="31.32794"></scales>
<clustering>
<clus scale="   31.328">  1  9  2 -1</clus>
<clus scale="   71.985">  5  6 -1 -1</clus>
<clus scale="   90.297">  7  8 -1 -1</clus>
<clus scale="  101.213">  1  5  2 -1</clus>
<clus scale="   31.328">  1  5  2 -1</clus>
</clustering>
</event>
<event>
 9    1  0.7586638E-005  0.1075506E+03  0.7546771E-02  0.1270384E+00
         -4   -1    0    0    0  501 -0.00000000000E+00  0.00000000000E+00  0.74671634172E+02  0.74671634172E+02  0.00000000000E+00 0.  1.
         21   -1    0    0  501  502  0.00000000000E+00 -0.00000000000E+00 -0.21331526025E+03  0.21331526025E+03  0.00000000000E+00 0. -1.
        -24    2    1    2    0    0 -0.64174168699E+02 -0.19309972788E+02 -0.45601426582E+02  0.11146255207E+03  0.76506283599E+02 0.  0.
         23    2    1    2    0    0  0.42929701798E+02  0.23946918752E+02 -0.10924639856E+03  0.14940599599E+03  0.89280243204E+02 0.  0.
         13    1    3    3    0    0 -0.79650051891E+02 -0.13071345346E+02 -0.24081092304E+02  0.84231169064E+02  0.00000000000E+00 0. -1.
        -14    1    3    3    0    0  0.15475883192E+02 -0.62386274422E+01 -0.21520334278E+02  0.27231383005E+02  0.00000000000E+00 0.  1.
        -13    1    4    4    0    0  0.67129796041E+02  0.76012886641E+01 -0.95875821909E+02  0.11728751994E+03  0.00000000000E+00 0. -1.
         13    1    4    4    0    0 -0.24200094243E+02  0.16345630088E+02 -0.13370576649E+02  0.32118476057E+02  0.00000000000E+00 0.  1.
         -3    1    1    2    0  502  0.21244466901E+02 -0.46369459638E+01  0.16204199065E+02  0.27118346357E+02  0.00000000000E+00 0.  1.
<scales pt_clust_5="13000.00000" pt_clust_6="13000.00000" pt_clust_7="13000.00000" pt_clust_8="13000.00000" pt_clust_9="21.74463"></scales>
<clustering>
<clus scale="   21.745">  2  9  1 -1</clus>
<clus scale="   76.506">  5  6 -1 -1</clus>
<clus scale="   89.280">  7  8 -1 -1</clus>
<clus scale="   97.208">  1  5  2 -1</clus>
<clus scale="   21.745">  2  5  1 -1</clus>
</clustering>
</event>
<event>
 9    1  0.7586638E-005  0.9332773E+02  0.7546771E-02  0.1301258E+00
         21   -1    0    0  501  502  0.00000000000E+00  0.00000000000E+00  0.19952551769E+03  0.19952551769E+03  0.00000000000E+00 0.  1.
         -2   -1    0    0    0  501 -0.00000000000E+00 -0.00000000000E+00 -0.10226096070E+03  0.10226096070E+03  0.00000000000E+00 0.  1.
        -24    2    1    2    0    0 -0.19089259762E+02  0.18650898143E+02 -0.28868720020E+02  0.90504351817E+02  0.81519193215E+02 0.  0.
         23    2    1    2    0    0  0.80922222068E+01  0.18369226898E+02  0.17111929424E+02  0.95622804761E+02  0.91912948515E+02 0.  0.
         11    1    3    3    0    0 -0.30350397684E+02 -0.70617288772E+01  0.17916197419E+02  0.35944468062E+02  0.00000000000E+00 0. -1.
        -12    1    3    3    0    0  0.11261137922E+02  0.25712627020E+02 -0.46784917439E+02  0.54559883755E+02  0.00000000000E+00 0.  1.
        -13    1    4    4    0    0 -0.57036412669E+01  0.52129638097E+02  0.25330241264E+02  0.58237889852E+02  0.00000000000E+00 0.  1.
         13    1    4    4    0    0  0.13795863474E+02 -0.33760411199E+02 -0.82183118400E+01  0.37384914910E+02  0.00000000000E+00 0. -1.
         -1    1    1    2    0  502  0.10997037555E+02 -0.37020125041E+02  0.10902134758E+03  0.11565932181E+03  0.00000000000E+00 0.  1.
<scales pt_clust_5="13000.00000" pt_clust_6="13000.00000" pt_clust_7="13000.00000" pt_clust_8="13000.00000" pt_clust_9="38.61897"></scales>
<clustering>
<clus scale="   38.619">  1  9  2 -1</clus>
<clus scale="   81.519">  5  6 -1 -1</clus>
<clus scale="   83.111">  2  5  1 -1</clus>
<clus scale="   91.913">  7  8 -1 -1</clus>
<clus scale="   38.619">  1  5  2 -1</clus>
</clustering>
</event>
<event>
 9    1  0.7586638E-005  0.1303956E+03  0.7546771E-02  0.1248948E+00
         21   -1    0    0  501  502  0.00000000000E+00  0.00000000000E+00  0.49514295676E+03  0.49514295676E+03  0.00000000000E+00 0.  1.
         -2   -1    0    0    0  501 -0.00000000000E+00 -0.00000000000E+00 -0.76003924219E+02  0.76003924219E+02  0.00000000000E+00 0.  1.
        -24    2    1    2    0    0  0.20025748758E+02 -0.12113726422E+01 -0.12334514717E+02  0.84054780816E+02  0.80688090123E+02 0.  0.
         23    2    1    2    0    0  0.60641652590E+02  0.61475158176E+02  0.21778210629E+03  0.25086554486E+03  0.89709925181E+02 0.  0.
         11    1    3    3    0    0  0.24910326101E+02 -0.35446864139E+02  0.78253291399E+01  0.44025450592E+02  0.00000000000E+00 0. -1.
        -12    1    3    3    0    0 -0.48845773427E+01  0.34235491496E+02 -0.20159843857E+02  0.40029330224E+02  0.00000000000E+00 0.  1.
        -13    1    4    4    0    0  0.84972587762E+01 -0.23374261330E+02  0.40603816833E+02  0.47615432801E+02  0.00000000000E+00 0.  1.
         13    1    4    4    0    0  0.52144393813E+02  0.84849419507E+02  0.17717828946E+03  0.20325011206E+03  0.00000000000E+00 0. -1.
         -1    1    1    2    0  502 -0.80667401347E+02 -0.60263785534E+02  0.21369144096E+03  0.23622655530E+03  0.00000000000E+00 0.  1.
<scales pt_clust_5="13000.00000" pt_clust_6="13000.00000" pt_clust_7="13000.00000" pt_clust_8="13000.00000" pt_clust_9="94.63157"></scales>
<clustering>
<clus scale="   80.688">  5  6 -1 -1</clus>
<clus scale="   83.145">  2  5  1 -1</clus>
<clus scale="   89.710">  7  8 -1 -1</clus>
<clus scale="   94.632">  1  9  2 -1</clus>
<clus scale="   94.632">  1  5  2 -1</clus>
</clustering>
</event>
<event>
 9    1  0.7586638E-005  0.1231050E+03  0.7546771E-02  0.1238457E+00
         21   -1    0    0  501  502  0.00000000000E+00  0.00000000000E+00  0.77713842930E+02  0.77713842930E+02  0.00000000000E+00 0. -1.
          1   -1    0    0  502    0 -0.00000000000E+00 -0.00000000000E+00 -0.13525860491E+04  0.13525860491E+04  0.00000000000E+00 0. -1.
        -24    2    1    2    0    0  0.36326808688E+02  0.73032123587E+02 -0.95663795783E+03  0.96374399006E+03  0.83623967262E+02 0.  0.
         23    2    1    2    0    0  0.51894722723E+01 -0.14078934629E+03 -0.34537758279E+03  0.38258326704E+03  0.85062981794E+02 0.  0.
         13    1    3    3    0    0 -0.23717051379E+02  0.60021690113E+01 -0.13562549712E+03  0.13781436801E+03  0.00000000000E+00 0. -1.
        -14    1    3    3    0    0  0.60043860067E+02  0.67029954575E+02 -0.82101246071E+03  0.82592962205E+03  0.00000000000E+00 0.  1.
        -13    1    4    4    0    0  0.35258089574E+02 -0.76376428204E+02 -0.12217845726E+03  0.14833767925E+03  0.00000000000E+00 0.  1.
         13    1    4    4    0    0 -0.30068617301E+02 -0.64412918091E+02 -0.22319912553E+03  0.23424558779E+03  0.00000000000E+00 0. -1.
          2    1    1    2  501    0 -0.41516280960E+02  0.67757222708E+02  0.27143334446E+02  0.83972634940E+02  0.00000000000E+00 0. -1.
<scales pt_clust_5="13000.00000" pt_clust_6="13000.00000" pt_clust_7="13000.00000" pt_clust_8="13000.00000" pt_clust_9="79.46473"></scales>
<clustering>
<clus scale="   79.465">  1  9  2 -1</clus>
<clus scale="   83.624">  5  6 -1 -1</clus>
<clus scale="   85.063">  7  8 -1 -1</clus>
<clus scale="  122.115">  2  5  1 -1</clus>
<clus scale="   79.465">  1  5  2 -1</clus>
</clustering>
</event>
<event>
 9    1  0.7586638E-005  0.1000106E+03  0.7546771E-02  0.1288093E+00
          1   -1    0    0  502    0 -0.00000000000E+00  0.00000000000E+00  0.22758916169E+03  0.22758916169E+03  0.00000000000E+00 0. -1.
         21   -1    0    0  501  502  0.00000000000E+00 -0.00000000000E+00 -0.60354740545E+02  0.60354740545E+02  0.00000000000E+00 0. -1.
        -24    2    1    2    0    0  0.18348391170E+02  0.30023836122E+02  0.94422717509E+02  0.12844375380E+03  0.79649570709E+02 0.  0.
         23    2    1    2    0    0 -0.35593725274E+02 -0.86525371448E+01  0.82287779754E+02  0.13044967535E+03  0.94361323769E+02 0.  0.
         11    1    3    3    0    0 -0.30288491531E+02  0.85044768715E+00  0.30632945041E+02  0.43087043324E+02  0.00000000000E+00 0. -1.
        -12    1    3    3    0    0  0.48636882701E+02  0.29173388435E+02  0.63789772468E+02  0.85356710475E+02  0.00000000000E+00 0.  1.
        -11    1    4    4    0    0 -0.39820725934E+02 -0.31355279370E+02  0.63521405751E+01  0.51080264762E+02  0.00000000000E+00 0.  1.
         11    1    4    4    0    0  0.42270006591E+01  0.22702742225E+02  0.75935639179E+02  0.79369410585E+02  0.00000000000E+00 0. -1.
          2    1    1    2  501    0  0.17245334105E+02 -0.21371298977E+02 -0.94760761153E+01  0.29050473093E+02  0.00000000000E+00 0. -1.
<scales pt_clust_5="13000.00000" pt_clust_6="13000.00000" pt_clust_7="13000.00000" pt_clust_8="13000.00000" pt_clust_9="27.46150"></scales>
<clustering>
<clus scale="   27.461">  2  9  1 -1</clus>
<clus scale="   79.650">  5  6 -1 -1</clus>
<clus scale="   86.268">  1  5  2 -1</clus>
<clus scale="   94.361">  7  8 -1 -1</clus>
<clus scale="   27.461">  2  5  1 -1</clus>
</clustering>
</event>
<event>
 9    1  0.7586638E-005  0.1025531E+03  0.7546771E-02  0.1281039E+00
         21   -1    0    0  501  502  0.00000000000E+00  0.00000000000E+00  0.41150015812E+03  0.41150015812E+03  0.00000000000E+00 0. -1.
          1   -1    0    0  502    0 -0.00000000000E+00 -0.00000000000E+00 -0.37579525679E+02  0.37579525679E+02  0.00000000000E+00 0. -1.
        -24    2    1    2    0    0  0.40417358085E+02  0.31459650059E+02  0.67886296264E+02  0.11640823120E+03  0.79492481741E+02 0.  0.
         23    2    1    2    0    0 -0.86346132952E+01 -0.33490865418E+02  0.23928430434E+03  0.25871311668E+03  0.92083135401E+02 0.  0.
         11    1    3    3    0    0  0.49774563615E+02  0.28815240693E+02  0.81456117224E+02  0.99714213192E+02  0.00000000000E+00 0. -1.
        -12    1    3    3    0    0 -0.93572055298E+01  0.26444093653E+01 -0.13569820960E+02  0.16694018004E+02  0.00000000000E+00 0.  1.
        -13    1    4    4    0    0 -0.37979453831E+02 -0.17113604166E+02  0.44127408025E+02  0.60683955869E+02  0.00000000000E+00 0.  1.
         13    1    4    4    0    0  0.29344840536E+02 -0.16377261252E+02  0.19515689631E+03  0.19802916081E+03  0.00000000000E+00 0. -1.
          2    1    1    2  501    0 -0.31782744790E+02  0.20312153594E+01  0.66750031841E+02  0.73958335926E+02  0.00000000000E+00 0. -1.
<scales pt_clust_5="13000.00000" pt_clust_6="13000.00000" pt_clust_7="13000.00000" pt_clust_8="13000.00000" pt_clust_9="31.84759"></scales>
<clustering>
<clus scale="   31.848">  1  9  2 -1</clus>
<clus scale="   79.492">  5  6 -1 -1</clus>
<clus scale="   91.416">  2  5  1 -1</clus>
<clus scale="   92.083">  7  8 -1 -1</clus>
<clus scale="   31.848">  1  5  2 -1</clus>
</clustering>
</event>
<event>
 9    1  0.7586638E-005  0.1478217E+03  0.7546771E-02  0.1205237E+00
          1   -1    0    0  502    0 -0.00000000000E+00  0.00000000000E+00  0.61156320522E+03  0.61156320522E+03  0.00000000000E+00 0. -1.
         21   -1    0    0  501  502  0.00000000000E+00 -0.00000000000E+00 -0.18019595306E+03  0.18019595306E+03  0.00000000000E+00 0.  1.
        -24    2    1    2    0    0 -0.31514349986E+02  0.10335860981E+03  0.31711494279E+03  0.34484270194E+03  0.81721757594E+02 0.  0.
         23    2    1    2    0    0  0.10031827930E+02 -0.20161846180E+03 -0.73550616945E+02  0.23387552975E+03  0.92398205900E+02 0.  0.
         13    1    3    3    0    0 -0.20154873549E+02 -0.93023565005E+01  0.55485892720E+02  0.59761501447E+02  0.00000000000E+00 0. -1.
        -14    1    3    3    0    0 -0.11359476437E+02  0.11266096631E+03  0.26162905007E+03  0.28508120049E+03  0.00000000000E+00 0.  1.
        -11    1    4    4    0    0  0.11023051398E+01 -0.14444910402E+03 -0.55103110222E+01  0.14455836972E+03  0.00000000000E+00 0. -1.
         11    1    4    4    0    0  0.89295227907E+01 -0.57169357785E+02 -0.68040305923E+02  0.89317160036E+02  0.00000000000E+00 0.  1.
          2    1    1    2  501    0  0.21482522055E+02  0.98259851996E+02  0.18780292632E+03  0.21304092659E+03  0.00000000000E+00 0. -1.
<scales pt_clust_5="13000.00000" pt_clust_6="13000.00000" pt_clust_7="13000.00000" pt_clust_8="13000.00000" pt_clust_9="100.58085"></scales>
<clustering>
<clus scale="   81.722">  5  6 -1 -1</clus>
<clus scale="   92.398">  7  8 -1 -1</clus>
<clus scale="  100.581">  2  9  1 -1</clus>
<clus scale="  141.394">  1  5  2 -1</clus>
<clus scale="  100.581">  2  5  1 -1</clus>
</clustering>
</event>
<event>
 9    1  0.7586638E-005  0.1310709E+03  0.7546771E-02  0.1228871E+00
         21   -1    0    0  501  502  0.00000000000E+00  0.00000000000E+00  0.35762865911E+02  0.35762865911E+02  0.00000000000E+00 0. -1.
          1   -1    0    0  502    0 -0.00000000000E+00 -0.00000000000E+00 -0.81221383843E+03  0.81221383843E+03  0.00000000000E+00 0. -1.
         23    2    1    2    0    0 -0.22959066473E+02 -0.11535447001E+03 -0.45425707840E+03  0.47799601611E+03  0.91087461553E+02 0.  0.
        -24    2    1    2    0    0 -0.30506790415E+02  0.70962013525E+02 -0.22163125421E+03  0.24774267209E+03  0.79307925877E+02 0.  0.
         13    1    4    4    0    0 -0.17436078364E+02  0.87232108354E+02 -0.16614334056E+03  0.18845972294E+03  0.00000000000E+00 0. -1.
        -14    1    4    4    0    0 -0.13070712051E+02 -0.16270094829E+02 -0.55487913647E+02  0.59282949152E+02  0.00000000000E+00 0.  1.
        -11    1    3    3    0    0  0.26629508453E+02 -0.65653013478E+02 -0.30398245465E+03  0.31212943090E+03  0.00000000000E+00 0.  1.
         11    1    3    3    0    0 -0.49588574926E+02 -0.49701456532E+02 -0.15027462375E+03  0.16586658521E+03  0.00000000000E+00 0. -1.
          2    1    1    2  501    0  0.53465856888E+02  0.44392456485E+02 -0.10056263991E+03  0.12223801614E+03  0.00000000000E+00 0. -1.
<scales pt_clust_5="13000.00000" pt_clust_6="13000.00000" pt_clust_7="13000.00000" pt_clust_8="13000.00000" pt_clust_9="69.49308"></scales>
<clustering>
<clus scale="   69.493">  1  9  2 -1</clus>
<clus scale="   79.308">  5  6 -1 -1</clus>
<clus scale="   91.087">  7  8 -1 -1</clus>
<clus scale="  123.176">  1  5  2 -1</clus>
<clus scale="   69.493">  1  5  2 -1</clus>
</clustering>
</event>
<event>
 9    1  0.7586638E-005  0.1209225E+03  0.7546771E-02  0.1245178E+00
          1   -1    0    0  502    0 -0.00000000000E+00  0.00000000000E+00  0.62667517083E+03  0.62667517083E+03  0.00000000000E+00 0. -1.
         21   -1    0    0  501  502  0.00000000000E+00 -0.00000000000E+00 -0.48219915914E+02  0.48219915914E+02  0.00000000000E+00 0.  1.
         23    2    1    2    0    0  0.54868305424E+02  0.62635089873E+02  0.51734941888E+03  0.53190563930E+03  0.91320876447E+02 0.  0.
        -24    2    1    2    0    0 -0.52393436506E+02 -0.35236419565E+02  0.46805561567E+02  0.11198444849E+03  0.79768907829E+02 0.  0.
         13    1    4    4    0    0 -0.60821464451E+02 -0.49229204738E+02  0.53007029727E+02  0.94511958701E+02  0.00000000000E+00 0. -1.
        -14    1    4    4    0    0  0.84280279445E+01  0.13992785173E+02 -0.62014681600E+01  0.17472489784E+02  0.00000000000E+00 0.  1.
        -13    1    3    3    0    0  0.34495594538E+02  0.84951321108E+02  0.34767806670E+03  0.35956461320E+03  0.00000000000E+00 0.  1.
         13    1    3    3    0    0  0.20372710885E+02 -0.22316231235E+02  0.16967135218E+03  0.17234102609E+03  0.00000000000E+00 0. -1.
          2    1    1    2  501    0 -0.24748689176E+01 -0.27398670308E+02  0.14300274467E+02  0.31004998961E+02  0.00000000000E+00 0. -1.
<scales pt_clust_5="13000.00000" pt_clust_6="13000.00000" pt_clust_7="13000.00000" pt_clust_8="13000.00000" pt_clust_9="27.51022"></scales>
<clustering>
<clus scale="   27.510">  2  9  1 -1</clus>
<clus scale="   79.769">  5  6 -1 -1</clus>
<clus scale="   91.321">  7  8 -1 -1</clus>
<clus scale="  112.454">  2  5  1 -1</clus>
<clus scale="   27.510">  2  5  1 -1</clus>
</clustering>
</event>
<event>
 9    1  0.7586638E-005  0.2059281E+03  0.7546771E-02  0.1174336E+00
         21   -1    0    0  501  502  0.00000000000E+00  0.00000000000E+00  0.11057444581E+03  0.11057444581E+03  0.00000000000E+00 0. -1.
          1   -1    0    0  502    0 -0.00000000000E+00 -0.00000000000E+00 -0.63157427483E+03  0.63157427483E+03  0.00000000000E+00 0. -1.
         23    2    1    2    0    0 -0.46423947043E+02  0.34948064836E+02 -0.20338063523E+03  0.22822600449E+03  0.85713920954E+02 0.  0.
        -24    2    1    2    0    0 -0.11829387653E+03 -0.14256415003E+03 -0.20365245628E+03  0.28654285675E+03  0.79463876732E+02 0.  0.
         11    1    4    4    0    0 -0.77450926580E+02 -0.13503940391E+03 -0.18269417978E+03  0.24002385290E+03  0.00000000000E+00 0. -1.
        -12    1    4    4    0    0 -0.40842949953E+02 -0.75247461199E+01 -0.20958276504E+02  0.46519003849E+02  0.00000000000E+00 0.  1.
        -13    1    3    3    0    0  0.22357663318E+02  0.24211690784E+01 -0.81506880227E+02  0.84552342919E+02  0.00000000000E+00 0.  1.
         13    1    3    3    0    0 -0.68781610361E+02  0.32526895757E+02 -0.12187375500E+03  0.14367366157E+03  0.00000000000E+00 0. -1.
          2    1    1    2  501    0  0.16471782358E+03  0.10761608520E+03 -0.11396673751E+03  0.22737985939E+03  0.00000000000E+00 0. -1.
<scales pt_clust_5="13000.00000" pt_clust_6="13000.00000" pt_clust_7="13000.00000" pt_clust_8="13000.00000" pt_clust_9="189.97860"></scales>
<clustering>
<clus scale="   79.464">  5  6 -1 -1</clus>
<clus scale="   85.714">  7  8 -1 -1</clus>
<clus scale="  103.554">  2  7  1 -1</clus>
<clus scale="  189.979">  1  9  2 -1</clus>
<clus scale="  189.979">  1  5  2 -1</clus>
</clustering>
</event>
<event>
 9    1  0.7586638E-005  0.1220211E+03  0.7546771E-02  0.1243334E+00
          1   -1    0    0  502    0 -0.00000000000E+00  0.00000000000E+00  0.86481718530E+03  0.86481718530E+03  0.00000000000E+00 0. -1.
         21   -1    0    0  501  502  0.00000000000E+00 -0.00000000000E+00 -0.39483376059E+02  0.39483376059E+02  0.00000000000E+00 0.  1.
         23    2    1    2    0    0  0.44744864145E+02  0.63479248615E+02  0.65756065771E+03  0.66846133437E+03  0.91775917916E+02 0.  0.
        -24    2    1    2    0    0 -0.36370939966E+02 -0.91348919216E+02  0.98311340200E+02  0.16052797697E+03  0.80228682295E+02 0.  0.
         11    1    4    4    0    0  0.20672315057E+02 -0.11379801949E+02  0.39577991994E+02  0.46078866659E+02  0.00000000000E+00 0. -1.
        -12    1    4    4    0    0 -0.57043255023E+02 -0.79969117266E+02  0.58733348205E+02  0.11444911031E+03  0.00000000000E+00 0.  1.
        -11    1    3    3    0    0  0.57588727554E+02  0.25519677347E+01  0.34035345870E+03  0.34520059520E+03  0.00000000000E+00 0.  1.
         11    1    3    3    0    0 -0.12843863409E+02  0.60927280881E+02  0.31720719901E+03  0.32326073917E+03  0.00000000000E+00 0. -1.
          2    1    1    2  501    0 -0.83739241789E+01  0.27869670601E+02  0.69461811335E+02  0.75311250019E+02  0.00000000000E+00 0. -1.
<scales pt_clust_5="13000.00000" pt_clust_6="13000.00000" pt_clust_7="13000.00000" pt_clust_8="13000.00000" pt_clust_9="29.10055"></scales>
<clustering>
<clus scale="   29.101">  2  9  1 -1</clus>
<clus scale="   80.229">  5  6 -1 -1</clus>
<clus scale="   91.776">  7  8 -1 -1</clus>
<clus scale="  113.591">  2  5  1 -1</clus>
<clus scale="   29.101">  2  5  1 -1</clus>
</clustering>
</event>
<event>
 9    1  0.7586638E-005  0.1528413E+03  0.7546771E-02  0.1198460E+00
         21   -1    0    0  501  502  0.00000000000E+00  0.00000000000E+00  0.36762538010E+02  0.36762538010E+02  0.00000000000E+00 0. -1.
          1   -1    0    0  502    0 -0.00000000000E+00 -0.00000000000E+00 -0.91286141629E+03  0.91286141629E+03  0.00000000000E+00 0. -1.
         23    2    1    2    0    0 -0.68983326276E+02 -0.93016095297E+02 -0.45478334876E+03  0.47770178798E+03  0.89221133405E+02 0.  0.
        -24    2    1    2    0    0  0.68529217828E+02  0.12452679396E+03 -0.25708072128E+03  0.30469118061E+03  0.80889073275E+02 0.  0.
         13    1    4    4    0    0  0.40739084087E+02  0.16226524301E+02 -0.35201662349E+02  0.56232820445E+02  0.00000000000E+00 0. -1.
        -14    1    4    4    0    0  0.27790133741E+02  0.10830026966E+03 -0.22187905893E+03  0.24845836016E+03  0.00000000000E+00 0.  1.
        -11    1    3    3    0    0  0.12320756887E+01 -0.47858247634E+02 -0.75953208493E+02  0.89782068129E+02  0.00000000000E+00 0.  1.
         11    1    3    3    0    0 -0.70215401965E+02 -0.45157847664E+02 -0.37883014026E+03  0.38791971985E+03  0.00000000000E+00 0. -1.
          2    1    1    2  501    0  0.45410844852E+00 -0.31510698658E+02 -0.16423480824E+03  0.16723098571E+03  0.00000000000E+00 0. -1.
<scales pt_clust_5="13000.00000" pt_clust_6="13000.00000" pt_clust_7="13000.00000" pt_clust_8="13000.00000" pt_clust_9="31.51399"></scales>
<clustering>
<clus scale="   31.514">  1  9  2 -1</clus>
<clus scale="   80.889">  5  6 -1 -1</clus>
<clus scale="   89.221">  7  8 -1 -1</clus>
<clus scale="  148.132">  1  5  2 -1</clus>
<clus scale="   31.514">  1  5  2 -1</clus>
</clustering>
</event>
<event>
 9    1  0.7586638E-005  0.9705386E+02  0.7546771E-02  0.1294188E+00
         -2   -1    0    0    0  501 -0.00000000000E+00  0.00000000000E+00  0.84095327536E+02  0.84095327536E+02  0.00000000000E+00 0.  1.
         21   -1    0    0  501  502  0.00000000000E+00 -0.00000000000E+00 -0.22424264943E+03  0.22424264943E+03  0.00000000000E+00 0. -1.
        -24    2    1    2    0    0  0.15051234754E+02  0.32850404849E+02 -0.38769939505E+01  0.88494968130E+02  0.80688534104E+02 0.  0.
         23    2    1    2    0    0  0.14767170328E+02  0.10486164179E+02 -0.13712335956E+03  0.16723195335E+03  0.93998305972E+02 0.  0.
         13    1    3    3    0    0  0.39152256481E+02  0.42263175355E+02 -0.16186572872E+02  0.59842128304E+02  0.00000000000E+00 0. -1.
        -14    1    3    3    0    0 -0.24101021727E+02 -0.94127705058E+01  0.12309578922E+02  0.28652839826E+02  0.00000000000E+00 0.  1.
        -13    1    4    4    0    0  0.37928637331E+02 -0.23869735665E+02 -0.34488573563E+02  0.56549160178E+02  0.00000000000E+00 0.  1.
         13    1    4    4    0    0 -0.23161467003E+02  0.34355899844E+02 -0.10263478599E+03  0.11068279317E+03  0.00000000000E+00 0. -1.
         -1    1    1    2    0  502 -0.29818405082E+02 -0.43336569028E+02  0.85303161278E+00  0.52611055489E+02  0.00000000000E+00 0.  1.
<scales pt_clust_5="13000.00000" pt_clust_6="13000.00000" pt_clust_7="13000.00000" pt_clust_8="13000.00000" pt_clust_9="52.60417"></scales>
<clustering>
<clus scale="   52.604">  2  9  1 -1</clus>
<clus scale="   80.689">  5  6 -1 -1</clus>
<clus scale="   84.228">  1  5  2 -1</clus>
<clus scale="   93.998">  7  8 -1 -1</clus>
<clus scale="   52.604">  2  5  1 -1</clus>
</clustering>
</event>
<event>
 9    1  0.7586638E-005  0.1119965E+03  0.7546771E-02  0.1266499E+00
         -2   -1    0    0    0  501 -0.00000000000E+00  0.00000000000E+00  0.31535707952E+03  0.31535707952E+03  0.00000000000E+00 0.  1.
         21   -1    0    0  501  502  0.00000000000E+00 -0.00000000000E+00 -0.13727566431E+03  0.13727566431E+03  0.00000000000E+00 0. -1.
        -24    2    1    2    0    0  0.38839838778E+02 -0.23784588781E+02  0.27349438348E+03  0.28891016009E+03  0.81213687684E+02 0.  0.
         23    2    1    2    0    0 -0.41342719962E+02  0.27604419015E+01 -0.71242485431E+02  0.13159017943E+03  0.10258480910E+03 0.  0.
         11    1    3    3    0    0 -0.12942226964E+02  0.19656786052E+02  0.47278418512E+02  0.52812302863E+02  0.00000000000E+00 0. -1.
        -12    1    3    3    0    0  0.51782065742E+02 -0.43441374833E+02  0.22621596497E+03  0.23609785722E+03  0.00000000000E+00 0.  1.
        -11    1    4    4    0    0  0.28741412561E+02  0.12697691794E+02 -0.47455726553E+02  0.56915254156E+02  0.00000000000E+00 0.  1.
         11    1    4    4    0    0 -0.70084132523E+02 -0.99372498923E+01 -0.23786758877E+02  0.74674925275E+02  0.00000000000E+00 0. -1.
         -1    1    1    2    0  502  0.25028811837E+01  0.21024146880E+02 -0.24170482844E+02  0.32132404317E+02  0.00000000000E+00 0.  1.
<scales pt_clust_5="13000.00000" pt_clust_6="13000.00000" pt_clust_7="13000.00000" pt_clust_8="13000.00000" pt_clust_9="21.17260"></scales>
<clustering>
<clus scale="   21.173">  2  9  1 -1</clus>
<clus scale="   81.214">  5  6 -1 -1</clus>
<clus scale="   92.818">  1  5  2 -1</clus>
<clus scale="  102.585">  7  8 -1 -1</clus>
<clus scale="   21.173">  2  5  1 -1</clus>
</clustering>
</event>
<event>
 9    1  0.7586638E-005  0.1816314E+03  0.7546771E-02  0.1189758E+00
         21   -1    0    0  501  502  0.00000000000E+00  0.00000000000E+00  0.58810271213E+03  0.58810271213E+03  0.00000000000E+00 0. -1.
          1   -1    0    0  502    0 -0.00000000000E+00 -0.00000000000E+00 -0.63729800315E+03  0.63729800315E+03  0.00000000000E+00 0. -1.
        -24    2    1    2    0    0 -0.66566633464E+02  0.15047125135E+02  0.35103800637E+01  0.10689155741E+03  0.82194583830E+02 0.  0.
         23    2    1    2    0    0  0.46904321901E+02 -0.17256395659E+03 -0.55606935232E+03  0.59070886015E+03  0.88008512915E+02 0.  0.
         13    1    3    3    0    0 -0.34094477288E+02 -0.10620631091E+02 -0.35255272193E+02  0.50181325249E+02  0.00000000000E+00 0. -1.
        -14    1    3    3    0    0 -0.32472156176E+02  0.25667756225E+02  0.38765652257E+02  0.56710232157E+02  0.00000000000E+00 0.  1.
        -11    1    4    4    0    0  0.71700619371E+01 -0.10926321187E+03 -0.21191392792E+03  0.23853170041E+03  0.00000000000E+00 0.  1.
         11    1    4    4    0    0  0.39734259964E+02 -0.63300744726E+02 -0.34415542440E+03  0.35217715974E+03  0.00000000000E+00 0. -1.
          2    1    1    2  501    0  0.19662311563E+02  0.15751683146E+03  0.50336368124E+03  0.52780029773E+03  0.00000000000E+00 0. -1.
<scales pt_clust_5="13000.00000" pt_clust_6="13000.00000" pt_clust_7="13000.00000" pt_clust_8="13000.00000" pt_clust_9="158.88510"></scales>
<clustering>
<clus scale="   82.195">  5  6 -1 -1</clus>
<clus scale="   88.009">  7  8 -1 -1</clus>
<clus scale="  106.834">  2  5  1 -1</clus>
<clus scale="  158.885">  1  9  2 -1</clus>
<clus scale="  158.885">  1  5  2 -1</clus>
</clustering>
</event>
<event>
 9    1  0.7586638E-005  0.1059008E+03  0.7546771E-02  0.1273063E+00
         21   -1    0    0  501  502  0.00000000000E+00  0.00000000000E+00  0.36480384723E+03  0.36480384723E+03  0.00000000000E+00 0. -1.
          1   -1    0    0  502    0 -0.00000000000E+00 -0.00000000000E+00 -0.12971098470E+03  0.12971098470E+03  0.00000000000E+00 0. -1.
         23    2    1    2    0    0 -0.40801600946E+02 -0.47796317940E+02 -0.36495480495E+02  0.11556040489E+03  0.89850033021E+02 0.  0.
        -24    2    1    2    0    0 -0.34802963140E+02  0.33868073062E+02  0.28611935447E+03  0.30071635184E+03  0.78789254645E+02 0.  0.
         13    1    4    4    0    0 -0.44665531372E+02  0.47857465533E+02  0.26763303475E+03  0.27552275404E+03  0.00000000000E+00 0. -1.
        -14    1    4    4    0    0  0.98625682323E+01 -0.13989392471E+02  0.18486319716E+02  0.25193597807E+02  0.00000000000E+00 0.  1.
        -13    1    3    3    0    0  0.23011220667E+02  0.47396015330E+01  0.34697397069E+01  0.23749088254E+02  0.00000000000E+00 0.  1.
         13    1    3    3    0    0 -0.63812821613E+02 -0.52535919473E+02 -0.39965220202E+02  0.91811316638E+02  0.00000000000E+00 0. -1.
          2    1    1    2  501    0  0.75604564086E+02  0.13928244878E+02 -0.14531011450E+02  0.78238075192E+02  0.00000000000E+00 0. -1.
<scales pt_clust_5="13000.00000" pt_clust_6="13000.00000" pt_clust_7="13000.00000" pt_clust_8="13000.00000" pt_clust_9="76.87686"></scales>
<clustering>
<clus scale="   76.877">  1  9  2 -1</clus>
<clus scale="   78.789">  5  6 -1 -1</clus>
<clus scale="   89.850">  7  8 -1 -1</clus>
<clus scale="   96.694">  1  5  2 -1</clus>
<clus scale="   76.877">  1  5  2 -1</clus>
</clustering>
</event>
<event>
 9    1  0.7586638E-005  0.1030229E+03  0.7546771E-02  0.1279327E+00
         -2   -1    0    0    0  501 -0.00000000000E+00  0.00000000000E+00  0.64825819898E+02  0.64825819898E+02  0.00000000000E+00 0.  1.
         21   -1    0    0  501  502  0.00000000000E+00 -0.00000000000E+00 -0.43943901916E+03  0.43943901916E+03  0.00000000000E+00 0. -1.
         23    2    1    2    0    0  0.24245059257E+02  0.34081665036E+02 -0.48058990142E+02  0.11075901616E+03  0.90600829671E+02 0.  0.
        -24    2    1    2    0    0  0.42478295466E+02 -0.91904453577E+02 -0.22324102219E+03  0.25760477238E+03  0.79201203198E+02 0.  0.
         13    1    4    4    0    0  0.42873788737E+02 -0.44942317183E+02 -0.19045895993E+03  0.20033119840E+03  0.00000000000E+00 0. -1.
        -14    1    4    4    0    0 -0.39549327054E+00 -0.46962136395E+02 -0.32782062259E+02  0.57273573973E+02  0.00000000000E+00 0.  1.
        -11    1    3    3    0    0  0.57427155948E+02  0.29236230968E+02 -0.41331905798E+02  0.76556919207E+02  0.00000000000E+00 0.  1.
         11    1    3    3    0    0 -0.33182096692E+02  0.48454340682E+01 -0.67270843439E+01  0.34202096952E+02  0.00000000000E+00 0. -1.
         -1    1    1    2    0  502 -0.66723354723E+02  0.57822788541E+02 -0.10331318693E+03  0.13590105052E+03  0.00000000000E+00 0.  1.
<scales pt_clust_5="13000.00000" pt_clust_6="13000.00000" pt_clust_7="13000.00000" pt_clust_8="13000.00000" pt_clust_9="88.29202"></scales>
<clustering>
<clus scale="   79.201">  5  6 -1 -1</clus>
<clus scale="   88.292">  2  9  1 -1</clus>
<clus scale="   90.601">  7  8 -1 -1</clus>
<clus scale="   93.156">  2  5  1 -1</clus>
<clus scale="   88.292">  2  5  1 -1</clus>
</clustering>
</event>
<event>
 9    1  0.7586638E-005  0.1230638E+03  0.7546771E-02  0.1243650E+00
         -2   -1    0    0    0  501 -0.00000000000E+00  0.00000000000E+00  0.72578889739E+02  0.72578889739E+02  0.00000000000E+00 0.  1.
         21   -1    0    0  501  502  0.00000000000E+00 -0.00000000000E+00 -0.43542710809E+03  0.43542710809E+03  0.00000000000E+00 0. -1.
        -24    2    1    2    0    0  0.54653881498E+02  0.86422641413E+02 -0.17936777993E+03  0.21886606564E+03  0.72619794134E+02 0.  0.
         23    2    1    2    0    0 -0.41463905904E+02 -0.45039109537E+02 -0.21089565943E+03  0.23777684710E+03  0.91176054790E+02 0.  0.
         13    1    3    3    0    0  0.71584901011E+02  0.65602591704E+02 -0.15323582890E+03  0.18140925376E+03  0.00000000000E+00 0. -1.
        -14    1    3    3    0    0 -0.16931019513E+02  0.20820049709E+02 -0.26131951034E+02  0.37456811883E+02  0.00000000000E+00 0.  1.
        -11    1    4    4    0    0 -0.69921355237E+02 -0.22498443469E+02 -0.14500383903E+03  0.16254626791E+03  0.00000000000E+00 0. -1.
         11    1    4    4    0    0  0.28457449334E+02 -0.22540666068E+02 -0.65891820401E+02  0.75230579189E+02  0.00000000000E+00 0.  1.
         -1    1    1    2    0  502 -0.13189975594E+02 -0.41383531877E+02  0.27415221014E+02  0.51363085090E+02  0.00000000000E+00 0.  1.
<scales pt_clust_5="13000.00000" pt_clust_6="13000.00000" pt_clust_7="13000.00000" pt_clust_8="13000.00000" pt_clust_9="43.43471"></scales>
<clustering>
<clus scale="   43.435">  2  9  1 -1</clus>
<clus scale="   72.620">  5  6 -1 -1</clus>
<clus scale="   91.176">  7  8 -1 -1</clus>
<clus scale="  110.024">  1  5  2 -1</clus>
<clus scale="   43.435">  2  5  1 -1</clus>
</clustering>
</event>
<event>
 9    1  0.7586638E-005  0.1844141E+03  0.7546771E-02  0.1180102E+00
         21   -1    0    0  501  502  0.00000000000E+00  0.00000000000E+00  0.31428061529E+03  0.31428061529E+03  0.00000000000E+00 0. -1.
         -2   -1    0    0    0  501 -0.00000000000E+00 -0.00000000000E+00 -0.46942741417E+03  0.46942741417E+03  0.00000000000E+00 0.  1.
        -24    2    1    2    0    0  0.97097331254E+02 -0.19124466463E+02 -0.22998735208E+03  0.26252057296E+03  0.78925484835E+02 0.  0.
         23    2    1    2    0    0  0.13468161148E+03 -0.51429766518E+02  0.18714473268E+03  0.25414512499E+03  0.93714653224E+02 0.  0.
         11    1    3    3    0    0  0.10346922307E+03  0.20781785002E+01 -0.20065161678E+03  0.22576817815E+03  0.00000000000E+00 0. -1.
        -12    1    3    3    0    0 -0.63718918148E+01 -0.21202644964E+02 -0.29335735298E+02  0.36752394809E+02  0.00000000000E+00 0.  1.
        -13    1    4    4    0    0  0.54774090888E+02 -0.31898758184E+02  0.15201026003E+03  0.16469623845E+03  0.00000000000E+00 0. -1.
         13    1    4    4    0    0  0.79907520596E+02 -0.19531008334E+02  0.35134472657E+02  0.89448886540E+02  0.00000000000E+00 0.  1.
         -1    1    1    2    0  502 -0.23177894274E+03  0.70554232981E+02 -0.11230417949E+03  0.26704233151E+03  0.00000000000E+00 0.  1.
<scales pt_clust_5="13000.00000" pt_clust_6="13000.00000" pt_clust_7="13000.00000" pt_clust_8="13000.00000" pt_clust_9="158.82740"></scales>
<clustering>
<clus scale="   78.925">  5  6 -1 -1</clus>
<clus scale="   93.715">  7  8 -1 -1</clus>
<clus scale="  126.581">  2  5  1 -1</clus>
<clus scale="  158.827">  1  9  2 -1</clus>
<clus scale="  158.827">  1  5  2 -1</clus>
</clustering>
</event>
<event>
 9    1  0.7586638E-005  0.2385644E+03  0.7546771E-02  0.1121431E+00
         21   -1    0    0  501  502  0.00000000000E+00  0.00000000000E+00  0.87387111504E+03  0.87387111504E+03  0.00000000000E+00 0.  1.
          1   -1    0    0  502    0 -0.00000000000E+00 -0.00000000000E+00 -0.10222700909E+03  0.10222700909E+03  0.00000000000E+00 0. -1.
         23    2    1    2    0    0 -0.13311804509E+03 -0.15445540607E+03  0.16553784105E+03  0.27816317734E+03  0.91624723819E+02 0.  0.
        -24    2    1    2    0    0  0.19454694022E+03  0.16273738940E+03  0.38309737689E+03  0.46647206739E+03  0.80626420096E+02 0.  0.
         11    1    4    4    0    0  0.12165888099E+03  0.14496839044E+03  0.29810161909E+03  0.35310238296E+03  0.00000000000E+00 0. -1.
        -12    1    4    4    0    0  0.72888059235E+02  0.17768998954E+02  0.84995757803E+02  0.11336968443E+03  0.00000000000E+00 0.  1.
        -13    1    3    3    0    0 -0.61105019801E+02 -0.97229955232E+02  0.38089070802E+02  0.12098869763E+03  0.00000000000E+00 0. -1.
         13    1    3    3    0    0 -0.72013025294E+02 -0.57225450841E+02  0.12744877025E+03  0.15717447971E+03  0.00000000000E+00 0.  1.
          2    1    1    2  501    0 -0.61428895127E+02 -0.82819833251E+01  0.22300888802E+03  0.23146287940E+03  0.00000000000E+00 0. -1.
<scales pt_clust_5="13000.00000" pt_clust_6="13000.00000" pt_clust_7="13000.00000" pt_clust_8="13000.00000" pt_clust_9="61.98468"></scales>
<clustering>
<clus scale="   61.985">  1  9  2 -1</clus>
<clus scale="   80.626">  5  6 -1 -1</clus>
<clus scale="   91.625">  7  8 -1 -1</clus>
<clus scale="  234.560">  1  5  2 -1</clus>
<clus scale="   61.985">  1  5  2 -1</clus>
</clustering>
</event>
<event>
 9    1  0.7586638E-005  0.2284702E+03  0.7546771E-02  0.1128169E+00
         21   -1    0    0  501  502  0.00000000000E+00  0.00000000000E+00  0.33242934552E+03  0.33242934552E+03  0.00000000000E+00 0.  1.
         -2   -1    0    0    0  501 -0.00000000000E+00 -0.00000000000E+00 -0.21743337570E+03  0.21743337570E+03  0.00000000000E+00 0.  1.
        -24    2    1    2    0    0 -0.19440516668E+03 -0.10263543736E+03 -0.59941324031E+02  0.24309747357E+03  0.84711377609E+02 0.  0.
         23    2    1    2    0    0  0.15263028374E+03  0.10773025394E+03  0.15916531848E+03  0.26182247061E+03  0.91189891887E+02 0.  0.
         13    1    3    3    0    0 -0.32386960444E+02  0.10960890187E+02 -0.24528747983E+02  0.42079874027E+02  0.00000000000E+00 0. -1.
        -14    1    3    3    0    0 -0.16201820624E+03 -0.11359632755E+03 -0.35412576048E+02  0.20101759955E+03  0.00000000000E+00 0.  1.
        -13    1    4    4    0    0  0.15487391381E+03  0.71868075432E+02  0.14166233640E+03  0.22185393167E+03  0.00000000000E+00 0.  1.
         13    1    4    4    0    0 -0.22436300704E+01  0.35862178506E+02  0.17502982084E+02  0.39968538939E+02  0.00000000000E+00 0. -1.
         -1    1    1    2    0  502  0.41774882939E+02 -0.50948165745E+01  0.15771975366E+02  0.44942777033E+02  0.00000000000E+00 0.  1.
<scales pt_clust_5="13000.00000" pt_clust_6="13000.00000" pt_clust_7="13000.00000" pt_clust_8="13000.00000" pt_clust_9="42.08442"></scales>
<clustering>
<clus scale="   42.084">  1  9  2 -1</clus>
<clus scale="   84.711">  5  6 -1 -1</clus>
<clus scale="   91.190">  7  8 -1 -1</clus>
<clus scale="  225.963">  2  5  1 -1</clus>
<clus scale="   42.084">  1  5  2 -1</clus>
</clustering>
</event>
<event>
 9    1  0.7586638E-005  0.1166828E+03  0.7546771E-02  0.1251900E+00
         21   -1    0    0  501  502  0.00000000000E+00  0.00000000000E+00  0.53871411190E+02  0.53871411190E+02  0.00000000000E+00 0.  1.
          3   -1    0    0  502    0 -0.00000000000E+00 -0.00000000000E+00 -0.38777670145E+03  0.38777670145E+03  0.00000000000E+00 0. -1.
        -24    2    1    2    0    0  0.74797876082E+02 -0.50675865282E+01 -0.25009126148E+03  0.27364324142E+03  0.81942551872E+02 0.  0.
         23    2    1    2    0    0 -0.62949511748E+02  0.30059600868E+02 -0.79967230806E+02  0.14008028756E+03  0.91441283489E+02 0.  0.
         11    1    3    3    0    0  0.11257459745E+02 -0.35469368415E+02 -0.56678048939E+02  0.67802711798E+02  0.00000000000E+00 0. -1.
        -12    1    3    3    0    0  0.63540416337E+02  0.30401781886E+02 -0.19341321254E+03  0.20584052962E+03  0.00000000000E+00 0.  1.
        -13    1    4    4    0    0 -0.20262874536E+02  0.36291755140E+02  0.77938536717E+01  0.42289711877E+02  0.00000000000E+00 0.  1.
         13    1    4    4    0    0 -0.42686637211E+02 -0.62321542719E+01 -0.87761084478E+02  0.97790575681E+02  0.00000000000E+00 0. -1.
          4    1    1    2  501    0 -0.11848364335E+02 -0.24992014340E+02 -0.38467979779E+01  0.27924583665E+02  0.00000000000E+00 0. -1.
<scales pt_clust_5="13000.00000" pt_clust_6="13000.00000" pt_clust_7="13000.00000" pt_clust_8="13000.00000" pt_clust_9="27.65835"></scales>
<clustering>
<clus scale="   27.658">  1  9  2 -1</clus>
<clus scale="   81.943">  5  6 -1 -1</clus>
<clus scale="   91.441">  7  8 -1 -1</clus>
<clus scale="  109.398">  2  5  1 -1</clus>
<clus scale="   27.658">  1  5  2 -1</clus>
</clustering>
</event>
<event>
 9    1  0.7586638E-005  0.1135286E+03  0.7546771E-02  0.1257971E+00
          1   -1    0    0  502    0 -0.00000000000E+00  0.00000000000E+00  0.10665145194E+04  0.10665145194E+04  0.00000000000E+00 0. -1.
         21   -1    0    0  501  502  0.00000000000E+00 -0.00000000000E+00 -0.25264211308E+02  0.25264211308E+02  0.00000000000E+00 0. -1.
         23    2    1    2    0    0 -0.37046054934E+02  0.29301301349E+02  0.29606450254E+03  0.31329736943E+03  0.90939955930E+02 0.  0.
        -24    2    1    2    0    0  0.35950065513E+02 -0.10144447205E+03  0.31765237877E+03  0.34490245347E+03  0.80444269853E+02 0.  0.
         11    1    4    4    0    0  0.14696125787E+02 -0.52315380169E+02  0.26241863534E+03  0.26798584904E+03  0.00000000000E+00 0. -1.
        -12    1    4    4    0    0  0.21253939726E+02 -0.49129091883E+02  0.55233743432E+02  0.76916604427E+02  0.00000000000E+00 0.  1.
        -13    1    3    3    0    0 -0.27265922177E+02  0.56127760489E+02  0.12331536415E+03  0.13820432354E+03  0.00000000000E+00 0. -1.
         13    1    3    3    0    0 -0.97801327571E+01 -0.26826459140E+02  0.17274913839E+03  0.17509304590E+03  0.00000000000E+00 0.  1.
          2    1    1    2  501    0  0.10959894206E+01  0.72143170703E+02  0.42753342675E+03  0.43357890777E+03  0.00000000000E+00 0. -1.
<scales pt_clust_5="13000.00000" pt_clust_6="13000.00000" pt_clust_7="13000.00000" pt_clust_8="13000.00000" pt_clust_9="72.15153"></scales>
<clustering>
<clus scale="   72.152">  2  9  1 -1</clus>
<clus scale="   80.444">  5  6 -1 -1</clus>
<clus scale="   90.940">  7  8 -1 -1</clus>
<clus scale="  105.309">  2  5  1 -1</clus>
<clus scale="   72.152">  2  5  1 -1</clus>
</clustering>
</event>
<event>
 9    1  0.7586638E-005  0.1501054E+03  0.7546771E-02  0.1219528E+00
         -2   -1    0    0    0  501 -0.00000000000E+00  0.00000000000E+00  0.90154931065E+02  0.90154931065E+02  0.00000000000E+00 0.  1.
         21   -1    0    0  501  502  0.00000000000E+00 -0.00000000000E+00 -0.66193107999E+03  0.66193107999E+03  0.00000000000E+00 0. -1.
         23    2    1    2    0    0 -0.24910454427E+02 -0.28746879444E+02  0.12359514852E+02  0.10040777466E+03  0.92098044424E+02 0.  0.
        -24    2    1    2    0    0 -0.98002493523E+02  0.79314545897E+02 -0.37985877173E+03  0.40796994706E+03  0.79066461425E+02 0.  0.
         11    1    4    4    0    0 -0.29645052585E+02  0.35620307197E+02 -0.25425058706E+03  0.25843954118E+03  0.00000000000E+00 0. -1.
        -12    1    4    4    0    0 -0.68357440938E+02  0.43694238700E+02 -0.12560818467E+03  0.14953040588E+03  0.00000000000E+00 0.  1.
        -13    1    3    3    0    0  0.19222037652E+02  0.22445294181E+02 -0.64562494369E+01  0.30248324237E+02  0.00000000000E+00 0. -1.
         13    1    3    3    0    0 -0.44132492079E+02 -0.51192173624E+02  0.18815764289E+02  0.70159450420E+02  0.00000000000E+00 0.  1.
         -1    1    1    2    0  502  0.12291294795E+03 -0.50567666453E+02 -0.20427689205E+03  0.24370828933E+03  0.00000000000E+00 0.  1.
<scales pt_clust_5="13000.00000" pt_clust_6="13000.00000" pt_clust_7="13000.00000" pt_clust_8="13000.00000" pt_clust_9="127.59372"></scales>
<clustering>
<clus scale="   79.066">  5  6 -1 -1</clus>
<clus scale="   92.098">  7  8 -1 -1</clus>
<clus scale="   99.644">  1  7  2 -1</clus>
<clus scale="  127.594">  2  9  1 -1</clus>
<clus scale="  127.594">  2  5  1 -1</clus>
</clustering>
</event>
<event>
 9    1  0.7586638E-005  0.9886838E+02  0.7546771E-02  0.1288370E+00
         -2   -1    0    0    0  501 -0.00000000000E+00  0.00000000000E+00  0.53615323239E+02  0.53615323239E+02  0.00000000000E+00 0.  1.
         21   -1    0    0  501  502  0.00000000000E+00 -0.00000000000E+00 -0.32502832045E+03  0.32502832045E+03  0.00000000000E+00 0.  1.
        -24    2    1    2    0    0 -0.23154836539E+02 -0.16461452341E+02 -0.43723543052E+02  0.97696739978E+02  0.82618272295E+02 0.  0.
         23    2    1    2    0    0 -0.73934772978E+01  0.57803082517E+02 -0.12803461313E+03  0.16881565381E+03  0.93327396606E+02 0.  0.
         13    1    3    3    0    0  0.30946707252E+02 -0.11588780773E+02 -0.16367579074E+02  0.36876770117E+02  0.00000000000E+00 0. -1.
        -14    1    3    3    0    0 -0.54101543791E+02 -0.48726715678E+01 -0.27355963978E+02  0.60819969861E+02  0.00000000000E+00 0.  1.
        -13    1    4    4    0    0  0.33615551071E+02  0.11251833491E+02 -0.88283372519E+02  0.95134446412E+02  0.00000000000E+00 0. -1.
         13    1    4    4    0    0 -0.41009028369E+02  0.46551249025E+02 -0.39751240609E+02  0.73681207398E+02  0.00000000000E+00 0.  1.
         -1    1    1    2    0  502  0.30548313837E+02 -0.41341630176E+02 -0.99654841034E+02  0.11213124991E+03  0.00000000000E+00 0.  1.
<scales pt_clust_5="13000.00000" pt_clust_6="13000.00000" pt_clust_7="13000.00000" pt_clust_8="13000.00000" pt_clust_9="51.40360"></scales>
<clustering>
<clus scale="   51.404">  2  9  1 -1</clus>
<clus scale="   82.618">  5  6 -1 -1</clus>
<clus scale="   88.830">  1  5  2 -1</clus>
<clus scale="   93.327">  7  8 -1 -1</clus>
<clus scale="   51.404">  2  5  1 -1</clus>
</clustering>
</event>
<event>
 9    1  0.7586638E-005  0.1971417E+03  0.7546771E-02  0.1184501E+00
         21   -1    0    0  501  502  0.00000000000E+00  0.00000000000E+00  0.40663845283E+03  0.40663845283E+03  0.00000000000E+00 0.  1.
         -2   -1    0    0    0  501 -0.00000000000E+00 -0.00000000000E+00 -0.10920011093E+04  0.10920011093E+04  0.00000000000E+00 0.  1.
         23    2    1    2    0    0  0.13055341397E+02 -0.53667438705E+01  0.34485281237E+03  0.35740667578E+03  0.92826859339E+02 0.  0.
        -24    2    1    2    0    0  0.16509803566E+03 -0.36051475740E+02 -0.89377196888E+03  0.91304234457E+03  0.79125977666E+02 0.  0.
         13    1    4    4    0    0  0.71575413550E+02 -0.55617741745E+02 -0.46518694810E+03  0.47393593418E+03  0.00000000000E+00 0. -1.
        -14    1    4    4    0    0  0.93522622110E+02  0.19566266005E+02 -0.42858502078E+03  0.43910641039E+03  0.00000000000E+00 0.  1.
        -13    1    3    3    0    0  0.35946478139E+02 -0.38505453395E+02  0.16995297856E+03  0.17792929538E+03  0.00000000000E+00 0.  1.
         13    1    3    3    0    0 -0.22891136741E+02  0.33138709525E+02  0.17489983381E+03  0.17947738040E+03  0.00000000000E+00 0. -1.
         -1    1    1    2    0  502 -0.17815337706E+03  0.41418219611E+02 -0.13644349993E+03  0.22819054175E+03  0.00000000000E+00 0.  1.
<scales pt_clust_5="13000.00000" pt_clust_6="13000.00000" pt_clust_7="13000.00000" pt_clust_8="13000.00000" pt_clust_9="180.56560"></scales>
<clustering>
<clus scale="   79.126">  5  6 -1 -1</clus>
<clus scale="   92.827">  7  8 -1 -1</clus>
<clus scale="   93.894">  2  7  1 -1</clus>
<clus scale="  180.566">  1  9  2 -1</clus>
<clus scale="  180.566">  1  5  2 -1</clus>
</clustering>
</event>
<event>
 9    1  0.7586638E-005  0.2229499E+03  0.7546771E-02  0.1163342E+00
         21   -1    0    0  501  502  0.00000000000E+00  0.00000000000E+00  0.41640187605E+03  0.41640187605E+03  0.00000000000E+00 0. -1.
          1   -1    0    0  502    0 -0.00000000000E+00 -0.00000000000E+00 -0.22513685665E+03  0.22513685665E+03  0.00000000000E+00 0. -1.
        -24    2    1    2    0    0 -0.55789015632E+02  0.36219358451E+02  0.17755312588E+03  0.20626956759E+03  0.81226632412E+02 0.  0.
         23    2    1    2    0    0 -0.87227282800E+02  0.15309350284E+03  0.20759977135E+01  0.19772250623E+03  0.89686455097E+02 0.  0.
         13    1    3    3    0    0 -0.47515955575E+02  0.56269032245E+02  0.16620379050E+03  0.18179018125E+03  0.00000000000E+00 0. -1.
        -14    1    3    3    0    0 -0.82730600571E+01 -0.20049673794E+02  0.11349335383E+02  0.24479386340E+02  0.00000000000E+00 0.  1.
        -13    1    4    4    0    0 -0.28799226317E+02  0.10273350738E+02  0.27750104597E+02  0.41291711965E+02  0.00000000000E+00 0.  1.
         13    1    4    4    0    0 -0.58428056483E+02  0.14282015210E+03 -0.25674106884E+02  0.15643079427E+03  0.00000000000E+00 0. -1.
          2    1    1    2  501    0  0.14301629843E+03 -0.18931286129E+03  0.11635895809E+02  0.23754665887E+03  0.00000000000E+00 0. -1.
<scales pt_clust_5="13000.00000" pt_clust_6="13000.00000" pt_clust_7="13000.00000" pt_clust_8="13000.00000" pt_clust_9="204.11527"></scales>
<clustering>
<clus scale="   81.227">  5  6 -1 -1</clus>
<clus scale="   89.686">  7  8 -1 -1</clus>
<clus scale="  104.986">  2  5  1 -1</clus>
<clus scale="  204.115">  1  9  2 -1</clus>
<clus scale="  204.115">  1  5  2 -1</clus>
</clustering>
</event>
<event>
 9    1  0.7586638E-005  0.1944744E+03  0.7546771E-02  0.1192766E+00
         21   -1    0    0  501  502  0.00000000000E+00  0.00000000000E+00  0.14373796829E+03  0.14373796829E+03  0.00000000000E+00 0. -1.
          3   -1    0    0  502    0 -0.00000000000E+00 -0.00000000000E+00 -0.36277055383E+03  0.36277055383E+03  0.00000000000E+00 0. -1.
        -24    2    1    2    0    0  0.84274621418E+01  0.86031856455E+00 -0.34861634018E+02  0.88597378135E+02  0.81008639168E+02 0.  0.
         23    2    1    2    0    0  0.86805017435E+02  0.14601359756E+03 -0.14019129716E+03  0.23742462814E+03  0.88666637039E+02 0.  0.
         13    1    3    3    0    0  0.29025425070E+02 -0.29844865504E+02 -0.68066497572E+01  0.42184378369E+02  0.00000000000E+00 0. -1.
        -14    1    3    3    0    0 -0.20597962928E+02  0.30705184069E+02 -0.28054984261E+02  0.46412999767E+02  0.00000000000E+00 0.  1.
        -11    1    4    4    0    0 -0.12296178378E+01  0.67309128042E+02 -0.81030873819E+02  0.10534720305E+03  0.00000000000E+00 0. -1.
         11    1    4    4    0    0  0.88034635272E+02  0.78704469518E+02 -0.59160423345E+02  0.13207742510E+03  0.00000000000E+00 0.  1.
          4    1    1    2  501    0 -0.95232479576E+02 -0.14687391613E+03 -0.43979654359E+02  0.18048651584E+03  0.00000000000E+00 0. -1.
<scales pt_clust_5="13000.00000" pt_clust_6="13000.00000" pt_clust_7="13000.00000" pt_clust_8="13000.00000" pt_clust_9="173.08526"></scales>
<clustering>
<clus scale="   81.009">  5  6 -1 -1</clus>
<clus scale="   81.450">  2  5  1 -1</clus>
<clus scale="   88.667">  7  8 -1 -1</clus>
<clus scale="  173.085">  1  9  2 -1</clus>
<clus scale="  173.085">  1  5  2 -1</clus>
</clustering>
</event>
<event>
 9    1  0.7586638E-005  0.9665237E+02  0.7546771E-02  0.1293484E+00
         21   -1    0    0  501  502  0.00000000000E+00  0.00000000000E+00  0.55966120811E+03  0.55966120811E+03  0.00000000000E+00 0.  1.
         -2   -1    0    0    0  501 -0.00000000000E+00 -0.00000000000E+00 -0.39152238945E+02  0.39152238945E+02  0.00000000000E+00 0.  1.
        -24    2    1    2    0    0  0.32887922257E+02 -0.13764559508E+02  0.57954995505E+02  0.10528998036E+03  0.80349984020E+02 0.  0.
         23    2    1    2    0    0  0.57952253076E+01  0.35529723955E+02  0.42247708660E+03  0.43372158407E+03  0.91277477317E+02 0.  0.
         13    1    3    3    0    0 -0.20633269364E+02  0.14762539985E+02  0.27529162895E+02  0.37436869542E+02  0.00000000000E+00 0. -1.
        -14    1    3    3    0    0  0.53521191621E+02 -0.28527099493E+02  0.30425832611E+02  0.67853110821E+02  0.00000000000E+00 0.  1.
        -13    1    4    4    0    0 -0.47562068078E+01 -0.30362684575E+02  0.15752885565E+03  0.16049876785E+03  0.00000000000E+00 0.  1.
         13    1    4    4    0    0  0.10551432115E+02  0.65892408530E+02  0.26494823094E+03  0.27322281622E+03  0.00000000000E+00 0. -1.
         -1    1    1    2    0  502 -0.38683147565E+02 -0.21765164447E+02  0.40076887067E+02  0.59801882629E+02  0.00000000000E+00 0.  1.
<scales pt_clust_5="13000.00000" pt_clust_6="13000.00000" pt_clust_7="13000.00000" pt_clust_8="13000.00000" pt_clust_9="44.38592"></scales>
<clustering>
<clus scale="   44.386">  1  9  2 -1</clus>
<clus scale="   80.350">  5  6 -1 -1</clus>
<clus scale="   86.407">  2  5  1 -1</clus>
<clus scale="   91.277">  7  8 -1 -1</clus>
<clus scale="   44.386">  1  5  2 -1</clus>
</clustering>
</event>
<event>
 9    1  0.7586638E-005  0.1066983E+03  0.7546771E-02  0.1269783E+00
          1   -1    0    0  502    0 -0.00000000000E+00  0.00000000000E+00  0.40643134285E+03  0.40643134285E+03  0.00000000000E+00 0. -1.
         21   -1    0    0  501  502  0.00000000000E+00 -0.00000000000E+00 -0.57992660676E+02  0.57992660676E+02  0.00000000000E+00 0.  1.
         23    2    1    2    0    0 -0.85719545312E+02  0.56453166232E+01  0.22412313598E+03  0.25541004557E+03  0.87312091078E+02 0.  0.
        -24    2    1    2    0    0  0.25641957982E+02 -0.38227427141E+02  0.10110482145E+03  0.13683606544E+03  0.79894165545E+02 0.  0.
         11    1    4    4    0    0  0.47344584034E+02 -0.31619130356E+02  0.98804446114E+02  0.11403331800E+03  0.00000000000E+00 0. -1.
        -12    1    4    4    0    0 -0.21702626053E+02 -0.66082967847E+01  0.23003753379E+01  0.22802747437E+02  0.00000000000E+00 0.  1.
        -11    1    3    3    0    0 -0.90960798297E+02 -0.16722865162E+02  0.13690253006E+03  0.16521447812E+03  0.00000000000E+00 0.  1.
         11    1    3    3    0    0  0.52412529850E+01  0.22368181785E+02  0.87220605926E+02  0.90195567448E+02  0.00000000000E+00 0. -1.
          2    1    1    2  501    0  0.60077587330E+02  0.32582110517E+02  0.23210724737E+02  0.72177892515E+02  0.00000000000E+00 0. -1.
<scales pt_clust_5="13000.00000" pt_clust_6="13000.00000" pt_clust_7="13000.00000" pt_clust_8="13000.00000" pt_clust_9="68.34406"></scales>
<clustering>
<clus scale="   68.344">  2  9  1 -1</clus>
<clus scale="   79.894">  5  6 -1 -1</clus>
<clus scale="   87.312">  7  8 -1 -1</clus>
<clus scale="  100.718">  2  5  1 -1</clus>
<clus scale="   68.344">  2  5  1 -1</clus>
</clustering>
</event>
<event>
 9    1  0.7586638E-005  0.1171672E+03  0.7546771E-02  0.1253319E+00
         -2   -1    0    0    0  501 -0.00000000000E+00  0.00000000000E+00  0.33217503202E+03  0.33217503202E+03  0.00000000000E+00 0.  1.
         21   -1    0    0  501  502  0.00000000000E+00 -0.00000000000E+00 -0.12695841561E+03  0.12695841561E+03  0.00000000000E+00 0. -1.
        -24    2    1    2    0    0  0.61771034126E+02 -0.61550872020E+01  0.23626031424E+03  0.25739213882E+03  0.81106296198E+02 0.  0.
         23    2    1    2    0    0 -0.10445320073E+03  0.34404234389E+02 -0.35312678394E+02  0.15037978764E+03  0.96296276090E+02 0.  0.
         11    1    3    3    0    0 -0.10352228147E+02 -0.22404970091E+02  0.33772874324E+02  0.41830112987E+02  0.00000000000E+00 0. -1.
        -12    1    3    3    0    0  0.72123262273E+02  0.16249882889E+02  0.20248743992E+03  0.21556202583E+03  0.00000000000E+00 0.  1.
        -11    1    4    4    0    0 -0.67629602317E+02  0.62532463243E+02  0.18712221663E-01  0.92109024634E+02  0.00000000000E+00 0. -1.
         11    1    4    4    0    0 -0.36823598412E+02 -0.28128228854E+02 -0.35331390616E+02  0.58270763006E+02  0.00000000000E+00 0.  1.
         -1    1    1    2    0  502  0.42682166604E+02 -0.28249147187E+02  0.42689805610E+01  0.51361521179E+02  0.00000000000E+00 0.  1.
<scales pt_clust_5="13000.00000" pt_clust_6="13000.00000" pt_clust_7="13000.00000" pt_clust_8="13000.00000" pt_clust_9="51.18380"></scales>
<clustering>
<clus scale="   51.184">  2  9  1 -1</clus>
<clus scale="   81.106">  5  6 -1 -1</clus>
<clus scale="   96.296">  7  8 -1 -1</clus>
<clus scale="  105.040">  1  5  2 -1</clus>
<clus scale="   51.184">  2  5  1 -1</clus>
</clustering>
</event>
<event>
 9    1  0.7586638E-005  0.1248926E+03  0.7546771E-02  0.1236975E+00
         21   -1    0    0  501  502  0.00000000000E+00  0.00000000000E+00  0.17060362526E+03  0.17060362526E+03  0.00000000000E+00 0. -1.
          1   -1    0    0  502    0 -0.00000000000E+00 -0.00000000000E+00 -0.14371589648E+03  0.14371589648E+03  0.00000000000E+00 0. -1.
        -24    2    1    2    0    0  0.90100833790E+02  0.12993159875E+02 -0.70885916448E+02  0.14337956905E+03  0.85122883038E+02 0.  0.
         23    2    1    2    0    0 -0.65702980291E+02 -0.21342057221E+02  0.78456614053E+02  0.13872028423E+03  0.91189428897E+02 0.  0.
         11    1    3    3    0    0  0.59239828444E+02  0.14162794122E+02 -0.88796226783E+02  0.10767874397E+03  0.00000000000E+00 0. -1.
        -12    1    3    3    0    0  0.30861005345E+02 -0.11696342472E+01  0.17910310335E+02  0.35700825081E+02  0.00000000000E+00 0.  1.
        -11    1    4    4    0    0 -0.87556924240E+02 -0.26871482040E+02  0.66658957548E+02  0.11327712987E+03  0.00000000000E+00 0. -1.
         11    1    4    4    0    0  0.21853943949E+02  0.55294248189E+01  0.11797656506E+02  0.25443154364E+02  0.00000000000E+00 0.  1.
          2    1    1    2  501    0 -0.24397853499E+02  0.83488973460E+01  0.19317031171E+02  0.32219668457E+02  0.00000000000E+00 0. -1.
<scales pt_clust_5="13000.00000" pt_clust_6="13000.00000" pt_clust_7="13000.00000" pt_clust_8="13000.00000" pt_clust_9="25.78681"></scales>
<clustering>
<clus scale="   25.787">  1  9  2 -1</clus>
<clus scale="   85.123">  5  6 -1 -1</clus>
<clus scale="   91.189">  7  8 -1 -1</clus>
<clus scale="  120.534">  2  5  1 -1</clus>
<clus scale="   25.787">  1  5  2 -1</clus>
</clustering>
</event>
<event>
 9    1  0.9026642E-005  0.9774398E+02  0.7546771E-02  0.1290595E+00
         21   -1    0    0  501  502  0.00000000000E+00  0.00000000000E+00  0.14206979201E+03  0.14206979201E+03  0.00000000000E+00 0.  1.
          3   -1    0    0  502    0 -0.00000000000E+00 -0.00000000000E+00 -0.24503310808E+03  0.24503310808E+03  0.00000000000E+00 0. -1.
         23    2    1    2    0    0  0.24769230968E+02 -0.26091358685E+02 -0.20349124507E+03  0.22564867878E+03  0.90633137494E+02 0.  0.
        -24    2    1    2    0    0 -0.10600486128E+02  0.45080495817E+02  0.49113316644E+02  0.10484324162E+03  0.80220733181E+02 0.  0.
         11    1    4    4    0    0  0.22396053108E+02  0.43772311871E+01 -0.10802745743E+02  0.25247626884E+02  0.00000000000E+00 0. -1.
        -12    1    4    4    0    0 -0.32996539236E+02  0.40703264630E+02  0.59916062387E+02  0.79595614735E+02  0.00000000000E+00 0.  1.
        -11    1    3    3    0    0 -0.30523569319E+02 -0.19593308194E+02 -0.45829345543E+02  0.58445828960E+02  0.00000000000E+00 0.  1.
         11    1    3    3    0    0  0.55292800286E+02 -0.64980504906E+01 -0.15766189953E+03  0.16720284981E+03  0.00000000000E+00 0. -1.
          4    1    1    2  501    0 -0.14168744839E+02 -0.18989137132E+02  0.51414612348E+02  0.56610979697E+02  0.00000000000E+00 0. -1.
<scales pt_clust_5="13000.00000" pt_clust_6="13000.00000" pt_clust_7="13000.00000" pt_clust_8="13000.00000" pt_clust_9="23.69263"></scales>
<clustering>
<clus scale="   23.693">  1  9  2 -1</clus>
<clus scale="   80.221">  5  6 -1 -1</clus>
<clus scale="   88.175">  1  5  2 -1</clus>
<clus scale="   90.633">  7  8 -1 -1</clus>
<clus scale="   23.693">  1  5  2 -1</clus>
</clustering>
</event>
<event>
 9    1  0.7586638E-005  0.1143870E+03  0.7546771E-02  0.1255314E+00
         21   -1    0    0  501  502  0.00000000000E+00  0.00000000000E+00  0.46736931216E+02  0.46736931216E+02  0.00000000000E+00 0. -1.
          1   -1    0    0  502    0 -0.00000000000E+00 -0.00000000000E+00 -0.53247683708E+03  0.53247683708E+03  0.00000000000E+00 0. -1.
         23    2    1    2    0    0 -0.61094669492E+02 -0.65886802822E+02 -0.30220190924E+03  0.32840306341E+03  0.91918162943E+02 0.  0.
        -24    2    1    2    0    0  0.45375661594E+02  0.20051496967E+02 -0.17646840589E+03  0.20184192315E+03  0.84486984010E+02 0.  0.
         13    1    4    4    0    0  0.33633841806E+02 -0.48190443260E+01 -0.13486956847E+02  0.36556210250E+02  0.00000000000E+00 0. -1.
        -14    1    4    4    0    0  0.11741819787E+02  0.24870541293E+02 -0.16298144904E+03  0.16528571290E+03  0.00000000000E+00 0.  1.
        -11    1    3    3    0    0  0.34872609206E+01 -0.57478432783E+02 -0.93833724007E+02  0.11009404609E+03  0.00000000000E+00 0.  1.
         11    1    3    3    0    0 -0.64581930413E+02 -0.84083700385E+01 -0.20836818524E+03  0.21830901731E+03  0.00000000000E+00 0. -1.
          2    1    1    2  501    0  0.15719007898E+02  0.45835305854E+02 -0.70695907323E+01  0.48968781741E+02  0.00000000000E+00 0. -1.
<scales pt_clust_5="13000.00000" pt_clust_6="13000.00000" pt_clust_7="13000.00000" pt_clust_8="13000.00000" pt_clust_9="48.45578"></scales>
<clustering>
<clus scale="   48.456">  1  9  2 -1</clus>
<clus scale="   84.487">  5  6 -1 -1</clus>
<clus scale="   91.918">  7  8 -1 -1</clus>
<clus scale="  108.506">  1  5  2 -1</clus>
<clus scale="   48.456">  1  5  2 -1</clus>
</clustering>
</event>
<event>
 9    1  0.7586638E-005  0.1753382E+03  0.7546771E-02  0.1181251E+00
         21   -1    0    0  501  502  0.00000000000E+00  0.00000000000E+00  0.47382813317E+03  0.47382813317E+03  0.00000000000E+00 0.  1.
         -4   -1    0    0    0  501 -0.00000000000E+00 -0.00000000000E+00 -0.20513348423E+03  0.20513348423E+03  0.00000000000E+00 0.  1.
         23    2    1    2    0    0 -0.41152830721E+02  0.10240628985E+03  0.13731076350E+03  0.19862626132E+03  0.91747164724E+02 0.  0.
        -24    2    1    2    0    0 -0.11428556412E+03 -0.13245730377E+03 -0.86582817456E+02  0.21094040142E+03  0.79957120926E+02 0.  0.
         11    1    4    4    0    0  0.44440270448E+01 -0.23192919686E+02 -0.33680553722E+02  0.41134421097E+02  0.00000000000E+00 0. -1.
        -12    1    4    4    0    0 -0.11872959116E+03 -0.10926438408E+03 -0.52902263735E+02  0.16980598033E+03  0.00000000000E+00 0.  1.
        -13    1    3    3    0    0  0.26018963080E+02  0.49822253306E+02  0.38722046381E+02  0.68254232397E+02  0.00000000000E+00 0. -1.
         13    1    3    3    0    0 -0.67171793800E+02  0.52584036548E+02  0.98588717124E+02  0.13037202893E+03  0.00000000000E+00 0.  1.
         -3    1    1    2    0  502  0.15543839484E+03  0.30051013912E+02  0.21796670288E+03  0.26939495466E+03  0.00000000000E+00 0.  1.
<scales pt_clust_5="13000.00000" pt_clust_6="13000.00000" pt_clust_7="13000.00000" pt_clust_8="13000.00000" pt_clust_9="156.04593"></scales>
<clustering>
<clus scale="   79.957">  5  6 -1 -1</clus>
<clus scale="   91.747">  7  8 -1 -1</clus>
<clus scale="  143.521">  2  7  1 -1</clus>
<clus scale="  156.046">  1  9  2 -1</clus>
<clus scale="  156.046">  1  5  2 -1</clus>
</clustering>
</event>
<event>
 9    1  0.7586638E-005  0.1497194E+03  0.7546771E-02  0.1203185E+00
         21   -1    0    0  501  502  0.00000000000E+00  0.00000000000E+00  0.46303469679E+02  0.46303469679E+02  0.00000000000E+00 0. -1.
          1   -1    0    0  502    0 -0.00000000000E+00 -0.00000000000E+00 -0.91561728155E+03  0.91561728155E+03  0.00000000000E+00 0. -1.
        -24    2    1    2    0    0 -0.10078494470E+01 -0.11020902013E+03 -0.27587216499E+03  0.30757068628E+03  0.79669515918E+02 0.  0.
         23    2    1    2    0    0  0.91626710034E+02  0.11418867649E+03 -0.29094927009E+03  0.33855067676E+03  0.92361112719E+02 0.  0.
         13    1    3    3    0    0  0.85737961152E+01 -0.12093151122E+03 -0.23892101110E+03  0.26792011856E+03  0.00000000000E+00 0. -1.
        -14    1    3    3    0    0 -0.95816455623E+01  0.10722491090E+02 -0.36951153887E+02  0.39650567719E+02  0.00000000000E+00 0.  1.
        -13    1    4    4    0    0  0.28631683110E+02  0.23388096003E+02 -0.17304750599E+03  0.17695258021E+03  0.00000000000E+00 0.  1.
         13    1    4    4    0    0  0.62995026924E+02  0.90800580483E+02 -0.11790176409E+03  0.16159809655E+03  0.00000000000E+00 0. -1.
          2    1    1    2  501    0 -0.90618860587E+02 -0.39796563607E+01 -0.30249237680E+03  0.31579938819E+03  0.00000000000E+00 0. -1.
<scales pt_clust_5="13000.00000" pt_clust_6="13000.00000" pt_clust_7="13000.00000" pt_clust_8="13000.00000" pt_clust_9="90.70625"></scales>
<clustering>
<clus scale="   79.670">  5  6 -1 -1</clus>
<clus scale="   90.706">  1  9  2 -1</clus>
<clus scale="   92.361">  7  8 -1 -1</clus>
<clus scale="  142.241">  2  5  1 -1</clus>
<clus scale="   90.706">  1  5  2 -1</clus>
</clustering>
</event>
<event>
 9    1  0.7586638E-005  0.2553764E+03  0.7546771E-02  0.1110548E+00
         21   -1    0    0  501  502  0.00000000000E+00  0.00000000000E+00  0.14810741612E+03  0.14810741612E+03  0.00000000000E+00 0. -1.
          1   -1    0    0  502    0 -0.00000000000E+00 -0.00000000000E+00 -0.82881048443E+03  0.82881048443E+03  0.00000000000E+00 0. -1.
        -24    2    1    2    0    0  0.20301205059E+03 -0.17378996174E+03 -0.51642095361E+03  0.58702180193E+03  0.80542852716E+02 0.  0.
         23    2    1    2    0    0 -0.19040347356E+03  0.38796534802E+02 -0.75340493215E+02  0.22774550947E+03  0.91832310804E+02 0.  0.
         11    1    3    3    0    0  0.20952979605E+03 -0.16384046656E+03 -0.50365031470E+03  0.56957007770E+03  0.00000000000E+00 0. -1.
        -12    1    3    3    0    0 -0.65177454622E+01 -0.99494951827E+01 -0.12770638916E+02  0.17451724230E+02  0.00000000000E+00 0.  1.
        -11    1    4    4    0    0 -0.28762428294E+02  0.43649956233E+02 -0.27702079336E+02  0.59160807635E+02  0.00000000000E+00 0.  1.
         11    1    4    4    0    0 -0.16164104527E+03 -0.48534214312E+01 -0.47638413880E+02  0.16858470183E+03  0.00000000000E+00 0. -1.
          2    1    1    2  501    0 -0.12608577026E+02  0.13499342694E+03 -0.88941621481E+02  0.16215058916E+03  0.00000000000E+00 0. -1.
<scales pt_clust_5="13000.00000" pt_clust_6="13000.00000" pt_clust_7="13000.00000" pt_clust_8="13000.00000" pt_clust_9="135.58098"></scales>
<clustering>
<clus scale="   80.543">  5  6 -1 -1</clus>
<clus scale="   91.832">  7  8 -1 -1</clus>
<clus scale="  135.581">  1  9  2 -1</clus>
<clus scale="  251.537">  2  5  1 -1</clus>
<clus scale="  135.581">  1  5  2 -1</clus>
</clustering>
</event>
<event>
 9    1  0.7586638E-005  0.1347838E+03  0.7546771E-02  0.1221897E+00
         21   -1    0    0  501  502  0.00000000000E+00  0.00000000000E+00  0.43705942799E+03  0.43705942799E+03  0.00000000000E+00 0. -1.
          3   -1    0    0  502    0 -0.00000000000E+00 -0.00000000000E+00 -0.81394221783E+03  0.81394221783E+03  0.00000000000E+00 0. -1.
        -24    2    1    2    0    0  0.34574343889E+02  0.10178064441E+03 -0.74144805061E+03  0.75363269123E+03  0.81623138280E+02 0.  0.
         23    2    1    2    0    0  0.46052813789E+02 -0.11218818263E+03  0.38747510703E+03  0.41290643946E+03  0.75151308719E+02 0.  0.
         11    1    3    3    0    0  0.53469812731E+02  0.63163291835E+02 -0.34166390143E+03  0.35154351629E+03  0.00000000000E+00 0. -1.
        -12    1    3    3    0    0 -0.18895468842E+02  0.38617352579E+02 -0.39978414918E+03  0.40208917493E+03  0.00000000000E+00 0.  1.
        -13    1    4    4    0    0  0.47692462947E+02 -0.37667697025E+02  0.24114957970E+03  0.24868965843E+03  0.00000000000E+00 0.  1.
         13    1    4    4    0    0 -0.16396491584E+01 -0.74520485602E+02  0.14632552733E+03  0.16421678103E+03  0.00000000000E+00 0. -1.
          4    1    1    2  501    0 -0.80627157678E+02  0.10407538213E+02 -0.22909846263E+02  0.84462515134E+02  0.00000000000E+00 0. -1.
<scales pt_clust_5="13000.00000" pt_clust_6="13000.00000" pt_clust_7="13000.00000" pt_clust_8="13000.00000" pt_clust_9="81.29610"></scales>
<clustering>
<clus scale="   75.151">  7  8 -1 -1</clus>
<clus scale="   81.296">  1  9  2 -1</clus>
<clus scale="   81.623">  5  6 -1 -1</clus>
<clus scale="  130.966">  1  7  2 -1</clus>
<clus scale="   81.296">  1  5  2 -1</clus>
</clustering>
</event>
<event>
 9    1  0.7586638E-005  0.1001538E+03  0.7546771E-02  0.1289658E+00
          1   -1    0    0  502    0 -0.00000000000E+00  0.00000000000E+00  0.82221048937E+02  0.82221048937E+02  0.00000000000E+00 0. -1.
         21   -1    0    0  501  502  0.00000000000E+00 -0.00000000000E+00 -0.16929189329E+03  0.16929189329E+03  0.00000000000E+00 0.  1.
         23    2    1    2    0    0  0.28451795699E+02 -0.40900571492E+02 -0.52446025676E+02  0.11166508549E+03  0.85065529334E+02 0.  0.
        -24    2    1    2    0    0 -0.37182814704E+01  0.59586517820E+02 -0.54118090901E+02  0.10322956926E+03  0.64522844661E+02 0.  0.
         11    1    4    4    0    0 -0.21731336602E+02 -0.37509393937E+01 -0.14049124174E+02  0.26147627558E+02  0.00000000000E+00 0. -1.
        -12    1    4    4    0    0  0.18013055132E+02  0.63337457213E+02 -0.40068966727E+02  0.77081941698E+02  0.00000000000E+00 0.  1.
        -11    1    3    3    0    0  0.52576672532E+02 -0.24754095883E+02 -0.81171888706E+01  0.58676745928E+02  0.00000000000E+00 0. -1.
         11    1    3    3    0    0 -0.24124876833E+02 -0.16146475608E+02 -0.44328836805E+02  0.52988339559E+02  0.00000000000E+00 0.  1.
          2    1    1    2  501    0 -0.24733514229E+02 -0.18685946328E+02  0.19493272224E+02  0.36618287484E+02  0.00000000000E+00 0. -1.
<scales pt_clust_5="13000.00000" pt_clust_6="13000.00000" pt_clust_7="13000.00000" pt_clust_8="13000.00000" pt_clust_9="30.99859"></scales>
<clustering>
<clus scale="   30.999">  2  9  1 -1</clus>
<clus scale="   64.523">  5  6 -1 -1</clus>
<clus scale="   83.414">  2  5  1 -1</clus>
<clus scale="   85.066">  7  8 -1 -1</clus>
<clus scale="   30.999">  2  5  1 -1</clus>
</clustering>
</event>
<event>
 9    1  0.7586638E-005  0.1509165E+03  0.7546771E-02  0.1217676E+00
          1   -1    0    0  502    0 -0.00000000000E+00  0.00000000000E+00  0.35578980695E+02  0.35578980695E+02  0.00000000000E+00 0. -1.
         21   -1    0    0  501  502  0.00000000000E+00 -0.00000000000E+00 -0.13163543476E+04  0.13163543476E+04  0.00000000000E+00 0. -1.
        -24    2    1    2    0    0 -0.63697377541E+02  0.41169682748E+00 -0.52884974404E+03  0.53858589064E+03  0.79593871770E+02 0.  0.
         23    2    1    2    0    0  0.16181658091E+03  0.34331560797E+02 -0.35501569510E+03  0.40301590977E+03  0.94986408675E+02 0.  0.
         11    1    3    3    0    0 -0.59918864419E+01 -0.26901771829E+02 -0.68603374668E+02  0.73932611522E+02  0.00000000000E+00 0. -1.
        -12    1    3    3    0    0 -0.57705491099E+02  0.27313468656E+02 -0.46024636937E+03  0.46465327911E+03  0.00000000000E+00 0.  1.
        -13    1    4    4    0    0  0.31609533961E+02 -0.86453333989E+01 -0.14318670768E+02  0.35762113464E+02  0.00000000000E+00 0. -1.
         13    1    4    4    0    0  0.13020704695E+03  0.42976894196E+02 -0.34069702433E+03  0.36725379630E+03  0.00000000000E+00 0.  1.
          2    1    1    2  501    0 -0.98119203371E+02 -0.34743257625E+02 -0.39690992774E+03  0.41033152786E+03  0.00000000000E+00 0. -1.
<scales pt_clust_5="13000.00000" pt_clust_6="13000.00000" pt_clust_7="13000.00000" pt_clust_8="13000.00000" pt_clust_9="117.27479"></scales>
<clustering>
<clus scale="   79.594">  5  6 -1 -1</clus>
<clus scale="   94.986">  7  8 -1 -1</clus>
<clus scale="  101.945">  1  5  2 -1</clus>
<clus scale="  117.275">  2  9  1 -1</clus>
<clus scale="  117.275">  2  5  1 -1</clus>
</clustering>
</event>
<event>
 9    1  0.7586638E-005  0.3333659E+03  0.7546771E-02  0.1069805E+00
         21   -1    0    0  501  502  0.00000000000E+00  0.00000000000E+00  0.29014808061E+03  0.29014808061E+03  0.00000000000E+00 0. -1.
          1   -1    0    0  502    0 -0.00000000000E+00 -0.00000000000E+00 -0.56225422937E+03  0.56225422937E+03  0.00000000000E+00 0. -1.
         23    2    1    2    0    0 -0.25092545737E+03  0.24962024605E+03 -0.28511417227E+03  0.46348364200E+03  0.90846809419E+02 0.  0.
        -24    2    1    2    0    0  0.15251774017E+03 -0.21461530112E+03  0.43054261831E+02  0.28023471602E+03  0.85769680315E+02 0.  0.
         13    1    4    4    0    0  0.26777496317E+02 -0.10991425038E+03  0.13005762693E+02  0.11387417007E+03  0.00000000000E+00 0. -1.
        -14    1    4    4    0    0  0.12574024385E+03 -0.10470105074E+03  0.30048499137E+02  0.16636054595E+03  0.00000000000E+00 0.  1.
        -13    1    3    3    0    0 -0.14884488813E+03  0.17414104572E+03 -0.13130414963E+03  0.26404674631E+03  0.00000000000E+00 0.  1.
         13    1    3    3    0    0 -0.10208056924E+03  0.75479200324E+02 -0.15381002264E+03  0.19943689569E+03  0.00000000000E+00 0. -1.
          2    1    1    2  501    0  0.98407717205E+02 -0.35004944923E+02 -0.30046238322E+02  0.10868395195E+03  0.00000000000E+00 0. -1.
<scales pt_clust_5="13000.00000" pt_clust_6="13000.00000" pt_clust_7="13000.00000" pt_clust_8="13000.00000" pt_clust_9="104.44819"></scales>
<clustering>
<clus scale="   85.770">  5  6 -1 -1</clus>
<clus scale="   90.847">  7  8 -1 -1</clus>
<clus scale="  104.448">  1  9  2 -1</clus>
<clus scale="  332.018">  1  5  2 -1</clus>
<clus scale="  104.448">  1  5  2 -1</clus>
</clustering>
</event>
<event>
 9    1  0.7586638E-005  0.9619101E+02  0.7546771E-02  0.1296085E+00
         21   -1    0    0  501  502  0.00000000000E+00  0.00000000000E+00  0.13453509281E+03  0.13453509281E+03  0.00000000000E+00 0. -1.
         -2   -1    0    0    0  501 -0.00000000000E+00 -0.00000000000E+00 -0.20814950191E+03  0.20814950191E+03  0.00000000000E+00 0.  1.
         23    2    1    2    0    0 -0.24081139287E+02 -0.12723353043E+02 -0.16736603631E+03  0.19262619158E+03  0.91387496907E+02 0.  0.
        -24    2    1    2    0    0  0.41560232775E+02  0.25067332977E+02  0.58654088755E+02  0.10895208058E+03  0.77939910217E+02 0.  0.
         13    1    4    4    0    0  0.22259248836E+02  0.91661264210E+01  0.75204856655E+02  0.78963678339E+02  0.00000000000E+00 0. -1.
        -14    1    4    4    0    0  0.19300983939E+02  0.15901206556E+02 -0.16550767901E+02  0.29988402243E+02  0.00000000000E+00 0.  1.
        -11    1    3    3    0    0 -0.10901466286E+02  0.39769823856E+02 -0.72129651750E+02  0.83085302661E+02  0.00000000000E+00 0. -1.
         11    1    3    3    0    0 -0.13179673001E+02 -0.52493176899E+02 -0.95236384555E+02  0.10954088892E+03  0.00000000000E+00 0.  1.
         -1    1    1    2    0  502 -0.17479093488E+02 -0.12343979934E+02  0.35097538449E+02  0.41106322567E+02  0.00000000000E+00 0.  1.
<scales pt_clust_5="13000.00000" pt_clust_6="13000.00000" pt_clust_7="13000.00000" pt_clust_8="13000.00000" pt_clust_9="21.39842"></scales>
<clustering>
<clus scale="   21.398">  1  9  2 -1</clus>
<clus scale="   77.940">  5  6 -1 -1</clus>
<clus scale="   83.520">  1  5  2 -1</clus>
<clus scale="   91.387">  7  8 -1 -1</clus>
<clus scale="   21.398">  1  5  2 -1</clus>
</clustering>
</event>
<event>
 9    1  0.7586638E-005  0.9896081E+02  0.7546771E-02  0.1287853E+00
          1   -1    0    0  502    0 -0.00000000000E+00  0.00000000000E+00  0.68590276779E+02  0.68590276779E+02  0.00000000000E+00 0. -1.
         21   -1    0    0  501  502  0.00000000000E+00 -0.00000000000E+00 -0.47223802302E+03  0.47223802302E+03  0.00000000000E+00 0. -1.
        -24    2    1    2    0    0 -0.24478324762E+02  0.13129354694E+02  0.17088399394E+01  0.85494970306E+02  0.80838737470E+02 0.  0.
         23    2    1    2    0    0  0.66124670851E+02 -0.61449010335E+02 -0.17971145509E+03  0.22084466783E+03  0.91256272396E+02 0.  0.
         13    1    3    3    0    0 -0.43004925095E+02  0.72737535031E+01 -0.26653922606E+02  0.51115190137E+02  0.00000000000E+00 0. -1.
        -14    1    3    3    0    0  0.18526600333E+02  0.58556011912E+01  0.28362762546E+02  0.34379780168E+02  0.00000000000E+00 0.  1.
        -13    1    4    4    0    0  0.82012344257E+02 -0.48767168135E+02 -0.17597080762E+03  0.20017488962E+03  0.00000000000E+00 0. -1.
         13    1    4    4    0    0 -0.15887673406E+02 -0.12681842200E+02 -0.37406474688E+01  0.20669778212E+02  0.00000000000E+00 0.  1.
          2    1    1    2  501    0 -0.41646346089E+02  0.48319655640E+02 -0.22564513109E+03  0.23448866166E+03  0.00000000000E+00 0. -1.
<scales pt_clust_5="13000.00000" pt_clust_6="13000.00000" pt_clust_7="13000.00000" pt_clust_8="13000.00000" pt_clust_9="63.79034"></scales>
<clustering>
<clus scale="   63.790">  2  9  1 -1</clus>
<clus scale="   80.839">  5  6 -1 -1</clus>
<clus scale="   89.445">  1  5  2 -1</clus>
<clus scale="   91.256">  7  8 -1 -1</clus>
<clus scale="   63.790">  2  5  1 -1</clus>
</clustering>
</event>
<event>
 9    1  0.7586638E-005  0.8682790E+02  0.7546771E-02  0.1315378E+00
         -2   -1    0    0    0  501 -0.00000000000E+00  0.00000000000E+00  0.12676404817E+03  0.12676404817E+03  0.00000000000E+00 0.  1.
         21   -1    0    0  501  502  0.00000000000E+00 -0.00000000000E+00 -0.12305710295E+03  0.12305710295E+03  0.00000000000E+00 0. -1.
        -24    2    1    2    0    0  0.28641227943E+02 -0.10856686605E+01  0.79422444438E+02  0.11717478816E+03  0.81243508569E+02 0.  0.
         23    2    1    2    0    0 -0.39689671908E+02 -0.17490488621E+02 -0.69373422239E+02  0.11012162825E+03  0.73708303784E+02 0.  0.
         13    1    3    3    0    0 -0.27748464687E+02 -0.79162674380E+01  0.20979302728E+02  0.35675982475E+02  0.00000000000E+00 0. -1.
        -14    1    3    3    0    0  0.56389692630E+02  0.68305987775E+01  0.58443141710E+02  0.81498805681E+02  0.00000000000E+00 0.  1.
        -13    1    4    4    0    0 -0.61228507555E+02 -0.15080480451E+02 -0.44778515579E+02  0.77339941075E+02  0.00000000000E+00 0. -1.
         13    1    4    4    0    0  0.21538835647E+02 -0.24100081705E+01 -0.24594906660E+02  0.32781687175E+02  0.00000000000E+00 0.  1.
         -1    1    1    2    0  502  0.11048443965E+02  0.18576157282E+02 -0.63420769869E+01  0.22524734714E+02  0.00000000000E+00 0.  1.
<scales pt_clust_5="13000.00000" pt_clust_6="13000.00000" pt_clust_7="13000.00000" pt_clust_8="13000.00000" pt_clust_9="21.61346"></scales>
<clustering>
<clus scale="   21.613">  2  9  1 -1</clus>
<clus scale="   73.708">  7  8 -1 -1</clus>
<clus scale="   79.822">  2  7  1 -1</clus>
<clus scale="   81.244">  5  6 -1 -1</clus>
<clus scale="   21.613">  2  5  1 -1</clus>
</clustering>
</event>
<event>
 9    1  0.7586638E-005  0.3735759E+03  0.7546771E-02  0.1053334E+00
          1   -1    0    0  502    0 -0.00000000000E+00  0.00000000000E+00  0.25859409158E+04  0.25859409158E+04  0.00000000000E+00 0. -1.
         21   -1    0    0  501  502  0.00000000000E+00 -0.00000000000E+00 -0.47955661362E+02  0.47955661362E+02  0.00000000000E+00 0. -1.
        -24    2    1    2    0    0  0.79493704053E+02 -0.89811409910E+02  0.61274335062E+03  0.63235006932E+03  0.10013420051E+03 0.  0.
         23    2    1    2    0    0  0.10227608303E+03 -0.14337651834E+03  0.38180830521E+03  0.43004908859E+03  0.90263024008E+02 0.  0.
         11    1    3    3    0    0 -0.10518744594E+02 -0.60488662657E+02  0.22640544844E+03  0.23458250016E+03  0.00000000000E+00 0. -1.
        -12    1    3    3    0    0  0.90012448647E+02 -0.29322747253E+02  0.38633790218E+03  0.39776756916E+03  0.00000000000E+00 0.  1.
        -13    1    4    4    0    0  0.44845388163E+02 -0.31186391005E+02  0.20988534061E+03  0.21687682225E+03  0.00000000000E+00 0. -1.
         13    1    4    4    0    0  0.57430694862E+02 -0.11219012734E+03  0.17192296459E+03  0.21317226634E+03  0.00000000000E+00 0.  1.
          2    1    1    2  501    0 -0.18176978708E+03  0.23318792825E+03  0.15434335986E+04  0.15714974192E+04  0.00000000000E+00 0. -1.
<scales pt_clust_5="13000.00000" pt_clust_6="13000.00000" pt_clust_7="13000.00000" pt_clust_8="13000.00000" pt_clust_9="295.66358"></scales>
<clustering>
<clus scale="   90.263">  7  8 -1 -1</clus>
<clus scale="  100.134">  5  6 -1 -1</clus>
<clus scale="  136.821">  5  7 -1 -1</clus>
<clus scale="  295.664">  2  9  1 -1</clus>
<clus scale="  295.664">  2  5  1 -1</clus>
</clustering>
</event>
<event>
 9    1  0.7586638E-005  0.1058493E+03  0.7546771E-02  0.1274015E+00
         21   -1    0    0  501  502  0.00000000000E+00  0.00000000000E+00  0.19098237576E+03  0.19098237576E+03  0.00000000000E+00 0. -1.
          3   -1    0    0  502    0 -0.00000000000E+00 -0.00000000000E+00 -0.19013167439E+03  0.19013167439E+03  0.00000000000E+00 0. -1.
        -24    2    1    2    0    0 -0.49774895147E+02  0.18832741107E+02 -0.10472906983E+03  0.14237500130E+03  0.80437867968E+02 0.  0.
         23    2    1    2    0    0  0.52002073200E+02  0.29326751709E+02 -0.12542317070E+02  0.11115721312E+03  0.92921161893E+02 0.  0.
         13    1    3    3    0    0 -0.69023017650E+02  0.23500728722E+02 -0.96447294027E+02  0.12090716166E+03  0.00000000000E+00 0. -1.
        -14    1    3    3    0    0  0.19248122504E+02 -0.46679876155E+01 -0.82817758040E+01  0.21467839639E+02  0.00000000000E+00 0.  1.
        -13    1    4    4    0    0  0.55861131104E+02  0.58198371535E+02 -0.14504649728E+02  0.81962804255E+02  0.00000000000E+00 0. -1.
         13    1    4    4    0    0 -0.38590579043E+01 -0.28871619827E+02  0.19623326580E+01  0.29194408862E+02  0.00000000000E+00 0.  1.
          4    1    1    2  501    0 -0.22271780531E+01 -0.48159492815E+02  0.11812208827E+03  0.12758183573E+03  0.00000000000E+00 0. -1.
<scales pt_clust_5="13000.00000" pt_clust_6="13000.00000" pt_clust_7="13000.00000" pt_clust_8="13000.00000" pt_clust_9="48.21096"></scales>
<clustering>
<clus scale="   48.211">  1  9  2 -1</clus>
<clus scale="   80.438">  5  6 -1 -1</clus>
<clus scale="   92.921">  7  8 -1 -1</clus>
<clus scale="   95.079">  2  5  1 -1</clus>
<clus scale="   48.211">  1  5  2 -1</clus>
</clustering>
</event>
<event>
 9    1  0.7586638E-005  0.1346060E+03  0.7546771E-02  0.1223910E+00
         21   -1    0    0  501  502  0.00000000000E+00  0.00000000000E+00  0.70336005221E+03  0.70336005221E+03  0.00000000000E+00 0.  1.
         -2   -1    0    0    0  501 -0.00000000000E+00 -0.00000000000E+00 -0.49172367256E+02  0.49172367256E+02  0.00000000000E+00 0.  1.
         23    2    1    2    0    0  0.41488543543E+02 -0.10754809486E+03  0.11799106852E+03  0.18948884008E+03  0.93253612849E+02 0.  0.
        -24    2    1    2    0    0 -0.20945056162E+02  0.43856568217E+02  0.40503030284E+03  0.41579125424E+03  0.80440828762E+02 0.  0.
         13    1    4    4    0    0  0.18167140734E+02 -0.14646084295E+02  0.11520626828E+03  0.11754589333E+03  0.00000000000E+00 0. -1.
        -14    1    4    4    0    0 -0.39112196896E+02  0.58502652512E+02  0.28982403456E+03  0.29824536091E+03  0.00000000000E+00 0.  1.
        -11    1    3    3    0    0  0.35083857453E+02 -0.70109568436E+02  0.12809837755E+03  0.15018462961E+03  0.00000000000E+00 0.  1.
         11    1    3    3    0    0  0.64046860901E+01 -0.37438526424E+02 -0.10107309028E+02  0.39304210468E+02  0.00000000000E+00 0. -1.
         -1    1    1    2    0  502 -0.20543487382E+02  0.63691526643E+02  0.13116631360E+03  0.14725232515E+03  0.00000000000E+00 0.  1.
<scales pt_clust_5="13000.00000" pt_clust_6="13000.00000" pt_clust_7="13000.00000" pt_clust_8="13000.00000" pt_clust_9="66.92268"></scales>
<clustering>
<clus scale="   66.923">  1  9  2 -1</clus>
<clus scale="   80.441">  5  6 -1 -1</clus>
<clus scale="   93.254">  7  8 -1 -1</clus>
<clus scale="  126.069">  1  5  2 -1</clus>
<clus scale="   66.923">  1  5  2 -1</clus>
</clustering>
</event>
<event>
 9    1  0.7586638E-005  0.9964405E+02  0.7546771E-02  0.1290804E+00
          1   -1    0    0  502    0 -0.00000000000E+00  0.00000000000E+00  0.29221603486E+03  0.29221603486E+03  0.00000000000E+00 0. -1.
         21   -1    0    0  501  502  0.00000000000E+00 -0.00000000000E+00 -0.10638639360E+03  0.10638639360E+03  0.00000000000E+00 0. -1.
         23    2    1    2    0    0 -0.11866244478E+02 -0.13773638714E+02  0.21361793656E+03  0.23525729571E+03  0.96865120067E+02 0.  0.
        -24    2    1    2    0    0  0.55978974985E+02 -0.35380256162E+01  0.16224169523E+02  0.98671152081E+02  0.79539985609E+02 0.  0.
         11    1    4    4    0    0  0.71766679149E+02 -0.17263919940E+02  0.29053670267E+01  0.73871106160E+02  0.00000000000E+00 0. -1.
        -12    1    4    4    0    0 -0.15787704164E+02  0.13725894323E+02  0.13318802497E+02  0.24800045921E+02  0.00000000000E+00 0.  1.
        -13    1    3    3    0    0  0.37826796940E+02  0.14592258201E+02  0.10356515196E+03  0.11121843942E+03  0.00000000000E+00 0.  1.
         13    1    3    3    0    0 -0.49693041418E+02 -0.28365896915E+02  0.11005278460E+03  0.12403885629E+03  0.00000000000E+00 0. -1.
          2    1    1    2  501    0 -0.44112730507E+02  0.17311664330E+02 -0.44012464827E+02  0.64673980663E+02  0.00000000000E+00 0. -1.
<scales pt_clust_5="13000.00000" pt_clust_6="13000.00000" pt_clust_7="13000.00000" pt_clust_8="13000.00000" pt_clust_9="47.38804"></scales>
<clustering>
<clus scale="   47.388">  2  9  1 -1</clus>
<clus scale="   79.540">  5  6 -1 -1</clus>
<clus scale="   82.902">  2  5  1 -1</clus>
<clus scale="   96.865">  7  8 -1 -1</clus>
<clus scale="   47.388">  2  5  1 -1</clus>
</clustering>
</event>
<event>
 9    1  0.7586638E-005  0.1237984E+03  0.7546771E-02  0.1243487E+00
         21   -1    0    0  501  502  0.00000000000E+00  0.00000000000E+00  0.12778319180E+03  0.12778319180E+03  0.00000000000E+00 0.  1.
          1   -1    0    0  502    0 -0.00000000000E+00 -0.00000000000E+00 -0.41634409816E+03  0.41634409816E+03  0.00000000000E+00 0. -1.
        -24    2    1    2    0    0  0.75827585455E+02  0.18259021860E+02 -0.30970029532E+03  0.32817525342E+03  0.75508340194E+02 0.  0.
         23    2    1    2    0    0 -0.60249854711E+02 -0.67689052870E+02  0.65662931826E+02  0.14762678843E+03  0.96281852775E+02 0.  0.
         13    1    3    3    0    0  0.61801259244E+02 -0.19255985633E+02 -0.23059987186E+03  0.23951302580E+03  0.00000000000E+00 0. -1.
        -14    1    3    3    0    0  0.14026326211E+02  0.37515007493E+02 -0.79100423461E+02  0.88662227617E+02  0.00000000000E+00 0.  1.
        -13    1    4    4    0    0  0.23561186964E+02 -0.34562662139E+02  0.16475767813E+02  0.44957291626E+02  0.00000000000E+00 0. -1.
         13    1    4    4    0    0 -0.83811041675E+02 -0.33126390730E+02  0.49187164013E+02  0.10266949680E+03  0.00000000000E+00 0.  1.
          2    1    1    2  501    0 -0.15577730744E+02  0.49430031010E+02 -0.44523542863E+02  0.68325248114E+02  0.00000000000E+00 0. -1.
<scales pt_clust_5="13000.00000" pt_clust_6="13000.00000" pt_clust_7="13000.00000" pt_clust_8="13000.00000" pt_clust_9="51.82660"></scales>
<clustering>
<clus scale="   51.827">  1  9  2 -1</clus>
<clus scale="   75.508">  5  6 -1 -1</clus>
<clus scale="   96.282">  7  8 -1 -1</clus>
<clus scale="  108.431">  2  5  1 -1</clus>
<clus scale="   51.827">  1  5  2 -1</clus>
</clustering>
</event>
<event>
 9    1  0.7586638E-005  0.1782811E+03  0.7546771E-02  0.1170980E+00
         21   -1    0    0  501  502  0.00000000000E+00  0.00000000000E+00  0.77534237590E+02  0.77534237590E+02  0.00000000000E+00 0.  1.
         -4   -1    0    0    0  501 -0.00000000000E+00 -0.00000000000E+00 -0.63708181142E+03  0.63708181142E+03  0.00000000000E+00 0.  1.
         23    2    1    2    0    0  0.58820225282E+02 -0.13402047395E+03 -0.37261082431E+03  0.41085497934E+03  0.92421216821E+02 0.  0.
        -24    2    1    2    0    0 -0.10834105969E+03  0.13332332204E+03 -0.14178504840E+03  0.23674260076E+03  0.80194548743E+02 0.  0.
         11    1    4    4    0    0 -0.49045581853E+02  0.11339069232E+02 -0.19054552362E+02  0.53824897177E+02  0.00000000000E+00 0. -1.
        -12    1    4    4    0    0 -0.59295477839E+02  0.12198425280E+03 -0.12273049604E+03  0.18291770358E+03  0.00000000000E+00 0.  1.
        -13    1    3    3    0    0 -0.91135983566E+01 -0.69485786741E+02 -0.96386148842E+02  0.11917055812E+03  0.00000000000E+00 0.  1.
         13    1    3    3    0    0  0.67933823638E+02 -0.64534687208E+02 -0.27622467547E+03  0.29168442122E+03  0.00000000000E+00 0. -1.
         -3    1    1    2    0  502  0.49520834411E+02  0.69715191200E+00 -0.45151701119E+02  0.67018468913E+02  0.00000000000E+00 0.  1.
<scales pt_clust_5="13000.00000" pt_clust_6="13000.00000" pt_clust_7="13000.00000" pt_clust_8="13000.00000" pt_clust_9="49.52574"></scales>
<clustering>
<clus scale="   49.526">  1  9  2 -1</clus>
<clus scale="   80.195">  5  6 -1 -1</clus>
<clus scale="   92.421">  7  8 -1 -1</clus>
<clus scale="  172.260">  1  5  2 -1</clus>
<clus scale="   49.526">  1  5  2 -1</clus>
</clustering>
</event>
<event>
 9    1  0.7586638E-005  0.1352621E+03  0.7546771E-02  0.1223324E+00
         21   -1    0    0  501  502  0.00000000000E+00  0.00000000000E+00  0.48909919680E+02  0.48909919680E+02  0.00000000000E+00 0.  1.
         -2   -1    0    0    0  501 -0.00000000000E+00 -0.00000000000E+00 -0.10307695667E+04  0.10307695667E+04  0.00000000000E+00 0.  1.
        -24    2    1    2    0    0  0.71827527617E+02  0.53257511273E+02 -0.56044499131E+03  0.57271914844E+03  0.76896543953E+02 0.  0.
         23    2    1    2    0    0 -0.97786269439E+02 -0.69774563814E+02 -0.44386785998E+03  0.46887076349E+03  0.91599516839E+02 0.  0.
         13    1    3    3    0    0  0.75427023626E+02  0.22233013760E+02 -0.28984201611E+03  0.30031972479E+03  0.00000000000E+00 0. -1.
        -14    1    3    3    0    0 -0.35994960096E+01  0.31024497512E+02 -0.27060297520E+03  0.27239942365E+03  0.00000000000E+00 0.  1.
        -11    1    4    4    0    0 -0.82201458123E+02 -0.28034785809E+01 -0.23534054537E+03  0.24929924088E+03  0.00000000000E+00 0.  1.
         11    1    4    4    0    0 -0.15584811316E+02 -0.66971085233E+02 -0.20852731461E+03  0.21957152261E+03  0.00000000000E+00 0. -1.
         -1    1    1    2    0  502  0.25958741823E+02  0.16517052542E+02  0.22453204256E+02  0.38089574467E+02  0.00000000000E+00 0.  1.
<scales pt_clust_5="13000.00000" pt_clust_6="13000.00000" pt_clust_7="13000.00000" pt_clust_8="13000.00000" pt_clust_9="30.76799"></scales>
<clustering>
<clus scale="   30.768">  1  9  2 -1</clus>
<clus scale="   76.897">  5  6 -1 -1</clus>
<clus scale="   91.600">  7  8 -1 -1</clus>
<clus scale="  125.771">  2  5  1 -1</clus>
<clus scale="   30.768">  1  5  2 -1</clus>
</clustering>
</event>
<event>
 9    1  0.7586638E-005  0.1058328E+03  0.7546771E-02  0.1272134E+00
         21   -1    0    0  501  502  0.00000000000E+00  0.00000000000E+00  0.10652969921E+03  0.10652969921E+03  0.00000000000E+00 0. -1.
         -2   -1    0    0    0  501 -0.00000000000E+00 -0.00000000000E+00 -0.13401273306E+03  0.13401273306E+03  0.00000000000E+00 0.  1.
        -24    2    1    2    0    0  0.50568028735E+02 -0.16390005583E+02 -0.35375417226E+02  0.10337492612E+03  0.81296970379E+02 0.  0.
         23    2    1    2    0    0 -0.49977939873E+02  0.39044343564E+02  0.19456124724E+02  0.11172566369E+03  0.89898987194E+02 0.  0.
         13    1    3    3    0    0  0.30961240025E+02 -0.42525936882E+02 -0.45095635757E+02  0.69286867846E+02  0.00000000000E+00 0. -1.
        -14    1    3    3    0    0  0.19606788710E+02  0.26135931299E+02  0.97202185319E+01  0.34088058271E+02  0.00000000000E+00 0.  1.
        -11    1    4    4    0    0 -0.21401807511E+02  0.88756072056E+01 -0.35766359849E+02  0.42615094331E+02  0.00000000000E+00 0.  1.
         11    1    4    4    0    0 -0.28576132362E+02  0.30168736359E+02  0.55222484573E+02  0.69110569355E+02  0.00000000000E+00 0. -1.
         -1    1    1    2    0  502 -0.59008886226E+00 -0.22654337981E+02 -0.11563741345E+02  0.25441842467E+02  0.00000000000E+00 0.  1.
<scales pt_clust_5="13000.00000" pt_clust_6="13000.00000" pt_clust_7="13000.00000" pt_clust_8="13000.00000" pt_clust_9="22.66203"></scales>
<clustering>
<clus scale="   22.662">  1  9  2 -1</clus>
<clus scale="   81.297">  5  6 -1 -1</clus>
<clus scale="   89.899">  7  8 -1 -1</clus>
<clus scale="   98.630">  2  5  1 -1</clus>
<clus scale="   22.662">  1  5  2 -1</clus>
</clustering>
</event>
<event>
 9    1  0.7831528E-005  0.1374369E+03  0.7546771E-02  0.1225244E+00
          1   -1    0    0  502    0 -0.00000000000E+00  0.00000000000E+00  0.13562177723E+04  0.13562177723E+04  0.00000000000E+00 0. -1.
         21   -1    0    0  501  502  0.00000000000E+00 -0.00000000000E+00 -0.96980151360E+02  0.96980151360E+02  0.00000000000E+00 0. -1.
        -24    2    1    2    0    0 -0.45482745636E+02 -0.68609741334E+02  0.23361456697E+03  0.26047044186E+03  0.80579826437E+02 0.  0.
         23    2    1    2    0    0 -0.99461199299E+02  0.83401719931E+01 -0.18320458379E+02  0.13704797307E+03  0.92110906481E+02 0.  0.
         13    1    3    3    0    0 -0.60838105696E+02 -0.76495689646E+02  0.19291693483E+03  0.21626328718E+03  0.00000000000E+00 0. -1.
        -14    1    3    3    0    0  0.15355360059E+02  0.78859483119E+01  0.40697632135E+02  0.44207154678E+02  0.00000000000E+00 0.  1.
        -11    1    4    4    0    0 -0.60348212454E+02 -0.15622676047E+02 -0.51152879894E+02  0.80638650006E+02  0.00000000000E+00 0. -1.
         11    1    4    4    0    0 -0.39112986845E+02  0.23962848040E+02  0.32832421515E+02  0.56409323065E+02  0.00000000000E+00 0.  1.
          2    1    1    2  501    0  0.14494394494E+03  0.60269569341E+02  0.10439435124E+04  0.10556795088E+04  0.00000000000E+00 0. -1.
<scales pt_clust_5="13000.00000" pt_clust_6="13000.00000" pt_clust_7="13000.00000" pt_clust_8="13000.00000" pt_clust_9="102.00239"></scales>
<clustering>
<clus scale="   80.580">  5  6 -1 -1</clus>
<clus scale="   92.111">  7  8 -1 -1</clus>
<clus scale="  115.192">  1  5  2 -1</clus>
<clus scale="  102.002">  2  9  1 -1</clus>
<clus scale="  102.002">  2  5  1 -1</clus>
</clustering>
</event>
<event>
 9    1  0.7586638E-005  0.1027072E+03  0.7546771E-02  0.1279075E+00
         21   -1    0    0  501  502  0.00000000000E+00  0.00000000000E+00  0.27807059648E+03  0.27807059648E+03  0.00000000000E+00 0.  1.
         -4   -1    0    0    0  501 -0.00000000000E+00 -0.00000000000E+00 -0.76754816981E+02  0.76754816981E+02  0.00000000000E+00 0.  1.
         23    2    1    2    0    0  0.54601138085E+02 -0.27967136784E+02  0.67316384623E+01  0.11047372239E+03  0.91627961678E+02 0.  0.
        -24    2    1    2    0    0 -0.20898547023E+02  0.14688731657E+02  0.60043539453E+02  0.10501987791E+03  0.82288759985E+02 0.  0.
         11    1    4    4    0    0 -0.44246491823E+02 -0.16459323000E+02  0.34200763289E+02  0.58295399148E+02  0.00000000000E+00 0. -1.
        -12    1    4    4    0    0  0.23347944800E+02  0.31148054657E+02  0.25842776165E+02  0.46724478758E+02  0.00000000000E+00 0.  1.
        -13    1    3    3    0    0  0.73635805333E+02 -0.18309321933E+01 -0.95459545976E+01  0.74274554115E+02  0.00000000000E+00 0.  1.
         13    1    3    3    0    0 -0.19034667248E+02 -0.26136204591E+02  0.16277593060E+02  0.36199168270E+02  0.00000000000E+00 0. -1.
         -3    1    1    2    0  502 -0.33702591062E+02  0.13278405127E+02  0.13454060158E+03  0.13933181317E+03  0.00000000000E+00 0.  1.
<scales pt_clust_5="13000.00000" pt_clust_6="13000.00000" pt_clust_7="13000.00000" pt_clust_8="13000.00000" pt_clust_9="36.22403"></scales>
<clustering>
<clus scale="   36.224">  1  9  2 -1</clus>
<clus scale="   82.289">  5  6 -1 -1</clus>
<clus scale="   91.628">  7  8 -1 -1</clus>
<clus scale="   94.470">  1  5  2 -1</clus>
<clus scale="   36.224">  1  5  2 -1</clus>
</clustering>
</event>
<event>
 9    1  0.7586638E-005  0.3440730E+03  0.7546771E-02  0.1108797E+00
         21   -1    0    0  501  502  0.00000000000E+00  0.00000000000E+00  0.28520059719E+03  0.28520059719E+03  0.00000000000E+00 0. -1.
          1   -1    0    0  502    0 -0.00000000000E+00 -0.00000000000E+00 -0.59697354457E+03  0.59697354457E+03  0.00000000000E+00 0. -1.
        -24    2    1    2    0    0  0.53956661964E+02 -0.44536367377E+02  0.69374748605E+01  0.10776658844E+03  0.81674351157E+02 0.  0.
         23    2    1    2    0    0 -0.34588564794E+03  0.80756123292E+02 -0.39110776628E+02  0.36856230523E+03  0.90277832765E+02 0.  0.
         13    1    3    3    0    0  0.64742443575E+02 -0.59610588551E+02  0.11289882247E+02  0.88726927754E+02  0.00000000000E+00 0. -1.
        -14    1    3    3    0    0 -0.10785781611E+02  0.15074221174E+02 -0.43524073865E+01  0.19039660686E+02  0.00000000000E+00 0.  1.
        -11    1    4    4    0    0 -0.12959297876E+03  0.21296799559E+02  0.28279636703E+02  0.13434147412E+03  0.00000000000E+00 0. -1.
         11    1    4    4    0    0 -0.21629266918E+03  0.59459323733E+02 -0.67390413331E+02  0.23422083111E+03  0.00000000000E+00 0.  1.
          2    1    1    2  501    0  0.29192898598E+03 -0.36219755915E+02 -0.27959964561E+03  0.40584524809E+03  0.00000000000E+00 0. -1.
<scales pt_clust_5="13000.00000" pt_clust_6="13000.00000" pt_clust_7="13000.00000" pt_clust_8="13000.00000" pt_clust_9="332.01847"></scales>
<clustering>
<clus scale="   81.674">  5  6 -1 -1</clus>
<clus scale="   90.278">  7  8 -1 -1</clus>
<clus scale="  107.543">  2  5  1 -1</clus>
<clus scale="  332.018">  1  9  2 -1</clus>
<clus scale="  332.018">  1  5  2 -1</clus>
</clustering>
</event>
<event>
 9    1  0.7586638E-005  0.9399944E+02  0.7546771E-02  0.1304000E+00
          1   -1    0    0  502    0 -0.00000000000E+00  0.00000000000E+00  0.76720521938E+02  0.76720521938E+02  0.00000000000E+00 0. -1.
         21   -1    0    0  501  502  0.00000000000E+00 -0.00000000000E+00 -0.25826245354E+03  0.25826245354E+03  0.00000000000E+00 0.  1.
        -24    2    1    2    0    0  0.14966888606E+01  0.46265950599E+02 -0.68139060328E+02  0.11080854414E+03  0.74113586135E+02 0.  0.
         23    2    1    2    0    0 -0.29629289158E+02  0.23299196407E+02 -0.11166438963E+03  0.14911595283E+03  0.91355810689E+02 0.  0.
         11    1    3    3    0    0  0.22354409339E+02  0.23356167642E+02 -0.72631745145E+02  0.79502204917E+02  0.00000000000E+00 0. -1.
        -12    1    3    3    0    0 -0.20857720479E+02  0.22909782957E+02  0.44926848171E+01  0.31306339224E+02  0.00000000000E+00 0.  1.
        -11    1    4    4    0    0 -0.12966817364E+01  0.54858363601E+02 -0.75774766822E+02  0.93557130821E+02  0.00000000000E+00 0.  1.
         11    1    4    4    0    0 -0.28332607421E+02 -0.31559167194E+02 -0.35889622808E+02  0.55558822005E+02  0.00000000000E+00 0. -1.
          2    1    1    2  501    0  0.28132600297E+02 -0.69565147006E+02 -0.17384816410E+01  0.75058478507E+02  0.00000000000E+00 0. -1.
<scales pt_clust_5="13000.00000" pt_clust_6="13000.00000" pt_clust_7="13000.00000" pt_clust_8="13000.00000" pt_clust_9="75.03838"></scales>
<clustering>
<clus scale="   74.114">  5  6 -1 -1</clus>
<clus scale="   75.038">  2  9  1 -1</clus>
<clus scale="   77.349">  1  5  2 -1</clus>
<clus scale="   91.356">  7  8 -1 -1</clus>
<clus scale="   75.038">  2  5  1 -1</clus>
</clustering>
</event>
<event>
 9    1  0.7586638E-005  0.2216260E+03  0.7546771E-02  0.1133467E+00
         21   -1    0    0  501  502  0.00000000000E+00  0.00000000000E+00  0.77666818809E+02  0.77666818809E+02  0.00000000000E+00 0. -1.
          1   -1    0    0  502    0 -0.00000000000E+00 -0.00000000000E+00 -0.98496030237E+03  0.98496030237E+03  0.00000000000E+00 0. -1.
        -24    2    1    2    0    0  0.18590537199E+03 -0.69835949342E+02 -0.54600797344E+03  0.58652320660E+03  0.80292575366E+02 0.  0.
         23    2    1    2    0    0 -0.18288141488E+03  0.11106175553E+03 -0.19121969098E+03  0.30108650330E+03  0.91147061392E+02 0.  0.
         11    1    3    3    0    0  0.16597039014E+03 -0.64514988895E+02 -0.38484504534E+03  0.42404488338E+03  0.00000000000E+00 0. -1.
        -12    1    3    3    0    0  0.19934981843E+02 -0.53209604471E+01 -0.16116292810E+03  0.16247832321E+03  0.00000000000E+00 0.  1.
        -11    1    4    4    0    0 -0.12207088665E+03  0.61883335741E+02 -0.17334808257E+03  0.22086286773E+03  0.00000000000E+00 0.  1.
         11    1    4    4    0    0 -0.60810528231E+02  0.49178419789E+02 -0.17871608402E+02  0.80223635567E+02  0.00000000000E+00 0. -1.
          2    1    1    2  501    0 -0.30239571025E+01 -0.41225806187E+02 -0.17006581914E+03  0.17501741128E+03  0.00000000000E+00 0. -1.
<scales pt_clust_5="13000.00000" pt_clust_6="13000.00000" pt_clust_7="13000.00000" pt_clust_8="13000.00000" pt_clust_9="41.33658"></scales>
<clustering>
<clus scale="   41.337">  1  9  2 -1</clus>
<clus scale="   80.293">  5  6 -1 -1</clus>
<clus scale="   91.147">  7  8 -1 -1</clus>
<clus scale="  217.387">  2  5  1 -1</clus>
<clus scale="   41.337">  1  5  2 -1</clus>
</clustering>
</event>
<event>
 9    1  0.7586638E-005  0.1596860E+03  0.7546771E-02  0.1190768E+00
         21   -1    0    0  501  502  0.00000000000E+00  0.00000000000E+00  0.20225684243E+03  0.20225684243E+03  0.00000000000E+00 0.  1.
          1   -1    0    0  502    0 -0.00000000000E+00 -0.00000000000E+00 -0.46494513834E+03  0.46494513834E+03  0.00000000000E+00 0. -1.
        -24    2    1    2    0    0 -0.11424271071E+03  0.88074904206E+02 -0.31820370642E+03  0.35840797800E+03  0.79963080353E+02 0.  0.
         23    2    1    2    0    0 -0.23029022620E+02 -0.10121077492E+03  0.92410885135E+02  0.16604472635E+03  0.90868710854E+02 0.  0.
         13    1    3    3    0    0 -0.12579165835E+03  0.71516015952E+02 -0.27646865934E+03  0.31204647322E+03  0.00000000000E+00 0. -1.
        -14    1    3    3    0    0  0.11548947645E+02  0.16558888254E+02 -0.41735047071E+02  0.46361504785E+02  0.00000000000E+00 0.  1.
        -11    1    4    4    0    0  0.73856437139E+01 -0.75756101443E+02  0.99991732477E+02  0.12566575191E+03  0.00000000000E+00 0.  1.
         11    1    4    4    0    0 -0.30414666333E+02 -0.25454673481E+02 -0.75808473418E+01  0.40378974437E+02  0.00000000000E+00 0. -1.
          2    1    1    2  501    0  0.13727173333E+03  0.13135870717E+02 -0.36895474628E+02  0.14274927642E+03  0.00000000000E+00 0. -1.
<scales pt_clust_5="13000.00000" pt_clust_6="13000.00000" pt_clust_7="13000.00000" pt_clust_8="13000.00000" pt_clust_9="137.89880"></scales>
<clustering>
<clus scale="   79.963">  5  6 -1 -1</clus>
<clus scale="   90.869">  7  8 -1 -1</clus>
<clus scale="  137.899">  1  9  2 -1</clus>
<clus scale="  153.742">  2  5  1 -1</clus>
<clus scale="  137.899">  1  5  2 -1</clus>
</clustering>
</event>
<event>
 9    1  0.7586638E-005  0.9638834E+02  0.7546771E-02  0.1294373E+00
         -4   -1    0    0    0  501 -0.00000000000E+00  0.00000000000E+00  0.15808600133E+03  0.15808600133E+03  0.00000000000E+00 0.  1.
         21   -1    0    0  501  502  0.00000000000E+00 -0.00000000000E+00 -0.10584608776E+03  0.10584608776E+03  0.00000000000E+00 0. -1.
         23    2    1    2    0    0  0.12835613423E+02 -0.10226769240E+02  0.28771463881E+02  0.97747817316E+02  0.91964661013E+02 0.  0.
        -24    2    1    2    0    0 -0.43410669202E+02 -0.44158971780E+02  0.87534538512E+01  0.10208143280E+03  0.80681441355E+02 0.  0.
         13    1    4    4    0    0 -0.55844693363E+02 -0.55255833119E+02 -0.73533273203E+01  0.78904425054E+02  0.00000000000E+00 0. -1.
        -14    1    4    4    0    0  0.12434024161E+02  0.11096861338E+02  0.16106781172E+02  0.23177007747E+02  0.00000000000E+00 0.  1.
        -11    1    3    3    0    0 -0.54852285371E+01 -0.20546802706E+02  0.57980292923E+02  0.61757373657E+02  0.00000000000E+00 0.  1.
         11    1    3    3    0    0  0.18320841960E+02  0.10320033466E+02 -0.29208829042E+02  0.35990443660E+02  0.00000000000E+00 0. -1.
         -3    1    1    2    0  502  0.30575055779E+02  0.54385741020E+02  0.14714995832E+02  0.64102838974E+02  0.00000000000E+00 0.  1.
<scales pt_clust_5="13000.00000" pt_clust_6="13000.00000" pt_clust_7="13000.00000" pt_clust_8="13000.00000" pt_clust_9="62.39108"></scales>
<clustering>
<clus scale="   62.391">  2  9  1 -1</clus>
<clus scale="   80.681">  5  6 -1 -1</clus>
<clus scale="   85.690">  2  5  1 -1</clus>
<clus scale="   91.965">  7  8 -1 -1</clus>
<clus scale="   62.391">  2  5  1 -1</clus>
</clustering>
</event>
<event>
 9    1  0.7586638E-005  0.1015049E+03  0.7546771E-02  0.1279560E+00
         21   -1    0    0  501  502  0.00000000000E+00  0.00000000000E+00  0.93400927659E+02  0.93400927659E+02  0.00000000000E+00 0. -1.
          1   -1    0    0  502    0 -0.00000000000E+00 -0.00000000000E+00 -0.27358256821E+03  0.27358256821E+03  0.00000000000E+00 0. -1.
         23    2    1    2    0    0 -0.68071480665E+02  0.15640899150E+02 -0.35575080490E+02  0.11596385588E+03  0.85461484375E+02 0.  0.
        -24    2    1    2    0    0  0.34232334152E+02 -0.95044439648E+01  0.14056861021E+02  0.88671787810E+02  0.80018144537E+02 0.  0.
         13    1    4    4    0    0  0.16459854014E+02 -0.44534830557E+02  0.17628334883E+01  0.47511951221E+02  0.00000000000E+00 0. -1.
        -14    1    4    4    0    0  0.17772480138E+02  0.35030386593E+02  0.12294027532E+02  0.41159836589E+02  0.00000000000E+00 0.  1.
        -11    1    3    3    0    0  0.10750324390E+02 -0.20794906259E+02 -0.98545809323E+01  0.25399022937E+02  0.00000000000E+00 0.  1.
         11    1    3    3    0    0 -0.78821805054E+02  0.36435805409E+02 -0.25720499558E+02  0.90564832939E+02  0.00000000000E+00 0. -1.
          2    1    1    2  501    0  0.33839146513E+02 -0.61364551852E+01 -0.15866342109E+03  0.16234785219E+03  0.00000000000E+00 0. -1.
<scales pt_clust_5="13000.00000" pt_clust_6="13000.00000" pt_clust_7="13000.00000" pt_clust_8="13000.00000" pt_clust_9="34.39106"></scales>
<clustering>
<clus scale="   34.391">  1  9  2 -1</clus>
<clus scale="   80.018">  5  6 -1 -1</clus>
<clus scale="   85.461">  7  8 -1 -1</clus>
<clus scale="   96.966">  1  5  2 -1</clus>
<clus scale="   34.391">  1  5  2 -1</clus>
</clustering>
</event>
<event>
 9    1  0.7586638E-005  0.1454654E+03  0.7546771E-02  0.1226199E+00
          3   -1    0    0  502    0 -0.00000000000E+00  0.00000000000E+00  0.70830766205E+02  0.70830766205E+02  0.00000000000E+00 0. -1.
         21   -1    0    0  501  502  0.00000000000E+00 -0.00000000000E+00 -0.78487151329E+03  0.78487151329E+03  0.00000000000E+00 0. -1.
        -24    2    1    2    0    0  0.17562933250E+02  0.45070855539E+02 -0.29455467638E+03  0.30956926260E+03  0.82041649949E+02 0.  0.
         23    2    1    2    0    0 -0.11815783894E+03  0.21110179542E+02 -0.39752369014E+03  0.42373362714E+03  0.84369354414E+02 0.  0.
         11    1    3    3    0    0  0.18260665778E+02 -0.17524387482E+02 -0.39252419937E+02  0.46704480965E+02  0.00000000000E+00 0. -1.
        -12    1    3    3    0    0 -0.69773252824E+00  0.62595243021E+02 -0.25530225644E+03  0.26286478163E+03  0.00000000000E+00 0.  1.
        -11    1    4    4    0    0 -0.61919381597E+02  0.47467150355E+02 -0.28174543846E+03  0.29234847746E+03  0.00000000000E+00 0. -1.
         11    1    4    4    0    0 -0.56238457338E+02 -0.26356970812E+02 -0.11577825168E+03  0.13138514968E+03  0.00000000000E+00 0.  1.
          4    1    1    2  501    0  0.10059490569E+03 -0.66181035081E+02 -0.21962380576E+02  0.12239938977E+03  0.00000000000E+00 0. -1.
<scales pt_clust_5="13000.00000" pt_clust_6="13000.00000" pt_clust_7="13000.00000" pt_clust_8="13000.00000" pt_clust_9="118.49902"></scales>
<clustering>
<clus scale="   82.042">  5  6 -1 -1</clus>
<clus scale="   84.369">  7  8 -1 -1</clus>
<clus scale="   95.240">  1  5  2 -1</clus>
<clus scale="  118.499">  2  9  1 -1</clus>
<clus scale="  118.499">  2  5  1 -1</clus>
</clustering>
</event>
<event>
 9    1  0.7586638E-005  0.1943039E+03  0.7546771E-02  0.1158642E+00
         21   -1    0    0  501  502  0.00000000000E+00  0.00000000000E+00  0.56210035312E+02  0.56210035312E+02  0.00000000000E+00 0. -1.
          3   -1    0    0  502    0 -0.00000000000E+00 -0.00000000000E+00 -0.14276106730E+04  0.14276106730E+04  0.00000000000E+00 0. -1.
         23    2    1    2    0    0  0.38481858614E+02 -0.12799330230E+03 -0.43546407478E+03  0.46951384698E+03  0.11380313356E+03 0.  0.
        -24    2    1    2    0    0 -0.95278089138E+02  0.18767657924E+03 -0.31162270275E+03  0.38458017352E+03  0.80577840211E+02 0.  0.
         11    1    4    4    0    0 -0.98974713014E+02  0.12311386402E+03 -0.19231733033E+03  0.24887541637E+03  0.00000000000E+00 0. -1.
        -12    1    4    4    0    0  0.36966238765E+01  0.64562715223E+02 -0.11930537242E+03  0.13570475715E+03  0.00000000000E+00 0.  1.
        -11    1    3    3    0    0  0.45241271694E+02  0.14022978468E+00 -0.84834732611E+02  0.96144288369E+02  0.00000000000E+00 0.  1.
         11    1    3    3    0    0 -0.67594130796E+01 -0.12813353208E+03 -0.35062934217E+03  0.37336955861E+03  0.00000000000E+00 0. -1.
          4    1    1    2  501    0  0.56796230524E+02 -0.59683276940E+02 -0.62431386015E+03  0.62972668779E+03  0.00000000000E+00 0. -1.
<scales pt_clust_5="13000.00000" pt_clust_6="13000.00000" pt_clust_7="13000.00000" pt_clust_8="13000.00000" pt_clust_9="82.38879"></scales>
<clustering>
<clus scale="   80.578">  5  6 -1 -1</clus>
<clus scale="   82.389">  1  9  2 -1</clus>
<clus scale="  113.803">  7  8 -1 -1</clus>
<clus scale="  176.906">  1  5  2 -1</clus>
<clus scale="   82.389">  1  5  2 -1</clus>
</clustering>
</event>
<event>
 9    1  0.7586638E-005  0.1314060E+03  0.7546771E-02  0.1228506E+00
         21   -1    0    0  501  502  0.00000000000E+00  0.00000000000E+00  0.14353256564E+03  0.14353256564E+03  0.00000000000E+00 0.  1.
          1   -1    0    0  502    0 -0.00000000000E+00 -0.00000000000E+00 -0.29120941002E+03  0.29120941002E+03  0.00000000000E+00 0. -1.
         23    2    1    2    0    0  0.68925074131E+02  0.69406663137E+02 -0.22302055916E+03  0.26056570605E+03  0.92673440794E+02 0.  0.
        -24    2    1    2    0    0 -0.26791123837E+02 -0.67546071052E+02  0.75193766596E+02  0.13200099184E+03  0.80560060090E+02 0.  0.
         13    1    4    4    0    0 -0.55392269536E+02 -0.50428460978E+02  0.56102276198E+02  0.93588453324E+02  0.00000000000E+00 0. -1.
        -14    1    4    4    0    0  0.28601145699E+02 -0.17117610074E+02  0.19091490398E+02  0.38412538520E+02  0.00000000000E+00 0.  1.
        -11    1    3    3    0    0  0.90407366080E+02  0.65038289341E+02 -0.17046867132E+03  0.20362475002E+03  0.00000000000E+00 0. -1.
         11    1    3    3    0    0 -0.21482291949E+02  0.43683737956E+01 -0.52551887848E+02  0.56940956028E+02  0.00000000000E+00 0.  1.
          2    1    1    2  501    0 -0.42133950294E+02 -0.18605920843E+01  0.14994819199E+00  0.42175277767E+02  0.00000000000E+00 0. -1.
<scales pt_clust_5="13000.00000" pt_clust_6="13000.00000" pt_clust_7="13000.00000" pt_clust_8="13000.00000" pt_clust_9="42.17501"></scales>
<clustering>
<clus scale="   42.175">  1  9  2 -1</clus>
<clus scale="   80.560">  5  6 -1 -1</clus>
<clus scale="   92.673">  7  8 -1 -1</clus>
<clus scale="  123.163">  1  5  2 -1</clus>
<clus scale="   42.175">  1  5  2 -1</clus>
</clustering>
</event>
<event>
 9    1  0.7586638E-005  0.1877282E+03  0.7546771E-02  0.1161756E+00
         21   -1    0    0  501  502  0.00000000000E+00  0.00000000000E+00  0.15998649757E+03  0.15998649757E+03  0.00000000000E+00 0.  1.
         -4   -1    0    0    0  501 -0.00000000000E+00 -0.00000000000E+00 -0.27035602915E+03  0.27035602915E+03  0.00000000000E+00 0.  1.
         23    2    1    2    0    0  0.11986172380E+03 -0.13055831184E+03 -0.72741985290E+02  0.21196266804E+03  0.90688866982E+02 0.  0.
        -24    2    1    2    0    0 -0.78870910074E+02  0.13156432898E+03 -0.40400193807E+02  0.17728306497E+03  0.79166383947E+02 0.  0.
         11    1    4    4    0    0 -0.36187972638E+02  0.30536987723E+01 -0.16017027695E+02  0.39691807921E+02  0.00000000000E+00 0. -1.
        -12    1    4    4    0    0 -0.42682937435E+02  0.12851063021E+03 -0.24383166113E+02  0.13759125704E+03  0.00000000000E+00 0.  1.
        -11    1    3    3    0    0  0.13417784909E+03 -0.11043991831E+03 -0.58010459879E+02  0.18320994569E+03  0.00000000000E+00 0.  1.
         11    1    3    3    0    0 -0.14316125292E+02 -0.20118393531E+02 -0.14731525411E+02  0.28752722351E+02  0.00000000000E+00 0. -1.
         -3    1    1    2    0  502 -0.40990813722E+02 -0.10060171406E+01  0.27726475165E+01  0.41096793723E+02  0.00000000000E+00 0.  1.
<scales pt_clust_5="13000.00000" pt_clust_6="13000.00000" pt_clust_7="13000.00000" pt_clust_8="13000.00000" pt_clust_9="41.00316"></scales>
<clustering>
<clus scale="   41.003">  1  9  2 -1</clus>
<clus scale="   79.166">  5  6 -1 -1</clus>
<clus scale="   90.689">  7  8 -1 -1</clus>
<clus scale="  182.441">  1  5  2 -1</clus>
<clus scale="   41.003">  1  5  2 -1</clus>
</clustering>
</event>
<event>
 9    1  0.7586638E-005  0.9418064E+02  0.7546771E-02  0.1298719E+00
         -2   -1    0    0    0  501 -0.00000000000E+00  0.00000000000E+00  0.21564412133E+03  0.21564412133E+03  0.00000000000E+00 0.  1.
         21   -1    0    0  501  502  0.00000000000E+00 -0.00000000000E+00 -0.16088143112E+03  0.16088143112E+03  0.00000000000E+00 0.  1.
         23    2    1    2    0    0 -0.28251514089E+02 -0.23665451088E+02  0.14897005355E+03  0.17843501524E+03  0.91042716273E+02 0.  0.
        -24    2    1    2    0    0 -0.31812954947E+02  0.86055838811E+01 -0.28493463447E+01  0.87723751851E+02  0.81247878051E+02 0.  0.
         11    1    4    4    0    0  0.22477875659E+02 -0.44906017966E+01 -0.18796649727E+02  0.29643455257E+02  0.00000000000E+00 0. -1.
        -12    1    4    4    0    0 -0.54290830606E+02  0.13096185678E+02  0.15947303382E+02  0.58080296593E+02  0.00000000000E+00 0.  1.
        -11    1    3    3    0    0 -0.49763419886E+02 -0.44463379092E+02  0.11665686091E+03  0.13439573370E+03  0.00000000000E+00 0.  1.
         11    1    3    3    0    0  0.21511905797E+02  0.20797928004E+02  0.32313192637E+02  0.44039281541E+02  0.00000000000E+00 0. -1.
         -1    1    1    2    0  502  0.60064469037E+02  0.15059867207E+02 -0.91358016992E+02  0.11036678536E+03  0.00000000000E+00 0.  1.
<scales pt_clust_5="13000.00000" pt_clust_6="13000.00000" pt_clust_7="13000.00000" pt_clust_8="13000.00000" pt_clust_9="61.92366"></scales>
<clustering>
<clus scale="   61.924">  2  9  1 -1</clus>
<clus scale="   81.248">  5  6 -1 -1</clus>
<clus scale="   84.749">  2  5  1 -1</clus>
<clus scale="   91.043">  7  8 -1 -1</clus>
<clus scale="   61.924">  2  5  1 -1</clus>
</clustering>
</event>
<event>
 9    1  0.7586638E-005  0.9421068E+02  0.7546771E-02  0.1299277E+00
         21   -1    0    0  501  502  0.00000000000E+00  0.00000000000E+00  0.51707119669E+02  0.51707119669E+02  0.00000000000E+00 0.  1.
         -2   -1    0    0    0  501 -0.00000000000E+00 -0.00000000000E+00 -0.30878155093E+03  0.30878155093E+03  0.00000000000E+00 0.  1.
         23    2    1    2    0    0 -0.54594499318E+01 -0.11121111986E+02 -0.17869313546E+03  0.20121524557E+03  0.91667080574E+02 0.  0.
        -24    2    1    2    0    0  0.89181712607E+01  0.49312442280E+02 -0.35116326853E+02  0.10145994909E+03  0.80930304059E+02 0.  0.
         11    1    4    4    0    0 -0.31129676360E+02  0.69451753386E+00 -0.46231588579E+01  0.31478765902E+02  0.00000000000E+00 0. -1.
        -12    1    4    4    0    0  0.40047847621E+02  0.48617924747E+02 -0.30493167995E+02  0.69981183186E+02  0.00000000000E+00 0.  1.
        -11    1    3    3    0    0  0.21364958395E+02  0.16293486201E+02 -0.15231111806E+03  0.15466291031E+03  0.00000000000E+00 0.  1.
         11    1    3    3    0    0 -0.26824408327E+02 -0.27414598187E+02 -0.26382017404E+02  0.46552335260E+02  0.00000000000E+00 0. -1.
         -1    1    1    2    0  502 -0.34587213289E+01 -0.38191330294E+02 -0.43264968941E+02  0.57813475940E+02  0.00000000000E+00 0.  1.
<scales pt_clust_5="13000.00000" pt_clust_6="13000.00000" pt_clust_7="13000.00000" pt_clust_8="13000.00000" pt_clust_9="38.34765"></scales>
<clustering>
<clus scale="   38.348">  1  9  2 -1</clus>
<clus scale="   80.930">  5  6 -1 -1</clus>
<clus scale="   83.800">  1  5  2 -1</clus>
<clus scale="   91.667">  7  8 -1 -1</clus>
<clus scale="   38.348">  1  5  2 -1</clus>
</clustering>
</event>
<event>
 9    1  0.7586638E-005  0.1120599E+03  0.7546771E-02  0.1260749E+00
         -2   -1    0    0    0  501 -0.00000000000E+00  0.00000000000E+00  0.54875692226E+02  0.54875692226E+02  0.00000000000E+00 0.  1.
         21   -1    0    0  501  502  0.00000000000E+00 -0.00000000000E+00 -0.61694108636E+03  0.61694108636E+03  0.00000000000E+00 0.  1.
        -24    2    1    2    0    0 -0.16034237495E+02 -0.51968055906E+02 -0.57342275699E+02  0.11320698311E+03  0.81054974152E+02 0.  0.
         23    2    1    2    0    0 -0.28470121425E+02  0.12014267528E+03 -0.37722636140E+03  0.40733574039E+03  0.91530691170E+02 0.  0.
         11    1    3    3    0    0  0.69973524121E+01 -0.53728693740E+02 -0.68676845110E+02  0.87477108583E+02  0.00000000000E+00 0. -1.
        -12    1    3    3    0    0 -0.23031589907E+02  0.17606378345E+01  0.11334569410E+02  0.25729874522E+02  0.00000000000E+00 0.  1.
        -13    1    4    4    0    0 -0.36066889729E+02  0.99897084612E+02 -0.36935785052E+03  0.38432469318E+03  0.00000000000E+00 0.  1.
         13    1    4    4    0    0  0.75967683042E+01  0.20245590667E+02 -0.78685108816E+01  0.23011047208E+02  0.00000000000E+00 0. -1.
         -1    1    1    2    0  502  0.44504358920E+02 -0.68174619374E+02 -0.12749675703E+03  0.15127405509E+03  0.00000000000E+00 0.  1.
<scales pt_clust_5="13000.00000" pt_clust_6="13000.00000" pt_clust_7="13000.00000" pt_clust_8="13000.00000" pt_clust_9="81.41509"></scales>
<clustering>
<clus scale="   81.055">  5  6 -1 -1</clus>
<clus scale="   81.415">  2  9  1 -1</clus>
<clus scale="   91.531">  7  8 -1 -1</clus>
<clus scale="  103.680">  1  5  2 -1</clus>
<clus scale="   81.415">  2  5  1 -1</clus>
</clustering>
</event>
<event>
 9    1  0.7586638E-005  0.9586691E+02  0.7546771E-02  0.1295127E+00
          3   -1    0    0  502    0 -0.00000000000E+00  0.00000000000E+00  0.19045440301E+03  0.19045440301E+03  0.00000000000E+00 0. -1.
         21   -1    0    0  501  502  0.00000000000E+00 -0.00000000000E+00 -0.10860937591E+03  0.10860937591E+03  0.00000000000E+00 0. -1.
         23    2    1    2    0    0  0.65566362672E+00  0.17740590494E+02  0.20494925427E+02  0.95605009082E+02  0.91679427068E+02 0.  0.
        -24    2    1    2    0    0  0.61134800169E+02  0.37537175734E+02  0.17738925010E+02  0.10978045012E+03  0.81182352851E+02 0.  0.
         11    1    4    4    0    0  0.18690758074E+02  0.47714723464E+02  0.35834088800E+02  0.62530961873E+02  0.00000000000E+00 0. -1.
        -12    1    4    4    0    0  0.42444042095E+02 -0.10177547730E+02 -0.18095163789E+02  0.47249488248E+02  0.00000000000E+00 0.  1.
        -13    1    3    3    0    0  0.63554230863E+01 -0.37383692976E+02  0.97722702157E+01  0.39159024098E+02  0.00000000000E+00 0. -1.
         13    1    3    3    0    0 -0.56997594596E+01  0.55124283470E+02  0.10722655211E+02  0.56445984984E+02  0.00000000000E+00 0.  1.
          4    1    1    2  501    0 -0.61790463796E+02 -0.55277766228E+02  0.43611176667E+02  0.93678319720E+02  0.00000000000E+00 0. -1.
<scales pt_clust_5="13000.00000" pt_clust_6="13000.00000" pt_clust_7="13000.00000" pt_clust_8="13000.00000" pt_clust_9="82.90778"></scales>
<clustering>
<clus scale="   81.182">  5  6 -1 -1</clus>
<clus scale="   82.908">  2  9  1 -1</clus>
<clus scale="   85.883">  2  5  1 -1</clus>
<clus scale="   91.679">  7  8 -1 -1</clus>
<clus scale="   82.908">  2  5  1 -1</clus>
</clustering>
</event>
<event>
 9    1  0.7586638E-005  0.2117146E+03  0.7546771E-02  0.1175733E+00
          1   -1    0    0  502    0 -0.00000000000E+00  0.00000000000E+00  0.36028623243E+03  0.36028623243E+03  0.00000000000E+00 0. -1.
         21   -1    0    0  501  502  0.00000000000E+00 -0.00000000000E+00 -0.23866729113E+03  0.23866729113E+03  0.00000000000E+00 0. -1.
         23    2    1    2    0    0 -0.19273420808E+02 -0.61705672345E+01  0.15074834266E+03  0.17677200022E+03  0.90076282103E+02 0.  0.
        -24    2    1    2    0    0  0.76175791231E+02 -0.18086567505E+03 -0.68013704719E+02  0.22285158395E+03  0.80757791309E+02 0.  0.
         11    1    4    4    0    0  0.83177096389E+02 -0.15357645828E+03 -0.80160635541E+02  0.19217149995E+03  0.00000000000E+00 0. -1.
        -12    1    4    4    0    0 -0.70013051577E+01 -0.27289216773E+02  0.12146930822E+02  0.30680084003E+02  0.00000000000E+00 0.  1.
        -13    1    3    3    0    0  0.19469061384E+02  0.27521503024E+02  0.28373686405E+02  0.44062949970E+02  0.00000000000E+00 0.  1.
         13    1    3    3    0    0 -0.38742482192E+02 -0.33692070259E+02  0.12237465626E+03  0.13270905025E+03  0.00000000000E+00 0. -1.
          2    1    1    2  501    0 -0.56902370422E+02  0.18703624229E+03  0.38884303358E+02  0.19932993939E+03  0.00000000000E+00 0. -1.
<scales pt_clust_5="13000.00000" pt_clust_6="13000.00000" pt_clust_7="13000.00000" pt_clust_8="13000.00000" pt_clust_9="195.70720"></scales>
<clustering>
<clus scale="   80.758">  5  6 -1 -1</clus>
<clus scale="   90.076">  7  8 -1 -1</clus>
<clus scale="   92.322">  1  7  2 -1</clus>
<clus scale="  195.707">  2  9  1 -1</clus>
<clus scale="  195.707">  2  5  1 -1</clus>
</clustering>
</event>
<event>
 9    1  0.7586638E-005  0.1294236E+03  0.7546771E-02  0.1243332E+00
          1   -1    0    0  502    0 -0.00000000000E+00  0.00000000000E+00  0.42075350849E+02  0.42075350849E+02  0.00000000000E+00 0. -1.
         21   -1    0    0  501  502  0.00000000000E+00 -0.00000000000E+00 -0.92424579962E+03  0.92424579962E+03  0.00000000000E+00 0. -1.
         23    2    1    2    0    0  0.20188902837E+02  0.10219703102E+02 -0.63379495892E+02  0.11436458939E+03  0.92467641241E+02 0.  0.
        -24    2    1    2    0    0  0.25796215580E+02 -0.99680468951E+02 -0.38670531923E+03  0.40831723173E+03  0.81119154206E+02 0.  0.
         13    1    4    4    0    0  0.65645532403E-01 -0.10148608289E+03 -0.26192444683E+03  0.28089828262E+03  0.00000000000E+00 0. -1.
        -14    1    4    4    0    0  0.25730570047E+02  0.18056139381E+01 -0.12478087239E+03  0.12741894911E+03  0.00000000000E+00 0.  1.
        -13    1    3    3    0    0 -0.57832774612E+01  0.24723785827E+02  0.15715049987E+02  0.29860922288E+02  0.00000000000E+00 0.  1.
         13    1    3    3    0    0  0.25972180298E+02 -0.14504082725E+02 -0.79094545879E+02  0.84503667098E+02  0.00000000000E+00 0. -1.
          2    1    1    2  501    0 -0.45985118416E+02  0.89460765850E+02 -0.43208563365E+03  0.44363932936E+03  0.00000000000E+00 0. -1.
<scales pt_clust_5="13000.00000" pt_clust_6="13000.00000" pt_clust_7="13000.00000" pt_clust_8="13000.00000" pt_clust_9="100.84719"></scales>
<clustering>
<clus scale="   81.119">  5  6 -1 -1</clus>
<clus scale="   92.468">  7  8 -1 -1</clus>
<clus scale="   95.196">  1  7  2 -1</clus>
<clus scale="  100.847">  2  9  1 -1</clus>
<clus scale="  100.847">  2  5  1 -1</clus>
</clustering>
</event>
<event>
 9    1  0.7586638E-005  0.1292143E+03  0.7546771E-02  0.1242338E+00
         -2   -1    0    0    0  501 -0.00000000000E+00  0.00000000000E+00  0.13306954414E+03  0.13306954414E+03  0.00000000000E+00 0.  1.
         21   -1    0    0  501  502  0.00000000000E+00 -0.00000000000E+00 -0.25022256581E+03  0.25022256581E+03  0.00000000000E+00 0. -1.
         23    2    1    2    0    0 -0.16863458995E+02 -0.24984249893E+02 -0.68594199119E+02  0.11929492659E+03  0.92830632695E+02 0.  0.
        -24    2    1    2    0    0 -0.92995096664E+02  0.29203134073E+02 -0.79749216178E+02  0.14971883068E+03  0.80962211782E+02 0.  0.
         11    1    4    4    0    0 -0.94902712959E+02  0.14326439593E+02 -0.34404584886E+02  0.10195806618E+03  0.00000000000E+00 0. -1.
        -12    1    4    4    0    0  0.19076162957E+01  0.14876694480E+02 -0.45344631292E+02  0.47760764500E+02  0.00000000000E+00 0.  1.
        -13    1    3    3    0    0  0.39034557414E+01  0.27118197238E+02  0.38594333763E+01  0.27668191378E+02  0.00000000000E+00 0.  1.
         13    1    3    3    0    0 -0.20766914736E+02 -0.52102447131E+02 -0.72453632495E+02  0.91626735216E+02  0.00000000000E+00 0. -1.
         -1    1    1    2    0  502  0.10985855566E+03 -0.42188841797E+01  0.31190393629E+02  0.11427835267E+03  0.00000000000E+00 0.  1.
<scales pt_clust_5="13000.00000" pt_clust_6="13000.00000" pt_clust_7="13000.00000" pt_clust_8="13000.00000" pt_clust_9="100.70490"></scales>
<clustering>
<clus scale="   80.962">  5  6 -1 -1</clus>
<clus scale="   92.831">  7  8 -1 -1</clus>
<clus scale="   97.602">  1  7  2 -1</clus>
<clus scale="  100.705">  2  9  1 -1</clus>
<clus scale="  100.705">  2  5  1 -1</clus>
</clustering>
</event>
<event>
 9    1  0.7586638E-005  0.1240054E+03  0.7546771E-02  0.1254737E+00
         21   -1    0    0  501  502  0.00000000000E+00  0.00000000000E+00  0.23267472651E+03  0.23267472651E+03  0.00000000000E+00 0. -1.
          1   -1    0    0  502    0 -0.00000000000E+00 -0.00000000000E+00 -0.24138965446E+03  0.24138965446E+03  0.00000000000E+00 0. -1.
        -24    2    1    2    0    0 -0.22992219281E+02 -0.21559747857E+02 -0.15925900595E+03  0.18106437509E+03  0.80171142410E+02 0.  0.
         23    2    1    2    0    0 -0.45187286073E+02 -0.33567485489E+02 -0.11510803874E+02  0.10874680631E+03  0.92329314807E+02 0.  0.
         11    1    3    3    0    0  0.10301476861E+00 -0.41250347752E+02 -0.13793821007E+03  0.14397413518E+03  0.00000000000E+00 0. -1.
        -12    1    3    3    0    0 -0.23095234050E+02  0.19690599895E+02 -0.21320795879E+02  0.37090239915E+02  0.00000000000E+00 0.  1.
        -13    1    4    4    0    0  0.30155757133E+01  0.20136185180E+02  0.21307129869E+02  0.29471230611E+02  0.00000000000E+00 0.  1.
         13    1    4    4    0    0 -0.48202861786E+02 -0.53703670669E+02 -0.32817933743E+02  0.79275575702E+02  0.00000000000E+00 0. -1.
          2    1    1    2  501    0  0.68179505354E+02  0.55127233347E+02  0.16205488188E+03  0.18425319956E+03  0.00000000000E+00 0. -1.
<scales pt_clust_5="13000.00000" pt_clust_6="13000.00000" pt_clust_7="13000.00000" pt_clust_8="13000.00000" pt_clust_9="82.78060"></scales>
<clustering>
<clus scale="   80.171">  5  6 -1 -1</clus>
<clus scale="   86.145">  2  5  1 -1</clus>
<clus scale="   82.781">  1  9  2 -1</clus>
<clus scale="   92.329">  7  8 -1 -1</clus>
<clus scale="   82.781">  1  5  2 -1</clus>
</clustering>
</event>
<event>
 9    1  0.7586638E-005  0.2548374E+03  0.7546771E-02  0.1121124E+00
          1   -1    0    0  502    0 -0.00000000000E+00  0.00000000000E+00  0.11955522230E+03  0.11955522230E+03  0.00000000000E+00 0. -1.
         21   -1    0    0  501  502  0.00000000000E+00 -0.00000000000E+00 -0.12278232156E+04  0.12278232156E+04  0.00000000000E+00 0. -1.
        -24    2    1    2    0    0 -0.11244090006E+02  0.17656841809E+03 -0.17444823412E+03  0.26083397724E+03  0.79368390860E+02 0.  0.
         23    2    1    2    0    0  0.16249651397E+03  0.58778041275E+02 -0.12809207394E+03  0.23363042370E+03  0.91190022933E+02 0.  0.
         13    1    3    3    0    0  0.76884094282E+01  0.15102359604E+03 -0.10396280479E+03  0.18350886349E+03  0.00000000000E+00 0. -1.
        -14    1    3    3    0    0 -0.18932499434E+02  0.25544822054E+02 -0.70485429327E+02  0.77325113747E+02  0.00000000000E+00 0.  1.
        -13    1    4    4    0    0  0.68227617659E+02  0.64433360107E+02 -0.95070107743E+02  0.13358514548E+03  0.00000000000E+00 0. -1.
         13    1    4    4    0    0  0.94268896308E+02 -0.56553188322E+01 -0.33021966199E+02  0.10004527822E+03  0.00000000000E+00 0.  1.
          2    1    1    2  501    0 -0.15125242396E+03 -0.23534645937E+03 -0.80572768521E+03  0.85291403693E+03  0.00000000000E+00 0. -1.
<scales pt_clust_5="13000.00000" pt_clust_6="13000.00000" pt_clust_7="13000.00000" pt_clust_8="13000.00000" pt_clust_9="237.96318"></scales>
<clustering>
<clus scale="   79.368">  5  6 -1 -1</clus>
<clus scale="   91.190">  7  8 -1 -1</clus>
<clus scale="  193.913">  1  5  2 -1</clus>
<clus scale="  237.963">  2  9  1 -1</clus>
<clus scale="  237.963">  2  5  1 -1</clus>
</clustering>
</event>
<event>
 9    1  0.7586638E-005  0.1869075E+03  0.7546771E-02  0.1193484E+00
         -2   -1    0    0    0  501 -0.00000000000E+00  0.00000000000E+00  0.16908884968E+03  0.16908884968E+03  0.00000000000E+00 0.  1.
         21   -1    0    0  501  502  0.00000000000E+00 -0.00000000000E+00 -0.46120515257E+03  0.46120515257E+03  0.00000000000E+00 0.  1.
         23    2    1    2    0    0  0.68530112791E+01  0.16643841240E+02  0.48027953459E+02  0.10229014093E+03  0.88502019202E+02 0.  0.
        -24    2    1    2    0    0  0.90964376110E+02 -0.15135484976E+03 -0.61580030816E+02  0.20348371581E+03  0.80191733602E+02 0.  0.
         11    1    4    4    0    0  0.47791542965E+02 -0.31504679225E+02 -0.49226400613E+02  0.75497118550E+02  0.00000000000E+00 0. -1.
        -12    1    4    4    0    0  0.43172833146E+02 -0.11985017054E+03 -0.12353630202E+02  0.12798659726E+03  0.00000000000E+00 0.  1.
        -13    1    3    3    0    0  0.36303602310E+02 -0.16691147826E+02  0.41013402063E+02  0.57259454287E+02  0.00000000000E+00 0. -1.
         13    1    3    3    0    0 -0.29450591031E+02  0.33334989066E+02  0.70145513957E+01  0.45030686641E+02  0.00000000000E+00 0.  1.
         -1    1    1    2    0  502 -0.97817387389E+02  0.13471100852E+03 -0.27856422553E+03  0.32452014551E+03  0.00000000000E+00 0.  1.
<scales pt_clust_5="13000.00000" pt_clust_6="13000.00000" pt_clust_7="13000.00000" pt_clust_8="13000.00000" pt_clust_9="168.83034"></scales>
<clustering>
<clus scale="   80.192">  5  6 -1 -1</clus>
<clus scale="   88.502">  7  8 -1 -1</clus>
<clus scale="   90.314">  1  7  2 -1</clus>
<clus scale="  168.830">  2  9  1 -1</clus>
<clus scale="  168.830">  2  5  1 -1</clus>
</clustering>
</event>
<event>
 9    1  0.7586638E-005  0.1255565E+03  0.7546771E-02  0.1252354E+00
          1   -1    0    0  502    0 -0.00000000000E+00  0.00000000000E+00  0.88328246122E+03  0.88328246122E+03  0.00000000000E+00 0. -1.
         21   -1    0    0  501  502  0.00000000000E+00 -0.00000000000E+00 -0.67401315344E+02  0.67401315344E+02  0.00000000000E+00 0.  1.
        -24    2    1    2    0    0  0.52843125141E+01  0.40024142611E+02  0.67715373828E+03  0.68272160247E+03  0.77082717016E+02 0.  0.
         23    2    1    2    0    0  0.20504591582E+02  0.64430391395E+02  0.40870393712E+02  0.12252554729E+03  0.93650451390E+02 0.  0.
         11    1    3    3    0    0  0.20191361116E+02  0.41534247715E+02  0.19725595176E+03  0.20258996842E+03  0.00000000000E+00 0. -1.
        -12    1    3    3    0    0 -0.14907048602E+02 -0.15101051043E+01  0.47989778652E+03  0.48013163406E+03  0.00000000000E+00 0.  1.
        -13    1    4    4    0    0 -0.15914373769E+02  0.22033059048E+02  0.58012834075E+02  0.64064123352E+02  0.00000000000E+00 0. -1.
         13    1    4    4    0    0  0.36418965351E+02  0.42397332347E+02 -0.17142440363E+02  0.58461423939E+02  0.00000000000E+00 0.  1.
          2    1    1    2  501    0 -0.25788904096E+02 -0.10445453401E+03  0.97857013879E+02  0.14543662680E+03  0.00000000000E+00 0. -1.
<scales pt_clust_5="13000.00000" pt_clust_6="13000.00000" pt_clust_7="13000.00000" pt_clust_8="13000.00000" pt_clust_9="83.63030"></scales>
<clustering>
<clus scale="   77.083">  5  6 -1 -1</clus>
<clus scale="   87.015">  1  5  2 -1</clus>
<clus scale="   83.630">  2  9  1 -1</clus>
<clus scale="   93.650">  7  8 -1 -1</clus>
<clus scale="   83.630">  2  5  1 -1</clus>
</clustering>
</event>
<event>
 9    1  0.7586638E-005  0.1566104E+03  0.7546771E-02  0.1194610E+00
         21   -1    0    0  501  502  0.00000000000E+00  0.00000000000E+00  0.25406844551E+03  0.25406844551E+03  0.00000000000E+00 0. -1.
          1   -1    0    0  502    0 -0.00000000000E+00 -0.00000000000E+00 -0.12792636492E+03  0.12792636492E+03  0.00000000000E+00 0. -1.
         23    2    1    2    0    0 -0.11447005516E+03  0.80467271118E+02 -0.71147843689E+01  0.16729509721E+03  0.91425675519E+02 0.  0.
        -24    2    1    2    0    0  0.82384116265E+02 -0.67759056080E+02  0.95801919925E+02  0.16376957370E+03  0.79145644949E+02 0.  0.
         13    1    4    4    0    0  0.40199500600E+02  0.47103732428E+01  0.60205559091E+01  0.40919855303E+02  0.00000000000E+00 0. -1.
        -14    1    4    4    0    0  0.42184615665E+02 -0.72469429323E+02  0.89781364016E+02  0.12284971839E+03  0.00000000000E+00 0.  1.
        -13    1    3    3    0    0  0.59330252988E+01  0.29330939295E+02 -0.19779820784E+02  0.35871243348E+02  0.00000000000E+00 0.  1.
         13    1    3    3    0    0 -0.12040308046E+03  0.51136331823E+02  0.12665036415E+02  0.13142385386E+03  0.00000000000E+00 0. -1.
          2    1    1    2  501    0  0.32085938894E+02 -0.12708215038E+02  0.37454945040E+02  0.50930139526E+02  0.00000000000E+00 0. -1.
<scales pt_clust_5="13000.00000" pt_clust_6="13000.00000" pt_clust_7="13000.00000" pt_clust_8="13000.00000" pt_clust_9="34.51096"></scales>
<clustering>
<clus scale="   34.511">  1  9  2 -1</clus>
<clus scale="   79.146">  5  6 -1 -1</clus>
<clus scale="   91.426">  7  8 -1 -1</clus>
<clus scale="  149.774">  1  5  2 -1</clus>
<clus scale="   34.511">  1  5  2 -1</clus>
</clustering>
</event>
<event>
 9    1  0.7586638E-005  0.1194050E+03  0.7546771E-02  0.1256039E+00
          1   -1    0    0  502    0 -0.00000000000E+00  0.00000000000E+00  0.32297930395E+03  0.32297930395E+03  0.00000000000E+00 0. -1.
         21   -1    0    0  501  502  0.00000000000E+00 -0.00000000000E+00 -0.32400378085E+03  0.32400378085E+03  0.00000000000E+00 0. -1.
        -24    2    1    2    0    0  0.27062902585E+02  0.21468867836E+02  0.18693453901E+03  0.20697005107E+03  0.81845996746E+02 0.  0.
         23    2    1    2    0    0 -0.52992655906E+02 -0.10151554364E+03  0.66359448659E+02  0.17213674914E+03  0.11006296742E+03 0.  0.
         13    1    3    3    0    0  0.52307544515E+02  0.20531925303E+02  0.84587210978E+02  0.10155114687E+03  0.00000000000E+00 0. -1.
        -14    1    3    3    0    0 -0.25244641931E+02  0.93694253359E+00  0.10234732804E+03  0.10541890420E+03  0.00000000000E+00 0.  1.
        -13    1    4    4    0    0 -0.63541066826E+02 -0.33924737417E+02 -0.63439288730E+01  0.72309061782E+02  0.00000000000E+00 0.  1.
         13    1    4    4    0    0  0.10548410920E+02 -0.67590806225E+02  0.72703377532E+02  0.99827687360E+02  0.00000000000E+00 0. -1.
          2    1    1    2  501    0  0.25929753322E+02  0.80046675807E+02 -0.25431846457E+03  0.26787628457E+03  0.00000000000E+00 0. -1.
<scales pt_clust_5="13000.00000" pt_clust_6="13000.00000" pt_clust_7="13000.00000" pt_clust_8="13000.00000" pt_clust_9="84.14168"></scales>
<clustering>
<clus scale="   81.846">  5  6 -1 -1</clus>
<clus scale="   84.142">  2  9  1 -1</clus>
<clus scale="   94.034">  1  5  2 -1</clus>
<clus scale="  110.063">  7  8 -1 -1</clus>
<clus scale="   84.142">  2  5  1 -1</clus>
</clustering>
</event>
<event>
 9    1  0.7586638E-005  0.1992113E+03  0.7546771E-02  0.1180988E+00
          1   -1    0    0  502    0 -0.00000000000E+00  0.00000000000E+00  0.37022684178E+03  0.37022684178E+03  0.00000000000E+00 0. -1.
         21   -1    0    0  501  502  0.00000000000E+00 -0.00000000000E+00 -0.40182696091E+03  0.40182696091E+03  0.00000000000E+00 0. -1.
         23    2    1    2    0    0 -0.25124416356E+02 -0.58789081535E+02  0.24764794038E+03  0.26649509696E+03  0.74851465747E+02 0.  0.
        -24    2    1    2    0    0 -0.85532626477E+02 -0.10792256843E+03  0.33402211184E+01  0.15930173221E+03  0.80017334625E+02 0.  0.
         13    1    4    4    0    0 -0.82362911451E+02 -0.11615695312E+03  0.16617007074E+02  0.14336042643E+03  0.00000000000E+00 0. -1.
        -14    1    4    4    0    0 -0.31697150255E+01  0.82343846981E+01 -0.13276785956E+02  0.15941305781E+02  0.00000000000E+00 0.  1.
        -11    1    3    3    0    0 -0.21550668260E+02  0.67954092732E+01  0.22211954376E+02  0.31685640389E+02  0.00000000000E+00 0.  1.
         11    1    3    3    0    0 -0.35737480962E+01 -0.65584490808E+02  0.22543598600E+03  0.23480945657E+03  0.00000000000E+00 0. -1.
          2    1    1    2  501    0  0.11065704283E+03  0.16671164996E+03 -0.28258828063E+03  0.34625697352E+03  0.00000000000E+00 0. -1.
<scales pt_clust_5="13000.00000" pt_clust_6="13000.00000" pt_clust_7="13000.00000" pt_clust_8="13000.00000" pt_clust_9="182.43451"></scales>
<clustering>
<clus scale="   74.851">  7  8 -1 -1</clus>
<clus scale="   80.017">  5  6 -1 -1</clus>
<clus scale="   98.438">  1  7  2 -1</clus>
<clus scale="  182.435">  2  9  1 -1</clus>
<clus scale="  182.435">  2  5  1 -1</clus>
</clustering>
</event>
<event>
 9    1  0.7586638E-005  0.2512985E+03  0.7546771E-02  0.1113258E+00
         21   -1    0    0  501  502  0.00000000000E+00  0.00000000000E+00  0.10939784386E+03  0.10939784386E+03  0.00000000000E+00 0. -1.
          1   -1    0    0  502    0 -0.00000000000E+00 -0.00000000000E+00 -0.73822969693E+03  0.73822969693E+03  0.00000000000E+00 0. -1.
        -24    2    1    2    0    0 -0.21928541550E+03  0.10196977145E+03 -0.32737264294E+03  0.41450296980E+03  0.78459778808E+02 0.  0.
         23    2    1    2    0    0  0.17920043789E+03 -0.13682427443E+03 -0.18790894961E+03  0.30776387750E+03  0.92602116258E+02 0.  0.
         11    1    3    3    0    0 -0.15466238689E+03  0.81949314629E+02 -0.17367587267E+03  0.24657545059E+03  0.00000000000E+00 0. -1.
        -12    1    3    3    0    0 -0.64623028609E+02  0.20020456822E+02 -0.15369677027E+03  0.16792751921E+03  0.00000000000E+00 0.  1.
        -13    1    4    4    0    0  0.80046613838E+02 -0.96236766021E+02 -0.54149832795E+02  0.13638614267E+03  0.00000000000E+00 0. -1.
         13    1    4    4    0    0  0.99153824049E+02 -0.40587508413E+02 -0.13375911682E+03  0.17137773483E+03  0.00000000000E+00 0.  1.
          2    1    1    2  501    0  0.40084977608E+02  0.34854502982E+02 -0.11355026051E+03  0.12536069348E+03  0.00000000000E+00 0. -1.
<scales pt_clust_5="13000.00000" pt_clust_6="13000.00000" pt_clust_7="13000.00000" pt_clust_8="13000.00000" pt_clust_9="53.11916"></scales>
<clustering>
<clus scale="   53.119">  1  9  2 -1</clus>
<clus scale="   78.460">  5  6 -1 -1</clus>
<clus scale="   92.602">  7  8 -1 -1</clus>
<clus scale="  246.438">  2  5  1 -1</clus>
<clus scale="   53.119">  1  5  2 -1</clus>
</clustering>
</event>
<event>
 9    1  0.7586638E-005  0.1432161E+03  0.7546771E-02  0.1210565E+00
         21   -1    0    0  501  502  0.00000000000E+00  0.00000000000E+00  0.25592840930E+02  0.25592840930E+02  0.00000000000E+00 0.  1.
          1   -1    0    0  502    0 -0.00000000000E+00 -0.00000000000E+00 -0.16437040124E+04  0.16437040124E+04  0.00000000000E+00 0. -1.
        -24    2    1    2    0    0  0.26944933020E+02  0.10785127975E+03 -0.12034480955E+04  0.12114142281E+04  0.82940855444E+02 0.  0.
         23    2    1    2    0    0 -0.57007327676E+02 -0.99642267104E+02 -0.24377296814E+03  0.28417435135E+03  0.90285021845E+02 0.  0.
         13    1    3    3    0    0  0.40163353928E+02  0.30041267311E+02 -0.26876389415E+03  0.27340373724E+03  0.00000000000E+00 0. -1.
        -14    1    3    3    0    0 -0.13218420907E+02  0.77810012443E+02 -0.93468420140E+03  0.93801049089E+03  0.00000000000E+00 0.  1.
        -11    1    4    4    0    0 -0.55634031160E+02 -0.37244121402E+02 -0.59323332665E+02  0.89451259357E+02  0.00000000000E+00 0.  1.
         11    1    4    4    0    0 -0.13732965161E+01 -0.62398145701E+02 -0.18444963547E+03  0.19472309199E+03  0.00000000000E+00 0. -1.
          2    1    1    2  501    0  0.30062394655E+02 -0.82090126505E+01 -0.17089010777E+03  0.17370827382E+03  0.00000000000E+00 0. -1.
<scales pt_clust_5="13000.00000" pt_clust_6="13000.00000" pt_clust_7="13000.00000" pt_clust_8="13000.00000" pt_clust_9="31.16306"></scales>
<clustering>
<clus scale="   31.163">  1  9  2 -1</clus>
<clus scale="   82.941">  5  6 -1 -1</clus>
<clus scale="   90.285">  7  8 -1 -1</clus>
<clus scale="  138.703">  2  5  1 -1</clus>
<clus scale="   31.163">  1  5  2 -1</clus>
</clustering>
</event>
<event>
 9    1  0.7586638E-005  0.2146265E+03  0.7546771E-02  0.1138180E+00
         21   -1    0    0  501  502  0.00000000000E+00  0.00000000000E+00  0.40701189347E+03  0.40701189347E+03  0.00000000000E+00 0. -1.
          1   -1    0    0  502    0 -0.00000000000E+00 -0.00000000000E+00 -0.45876021145E+03  0.45876021145E+03  0.00000000000E+00 0. -1.
         23    2    1    2    0    0  0.12075002055E+03  0.17704011154E+03 -0.15819267963E+03  0.27767295136E+03  0.78444728781E+02 0.  0.
        -24    2    1    2    0    0 -0.22851055318E+03 -0.14055649232E+02 -0.13458920664E+03  0.27781952420E+03  0.81576953183E+02 0.  0.
         13    1    4    4    0    0 -0.22265887480E+03 -0.19285433781E+02 -0.14376971885E+03  0.26574166881E+03  0.00000000000E+00 0. -1.
        -14    1    4    4    0    0 -0.58516783863E+01  0.52297845486E+01  0.91805122123E+01  0.12077855391E+02  0.00000000000E+00 0.  1.
        -11    1    3    3    0    0  0.76607778323E+02  0.57693146859E+02 -0.97252967294E+02  0.13658473759E+03  0.00000000000E+00 0.  1.
         11    1    3    3    0    0  0.44142242230E+02  0.11934696468E+03 -0.60939712337E+02  0.14108821378E+03  0.00000000000E+00 0. -1.
          2    1    1    2  501    0  0.10776053263E+03 -0.16298446231E+03  0.24103356829E+03  0.31027962935E+03  0.00000000000E+00 0. -1.
<scales pt_clust_5="13000.00000" pt_clust_6="13000.00000" pt_clust_7="13000.00000" pt_clust_8="13000.00000" pt_clust_9="195.38748"></scales>
<clustering>
<clus scale="   78.445">  7  8 -1 -1</clus>
<clus scale="   81.577">  5  6 -1 -1</clus>
<clus scale="  195.387">  1  9  2 -1</clus>
<clus scale="  213.456">  2  7  1 -1</clus>
<clus scale="  195.387">  1  5  2 -1</clus>
</clustering>
</event>
<event>
 9    1  0.7586638E-005  0.1324345E+03  0.7546771E-02  0.1229636E+00
         -2   -1    0    0    0  501 -0.00000000000E+00  0.00000000000E+00  0.86136357229E+03  0.86136357229E+03  0.00000000000E+00 0.  1.
         21   -1    0    0  501  502  0.00000000000E+00 -0.00000000000E+00 -0.33580560447E+02  0.33580560447E+02  0.00000000000E+00 0. -1.
        -24    2    1    2    0    0  0.68911510707E+02  0.45195670188E+02  0.52105094238E+03  0.53345114840E+03  0.79275458124E+02 0.  0.
         23    2    1    2    0    0 -0.95793029523E+02 -0.45089092112E+02  0.17810130827E+03  0.23008331903E+03  0.10004462481E+03 0.  0.
         11    1    3    3    0    0  0.20962612875E+02 -0.21630163596E+02  0.99825357467E+02  0.10427078742E+03  0.00000000000E+00 0. -1.
        -12    1    3    3    0    0  0.47948897832E+02  0.66825833785E+02  0.42122558492E+03  0.42918036098E+03  0.00000000000E+00 0.  1.
        -13    1    4    4    0    0 -0.11167946862E+03 -0.16483137327E+02  0.13541924042E+03  0.17630192343E+03  0.00000000000E+00 0. -1.
         13    1    4    4    0    0  0.15886439101E+02 -0.28605954784E+02  0.42682067855E+02  0.53781395602E+02  0.00000000000E+00 0.  1.
         -1    1    1    2    0  502  0.26881518816E+02 -0.10657807671E+00  0.12863076118E+03  0.13140966531E+03  0.00000000000E+00 0.  1.
<scales pt_clust_5="13000.00000" pt_clust_6="13000.00000" pt_clust_7="13000.00000" pt_clust_8="13000.00000" pt_clust_9="26.88174"></scales>
<clustering>
<clus scale="   26.882">  2  9  1 -1</clus>
<clus scale="   79.275">  5  6 -1 -1</clus>
<clus scale="  100.045">  7  8 -1 -1</clus>
<clus scale="  117.535">  1  5  2 -1</clus>
<clus scale="   26.882">  2  5  1 -1</clus>
</clustering>
</event>
<event>
 9    1  0.7586638E-005  0.1448158E+03  0.7546771E-02  0.1223788E+00
         -2   -1    0    0    0  501 -0.00000000000E+00  0.00000000000E+00  0.11265285288E+03  0.11265285288E+03  0.00000000000E+00 0.  1.
         21   -1    0    0  501  502  0.00000000000E+00 -0.00000000000E+00 -0.44362862138E+03  0.44362862138E+03  0.00000000000E+00 0.  1.
         23    2    1    2    0    0 -0.51721554460E+02  0.37026306147E+01  0.15800094747E+02  0.10271978037E+03  0.87251828727E+02 0.  0.
        -24    2    1    2    0    0 -0.68093762216E+02 -0.61017068917E+02 -0.55536208972E+02  0.13346609696E+03  0.79806549718E+02 0.  0.
         13    1    4    4    0    0 -0.17657967670E+02  0.19528678211E+02 -0.12272465955E+02  0.29048003641E+02  0.00000000000E+00 0. -1.
        -14    1    4    4    0    0 -0.50435794545E+02 -0.80545747128E+02 -0.43263743018E+02  0.10441809332E+03  0.00000000000E+00 0.  1.
        -13    1    3    3    0    0 -0.68247801382E+02 -0.19958584389E+02  0.30611094568E+01  0.71172170652E+02  0.00000000000E+00 0.  1.
         13    1    3    3    0    0  0.16526246921E+02  0.23661215003E+02  0.12738985290E+02  0.31547609719E+02  0.00000000000E+00 0. -1.
         -1    1    1    2    0  502  0.11981531668E+03  0.57314438302E+02 -0.29123965428E+03  0.32009559693E+03  0.00000000000E+00 0.  1.
<scales pt_clust_5="13000.00000" pt_clust_6="13000.00000" pt_clust_7="13000.00000" pt_clust_8="13000.00000" pt_clust_9="120.84092"></scales>
<clustering>
<clus scale="   79.807">  5  6 -1 -1</clus>
<clus scale="   87.252">  7  8 -1 -1</clus>
<clus scale="  101.497">  1  7  2 -1</clus>
<clus scale="  120.841">  2  9  1 -1</clus>
<clus scale="  120.841">  2  5  1 -1</clus>
</clustering>
</event>
<event>
 9    1  0.7586638E-005  0.2517739E+03  0.7546771E-02  0.1133071E+00
          1   -1    0    0  502    0 -0.00000000000E+00  0.00000000000E+00  0.13392642300E+03  0.13392642300E+03  0.00000000000E+00 0. -1.
         21   -1    0    0  501  502  0.00000000000E+00 -0.00000000000E+00 -0.99063010247E+03  0.99063010247E+03  0.00000000000E+00 0. -1.
        -24    2    1    2    0    0  0.24237618167E+02  0.12370252097E+03 -0.35781777067E+03  0.38787676839E+03  0.80777810181E+02 0.  0.
         23    2    1    2    0    0  0.15250606294E+03 -0.24716531146E+03 -0.19087232926E+03  0.36070933986E+03  0.96592915713E+02 0.  0.
         11    1    3    3    0    0  0.39299983130E+02  0.99757696717E+02 -0.33435066325E+03  0.35112170646E+03  0.00000000000E+00 0. -1.
        -12    1    3    3    0    0 -0.15062364963E+02  0.23944824255E+02 -0.23467107417E+02  0.36755061929E+02  0.00000000000E+00 0.  1.
        -13    1    4    4    0    0  0.15155749887E+03 -0.16561378730E+03 -0.14178351405E+03  0.26551867517E+03  0.00000000000E+00 0. -1.
         13    1    4    4    0    0  0.94856407286E+00 -0.81551524160E+02 -0.49088815208E+02  0.95190664695E+02  0.00000000000E+00 0.  1.
          2    1    1    2  501    0 -0.17674368111E+03  0.12346279048E+03 -0.30801357954E+03  0.37597041722E+03  0.00000000000E+00 0. -1.
<scales pt_clust_5="13000.00000" pt_clust_6="13000.00000" pt_clust_7="13000.00000" pt_clust_8="13000.00000" pt_clust_9="232.50783"></scales>
<clustering>
<clus scale="   80.778">  5  6 -1 -1</clus>
<clus scale="   96.593">  7  8 -1 -1</clus>
<clus scale="  149.716">  1  5  2 -1</clus>
<clus scale="  232.508">  2  9  1 -1</clus>
<clus scale="  232.508">  2  5  1 -1</clus>
</clustering>
</event>
<event>
 9    1  0.7586638E-005  0.1328592E+03  0.7546771E-02  0.1227577E+00
          1   -1    0    0  502    0 -0.00000000000E+00  0.00000000000E+00  0.26699426549E+03  0.26699426549E+03  0.00000000000E+00 0. -1.
         21   -1    0    0  501  502  0.00000000000E+00 -0.00000000000E+00 -0.14543270879E+03  0.14543270879E+03  0.00000000000E+00 0. -1.
        -24    2    1    2    0    0 -0.58548150712E+02  0.68909941342E+02  0.11424954471E+03  0.16399954819E+03  0.75275675843E+02 0.  0.
         23    2    1    2    0    0 -0.50585883714E+00 -0.13215504840E+03  0.12009366541E+02  0.16177071977E+03  0.92522041583E+02 0.  0.
         13    1    3    3    0    0 -0.22257731151E+02  0.56837851686E+02  0.23301093213E+02  0.65336734883E+02  0.00000000000E+00 0. -1.
        -14    1    3    3    0    0 -0.36290419561E+02  0.12072089656E+02  0.90948451497E+02  0.98662813310E+02  0.00000000000E+00 0.  1.
        -11    1    4    4    0    0  0.26437270792E+02 -0.79655170742E+01 -0.15619980807E+02  0.31723217832E+02  0.00000000000E+00 0.  1.
         11    1    4    4    0    0 -0.26943129629E+02 -0.12418953132E+03  0.27629347348E+02  0.13004750193E+03  0.00000000000E+00 0. -1.
          2    1    1    2  501    0  0.59054009549E+02  0.63245107054E+02 -0.46973545586E+01  0.86656706319E+02  0.00000000000E+00 0. -1.
<scales pt_clust_5="13000.00000" pt_clust_6="13000.00000" pt_clust_7="13000.00000" pt_clust_8="13000.00000" pt_clust_9="86.52930"></scales>
<clustering>
<clus scale="   75.276">  5  6 -1 -1</clus>
<clus scale="   86.529">  2  9  1 -1</clus>
<clus scale="   92.522">  7  8 -1 -1</clus>
<clus scale="  121.481">  1  5  2 -1</clus>
<clus scale="   86.529">  2  5  1 -1</clus>
</clustering>
</event>
<event>
 9    1  0.7586638E-005  0.1067623E+03  0.7546771E-02  0.1270279E+00
         21   -1    0    0  501  502  0.00000000000E+00  0.00000000000E+00  0.86019950629E+02  0.86019950629E+02  0.00000000000E+00 0. -1.
          1   -1    0    0  502    0 -0.00000000000E+00 -0.00000000000E+00 -0.23311877497E+03  0.23311877497E+03  0.00000000000E+00 0. -1.
        -24    2    1    2    0    0 -0.39865085824E+02 -0.47491765211E+01 -0.53802653892E+02  0.10529696336E+03  0.81123024977E+02 0.  0.
         23    2    1    2    0    0  0.66508475113E+02  0.62857250742E+02 -0.67662291247E+02  0.14496858716E+03  0.89795848309E+02 0.  0.
         11    1    3    3    0    0 -0.72072615689E+01 -0.40977374141E+02 -0.27608813707E+02  0.49933319588E+02  0.00000000000E+00 0. -1.
        -12    1    3    3    0    0 -0.32657824255E+02  0.36228197620E+02 -0.26193840185E+02  0.55363643770E+02  0.00000000000E+00 0.  1.
        -11    1    4    4    0    0 -0.16139666364E+02  0.15160737106E+02  0.76263437456E+01  0.23420031999E+02  0.00000000000E+00 0.  1.
         11    1    4    4    0    0  0.82648141477E+02  0.47696513636E+02 -0.75288634992E+02  0.12154855516E+03  0.00000000000E+00 0. -1.
          2    1    1    2  501    0 -0.26643389290E+02 -0.58108074221E+02 -0.25633879201E+02  0.68873175079E+02  0.00000000000E+00 0. -1.
<scales pt_clust_5="13000.00000" pt_clust_6="13000.00000" pt_clust_7="13000.00000" pt_clust_8="13000.00000" pt_clust_9="63.92510"></scales>
<clustering>
<clus scale="   63.925">  1  9  2 -1</clus>
<clus scale="   81.123">  5  6 -1 -1</clus>
<clus scale="   89.796">  7  8 -1 -1</clus>
<clus scale="   99.578">  2  5  1 -1</clus>
<clus scale="   63.925">  1  5  2 -1</clus>
</clustering>
</event>
<event>
 9    1  0.7586638E-005  0.9401988E+02  0.7546771E-02  0.1300113E+00
         21   -1    0    0  501  502  0.00000000000E+00  0.00000000000E+00  0.40030595105E+03  0.40030595105E+03  0.00000000000E+00 0. -1.
         -2   -1    0    0    0  501 -0.00000000000E+00 -0.00000000000E+00 -0.85446590672E+02  0.85446590672E+02  0.00000000000E+00 0.  1.
         23    2    1    2    0    0 -0.12183758764E+01 -0.20575253870E+02 -0.31619311282E+02  0.99674590003E+02  0.92251924288E+02 0.  0.
        -24    2    1    2    0    0 -0.24930114249E+02 -0.66403638474E+01  0.33645047465E+03  0.34702672742E+03  0.81012484386E+02 0.  0.
         13    1    4    4    0    0  0.66940832699E+01 -0.39115758454E+02  0.15938159874E+03  0.16424782290E+03  0.00000000000E+00 0. -1.
        -14    1    4    4    0    0 -0.31624197518E+02  0.32475394606E+02  0.17706887591E+03  0.18277890452E+03  0.00000000000E+00 0.  1.
        -11    1    3    3    0    0 -0.11653912100E+02  0.33071006510E+02 -0.28055399682E+02  0.44906687588E+02  0.00000000000E+00 0.  1.
         11    1    3    3    0    0  0.10435536224E+02 -0.53646260380E+02 -0.35639115999E+01  0.54767902415E+02  0.00000000000E+00 0. -1.
         -1    1    1    2    0  502  0.26148490125E+02  0.27215617718E+02  0.10028197012E+02  0.39051224294E+02  0.00000000000E+00 0.  1.
<scales pt_clust_5="13000.00000" pt_clust_6="13000.00000" pt_clust_7="13000.00000" pt_clust_8="13000.00000" pt_clust_9="37.74169"></scales>
<clustering>
<clus scale="   37.742">  1  9  2 -1</clus>
<clus scale="   81.012">  5  6 -1 -1</clus>
<clus scale="   83.020">  1  5  2 -1</clus>
<clus scale="   92.252">  7  8 -1 -1</clus>
<clus scale="   37.742">  1  5  2 -1</clus>
</clustering>
</event>
<event>
 9    1  0.7586638E-005  0.2613908E+03  0.7546771E-02  0.1130084E+00
          1   -1    0    0  502    0 -0.00000000000E+00  0.00000000000E+00  0.72960645245E+03  0.72960645245E+03  0.00000000000E+00 0. -1.
         21   -1    0    0  501  502  0.00000000000E+00 -0.00000000000E+00 -0.17335714940E+03  0.17335714940E+03  0.00000000000E+00 0. -1.
        -24    2    1    2    0    0 -0.61444374607E+02  0.10181820310E+03  0.11654212430E+03  0.18520690203E+03  0.81099766772E+02 0.  0.
         23    2    1    2    0    0 -0.17523194191E+03  0.27574608418E+02  0.39535405131E+03  0.44439726906E+03  0.98577453651E+02 0.  0.
         13    1    3    3    0    0 -0.42497429298E+02  0.26855903576E+01  0.28157250711E+02  0.51049727327E+02  0.00000000000E+00 0. -1.
        -14    1    3    3    0    0 -0.18946945309E+02  0.99132612739E+02  0.88384873586E+02  0.13415717470E+03  0.00000000000E+00 0.  1.
        -13    1    4    4    0    0 -0.96020187757E+02 -0.23744049836E+02  0.13421477765E+03  0.16672511179E+03  0.00000000000E+00 0.  1.
         13    1    4    4    0    0 -0.79211754151E+02  0.51318658253E+02  0.26113927365E+03  0.27767215727E+03  0.00000000000E+00 0. -1.
          2    1    1    2  501    0  0.23667631651E+03 -0.12939281151E+03  0.44353127441E+02  0.27335943076E+03  0.00000000000E+00 0. -1.
<scales pt_clust_5="13000.00000" pt_clust_6="13000.00000" pt_clust_7="13000.00000" pt_clust_8="13000.00000" pt_clust_9="242.09018"></scales>
<clustering>
<clus scale="   81.100">  5  6 -1 -1</clus>
<clus scale="   98.577">  7  8 -1 -1</clus>
<clus scale="  143.943">  1  5  2 -1</clus>
<clus scale="  242.090">  2  9  1 -1</clus>
<clus scale="  242.090">  2  5  1 -1</clus>
</clustering>
</event>
<event>
 9    1  0.7586638E-005  0.3412016E+03  0.7546771E-02  0.1066562E+00
          1   -1    0    0  502    0 -0.00000000000E+00  0.00000000000E+00  0.96387633334E+03  0.96387633334E+03  0.00000000000E+00 0. -1.
         21   -1    0    0  501  502  0.00000000000E+00 -0.00000000000E+00 -0.21268280539E+03  0.21268280539E+03  0.00000000000E+00 0. -1.
        -24    2    1    2    0    0 -0.36971785645E+03 -0.10845976602E+03  0.56993702237E+03  0.69279523719E+03  0.81744828512E+02 0.  0.
         23    2    1    2    0    0  0.22439385771E+03  0.19139951632E+02  0.12114094520E+02  0.24354265129E+03  0.91909360695E+02 0.  0.
         13    1    3    3    0    0 -0.30796124979E+03 -0.10988128977E+03  0.51552532056E+03  0.61047554034E+03  0.00000000000E+00 0. -1.
        -14    1    3    3    0    0 -0.61756606667E+02  0.14215237547E+01  0.54411701802E+02  0.82319696852E+02  0.00000000000E+00 0.  1.
        -13    1    4    4    0    0  0.10265129629E+03  0.22155088450E+02  0.49578900678E+02  0.11613011653E+03  0.00000000000E+00 0.  1.
         13    1    4    4    0    0  0.12174256142E+03 -0.30151368176E+01 -0.37464806159E+02  0.12741253475E+03  0.00000000000E+00 0. -1.
          2    1    1    2  501    0  0.14532399875E+03  0.89319814384E+02  0.16914241107E+03  0.24022125026E+03  0.00000000000E+00 0. -1.
<scales pt_clust_5="13000.00000" pt_clust_6="13000.00000" pt_clust_7="13000.00000" pt_clust_8="13000.00000" pt_clust_9="170.57879"></scales>
<clustering>
<clus scale="   81.745">  5  6 -1 -1</clus>
<clus scale="   91.909">  7  8 -1 -1</clus>
<clus scale="  170.579">  2  9  1 -1</clus>
<clus scale="  338.605">  1  5  2 -1</clus>
<clus scale="  170.579">  2  5  1 -1</clus>
</clustering>
</event>
<event>
 9    1  0.7586638E-005  0.1104287E+03  0.7546771E-02  0.1266401E+00
         21   -1    0    0  501  502  0.00000000000E+00  0.00000000000E+00  0.11393749981E+03  0.11393749981E+03  0.00000000000E+00 0. -1.
          1   -1    0    0  502    0 -0.00000000000E+00 -0.00000000000E+00 -0.21459522960E+03  0.21459522960E+03  0.00000000000E+00 0. -1.
         23    2    1    2    0    0  0.21942186201E+02  0.44040660318E+02 -0.13029873882E+03  0.16811850478E+03  0.94154293661E+02 0.  0.
        -24    2    1    2    0    0 -0.27082108210E+02 -0.81532664109E+02  0.68376883173E+01  0.11623209496E+03  0.77988011993E+02 0.  0.
         13    1    4    4    0    0  0.12878231685E+02 -0.72548103327E+02  0.12977970648E+02  0.74816467905E+02  0.00000000000E+00 0. -1.
        -14    1    4    4    0    0 -0.39960339894E+02 -0.89845607820E+01 -0.61402823303E+01  0.41415627051E+02  0.00000000000E+00 0.  1.
        -11    1    3    3    0    0 -0.35996964760E+02  0.27094915560E+02 -0.45548170469E+02  0.64066775745E+02  0.00000000000E+00 0.  1.
         11    1    3    3    0    0  0.57939150961E+02  0.16945744758E+02 -0.84750568354E+02  0.10405172904E+03  0.00000000000E+00 0. -1.
          2    1    1    2  501    0  0.51399220087E+01  0.37492003791E+02  0.22803320711E+02  0.44182129668E+02  0.00000000000E+00 0. -1.
<scales pt_clust_5="13000.00000" pt_clust_6="13000.00000" pt_clust_7="13000.00000" pt_clust_8="13000.00000" pt_clust_9="37.84269"></scales>
<clustering>
<clus scale="   37.843">  1  9  2 -1</clus>
<clus scale="   77.988">  5  6 -1 -1</clus>
<clus scale="   94.154">  7  8 -1 -1</clus>
<clus scale="   97.013">  1  5  2 -1</clus>
<clus scale="   37.843">  1  5  2 -1</clus>
</clustering>
</event>
<event>
 9    1  0.7586638E-005  0.1769084E+03  0.7546771E-02  0.1172115E+00
         21   -1    0    0  501  502  0.00000000000E+00  0.00000000000E+00  0.78198052791E+02  0.78198052791E+02  0.00000000000E+00 0. -1.
          1   -1    0    0  502    0 -0.00000000000E+00 -0.00000000000E+00 -0.10745276148E+04  0.10745276148E+04  0.00000000000E+00 0. -1.
        -24    2    1    2    0    0  0.18090918746E+02  0.11450692820E+03 -0.14813393250E+03  0.20475797947E+03  0.80889123191E+02 0.  0.
         23    2    1    2    0    0 -0.61892867007E+01 -0.21027816184E+03 -0.23914404116E+03  0.33131736963E+03  0.91247544493E+02 0.  0.
         13    1    3    3    0    0  0.26958854052E+02  0.11761264238E+03 -0.10296815331E+03  0.15862519994E+03  0.00000000000E+00 0. -1.
        -14    1    3    3    0    0 -0.88679353059E+01 -0.31057141795E+01 -0.45165779194E+02  0.46132779532E+02  0.00000000000E+00 0.  1.
        -11    1    4    4    0    0 -0.38250880099E+02 -0.11880765224E+03 -0.91744109122E+02  0.15490438863E+03  0.00000000000E+00 0. -1.
         11    1    4    4    0    0  0.32061593399E+02 -0.91470509602E+02 -0.14739993204E+03  0.17641298100E+03  0.00000000000E+00 0.  1.
          2    1    1    2  501    0 -0.11901632045E+02  0.95771233639E+02 -0.60905158833E+03  0.61665031848E+03  0.00000000000E+00 0. -1.
<scales pt_clust_5="13000.00000" pt_clust_6="13000.00000" pt_clust_7="13000.00000" pt_clust_8="13000.00000" pt_clust_9="96.50797"></scales>
<clustering>
<clus scale="   80.889">  5  6 -1 -1</clus>
<clus scale="   91.248">  7  8 -1 -1</clus>
<clus scale="   96.508">  1  9  2 -1</clus>
<clus scale="  171.795">  2  5  1 -1</clus>
<clus scale="   96.508">  1  5  2 -1</clus>
</clustering>
</event>
<event>
 9    1  0.7586638E-005  0.1226436E+03  0.7546771E-02  0.1242879E+00
         21   -1    0    0  501  502  0.00000000000E+00  0.00000000000E+00  0.18583937590E+03  0.18583937590E+03  0.00000000000E+00 0. -1.
          3   -1    0    0  502    0 -0.00000000000E+00 -0.00000000000E+00 -0.21385426756E+03  0.21385426756E+03  0.00000000000E+00 0. -1.
         23    2    1    2    0    0  0.40286167216E+02  0.19515140011E+02 -0.30086308068E+02  0.10911768678E+03  0.94856036581E+02 0.  0.
        -24    2    1    2    0    0 -0.55217601161E+02 -0.10533263326E+03 -0.84888913123E+02  0.16749188468E+03  0.81874640492E+02 0.  0.
         11    1    4    4    0    0 -0.31165850923E+02 -0.90650212492E+02 -0.97401643805E+02  0.13665961914E+03  0.00000000000E+00 0. -1.
        -12    1    4    4    0    0 -0.24051750238E+02 -0.14682420768E+02  0.12512730682E+02  0.30832265539E+02  0.00000000000E+00 0.  1.
        -11    1    3    3    0    0 -0.20494055681E+02  0.16728229930E+02 -0.39509424069E+02  0.47548234300E+02  0.00000000000E+00 0.  1.
         11    1    3    3    0    0  0.60780222896E+02  0.27869100806E+01  0.94231160004E+01  0.61569452477E+02  0.00000000000E+00 0. -1.
          4    1    1    2  501    0  0.14931433946E+02  0.85817493250E+02  0.86960329529E+02  0.12308407200E+03  0.00000000000E+00 0. -1.
<scales pt_clust_5="13000.00000" pt_clust_6="13000.00000" pt_clust_7="13000.00000" pt_clust_8="13000.00000" pt_clust_9="87.10677"></scales>
<clustering>
<clus scale="   81.875">  5  6 -1 -1</clus>
<clus scale="   87.107">  1  9  2 -1</clus>
<clus scale="   94.856">  7  8 -1 -1</clus>
<clus scale="  112.904">  1  5  2 -1</clus>
<clus scale="   87.107">  1  5  2 -1</clus>
</clustering>
</event>
<event>
 9    1  0.7586638E-005  0.1099120E+03  0.7546771E-02  0.1264481E+00
         21   -1    0    0  501  502  0.00000000000E+00  0.00000000000E+00  0.63854509999E+02  0.63854509999E+02  0.00000000000E+00 0. -1.
          3   -1    0    0  502    0 -0.00000000000E+00 -0.00000000000E+00 -0.25666412046E+03  0.25666412046E+03  0.00000000000E+00 0. -1.
        -24    2    1    2    0    0  0.39855267967E+02 -0.51923355344E+02 -0.76973411484E+02  0.12944589403E+03  0.80912645437E+02 0.  0.
         23    2    1    2    0    0 -0.47609028823E+01  0.64345590864E+02 -0.67479577027E+02  0.13004578105E+03  0.90528396613E+02 0.  0.
         11    1    3    3    0    0  0.60532327123E+02 -0.45525358707E+02 -0.37704479065E+02  0.84607024850E+02  0.00000000000E+00 0. -1.
        -12    1    3    3    0    0 -0.20677059156E+02 -0.63979966375E+01 -0.39268932419E+02  0.44838869183E+02  0.00000000000E+00 0.  1.
        -13    1    4    4    0    0  0.34994348439E+02  0.39101902672E+01 -0.38346000463E+02  0.52060635437E+02  0.00000000000E+00 0.  1.
         13    1    4    4    0    0 -0.39755251321E+02  0.60435400597E+02 -0.29133576564E+02  0.77985145613E+02  0.00000000000E+00 0. -1.
          4    1    1    2  501    0 -0.35094365085E+02 -0.12422235520E+02 -0.48356621949E+02  0.61026955375E+02  0.00000000000E+00 0. -1.
<scales pt_clust_5="13000.00000" pt_clust_6="13000.00000" pt_clust_7="13000.00000" pt_clust_8="13000.00000" pt_clust_9="37.22805"></scales>
<clustering>
<clus scale="   37.228">  1  9  2 -1</clus>
<clus scale="   80.913">  5  6 -1 -1</clus>
<clus scale="   90.528">  7  8 -1 -1</clus>
<clus scale="  102.138">  2  5  1 -1</clus>
<clus scale="   37.228">  1  5  2 -1</clus>
</clustering>
</event>
<event>
 9    1  0.7586638E-005  0.1661832E+03  0.7546771E-02  0.1210514E+00
          1   -1    0    0  502    0 -0.00000000000E+00  0.00000000000E+00  0.12414578960E+04  0.12414578960E+04  0.00000000000E+00 0. -1.
         21   -1    0    0  501  502  0.00000000000E+00 -0.00000000000E+00 -0.32942014054E+02  0.32942014054E+02  0.00000000000E+00 0. -1.
         23    2    1    2    0    0 -0.18007353818E+02  0.56105284325E+01  0.33774445675E+03  0.34924190955E+03  0.86849585504E+02 0.  0.
        -24    2    1    2    0    0  0.65082511399E+02 -0.13236484452E+03  0.39376284137E+03  0.42935570508E+03  0.86838706119E+02 0.  0.
         13    1    4    4    0    0  0.16857575641E+02 -0.11772378895E+03  0.24608065424E+03  0.27331073292E+03  0.00000000000E+00 0. -1.
        -14    1    4    4    0    0  0.48224935758E+02 -0.14641055572E+02  0.14768218714E+03  0.15604497215E+03  0.00000000000E+00 0.  1.
        -13    1    3    3    0    0 -0.46484314972E+02 -0.19257542487E+02  0.21487738811E+03  0.22068968349E+03  0.00000000000E+00 0.  1.
         13    1    3    3    0    0  0.28476961154E+02  0.24868070920E+02  0.12286706864E+03  0.12855222606E+03  0.00000000000E+00 0. -1.
          2    1    1    2  501    0 -0.47075157581E+02  0.12675431609E+03  0.47700858384E+03  0.49580229544E+03  0.00000000000E+00 0. -1.
<scales pt_clust_5="13000.00000" pt_clust_6="13000.00000" pt_clust_7="13000.00000" pt_clust_8="13000.00000" pt_clust_9="141.68951"></scales>
<clustering>
<clus scale="   86.839">  5  6 -1 -1</clus>
<clus scale="   86.850">  7  8 -1 -1</clus>
<clus scale="   88.874">  1  7  2 -1</clus>
<clus scale="  141.690">  2  9  1 -1</clus>
<clus scale="  141.690">  2  5  1 -1</clus>
</clustering>
</event>
<event>
 9    1  0.7586638E-005  0.1306127E+03  0.7546771E-02  0.1237520E+00
         21   -1    0    0  501  502  0.00000000000E+00  0.00000000000E+00  0.38822483073E+03  0.38822483073E+03  0.00000000000E+00 0. -1.
          1   -1    0    0  502    0 -0.00000000000E+00 -0.00000000000E+00 -0.13971264272E+03  0.13971264272E+03  0.00000000000E+00 0. -1.
         23    2    1    2    0    0 -0.19037343502E+02 -0.49286742593E+02 -0.26217713634E+02  0.10746343303E+03  0.89829936473E+02 0.  0.
        -24    2    1    2    0    0  0.90412689411E+02 -0.30932347481E+02 -0.18251545074E+01  0.12380546861E+03  0.78696876311E+02 0.  0.
         11    1    4    4    0    0  0.28456745309E+02 -0.46825921475E+02 -0.18275270440E+02  0.57761914660E+02  0.00000000000E+00 0. -1.
        -12    1    4    4    0    0  0.61955944102E+02  0.15893573994E+02  0.16450115932E+02  0.66043553948E+02  0.00000000000E+00 0.  1.
        -13    1    3    3    0    0  0.23943413613E+02  0.50933899948E+01 -0.29176611387E+02  0.38085487119E+02  0.00000000000E+00 0. -1.
         13    1    3    3    0    0 -0.42980757116E+02 -0.54380132587E+02  0.29588977524E+01  0.69377945908E+02  0.00000000000E+00 0.  1.
          2    1    1    2  501    0 -0.71375345908E+02  0.80219090073E+02  0.27655505616E+03  0.29666857182E+03  0.00000000000E+00 0. -1.
<scales pt_clust_5="13000.00000" pt_clust_6="13000.00000" pt_clust_7="13000.00000" pt_clust_8="13000.00000" pt_clust_9="104.24240"></scales>
<clustering>
<clus scale="   78.697">  5  6 -1 -1</clus>
<clus scale="   89.830">  7  8 -1 -1</clus>
<clus scale="  104.216">  2  7  1 -1</clus>
<clus scale="  104.242">  1  9  2 -1</clus>
<clus scale="  104.242">  1  5  2 -1</clus>
</clustering>
</event>
<event>
 9    1  0.1779268E-004  0.9498993E+02  0.7546771E-02  0.1297993E+00
         -4   -1    0    0    0  501 -0.00000000000E+00  0.00000000000E+00  0.11144314596E+04  0.11144314596E+04  0.00000000000E+00 0.  1.
         21   -1    0    0  501  502  0.00000000000E+00 -0.00000000000E+00 -0.40849187706E+02  0.40849187706E+02  0.00000000000E+00 0. -1.
        -24    2    1    2    0    0  0.21421915397E+02  0.30815840288E+01  0.10155140350E+04  0.10189414513E+04  0.80650673763E+02 0.  0.
         23    2    1    2    0    0 -0.34193496187E+02 -0.21613279935E+02  0.49271758718E+02  0.11217486163E+03  0.92299319197E+02 0.  0.
         11    1    3    3    0    0  0.13297444013E+02 -0.25620184882E+02  0.14128000573E+03  0.14419866820E+03  0.00000000000E+00 0. -1.
        -12    1    3    3    0    0  0.81244713838E+01  0.28701768911E+02  0.87423402928E+03  0.87474278306E+03  0.00000000000E+00 0.  1.
        -13    1    4    4    0    0  0.25382182266E+02  0.13971465672E+02  0.38282833478E+01  0.29225208007E+02  0.00000000000E+00 0.  1.
         13    1    4    4    0    0 -0.59575678453E+02 -0.35584745607E+02  0.45443475370E+02  0.82949653627E+02  0.00000000000E+00 0. -1.
         -3    1    1    2    0  502  0.12771580790E+02  0.18531695906E+02  0.87964781533E+01  0.24164334399E+02  0.00000000000E+00 0.  1.
<scales pt_clust_5="13000.00000" pt_clust_6="13000.00000" pt_clust_7="13000.00000" pt_clust_8="13000.00000" pt_clust_9="22.50638"></scales>
<clustering>
<clus scale="   22.506">  2  9  1 -1</clus>
<clus scale="   80.651">  5  6 -1 -1</clus>
<clus scale="   83.717">  1  5  2 -1</clus>
<clus scale="   92.299">  7  8 -1 -1</clus>
<clus scale="   22.506">  2  5  1 -1</clus>
</clustering>
</event>
<event>
 9    1  0.7586638E-005  0.1153468E+03  0.7546771E-02  0.1255928E+00
          1   -1    0    0  502    0 -0.00000000000E+00  0.00000000000E+00  0.62659506711E+02  0.62659506711E+02  0.00000000000E+00 0. -1.
         21   -1    0    0  501  502  0.00000000000E+00 -0.00000000000E+00 -0.71326350995E+03  0.71326350995E+03  0.00000000000E+00 0. -1.
        -24    2    1    2    0    0 -0.72227116324E+02 -0.27620333824E+02 -0.84367705616E+01  0.11229820278E+03  0.80994247182E+02 0.  0.
         23    2    1    2    0    0  0.10581624395E+02  0.21751900154E+01 -0.29033902623E+03  0.30553165719E+03  0.94531165057E+02 0.  0.
         13    1    3    3    0    0 -0.29939339508E+02 -0.30637470733E+02  0.32186687159E+02  0.53581727234E+02  0.00000000000E+00 0. -1.
        -14    1    3    3    0    0 -0.42287776816E+02  0.30171369095E+01 -0.40623457720E+02  0.58716475544E+02  0.00000000000E+00 0.  1.
        -11    1    4    4    0    0  0.43409645669E+02  0.24141971954E+02 -0.10673429805E+03  0.11772613358E+03  0.00000000000E+00 0.  1.
         11    1    4    4    0    0 -0.32828021274E+02 -0.21966781939E+02 -0.18360472818E+03  0.18780552361E+03  0.00000000000E+00 0. -1.
          2    1    1    2  501    0  0.61645491928E+02  0.25445143808E+02 -0.35182820644E+03  0.35809315669E+03  0.00000000000E+00 0. -1.
<scales pt_clust_5="13000.00000" pt_clust_6="13000.00000" pt_clust_7="13000.00000" pt_clust_8="13000.00000" pt_clust_9="66.69049"></scales>
<clustering>
<clus scale="   66.690">  2  9  1 -1</clus>
<clus scale="   80.994">  5  6 -1 -1</clus>
<clus scale="   94.531">  7  8 -1 -1</clus>
<clus scale="  104.541">  1  5  2 -1</clus>
<clus scale="   66.690">  2  5  1 -1</clus>
</clustering>
</event>
<event>
 9    1  0.7586638E-005  0.1553263E+03  0.7546771E-02  0.1217256E+00
         21   -1    0    0  501  502  0.00000000000E+00  0.00000000000E+00  0.67748441211E+02  0.67748441211E+02  0.00000000000E+00 0. -1.
          1   -1    0    0  502    0 -0.00000000000E+00 -0.00000000000E+00 -0.68424318782E+03  0.68424318782E+03  0.00000000000E+00 0. -1.
        -24    2    1    2    0    0  0.47912787024E+02 -0.11017075445E+02 -0.52869679671E+02  0.10814234099E+03  0.80514295470E+02 0.  0.
         23    2    1    2    0    0  0.81723872393E+02 -0.72596875680E+02 -0.17966682234E+03  0.23006082773E+03  0.93266927310E+02 0.  0.
         11    1    3    3    0    0  0.31792228716E+02 -0.33440448079E+02  0.25618594485E+01  0.46212254850E+02  0.00000000000E+00 0. -1.
        -12    1    3    3    0    0  0.16120558308E+02  0.22423372634E+02 -0.55431539119E+02  0.61930086142E+02  0.00000000000E+00 0.  1.
        -13    1    4    4    0    0  0.32094304818E+02 -0.64222434956E+02 -0.41305408507E+02  0.82829356664E+02  0.00000000000E+00 0.  1.
         13    1    4    4    0    0  0.49629567576E+02 -0.83744407243E+01 -0.13836141384E+03  0.14723147107E+03  0.00000000000E+00 0. -1.
          2    1    1    2  501    0 -0.12963665942E+03  0.83613951125E+02 -0.38395824459E+03  0.41378846030E+03  0.00000000000E+00 0. -1.
<scales pt_clust_5="13000.00000" pt_clust_6="13000.00000" pt_clust_7="13000.00000" pt_clust_8="13000.00000" pt_clust_9="124.20768"></scales>
<clustering>
<clus scale="   80.514">  5  6 -1 -1</clus>
<clus scale="   93.267">  7  8 -1 -1</clus>
<clus scale="   94.338">  2  5  1 -1</clus>
<clus scale="  124.208">  1  9  2 -1</clus>
<clus scale="  124.208">  1  5  2 -1</clus>
</clustering>
</event>
<event>
 9    1  0.7586638E-005  0.1359774E+03  0.7546771E-02  0.1221320E+00
          3   -1    0    0  502    0 -0.00000000000E+00  0.00000000000E+00  0.37742047518E+03  0.37742047518E+03  0.00000000000E+00 0. -1.
         21   -1    0    0  501  502  0.00000000000E+00 -0.00000000000E+00 -0.24067036068E+03  0.24067036068E+03  0.00000000000E+00 0. -1.
        -24    2    1    2    0    0  0.75425836514E+02 -0.65835330907E+02  0.26106041684E+03  0.29087725403E+03  0.80210274036E+02 0.  0.
         23    2    1    2    0    0 -0.59982597479E+01  0.14464912610E+03 -0.88947061711E+01  0.17116050570E+03  0.90870534895E+02 0.  0.
         11    1    3    3    0    0  0.88480713452E+02 -0.64774299783E+02  0.25235523010E+03  0.27515033840E+03  0.00000000000E+00 0. -1.
        -12    1    3    3    0    0 -0.13054876937E+02 -0.10610311244E+01  0.87051867434E+01  0.15726915627E+02  0.00000000000E+00 0.  1.
        -13    1    4    4    0    0  0.19873827634E+02  0.56165130308E+02  0.34954424735E+02  0.69074616871E+02  0.00000000000E+00 0. -1.
         13    1    4    4    0    0 -0.25872087382E+02  0.88483995792E+02 -0.43849130906E+02  0.10208588883E+03  0.00000000000E+00 0.  1.
          4    1    1    2  501    0 -0.69427576767E+02 -0.78813795194E+02 -0.11541559617E+03  0.15605307613E+03  0.00000000000E+00 0. -1.
<scales pt_clust_5="13000.00000" pt_clust_6="13000.00000" pt_clust_7="13000.00000" pt_clust_8="13000.00000" pt_clust_9="105.03239"></scales>
<clustering>
<clus scale="   80.210">  5  6 -1 -1</clus>
<clus scale="   90.871">  7  8 -1 -1</clus>
<clus scale="  105.032">  2  9  1 -1</clus>
<clus scale="  129.097">  1  5  2 -1</clus>
<clus scale="  105.032">  2  5  1 -1</clus>
</clustering>
</event>
<event>
 9    1  0.7586638E-005  0.1678231E+03  0.7546771E-02  0.1181294E+00
          1   -1    0    0  502    0 -0.00000000000E+00  0.00000000000E+00  0.42576633662E+03  0.42576633662E+03  0.00000000000E+00 0. -1.
         21   -1    0    0  501  502  0.00000000000E+00 -0.00000000000E+00 -0.20519199640E+03  0.20519199640E+03  0.00000000000E+00 0.  1.
         23    2    1    2    0    0 -0.96936805742E+02  0.10867393070E+03  0.36176602366E+03  0.40020084165E+03  0.89884872273E+02 0.  0.
        -24    2    1    2    0    0  0.88848185448E+02 -0.68183538933E+02 -0.12433094718E+03  0.18615724438E+03  0.81568009483E+02 0.  0.
         13    1    4    4    0    0  0.72575720370E+02 -0.66137722128E+02 -0.50286999682E+02  0.11031870110E+03  0.00000000000E+00 0. -1.
        -14    1    4    4    0    0  0.16272465078E+02 -0.20458168047E+01 -0.74043947499E+02  0.75838543283E+02  0.00000000000E+00 0.  1.
        -13    1    3    3    0    0 -0.10091758438E+03  0.51283726489E+02  0.25256685753E+03  0.27677499338E+03  0.00000000000E+00 0.  1.
         13    1    3    3    0    0  0.39807786342E+01  0.57390204211E+02  0.10919916613E+03  0.12342584827E+03  0.00000000000E+00 0. -1.
          2    1    1    2  501    0  0.80886202939E+01 -0.40490391767E+02 -0.16860736260E+02  0.44600246983E+02  0.00000000000E+00 0. -1.
<scales pt_clust_5="13000.00000" pt_clust_6="13000.00000" pt_clust_7="13000.00000" pt_clust_8="13000.00000" pt_clust_9="41.29041"></scales>
<clustering>
<clus scale="   41.290">  2  9  1 -1</clus>
<clus scale="   81.568">  5  6 -1 -1</clus>
<clus scale="   89.885">  7  8 -1 -1</clus>
<clus scale="  163.520">  2  5  1 -1</clus>
<clus scale="   41.290">  2  5  1 -1</clus>
</clustering>
</event>
<event>
 9    1  0.7586638E-005  0.2831422E+03  0.7546771E-02  0.1114024E+00
          1   -1    0    0  502    0 -0.00000000000E+00  0.00000000000E+00  0.18818381616E+04  0.18818381616E+04  0.00000000000E+00 0. -1.
         21   -1    0    0  501  502  0.00000000000E+00 -0.00000000000E+00 -0.95354099251E+02  0.95354099251E+02  0.00000000000E+00 0. -1.
        -24    2    1    2    0    0  0.11320623919E+03 -0.96102915015E+02  0.11844334424E+03  0.20635780666E+03  0.80643014008E+02 0.  0.
         23    2    1    2    0    0 -0.96981954004E+02  0.32772069775E+03  0.11262043933E+04  0.11813460085E+04  0.10215527993E+03 0.  0.
         13    1    3    3    0    0  0.91537527834E+02 -0.29670761550E+02  0.49567637994E+02  0.10824243082E+03  0.00000000000E+00 0. -1.
        -14    1    3    3    0    0  0.21668711360E+02 -0.66432153465E+02  0.68875706248E+02  0.98115375845E+02  0.00000000000E+00 0.  1.
        -13    1    4    4    0    0 -0.11192662186E+03  0.27424452160E+03  0.10103257069E+04  0.10528512052E+04  0.00000000000E+00 0. -1.
         13    1    4    4    0    0  0.14944667857E+02  0.53476176149E+02  0.11587868639E+03  0.12849480329E+03  0.00000000000E+00 0.  1.
          2    1    1    2  501    0 -0.16224285189E+02 -0.23161778273E+03  0.54183632490E+03  0.58948844576E+03  0.00000000000E+00 0. -1.
<scales pt_clust_5="13000.00000" pt_clust_6="13000.00000" pt_clust_7="13000.00000" pt_clust_8="13000.00000" pt_clust_9="264.07162"></scales>
<clustering>
<clus scale="   80.643">  5  6 -1 -1</clus>
<clus scale="  102.155">  7  8 -1 -1</clus>
<clus scale="  168.981">  1  5  2 -1</clus>
<clus scale="  264.072">  2  9  1 -1</clus>
<clus scale="  264.072">  2  5  1 -1</clus>
</clustering>
</event>
<event>
 9    1  0.7586638E-005  0.2560956E+03  0.7546771E-02  0.1126483E+00
         21   -1    0    0  501  502  0.00000000000E+00  0.00000000000E+00  0.20823527075E+03  0.20823527075E+03  0.00000000000E+00 0. -1.
          1   -1    0    0  502    0 -0.00000000000E+00 -0.00000000000E+00 -0.11658046245E+04  0.11658046245E+04  0.00000000000E+00 0. -1.
        -24    2    1    2    0    0  0.14645392573E+03 -0.10413417040E+02  0.40307704648E+01  0.16730530794E+03  0.80110095122E+02 0.  0.
         23    2    1    2    0    0 -0.10502813334E+03  0.22615243756E+03 -0.51150008830E+02  0.27015632905E+03  0.90511241933E+02 0.  0.
         13    1    3    3    0    0  0.95374815081E+02 -0.44851506125E+02  0.70260778709E+01  0.10562849390E+03  0.00000000000E+00 0. -1.
        -14    1    3    3    0    0  0.51079110646E+02  0.34438089085E+02 -0.29953074061E+01  0.61676814044E+02  0.00000000000E+00 0.  1.
        -11    1    4    4    0    0 -0.61044226676E+02  0.12762981192E+03  0.17070415792E+02  0.14250321259E+03  0.00000000000E+00 0. -1.
         11    1    4    4    0    0 -0.43983906663E+02  0.98522625633E+02 -0.68220424621E+02  0.12765311646E+03  0.00000000000E+00 0.  1.
          2    1    1    2  501    0 -0.41425792387E+02 -0.21573902052E+03 -0.91045011539E+03  0.93657825827E+03  0.00000000000E+00 0. -1.
<scales pt_clust_5="13000.00000" pt_clust_6="13000.00000" pt_clust_7="13000.00000" pt_clust_8="13000.00000" pt_clust_9="239.56777"></scales>
<clustering>
<clus scale="   80.110">  5  6 -1 -1</clus>
<clus scale="   90.511">  7  8 -1 -1</clus>
<clus scale="  167.257">  2  5  1 -1</clus>
<clus scale="  239.568">  1  9  2 -1</clus>
<clus scale="  239.568">  1  5  2 -1</clus>
</clustering>
</event>
<event>
 9    1  0.7586638E-005  0.1003769E+03  0.7546771E-02  0.1283938E+00
         21   -1    0    0  501  502  0.00000000000E+00  0.00000000000E+00  0.30465023318E+02  0.30465023318E+02  0.00000000000E+00 0. -1.
          1   -1    0    0  502    0 -0.00000000000E+00 -0.00000000000E+00 -0.41915474328E+03  0.41915474328E+03  0.00000000000E+00 0. -1.
        -24    2    1    2    0    0 -0.26486622190E+02 -0.30921588673E+02 -0.14274152846E+03  0.16978227551E+03  0.82420818528E+02 0.  0.
         23    2    1    2    0    0  0.54489652672E+01  0.46014398427E+02 -0.15937152310E+03  0.18947214693E+03  0.91396914614E+02 0.  0.
         13    1    3    3    0    0 -0.44654101517E+02  0.10978235451E+02 -0.65042446291E+02  0.79655698198E+02  0.00000000000E+00 0. -1.
        -14    1    3    3    0    0  0.18167479328E+02 -0.41899824124E+02 -0.77699082172E+02  0.90126577307E+02  0.00000000000E+00 0.  1.
        -11    1    4    4    0    0 -0.29472212318E+02  0.35353798550E+02 -0.14154524382E+03  0.14884071492E+03  0.00000000000E+00 0. -1.
         11    1    4    4    0    0  0.34921177586E+02  0.10660599877E+02 -0.17826279281E+02  0.40631432004E+02  0.00000000000E+00 0.  1.
          2    1    1    2  501    0  0.21037656922E+02 -0.15092809754E+02 -0.86576668397E+02  0.90365344163E+02  0.00000000000E+00 0. -1.
<scales pt_clust_5="13000.00000" pt_clust_6="13000.00000" pt_clust_7="13000.00000" pt_clust_8="13000.00000" pt_clust_9="25.89163"></scales>
<clustering>
<clus scale="   25.892">  1  9  2 -1</clus>
<clus scale="   82.421">  5  6 -1 -1</clus>
<clus scale="   91.397">  7  8 -1 -1</clus>
<clus scale="   92.279">  2  5  1 -1</clus>
<clus scale="   25.892">  1  5  2 -1</clus>
</clustering>
</event>
<event>
 9    1  0.7586638E-005  0.1210262E+03  0.7546771E-02  0.1244780E+00
          1   -1    0    0  502    0 -0.00000000000E+00  0.00000000000E+00  0.68765731222E+02  0.68765731222E+02  0.00000000000E+00 0. -1.
         21   -1    0    0  501  502  0.00000000000E+00 -0.00000000000E+00 -0.54719356958E+03  0.54719356958E+03  0.00000000000E+00 0. -1.
        -24    2    1    2    0    0 -0.95772217860E+02 -0.48524480079E+02 -0.17835614233E+03  0.22318160874E+03  0.80449823459E+02 0.  0.
         23    2    1    2    0    0  0.63125414411E+01  0.59474623667E+02 -0.27989169828E+03  0.30041876364E+03  0.91296175948E+02 0.  0.
         11    1    3    3    0    0 -0.12314725207E+02 -0.47229925644E+02 -0.84467883066E+02  0.97555838385E+02  0.00000000000E+00 0. -1.
        -12    1    3    3    0    0 -0.83457492653E+02 -0.12945544352E+01 -0.93888259261E+02  0.12562577036E+03  0.00000000000E+00 0.  1.
        -11    1    4    4    0    0 -0.27465911380E+02  0.38555521803E+02 -0.57374993183E+02  0.74382756014E+02  0.00000000000E+00 0. -1.
         11    1    4    4    0    0  0.33778452821E+02  0.20919101864E+02 -0.22251670509E+03  0.22603600763E+03  0.00000000000E+00 0.  1.
          2    1    1    2  501    0  0.89459676419E+02 -0.10950143588E+02 -0.20179997755E+02  0.92358928420E+02  0.00000000000E+00 0. -1.
<scales pt_clust_5="13000.00000" pt_clust_6="13000.00000" pt_clust_7="13000.00000" pt_clust_8="13000.00000" pt_clust_9="90.12740"></scales>
<clustering>
<clus scale="   80.450">  5  6 -1 -1</clus>
<clus scale="   90.127">  2  9  1 -1</clus>
<clus scale="   91.296">  7  8 -1 -1</clus>
<clus scale="  113.069">  1  5  2 -1</clus>
<clus scale="   90.127">  2  5  1 -1</clus>
</clustering>
</event>
<event>
 9    1  0.7586638E-005  0.1053242E+03  0.7546771E-02  0.1274246E+00
         21   -1    0    0  501  502  0.00000000000E+00  0.00000000000E+00  0.49822771079E+02  0.49822771079E+02  0.00000000000E+00 0. -1.
          1   -1    0    0  502    0 -0.00000000000E+00 -0.00000000000E+00 -0.41442284872E+03  0.41442284872E+03  0.00000000000E+00 0. -1.
         23    2    1    2    0    0  0.46704449932E+02  0.36293779077E+02 -0.28060071714E+03  0.30108284098E+03  0.91736419318E+02 0.  0.
        -24    2    1    2    0    0 -0.18401871533E+02 -0.37381058660E+02 -0.96082195665E+02  0.13236971099E+03  0.80956652851E+02 0.  0.
         13    1    4    4    0    0  0.29716218212E+02 -0.44664730871E+01 -0.18367619737E+02  0.35218921923E+02  0.00000000000E+00 0. -1.
        -14    1    4    4    0    0 -0.48118089745E+02 -0.32914585573E+02 -0.77714575929E+02  0.97150789065E+02  0.00000000000E+00 0.  1.
        -11    1    3    3    0    0 -0.17310896336E+02 -0.18118524183E+02 -0.59812816552E+02  0.64849989008E+02  0.00000000000E+00 0.  1.
         11    1    3    3    0    0  0.64015346268E+02  0.54412303261E+02 -0.22078790059E+03  0.23623285197E+03  0.00000000000E+00 0. -1.
          2    1    1    2  501    0 -0.28302578399E+02  0.10872795830E+01  0.12082835163E+02  0.30793067832E+02  0.00000000000E+00 0. -1.
<scales pt_clust_5="13000.00000" pt_clust_6="13000.00000" pt_clust_7="13000.00000" pt_clust_8="13000.00000" pt_clust_9="28.32346"></scales>
<clustering>
<clus scale="   28.323">  1  9  2 -1</clus>
<clus scale="   80.957">  5  6 -1 -1</clus>
<clus scale="   91.736">  7  8 -1 -1</clus>
<clus scale="   96.081">  1  5  2 -1</clus>
<clus scale="   28.323">  1  5  2 -1</clus>
</clustering>
</event>
<event>
 9    1  0.7586638E-005  0.9342324E+02  0.7546771E-02  0.1299158E+00
         21   -1    0    0  501  502  0.00000000000E+00  0.00000000000E+00  0.23773155154E+03  0.23773155154E+03  0.00000000000E+00 0.  1.
          3   -1    0    0  502    0 -0.00000000000E+00 -0.00000000000E+00 -0.71197969250E+02  0.71197969250E+02  0.00000000000E+00 0. -1.
         23    2    1    2    0    0  0.54774942408E+01  0.20970657159E+02 -0.47407967955E+01  0.92150353338E+02  0.89439594483E+02 0.  0.
        -24    2    1    2    0    0  0.12031108476E+02 -0.49009805230E+02  0.14756023146E+03  0.17609617603E+03  0.81787118325E+02 0.  0.
         13    1    4    4    0    0  0.29425479537E+02  0.11959930927E+02  0.38141642677E+02  0.49635508457E+02  0.00000000000E+00 0. -1.
        -14    1    4    4    0    0 -0.17394371060E+02 -0.60969736157E+02  0.10941858878E+03  0.12646066757E+03  0.00000000000E+00 0.  1.
        -11    1    3    3    0    0 -0.42059010953E+02  0.98778937612E+01 -0.15046354787E+01  0.43229586112E+02  0.00000000000E+00 0. -1.
         11    1    3    3    0    0  0.47536505194E+02  0.11092763398E+02 -0.32361613168E+01  0.48920767226E+02  0.00000000000E+00 0.  1.
          4    1    1    2  501    0 -0.17508602717E+02  0.28039148071E+02  0.23714147632E+02  0.40682991428E+02  0.00000000000E+00 0. -1.
<scales pt_clust_5="13000.00000" pt_clust_6="13000.00000" pt_clust_7="13000.00000" pt_clust_8="13000.00000" pt_clust_9="33.05669"></scales>
<clustering>
<clus scale="   33.057">  1  9  2 -1</clus>
<clus scale="   81.787">  5  6 -1 -1</clus>
<clus scale="   86.125">  1  5  2 -1</clus>
<clus scale="   89.440">  7  8 -1 -1</clus>
<clus scale="   33.057">  1  5  2 -1</clus>
</clustering>
</event>
<event>
 9    1  0.7586638E-005  0.3253983E+03  0.7546771E-02  0.1119431E+00
         21   -1    0    0  501  502  0.00000000000E+00  0.00000000000E+00  0.55526463338E+03  0.55526463338E+03  0.00000000000E+00 0. -1.
          1   -1    0    0  502    0 -0.00000000000E+00 -0.00000000000E+00 -0.36779083306E+03  0.36779083306E+03  0.00000000000E+00 0. -1.
         23    2    1    2    0    0 -0.18286944543E+02 -0.92456958992E+01  0.16221240633E+03  0.18908902838E+03  0.94983686250E+02 0.  0.
        -24    2    1    2    0    0 -0.30192327979E+02  0.31589440142E+03  0.19417565732E+03  0.38053229027E+03  0.79998678302E+02 0.  0.
         11    1    4    4    0    0 -0.93384548889E+01  0.25243267950E+03  0.18500052474E+03  0.31310486833E+03  0.00000000000E+00 0. -1.
        -12    1    4    4    0    0 -0.20853873090E+02  0.63461721920E+02  0.91751325752E+01  0.67427421941E+02  0.00000000000E+00 0.  1.
        -11    1    3    3    0    0 -0.56896973095E+02  0.20483121170E+01  0.93922713790E+02  0.10983140396E+03  0.00000000000E+00 0. -1.
         11    1    3    3    0    0  0.38610028552E+02 -0.11294008016E+02  0.68289692544E+02  0.79257624426E+02  0.00000000000E+00 0.  1.
          2    1    1    2  501    0  0.48479272522E+02 -0.30664870552E+03 -0.16891426333E+03  0.35343414778E+03  0.00000000000E+00 0. -1.
<scales pt_clust_5="13000.00000" pt_clust_6="13000.00000" pt_clust_7="13000.00000" pt_clust_8="13000.00000" pt_clust_9="315.41140"></scales>
<clustering>
<clus scale="   79.999">  5  6 -1 -1</clus>
<clus scale="   94.984">  7  8 -1 -1</clus>
<clus scale="   97.169">  2  7  1 -1</clus>
<clus scale="  315.411">  1  9  2 -1</clus>
<clus scale="  315.411">  1  5  2 -1</clus>
</clustering>
</event>
<event>
 9    1  0.7586638E-005  0.1157143E+03  0.7546771E-02  0.1252629E+00
          3   -1    0    0  502    0 -0.00000000000E+00  0.00000000000E+00  0.12884459291E+03  0.12884459291E+03  0.00000000000E+00 0. -1.
         21   -1    0    0  501  502  0.00000000000E+00 -0.00000000000E+00 -0.19592752149E+03  0.19592752149E+03  0.00000000000E+00 0.  1.
         23    2    1    2    0    0  0.49668345524E+02 -0.79725538160E+02  0.41401283635E+02  0.13682188703E+03  0.90460248183E+02 0.  0.
        -24    2    1    2    0    0 -0.13338309795E+02  0.27126599541E+02 -0.70651519804E+02  0.11366811341E+03  0.83755834691E+02 0.  0.
         13    1    4    4    0    0 -0.38617493580E+02  0.41910137123E+02 -0.32607520001E+02  0.65658364012E+02  0.00000000000E+00 0. -1.
        -14    1    4    4    0    0  0.25279183785E+02 -0.14783537582E+02 -0.38043999803E+02  0.48009749399E+02  0.00000000000E+00 0.  1.
        -13    1    3    3    0    0  0.19962305649E+02 -0.62519236487E+02  0.67160766541E+02  0.93902700388E+02  0.00000000000E+00 0.  1.
         13    1    3    3    0    0  0.29706039875E+02 -0.17206301673E+02 -0.25759482906E+02  0.42919186641E+02  0.00000000000E+00 0. -1.
          4    1    1    2  501    0 -0.36330035729E+02  0.52598938619E+02 -0.37832692402E+02  0.74282113960E+02  0.00000000000E+00 0. -1.
<scales pt_clust_5="13000.00000" pt_clust_6="13000.00000" pt_clust_7="13000.00000" pt_clust_8="13000.00000" pt_clust_9="63.92589"></scales>
<clustering>
<clus scale="   63.926">  2  9  1 -1</clus>
<clus scale="   83.756">  5  6 -1 -1</clus>
<clus scale="   90.460">  7  8 -1 -1</clus>
<clus scale="  110.552">  2  5  1 -1</clus>
<clus scale="   63.926">  2  5  1 -1</clus>
</clustering>
</event>
<event>
 9    1  0.7586638E-005  0.1274115E+03  0.7546771E-02  0.1233148E+00
         21   -1    0    0  501  502  0.00000000000E+00  0.00000000000E+00  0.17360817168E+03  0.17360817168E+03  0.00000000000E+00 0. -1.
          3   -1    0    0  502    0 -0.00000000000E+00 -0.00000000000E+00 -0.19141485015E+03  0.19141485015E+03  0.00000000000E+00 0. -1.
         23    2    1    2    0    0  0.45381889278E+02  0.63616229782E+02 -0.71266999646E+02  0.13624574399E+03  0.85891658215E+02 0.  0.
        -24    2    1    2    0    0 -0.82274732916E+02 -0.10927567891E+03  0.15003875438E+02  0.15860060490E+03  0.78858924161E+02 0.  0.
         13    1    4    4    0    0 -0.71174509578E+02 -0.11223018877E+03 -0.77391092787E+01  0.13312144792E+03  0.00000000000E+00 0. -1.
        -14    1    4    4    0    0 -0.11100223338E+02  0.29545098571E+01  0.22742984717E+02  0.25479156981E+02  0.00000000000E+00 0.  1.
        -13    1    3    3    0    0  0.15248878285E+02  0.57948061180E+02 -0.13891909279E+01  0.59936932979E+02  0.00000000000E+00 0.  1.
         13    1    3    3    0    0  0.30133010993E+02  0.56681686020E+01 -0.69877808719E+02  0.76308811012E+02  0.00000000000E+00 0. -1.
          4    1    1    2  501    0  0.36892843638E+02  0.45659449128E+02  0.38456445731E+02  0.70176672938E+02  0.00000000000E+00 0. -1.
<scales pt_clust_5="13000.00000" pt_clust_6="13000.00000" pt_clust_7="13000.00000" pt_clust_8="13000.00000" pt_clust_9="58.70151"></scales>
<clustering>
<clus scale="   58.702">  1  9  2 -1</clus>
<clus scale="   78.859">  5  6 -1 -1</clus>
<clus scale="   85.892">  7  8 -1 -1</clus>
<clus scale="  122.780">  1  5  2 -1</clus>
<clus scale="   58.702">  1  5  2 -1</clus>
</clustering>
</event>
<event>
 9    1  0.7586638E-005  0.1153249E+03  0.7546771E-02  0.1255066E+00
          1   -1    0    0  502    0 -0.00000000000E+00  0.00000000000E+00  0.27571121388E+03  0.27571121388E+03  0.00000000000E+00 0. -1.
         21   -1    0    0  501  502  0.00000000000E+00 -0.00000000000E+00 -0.87946268111E+02  0.87946268111E+02  0.00000000000E+00 0.  1.
        -24    2    1    2    0    0  0.15339108796E+02  0.59936529573E+02  0.10862127634E+03  0.14853245292E+03  0.80222391273E+02 0.  0.
         23    2    1    2    0    0  0.33201682956E+02 -0.95829215956E+02  0.37532851809E+02  0.14180413476E+03  0.91728443177E+02 0.  0.
         11    1    3    3    0    0 -0.11977755771E+02  0.24441461739E+02 -0.38325726572E+01  0.27487093306E+02  0.00000000000E+00 0. -1.
        -12    1    3    3    0    0  0.27316864567E+02  0.35495067834E+02  0.11245384900E+03  0.12104535962E+03  0.00000000000E+00 0.  1.
        -13    1    4    4    0    0  0.27712511833E+02 -0.40488386104E+02 -0.27492000217E+02  0.56241468663E+02  0.00000000000E+00 0.  1.
         13    1    4    4    0    0  0.54891711235E+01 -0.55340829851E+02  0.65024852026E+02  0.85562666095E+02  0.00000000000E+00 0. -1.
          2    1    1    2  501    0 -0.48540791752E+02  0.35892686382E+02  0.41610817622E+02  0.73320894312E+02  0.00000000000E+00 0. -1.
<scales pt_clust_5="13000.00000" pt_clust_6="13000.00000" pt_clust_7="13000.00000" pt_clust_8="13000.00000" pt_clust_9="60.36967"></scales>
<clustering>
<clus scale="   60.370">  2  9  1 -1</clus>
<clus scale="   80.222">  5  6 -1 -1</clus>
<clus scale="   91.728">  7  8 -1 -1</clus>
<clus scale="  106.402">  1  5  2 -1</clus>
<clus scale="   60.370">  2  5  1 -1</clus>
</clustering>
</event>
<event>
 9    1  0.7586638E-005  0.1031091E+03  0.7546771E-02  0.1278247E+00
         21   -1    0    0  501  502  0.00000000000E+00  0.00000000000E+00  0.27742076476E+03  0.27742076476E+03  0.00000000000E+00 0.  1.
          3   -1    0    0  502    0 -0.00000000000E+00 -0.00000000000E+00 -0.66698104563E+02  0.66698104563E+02  0.00000000000E+00 0. -1.
        -24    2    1    2    0    0  0.25763849433E+02  0.54994583246E+02  0.83873857631E+01  0.98286659348E+02  0.76822776843E+02 0.  0.
         23    2    1    2    0    0  0.23331779853E+01 -0.47848865292E+02  0.10562167901E+03  0.14486675165E+03  0.86807136960E+02 0.  0.
         11    1    3    3    0    0  0.28854198603E+02  0.38856613203E+02 -0.29714943681E+02  0.56792420662E+02  0.00000000000E+00 0. -1.
        -12    1    3    3    0    0 -0.30903491698E+01  0.16137970043E+02  0.38102329444E+02  0.41494238687E+02  0.00000000000E+00 0.  1.
        -13    1    4    4    0    0 -0.71909012791E+01  0.19629261417E+02  0.58208535182E+02  0.61848609790E+02  0.00000000000E+00 0.  1.
         13    1    4    4    0    0  0.95240792644E+01 -0.67478126708E+02  0.47413143825E+02  0.83018141856E+02  0.00000000000E+00 0. -1.
          4    1    1    2  501    0 -0.28097027418E+02 -0.71457179547E+01  0.96713595431E+02  0.10096545833E+03  0.00000000000E+00 0. -1.
<scales pt_clust_5="13000.00000" pt_clust_6="13000.00000" pt_clust_7="13000.00000" pt_clust_8="13000.00000" pt_clust_9="28.99145"></scales>
<clustering>
<clus scale="   28.991">  1  9  2 -1</clus>
<clus scale="   76.823">  5  6 -1 -1</clus>
<clus scale="   86.807">  7  8 -1 -1</clus>
<clus scale="   94.856">  2  5  1 -1</clus>
<clus scale="   28.991">  1  5  2 -1</clus>
</clustering>
</event>
<event>
 9    1  0.7586638E-005  0.9335240E+02  0.7546771E-02  0.1300744E+00
         21   -1    0    0  501  502  0.00000000000E+00  0.00000000000E+00  0.42759134244E+02  0.42759134244E+02  0.00000000000E+00 0.  1.
          1   -1    0    0  502    0 -0.00000000000E+00 -0.00000000000E+00 -0.59926658319E+03  0.59926658319E+03  0.00000000000E+00 0. -1.
        -24    2    1    2    0    0 -0.18311810422E+02  0.29012402271E+02 -0.89442835124E+02  0.12477466828E+03  0.79947828006E+02 0.  0.
         23    2    1    2    0    0 -0.62297426608E+02 -0.79431872264E+00 -0.13171995464E+03  0.17120170329E+03  0.89879232606E+02 0.  0.
         11    1    3    3    0    0  0.23437672519E+02  0.33645162027E+02 -0.62902530019E+02  0.75086947625E+02  0.00000000000E+00 0. -1.
        -12    1    3    3    0    0 -0.41749482941E+02 -0.46327597563E+01 -0.26540305105E+02  0.49687720655E+02  0.00000000000E+00 0.  1.
        -13    1    4    4    0    0 -0.52309983710E+02  0.28573372206E+02 -0.12637344544E+03  0.13972479990E+03  0.00000000000E+00 0.  1.
         13    1    4    4    0    0 -0.99874428979E+01 -0.29367690929E+02 -0.53465091997E+01  0.31476903385E+02  0.00000000000E+00 0. -1.
          2    1    1    2  501    0  0.80609237030E+02 -0.28218083548E+02 -0.33534465918E+03  0.34604934586E+03  0.00000000000E+00 0. -1.
<scales pt_clust_5="13000.00000" pt_clust_6="13000.00000" pt_clust_7="13000.00000" pt_clust_8="13000.00000" pt_clust_9="85.40560"></scales>
<clustering>
<clus scale="   79.948">  5  6 -1 -1</clus>
<clus scale="   85.406">  1  9  2 -1</clus>
<clus scale="   83.833">  2  5  1 -1</clus>
<clus scale="   89.879">  7  8 -1 -1</clus>
<clus scale="   85.406">  1  5  2 -1</clus>
</clustering>
</event>
<event>
 9    1  0.7586638E-005  0.1523006E+03  0.7546771E-02  0.1206587E+00
         21   -1    0    0  501  502  0.00000000000E+00  0.00000000000E+00  0.92928234304E+02  0.92928234304E+02  0.00000000000E+00 0. -1.
         -2   -1    0    0    0  501 -0.00000000000E+00 -0.00000000000E+00 -0.65681834560E+03  0.65681834560E+03  0.00000000000E+00 0.  1.
         23    2    1    2    0    0  0.84575331010E+02  0.30954657080E+01 -0.24344150226E+03  0.27392529668E+03  0.92783266895E+02 0.  0.
        -24    2    1    2    0    0 -0.60401743325E+02  0.12275201390E+03 -0.33984847534E+02  0.16200057467E+03  0.79829748949E+02 0.  0.
         13    1    4    4    0    0 -0.36035600010E+01  0.86162320508E+02  0.29497218273E+00  0.86238147758E+02  0.00000000000E+00 0. -1.
        -14    1    4    4    0    0 -0.56798183324E+02  0.36589693392E+02 -0.34279819717E+02  0.75762426909E+02  0.00000000000E+00 0.  1.
        -11    1    3    3    0    0  0.83622900830E+01  0.39946069614E+02 -0.84813030499E+02  0.94121551812E+02  0.00000000000E+00 0. -1.
         11    1    3    3    0    0  0.76213040927E+02 -0.36850603906E+02 -0.15862847176E+03  0.17980374487E+03  0.00000000000E+00 0.  1.
         -1    1    1    2    0  502 -0.24173587685E+02 -0.12584747961E+03 -0.28646376150E+03  0.31382070856E+03  0.00000000000E+00 0.  1.
<scales pt_clust_5="13000.00000" pt_clust_6="13000.00000" pt_clust_7="13000.00000" pt_clust_8="13000.00000" pt_clust_9="129.70233"></scales>
<clustering>
<clus scale="   79.830">  5  6 -1 -1</clus>
<clus scale="   92.783">  7  8 -1 -1</clus>
<clus scale="  125.584">  2  7  1 -1</clus>
<clus scale="  129.702">  1  9  2 -1</clus>
<clus scale="  129.702">  1  5  2 -1</clus>
</clustering>
</event>
<event>
 9    1  0.7714076E-005  0.3004840E+03  0.7546771E-02  0.1085359E+00
         21   -1    0    0  501  502  0.00000000000E+00  0.00000000000E+00  0.58808324197E+03  0.58808324197E+03  0.00000000000E+00 0. -1.
          1   -1    0    0  502    0 -0.00000000000E+00 -0.00000000000E+00 -0.28560460085E+03  0.28560460085E+03  0.00000000000E+00 0. -1.
         23    2    1    2    0    0  0.26289931753E+03  0.14254006837E+03 -0.81280979810E+01  0.31275650963E+03  0.91196743856E+02 0.  0.
        -24    2    1    2    0    0 -0.19948527789E+03 -0.15672465853E+03  0.38115746878E+03  0.46501497131E+03  0.81246002047E+02 0.  0.
         13    1    4    4    0    0 -0.14754093901E+03 -0.14037951438E+03  0.34163100736E+03  0.39772664221E+03  0.00000000000E+00 0. -1.
        -14    1    4    4    0    0 -0.51944338888E+02 -0.16345144150E+02  0.39526461422E+02  0.67288329094E+02  0.00000000000E+00 0.  1.
        -13    1    3    3    0    0  0.23263844721E+02  0.49514903397E+02  0.75225407388E+01  0.55222465979E+02  0.00000000000E+00 0.  1.
         13    1    3    3    0    0  0.23963547281E+03  0.93025164971E+02 -0.15650638720E+02  0.25753404365E+03  0.00000000000E+00 0. -1.
          2    1    1    2  501    0 -0.63414039633E+02  0.14184590158E+02 -0.70550729678E+02  0.95916361892E+02  0.00000000000E+00 0. -1.
<scales pt_clust_5="13000.00000" pt_clust_6="13000.00000" pt_clust_7="13000.00000" pt_clust_8="13000.00000" pt_clust_9="64.98113"></scales>
<clustering>
<clus scale="   64.981">  1  9  2 -1</clus>
<clus scale="   81.246">  5  6 -1 -1</clus>
<clus scale="   91.197">  7  8 -1 -1</clus>
<clus scale="  297.615">  1  5  2 -1</clus>
<clus scale="   64.981">  1  5  2 -1</clus>
</clustering>
</event>
<event>
 9    1  0.7586638E-005  0.9947993E+02  0.7546771E-02  0.1290303E+00
         21   -1    0    0  501  502  0.00000000000E+00  0.00000000000E+00  0.72880473093E+03  0.72880473093E+03  0.00000000000E+00 0.  1.
         -2   -1    0    0    0  501 -0.00000000000E+00 -0.00000000000E+00 -0.25612838514E+02  0.25612838514E+02  0.00000000000E+00 0.  1.
         23    2    1    2    0    0  0.40817820919E+02  0.31583491020E+02  0.13072173802E+03  0.16717880437E+03  0.90537110775E+02 0.  0.
        -24    2    1    2    0    0 -0.74778312314E+01 -0.35584326239E+01  0.47206848885E+03  0.47779721331E+03  0.73300330668E+02 0.  0.
         13    1    4    4    0    0  0.48298814447E+01  0.22349453353E+02  0.52670664612E+02  0.57419724230E+02  0.00000000000E+00 0. -1.
        -14    1    4    4    0    0 -0.12307712676E+02 -0.25907885977E+02  0.41939782424E+03  0.42037748908E+03  0.00000000000E+00 0.  1.
        -11    1    3    3    0    0 -0.24844985583E+02 -0.72456001508E+01  0.48809422759E+02  0.55246101946E+02  0.00000000000E+00 0. -1.
         11    1    3    3    0    0  0.65662806502E+02  0.38829091171E+02  0.81912315264E+02  0.11193270242E+03  0.00000000000E+00 0.  1.
         -1    1    1    2    0  502 -0.33339989687E+02 -0.28025058396E+02  0.10040166554E+03  0.10944155177E+03  0.00000000000E+00 0.  1.
<scales pt_clust_5="13000.00000" pt_clust_6="13000.00000" pt_clust_7="13000.00000" pt_clust_8="13000.00000" pt_clust_9="43.55411"></scales>
<clustering>
<clus scale="   43.554">  1  9  2 -1</clus>
<clus scale="   73.300">  5  6 -1 -1</clus>
<clus scale="   84.097">  1  5  2 -1</clus>
<clus scale="   90.537">  7  8 -1 -1</clus>
<clus scale="   43.554">  1  5  2 -1</clus>
</clustering>
</event>
<event>
 9    1  0.7586638E-005  0.9973749E+02  0.7546771E-02  0.1286032E+00
          3   -1    0    0  502    0 -0.00000000000E+00  0.00000000000E+00  0.53564294361E+02  0.53564294361E+02  0.00000000000E+00 0. -1.
         21   -1    0    0  501  502  0.00000000000E+00 -0.00000000000E+00 -0.38638447224E+03  0.38638447224E+03  0.00000000000E+00 0. -1.
        -24    2    1    2    0    0 -0.20852861053E+02 -0.41848136102E+02 -0.12224249226E+02  0.93821614900E+02  0.80417378992E+02 0.  0.
         23    2    1    2    0    0  0.62278232722E+01  0.21688384016E+02 -0.17510084212E+03  0.19851574448E+03  0.90769070249E+02 0.  0.
         13    1    3    3    0    0 -0.23403471112E+02 -0.41698386061E+02  0.26731714690E+02  0.54781953511E+02  0.00000000000E+00 0. -1.
        -14    1    3    3    0    0  0.25506100583E+01 -0.14975004106E+00 -0.38955963916E+02  0.39039661389E+02  0.00000000000E+00 0.  1.
        -11    1    4    4    0    0 -0.40619909390E+02  0.22213174468E+02 -0.96021716083E+02  0.10660005684E+03  0.00000000000E+00 0. -1.
         11    1    4    4    0    0  0.46847732663E+02 -0.52479045156E+00 -0.79079126035E+02  0.91915687644E+02  0.00000000000E+00 0.  1.
          4    1    1    2  501    0  0.14625037781E+02  0.20159752086E+02 -0.14549508653E+03  0.14761140721E+03  0.00000000000E+00 0. -1.
<scales pt_clust_5="13000.00000" pt_clust_6="13000.00000" pt_clust_7="13000.00000" pt_clust_8="13000.00000" pt_clust_9="24.90597"></scales>
<clustering>
<clus scale="   24.906">  2  9  1 -1</clus>
<clus scale="   80.417">  5  6 -1 -1</clus>
<clus scale="   90.418">  1  5  2 -1</clus>
<clus scale="   90.769">  7  8 -1 -1</clus>
<clus scale="   24.906">  2  5  1 -1</clus>
</clustering>
</event>
<event>
 9    1  0.7586638E-005  0.1397834E+03  0.7546771E-02  0.1215819E+00
          1   -1    0    0  502    0 -0.00000000000E+00  0.00000000000E+00  0.31615841425E+03  0.31615841425E+03  0.00000000000E+00 0. -1.
         21   -1    0    0  501  502  0.00000000000E+00 -0.00000000000E+00 -0.13715921537E+03  0.13715921537E+03  0.00000000000E+00 0.  1.
         23    2    1    2    0    0  0.88948279403E+02  0.46991798199E+02  0.19662477620E+03  0.23869564397E+03  0.90522275306E+02 0.  0.
        -24    2    1    2    0    0 -0.11096427404E+03 -0.80866672004E+02 -0.45585851796E+02  0.16548963333E+03  0.80350856260E+02 0.  0.
         11    1    4    4    0    0 -0.65506582247E+02 -0.76957849020E+02 -0.97692350094E-01  0.10106251722E+03  0.00000000000E+00 0. -1.
        -12    1    4    4    0    0 -0.45457691798E+02 -0.39088229840E+01 -0.45488159446E+02  0.64427116112E+02  0.00000000000E+00 0.  1.
        -13    1    3    3    0    0  0.34464847056E+02 -0.26397311618E+02  0.53851994908E+02  0.69171389308E+02  0.00000000000E+00 0.  1.
         13    1    3    3    0    0  0.54483432347E+02  0.73389109816E+02  0.14277278129E+03  0.16952425466E+03  0.00000000000E+00 0. -1.
          2    1    1    2  501    0  0.22015994642E+02  0.33874873805E+02  0.27960274483E+02  0.49132352321E+02  0.00000000000E+00 0. -1.
<scales pt_clust_5="13000.00000" pt_clust_6="13000.00000" pt_clust_7="13000.00000" pt_clust_8="13000.00000" pt_clust_9="40.40065"></scales>
<clustering>
<clus scale="   40.401">  2  9  1 -1</clus>
<clus scale="   80.351">  5  6 -1 -1</clus>
<clus scale="   90.522">  7  8 -1 -1</clus>
<clus scale="  133.422">  2  5  1 -1</clus>
<clus scale="   40.401">  2  5  1 -1</clus>
</clustering>
</event>
<event>
 9    1  0.7586638E-005  0.1592526E+03  0.7546771E-02  0.1189592E+00
          3   -1    0    0  502    0 -0.00000000000E+00  0.00000000000E+00  0.85722391969E+03  0.85722391969E+03  0.00000000000E+00 0. -1.
         21   -1    0    0  501  502  0.00000000000E+00 -0.00000000000E+00 -0.20620224223E+03  0.20620224223E+03  0.00000000000E+00 0.  1.
         23    2    1    2    0    0  0.10189889921E+02  0.13163676022E+03  0.73632896429E+03  0.75275040533E+03  0.83789967009E+02 0.  0.
        -24    2    1    2    0    0  0.41992583239E+02 -0.19451917308E+03 -0.49162250591E+02  0.22132436042E+03  0.83465321459E+02 0.  0.
         13    1    4    4    0    0 -0.97280749427E+01 -0.43961662631E+02 -0.42617865194E+02  0.61996335836E+02  0.00000000000E+00 0. -1.
        -14    1    4    4    0    0  0.51720658182E+02 -0.15055751045E+03 -0.65443853968E+01  0.15932802458E+03  0.00000000000E+00 0.  1.
        -11    1    3    3    0    0 -0.32454144461E+02  0.74912472061E+02  0.47462168893E+03  0.48159204475E+03  0.00000000000E+00 0. -1.
         11    1    3    3    0    0  0.42644034382E+02  0.56724288154E+02  0.26170727536E+03  0.27115836058E+03  0.00000000000E+00 0.  1.
          4    1    1    2  501    0 -0.52182473160E+02  0.62882412869E+02 -0.36145036245E+02  0.89351396175E+02  0.00000000000E+00 0. -1.
<scales pt_clust_5="13000.00000" pt_clust_6="13000.00000" pt_clust_7="13000.00000" pt_clust_8="13000.00000" pt_clust_9="81.71419"></scales>
<clustering>
<clus scale="   81.714">  2  9  1 -1</clus>
<clus scale="   83.465">  5  6 -1 -1</clus>
<clus scale="   83.790">  7  8 -1 -1</clus>
<clus scale="  159.082">  2  5  1 -1</clus>
<clus scale="   81.714">  2  5  1 -1</clus>
</clustering>
</event>
<event>
 9    1  0.7586638E-005  0.9641346E+02  0.7546771E-02  0.1295484E+00
         21   -1    0    0  501  502  0.00000000000E+00  0.00000000000E+00  0.53661162449E+02  0.53661162449E+02  0.00000000000E+00 0. -1.
          1   -1    0    0  502    0 -0.00000000000E+00 -0.00000000000E+00 -0.38799773672E+03  0.38799773672E+03  0.00000000000E+00 0. -1.
         23    2    1    2    0    0  0.17960622176E+02 -0.58370669330E+01 -0.17835157910E+03  0.20087963122E+03  0.90480302683E+02 0.  0.
        -24    2    1    2    0    0 -0.78504605238E+02 -0.21903608139E+01 -0.55480642957E+02  0.12317340799E+03  0.76979321703E+02 0.  0.
         13    1    4    4    0    0 -0.53085562184E+02  0.35897281402E+02 -0.34895252998E+02  0.72968283563E+02  0.00000000000E+00 0. -1.
        -14    1    4    4    0    0 -0.25419043054E+02 -0.38087642216E+02 -0.20585389960E+02  0.50205124431E+02  0.00000000000E+00 0.  1.
        -13    1    3    3    0    0  0.11534314705E+02 -0.48058162687E+02 -0.87570955994E+02  0.10055495885E+03  0.00000000000E+00 0.  1.
         13    1    3    3    0    0  0.64263074711E+01  0.42221095754E+02 -0.90780623107E+02  0.10032467237E+03  0.00000000000E+00 0. -1.
          2    1    1    2  501    0  0.60543983062E+02  0.80274277469E+01 -0.10050435222E+03  0.11760585995E+03  0.00000000000E+00 0. -1.
<scales pt_clust_5="13000.00000" pt_clust_6="13000.00000" pt_clust_7="13000.00000" pt_clust_8="13000.00000" pt_clust_9="61.07387"></scales>
<clustering>
<clus scale="   61.074">  1  9  2 -1</clus>
<clus scale="   76.979">  5  6 -1 -1</clus>
<clus scale="   83.873">  1  5  2 -1</clus>
<clus scale="   90.480">  7  8 -1 -1</clus>
<clus scale="   61.074">  1  5  2 -1</clus>
</clustering>
</event>
<event>
 9    1  0.7586638E-005  0.9379413E+02  0.7546771E-02  0.1300682E+00
         -4   -1    0    0    0  501 -0.00000000000E+00  0.00000000000E+00  0.79434710634E+03  0.79434710634E+03  0.00000000000E+00 0.  1.
         21   -1    0    0  501  502  0.00000000000E+00 -0.00000000000E+00 -0.21912656821E+02  0.21912656821E+02  0.00000000000E+00 0. -1.
        -24    2    1    2    0    0 -0.18686860868E+02 -0.12393175986E+02  0.54556644229E+03  0.55170103974E+03  0.78920876267E+02 0.  0.
         23    2    1    2    0    0  0.44875893320E+02 -0.10145697279E+02  0.17308941607E+03  0.20063687195E+03  0.90434658493E+02 0.  0.
         13    1    3    3    0    0  0.24488766817E+02 -0.20829012461E+02  0.13456986762E+03  0.13835677335E+03  0.00000000000E+00 0. -1.
        -14    1    3    3    0    0 -0.43175627685E+02  0.84358364754E+01  0.41099657467E+03  0.41334426639E+03  0.00000000000E+00 0.  1.
        -11    1    4    4    0    0  0.52925399815E+02  0.18722165902E+02  0.54219308430E+02  0.78047106598E+02  0.00000000000E+00 0. -1.
         11    1    4    4    0    0 -0.80495064945E+01 -0.28867863181E+02  0.11887010764E+03  0.12258976535E+03  0.00000000000E+00 0.  1.
         -3    1    1    2    0  502 -0.26189032452E+02  0.22538873265E+02  0.53778591158E+02  0.63921851473E+02  0.00000000000E+00 0.  1.
<scales pt_clust_5="13000.00000" pt_clust_6="13000.00000" pt_clust_7="13000.00000" pt_clust_8="13000.00000" pt_clust_9="34.55237"></scales>
<clustering>
<clus scale="   34.552">  2  9  1 -1</clus>
<clus scale="   78.921">  5  6 -1 -1</clus>
<clus scale="   82.749">  1  5  2 -1</clus>
<clus scale="   90.435">  7  8 -1 -1</clus>
<clus scale="   34.552">  2  5  1 -1</clus>
</clustering>
</event>
<event>
 9    1  0.7586638E-005  0.1004277E+03  0.7546771E-02  0.1285752E+00
         -2   -1    0    0    0  501 -0.00000000000E+00  0.00000000000E+00  0.30914711022E+03  0.30914711022E+03  0.00000000000E+00 0.  1.
         21   -1    0    0  501  502  0.00000000000E+00 -0.00000000000E+00 -0.69314090932E+02  0.69314090932E+02  0.00000000000E+00 0. -1.
         23    2    1    2    0    0 -0.39208135853E+02  0.10836976336E+02  0.23434426709E+03  0.25469471174E+03  0.91090299683E+02 0.  0.
        -24    2    1    2    0    0  0.53682703485E+02  0.72937067449E+01 -0.10136446771E+02  0.95795403987E+02  0.78351650017E+02 0.  0.
         13    1    4    4    0    0  0.40276269481E+02  0.74174415722E+01 -0.43556750653E+02  0.59786176079E+02  0.00000000000E+00 0. -1.
        -14    1    4    4    0    0  0.13406434004E+02 -0.12373482725E+00  0.33420303881E+02  0.36009227908E+02  0.00000000000E+00 0.  1.
        -11    1    3    3    0    0  0.11186610459E+01  0.21329662406E+02  0.54566159645E+01  0.22044966742E+02  0.00000000000E+00 0. -1.
         11    1    3    3    0    0 -0.40326796899E+02 -0.10492686070E+02  0.22888765113E+03  0.23264974500E+03  0.00000000000E+00 0.  1.
         -1    1    1    2    0  502 -0.14474567632E+02 -0.18130683081E+02  0.15625198967E+02  0.27971085425E+02  0.00000000000E+00 0.  1.
<scales pt_clust_5="13000.00000" pt_clust_6="13000.00000" pt_clust_7="13000.00000" pt_clust_8="13000.00000" pt_clust_9="23.19989"></scales>
<clustering>
<clus scale="   23.200">  2  9  1 -1</clus>
<clus scale="   78.352">  5  6 -1 -1</clus>
<clus scale="   89.035">  2  5  1 -1</clus>
<clus scale="   91.090">  7  8 -1 -1</clus>
<clus scale="   23.200">  2  5  1 -1</clus>
</clustering>
</event>
<event>
 9    1  0.7586638E-005  0.9307503E+02  0.7546771E-02  0.1300675E+00
          1   -1    0    0  502    0 -0.00000000000E+00  0.00000000000E+00  0.95523359238E+02  0.95523359238E+02  0.00000000000E+00 0. -1.
         21   -1    0    0  501  502  0.00000000000E+00 -0.00000000000E+00 -0.47177749642E+03  0.47177749642E+03  0.00000000000E+00 0. -1.
         23    2    1    2    0    0  0.29815367676E+01 -0.19142781257E+02  0.43831319787E+02  0.10352945486E+03  0.91770517017E+02 0.  0.
        -24    2    1    2    0    0  0.19926519409E+02 -0.32898457785E+02 -0.38756479390E+03  0.39826824724E+03  0.83257147402E+02 0.  0.
         11    1    4    4    0    0 -0.89331019228E+01  0.25239969775E+02 -0.11792569893E+03  0.12092694842E+03  0.00000000000E+00 0. -1.
        -12    1    4    4    0    0  0.28859621332E+02 -0.58138427560E+02 -0.26963909496E+03  0.27734129883E+03  0.00000000000E+00 0.  1.
        -11    1    3    3    0    0  0.23901336469E+02  0.12650281373E+02  0.57136017646E+02  0.63212562171E+02  0.00000000000E+00 0.  1.
         11    1    3    3    0    0 -0.20919799701E+02 -0.31793062630E+02 -0.13304697859E+02  0.40316892689E+02  0.00000000000E+00 0. -1.
          2    1    1    2  501    0 -0.22908056176E+02  0.52041239043E+02 -0.32520663073E+02  0.65503153554E+02  0.00000000000E+00 0. -1.
<scales pt_clust_5="13000.00000" pt_clust_6="13000.00000" pt_clust_7="13000.00000" pt_clust_8="13000.00000" pt_clust_9="56.86012"></scales>
<clustering>
<clus scale="   56.860">  2  9  1 -1</clus>
<clus scale="   83.257">  5  6 -1 -1</clus>
<clus scale="   84.693">  2  5  1 -1</clus>
<clus scale="   91.771">  7  8 -1 -1</clus>
<clus scale="   56.860">  2  5  1 -1</clus>
</clustering>
</event>
<event>
 9    1  0.7586638E-005  0.1585254E+03  0.7546771E-02  0.1192502E+00
         21   -1    0    0  501  502  0.00000000000E+00  0.00000000000E+00  0.16401922052E+03  0.16401922052E+03  0.00000000000E+00 0.  1.
          1   -1    0    0  502    0 -0.00000000000E+00 -0.00000000000E+00 -0.47120791334E+03  0.47120791334E+03  0.00000000000E+00 0. -1.
        -24    2    1    2    0    0 -0.75955033757E+02  0.10006068663E+03 -0.38317001375E+03  0.41120220534E+03  0.80539965673E+02 0.  0.
         23    2    1    2    0    0  0.83215562890E+02 -0.12026024682E+03  0.33990536835E+02  0.17686601140E+03  0.93481936887E+02 0.  0.
         13    1    3    3    0    0 -0.40709703598E+02  0.62993576078E+02 -0.32588727677E+03  0.33440691942E+03  0.00000000000E+00 0. -1.
        -14    1    3    3    0    0 -0.35245330159E+02  0.37067110554E+02 -0.57282736985E+02  0.76795285919E+02  0.00000000000E+00 0.  1.
        -11    1    4    4    0    0  0.81800226672E+02 -0.82193107870E+02 -0.12646516507E+02  0.11664869671E+03  0.00000000000E+00 0. -1.
         11    1    4    4    0    0  0.14153362172E+01 -0.38067138948E+02  0.46637053342E+02  0.60217314693E+02  0.00000000000E+00 0.  1.
          2    1    1    2  501    0 -0.72605291331E+01  0.20199560185E+02  0.41990784095E+02  0.47158917119E+02  0.00000000000E+00 0. -1.
<scales pt_clust_5="13000.00000" pt_clust_6="13000.00000" pt_clust_7="13000.00000" pt_clust_8="13000.00000" pt_clust_9="21.46480"></scales>
<clustering>
<clus scale="   21.465">  1  9  2 -1</clus>
<clus scale="   80.540">  5  6 -1 -1</clus>
<clus scale="   93.482">  7  8 -1 -1</clus>
<clus scale="  151.255">  2  5  1 -1</clus>
<clus scale="   21.465">  1  5  2 -1</clus>
</clustering>
</event>
<event>
 9    1  0.7586638E-005  0.1438043E+03  0.7546771E-02  0.1210338E+00
         21   -1    0    0  501  502  0.00000000000E+00  0.00000000000E+00  0.89229418801E+02  0.89229418801E+02  0.00000000000E+00 0. -1.
          1   -1    0    0  502    0 -0.00000000000E+00 -0.00000000000E+00 -0.72585304718E+03  0.72585304718E+03  0.00000000000E+00 0. -1.
         23    2    1    2    0    0  0.38930382298E+02 -0.10630088660E+03 -0.48832287928E+03  0.50928120640E+03  0.89959210782E+02 0.  0.
        -24    2    1    2    0    0 -0.14864615687E+02  0.10572927112E+03  0.20879123155E+02  0.13491733101E+03  0.79794190602E+02 0.  0.
         11    1    4    4    0    0 -0.29979237576E+02  0.62651260291E+02 -0.21418241082E+02  0.72682020836E+02  0.00000000000E+00 0. -1.
        -12    1    4    4    0    0  0.15114621890E+02  0.43078010827E+02  0.42297364237E+02  0.62235310179E+02  0.00000000000E+00 0.  1.
        -13    1    3    3    0    0  0.59605392623E+02 -0.67289328582E+02 -0.22517339795E+03  0.24245353310E+03  0.00000000000E+00 0.  1.
         13    1    3    3    0    0 -0.20675010325E+02 -0.39011558019E+02 -0.26314948133E+03  0.26682767330E+03  0.00000000000E+00 0. -1.
          2    1    1    2  501    0 -0.24065766611E+02  0.57161548324E+00 -0.16917987226E+03  0.17088392857E+03  0.00000000000E+00 0. -1.
<scales pt_clust_5="13000.00000" pt_clust_6="13000.00000" pt_clust_7="13000.00000" pt_clust_8="13000.00000" pt_clust_9="24.07257"></scales>
<clustering>
<clus scale="   24.073">  1  9  2 -1</clus>
<clus scale="   79.794">  5  6 -1 -1</clus>
<clus scale="   89.959">  7  8 -1 -1</clus>
<clus scale="  137.674">  1  5  2 -1</clus>
<clus scale="   24.073">  1  5  2 -1</clus>
</clustering>
</event>
<event>
 9    1  0.7586638E-005  0.1570896E+03  0.7546771E-02  0.1193542E+00
         21   -1    0    0  501  502  0.00000000000E+00  0.00000000000E+00  0.60446100220E+03  0.60446100220E+03  0.00000000000E+00 0. -1.
          1   -1    0    0  502    0 -0.00000000000E+00 -0.00000000000E+00 -0.80842535179E+02  0.80842535179E+02  0.00000000000E+00 0. -1.
         23    2    1    2    0    0 -0.14417353830E+03 -0.27491980131E+02  0.78293452201E+02  0.18863275609E+03  0.88941744383E+02 0.  0.
        -24    2    1    2    0    0  0.10256000898E+03 -0.39231117921E+02  0.22430518297E+03  0.26207874454E+03  0.79465823955E+02 0.  0.
         13    1    4    4    0    0  0.37889063515E+02 -0.56983608577E+02  0.10967496339E+03  0.12927223358E+03  0.00000000000E+00 0. -1.
        -14    1    4    4    0    0  0.64670945466E+02  0.17752490656E+02  0.11463021958E+03  0.13280651096E+03  0.00000000000E+00 0.  1.
        -11    1    3    3    0    0 -0.26166490176E+02 -0.87310333905E+01  0.62228781923E+02  0.68068623108E+02  0.00000000000E+00 0.  1.
         11    1    3    3    0    0 -0.11800704813E+03 -0.18760946741E+02  0.16064670278E+02  0.12056413298E+03  0.00000000000E+00 0. -1.
          2    1    1    2  501    0  0.41613529321E+02  0.66723098053E+02  0.22101983185E+03  0.23459203675E+03  0.00000000000E+00 0. -1.
<scales pt_clust_5="13000.00000" pt_clust_6="13000.00000" pt_clust_7="13000.00000" pt_clust_8="13000.00000" pt_clust_9="78.63624"></scales>
<clustering>
<clus scale="   78.636">  1  9  2 -1</clus>
<clus scale="   79.466">  5  6 -1 -1</clus>
<clus scale="   88.942">  7  8 -1 -1</clus>
<clus scale="  151.925">  1  5  2 -1</clus>
<clus scale="   78.636">  1  5  2 -1</clus>
</clustering>
</event>
<event>
 9    1  0.7586638E-005  0.9945518E+02  0.7546771E-02  0.1288765E+00
          1   -1    0    0  502    0 -0.00000000000E+00  0.00000000000E+00  0.37450116744E+03  0.37450116744E+03  0.00000000000E+00 0. -1.
         21   -1    0    0  501  502  0.00000000000E+00 -0.00000000000E+00 -0.61908619276E+02  0.61908619276E+02  0.00000000000E+00 0. -1.
        -24    2    1    2    0    0 -0.13810628674E+01 -0.33593889755E+02  0.23288558179E+03  0.24793689650E+03  0.78144441088E+02 0.  0.
         23    2    1    2    0    0  0.28321113515E+02  0.59628002548E+02  0.15895839810E+02  0.11447693607E+03  0.92166734835E+02 0.  0.
         13    1    3    3    0    0  0.30243289943E+02 -0.41666767418E+02  0.15993562996E+03  0.16801839728E+03  0.00000000000E+00 0. -1.
        -14    1    3    3    0    0 -0.31624352811E+02  0.80728776632E+01  0.72949951837E+02  0.79918499220E+02  0.00000000000E+00 0.  1.
        -11    1    4    4    0    0  0.98590310134E+01 -0.20554871623E+02 -0.14207887276E+02  0.26862004780E+02  0.00000000000E+00 0.  1.
         11    1    4    4    0    0  0.18462082501E+02  0.80182874171E+02  0.30103727086E+02  0.87614931291E+02  0.00000000000E+00 0. -1.
          2    1    1    2  501    0 -0.26940050647E+02 -0.26034112793E+02  0.63811126561E+02  0.73995954152E+02  0.00000000000E+00 0. -1.
<scales pt_clust_5="13000.00000" pt_clust_6="13000.00000" pt_clust_7="13000.00000" pt_clust_8="13000.00000" pt_clust_9="37.46389"></scales>
<clustering>
<clus scale="   37.464">  2  9  1 -1</clus>
<clus scale="   78.144">  5  6 -1 -1</clus>
<clus scale="   86.621">  1  5  2 -1</clus>
<clus scale="   92.167">  7  8 -1 -1</clus>
<clus scale="   37.464">  2  5  1 -1</clus>
</clustering>
</event>
<event>
 9    1  0.7586638E-005  0.1548707E+03  0.7546771E-02  0.1196016E+00
         21   -1    0    0  501  502  0.00000000000E+00  0.00000000000E+00  0.45665344622E+03  0.45665344622E+03  0.00000000000E+00 0. -1.
          1   -1    0    0  502    0 -0.00000000000E+00 -0.00000000000E+00 -0.11324234458E+03  0.11324234458E+03  0.00000000000E+00 0. -1.
        -24    2    1    2    0    0 -0.13243242864E+03 -0.80753874009E+02  0.28629117793E+02  0.17719626724E+03  0.80742519268E+02 0.  0.
         23    2    1    2    0    0  0.92817586489E+02  0.19525680883E+02  0.95052065016E+02  0.16118394183E+03  0.89157228903E+02 0.  0.
         11    1    3    3    0    0 -0.42513813091E+02 -0.46391810871E+02 -0.24168095406E+02  0.67407130595E+02  0.00000000000E+00 0. -1.
        -12    1    3    3    0    0 -0.89918615545E+02 -0.34362063138E+02  0.52797213199E+02  0.10978913665E+03  0.00000000000E+00 0.  1.
        -11    1    4    4    0    0  0.78139711300E+00 -0.24223142489E+02  0.40728045647E+01  0.24575576301E+02  0.00000000000E+00 0. -1.
         11    1    4    4    0    0  0.92036189376E+02  0.43748823372E+02  0.90979260452E+02  0.13660836553E+03  0.00000000000E+00 0.  1.
          2    1    1    2  501    0  0.39614842147E+02  0.61228193127E+02  0.21972991883E+03  0.23151558172E+03  0.00000000000E+00 0. -1.
<scales pt_clust_5="13000.00000" pt_clust_6="13000.00000" pt_clust_7="13000.00000" pt_clust_8="13000.00000" pt_clust_9="72.92618"></scales>
<clustering>
<clus scale="   72.926">  1  9  2 -1</clus>
<clus scale="   80.743">  5  6 -1 -1</clus>
<clus scale="   89.157">  7  8 -1 -1</clus>
<clus scale="  150.184">  2  5  1 -1</clus>
<clus scale="   72.926">  1  5  2 -1</clus>
</clustering>
</event>
<event>
 9    1  0.7586638E-005  0.1788411E+03  0.7546771E-02  0.1183766E+00
         -4   -1    0    0    0  501 -0.00000000000E+00  0.00000000000E+00  0.56534807642E+03  0.56534807642E+03  0.00000000000E+00 0.  1.
         21   -1    0    0  501  502  0.00000000000E+00 -0.00000000000E+00 -0.19411268079E+03  0.19411268079E+03  0.00000000000E+00 0.  1.
         23    2    1    2    0    0 -0.21248552551E+02  0.86430092651E+02 -0.90576714821E+02  0.15668224064E+03  0.91779743752E+02 0.  0.
        -24    2    1    2    0    0 -0.12908371263E+03 -0.13145012574E+03  0.36967042302E+03  0.42079861687E+03  0.80458149827E+02 0.  0.
         11    1    4    4    0    0 -0.87174472354E+02 -0.57306767238E+02  0.27138544751E+03  0.29074647946E+03  0.00000000000E+00 0. -1.
        -12    1    4    4    0    0 -0.41909240275E+02 -0.74143358503E+02  0.98284975516E+02  0.13005213740E+03  0.00000000000E+00 0.  1.
        -13    1    3    3    0    0 -0.73819202862E+01  0.66537746282E+02 -0.10783041674E+03  0.12692187834E+03  0.00000000000E+00 0.  1.
         13    1    3    3    0    0 -0.13866632265E+02  0.19892346369E+02  0.17253701917E+02  0.29760362301E+02  0.00000000000E+00 0. -1.
         -3    1    1    2    0  502  0.15033226518E+03  0.45020033090E+02  0.92141687432E+02  0.18197989970E+03  0.00000000000E+00 0.  1.
<scales pt_clust_5="13000.00000" pt_clust_6="13000.00000" pt_clust_7="13000.00000" pt_clust_8="13000.00000" pt_clust_9="159.72044"></scales>
<clustering>
<clus scale="   80.458">  5  6 -1 -1</clus>
<clus scale="   91.780">  7  8 -1 -1</clus>
<clus scale="  127.848">  1  7  2 -1</clus>
<clus scale="  159.720">  2  9  1 -1</clus>
<clus scale="  159.720">  2  5  1 -1</clus>
</clustering>
</event>
<event>
 9    1  0.7586638E-005  0.1194494E+03  0.7546771E-02  0.1247435E+00
          1   -1    0    0  502    0 -0.00000000000E+00  0.00000000000E+00  0.11430260832E+04  0.11430260832E+04  0.00000000000E+00 0. -1.
         21   -1    0    0  501  502  0.00000000000E+00 -0.00000000000E+00 -0.17762538353E+02  0.17762538353E+02  0.00000000000E+00 0. -1.
         23    2    1    2    0    0  0.58388936837E+02 -0.45445191774E+02  0.57479349850E+03  0.58669218881E+03  0.91354392846E+02 0.  0.
        -24    2    1    2    0    0 -0.33093690326E+02  0.80951968132E+02  0.42058379405E+03  0.43708906360E+03  0.80670367649E+02 0.  0.
         11    1    4    4    0    0  0.13318923263E+02  0.64354715398E+02  0.18291062204E+03  0.19435848004E+03  0.00000000000E+00 0. -1.
        -12    1    4    4    0    0 -0.46412613589E+02  0.16597252733E+02  0.23767317201E+03  0.24273058356E+03  0.00000000000E+00 0.  1.
        -13    1    3    3    0    0  0.75839213632E+02 -0.13233214737E+02  0.45346089697E+03  0.45994944220E+03  0.00000000000E+00 0.  1.
         13    1    3    3    0    0 -0.17450276795E+02 -0.32211977038E+02  0.12133260153E+03  0.12674274661E+03  0.00000000000E+00 0. -1.
          2    1    1    2  501    0 -0.25295246511E+02 -0.35506776357E+02  0.12988625226E+03  0.13700736911E+03  0.00000000000E+00 0. -1.
<scales pt_clust_5="13000.00000" pt_clust_6="13000.00000" pt_clust_7="13000.00000" pt_clust_8="13000.00000" pt_clust_9="43.59565"></scales>
<clustering>
<clus scale="   43.596">  2  9  1 -1</clus>
<clus scale="   80.670">  5  6 -1 -1</clus>
<clus scale="   91.354">  7  8 -1 -1</clus>
<clus scale="  111.491">  2  5  1 -1</clus>
<clus scale="   43.596">  2  5  1 -1</clus>
</clustering>
</event>
<event>
 9    1  0.7586638E-005  0.2201485E+03  0.7546771E-02  0.1134648E+00
         21   -1    0    0  501  502  0.00000000000E+00  0.00000000000E+00  0.14428226516E+03  0.14428226516E+03  0.00000000000E+00 0.  1.
          1   -1    0    0  502    0 -0.00000000000E+00 -0.00000000000E+00 -0.60288540487E+03  0.60288540487E+03  0.00000000000E+00 0. -1.
         23    2    1    2    0    0  0.11015514874E+01  0.19083763415E+03 -0.20340487066E+03  0.29377857007E+03  0.92260992849E+02 0.  0.
        -24    2    1    2    0    0 -0.12250985903E+03 -0.19273122401E+03 -0.21948271261E+03  0.32682226467E+03  0.80536583472E+02 0.  0.
         11    1    4    4    0    0 -0.86091330419E+02 -0.65807643420E+02 -0.11860225079E+03  0.16065135231E+03  0.00000000000E+00 0. -1.
        -12    1    4    4    0    0 -0.36418528611E+02 -0.12692358059E+03 -0.10088046182E+03  0.16617091236E+03  0.00000000000E+00 0.  1.
        -13    1    3    3    0    0 -0.29139196865E+02  0.51992577437E+02 -0.10564621538E+03  0.12129898485E+03  0.00000000000E+00 0. -1.
         13    1    3    3    0    0  0.30240748352E+02  0.13884505672E+03 -0.97758655280E+02  0.17247958522E+03  0.00000000000E+00 0.  1.
          2    1    1    2  501    0  0.12140830754E+03  0.18935898573E+01 -0.35715556433E+02  0.12656683529E+03  0.00000000000E+00 0. -1.
<scales pt_clust_5="13000.00000" pt_clust_6="13000.00000" pt_clust_7="13000.00000" pt_clust_8="13000.00000" pt_clust_9="121.42307"></scales>
<clustering>
<clus scale="   80.537">  5  6 -1 -1</clus>
<clus scale="   92.261">  7  8 -1 -1</clus>
<clus scale="  121.423">  1  9  2 -1</clus>
<clus scale="  215.498">  1  5  2 -1</clus>
<clus scale="  121.423">  1  5  2 -1</clus>
</clustering>
</event>
<event>
 9    1  0.7586638E-005  0.1480197E+03  0.7546771E-02  0.1205420E+00
         21   -1    0    0  501  502  0.00000000000E+00  0.00000000000E+00  0.34692565719E+02  0.34692565719E+02  0.00000000000E+00 0. -1.
          1   -1    0    0  502    0 -0.00000000000E+00 -0.00000000000E+00 -0.91781598489E+03  0.91781598489E+03  0.00000000000E+00 0. -1.
        -24    2    1    2    0    0 -0.13763834534E+03  0.66977323115E+00 -0.55754464218E+03  0.57966268100E+03  0.78791071912E+02 0.  0.
         23    2    1    2    0    0  0.81202980356E+02  0.35474750599E+01 -0.19288504351E+03  0.22858789753E+03  0.91876429456E+02 0.  0.
         11    1    3    3    0    0 -0.12967525333E+03 -0.22451816277E+02 -0.50217153741E+03  0.51913004957E+03  0.00000000000E+00 0. -1.
        -12    1    3    3    0    0 -0.79630920091E+01  0.23121589508E+02 -0.55373104766E+02  0.60532631424E+02  0.00000000000E+00 0.  1.
        -13    1    4    4    0    0  0.40030641189E+02  0.13140302354E+02 -0.17930002812E+03  0.18418365797E+03  0.00000000000E+00 0.  1.
         13    1    4    4    0    0  0.41172339167E+02 -0.95928272944E+01 -0.13585015395E+02  0.44404239564E+02  0.00000000000E+00 0. -1.
          2    1    1    2  501    0  0.56435364983E+02 -0.42172482910E+01 -0.13269373348E+03  0.14425797208E+03  0.00000000000E+00 0. -1.
<scales pt_clust_5="13000.00000" pt_clust_6="13000.00000" pt_clust_7="13000.00000" pt_clust_8="13000.00000" pt_clust_9="56.59272"></scales>
<clustering>
<clus scale="   56.593">  1  9  2 -1</clus>
<clus scale="   78.791">  5  6 -1 -1</clus>
<clus scale="   91.876">  7  8 -1 -1</clus>
<clus scale="  140.273">  2  5  1 -1</clus>
<clus scale="   56.593">  1  5  2 -1</clus>
</clustering>
</event>
<event>
 9    1  0.7586638E-005  0.9595927E+02  0.7546771E-02  0.1289940E+00
          1   -1    0    0  502    0 -0.00000000000E+00  0.00000000000E+00  0.47641190626E+03  0.47641190626E+03  0.00000000000E+00 0. -1.
         21   -1    0    0  501  502  0.00000000000E+00 -0.00000000000E+00 -0.39683562502E+02  0.39683562502E+02  0.00000000000E+00 0.  1.
        -24    2    1    2    0    0  0.18122775487E+02  0.51606599161E+02  0.17994760750E+03  0.20535170180E+03  0.82440911691E+02 0.  0.
         23    2    1    2    0    0 -0.44897375803E+02 -0.90270017105E+01  0.73960035617E+02  0.12113018642E+03  0.84292194657E+02 0.  0.
         11    1    3    3    0    0  0.34866442261E+02  0.43694802665E+02  0.17818642914E+03  0.18674931889E+03  0.00000000000E+00 0. -1.
        -12    1    3    3    0    0 -0.16743666774E+02  0.79117964959E+01  0.17611783586E+01  0.18602382913E+02  0.00000000000E+00 0.  1.
        -11    1    4    4    0    0 -0.44758740672E+02  0.26793424384E+02  0.18980781837E+02  0.55511282960E+02  0.00000000000E+00 0.  1.
         11    1    4    4    0    0 -0.13863513083E+00 -0.35820426094E+02  0.54979253780E+02  0.65618903461E+02  0.00000000000E+00 0. -1.
          2    1    1    2  501    0  0.26774600316E+02 -0.42579597450E+02  0.18282070064E+03  0.18961358054E+03  0.00000000000E+00 0. -1.
<scales pt_clust_5="13000.00000" pt_clust_6="13000.00000" pt_clust_7="13000.00000" pt_clust_8="13000.00000" pt_clust_9="50.29815"></scales>
<clustering>
<clus scale="   50.298">  2  9  1 -1</clus>
<clus scale="   82.441">  5  6 -1 -1</clus>
<clus scale="   84.292">  7  8 -1 -1</clus>
<clus scale="   94.337">  1  5  2 -1</clus>
<clus scale="   50.298">  2  5  1 -1</clus>
</clustering>
</event>
<event>
 9    1  0.7586638E-005  0.2364708E+03  0.7546771E-02  0.1150636E+00
          1   -1    0    0  502    0 -0.00000000000E+00  0.00000000000E+00  0.36864435073E+03  0.36864435073E+03  0.00000000000E+00 0. -1.
         21   -1    0    0  501  502  0.00000000000E+00 -0.00000000000E+00 -0.50406190717E+03  0.50406190717E+03  0.00000000000E+00 0. -1.
        -24    2    1    2    0    0  0.82293103785E+02 -0.31078990782E+02 -0.12190192795E+03  0.16997675312E+03  0.79334468954E+02 0.  0.
         23    2    1    2    0    0 -0.11826802941E+03 -0.18570220966E+03  0.25940244963E+03  0.35234034756E+03  0.91550271397E+02 0.  0.
         11    1    3    3    0    0  0.98065058244E+02 -0.30329471701E+02 -0.10460217502E+03  0.14655458888E+03  0.00000000000E+00 0. -1.
        -12    1    3    3    0    0 -0.15771954459E+02 -0.74951908114E+00 -0.17299752928E+02  0.23422164240E+02  0.00000000000E+00 0.  1.
        -13    1    4    4    0    0 -0.19881135488E+02 -0.30785540750E+02  0.26481799938E+01  0.36742644500E+02  0.00000000000E+00 0.  1.
         13    1    4    4    0    0 -0.98386893921E+02 -0.15491666891E+03  0.25675426963E+03  0.31559770306E+03  0.00000000000E+00 0. -1.
          2    1    1    2  501    0  0.35974925625E+02  0.21678120044E+03 -0.27291807812E+03  0.35038915723E+03  0.00000000000E+00 0. -1.
<scales pt_clust_5="13000.00000" pt_clust_6="13000.00000" pt_clust_7="13000.00000" pt_clust_8="13000.00000" pt_clust_9="218.02977"></scales>
<clustering>
<clus scale="   79.334">  5  6 -1 -1</clus>
<clus scale="   91.550">  7  8 -1 -1</clus>
<clus scale="  118.457">  1  5  2 -1</clus>
<clus scale="  218.030">  2  9  1 -1</clus>
<clus scale="  218.030">  2  5  1 -1</clus>
</clustering>
</event>
<event>
 9    1  0.7586638E-005  0.1108397E+03  0.7546771E-02  0.1263778E+00
         21   -1    0    0  501  502  0.00000000000E+00  0.00000000000E+00  0.29948985248E+03  0.29948985248E+03  0.00000000000E+00 0. -1.
          1   -1    0    0  502    0 -0.00000000000E+00 -0.00000000000E+00 -0.76308076246E+02  0.76308076246E+02  0.00000000000E+00 0. -1.
         23    2    1    2    0    0  0.66688757346E+02  0.32998278172E+02  0.44582504090E+02  0.12647556792E+03  0.92044515812E+02 0.  0.
        -24    2    1    2    0    0 -0.41657885688E+02  0.12155965553E+02  0.17544192461E+03  0.19759790715E+03  0.79886901672E+02 0.  0.
         13    1    4    4    0    0 -0.41336039072E+02  0.32719775406E+02  0.16741723805E+03  0.17552146143E+03  0.00000000000E+00 0. -1.
        -14    1    4    4    0    0 -0.32184661586E+00 -0.20563809853E+02  0.80246865684E+01  0.22076445715E+02  0.00000000000E+00 0.  1.
        -13    1    3    3    0    0 -0.18569292394E+02  0.20519727490E+02 -0.33466384966E+01  0.27876115681E+02  0.00000000000E+00 0.  1.
         13    1    3    3    0    0  0.85258049740E+02  0.12478550682E+02  0.47929142587E+02  0.98599452238E+02  0.00000000000E+00 0. -1.
          2    1    1    2  501    0 -0.25030871658E+02 -0.45154243725E+02  0.31573475256E+01  0.51724453654E+02  0.00000000000E+00 0. -1.
<scales pt_clust_5="13000.00000" pt_clust_6="13000.00000" pt_clust_7="13000.00000" pt_clust_8="13000.00000" pt_clust_9="51.62802"></scales>
<clustering>
<clus scale="   51.628">  1  9  2 -1</clus>
<clus scale="   79.887">  5  6 -1 -1</clus>
<clus scale="   92.045">  7  8 -1 -1</clus>
<clus scale="  100.971">  1  5  2 -1</clus>
<clus scale="   51.628">  1  5  2 -1</clus>
</clustering>
</event>
<event>
 9    1  0.7586638E-005  0.1313299E+03  0.7546771E-02  0.1228392E+00
         21   -1    0    0  501  502  0.00000000000E+00  0.00000000000E+00  0.23373274284E+03  0.23373274284E+03  0.00000000000E+00 0. -1.
          1   -1    0    0  502    0 -0.00000000000E+00 -0.00000000000E+00 -0.71670028724E+03  0.71670028724E+03  0.00000000000E+00 0. -1.
         23    2    1    2    0    0 -0.24868578182E+02 -0.87342978292E+02 -0.41835244667E+03  0.43777920647E+03  0.91567581292E+02 0.  0.
        -24    2    1    2    0    0  0.97331445794E+02  0.14614649034E+03  0.17184492471E+03  0.25844512505E+03  0.80193500578E+02 0.  0.
         13    1    4    4    0    0  0.86325584595E+02  0.11998302897E+03  0.17591611530E+03  0.22977056691E+03  0.00000000000E+00 0. -1.
        -14    1    4    4    0    0  0.11005861199E+02  0.26163461368E+02 -0.40711905931E+01  0.28674558137E+02  0.00000000000E+00 0.  1.
        -11    1    3    3    0    0  0.26428151501E+02 -0.98624622521E+01 -0.45605074654E+02  0.53624044865E+02  0.00000000000E+00 0.  1.
         11    1    3    3    0    0 -0.51296729683E+02 -0.77480516040E+02 -0.37274737202E+03  0.38415516161E+03  0.00000000000E+00 0. -1.
          2    1    1    2  501    0 -0.72462867613E+02 -0.58803512044E+02 -0.23646002244E+03  0.25420869856E+03  0.00000000000E+00 0. -1.
<scales pt_clust_5="13000.00000" pt_clust_6="13000.00000" pt_clust_7="13000.00000" pt_clust_8="13000.00000" pt_clust_9="93.32057"></scales>
<clustering>
<clus scale="   80.194">  5  6 -1 -1</clus>
<clus scale="   91.568">  7  8 -1 -1</clus>
<clus scale="   93.321">  1  9  2 -1</clus>
<clus scale="  123.669">  1  5  2 -1</clus>
<clus scale="   93.321">  1  5  2 -1</clus>
</clustering>
</event>
<event>
 9    1  0.7586638E-005  0.1560895E+03  0.7546771E-02  0.1194680E+00
         21   -1    0    0  501  502  0.00000000000E+00  0.00000000000E+00  0.66646435851E+02  0.66646435851E+02  0.00000000000E+00 0.  1.
          1   -1    0    0  502    0 -0.00000000000E+00 -0.00000000000E+00 -0.54918002410E+03  0.54918002410E+03  0.00000000000E+00 0. -1.
        -24    2    1    2    0    0  0.10813486039E+03 -0.51276354115E+02 -0.31809321312E+03  0.35003748999E+03  0.83788660612E+02 0.  0.
         23    2    1    2    0    0 -0.11218030900E+03  0.88115888855E+02 -0.14720202104E+03  0.22491504396E+03  0.92571650122E+02 0.  0.
         11    1    3    3    0    0  0.11686464561E+03 -0.27808956637E+02 -0.24697541802E+03  0.27464074819E+03  0.00000000000E+00 0. -1.
        -12    1    3    3    0    0 -0.87297852213E+01 -0.23467397478E+02 -0.71117795099E+02  0.75396741801E+02  0.00000000000E+00 0.  1.
        -13    1    4    4    0    0 -0.14303578398E+02  0.31519672082E+02  0.53592879591E+01  0.35025762669E+02  0.00000000000E+00 0.  1.
         13    1    4    4    0    0 -0.97876730602E+02  0.56596216773E+02 -0.15256130900E+03  0.18988928129E+03  0.00000000000E+00 0. -1.
          2    1    1    2  501    0  0.40454486122E+01 -0.36839534740E+02 -0.17238354087E+02  0.40873925991E+02  0.00000000000E+00 0. -1.
<scales pt_clust_5="13000.00000" pt_clust_6="13000.00000" pt_clust_7="13000.00000" pt_clust_8="13000.00000" pt_clust_9="37.06099"></scales>
<clustering>
<clus scale="   37.061">  1  9  2 -1</clus>
<clus scale="   83.789">  5  6 -1 -1</clus>
<clus scale="   92.572">  7  8 -1 -1</clus>
<clus scale="  151.046">  2  5  1 -1</clus>
<clus scale="   37.061">  1  5  2 -1</clus>
</clustering>
</event>
<event>
 9    1  0.7586638E-005  0.1337196E+03  0.7546771E-02  0.1223595E+00
         21   -1    0    0  501  502  0.00000000000E+00  0.00000000000E+00  0.82051603102E+02  0.82051603102E+02  0.00000000000E+00 0. -1.
          1   -1    0    0  502    0 -0.00000000000E+00 -0.00000000000E+00 -0.29300432749E+03  0.29300432749E+03  0.00000000000E+00 0. -1.
        -24    2    1    2    0    0 -0.10162419438E+02 -0.10795181569E+03 -0.11713890907E+03  0.17825298103E+03  0.79345648582E+02 0.  0.
         23    2    1    2    0    0  0.41958412774E+02  0.89263576355E+02 -0.91677723945E+02  0.15985977201E+03  0.86150143196E+02 0.  0.
         13    1    3    3    0    0  0.10912502936E+02 -0.83455826409E+02 -0.37182457565E+02  0.92013547005E+02  0.00000000000E+00 0. -1.
        -14    1    3    3    0    0 -0.21074922374E+02 -0.24495989281E+02 -0.79956451505E+02  0.86239434026E+02  0.00000000000E+00 0.  1.
        -13    1    4    4    0    0  0.20048000841E+02  0.46029717298E+02 -0.98844118026E+02  0.11086395663E+03  0.00000000000E+00 0. -1.
         13    1    4    4    0    0  0.21910411933E+02  0.43233859057E+02  0.71663940815E+01  0.48995815374E+02  0.00000000000E+00 0.  1.
          2    1    1    2  501    0 -0.31795993336E+02  0.18688239334E+02 -0.21360913784E+01  0.36943177557E+02  0.00000000000E+00 0. -1.
<scales pt_clust_5="13000.00000" pt_clust_6="13000.00000" pt_clust_7="13000.00000" pt_clust_8="13000.00000" pt_clust_9="36.88137"></scales>
<clustering>
<clus scale="   36.881">  1  9  2 -1</clus>
<clus scale="   79.346">  5  6 -1 -1</clus>
<clus scale="   86.150">  7  8 -1 -1</clus>
<clus scale="  129.440">  2  5  1 -1</clus>
<clus scale="   36.881">  1  5  2 -1</clus>
</clustering>
</event>
<event>
 9    1  0.7586638E-005  0.9283073E+02  0.7546771E-02  0.1300749E+00
          1   -1    0    0  502    0 -0.00000000000E+00  0.00000000000E+00  0.34677913188E+03  0.34677913188E+03  0.00000000000E+00 0. -1.
         21   -1    0    0  501  502  0.00000000000E+00 -0.00000000000E+00 -0.77674404506E+02  0.77674404506E+02  0.00000000000E+00 0. -1.
         23    2    1    2    0    0 -0.91698641578E+01  0.20285807440E+02  0.27864313942E+03  0.29395907631E+03  0.90963393785E+02 0.  0.
        -24    2    1    2    0    0 -0.79300169535E+01 -0.69319161407E+01  0.26903063789E+02  0.88083217364E+02  0.83210225992E+02 0.  0.
         13    1    4    4    0    0  0.42346449325E+01 -0.42696090531E+02  0.26255096390E+02  0.50301276831E+02  0.00000000000E+00 0. -1.
        -14    1    4    4    0    0 -0.12164661886E+02  0.35764174391E+02  0.64796739915E+00  0.37781940532E+02  0.00000000000E+00 0.  1.
        -11    1    3    3    0    0 -0.13560114519E+02 -0.34703530846E+02  0.13628919279E+03  0.14129032462E+03  0.00000000000E+00 0. -1.
         11    1    3    3    0    0  0.43902503612E+01  0.54989338286E+02  0.14235394663E+03  0.15266875170E+03  0.00000000000E+00 0.  1.
          2    1    1    2  501    0  0.17099881111E+02 -0.13353891299E+02 -0.36441475837E+02  0.42411242708E+02  0.00000000000E+00 0. -1.
<scales pt_clust_5="13000.00000" pt_clust_6="13000.00000" pt_clust_7="13000.00000" pt_clust_8="13000.00000" pt_clust_9="21.69637"></scales>
<clustering>
<clus scale="   21.696">  2  9  1 -1</clus>
<clus scale="   83.210">  5  6 -1 -1</clus>
<clus scale="   85.248">  2  5  1 -1</clus>
<clus scale="   90.963">  7  8 -1 -1</clus>
<clus scale="   21.696">  2  5  1 -1</clus>
</clustering>
</event>
<event>
 9    1  0.7586638E-005  0.1618868E+03  0.7546771E-02  0.1204675E+00
          1   -1    0    0  502    0 -0.00000000000E+00  0.00000000000E+00  0.63867727974E+03  0.63867727974E+03  0.00000000000E+00 0. -1.
         21   -1    0    0  501  502  0.00000000000E+00 -0.00000000000E+00 -0.71898539594E+02  0.71898539594E+02  0.00000000000E+00 0. -1.
         23    2    1    2    0    0 -0.11606438167E+02  0.71675717162E+02  0.11784694095E+03  0.16049967120E+03  0.81241154150E+02 0.  0.
        -24    2    1    2    0    0  0.32501314989E+02 -0.18508199097E+03  0.25759079415E+03  0.32667301693E+03  0.71067319504E+02 0.  0.
         13    1    4    4    0    0  0.63460115442E+01 -0.16158580740E+03  0.18300200749E+03  0.24421298033E+03  0.00000000000E+00 0. -1.
        -14    1    4    4    0    0  0.26155303445E+02 -0.23496183571E+02  0.74588786664E+02  0.82460036603E+02  0.00000000000E+00 0.  1.
        -13    1    3    3    0    0 -0.30111993957E+02  0.70280908138E+00  0.13630602002E+02  0.33060844388E+02  0.00000000000E+00 0. -1.
         13    1    3    3    0    0  0.18505555790E+02  0.70972908080E+02  0.10421633895E+03  0.12743882682E+03  0.00000000000E+00 0.  1.
          2    1    1    2  501    0 -0.20894876822E+02  0.11340627381E+03  0.19134100505E+03  0.22340313120E+03  0.00000000000E+00 0. -1.
<scales pt_clust_5="13000.00000" pt_clust_6="13000.00000" pt_clust_7="13000.00000" pt_clust_8="13000.00000" pt_clust_9="145.45373"></scales>
<clustering>
<clus scale="   71.067">  5  6 -1 -1</clus>
<clus scale="   81.241">  7  8 -1 -1</clus>
<clus scale="  108.960">  1  7  2 -1</clus>
<clus scale="  145.454">  2  9  1 -1</clus>
<clus scale="  145.454">  2  5  1 -1</clus>
</clustering>
</event>
<event>
 9    1  0.7586638E-005  0.1873337E+03  0.7546771E-02  0.1174414E+00
         21   -1    0    0  501  502  0.00000000000E+00  0.00000000000E+00  0.17403823575E+03  0.17403823575E+03  0.00000000000E+00 0. -1.
          1   -1    0    0  502    0 -0.00000000000E+00 -0.00000000000E+00 -0.50450758478E+03  0.50450758478E+03  0.00000000000E+00 0. -1.
        -24    2    1    2    0    0  0.69460789582E+00  0.12269930468E+03 -0.22418617913E+03  0.26289311680E+03  0.61625855762E+02 0.  0.
         23    2    1    2    0    0  0.72022339634E+02  0.10499800479E+03 -0.11897951248E+02  0.15866556651E+03  0.93922320742E+02 0.  0.
         11    1    3    3    0    0  0.29692865923E+02  0.80764535195E+02 -0.13265068959E+03  0.15811635551E+03  0.00000000000E+00 0. -1.
        -12    1    3    3    0    0 -0.28998258027E+02  0.41934769486E+02 -0.91535489542E+02  0.10477676129E+03  0.00000000000E+00 0.  1.
        -13    1    4    4    0    0  0.66349853405E+02  0.16435156974E+02 -0.14529584386E+02  0.69882231319E+02  0.00000000000E+00 0.  1.
         13    1    4    4    0    0  0.56724862287E+01  0.88562847819E+02  0.26316331378E+01  0.88783335186E+02  0.00000000000E+00 0. -1.
          2    1    1    2  501    0 -0.72716947530E+02 -0.22769730947E+03 -0.94385218655E+02  0.25698713723E+03  0.00000000000E+00 0. -1.
<scales pt_clust_5="13000.00000" pt_clust_6="13000.00000" pt_clust_7="13000.00000" pt_clust_8="13000.00000" pt_clust_9="162.08804"></scales>
<clustering>
<clus scale="   61.626">  5  6 -1 -1</clus>
<clus scale="   93.922">  7  8 -1 -1</clus>
<clus scale="  137.307">  2  5  1 -1</clus>
<clus scale="  162.088">  1  9  2 -1</clus>
<clus scale="  162.088">  1  5  2 -1</clus>
</clustering>
</event>
<event>
 9    1  0.7586638E-005  0.1460456E+03  0.7546771E-02  0.1207654E+00
         21   -1    0    0  501  502  0.00000000000E+00  0.00000000000E+00  0.16497331832E+03  0.16497331832E+03  0.00000000000E+00 0.  1.
         -2   -1    0    0    0  501 -0.00000000000E+00 -0.00000000000E+00 -0.48640846031E+03  0.48640846031E+03  0.00000000000E+00 0.  1.
        -24    2    1    2    0    0 -0.89862525141E+02 -0.78468423855E+02 -0.16362099032E+03  0.21769656387E+03  0.79921201689E+02 0.  0.
         23    2    1    2    0    0  0.13660438412E+03 -0.46519941271E+02 -0.22644779662E+03  0.28362699268E+03  0.91328000553E+02 0.  0.
         11    1    3    3    0    0 -0.10181738303E+03 -0.72819131868E+02 -0.16145695664E+03  0.20429819945E+03  0.00000000000E+00 0. -1.
        -12    1    3    3    0    0  0.11954857892E+02 -0.56492919866E+01 -0.21640336830E+01  0.13398364413E+02  0.00000000000E+00 0.  1.
        -11    1    4    4    0    0  0.14311965592E+03 -0.25151982119E+02 -0.21200633324E+03  0.25702634777E+03  0.00000000000E+00 0.  1.
         11    1    4    4    0    0 -0.65152718008E+01 -0.21367959152E+02 -0.14441463387E+02  0.26600644912E+02  0.00000000000E+00 0. -1.
         -1    1    1    2    0  502 -0.46741858976E+02  0.12498836513E+03  0.68633644944E+02  0.15005822209E+03  0.00000000000E+00 0.  1.
<scales pt_clust_5="13000.00000" pt_clust_6="13000.00000" pt_clust_7="13000.00000" pt_clust_8="13000.00000" pt_clust_9="133.44247"></scales>
<clustering>
<clus scale="   79.921">  5  6 -1 -1</clus>
<clus scale="   91.328">  7  8 -1 -1</clus>
<clus scale="  133.442">  1  9  2 -1</clus>
<clus scale="  139.197">  2  5  1 -1</clus>
<clus scale="  133.442">  1  5  2 -1</clus>
</clustering>
</event>
<event>
 9    1  0.7586638E-005  0.9007364E+02  0.7546771E-02  0.1306942E+00
         -2   -1    0    0    0  501 -0.00000000000E+00  0.00000000000E+00  0.68797617171E+02  0.68797617171E+02  0.00000000000E+00 0.  1.
         21   -1    0    0  501  502  0.00000000000E+00 -0.00000000000E+00 -0.19538912351E+03  0.19538912351E+03  0.00000000000E+00 0. -1.
        -24    2    1    2    0    0  0.15916445665E+02  0.14484416087E+02 -0.93964752878E+01  0.83942098822E+02  0.80590636273E+02 0.  0.
         23    2    1    2    0    0  0.19136953970E+02 -0.34332143933E+02 -0.90483749720E+02  0.13191074405E+03  0.87568352268E+02 0.  0.
         13    1    3    3    0    0  0.13051417310E+02 -0.32843044712E+02 -0.92341363060E+01  0.36527720337E+02  0.00000000000E+00 0. -1.
        -14    1    3    3    0    0  0.28650283548E+01  0.47327460799E+02 -0.16233898175E+00  0.47414378485E+02  0.00000000000E+00 0.  1.
        -11    1    4    4    0    0 -0.27588468490E+02  0.50207663756E+01 -0.53756953120E+02  0.60631194095E+02  0.00000000000E+00 0. -1.
         11    1    4    4    0    0  0.46725422459E+02 -0.39352910308E+02 -0.36726796600E+02  0.71279549958E+02  0.00000000000E+00 0.  1.
         -1    1    1    2    0  502 -0.35053399634E+02  0.19847727846E+02 -0.26711281327E+02  0.48333897802E+02  0.00000000000E+00 0.  1.
<scales pt_clust_5="13000.00000" pt_clust_6="13000.00000" pt_clust_7="13000.00000" pt_clust_8="13000.00000" pt_clust_9="40.28242"></scales>
<clustering>
<clus scale="   40.282">  2  9  1 -1</clus>
<clus scale="   80.591">  5  6 -1 -1</clus>
<clus scale="   83.306">  1  5  2 -1</clus>
<clus scale="   87.568">  7  8 -1 -1</clus>
<clus scale="   40.282">  2  5  1 -1</clus>
</clustering>
</event>
<event>
 9    1  0.7586638E-005  0.9290267E+02  0.7546771E-02  0.1299453E+00
         -2   -1    0    0    0  501 -0.00000000000E+00  0.00000000000E+00  0.16461727905E+03  0.16461727905E+03  0.00000000000E+00 0.  1.
         21   -1    0    0  501  502  0.00000000000E+00 -0.00000000000E+00 -0.18747576192E+03  0.18747576192E+03  0.00000000000E+00 0.  1.
        -24    2    1    2    0    0 -0.24835932982E+01  0.39950317759E+02  0.12120243291E+03  0.14928962074E+03  0.77428450797E+02 0.  0.
         23    2    1    2    0    0 -0.28264410498E+02 -0.39358812746E+02 -0.14210177744E+03  0.17198738805E+03  0.83897279200E+02 0.  0.
         13    1    3    3    0    0  0.28473624828E+02 -0.40670008360E+01  0.21213408381E+02  0.35739285133E+02  0.00000000000E+00 0. -1.
        -14    1    3    3    0    0 -0.30957218126E+02  0.44017318596E+02  0.99989024528E+02  0.11355033561E+03  0.00000000000E+00 0.  1.
        -13    1    4    4    0    0 -0.32913449454E+01 -0.22977554055E+02  0.33930707860E+01  0.23458769603E+02  0.00000000000E+00 0. -1.
         13    1    4    4    0    0 -0.24973065553E+02 -0.16381258691E+02 -0.14549484822E+03  0.14852861845E+03  0.00000000000E+00 0.  1.
         -1    1    1    2    0  502  0.30748003797E+02 -0.59150501332E+00 -0.19591383447E+01  0.30816032170E+02  0.00000000000E+00 0.  1.
<scales pt_clust_5="13000.00000" pt_clust_6="13000.00000" pt_clust_7="13000.00000" pt_clust_8="13000.00000" pt_clust_9="30.75371"></scales>
<clustering>
<clus scale="   30.754">  2  9  1 -1</clus>
<clus scale="   77.428">  5  6 -1 -1</clus>
<clus scale="   83.897">  7  8 -1 -1</clus>
<clus scale="   87.105">  1  5  2 -1</clus>
<clus scale="   30.754">  2  5  1 -1</clus>
</clustering>
</event>
<event>
 9    1  0.7586638E-005  0.1109441E+03  0.7546771E-02  0.1264416E+00
         -2   -1    0    0    0  501 -0.00000000000E+00  0.00000000000E+00  0.22091648663E+03  0.22091648663E+03  0.00000000000E+00 0.  1.
         21   -1    0    0  501  502  0.00000000000E+00 -0.00000000000E+00 -0.16746706031E+03  0.16746706031E+03  0.00000000000E+00 0. -1.
         23    2    1    2    0    0  0.63611620297E+02 -0.17916541790E+01  0.11243452816E+03  0.15935020170E+03  0.93280841546E+02 0.  0.
        -24    2    1    2    0    0 -0.37419637232E+02  0.24603386923E+02 -0.12488508428E+03  0.15454037367E+03  0.79252046796E+02 0.  0.
         11    1    4    4    0    0 -0.20054378194E+02  0.46928486446E+02 -0.11275276699E+03  0.12376448355E+03  0.00000000000E+00 0. -1.
        -12    1    4    4    0    0 -0.17365259037E+02 -0.22325099523E+02 -0.12132317293E+02  0.30775890126E+02  0.00000000000E+00 0.  1.
        -13    1    3    3    0    0  0.77046915296E+02 -0.26086778053E+02  0.10006580995E+03  0.12895702178E+03  0.00000000000E+00 0.  1.
         13    1    3    3    0    0 -0.13435294999E+02  0.24295123874E+02  0.12368718209E+02  0.30393179924E+02  0.00000000000E+00 0. -1.
         -1    1    1    2    0  502 -0.26191983065E+02 -0.22811732744E+02  0.65899982442E+02  0.74492971571E+02  0.00000000000E+00 0.  1.
<scales pt_clust_5="13000.00000" pt_clust_6="13000.00000" pt_clust_7="13000.00000" pt_clust_8="13000.00000" pt_clust_9="34.73322"></scales>
<clustering>
<clus scale="   34.733">  2  9  1 -1</clus>
<clus scale="   79.252">  5  6 -1 -1</clus>
<clus scale="   93.281">  7  8 -1 -1</clus>
<clus scale="   99.439">  2  5  1 -1</clus>
<clus scale="   34.733">  2  5  1 -1</clus>
</clustering>
</event>
<event>
 9    1  0.7586638E-005  0.1204064E+03  0.7546771E-02  0.1246411E+00
          1   -1    0    0  502    0 -0.00000000000E+00  0.00000000000E+00  0.15019848895E+03  0.15019848895E+03  0.00000000000E+00 0. -1.
         21   -1    0    0  501  502  0.00000000000E+00 -0.00000000000E+00 -0.20154785151E+03  0.20154785151E+03  0.00000000000E+00 0. -1.
        -24    2    1    2    0    0 -0.15897716898E+02 -0.49672983209E+02  0.40467154230E+01  0.95766756971E+02  0.80216913252E+02 0.  0.
         23    2    1    2    0    0 -0.13095836460E+02  0.13183609286E+03 -0.24412505769E+02  0.16350588738E+03  0.92660393127E+02 0.  0.
         11    1    3    3    0    0 -0.43458269984E+02 -0.26612582337E+02 -0.17483454392E+02  0.53875058664E+02  0.00000000000E+00 0. -1.
        -12    1    3    3    0    0  0.27560553086E+02 -0.23060400873E+02  0.21530169815E+02  0.41891698307E+02  0.00000000000E+00 0.  1.
        -13    1    4    4    0    0  0.69777947656E+01  0.12979790281E+03  0.23293054817E+01  0.13000619546E+03  0.00000000000E+00 0. -1.
         13    1    4    4    0    0 -0.20073631225E+02  0.20381900491E+01 -0.26741811251E+02  0.33499691912E+02  0.00000000000E+00 0.  1.
          2    1    1    2  501    0  0.28993553358E+02 -0.82163109654E+02 -0.30983572217E+02  0.92473696107E+02  0.00000000000E+00 0. -1.
<scales pt_clust_5="13000.00000" pt_clust_6="13000.00000" pt_clust_7="13000.00000" pt_clust_8="13000.00000" pt_clust_9="87.12866"></scales>
<clustering>
<clus scale="   80.217">  5  6 -1 -1</clus>
<clus scale="   87.129">  2  9  1 -1</clus>
<clus scale="   92.660">  7  8 -1 -1</clus>
<clus scale="  111.115">  1  5  2 -1</clus>
<clus scale="   87.129">  2  5  1 -1</clus>
</clustering>
</event>
<event>
 9    1  0.7586638E-005  0.1064021E+03  0.7546771E-02  0.1273198E+00
         21   -1    0    0  501  502  0.00000000000E+00  0.00000000000E+00  0.20810397634E+03  0.20810397634E+03  0.00000000000E+00 0. -1.
          1   -1    0    0  502    0 -0.00000000000E+00 -0.00000000000E+00 -0.14610448716E+03  0.14610448716E+03  0.00000000000E+00 0. -1.
         23    2    1    2    0    0 -0.49248621137E+02 -0.62873902799E+01 -0.85410575557E+02  0.13432074279E+03  0.91006250154E+02 0.  0.
        -24    2    1    2    0    0  0.85904442225E+02 -0.20677668668E+02  0.10212436281E+03  0.15568835605E+03  0.77474767213E+02 0.  0.
         13    1    4    4    0    0  0.19988160232E+02 -0.12969116335E+02 -0.96415319654E+01  0.25703767556E+02  0.00000000000E+00 0. -1.
        -14    1    4    4    0    0  0.65916281994E+02 -0.77085523324E+01  0.11176589478E+03  0.12998458849E+03  0.00000000000E+00 0.  1.
        -11    1    3    3    0    0 -0.28792722886E+02  0.26438804500E+02 -0.87330221841E+02  0.95679668276E+02  0.00000000000E+00 0. -1.
         11    1    3    3    0    0 -0.20455898251E+02 -0.32726194780E+02  0.19196462839E+01  0.38641074518E+02  0.00000000000E+00 0.  1.
          2    1    1    2  501    0 -0.36655821088E+02  0.26965058947E+02  0.45285701920E+02  0.64199364655E+02  0.00000000000E+00 0. -1.
<scales pt_clust_5="13000.00000" pt_clust_6="13000.00000" pt_clust_7="13000.00000" pt_clust_8="13000.00000" pt_clust_9="45.50564"></scales>
<clustering>
<clus scale="   45.506">  1  9  2 -1</clus>
<clus scale="   77.475">  5  6 -1 -1</clus>
<clus scale="   91.006">  7  8 -1 -1</clus>
<clus scale="   95.087">  1  5  2 -1</clus>
<clus scale="   45.506">  1  5  2 -1</clus>
</clustering>
</event>
<event>
 9    1  0.7586638E-005  0.2120606E+03  0.7546771E-02  0.1140769E+00
         21   -1    0    0  501  502  0.00000000000E+00  0.00000000000E+00  0.91317143183E+02  0.91317143183E+02  0.00000000000E+00 0. -1.
          1   -1    0    0  502    0 -0.00000000000E+00 -0.00000000000E+00 -0.58999930099E+03  0.58999930099E+03  0.00000000000E+00 0. -1.
         23    2    1    2    0    0  0.77122106934E+02 -0.19054121022E+03 -0.33834359563E+03  0.40613354750E+03  0.90632761923E+02 0.  0.
        -24    2    1    2    0    0 -0.62191928732E+02  0.15994643760E+03 -0.13299058887E+03  0.23151526591E+03  0.80387329349E+02 0.  0.
         13    1    4    4    0    0 -0.17510979186E+02  0.34226918966E+02 -0.78470317760E+02  0.87382533400E+02  0.00000000000E+00 0. -1.
        -14    1    4    4    0    0 -0.44680949547E+02  0.12571951864E+03 -0.54520271106E+02  0.14413273251E+03  0.00000000000E+00 0.  1.
        -13    1    3    3    0    0  0.56816400229E+02 -0.19545061490E+03 -0.31180005127E+03  0.37235509688E+03  0.00000000000E+00 0. -1.
         13    1    3    3    0    0  0.20305706705E+02  0.49094046869E+01 -0.26543544366E+02  0.33778450626E+02  0.00000000000E+00 0.  1.
          2    1    1    2  501    0 -0.14930178201E+02  0.30594772615E+02 -0.27347973310E+02  0.43667630765E+02  0.00000000000E+00 0. -1.
<scales pt_clust_5="13000.00000" pt_clust_6="13000.00000" pt_clust_7="13000.00000" pt_clust_8="13000.00000" pt_clust_9="34.04336"></scales>
<clustering>
<clus scale="   34.043">  1  9  2 -1</clus>
<clus scale="   80.387">  5  6 -1 -1</clus>
<clus scale="   90.633">  7  8 -1 -1</clus>
<clus scale="  207.888">  1  5  2 -1</clus>
<clus scale="   34.043">  1  5  2 -1</clus>
</clustering>
</event>
<event>
 9    1  0.7586638E-005  0.1649192E+03  0.7546771E-02  0.1184545E+00
          1   -1    0    0  502    0 -0.00000000000E+00  0.00000000000E+00  0.92091124940E+03  0.92091124940E+03  0.00000000000E+00 0. -1.
         21   -1    0    0  501  502  0.00000000000E+00 -0.00000000000E+00 -0.11477998143E+03  0.11477998143E+03  0.00000000000E+00 0.  1.
        -24    2    1    2    0    0 -0.79079134584E+02  0.12524803708E+03  0.63721946457E+03  0.65909559072E+03  0.80110994029E+02 0.  0.
         23    2    1    2    0    0  0.80491026782E+02 -0.18964663825E+02 -0.51387957588E+02  0.13199365001E+03  0.89124281715E+02 0.  0.
         11    1    3    3    0    0  0.43162845131E+01  0.65843428009E+02  0.25524918748E+03  0.26364016203E+03  0.00000000000E+00 0. -1.
        -12    1    3    3    0    0 -0.83395419097E+02  0.59404609068E+02  0.38197027708E+03  0.39545542869E+03  0.00000000000E+00 0.  1.
        -13    1    4    4    0    0 -0.13837809566E+02 -0.20893606231E+02 -0.21514042873E+02  0.33028499749E+02  0.00000000000E+00 0. -1.
         13    1    4    4    0    0  0.94328836349E+02  0.19289424057E+01 -0.29873914715E+02  0.98965150261E+02  0.00000000000E+00 0.  1.
          2    1    1    2  501    0 -0.14118921983E+01 -0.10628337325E+03  0.22029976099E+03  0.24460199010E+03  0.00000000000E+00 0. -1.
<scales pt_clust_5="13000.00000" pt_clust_6="13000.00000" pt_clust_7="13000.00000" pt_clust_8="13000.00000" pt_clust_9="106.29280"></scales>
<clustering>
<clus scale="   80.111">  5  6 -1 -1</clus>
<clus scale="   89.124">  7  8 -1 -1</clus>
<clus scale="  106.293">  2  9  1 -1</clus>
<clus scale="  160.228">  1  5  2 -1</clus>
<clus scale="  106.293">  2  5  1 -1</clus>
</clustering>
</event>
<event>
 9    1  0.7586638E-005  0.1156754E+03  0.7546771E-02  0.1253745E+00
         21   -1    0    0  501  502  0.00000000000E+00  0.00000000000E+00  0.21775495908E+03  0.21775495908E+03  0.00000000000E+00 0. -1.
         -2   -1    0    0    0  501 -0.00000000000E+00 -0.00000000000E+00 -0.10400885581E+03  0.10400885581E+03  0.00000000000E+00 0.  1.
         23    2    1    2    0    0  0.58310802810E+02 -0.31517577773E+02  0.30510702188E+02  0.11622421320E+03  0.90463569200E+02 0.  0.
        -24    2    1    2    0    0 -0.66291797929E+02  0.51530821500E+02  0.11725025329E+03  0.16527502200E+03  0.80735264687E+02 0.  0.
         11    1    4    4    0    0 -0.41254149376E+02 -0.35372374347E+01  0.89717752587E+02  0.98811396198E+02  0.00000000000E+00 0. -1.
        -12    1    4    4    0    0 -0.25037648552E+02  0.55068058935E+02  0.27532500699E+02  0.66463625801E+02  0.00000000000E+00 0.  1.
        -11    1    3    3    0    0  0.56868913071E+01 -0.46361025053E+02 -0.10502212612E+02  0.47874647220E+02  0.00000000000E+00 0.  1.
         11    1    3    3    0    0  0.52623911503E+02  0.14843447280E+02  0.41012914800E+02  0.68349565978E+02  0.00000000000E+00 0. -1.
         -1    1    1    2    0  502  0.79809951185E+01 -0.20013243727E+02 -0.34014852201E+02  0.40264579692E+02  0.00000000000E+00 0.  1.
<scales pt_clust_5="13000.00000" pt_clust_6="13000.00000" pt_clust_7="13000.00000" pt_clust_8="13000.00000" pt_clust_9="21.54592"></scales>
<clustering>
<clus scale="   21.546">  1  9  2 -1</clus>
<clus scale="   80.735">  5  6 -1 -1</clus>
<clus scale="   90.464">  7  8 -1 -1</clus>
<clus scale="  108.237">  1  5  2 -1</clus>
<clus scale="   21.546">  1  5  2 -1</clus>
</clustering>
</event>
<event>
 9    1  0.7586638E-005  0.2393851E+03  0.7546771E-02  0.1165548E+00
          1   -1    0    0  502    0 -0.00000000000E+00  0.00000000000E+00  0.57586206370E+03  0.57586206370E+03  0.00000000000E+00 0. -1.
         21   -1    0    0  501  502  0.00000000000E+00 -0.00000000000E+00 -0.49580911820E+03  0.49580911820E+03  0.00000000000E+00 0.  1.
        -24    2    1    2    0    0  0.32562995374E+01 -0.26959222139E+02 -0.17662904005E+03  0.19414920772E+03  0.75886058817E+02 0.  0.
         23    2    1    2    0    0 -0.20881258901E+03 -0.76513656305E+02 -0.23473014409E+03  0.33489327436E+03  0.87167813649E+02 0.  0.
         13    1    3    3    0    0  0.32234046324E+01  0.26579757358E+02 -0.66783249151E+02  0.71950512200E+02  0.00000000000E+00 0. -1.
        -14    1    3    3    0    0  0.32894904946E-01 -0.53538979497E+02 -0.10984579090E+03  0.12219869552E+03  0.00000000000E+00 0.  1.
        -11    1    4    4    0    0 -0.52984657971E+02 -0.56801819487E+02 -0.49839762833E+02  0.92292050777E+02  0.00000000000E+00 0. -1.
         11    1    4    4    0    0 -0.15582793104E+03 -0.19711836818E+02 -0.18489038126E+03  0.24260122358E+03  0.00000000000E+00 0.  1.
          2    1    1    2  501    0  0.20555628947E+03  0.10347287844E+03  0.49141212964E+03  0.54262869983E+03  0.00000000000E+00 0. -1.
<scales pt_clust_5="13000.00000" pt_clust_6="13000.00000" pt_clust_7="13000.00000" pt_clust_8="13000.00000" pt_clust_9="222.95082"></scales>
<clustering>
<clus scale="   75.886">  5  6 -1 -1</clus>
<clus scale="   80.598">  1  5  2 -1</clus>
<clus scale="   87.168">  7  8 -1 -1</clus>
<clus scale="  222.951">  2  9  1 -1</clus>
<clus scale="  222.951">  2  5  1 -1</clus>
</clustering>
</event>
<event>
 9    1  0.7586638E-005  0.9403972E+02  0.7546771E-02  0.1301012E+00
          1   -1    0    0  502    0 -0.00000000000E+00  0.00000000000E+00  0.47249508924E+03  0.47249508924E+03  0.00000000000E+00 0. -1.
         21   -1    0    0  501  502  0.00000000000E+00 -0.00000000000E+00 -0.88633968816E+02  0.88633968816E+02  0.00000000000E+00 0. -1.
        -24    2    1    2    0    0 -0.11370177171E+02  0.15582609767E+02  0.41808461674E+03  0.42606247953E+03  0.79764597727E+02 0.  0.
         23    2    1    2    0    0  0.24442392993E+01  0.19440467499E+02 -0.23795652592E+02  0.97449717503E+02  0.92446245336E+02 0.  0.
         11    1    3    3    0    0  0.31819361055E+02 -0.31722939392E+01  0.11585622284E+03  0.12018818394E+03  0.00000000000E+00 0. -1.
        -12    1    3    3    0    0 -0.43189538225E+02  0.18754903706E+02  0.30222839390E+03  0.30587429559E+03  0.00000000000E+00 0.  1.
        -11    1    4    4    0    0 -0.16727653912E+02 -0.33444057898E+02 -0.15946563462E+02  0.40652334500E+02  0.00000000000E+00 0.  1.
         11    1    4    4    0    0  0.19171893211E+02  0.52884525397E+02 -0.78490891305E+01  0.56797383002E+02  0.00000000000E+00 0. -1.
          2    1    1    2  501    0  0.89259378713E+01 -0.35023077265E+02 -0.10427843731E+02  0.37616861019E+02  0.00000000000E+00 0. -1.
<scales pt_clust_5="13000.00000" pt_clust_6="13000.00000" pt_clust_7="13000.00000" pt_clust_8="13000.00000" pt_clust_9="36.14261"></scales>
<clustering>
<clus scale="   36.143">  2  9  1 -1</clus>
<clus scale="   79.765">  5  6 -1 -1</clus>
<clus scale="   81.606">  1  5  2 -1</clus>
<clus scale="   92.446">  7  8 -1 -1</clus>
<clus scale="   36.143">  2  5  1 -1</clus>
</clustering>
</event>
<event>
 9    1  0.7586638E-005  0.1091216E+03  0.7546771E-02  0.1266654E+00
         21   -1    0    0  501  502  0.00000000000E+00  0.00000000000E+00  0.43208419369E+02  0.43208419369E+02  0.00000000000E+00 0.  1.
          1   -1    0    0  502    0 -0.00000000000E+00 -0.00000000000E+00 -0.49512511505E+03  0.49512511505E+03  0.00000000000E+00 0. -1.
        -24    2    1    2    0    0  0.52919962482E+02 -0.30838052863E+02 -0.36917369158E+03  0.38256467088E+03  0.79467005220E+02 0.  0.
         23    2    1    2    0    0 -0.39164942724E+02  0.47805830080E+02 -0.64074546173E+02  0.12703530557E+03  0.90626327662E+02 0.  0.
         11    1    3    3    0    0  0.31840094682E+02 -0.57869167820E+02 -0.24165670824E+03  0.25052065155E+03  0.00000000000E+00 0. -1.
        -12    1    3    3    0    0  0.21079867800E+02  0.27031114957E+02 -0.12751698333E+03  0.13204401933E+03  0.00000000000E+00 0.  1.
        -13    1    4    4    0    0 -0.17366035391E+02  0.71321957332E+02 -0.27482594170E+02  0.78381718310E+02  0.00000000000E+00 0.  1.
         13    1    4    4    0    0 -0.21798907333E+02 -0.23516127252E+02 -0.36591952003E+02  0.48653587259E+02  0.00000000000E+00 0. -1.
          2    1    1    2  501    0 -0.13755019758E+02 -0.16967777217E+02 -0.18668457936E+02  0.28733557976E+02  0.00000000000E+00 0. -1.
<scales pt_clust_5="13000.00000" pt_clust_6="13000.00000" pt_clust_7="13000.00000" pt_clust_8="13000.00000" pt_clust_9="21.84276"></scales>
<clustering>
<clus scale="   21.843">  1  9  2 -1</clus>
<clus scale="   79.467">  5  6 -1 -1</clus>
<clus scale="   90.626">  7  8 -1 -1</clus>
<clus scale="  100.047">  2  5  1 -1</clus>
<clus scale="   21.843">  1  5  2 -1</clus>
</clustering>
</event>
<event>
 9    1  0.7586638E-005  0.8915242E+02  0.7546771E-02  0.1313289E+00
         21   -1    0    0  501  502  0.00000000000E+00  0.00000000000E+00  0.20592487161E+03  0.20592487161E+03  0.00000000000E+00 0. -1.
         -4   -1    0    0    0  501 -0.00000000000E+00 -0.00000000000E+00 -0.68029992542E+02  0.68029992542E+02  0.00000000000E+00 0.  1.
        -24    2    1    2    0    0 -0.74044808792E+01 -0.29188472733E+01 -0.13120206788E+02  0.77857492218E+02  0.76330225087E+02 0.  0.
         23    2    1    2    0    0 -0.69439031332E+00 -0.20009469324E+02  0.80917952556E+02  0.12190230799E+03  0.88947156263E+02 0.  0.
         11    1    3    3    0    0  0.34403816301E+02  0.12676715644E+01 -0.24947805574E+01  0.34517437584E+02  0.00000000000E+00 0. -1.
        -12    1    3    3    0    0 -0.41808297181E+02 -0.41865188377E+01 -0.10625426231E+02  0.43340054634E+02  0.00000000000E+00 0.  1.
        -13    1    4    4    0    0 -0.27925905956E+02 -0.23475255581E+02  0.28878330509E-01  0.36482114549E+02  0.00000000000E+00 0.  1.
         13    1    4    4    0    0  0.27231515642E+02  0.34657862571E+01  0.80889074225E+02  0.85420193442E+02  0.00000000000E+00 0. -1.
         -3    1    1    2    0  502  0.80988711925E+01  0.22928316597E+02  0.70097133303E+02  0.74195063945E+02  0.00000000000E+00 0.  1.
<scales pt_clust_5="13000.00000" pt_clust_6="13000.00000" pt_clust_7="13000.00000" pt_clust_8="13000.00000" pt_clust_9="24.31665"></scales>
<clustering>
<clus scale="   24.317">  1  9  2 -1</clus>
<clus scale="   76.330">  5  6 -1 -1</clus>
<clus scale="   76.569">  2  5  1 -1</clus>
<clus scale="   88.947">  7  8 -1 -1</clus>
<clus scale="   24.317">  1  5  2 -1</clus>
</clustering>
</event>
<event>
 9    1  0.7586638E-005  0.6317719E+03  0.7546771E-02  0.1053165E+00
          1   -1    0    0  502    0 -0.00000000000E+00  0.00000000000E+00  0.82594991353E+03  0.82594991353E+03  0.00000000000E+00 0. -1.
         21   -1    0    0  501  502  0.00000000000E+00 -0.00000000000E+00 -0.58098649895E+03  0.58098649895E+03  0.00000000000E+00 0. -1.
         23    2    1    2    0    0 -0.15637881536E+02 -0.10661054397E+02  0.91322081513E+02  0.11984495261E+03  0.75265454724E+02 0.  0.
        -24    2    1    2    0    0 -0.45178305632E+03 -0.41795563522E+03  0.19721358667E+03  0.65140825178E+03  0.81514837546E+02 0.  0.
         11    1    4    4    0    0 -0.39166409021E+03 -0.39238231913E+03  0.16420538173E+03  0.57821107851E+03  0.00000000000E+00 0. -1.
        -12    1    4    4    0    0 -0.60118966110E+02 -0.25573316087E+02  0.33008204939E+02  0.73197173272E+02  0.00000000000E+00 0.  1.
        -11    1    3    3    0    0  0.72909758637E+01 -0.39572177342E+02  0.54196693397E+02  0.67501089798E+02  0.00000000000E+00 0.  1.
         11    1    3    3    0    0 -0.22928857400E+02  0.28911122945E+02  0.37125388116E+02  0.52343862815E+02  0.00000000000E+00 0. -1.
          2    1    1    2  501    0  0.46742093785E+03  0.42861668961E+03 -0.43572253604E+02  0.63568320809E+03  0.00000000000E+00 0. -1.
<scales pt_clust_5="13000.00000" pt_clust_6="13000.00000" pt_clust_7="13000.00000" pt_clust_8="13000.00000" pt_clust_9="626.49108"></scales>
<clustering>
<clus scale="   75.265">  7  8 -1 -1</clus>
<clus scale="   77.609">  1  7  2 -1</clus>
<clus scale="   81.515">  5  6 -1 -1</clus>
<clus scale="  626.491">  2  9  1 -1</clus>
<clus scale="  626.491">  2  5  1 -1</clus>
</clustering>
</event>
<event>
 9    1  0.7586638E-005  0.1006733E+03  0.7546771E-02  0.1282718E+00
          3   -1    0    0  502    0 -0.00000000000E+00  0.00000000000E+00  0.60674636463E+02  0.60674636463E+02  0.00000000000E+00 0. -1.
         21   -1    0    0  501  502  0.00000000000E+00 -0.00000000000E+00 -0.38041493634E+03  0.38041493634E+03  0.00000000000E+00 0. -1.
         23    2    1    2    0    0  0.28854763621E+02 -0.28299090775E+02 -0.24477284502E+02  0.10127285277E+03  0.89574646692E+02 0.  0.
        -24    2    1    2    0    0 -0.59903757924E+01  0.78149347645E+02 -0.20756802272E+03  0.23638442296E+03  0.81546957160E+02 0.  0.
         13    1    4    4    0    0 -0.23744710990E+02  0.83252638697E+02 -0.12682988008E+03  0.15355986334E+03  0.00000000000E+00 0. -1.
        -14    1    4    4    0    0  0.17754335197E+02 -0.51032910516E+01 -0.80738142643E+02  0.82824559615E+02  0.00000000000E+00 0.  1.
        -11    1    3    3    0    0 -0.14434904171E+02 -0.46172662652E+02 -0.24959858301E+02  0.54435978555E+02  0.00000000000E+00 0.  1.
         11    1    3    3    0    0  0.43289667792E+02  0.17873571877E+02  0.48257379904E+00  0.46836874219E+02  0.00000000000E+00 0. -1.
          4    1    1    2  501    0 -0.22864387828E+02 -0.49850256870E+02 -0.87694992657E+02  0.10343229707E+03  0.00000000000E+00 0. -1.
<scales pt_clust_5="13000.00000" pt_clust_6="13000.00000" pt_clust_7="13000.00000" pt_clust_8="13000.00000" pt_clust_9="54.84367"></scales>
<clustering>
<clus scale="   54.844">  2  9  1 -1</clus>
<clus scale="   81.547">  5  6 -1 -1</clus>
<clus scale="   89.575">  7  8 -1 -1</clus>
<clus scale="   93.602">  2  5  1 -1</clus>
<clus scale="   54.844">  2  5  1 -1</clus>
</clustering>
</event>
<event>
 9    1  0.7586638E-005  0.1143698E+03  0.7546771E-02  0.1255722E+00
         21   -1    0    0  501  502  0.00000000000E+00  0.00000000000E+00  0.17533658096E+03  0.17533658096E+03  0.00000000000E+00 0. -1.
          1   -1    0    0  502    0 -0.00000000000E+00 -0.00000000000E+00 -0.60165749524E+03  0.60165749524E+03  0.00000000000E+00 0. -1.
        -24    2    1    2    0    0 -0.44586958912E+02 -0.51211488304E+02 -0.53666827020E+03  0.54716562607E+03  0.82260419861E+02 0.  0.
         23    2    1    2    0    0  0.60265568361E+02  0.67975080090E+02  0.12216553975E+02  0.12904903213E+03  0.90839739427E+02 0.  0.
         11    1    3    3    0    0 -0.54412693687E+02 -0.54935961277E+02 -0.28572634803E+03  0.29600379565E+03  0.00000000000E+00 0. -1.
        -12    1    3    3    0    0  0.98257347747E+01  0.37244729725E+01 -0.25094192216E+03  0.25116183043E+03  0.00000000000E+00 0.  1.
        -13    1    4    4    0    0  0.49390836385E+02  0.31374532868E+02 -0.35111442731E+02  0.68239500600E+02  0.00000000000E+00 0. -1.
         13    1    4    4    0    0  0.10874731976E+02  0.36600547222E+02  0.47327996706E+02  0.60809531528E+02  0.00000000000E+00 0.  1.
          2    1    1    2  501    0 -0.15678609449E+02 -0.16763591785E+02  0.98130801943E+02  0.10077941801E+03  0.00000000000E+00 0. -1.
<scales pt_clust_5="13000.00000" pt_clust_6="13000.00000" pt_clust_7="13000.00000" pt_clust_8="13000.00000" pt_clust_9="22.95293"></scales>
<clustering>
<clus scale="   22.953">  1  9  2 -1</clus>
<clus scale="   82.260">  5  6 -1 -1</clus>
<clus scale="   90.840">  7  8 -1 -1</clus>
<clus scale="  107.682">  2  5  1 -1</clus>
<clus scale="   22.953">  1  5  2 -1</clus>
</clustering>
</event>
<event>
 9    1  0.7586638E-005  0.9558885E+02  0.7546771E-02  0.1296514E+00
         21   -1    0    0  501  502  0.00000000000E+00  0.00000000000E+00  0.17966969311E+03  0.17966969311E+03  0.00000000000E+00 0. -1.
          1   -1    0    0  502    0 -0.00000000000E+00 -0.00000000000E+00 -0.15680179460E+03  0.15680179460E+03  0.00000000000E+00 0. -1.
         23    2    1    2    0    0  0.11153072028E+02  0.21368970057E+02 -0.94417803396E+02  0.13406088400E+03  0.92068317695E+02 0.  0.
        -24    2    1    2    0    0 -0.49728189241E+02 -0.12344532066E+02  0.12961894429E+03  0.16091856813E+03  0.80426578775E+02 0.  0.
         11    1    4    4    0    0 -0.58516271132E+02 -0.29578622111E+02  0.60751749610E+02  0.89385815172E+02  0.00000000000E+00 0. -1.
        -12    1    4    4    0    0  0.87880818908E+01  0.17234090045E+02  0.68867194676E+02  0.71532752957E+02  0.00000000000E+00 0.  1.
        -11    1    3    3    0    0  0.17225804854E+02  0.56726792242E+02 -0.57816243986E+02  0.82809271097E+02  0.00000000000E+00 0. -1.
         11    1    3    3    0    0 -0.60727328263E+01 -0.35357822185E+02 -0.36601559410E+02  0.51251612901E+02  0.00000000000E+00 0.  1.
          2    1    1    2  501    0  0.38575117214E+02 -0.90244379906E+01 -0.12333242388E+02  0.41492035584E+02  0.00000000000E+00 0. -1.
<scales pt_clust_5="13000.00000" pt_clust_6="13000.00000" pt_clust_7="13000.00000" pt_clust_8="13000.00000" pt_clust_9="39.61668"></scales>
<clustering>
<clus scale="   39.617">  1  9  2 -1</clus>
<clus scale="   80.427">  5  6 -1 -1</clus>
<clus scale="   84.434">  1  5  2 -1</clus>
<clus scale="   92.068">  7  8 -1 -1</clus>
<clus scale="   39.617">  1  5  2 -1</clus>
</clustering>
</event>
<event>
 9    1  0.7586638E-005  0.1220537E+03  0.7546771E-02  0.1243381E+00
         21   -1    0    0  501  502  0.00000000000E+00  0.00000000000E+00  0.72120248864E+02  0.72120248864E+02  0.00000000000E+00 0.  1.
         -4   -1    0    0    0  501 -0.00000000000E+00 -0.00000000000E+00 -0.37690731678E+03  0.37690731678E+03  0.00000000000E+00 0.  1.
         23    2    1    2    0    0  0.39074239157E+02 -0.87870504325E+02 -0.22184361108E+03  0.25874332218E+03  0.92116759046E+02 0.  0.
        -24    2    1    2    0    0  0.76357751860E+01  0.65174976442E+02 -0.90717701963E+02  0.13777375582E+03  0.80285887461E+02 0.  0.
         13    1    4    4    0    0 -0.19370219480E+02  0.52308046834E+02 -0.92269145709E+02  0.10781897985E+03  0.00000000000E+00 0. -1.
        -14    1    4    4    0    0  0.27005994666E+02  0.12866929608E+02  0.15514437459E+01  0.29954775965E+02  0.00000000000E+00 0.  1.
        -11    1    3    3    0    0 -0.16169881697E+02 -0.38338694787E+02 -0.25387692549E+02  0.48742748436E+02  0.00000000000E+00 0. -1.
         11    1    3    3    0    0  0.55244120854E+02 -0.49531809538E+02 -0.19645591853E+03  0.21000057374E+03  0.00000000000E+00 0.  1.
         -3    1    1    2    0  502 -0.46710014343E+02  0.22695527883E+02  0.77742451303E+01  0.52510487649E+02  0.00000000000E+00 0.  1.
<scales pt_clust_5="13000.00000" pt_clust_6="13000.00000" pt_clust_7="13000.00000" pt_clust_8="13000.00000" pt_clust_9="51.93181"></scales>
<clustering>
<clus scale="   51.932">  1  9  2 -1</clus>
<clus scale="   80.286">  5  6 -1 -1</clus>
<clus scale="   92.117">  7  8 -1 -1</clus>
<clus scale="  113.391">  1  5  2 -1</clus>
<clus scale="   51.932">  1  5  2 -1</clus>
</clustering>
</event>
<event>
 9    1  0.7586638E-005  0.9784047E+02  0.7546771E-02  0.1290694E+00
         21   -1    0    0  501  502  0.00000000000E+00  0.00000000000E+00  0.74850255343E+02  0.74850255343E+02  0.00000000000E+00 0.  1.
          1   -1    0    0  502    0 -0.00000000000E+00 -0.00000000000E+00 -0.20212541730E+03  0.20212541730E+03  0.00000000000E+00 0. -1.
        -24    2    1    2    0    0  0.38601199951E+02 -0.47971519927E+01 -0.79497991841E+02  0.11956604197E+03  0.80393049329E+02 0.  0.
         23    2    1    2    0    0 -0.25960610403E+02 -0.24443157012E+02  0.23192779379E+01  0.98042684632E+02  0.91299330460E+02 0.  0.
         13    1    3    3    0    0 -0.18337166310E+02 -0.23046220841E+02 -0.24087921242E+02  0.38047442925E+02  0.00000000000E+00 0. -1.
        -14    1    3    3    0    0  0.56938366261E+02  0.18249068849E+02 -0.55410070599E+02  0.81518599044E+02  0.00000000000E+00 0.  1.
        -11    1    4    4    0    0  0.34302940956E+02 -0.11519670103E+02 -0.21331572630E+01  0.36248378135E+02  0.00000000000E+00 0.  1.
         11    1    4    4    0    0 -0.60263551359E+02 -0.12923486909E+02  0.44524352009E+01  0.61794306497E+02  0.00000000000E+00 0. -1.
          2    1    1    2  501    0 -0.12640589548E+02  0.29240309005E+02 -0.50096448049E+02  0.59366946038E+02  0.00000000000E+00 0. -1.
<scales pt_clust_5="13000.00000" pt_clust_6="13000.00000" pt_clust_7="13000.00000" pt_clust_8="13000.00000" pt_clust_9="31.85563"></scales>
<clustering>
<clus scale="   31.856">  1  9  2 -1</clus>
<clus scale="   80.393">  5  6 -1 -1</clus>
<clus scale="   87.751">  2  5  1 -1</clus>
<clus scale="   91.299">  7  8 -1 -1</clus>
<clus scale="   31.856">  1  5  2 -1</clus>
</clustering>
</event>
<event>
 9    1  0.7586638E-005  0.8968498E+02  0.7546771E-02  0.1308483E+00
         21   -1    0    0  501  502  0.00000000000E+00  0.00000000000E+00  0.29423313611E+03  0.29423313611E+03  0.00000000000E+00 0.  1.
         -4   -1    0    0    0  501 -0.00000000000E+00 -0.00000000000E+00 -0.70907424449E+02  0.70907424449E+02  0.00000000000E+00 0.  1.
        -24    2    1    2    0    0 -0.30230112688E+02 -0.24240384584E+02  0.69727383012E+02  0.11344487166E+03  0.80662103911E+02 0.  0.
         23    2    1    2    0    0 -0.11656002640E+02 -0.39059930636E+02  0.14590601989E+03  0.17540317171E+03  0.88409080008E+02 0.  0.
         11    1    3    3    0    0  0.25599545153E+02 -0.11584960282E+02  0.40159887161E+02  0.49013922038E+02  0.00000000000E+00 0. -1.
        -12    1    3    3    0    0 -0.55829657841E+02 -0.12655424303E+02  0.29567495851E+02  0.64430949627E+02  0.00000000000E+00 0.  1.
        -11    1    4    4    0    0 -0.22371677855E+02  0.17527347503E+02  0.14446132765E+02  0.31880881926E+02  0.00000000000E+00 0. -1.
         11    1    4    4    0    0  0.10715675216E+02 -0.56587278138E+02  0.13145988713E+03  0.14352228979E+03  0.00000000000E+00 0.  1.
         -3    1    1    2    0  502  0.41886115328E+02  0.63300315220E+02  0.76923087596E+01  0.76292517184E+02  0.00000000000E+00 0.  1.
<scales pt_clust_5="13000.00000" pt_clust_6="13000.00000" pt_clust_7="13000.00000" pt_clust_8="13000.00000" pt_clust_9="75.90377"></scales>
<clustering>
<clus scale="   75.904">  1  9  2 -1</clus>
<clus scale="   80.662">  5  6 -1 -1</clus>
<clus scale="   82.059">  2  5  1 -1</clus>
<clus scale="   88.409">  7  8 -1 -1</clus>
<clus scale="   75.904">  1  5  2 -1</clus>
</clustering>
</event>
<event>
 9    1  0.7586638E-005  0.9527707E+02  0.7546771E-02  0.1295222E+00
          1   -1    0    0  502    0 -0.00000000000E+00  0.00000000000E+00  0.12953058595E+04  0.12953058595E+04  0.00000000000E+00 0. -1.
         21   -1    0    0  501  502  0.00000000000E+00 -0.00000000000E+00 -0.24646006036E+02  0.24646006036E+02  0.00000000000E+00 0. -1.
        -24    2    1    2    0    0 -0.90480303527E+01  0.23780995915E+02  0.10520338086E+04  0.10557068138E+04  0.84227902771E+02 0.  0.
         23    2    1    2    0    0 -0.21496748039E+02 -0.16191991962E+02  0.21090245921E+03  0.23183779571E+03  0.92437143180E+02 0.  0.
         13    1    3    3    0    0 -0.26367537310E+02  0.19610644235E+01  0.10548797631E+03  0.10875111927E+03  0.00000000000E+00 0. -1.
        -14    1    3    3    0    0  0.17319506958E+02  0.21819931492E+02  0.94654583227E+03  0.94695569449E+03  0.00000000000E+00 0.  1.
        -11    1    4    4    0    0  0.16895437985E+02 -0.42731211520E+02  0.13631769102E+03  0.14385383258E+03  0.00000000000E+00 0.  1.
         11    1    4    4    0    0 -0.38392186024E+02  0.26539219558E+02  0.74584768191E+02  0.87983963132E+02  0.00000000000E+00 0. -1.
          2    1    1    2  501    0  0.30544778391E+02 -0.75890039531E+01  0.77235856340E+01  0.32407256024E+02  0.00000000000E+00 0. -1.
<scales pt_clust_5="13000.00000" pt_clust_6="13000.00000" pt_clust_7="13000.00000" pt_clust_8="13000.00000" pt_clust_9="31.47342"></scales>
<clustering>
<clus scale="   31.473">  2  9  1 -1</clus>
<clus scale="   84.228">  5  6 -1 -1</clus>
<clus scale="   87.335">  1  5  2 -1</clus>
<clus scale="   92.437">  7  8 -1 -1</clus>
<clus scale="   31.473">  2  5  1 -1</clus>
</clustering>
</event>
<event>
 9    1  0.7586638E-005  0.1396665E+03  0.7546771E-02  0.1236748E+00
         21   -1    0    0  501  502  0.00000000000E+00  0.00000000000E+00  0.43206714481E+03  0.43206714481E+03  0.00000000000E+00 0. -1.
          1   -1    0    0  502    0 -0.00000000000E+00 -0.00000000000E+00 -0.25134128207E+03  0.25134128207E+03  0.00000000000E+00 0. -1.
        -24    2    1    2    0    0  0.25215828039E+02  0.22962158305E+02 -0.12172578690E+03  0.14938080719E+03  0.79588690549E+02 0.  0.
         23    2    1    2    0    0  0.46341217920E+02 -0.10098543115E+03 -0.60546369101E+02  0.15590647040E+03  0.91079080580E+02 0.  0.
         11    1    3    3    0    0  0.44925562861E+02  0.39202718676E+02 -0.96828774272E+02  0.11371442686E+03  0.00000000000E+00 0. -1.
        -12    1    3    3    0    0 -0.19709734822E+02 -0.16240560371E+02 -0.24897012627E+02  0.35666380328E+02  0.00000000000E+00 0.  1.
        -13    1    4    4    0    0  0.60353356947E+02 -0.47806510636E+02 -0.41044899383E+01  0.77102769027E+02  0.00000000000E+00 0. -1.
         13    1    4    4    0    0 -0.14012139027E+02 -0.53178920514E+02 -0.56441879163E+02  0.78803701376E+02  0.00000000000E+00 0.  1.
          2    1    1    2  501    0 -0.71557045959E+02  0.78023272845E+02  0.36299801874E+03  0.37812114929E+03  0.00000000000E+00 0. -1.
<scales pt_clust_5="13000.00000" pt_clust_6="13000.00000" pt_clust_7="13000.00000" pt_clust_8="13000.00000" pt_clust_9="105.88358"></scales>
<clustering>
<clus scale="   79.589">  5  6 -1 -1</clus>
<clus scale="   86.588">  2  5  1 -1</clus>
<clus scale="   91.079">  7  8 -1 -1</clus>
<clus scale="  105.884">  1  9  2 -1</clus>
<clus scale="  105.884">  1  5  2 -1</clus>
</clustering>
</event>
<event>
 9    1  0.7586638E-005  0.1423196E+03  0.7546771E-02  0.1235635E+00
          1   -1    0    0  502    0 -0.00000000000E+00  0.00000000000E+00  0.67253625146E+03  0.67253625146E+03  0.00000000000E+00 0. -1.
         21   -1    0    0  501  502  0.00000000000E+00 -0.00000000000E+00 -0.16595673533E+03  0.16595673533E+03  0.00000000000E+00 0.  1.
        -24    2    1    2    0    0  0.10680531641E+02  0.63229107717E+01  0.34461009296E+01  0.83789284969E+02  0.82793210514E+02 0.  0.
         23    2    1    2    0    0  0.10331864594E+03 -0.25290107488E+02 -0.78196939187E+02  0.16199757905E+03  0.93883556520E+02 0.  0.
         11    1    3    3    0    0  0.10680490472E+02 -0.25547131123E+02  0.31066801764E+02  0.41615801773E+02  0.00000000000E+00 0. -1.
        -12    1    3    3    0    0  0.41168702356E-04  0.31870041895E+02 -0.27620700834E+02  0.42173483197E+02  0.00000000000E+00 0.  1.
        -11    1    4    4    0    0  0.80781716146E+02  0.26798776284E+02 -0.47786507179E+02  0.97608454255E+02  0.00000000000E+00 0.  1.
         11    1    4    4    0    0  0.22536929792E+02 -0.52088883771E+02 -0.30410432008E+02  0.64389124795E+02  0.00000000000E+00 0. -1.
          2    1    1    2  501    0 -0.11399917758E+03  0.18967196716E+02  0.58133035439E+03  0.59270612277E+03  0.00000000000E+00 0. -1.
<scales pt_clust_5="13000.00000" pt_clust_6="13000.00000" pt_clust_7="13000.00000" pt_clust_8="13000.00000" pt_clust_9="106.96147"></scales>
<clustering>
<clus scale="   82.793">  5  6 -1 -1</clus>
<clus scale="   83.718">  1  5  2 -1</clus>
<clus scale="   93.884">  7  8 -1 -1</clus>
<clus scale="  106.961">  2  9  1 -1</clus>
<clus scale="  106.961">  2  5  1 -1</clus>
</clustering>
</event>
<event>
 9    1  0.7586638E-005  0.1416889E+03  0.7546771E-02  0.1213532E+00
          1   -1    0    0  502    0 -0.00000000000E+00  0.00000000000E+00  0.64698665444E+03  0.64698665444E+03  0.00000000000E+00 0. -1.
         21   -1    0    0  501  502  0.00000000000E+00 -0.00000000000E+00 -0.63922466732E+02  0.63922466732E+02  0.00000000000E+00 0.  1.
         23    2    1    2    0    0 -0.11915510881E+02 -0.96917943602E+02  0.39900811423E+03  0.42107063781E+03  0.92509132575E+02 0.  0.
        -24    2    1    2    0    0 -0.22536568667E+02  0.14319800469E+03  0.14091936392E+03  0.21779984407E+03  0.81024314113E+02 0.  0.
         11    1    4    4    0    0  0.18745323291E+02  0.37944741363E+02  0.77150369756E+02  0.87996420927E+02  0.00000000000E+00 0. -1.
        -12    1    4    4    0    0 -0.41281891958E+02  0.10525326332E+03  0.63768994160E+02  0.12980342315E+03  0.00000000000E+00 0.  1.
        -13    1    3    3    0    0 -0.40983842468E+02 -0.81526791602E+02  0.20634947581E+03  0.22562446512E+03  0.00000000000E+00 0. -1.
         13    1    3    3    0    0  0.29068331587E+02 -0.15391152000E+02  0.19265863842E+03  0.19544617269E+03  0.00000000000E+00 0.  1.
          2    1    1    2  501    0  0.34452079548E+02 -0.46280061086E+02  0.43136709558E+02  0.72038639291E+02  0.00000000000E+00 0. -1.
<scales pt_clust_5="13000.00000" pt_clust_6="13000.00000" pt_clust_7="13000.00000" pt_clust_8="13000.00000" pt_clust_9="57.69567"></scales>
<clustering>
<clus scale="   57.696">  2  9  1 -1</clus>
<clus scale="   81.024">  5  6 -1 -1</clus>
<clus scale="   92.509">  7  8 -1 -1</clus>
<clus scale="  134.472">  2  5  1 -1</clus>
<clus scale="   57.696">  2  5  1 -1</clus>
</clustering>
</event>
<event>
 9    1  0.7586638E-005  0.1142742E+03  0.7546771E-02  0.1255514E+00
         -2   -1    0    0    0  501 -0.00000000000E+00  0.00000000000E+00  0.34943488963E+02  0.34943488963E+02  0.00000000000E+00 0.  1.
         21   -1    0    0  501  502  0.00000000000E+00 -0.00000000000E+00 -0.97928738394E+03  0.97928738394E+03  0.00000000000E+00 0.  1.
         23    2    1    2    0    0  0.72533426915E+02  0.32911307300E+02 -0.14120118024E+03  0.18660388449E+03  0.92406624424E+02 0.  0.
        -24    2    1    2    0    0  0.69759124378E+01 -0.71608374129E+02 -0.45161516922E+03  0.46514828106E+03  0.85030816220E+02 0.  0.
         11    1    4    4    0    0  0.45415084614E+02 -0.43686995899E+02 -0.28554837955E+03  0.29241915222E+03  0.00000000000E+00 0. -1.
        -12    1    4    4    0    0 -0.38439172176E+02 -0.27921378230E+02 -0.16606678967E+03  0.17272912884E+03  0.00000000000E+00 0.  1.
        -11    1    3    3    0    0  0.66917594895E+02  0.56814383016E+02 -0.73175655919E+02  0.11428261129E+03  0.00000000000E+00 0.  1.
         11    1    3    3    0    0  0.56158320193E+01 -0.23903075716E+02 -0.68025524325E+02  0.72321273203E+02  0.00000000000E+00 0. -1.
         -1    1    1    2    0  502 -0.79509339353E+02  0.38697066829E+02 -0.35152754551E+03  0.36247870735E+03  0.00000000000E+00 0.  1.
<scales pt_clust_5="13000.00000" pt_clust_6="13000.00000" pt_clust_7="13000.00000" pt_clust_8="13000.00000" pt_clust_9="88.42623"></scales>
<clustering>
<clus scale="   85.031">  5  6 -1 -1</clus>
<clus scale="   88.426">  2  9  1 -1</clus>
<clus scale="   92.407">  7  8 -1 -1</clus>
<clus scale="  108.397">  2  5  1 -1</clus>
<clus scale="   88.426">  2  5  1 -1</clus>
</clustering>
</event>
<event>
 9    1  0.7586638E-005  0.9988427E+02  0.7546771E-02  0.1280577E+00
          3   -1    0    0  502    0 -0.00000000000E+00  0.00000000000E+00  0.17172335149E+03  0.17172335149E+03  0.00000000000E+00 0. -1.
         21   -1    0    0  501  502  0.00000000000E+00 -0.00000000000E+00 -0.11281943826E+03  0.11281943826E+03  0.00000000000E+00 0. -1.
         23    2    1    2    0    0  0.20595583550E+02  0.10374745776E+02  0.64556759789E+02  0.11788523791E+03  0.95903809467E+02 0.  0.
        -24    2    1    2    0    0 -0.46934918572E+02  0.10957425446E+02 -0.43479456207E+02  0.11586705572E+03  0.95977912749E+02 0.  0.
         11    1    4    4    0    0 -0.30090675425E+02  0.48784605115E+02 -0.21437224200E+01  0.57358364600E+02  0.00000000000E+00 0. -1.
        -12    1    4    4    0    0 -0.16844243146E+02 -0.37827179669E+02 -0.41335733787E+02  0.58508691120E+02  0.00000000000E+00 0.  1.
        -13    1    3    3    0    0 -0.71383006534E+01 -0.38412472927E+02  0.42110397255E+02  0.57443528527E+02  0.00000000000E+00 0.  1.
         13    1    3    3    0    0  0.27733884203E+02  0.48787218703E+02  0.22446362533E+02  0.60441709380E+02  0.00000000000E+00 0. -1.
          4    1    1    2  501    0  0.26339335022E+02 -0.21332171222E+02  0.37826609646E+02  0.50790496116E+02  0.00000000000E+00 0. -1.
<scales pt_clust_5="13000.00000" pt_clust_6="13000.00000" pt_clust_7="13000.00000" pt_clust_8="13000.00000" pt_clust_9="33.89430"></scales>
<clustering>
<clus scale="   33.894">  2  9  1 -1</clus>
<clus scale="   95.904">  7  8 -1 -1</clus>
<clus scale="   95.978">  5  6 -1 -1</clus>
<clus scale="   99.813">  1  7  2 -1</clus>
<clus scale="   33.894">  2  5  1 -1</clus>
</clustering>
</event>
<event>
 9    1  0.7586638E-005  0.2315740E+03  0.7546771E-02  0.1126104E+00
         21   -1    0    0  501  502  0.00000000000E+00  0.00000000000E+00  0.11212757091E+03  0.11212757091E+03  0.00000000000E+00 0. -1.
          1   -1    0    0  502    0 -0.00000000000E+00 -0.00000000000E+00 -0.80365119065E+03  0.80365119065E+03  0.00000000000E+00 0. -1.
        -24    2    1    2    0    0 -0.97020006486E+02 -0.20917715539E+03 -0.59156649432E+03  0.64014862662E+03  0.81678534310E+02 0.  0.
         23    2    1    2    0    0  0.78255608456E+02  0.14433785520E+03 -0.58001195534E+02  0.19615348720E+03  0.90303350771E+02 0.  0.
         11    1    3    3    0    0 -0.75946206026E+02 -0.15200206249E+03 -0.51491912605E+03  0.54223072541E+03  0.00000000000E+00 0. -1.
        -12    1    3    3    0    0 -0.21073800460E+02 -0.57175092902E+02 -0.76647368271E+02  0.97917901209E+02  0.00000000000E+00 0.  1.
        -13    1    4    4    0    0  0.20831485313E+02  0.43526758563E+02 -0.63795406670E+02  0.79989895634E+02  0.00000000000E+00 0.  1.
         13    1    4    4    0    0  0.57424123143E+02  0.10081109664E+03  0.57942111359E+01  0.11616359157E+03  0.00000000000E+00 0. -1.
          2    1    1    2  501    0  0.18764398030E+02  0.64839300192E+02 -0.41955929884E+02  0.79476647735E+02  0.00000000000E+00 0. -1.
<scales pt_clust_5="13000.00000" pt_clust_6="13000.00000" pt_clust_7="13000.00000" pt_clust_8="13000.00000" pt_clust_9="67.49991"></scales>
<clustering>
<clus scale="   67.500">  1  9  2 -1</clus>
<clus scale="   81.679">  5  6 -1 -1</clus>
<clus scale="   90.303">  7  8 -1 -1</clus>
<clus scale="  228.349">  2  5  1 -1</clus>
<clus scale="   67.500">  1  5  2 -1</clus>
</clustering>
</event>
<event>
 9    1  0.7586638E-005  0.1353108E+03  0.7546771E-02  0.1229052E+00
         21   -1    0    0  501  502  0.00000000000E+00  0.00000000000E+00  0.94140137207E+02  0.94140137207E+02  0.00000000000E+00 0. -1.
          1   -1    0    0  502    0 -0.00000000000E+00 -0.00000000000E+00 -0.43586127014E+03  0.43586127014E+03  0.00000000000E+00 0. -1.
        -24    2    1    2    0    0  0.44547052392E+02  0.65304584631E+02 -0.18401155071E+03  0.21517578195E+03  0.78684418340E+02 0.  0.
         23    2    1    2    0    0 -0.74306810113E+02  0.58077470448E+02 -0.29658468965E+02  0.13453180326E+03  0.91239721095E+02 0.  0.
         11    1    3    3    0    0  0.54727055606E+02  0.68052246117E+02 -0.18500972137E+03  0.20458434891E+03  0.00000000000E+00 0. -1.
        -12    1    3    3    0    0 -0.10180003215E+02 -0.27476614857E+01  0.99817065838E+00  0.10591433036E+02  0.00000000000E+00 0.  1.
        -13    1    4    4    0    0 -0.77454982500E+02  0.78383395334E+02 -0.20738760037E+02  0.11213084832E+03  0.00000000000E+00 0. -1.
         13    1    4    4    0    0  0.31481723868E+01 -0.20305924886E+02 -0.89197089279E+01  0.22400954940E+02  0.00000000000E+00 0.  1.
          2    1    1    2  501    0  0.29759757722E+02 -0.12338205508E+03 -0.12805111326E+03  0.18029382214E+03  0.00000000000E+00 0. -1.
<scales pt_clust_5="13000.00000" pt_clust_6="13000.00000" pt_clust_7="13000.00000" pt_clust_8="13000.00000" pt_clust_9="99.92167"></scales>
<clustering>
<clus scale="   78.684">  5  6 -1 -1</clus>
<clus scale="   91.240">  7  8 -1 -1</clus>
<clus scale="  111.536">  2  5  1 -1</clus>
<clus scale="   99.922">  1  9  2 -1</clus>
<clus scale="   99.922">  1  5  2 -1</clus>
</clustering>
</event>
<event>
 9    1  0.7586638E-005  0.2170247E+03  0.7546771E-02  0.1136829E+00
         -2   -1    0    0    0  501 -0.00000000000E+00  0.00000000000E+00  0.74155935205E+03  0.74155935205E+03  0.00000000000E+00 0.  1.
         21   -1    0    0  501  502  0.00000000000E+00 -0.00000000000E+00 -0.15433737745E+03  0.15433737745E+03  0.00000000000E+00 0.  1.
        -24    2    1    2    0    0  0.19438126360E+03 -0.26479850974E+02  0.51202597968E+03  0.55424917257E+03  0.80847283697E+02 0.  0.
         23    2    1    2    0    0 -0.20866553580E+03 -0.20028338483E+02 -0.25701064272E+02  0.22963296559E+03  0.90157162831E+02 0.  0.
         11    1    3    3    0    0  0.10540538805E+03 -0.40385580591E+02  0.20188772460E+03  0.23130054971E+03  0.00000000000E+00 0. -1.
        -12    1    3    3    0    0  0.88975875542E+02  0.13905729617E+02  0.31013825508E+03  0.32294862286E+03  0.00000000000E+00 0.  1.
        -13    1    4    4    0    0 -0.30526882646E+02 -0.38321151834E+02 -0.85987118203E+01  0.49742728986E+02  0.00000000000E+00 0. -1.
         13    1    4    4    0    0 -0.17813865315E+03  0.18292813351E+02 -0.17102352452E+02  0.17989023660E+03  0.00000000000E+00 0.  1.
         -1    1    1    2    0  502  0.14284272200E+02  0.46508189457E+02  0.10089705919E+03  0.11201459134E+03  0.00000000000E+00 0.  1.
<scales pt_clust_5="13000.00000" pt_clust_6="13000.00000" pt_clust_7="13000.00000" pt_clust_8="13000.00000" pt_clust_9="48.65238"></scales>
<clustering>
<clus scale="   48.652">  2  9  1 -1</clus>
<clus scale="   80.847">  5  6 -1 -1</clus>
<clus scale="   90.157">  7  8 -1 -1</clus>
<clus scale="  213.325">  1  5  2 -1</clus>
<clus scale="   48.652">  2  5  1 -1</clus>
</clustering>
</event>
<event>
 9    1  0.7586638E-005  0.1014657E+03  0.7546771E-02  0.1283170E+00
         21   -1    0    0  501  502  0.00000000000E+00  0.00000000000E+00  0.77131516588E+02  0.77131516588E+02  0.00000000000E+00 0.  1.
          1   -1    0    0  502    0 -0.00000000000E+00 -0.00000000000E+00 -0.31025607758E+03  0.31025607758E+03  0.00000000000E+00 0. -1.
        -24    2    1    2    0    0 -0.42263184477E+02  0.17823882056E+02 -0.23102036043E+03  0.24862896899E+03  0.79637238490E+02 0.  0.
         23    2    1    2    0    0  0.11908123336E+02 -0.38238622170E+02  0.90105592857E+01  0.10052605742E+03  0.91762205812E+02 0.  0.
         13    1    3    3    0    0 -0.78081475100E+01  0.45378936303E+02 -0.14194201249E+03  0.14922382496E+03  0.00000000000E+00 0. -1.
        -14    1    3    3    0    0 -0.34455036967E+02 -0.27555054247E+02 -0.89078347944E+02  0.99405144029E+02  0.00000000000E+00 0.  1.
        -13    1    4    4    0    0  0.42597221771E+02 -0.26595818424E+02  0.32806545533E+02  0.59984417060E+02  0.00000000000E+00 0.  1.
         13    1    4    4    0    0 -0.30689098434E+02 -0.11642803747E+02 -0.23795986248E+02  0.40541640363E+02  0.00000000000E+00 0. -1.
          2    1    1    2  501    0  0.30355061141E+02  0.20414740114E+02 -0.11114759849E+02  0.38232567757E+02  0.00000000000E+00 0. -1.
<scales pt_clust_5="13000.00000" pt_clust_6="13000.00000" pt_clust_7="13000.00000" pt_clust_8="13000.00000" pt_clust_9="36.58130"></scales>
<clustering>
<clus scale="   36.581">  1  9  2 -1</clus>
<clus scale="   79.637">  5  6 -1 -1</clus>
<clus scale="   90.648">  2  5  1 -1</clus>
<clus scale="   91.762">  7  8 -1 -1</clus>
<clus scale="   36.581">  1  5  2 -1</clus>
</clustering>
</event>
<event>
 9    1  0.7586638E-005  0.9460014E+02  0.7546771E-02  0.1295039E+00
          1   -1    0    0  502    0 -0.00000000000E+00  0.00000000000E+00  0.86681970658E+02  0.86681970658E+02  0.00000000000E+00 0. -1.
         21   -1    0    0  501  502  0.00000000000E+00 -0.00000000000E+00 -0.39642492377E+03  0.39642492377E+03  0.00000000000E+00 0.  1.
         23    2    1    2    0    0  0.28714131509E+02 -0.78143757143E+01  0.43233253931E+02  0.10371415459E+03  0.89453595799E+02 0.  0.
        -24    2    1    2    0    0 -0.46084396048E+02 -0.11108693601E+02 -0.33342288231E+03  0.34711052878E+03  0.84069769284E+02 0.  0.
         13    1    4    4    0    0 -0.16918195080E+02 -0.39382636480E+02 -0.25712350353E+03  0.26067165831E+03  0.00000000000E+00 0. -1.
        -14    1    4    4    0    0 -0.29166200968E+02  0.28273942878E+02 -0.76299378789E+02  0.86438870471E+02  0.00000000000E+00 0.  1.
        -11    1    3    3    0    0  0.50127471361E+02 -0.45556638736E+01 -0.52553849408E+01  0.50607672633E+02  0.00000000000E+00 0. -1.
         11    1    3    3    0    0 -0.21413339853E+02 -0.32587118407E+01  0.48488638872E+02  0.53106481960E+02  0.00000000000E+00 0.  1.
          2    1    1    2  501    0  0.17370264539E+02  0.18923069316E+02 -0.19553324729E+02  0.32282211053E+02  0.00000000000E+00 0. -1.
<scales pt_clust_5="13000.00000" pt_clust_6="13000.00000" pt_clust_7="13000.00000" pt_clust_8="13000.00000" pt_clust_9="25.68675"></scales>
<clustering>
<clus scale="   25.687">  2  9  1 -1</clus>
<clus scale="   84.070">  5  6 -1 -1</clus>
<clus scale="   89.454">  7  8 -1 -1</clus>
<clus scale="   89.526">  2  5  1 -1</clus>
<clus scale="   25.687">  2  5  1 -1</clus>
</clustering>
</event>
<event>
 9    1  0.7586638E-005  0.1539015E+03  0.7546771E-02  0.1197725E+00
         -4   -1    0    0    0  501 -0.00000000000E+00  0.00000000000E+00  0.13787576878E+03  0.13787576878E+03  0.00000000000E+00 0.  1.
         21   -1    0    0  501  502  0.00000000000E+00 -0.00000000000E+00 -0.33260783495E+03  0.33260783495E+03  0.00000000000E+00 0. -1.
         23    2    1    2    0    0  0.10979271929E+02  0.12726104239E+03  0.45235523241E+02  0.16459288566E+03  0.93427234383E+02 0.  0.
        -24    2    1    2    0    0 -0.43362609970E+02 -0.10266452652E+03 -0.13557392064E+03  0.19385631597E+03  0.82338704961E+02 0.  0.
         11    1    4    4    0    0  0.42722064910E+01 -0.53062891241E+02 -0.10675404026E+03  0.11929101930E+03  0.00000000000E+00 0. -1.
        -12    1    4    4    0    0 -0.47634816461E+02 -0.49601635284E+02 -0.28819880384E+02  0.74565296670E+02  0.00000000000E+00 0.  1.
        -13    1    3    3    0    0  0.34834520193E+00  0.81733611882E+02 -0.20179285636E+02  0.84188527867E+02  0.00000000000E+00 0. -1.
         13    1    3    3    0    0  0.10630926727E+02  0.45527430510E+02  0.65414808876E+02  0.80404357794E+02  0.00000000000E+00 0.  1.
         -3    1    1    2    0  502  0.32383338041E+02 -0.24596515867E+02 -0.10439366877E+03  0.11203440210E+03  0.00000000000E+00 0.  1.
<scales pt_clust_5="13000.00000" pt_clust_6="13000.00000" pt_clust_7="13000.00000" pt_clust_8="13000.00000" pt_clust_9="40.66533"></scales>
<clustering>
<clus scale="   40.665">  2  9  1 -1</clus>
<clus scale="   82.339">  5  6 -1 -1</clus>
<clus scale="   93.427">  7  8 -1 -1</clus>
<clus scale="  147.434">  2  5  1 -1</clus>
<clus scale="   40.665">  2  5  1 -1</clus>
</clustering>
</event>
<event>
 9    1  0.7586638E-005  0.1281827E+03  0.7546771E-02  0.1243765E+00
         21   -1    0    0  501  502  0.00000000000E+00  0.00000000000E+00  0.39023707949E+02  0.39023707949E+02  0.00000000000E+00 0.  1.
          1   -1    0    0  502    0 -0.00000000000E+00 -0.00000000000E+00 -0.78468923446E+03  0.78468923446E+03  0.00000000000E+00 0. -1.
        -24    2    1    2    0    0  0.35950207151E+02  0.39803231893E+02 -0.95968955411E+02  0.13654831173E+03  0.80985717074E+02 0.  0.
         23    2    1    2    0    0  0.66494147848E+02 -0.40145209387E+02 -0.38044047888E+03  0.39907817488E+03  0.92170071924E+02 0.  0.
         11    1    3    3    0    0 -0.25510726070E+02  0.19692601203E+02 -0.36531878144E+02  0.48715231781E+02  0.00000000000E+00 0. -1.
        -12    1    3    3    0    0  0.61460933221E+02  0.20110630690E+02 -0.59437077267E+02  0.87833079948E+02  0.00000000000E+00 0.  1.
        -13    1    4    4    0    0  0.23464562926E+02  0.29930367035E+02 -0.10820254317E+03  0.11469177361E+03  0.00000000000E+00 0.  1.
         13    1    4    4    0    0  0.43029584922E+02 -0.70075576422E+02 -0.27223793570E+03  0.28438640127E+03  0.00000000000E+00 0. -1.
          2    1    1    2  501    0 -0.10244435500E+03  0.34197749404E+00 -0.26925609222E+03  0.28808645580E+03  0.00000000000E+00 0. -1.
<scales pt_clust_5="13000.00000" pt_clust_6="13000.00000" pt_clust_7="13000.00000" pt_clust_8="13000.00000" pt_clust_9="89.08138"></scales>
<clustering>
<clus scale="   80.986">  5  6 -1 -1</clus>
<clus scale="   92.170">  7  8 -1 -1</clus>
<clus scale="   97.136">  2  5  1 -1</clus>
<clus scale="   89.081">  1  9  2 -1</clus>
<clus scale="   89.081">  1  5  2 -1</clus>
</clustering>
</event>
<event>
 9    1  0.7586638E-005  0.1252196E+03  0.7546771E-02  0.1251806E+00
         21   -1    0    0  501  502  0.00000000000E+00  0.00000000000E+00  0.24938210106E+03  0.24938210106E+03  0.00000000000E+00 0. -1.
         -2   -1    0    0    0  501 -0.00000000000E+00 -0.00000000000E+00 -0.69587826770E+02  0.69587826770E+02  0.00000000000E+00 0.  1.
         23    2    1    2    0    0  0.15257892910E+02  0.42118661915E+02  0.41494970510E+02  0.13437126253E+03  0.11969552472E+03 0.  0.
        -24    2    1    2    0    0 -0.13252977910E+02 -0.19580126208E+02  0.13843473493E+03  0.16197072643E+03  0.80692735855E+02 0.  0.
         13    1    4    4    0    0 -0.13237567437E+02 -0.31250209897E+02  0.14476797324E+03  0.14869288782E+03  0.00000000000E+00 0. -1.
        -14    1    4    4    0    0 -0.15410473061E-01  0.11670083689E+02 -0.63332383121E+01  0.13277838616E+02  0.00000000000E+00 0.  1.
        -11    1    3    3    0    0  0.97595690809E+01  0.84049387330E+02  0.20059940809E+02  0.86959472885E+02  0.00000000000E+00 0. -1.
         11    1    3    3    0    0  0.54983238290E+01 -0.41930725415E+02  0.21435029702E+02  0.47411789642E+02  0.00000000000E+00 0.  1.
         -1    1    1    2    0  502 -0.20049150000E+01 -0.22538535707E+02 -0.13543114944E+00  0.22627938872E+02  0.00000000000E+00 0.  1.
<scales pt_clust_5="13000.00000" pt_clust_6="13000.00000" pt_clust_7="13000.00000" pt_clust_8="13000.00000" pt_clust_9="22.62754"></scales>
<clustering>
<clus scale="   22.628">  1  9  2 -1</clus>
<clus scale="   80.693">  5  6 -1 -1</clus>
<clus scale="   88.681">  1  5  2 -1</clus>
<clus scale="  119.696">  7  8 -1 -1</clus>
<clus scale="   22.628">  1  5  2 -1</clus>
</clustering>
</event>
<event>
 9    1  0.7586638E-005  0.1403208E+03  0.7546771E-02  0.1214966E+00
          1   -1    0    0  502    0 -0.00000000000E+00  0.00000000000E+00  0.89816665480E+02  0.89816665480E+02  0.00000000000E+00 0. -1.
         21   -1    0    0  501  502  0.00000000000E+00 -0.00000000000E+00 -0.35078209162E+03  0.35078209162E+03  0.00000000000E+00 0. -1.
         23    2    1    2    0    0  0.47996605168E+02  0.10222683536E+03 -0.83672981363E+02  0.16516922952E+03  0.86750830514E+02 0.  0.
        -24    2    1    2    0    0 -0.48535375787E+02 -0.69938386423E+02 -0.19886876332E+03  0.23659176592E+03  0.95811367155E+02 0.  0.
         13    1    4    4    0    0 -0.46169877172E+01 -0.64969818456E+02 -0.52386697365E+02  0.83586840750E+02  0.00000000000E+00 0. -1.
        -14    1    4    4    0    0 -0.43918388070E+02 -0.49685679679E+01 -0.14648206596E+03  0.15300492517E+03  0.00000000000E+00 0.  1.
        -13    1    3    3    0    0 -0.20116641656E+02  0.53084708957E+02 -0.46228569711E+02  0.73210287898E+02  0.00000000000E+00 0. -1.
         13    1    3    3    0    0  0.68113246825E+02  0.49142126405E+02 -0.37444411651E+02  0.91958941623E+02  0.00000000000E+00 0.  1.
          2    1    1    2  501    0  0.53877061855E+00 -0.32288448939E+02  0.21576318546E+02  0.38837761659E+02  0.00000000000E+00 0. -1.
<scales pt_clust_5="13000.00000" pt_clust_6="13000.00000" pt_clust_7="13000.00000" pt_clust_8="13000.00000" pt_clust_9="32.29296"></scales>
<clustering>
<clus scale="   32.293">  2  9  1 -1</clus>
<clus scale="   86.751">  7  8 -1 -1</clus>
<clus scale="   95.811">  5  6 -1 -1</clus>
<clus scale="  134.298">  1  7  2 -1</clus>
<clus scale="   32.293">  2  5  1 -1</clus>
</clustering>
</event>
<event>
 9    1  0.7586638E-005  0.1824289E+03  0.7546771E-02  0.1166454E+00
         21   -1    0    0  501  502  0.00000000000E+00  0.00000000000E+00  0.68538860426E+03  0.68538860426E+03  0.00000000000E+00 0.  1.
          1   -1    0    0  502    0 -0.00000000000E+00 -0.00000000000E+00 -0.78131671692E+02  0.78131671692E+02  0.00000000000E+00 0. -1.
        -24    2    1    2    0    0 -0.15475105733E+03  0.12554893233E+02  0.11593346744E+03  0.21084826339E+03  0.83131860397E+02 0.  0.
         23    2    1    2    0    0  0.15619240166E+03 -0.59791177402E+02  0.29893321421E+03  0.35456256639E+03  0.91555970260E+02 0.  0.
         13    1    3    3    0    0 -0.32559441873E+02  0.38259382933E+02  0.23330359661E+02  0.55391365025E+02  0.00000000000E+00 0. -1.
        -14    1    3    3    0    0 -0.12219161546E+03 -0.25704489699E+02  0.92603107779E+02  0.15545689837E+03  0.00000000000E+00 0.  1.
        -11    1    4    4    0    0  0.56914786570E+02  0.58150410211E+01  0.40640393021E+02  0.70176557177E+02  0.00000000000E+00 0. -1.
         11    1    4    4    0    0  0.99277615094E+02 -0.65606218423E+02  0.25829282119E+03  0.28438600921E+03  0.00000000000E+00 0.  1.
          2    1    1    2  501    0 -0.14413443296E+01  0.47236284169E+02  0.19239025091E+03  0.19810944617E+03  0.00000000000E+00 0. -1.
<scales pt_clust_5="13000.00000" pt_clust_6="13000.00000" pt_clust_7="13000.00000" pt_clust_8="13000.00000" pt_clust_9="47.25827"></scales>
<clustering>
<clus scale="   47.258">  1  9  2 -1</clus>
<clus scale="   83.132">  5  6 -1 -1</clus>
<clus scale="   91.556">  7  8 -1 -1</clus>
<clus scale="  178.350">  2  5  1 -1</clus>
<clus scale="   47.258">  1  5  2 -1</clus>
</clustering>
</event>
<event>
 9    1  0.7586638E-005  0.1435142E+03  0.7546771E-02  0.1210460E+00
         21   -1    0    0  501  502  0.00000000000E+00  0.00000000000E+00  0.78600911545E+02  0.78600911545E+02  0.00000000000E+00 0.  1.
          1   -1    0    0  502    0 -0.00000000000E+00 -0.00000000000E+00 -0.43570125717E+03  0.43570125717E+03  0.00000000000E+00 0. -1.
         23    2    1    2    0    0  0.76224260291E+02  0.82613762700E+02 -0.27195828381E+03  0.30774016236E+03  0.90041811136E+02 0.  0.
        -24    2    1    2    0    0 -0.51054841415E+02 -0.10120421734E+03 -0.10032254152E+03  0.17178339778E+03  0.81215965044E+02 0.  0.
         11    1    4    4    0    0  0.41416013950E+01 -0.41964564458E+02 -0.76550965727E+02  0.87396955816E+02  0.00000000000E+00 0. -1.
        -12    1    4    4    0    0 -0.55196442810E+02 -0.59239652881E+02 -0.23771575795E+02  0.84386441969E+02  0.00000000000E+00 0.  1.
        -11    1    3    3    0    0  0.51485014891E+02 -0.97369629697E+00 -0.63266293187E+02  0.81573762304E+02  0.00000000000E+00 0.  1.
         11    1    3    3    0    0  0.24739245400E+02  0.83587458997E+02 -0.20869199062E+03  0.22616640005E+03  0.00000000000E+00 0. -1.
          2    1    1    2  501    0 -0.25169418875E+02  0.18590454639E+02  0.15180479704E+02  0.34778608572E+02  0.00000000000E+00 0. -1.
<scales pt_clust_5="13000.00000" pt_clust_6="13000.00000" pt_clust_7="13000.00000" pt_clust_8="13000.00000" pt_clust_9="31.29065"></scales>
<clustering>
<clus scale="   31.291">  1  9  2 -1</clus>
<clus scale="   81.216">  5  6 -1 -1</clus>
<clus scale="   90.042">  7  8 -1 -1</clus>
<clus scale="  138.148">  1  5  2 -1</clus>
<clus scale="   31.291">  1  5  2 -1</clus>
</clustering>
</event>
<event>
 9    1  0.7586638E-005  0.1173598E+03  0.7546771E-02  0.1251328E+00
         21   -1    0    0  501  502  0.00000000000E+00  0.00000000000E+00  0.27015771379E+02  0.27015771379E+02  0.00000000000E+00 0.  1.
          3   -1    0    0  502    0 -0.00000000000E+00 -0.00000000000E+00 -0.80423804436E+03  0.80423804436E+03  0.00000000000E+00 0. -1.
         23    2    1    2    0    0  0.37889095539E+02  0.64383561580E+02 -0.56431051467E+03  0.57651517437E+03  0.91337630519E+02 0.  0.
        -24    2    1    2    0    0 -0.59891968581E+02 -0.45474253125E+02 -0.18030477410E+03  0.21109343788E+03  0.79972947649E+02 0.  0.
         11    1    4    4    0    0 -0.34482511995E+02 -0.33147010766E+02 -0.17617353336E+03  0.18255103892E+03  0.00000000000E+00 0. -1.
        -12    1    4    4    0    0 -0.25409456587E+02 -0.12327242359E+02 -0.41312407411E+01  0.28542398958E+02  0.00000000000E+00 0.  1.
        -11    1    3    3    0    0 -0.29890217945E+02  0.11658890375E+02 -0.14671562004E+03  0.15018264885E+03  0.00000000000E+00 0.  1.
         11    1    3    3    0    0  0.67779313484E+02  0.52724671205E+02 -0.41759489463E+03  0.42633252551E+03  0.00000000000E+00 0. -1.
          4    1    1    2  501    0  0.22002873042E+02 -0.18909308455E+02 -0.32606984219E+02  0.43645203496E+02  0.00000000000E+00 0. -1.
<scales pt_clust_5="13000.00000" pt_clust_6="13000.00000" pt_clust_7="13000.00000" pt_clust_8="13000.00000" pt_clust_9="29.01187"></scales>
<clustering>
<clus scale="   29.012">  1  9  2 -1</clus>
<clus scale="   79.973">  5  6 -1 -1</clus>
<clus scale="   91.338">  7  8 -1 -1</clus>
<clus scale="  108.749">  1  5  2 -1</clus>
<clus scale="   29.012">  1  5  2 -1</clus>
</clustering>
</event>
<event>
 9    1  0.7586638E-005  0.3591697E+03  0.7546771E-02  0.1059202E+00
         21   -1    0    0  501  502  0.00000000000E+00  0.00000000000E+00  0.24191635253E+03  0.24191635253E+03  0.00000000000E+00 0.  1.
          1   -1    0    0  502    0 -0.00000000000E+00 -0.00000000000E+00 -0.16801330489E+04  0.16801330489E+04  0.00000000000E+00 0. -1.
        -24    2    1    2    0    0  0.30953585016E+03 -0.17317601312E+03 -0.12195920725E+04  0.12726590189E+04  0.80335427170E+02 0.  0.
         23    2    1    2    0    0 -0.27730379122E+03  0.17561904724E+03 -0.36500053106E+03  0.49948781329E+03  0.92321425303E+02 0.  0.
         11    1    3    3    0    0  0.10609197519E+03 -0.84141477889E+02 -0.58047952502E+03  0.59606356579E+03  0.00000000000E+00 0. -1.
        -12    1    3    3    0    0  0.20344387497E+03 -0.89034535232E+02 -0.63911254753E+03  0.67659545308E+03  0.00000000000E+00 0.  1.
        -11    1    4    4    0    0 -0.24014605875E+02  0.25731548257E+02 -0.90206372529E+02  0.96829765650E+02  0.00000000000E+00 0. -1.
         11    1    4    4    0    0 -0.25328918534E+03  0.14988749899E+03 -0.27479415853E+03  0.40265804764E+03  0.00000000000E+00 0.  1.
          2    1    1    2  501    0 -0.32232058941E+02 -0.24430341228E+01  0.14637590726E+03  0.14990256924E+03  0.00000000000E+00 0. -1.
<scales pt_clust_5="13000.00000" pt_clust_6="13000.00000" pt_clust_7="13000.00000" pt_clust_8="13000.00000" pt_clust_9="32.32451"></scales>
<clustering>
<clus scale="   32.325">  1  9  2 -1</clus>
<clus scale="   80.335">  5  6 -1 -1</clus>
<clus scale="   92.321">  7  8 -1 -1</clus>
<clus scale="  356.277">  2  5  1 -1</clus>
<clus scale="   32.325">  1  5  2 -1</clus>
</clustering>
</event>
<event>
 9    1  0.7586638E-005  0.1065875E+03  0.7546771E-02  0.1272024E+00
         -2   -1    0    0    0  501 -0.00000000000E+00  0.00000000000E+00  0.20659669618E+03  0.20659669618E+03  0.00000000000E+00 0.  1.
         21   -1    0    0  501  502  0.00000000000E+00 -0.00000000000E+00 -0.93260114276E+02  0.93260114276E+02  0.00000000000E+00 0.  1.
         23    2    1    2    0    0  0.34147352167E+02  0.64001363299E+01  0.64517751516E+02  0.11734960175E+03  0.91659071376E+02 0.  0.
        -24    2    1    2    0    0 -0.71201435997E+02 -0.46509597597E+02  0.51968518274E+02  0.12781082358E+03  0.80013077537E+02 0.  0.
         13    1    4    4    0    0 -0.88717994125E+01 -0.52035850150E+02  0.33690540534E+02  0.62621809676E+02  0.00000000000E+00 0. -1.
        -14    1    4    4    0    0 -0.62329636584E+02  0.55262525531E+01  0.18277977740E+02  0.65189013908E+02  0.00000000000E+00 0.  1.
        -13    1    3    3    0    0 -0.21644592520E+02  0.36337042106E+01  0.56882453744E+02  0.60969711625E+02  0.00000000000E+00 0. -1.
         13    1    3    3    0    0  0.55791944687E+02  0.27664321194E+01  0.76352977717E+01  0.56379890127E+02  0.00000000000E+00 0.  1.
         -1    1    1    2    0  502  0.37054083830E+02  0.40109461267E+02 -0.31496878854E+01  0.54696385122E+02  0.00000000000E+00 0.  1.
<scales pt_clust_5="13000.00000" pt_clust_6="13000.00000" pt_clust_7="13000.00000" pt_clust_8="13000.00000" pt_clust_9="54.60562"></scales>
<clustering>
<clus scale="   54.606">  2  9  1 -1</clus>
<clus scale="   80.013">  5  6 -1 -1</clus>
<clus scale="   91.659">  7  8 -1 -1</clus>
<clus scale="   96.755">  2  5  1 -1</clus>
<clus scale="   54.606">  2  5  1 -1</clus>
</clustering>
</event>
<event>
 9    1  0.7586638E-005  0.9093955E+02  0.7546771E-02  0.1307655E+00
         21   -1    0    0  501  502  0.00000000000E+00  0.00000000000E+00  0.44698836613E+02  0.44698836613E+02  0.00000000000E+00 0.  1.
          1   -1    0    0  502    0 -0.00000000000E+00 -0.00000000000E+00 -0.31411171516E+03  0.31411171516E+03  0.00000000000E+00 0. -1.
        -24    2    1    2    0    0 -0.16524289196E+02  0.43307161015E+01 -0.19275079492E+03  0.20905089286E+03  0.79104991174E+02 0.  0.
         23    2    1    2    0    0 -0.76606755434E+01  0.19845866405E+02 -0.44590684229E+02  0.10287688680E+03  0.90237355654E+02 0.  0.
         11    1    3    3    0    0 -0.18642175466E+02 -0.29821406674E+02 -0.43553018335E+02  0.55979571347E+02  0.00000000000E+00 0. -1.
        -12    1    3    3    0    0  0.21178862698E+01  0.34152122776E+02 -0.14919777658E+03  0.15307132151E+03  0.00000000000E+00 0.  1.
        -11    1    4    4    0    0  0.37502686692E+02 -0.46514469615E+01 -0.52229755106E+01  0.38149271830E+02  0.00000000000E+00 0.  1.
         11    1    4    4    0    0 -0.45163362236E+02  0.24497313366E+02 -0.39367708718E+02  0.64727614975E+02  0.00000000000E+00 0. -1.
          2    1    1    2  501    0  0.24184964740E+02 -0.24176582506E+02 -0.32071399405E+02  0.46882772112E+02  0.00000000000E+00 0. -1.
<scales pt_clust_5="13000.00000" pt_clust_6="13000.00000" pt_clust_7="13000.00000" pt_clust_8="13000.00000" pt_clust_9="34.19678"></scales>
<clustering>
<clus scale="   34.197">  1  9  2 -1</clus>
<clus scale="   79.105">  5  6 -1 -1</clus>
<clus scale="   79.905">  2  5  1 -1</clus>
<clus scale="   90.237">  7  8 -1 -1</clus>
<clus scale="   34.197">  1  5  2 -1</clus>
</clustering>
</event>
<event>
 9    1  0.7586638E-005  0.1105851E+03  0.7546771E-02  0.1263915E+00
          3   -1    0    0  502    0 -0.00000000000E+00  0.00000000000E+00  0.29585449911E+03  0.29585449911E+03  0.00000000000E+00 0. -1.
         21   -1    0    0  501  502  0.00000000000E+00 -0.00000000000E+00 -0.20969574588E+03  0.20969574588E+03  0.00000000000E+00 0.  1.
         23    2    1    2    0    0  0.57883171297E+02  0.10998804013E+02  0.25358759265E+03  0.27612739446E+03  0.92023016763E+02 0.  0.
        -24    2    1    2    0    0 -0.88778001612E+02 -0.15170698717E+02 -0.10731539815E+03  0.16170637494E+03  0.80750686346E+02 0.  0.
         13    1    4    4    0    0 -0.96239195468E+01  0.23996849918E+02 -0.46279428663E+01  0.26265690332E+02  0.00000000000E+00 0. -1.
        -14    1    4    4    0    0 -0.79154082065E+02 -0.39167548635E+02 -0.10268745528E+03  0.13544068461E+03  0.00000000000E+00 0.  1.
        -13    1    3    3    0    0 -0.16146765730E+02  0.17556347646E+02  0.20411545816E+02  0.31393862279E+02  0.00000000000E+00 0.  1.
         13    1    3    3    0    0  0.74029937027E+02 -0.65575436325E+01  0.23317604684E+03  0.24473353218E+03  0.00000000000E+00 0. -1.
          4    1    1    2  501    0  0.30894830315E+02  0.41718947041E+01 -0.60113441275E+02  0.67716475599E+02  0.00000000000E+00 0. -1.
<scales pt_clust_5="13000.00000" pt_clust_6="13000.00000" pt_clust_7="13000.00000" pt_clust_8="13000.00000" pt_clust_9="31.17523"></scales>
<clustering>
<clus scale="   31.175">  2  9  1 -1</clus>
<clus scale="   80.751">  5  6 -1 -1</clus>
<clus scale="   92.023">  7  8 -1 -1</clus>
<clus scale="  101.398">  2  5  1 -1</clus>
<clus scale="   31.175">  2  5  1 -1</clus>
</clustering>
</event>
<event>
 9    1  0.7586638E-005  0.1862788E+03  0.7546771E-02  0.1198289E+00
         21   -1    0    0  501  502  0.00000000000E+00  0.00000000000E+00  0.49667919230E+02  0.49667919230E+02  0.00000000000E+00 0. -1.
          1   -1    0    0  502    0 -0.00000000000E+00 -0.00000000000E+00 -0.10018055707E+04  0.10018055707E+04  0.00000000000E+00 0. -1.
        -24    2    1    2    0    0 -0.16053476220E+02 -0.13082099632E+02 -0.22850331458E+03  0.24281475614E+03  0.79475691867E+02 0.  0.
         23    2    1    2    0    0  0.87888258162E+02  0.15548860142E+03 -0.46111967053E+03  0.50148810092E+03  0.83414109823E+02 0.  0.
         13    1    3    3    0    0 -0.14447993680E+02  0.28309606441E+02 -0.47643637396E+02  0.57272109465E+02  0.00000000000E+00 0. -1.
        -14    1    3    3    0    0 -0.16054825409E+01 -0.41391706073E+02 -0.18085967718E+03  0.18554264668E+03  0.00000000000E+00 0.  1.
        -13    1    4    4    0    0  0.62322303685E+02  0.72934275482E+02 -0.33596926027E+03  0.34939779897E+03  0.00000000000E+00 0. -1.
         13    1    4    4    0    0  0.25565954478E+02  0.82554325933E+02 -0.12515041026E+03  0.15209030195E+03  0.00000000000E+00 0.  1.
          2    1    1    2  501    0 -0.71834781942E+02 -0.14240650178E+03 -0.26251466640E+03  0.30717063291E+03  0.00000000000E+00 0. -1.
<scales pt_clust_5="13000.00000" pt_clust_6="13000.00000" pt_clust_7="13000.00000" pt_clust_8="13000.00000" pt_clust_9="166.55891"></scales>
<clustering>
<clus scale="   79.476">  5  6 -1 -1</clus>
<clus scale="   82.129">  2  5  1 -1</clus>
<clus scale="   83.414">  7  8 -1 -1</clus>
<clus scale="  166.559">  1  9  2 -1</clus>
<clus scale="  166.559">  1  5  2 -1</clus>
</clustering>
</event>
<event>
 9    1  0.7586638E-005  0.1858217E+03  0.7546771E-02  0.1185465E+00
          1   -1    0    0  502    0 -0.00000000000E+00  0.00000000000E+00  0.69179093880E+03  0.69179093880E+03  0.00000000000E+00 0. -1.
         21   -1    0    0  501  502  0.00000000000E+00 -0.00000000000E+00 -0.80329523729E+02  0.80329523729E+02  0.00000000000E+00 0. -1.
        -24    2    1    2    0    0 -0.57290935229E+02  0.47734099246E+02  0.10295863112E+03  0.15047573747E+03  0.80508834027E+02 0.  0.
         23    2    1    2    0    0  0.18074361467E+03 -0.95677249581E+02  0.29684435583E+03  0.37196813440E+03  0.91767810742E+02 0.  0.
         13    1    3    3    0    0 -0.24009163022E+02  0.65746472056E+02  0.52965667963E+02  0.87774714352E+02  0.00000000000E+00 0. -1.
        -14    1    3    3    0    0 -0.33281772207E+02 -0.18012372810E+02  0.49992963155E+02  0.62701023122E+02  0.00000000000E+00 0.  1.
        -13    1    4    4    0    0  0.79092518153E+02 -0.72667946384E+02  0.89128156305E+02  0.13957107546E+03  0.00000000000E+00 0. -1.
         13    1    4    4    0    0  0.10165109652E+03 -0.23009303197E+02  0.20771619953E+03  0.23239705894E+03  0.00000000000E+00 0.  1.
          2    1    1    2  501    0 -0.12345267944E+03  0.47943150336E+02  0.21165842812E+03  0.24967659065E+03  0.00000000000E+00 0. -1.
<scales pt_clust_5="13000.00000" pt_clust_6="13000.00000" pt_clust_7="13000.00000" pt_clust_8="13000.00000" pt_clust_9="161.58091"></scales>
<clustering>
<clus scale="   80.509">  5  6 -1 -1</clus>
<clus scale="   91.768">  7  8 -1 -1</clus>
<clus scale="  109.738">  1  5  2 -1</clus>
<clus scale="  161.581">  2  9  1 -1</clus>
<clus scale="  161.581">  2  5  1 -1</clus>
</clustering>
</event>
<event>
 9    1  0.7586638E-005  0.1134766E+03  0.7546771E-02  0.1267003E+00
         -2   -1    0    0    0  501 -0.00000000000E+00  0.00000000000E+00  0.16348060434E+03  0.16348060434E+03  0.00000000000E+00 0.  1.
         21   -1    0    0  501  502  0.00000000000E+00 -0.00000000000E+00 -0.92378300755E+02  0.92378300755E+02  0.00000000000E+00 0. -1.
         23    2    1    2    0    0  0.14416480582E+02 -0.25326174379E+02  0.35720419468E+02  0.11845152513E+03  0.10911262722E+03 0.  0.
        -24    2    1    2    0    0 -0.39967970840E+02  0.60058105949E+01  0.33338600557E+01  0.92094788361E+02  0.82685107283E+02 0.  0.
         11    1    4    4    0    0  0.45463219020E+01 -0.32143439029E+02 -0.51159273448E+01  0.32863998966E+02  0.00000000000E+00 0. -1.
        -12    1    4    4    0    0 -0.44514292742E+02  0.38149249624E+02  0.84497874005E+01  0.59230789395E+02  0.00000000000E+00 0.  1.
        -11    1    3    3    0    0 -0.33667927440E+02 -0.43442185219E+02  0.38321045107E+02  0.67001905143E+02  0.00000000000E+00 0.  1.
         11    1    3    3    0    0  0.48084408022E+02  0.18116010839E+02 -0.26006256391E+01  0.51449619992E+02  0.00000000000E+00 0. -1.
         -1    1    1    2    0  502  0.25551490258E+02  0.19320363784E+02  0.32048024058E+02  0.45312591596E+02  0.00000000000E+00 0.  1.
<scales pt_clust_5="13000.00000" pt_clust_6="13000.00000" pt_clust_7="13000.00000" pt_clust_8="13000.00000" pt_clust_9="32.03367"></scales>
<clustering>
<clus scale="   32.034">  2  9  1 -1</clus>
<clus scale="   82.685">  5  6 -1 -1</clus>
<clus scale="   88.364">  2  5  1 -1</clus>
<clus scale="  109.113">  7  8 -1 -1</clus>
<clus scale="   32.034">  2  5  1 -1</clus>
</clustering>
</event>
<event>
 9    1  0.7586638E-005  0.1840252E+03  0.7546771E-02  0.1165244E+00
         21   -1    0    0  501  502  0.00000000000E+00  0.00000000000E+00  0.92053054787E+02  0.92053054787E+02  0.00000000000E+00 0.  1.
         -2   -1    0    0    0  501 -0.00000000000E+00 -0.00000000000E+00 -0.60637066384E+03  0.60637066384E+03  0.00000000000E+00 0.  1.
        -24    2    1    2    0    0  0.12525343430E+03 -0.11460004225E+03 -0.32203260118E+03  0.37248188585E+03  0.78842669776E+02 0.  0.
         23    2    1    2    0    0 -0.14278204408E+03  0.56501879394E+02 -0.19634040612E+03  0.26512164744E+03  0.90336915950E+02 0.  0.
         13    1    3    3    0    0  0.77723632832E+02 -0.18444279994E+02 -0.14128798968E+03  0.16230665604E+03  0.00000000000E+00 0. -1.
        -14    1    3    3    0    0  0.47529801465E+02 -0.96155762257E+02 -0.18074461150E+03  0.21017522982E+03  0.00000000000E+00 0.  1.
        -13    1    4    4    0    0 -0.58856427190E+02  0.52207933600E+02 -0.14943926755E+03  0.16888410831E+03  0.00000000000E+00 0.  1.
         13    1    4    4    0    0 -0.83925616888E+02  0.42939457937E+01 -0.46901138566E+02  0.96237539138E+02  0.00000000000E+00 0. -1.
         -1    1    1    2    0  502  0.17528609782E+02  0.58098162857E+02  0.40553982484E+01  0.60820185327E+02  0.00000000000E+00 0.  1.
<scales pt_clust_5="13000.00000" pt_clust_6="13000.00000" pt_clust_7="13000.00000" pt_clust_8="13000.00000" pt_clust_9="60.68483"></scales>
<clustering>
<clus scale="   60.685">  1  9  2 -1</clus>
<clus scale="   78.843">  5  6 -1 -1</clus>
<clus scale="   90.337">  7  8 -1 -1</clus>
<clus scale="  178.664">  2  5  1 -1</clus>
<clus scale="   60.685">  1  5  2 -1</clus>
</clustering>
</event>
<event>
 9    1  0.1000406E-004  0.1039509E+03  0.7546771E-02  0.1272441E+00
          1   -1    0    0  502    0 -0.00000000000E+00  0.00000000000E+00  0.41314216609E+03  0.41314216609E+03  0.00000000000E+00 0. -1.
         21   -1    0    0  501  502  0.00000000000E+00 -0.00000000000E+00 -0.10476595128E+03  0.10476595128E+03  0.00000000000E+00 0. -1.
        -24    2    1    2    0    0  0.14652049499E+02  0.68503666492E+02  0.16992610230E+03  0.20045574221E+03  0.80001184149E+02 0.  0.
         23    2    1    2    0    0 -0.21037359962E+02 -0.41395139412E+02 -0.64676542361E+02  0.11242534682E+03  0.79374274136E+02 0.  0.
         11    1    3    3    0    0  0.37939799947E+02  0.73110486696E+02  0.12621274794E+03  0.15071240635E+03  0.00000000000E+00 0. -1.
        -12    1    3    3    0    0 -0.23287750448E+02 -0.46068202037E+01  0.43713354356E+02  0.49743335859E+02  0.00000000000E+00 0.  1.
        -11    1    4    4    0    0  0.92123024606E+01  0.20810512896E+02 -0.17253865829E+02  0.28559409126E+02  0.00000000000E+00 0.  1.
         11    1    4    4    0    0 -0.30249662423E+02 -0.62205652308E+02 -0.47422676532E+02  0.83865937693E+02  0.00000000000E+00 0. -1.
          2    1    1    2  501    0  0.63853104626E+01 -0.27108527080E+02  0.20312665487E+03  0.20502702834E+03  0.00000000000E+00 0. -1.
<scales pt_clust_5="13000.00000" pt_clust_6="13000.00000" pt_clust_7="13000.00000" pt_clust_8="13000.00000" pt_clust_9="27.85041"></scales>
<clustering>
<clus scale="   27.850">  2  9  1 -1</clus>
<clus scale="   79.374">  7  8 -1 -1</clus>
<clus scale="   80.001">  5  6 -1 -1</clus>
<clus scale="  103.469">  2  7  1 -1</clus>
<clus scale="   27.850">  2  5  1 -1</clus>
</clustering>
</event>
<event>
 9    1  0.7586638E-005  0.1748491E+03  0.7546771E-02  0.1174296E+00
          3   -1    0    0  502    0 -0.00000000000E+00  0.00000000000E+00  0.51565052740E+03  0.51565052740E+03  0.00000000000E+00 0. -1.
         21   -1    0    0  501  502  0.00000000000E+00 -0.00000000000E+00 -0.15999656455E+03  0.15999656455E+03  0.00000000000E+00 0. -1.
        -24    2    1    2    0    0 -0.31174736752E+01 -0.12598350640E+03  0.68619884787E+02  0.16476697706E+03  0.80980896592E+02 0.  0.
         23    2    1    2    0    0  0.35307356921E+02  0.19719366788E+03  0.74308270859E+01  0.22056123223E+03  0.91978735943E+02 0.  0.
         11    1    3    3    0    0  0.14931449408E+01 -0.10227030590E+03  0.11718921802E+02  0.10295036707E+03  0.00000000000E+00 0. -1.
        -12    1    3    3    0    0 -0.46106186160E+01 -0.23713200501E+02  0.56900962985E+02  0.61816609990E+02  0.00000000000E+00 0.  1.
        -11    1    4    4    0    0 -0.18833800451E+02  0.44327328785E+02  0.30128374794E+02  0.56809709420E+02  0.00000000000E+00 0.  1.
         11    1    4    4    0    0  0.54141157372E+02  0.15286633909E+03 -0.22697547708E+02  0.16375152281E+03  0.00000000000E+00 0. -1.
          4    1    1    2  501    0 -0.32189883246E+02 -0.71210161474E+02  0.27960325097E+03  0.29031888267E+03  0.00000000000E+00 0. -1.
<scales pt_clust_5="13000.00000" pt_clust_6="13000.00000" pt_clust_7="13000.00000" pt_clust_8="13000.00000" pt_clust_9="78.14782"></scales>
<clustering>
<clus scale="   78.148">  2  9  1 -1</clus>
<clus scale="   80.981">  5  6 -1 -1</clus>
<clus scale="   91.979">  7  8 -1 -1</clus>
<clus scale="  169.322">  1  5  2 -1</clus>
<clus scale="   78.148">  2  5  1 -1</clus>
</clustering>
</event>
<event>
 9    1  0.7586638E-005  0.1013796E+03  0.7546771E-02  0.1283561E+00
         21   -1    0    0  501  502  0.00000000000E+00  0.00000000000E+00  0.13186824383E+03  0.13186824383E+03  0.00000000000E+00 0. -1.
         -4   -1    0    0    0  501 -0.00000000000E+00 -0.00000000000E+00 -0.16015056117E+03  0.16015056117E+03  0.00000000000E+00 0.  1.
         23    2    1    2    0    0  0.33044469203E+02  0.19428567233E+02 -0.66464938684E+02  0.11983007403E+03  0.92044839064E+02 0.  0.
        -24    2    1    2    0    0 -0.62936163372E+02  0.31882470554E+02  0.11104475787E+02  0.10692341134E+03  0.79572947167E+02 0.  0.
         13    1    4    4    0    0 -0.73067326196E+02  0.38931376284E+02  0.26740632263E+02  0.87003147245E+02  0.00000000000E+00 0. -1.
        -14    1    4    4    0    0  0.10131162824E+02 -0.70489057297E+01 -0.15636156476E+02  0.19920264092E+02  0.00000000000E+00 0.  1.
        -13    1    3    3    0    0  0.85673514073E+01  0.23500328846E+02  0.18631508822E+02  0.31189711236E+02  0.00000000000E+00 0. -1.
         13    1    3    3    0    0  0.24477117796E+02 -0.40717616138E+01 -0.85096447506E+02  0.88640362795E+02  0.00000000000E+00 0.  1.
         -3    1    1    2    0  502  0.29891694169E+02 -0.51311037786E+02  0.27078145561E+02  0.65265319627E+02  0.00000000000E+00 0.  1.
<scales pt_clust_5="13000.00000" pt_clust_6="13000.00000" pt_clust_7="13000.00000" pt_clust_8="13000.00000" pt_clust_9="59.38296"></scales>
<clustering>
<clus scale="   59.383">  1  9  2 -1</clus>
<clus scale="   79.573">  5  6 -1 -1</clus>
<clus scale="   90.208">  1  5  2 -1</clus>
<clus scale="   92.045">  7  8 -1 -1</clus>
<clus scale="   59.383">  1  5  2 -1</clus>
</clustering>
</event>
<event>
 9    1  0.7586638E-005  0.1418384E+03  0.7546771E-02  0.1214989E+00
          1   -1    0    0  502    0 -0.00000000000E+00  0.00000000000E+00  0.87568394214E+03  0.87568394214E+03  0.00000000000E+00 0. -1.
         21   -1    0    0  501  502  0.00000000000E+00 -0.00000000000E+00 -0.19873713423E+03  0.19873713423E+03  0.00000000000E+00 0. -1.
        -24    2    1    2    0    0  0.57190236474E+02 -0.10135215063E+03  0.81810124980E+03  0.82934270094E+03  0.70545581676E+02 0.  0.
         23    2    1    2    0    0 -0.78293642956E+01  0.31501348911E+02 -0.22490332474E+02  0.98801921187E+02  0.90566940143E+02 0.  0.
         13    1    3    3    0    0  0.70616062835E+02 -0.90927199589E+02  0.62660824598E+03  0.63709675708E+03  0.00000000000E+00 0. -1.
        -14    1    3    3    0    0 -0.13425826361E+02 -0.10424951038E+02  0.19149300382E+03  0.19224594386E+03  0.00000000000E+00 0.  1.
        -11    1    4    4    0    0 -0.42909271009E+02  0.80813585643E+01 -0.33702620364E+02  0.55157778365E+02  0.00000000000E+00 0.  1.
         11    1    4    4    0    0  0.35079906714E+02  0.23419990347E+02  0.11212287890E+02  0.43644142822E+02  0.00000000000E+00 0. -1.
          2    1    1    2  501    0 -0.49360872179E+02  0.69850801716E+02 -0.11866410942E+03  0.14627645424E+03  0.00000000000E+00 0. -1.
<scales pt_clust_5="13000.00000" pt_clust_6="13000.00000" pt_clust_7="13000.00000" pt_clust_8="13000.00000" pt_clust_9="85.53146"></scales>
<clustering>
<clus scale="   70.546">  5  6 -1 -1</clus>
<clus scale="   85.531">  2  9  1 -1</clus>
<clus scale="   90.567">  7  8 -1 -1</clus>
<clus scale="  129.971">  1  5  2 -1</clus>
<clus scale="   85.531">  2  5  1 -1</clus>
</clustering>
</event>
<event>
 9    1  0.7586638E-005  0.1409407E+03  0.7546771E-02  0.1212566E+00
         21   -1    0    0  501  502  0.00000000000E+00  0.00000000000E+00  0.76565565037E+02  0.76565565037E+02  0.00000000000E+00 0.  1.
         -2   -1    0    0    0  501 -0.00000000000E+00 -0.00000000000E+00 -0.58237218640E+03  0.58237218640E+03  0.00000000000E+00 0.  1.
         23    2    1    2    0    0 -0.11166464179E+03  0.62158741308E+02 -0.37831760803E+03  0.40957869249E+03  0.91092213991E+02 0.  0.
        -24    2    1    2    0    0  0.64570323480E+02  0.15562877999E+02 -0.27488005035E+02  0.11423420340E+03  0.88782503683E+02 0.  0.
         13    1    4    4    0    0  0.84067317460E+02  0.29139914929E+01 -0.32982465572E+02  0.90352909453E+02  0.00000000000E+00 0. -1.
        -14    1    4    4    0    0 -0.19496993980E+02  0.12648886506E+02  0.54944605370E+01  0.23881293950E+02  0.00000000000E+00 0.  1.
        -13    1    3    3    0    0 -0.16483359625E+02  0.58506499858E+02 -0.16928737254E+03  0.17986919183E+03  0.00000000000E+00 0.  1.
         13    1    3    3    0    0 -0.95181282166E+02  0.36522414504E+01 -0.20903023550E+03  0.22970950066E+03  0.00000000000E+00 0. -1.
         -1    1    1    2    0  502  0.47094318311E+02 -0.77721619308E+02 -0.10000100830E+03  0.13512485554E+03  0.00000000000E+00 0.  1.
<scales pt_clust_5="13000.00000" pt_clust_6="13000.00000" pt_clust_7="13000.00000" pt_clust_8="13000.00000" pt_clust_9="90.87643"></scales>
<clustering>
<clus scale="   88.783">  5  6 -1 -1</clus>
<clus scale="   90.876">  1  9  2 -1</clus>
<clus scale="   91.092">  7  8 -1 -1</clus>
<clus scale="  139.459">  1  5  2 -1</clus>
<clus scale="   90.876">  1  5  2 -1</clus>
</clustering>
</event>
<event>
 9    1  0.7586638E-005  0.1243687E+03  0.7546771E-02  0.1238681E+00
          1   -1    0    0  502    0 -0.00000000000E+00  0.00000000000E+00  0.17000912879E+03  0.17000912879E+03  0.00000000000E+00 0. -1.
         21   -1    0    0  501  502  0.00000000000E+00 -0.00000000000E+00 -0.13969279373E+03  0.13969279373E+03  0.00000000000E+00 0.  1.
        -24    2    1    2    0    0 -0.14489959892E+02  0.70124537084E+02  0.33529115088E+02  0.11352693401E+03  0.81466272461E+02 0.  0.
         23    2    1    2    0    0  0.13009747952E+02 -0.10206873929E+03  0.39641495531E+02  0.14270432350E+03  0.90585841573E+02 0.  0.
         11    1    3    3    0    0 -0.30943287846E+02  0.63264428560E+02 -0.54784437450E+01  0.70639141625E+02  0.00000000000E+00 0. -1.
        -12    1    3    3    0    0  0.16453327953E+02  0.68601085237E+01  0.39007558833E+02  0.42887792387E+02  0.00000000000E+00 0.  1.
        -13    1    4    4    0    0  0.51741663786E+02 -0.49924346333E+02  0.24969604925E+02  0.76112556771E+02  0.00000000000E+00 0.  1.
         13    1    4    4    0    0 -0.38731915834E+02 -0.52144392962E+02  0.14671890605E+02  0.66591766724E+02  0.00000000000E+00 0. -1.
          2    1    1    2  501    0  0.14802119401E+01  0.31944202211E+02 -0.42854275560E+02  0.53470665005E+02  0.00000000000E+00 0. -1.
<scales pt_clust_5="13000.00000" pt_clust_6="13000.00000" pt_clust_7="13000.00000" pt_clust_8="13000.00000" pt_clust_9="31.97848"></scales>
<clustering>
<clus scale="   31.978">  2  9  1 -1</clus>
<clus scale="   81.466">  5  6 -1 -1</clus>
<clus scale="   90.586">  7  8 -1 -1</clus>
<clus scale="  117.892">  1  5  2 -1</clus>
<clus scale="   31.978">  2  5  1 -1</clus>
</clustering>
</event>
<event>
 9    1  0.7586638E-005  0.1937884E+03  0.7546771E-02  0.1166043E+00
         21   -1    0    0  501  502  0.00000000000E+00  0.00000000000E+00  0.20086236605E+03  0.20086236605E+03  0.00000000000E+00 0. -1.
          1   -1    0    0  502    0 -0.00000000000E+00 -0.00000000000E+00 -0.46227741472E+03  0.46227741472E+03  0.00000000000E+00 0. -1.
        -24    2    1    2    0    0 -0.70404937985E+01  0.12774515466E+03  0.38107221164E+02  0.15496341984E+03  0.78696302920E+02 0.  0.
         23    2    1    2    0    0 -0.10946636802E+02  0.12507520591E+03 -0.97515463333E+02  0.18406461869E+03  0.92773284278E+02 0.  0.
         13    1    3    3    0    0 -0.41535580109E+02  0.80777238276E+02  0.32291036608E+02  0.96399573047E+02  0.00000000000E+00 0. -1.
        -14    1    3    3    0    0  0.34495086310E+02  0.46967916383E+02  0.58161845561E+01  0.58563846797E+02  0.00000000000E+00 0.  1.
        -13    1    4    4    0    0  0.39456680618E+02  0.63183936348E+02 -0.33185790650E+02  0.81549593248E+02  0.00000000000E+00 0. -1.
         13    1    4    4    0    0 -0.50403317420E+02  0.61891269560E+02 -0.64329672683E+02  0.10251502545E+03  0.00000000000E+00 0.  1.
          2    1    1    2  501    0  0.17987130600E+02 -0.25282036057E+03 -0.20200680650E+03  0.32411174224E+03  0.00000000000E+00 0. -1.
<scales pt_clust_5="13000.00000" pt_clust_6="13000.00000" pt_clust_7="13000.00000" pt_clust_8="13000.00000" pt_clust_9="170.13843"></scales>
<clustering>
<clus scale="   78.696">  5  6 -1 -1</clus>
<clus scale="   92.773">  7  8 -1 -1</clus>
<clus scale="  150.205">  2  5  1 -1</clus>
<clus scale="  170.138">  1  9  2 -1</clus>
<clus scale="  170.138">  1  5  2 -1</clus>
</clustering>
</event>
<event>
 9    1  0.7586638E-005  0.9102572E+02  0.7546771E-02  0.1303886E+00
         21   -1    0    0  501  502  0.00000000000E+00  0.00000000000E+00  0.45186334017E+02  0.45186334017E+02  0.00000000000E+00 0.  1.
         -4   -1    0    0    0  501 -0.00000000000E+00 -0.00000000000E+00 -0.58147157996E+03  0.58147157996E+03  0.00000000000E+00 0.  1.
        -24    2    1    2    0    0 -0.46151466892E+01  0.14646437806E+01 -0.41066101127E+03  0.41939680445E+03  0.85016284547E+02 0.  0.
         23    2    1    2    0    0  0.27649778229E+02  0.36391556238E+02 -0.36862484181E+02  0.10805256917E+03  0.90706446097E+02 0.  0.
         11    1    3    3    0    0  0.42582516003E+01 -0.41204090252E+02 -0.18774470864E+03  0.19226020229E+03  0.00000000000E+00 0. -1.
        -12    1    3    3    0    0 -0.88733982895E+01  0.42668734033E+02 -0.22291630263E+03  0.22713660216E+03  0.00000000000E+00 0.  1.
        -11    1    4    4    0    0  0.60946272294E+02  0.18548104078E+02 -0.20961139039E+02  0.67066009433E+02  0.00000000000E+00 0.  1.
         11    1    4    4    0    0 -0.33296494066E+02  0.17843452160E+02 -0.15901345141E+02  0.40986559741E+02  0.00000000000E+00 0. -1.
         -3    1    1    2    0  502 -0.23034631540E+02 -0.37856200019E+02 -0.88761750487E+02  0.99208540356E+02  0.00000000000E+00 0.  1.
<scales pt_clust_5="13000.00000" pt_clust_6="13000.00000" pt_clust_7="13000.00000" pt_clust_8="13000.00000" pt_clust_9="44.31352"></scales>
<clustering>
<clus scale="   44.314">  1  9  2 -1</clus>
<clus scale="   85.016">  5  6 -1 -1</clus>
<clus scale="   85.357">  2  5  1 -1</clus>
<clus scale="   90.706">  7  8 -1 -1</clus>
<clus scale="   44.314">  1  5  2 -1</clus>
</clustering>
</event>
<event>
 9    1  0.7586638E-005  0.1507980E+03  0.7546771E-02  0.1201422E+00
         21   -1    0    0  501  502  0.00000000000E+00  0.00000000000E+00  0.57206918879E+02  0.57206918879E+02  0.00000000000E+00 0. -1.
          1   -1    0    0  502    0 -0.00000000000E+00 -0.00000000000E+00 -0.12256699010E+04  0.12256699010E+04  0.00000000000E+00 0. -1.
         23    2    1    2    0    0  0.95817688534E+02  0.10617422464E+03 -0.67439636466E+03  0.69535305429E+03  0.90837316315E+02 0.  0.
        -24    2    1    2    0    0  0.41034167578E+02 -0.12433134396E+03 -0.37503693805E+03  0.40524327820E+03  0.80170590789E+02 0.  0.
         11    1    4    4    0    0  0.60903232612E+02 -0.11025676417E+03 -0.27810793250E+03  0.30530276760E+03  0.00000000000E+00 0. -1.
        -12    1    4    4    0    0 -0.19869065034E+02 -0.14074579785E+02 -0.96929005550E+02  0.99940510597E+02  0.00000000000E+00 0.  1.
        -13    1    3    3    0    0  0.11080375826E+03  0.80603676225E+02 -0.59583729420E+03  0.61138899779E+03  0.00000000000E+00 0. -1.
         13    1    3    3    0    0 -0.14986069728E+02  0.25570548415E+02 -0.78559070463E+02  0.83964056501E+02  0.00000000000E+00 0.  1.
          2    1    1    2  501    0 -0.13685185611E+03  0.18157119318E+02 -0.11902967944E+03  0.18228048741E+03  0.00000000000E+00 0. -1.
<scales pt_clust_5="13000.00000" pt_clust_6="13000.00000" pt_clust_7="13000.00000" pt_clust_8="13000.00000" pt_clust_9="138.05112"></scales>
<clustering>
<clus scale="   80.171">  5  6 -1 -1</clus>
<clus scale="   90.837">  7  8 -1 -1</clus>
<clus scale="  138.051">  1  9  2 -1</clus>
<clus scale="  144.623">  1  5  2 -1</clus>
<clus scale="  138.051">  1  5  2 -1</clus>
</clustering>
</event>
<event>
 9    1  0.7586638E-005  0.2255238E+03  0.7546771E-02  0.1161464E+00
          1   -1    0    0  502    0 -0.00000000000E+00  0.00000000000E+00  0.13934482138E+04  0.13934482138E+04  0.00000000000E+00 0. -1.
         21   -1    0    0  501  502  0.00000000000E+00 -0.00000000000E+00 -0.85735869148E+02  0.85735869148E+02  0.00000000000E+00 0. -1.
        -24    2    1    2    0    0 -0.34131240543E+02 -0.58495945495E+02  0.75523350121E+02  0.13010747069E+03  0.81470610011E+02 0.  0.
         23    2    1    2    0    0 -0.14790969206E+03  0.15830180561E+03  0.10406879730E+04  0.10666359068E+04  0.87999783201E+02 0.  0.
         13    1    3    3    0    0  0.13069342177E+02 -0.31549476667E+02  0.66852306310E+02  0.75069354878E+02  0.00000000000E+00 0. -1.
        -14    1    3    3    0    0 -0.47200582719E+02 -0.26946468828E+02  0.86710438107E+01  0.55038115812E+02  0.00000000000E+00 0.  1.
        -11    1    4    4    0    0 -0.15010544840E+03  0.13319135439E+03  0.98868982241E+03  0.10088504089E+04  0.00000000000E+00 0. -1.
         11    1    4    4    0    0  0.21957563396E+01  0.25110451221E+02  0.51998150624E+02  0.57785497962E+02  0.00000000000E+00 0.  1.
          2    1    1    2  501    0  0.18204093260E+03 -0.99805860116E+02  0.19150102152E+03  0.28244070546E+03  0.00000000000E+00 0. -1.
<scales pt_clust_5="13000.00000" pt_clust_6="13000.00000" pt_clust_7="13000.00000" pt_clust_8="13000.00000" pt_clust_9="207.64637"></scales>
<clustering>
<clus scale="   81.471">  5  6 -1 -1</clus>
<clus scale="   88.000">  7  8 -1 -1</clus>
<clus scale="  105.944">  1  5  2 -1</clus>
<clus scale="  207.646">  2  9  1 -1</clus>
<clus scale="  207.646">  2  5  1 -1</clus>
</clustering>
</event>
<event>
 9    1  0.7586638E-005  0.1153394E+03  0.7546771E-02  0.1255373E+00
          3   -1    0    0  502    0 -0.00000000000E+00  0.00000000000E+00  0.29294012446E+03  0.29294012446E+03  0.00000000000E+00 0. -1.
         21   -1    0    0  501  502  0.00000000000E+00 -0.00000000000E+00 -0.10807159183E+03  0.10807159183E+03  0.00000000000E+00 0. -1.
         23    2    1    2    0    0 -0.58525955052E+02 -0.48809376576E+02  0.20637979629E+03  0.23890825229E+03  0.93149825765E+02 0.  0.
        -24    2    1    2    0    0  0.52731642060E+02  0.11653873434E+02  0.26764691587E+02  0.10090972795E+03  0.80931981554E+02 0.  0.
         11    1    4    4    0    0  0.64758936787E+02 -0.12714214551E+02  0.51659433817E+01  0.66197115620E+02  0.00000000000E+00 0. -1.
        -12    1    4    4    0    0 -0.12027294726E+02  0.24368087986E+02  0.21598748205E+02  0.34712612327E+02  0.00000000000E+00 0.  1.
        -13    1    3    3    0    0 -0.14293865075E+02 -0.47312862858E+02  0.18155845783E+03  0.18816560573E+03  0.00000000000E+00 0.  1.
         13    1    3    3    0    0 -0.44232089977E+02 -0.14965137182E+01  0.24821338461E+02  0.50742646561E+02  0.00000000000E+00 0. -1.
          4    1    1    2  501    0  0.57943129917E+01  0.37155503142E+02 -0.48275955247E+02  0.61193736050E+02  0.00000000000E+00 0. -1.
<scales pt_clust_5="13000.00000" pt_clust_6="13000.00000" pt_clust_7="13000.00000" pt_clust_8="13000.00000" pt_clust_9="37.60459"></scales>
<clustering>
<clus scale="   37.605">  2  9  1 -1</clus>
<clus scale="   80.932">  5  6 -1 -1</clus>
<clus scale="   93.150">  7  8 -1 -1</clus>
<clus scale="  105.718">  2  5  1 -1</clus>
<clus scale="   37.605">  2  5  1 -1</clus>
</clustering>
</event>
<event>
 9    1  0.7586638E-005  0.1747829E+03  0.7546771E-02  0.1173336E+00
         21   -1    0    0  501  502  0.00000000000E+00  0.00000000000E+00  0.29962057875E+03  0.29962057875E+03  0.00000000000E+00 0.  1.
          1   -1    0    0  502    0 -0.00000000000E+00 -0.00000000000E+00 -0.20799557111E+03  0.20799557111E+03  0.00000000000E+00 0. -1.
         23    2    1    2    0    0  0.10947586905E+03 -0.90819706792E+02 -0.70734226917E+02  0.17975782973E+03  0.84121111768E+02 0.  0.
        -24    2    1    2    0    0 -0.16091572189E+03  0.84234639687E+02  0.51382155038E+02  0.20536205999E+03  0.80895647293E+02 0.  0.
         11    1    4    4    0    0 -0.13693727932E+03  0.79476724289E+02  0.11709349733E+02  0.15876232879E+03  0.00000000000E+00 0. -1.
        -12    1    4    4    0    0 -0.23978442574E+02  0.47579153976E+01  0.39672805305E+02  0.46599731201E+02  0.00000000000E+00 0.  1.
        -13    1    3    3    0    0  0.36608132712E+02  0.77812836966E+01  0.15010134316E+01  0.37456064902E+02  0.00000000000E+00 0.  1.
         13    1    3    3    0    0  0.72867736334E+02 -0.98600990488E+02 -0.72235240349E+02  0.14230176482E+03  0.00000000000E+00 0. -1.
          2    1    1    2  501    0  0.51439852847E+02  0.65850671048E+01  0.11097707953E+03  0.12249626015E+03  0.00000000000E+00 0. -1.
<scales pt_clust_5="13000.00000" pt_clust_6="13000.00000" pt_clust_7="13000.00000" pt_clust_8="13000.00000" pt_clust_9="51.85963"></scales>
<clustering>
<clus scale="   51.860">  1  9  2 -1</clus>
<clus scale="   80.896">  5  6 -1 -1</clus>
<clus scale="   84.121">  7  8 -1 -1</clus>
<clus scale="  173.254">  1  5  2 -1</clus>
<clus scale="   51.860">  1  5  2 -1</clus>
</clustering>
</event>
<event>
 9    1  0.1006554E-004  0.9446894E+02  0.7546771E-02  0.1299658E+00
         21   -1    0    0  501  502  0.00000000000E+00  0.00000000000E+00  0.10973582357E+03  0.10973582357E+03  0.00000000000E+00 0. -1.
          1   -1    0    0  502    0 -0.00000000000E+00 -0.00000000000E+00 -0.31617751634E+03  0.31617751634E+03  0.00000000000E+00 0. -1.
         23    2    1    2    0    0  0.17568481611E+02  0.23469463780E+01 -0.27327093388E+03  0.28929120867E+03  0.93264357655E+02 0.  0.
        -24    2    1    2    0    0  0.83607238671E+01 -0.17424229233E+02  0.28939310534E+02  0.88297241222E+02  0.81150561583E+02 0.  0.
         11    1    4    4    0    0  0.41877141900E+02 -0.10575139472E+02  0.32285681192E+02  0.53924890344E+02  0.00000000000E+00 0. -1.
        -12    1    4    4    0    0 -0.33516418033E+02 -0.68490897609E+01 -0.33463706577E+01  0.34372350878E+02  0.00000000000E+00 0.  1.
        -13    1    3    3    0    0 -0.25028855094E+02 -0.23148675003E+02 -0.49664180319E+02  0.60239816969E+02  0.00000000000E+00 0.  1.
         13    1    3    3    0    0  0.42597336704E+02  0.25495621381E+02 -0.22360675356E+03  0.22905139171E+03  0.00000000000E+00 0. -1.
          2    1    1    2  501    0 -0.25929205478E+02  0.15077282855E+02  0.37889930578E+02  0.48324890007E+02  0.00000000000E+00 0. -1.
<scales pt_clust_5="13000.00000" pt_clust_6="13000.00000" pt_clust_7="13000.00000" pt_clust_8="13000.00000" pt_clust_9="29.99414"></scales>
<clustering>
<clus scale="   29.994">  1  9  2 -1</clus>
<clus scale="   81.151">  5  6 -1 -1</clus>
<clus scale="   82.532">  1  5  2 -1</clus>
<clus scale="   93.264">  7  8 -1 -1</clus>
<clus scale="   29.994">  1  5  2 -1</clus>
</clustering>
</event>
<event>
 9    1  0.7586638E-005  0.1107212E+03  0.7546771E-02  0.1263520E+00
          1   -1    0    0  502    0 -0.00000000000E+00  0.00000000000E+00  0.40484440749E+03  0.40484440749E+03  0.00000000000E+00 0. -1.
         21   -1    0    0  501  502  0.00000000000E+00 -0.00000000000E+00 -0.10251502742E+03  0.10251502742E+03  0.00000000000E+00 0. -1.
         23    2    1    2    0    0  0.46861552837E+02  0.42654740719E+02  0.13730316821E+03  0.17661229392E+03  0.91237658475E+02 0.  0.
        -24    2    1    2    0    0  0.12957441581E+02 -0.89771481515E+02 -0.27117362818E+02  0.12406513247E+03  0.80187228051E+02 0.  0.
         13    1    4    4    0    0 -0.25458801393E+02 -0.73212215020E+02 -0.27453396110E+02  0.82230577978E+02  0.00000000000E+00 0. -1.
        -14    1    4    4    0    0  0.38416242974E+02 -0.16559266495E+02  0.33603329157E+00  0.41834554491E+02  0.00000000000E+00 0.  1.
        -13    1    3    3    0    0  0.54175744191E+02  0.64261158601E+02  0.84938866660E+02  0.11949526699E+03  0.00000000000E+00 0. -1.
         13    1    3    3    0    0 -0.73141913545E+01 -0.21606417882E+02  0.52364301547E+02  0.57117026930E+02  0.00000000000E+00 0.  1.
          2    1    1    2  501    0 -0.59818994418E+02  0.47116740796E+02  0.19214357468E+03  0.20668200852E+03  0.00000000000E+00 0. -1.
<scales pt_clust_5="13000.00000" pt_clust_6="13000.00000" pt_clust_7="13000.00000" pt_clust_8="13000.00000" pt_clust_9="76.14660"></scales>
<clustering>
<clus scale="   76.147">  2  9  1 -1</clus>
<clus scale="   80.187">  5  6 -1 -1</clus>
<clus scale="   91.238">  7  8 -1 -1</clus>
<clus scale="  101.808">  2  5  1 -1</clus>
<clus scale="   76.147">  2  5  1 -1</clus>
</clustering>
</event>
<event>
 9    1  0.7586638E-005  0.1450153E+03  0.7546771E-02  0.1208522E+00
         21   -1    0    0  501  502  0.00000000000E+00  0.00000000000E+00  0.31238947887E+03  0.31238947887E+03  0.00000000000E+00 0.  1.
         -4   -1    0    0    0  501 -0.00000000000E+00 -0.00000000000E+00 -0.46111228513E+03  0.46111228513E+03  0.00000000000E+00 0.  1.
        -24    2    1    2    0    0 -0.87753443397E+02 -0.76754526550E+02 -0.27903374060E+03  0.31783585595E+03  0.97815534352E+02 0.  0.
         23    2    1    2    0    0  0.91021448660E+02  0.34903689077E+02 -0.13381821619E+03  0.18822174449E+03  0.89537358045E+02 0.  0.
         13    1    3    3    0    0 -0.91958202601E+02 -0.94558694708E+02 -0.22526474663E+03  0.26103996599E+03  0.00000000000E+00 0. -1.
        -14    1    3    3    0    0  0.42047592038E+01  0.17804168157E+02 -0.53768993970E+02  0.56795889960E+02  0.00000000000E+00 0.  1.
        -13    1    4    4    0    0  0.45491606096E+02  0.52142582652E+02 -0.11842888883E+03  0.13716317604E+03  0.00000000000E+00 0.  1.
         13    1    4    4    0    0  0.45529842564E+02 -0.17238893575E+02 -0.15389327362E+02  0.51058568451E+02  0.00000000000E+00 0. -1.
         -3    1    1    2    0  502 -0.32680052627E+01  0.41850837474E+02  0.26412915054E+03  0.26744416355E+03  0.00000000000E+00 0.  1.
<scales pt_clust_5="13000.00000" pt_clust_6="13000.00000" pt_clust_7="13000.00000" pt_clust_8="13000.00000" pt_clust_9="41.97824"></scales>
<clustering>
<clus scale="   41.978">  1  9  2 -1</clus>
<clus scale="   89.537">  7  8 -1 -1</clus>
<clus scale="   97.816">  5  6 -1 -1</clus>
<clus scale="  139.565">  1  7  2 -1</clus>
<clus scale="   41.978">  1  5  2 -1</clus>
</clustering>
</event>
<event>
 9    1  0.7586638E-005  0.1063283E+03  0.7546771E-02  0.1273102E+00
         21   -1    0    0  501  502  0.00000000000E+00  0.00000000000E+00  0.13336258630E+03  0.13336258630E+03  0.00000000000E+00 0.  1.
         -4   -1    0    0    0  501 -0.00000000000E+00 -0.00000000000E+00 -0.18689195435E+03  0.18689195435E+03  0.00000000000E+00 0.  1.
        -24    2    1    2    0    0  0.47442100945E+02 -0.24098521082E+02 -0.39447968331E+02  0.10418633834E+03  0.80418649775E+02 0.  0.
         23    2    1    2    0    0  0.73104381322E+01  0.80806032974E+02  0.28165756976E+02  0.12663440171E+03  0.93058607130E+02 0.  0.
         11    1    3    3    0    0  0.63632664503E+02 -0.56255481331E+01 -0.46052307258E+02  0.78750097062E+02  0.00000000000E+00 0. -1.
        -12    1    3    3    0    0 -0.16190563558E+02 -0.18472972949E+02  0.66043389269E+01  0.25436241282E+02  0.00000000000E+00 0.  1.
        -11    1    4    4    0    0 -0.29331168179E+01  0.99927606084E+02  0.14552869872E+02  0.10102433199E+03  0.00000000000E+00 0.  1.
         11    1    4    4    0    0  0.10243554950E+02 -0.19121573109E+02  0.13612887103E+02  0.25610069728E+02  0.00000000000E+00 0. -1.
         -3    1    1    2    0  502 -0.54752539078E+02 -0.56707511892E+02 -0.42247156688E+02  0.89433800594E+02  0.00000000000E+00 0.  1.
<scales pt_clust_5="13000.00000" pt_clust_6="13000.00000" pt_clust_7="13000.00000" pt_clust_8="13000.00000" pt_clust_9="78.82632"></scales>
<clustering>
<clus scale="   78.826">  1  9  2 -1</clus>
<clus scale="   80.419">  5  6 -1 -1</clus>
<clus scale="   93.059">  7  8 -1 -1</clus>
<clus scale="   95.462">  2  5  1 -1</clus>
<clus scale="   78.826">  1  5  2 -1</clus>
</clustering>
</event>
<event>
 9    1  0.7586638E-005  0.1197716E+03  0.7546771E-02  0.1247656E+00
         21   -1    0    0  501  502  0.00000000000E+00  0.00000000000E+00  0.12298614534E+03  0.12298614534E+03  0.00000000000E+00 0. -1.
          3   -1    0    0  502    0 -0.00000000000E+00 -0.00000000000E+00 -0.15065592649E+03  0.15065592649E+03  0.00000000000E+00 0. -1.
         23    2    1    2    0    0  0.15593774515E+02  0.80006421155E+02 -0.46272311004E+02  0.13089059188E+03  0.91362065685E+02 0.  0.
        -24    2    1    2    0    0 -0.42313930187E+02 -0.62514291044E+02  0.77055176872E+01  0.10900705510E+03  0.78260192854E+02 0.  0.
         13    1    4    4    0    0 -0.24443106911E+02 -0.58613042007E+02  0.37716296142E+02  0.73861174940E+02  0.00000000000E+00 0. -1.
        -14    1    4    4    0    0 -0.17870823276E+02 -0.39012490365E+01 -0.30010778455E+02  0.35145880158E+02  0.00000000000E+00 0.  1.
        -13    1    3    3    0    0 -0.27458598503E+02  0.26039805972E+01 -0.30154065229E+02  0.40865914850E+02  0.00000000000E+00 0.  1.
         13    1    3    3    0    0  0.43052373018E+02  0.77402440558E+02 -0.16118245775E+02  0.90024677026E+02  0.00000000000E+00 0. -1.
          4    1    1    2  501    0  0.26720155672E+02 -0.17492130112E+02  0.10897012166E+02  0.33744424860E+02  0.00000000000E+00 0. -1.
<scales pt_clust_5="13000.00000" pt_clust_6="13000.00000" pt_clust_7="13000.00000" pt_clust_8="13000.00000" pt_clust_9="31.93652"></scales>
<clustering>
<clus scale="   31.937">  1  9  2 -1</clus>
<clus scale="   78.260">  5  6 -1 -1</clus>
<clus scale="   91.362">  7  8 -1 -1</clus>
<clus scale="  110.104">  1  5  2 -1</clus>
<clus scale="   31.937">  1  5  2 -1</clus>
</clustering>
</event>
<event>
 9    1  0.7586638E-005  0.2307268E+03  0.7546771E-02  0.1127070E+00
          1   -1    0    0  502    0 -0.00000000000E+00  0.00000000000E+00  0.96769770880E+03  0.96769770880E+03  0.00000000000E+00 0. -1.
         21   -1    0    0  501  502  0.00000000000E+00 -0.00000000000E+00 -0.62842783143E+02  0.62842783143E+02  0.00000000000E+00 0.  1.
         23    2    1    2    0    0  0.19600048243E+03  0.56447145838E+02  0.47982064370E+03  0.52982832958E+03  0.94274807456E+02 0.  0.
        -24    2    1    2    0    0 -0.20503924422E+03 -0.77064098494E+02  0.41491940076E+03  0.47603284362E+03  0.80431288309E+02 0.  0.
         13    1    4    4    0    0 -0.10081758289E+03 -0.34476022742E+02  0.28417306269E+03  0.30349153319E+03  0.00000000000E+00 0. -1.
        -14    1    4    4    0    0 -0.10422166133E+03 -0.42588075752E+02  0.13074633807E+03  0.17254131043E+03  0.00000000000E+00 0.  1.
        -13    1    3    3    0    0  0.10633119866E+03  0.78621932667E+02  0.27514187081E+03  0.30527165144E+03  0.00000000000E+00 0. -1.
         13    1    3    3    0    0  0.89669283776E+02 -0.22174786829E+02  0.20467877289E+03  0.22455667814E+03  0.00000000000E+00 0.  1.
          2    1    1    2  501    0  0.90387617819E+01  0.20616952656E+02  0.10114881195E+02  0.24679318730E+02  0.00000000000E+00 0. -1.
<scales pt_clust_5="13000.00000" pt_clust_6="13000.00000" pt_clust_7="13000.00000" pt_clust_8="13000.00000" pt_clust_9="22.51128"></scales>
<clustering>
<clus scale="   22.511">  2  9  1 -1</clus>
<clus scale="   80.431">  5  6 -1 -1</clus>
<clus scale="   94.275">  7  8 -1 -1</clus>
<clus scale="  225.425">  2  5  1 -1</clus>
<clus scale="   22.511">  2  5  1 -1</clus>
</clustering>
</event>
<event>
 9    1  0.7586638E-005  0.1077594E+03  0.7546771E-02  0.1271144E+00
         21   -1    0    0  501  502  0.00000000000E+00  0.00000000000E+00  0.89268279171E+02  0.89268279171E+02  0.00000000000E+00 0.  1.
          3   -1    0    0  502    0 -0.00000000000E+00 -0.00000000000E+00 -0.21600938452E+03  0.21600938452E+03  0.00000000000E+00 0. -1.
         23    2    1    2    0    0 -0.11515529106E+02 -0.42901955921E+02 -0.10524631423E+03  0.14754148126E+03  0.93372998237E+02 0.  0.
        -24    2    1    2    0    0 -0.14796693177E+02  0.73979919691E+02 -0.35650368785E+02  0.11462524122E+03  0.78587699316E+02 0.  0.
         11    1    4    4    0    0  0.30943535446E+02  0.21383837270E+02 -0.22074094014E+02  0.43612343538E+02  0.00000000000E+00 0. -1.
        -12    1    4    4    0    0 -0.45740228623E+02  0.52596082421E+02 -0.13576274770E+02  0.71012897682E+02  0.00000000000E+00 0.  1.
        -11    1    3    3    0    0 -0.43456948474E+02 -0.14257373159E+00 -0.73657184874E+02  0.85521386691E+02  0.00000000000E+00 0.  1.
         11    1    3    3    0    0  0.31941419368E+02 -0.42759382189E+02 -0.31589129356E+02  0.62020094566E+02  0.00000000000E+00 0. -1.
          4    1    1    2  501    0  0.26312222283E+02 -0.31077963770E+02  0.14155577664E+02  0.43110941217E+02  0.00000000000E+00 0. -1.
<scales pt_clust_5="13000.00000" pt_clust_6="13000.00000" pt_clust_7="13000.00000" pt_clust_8="13000.00000" pt_clust_9="40.72067"></scales>
<clustering>
<clus scale="   40.721">  1  9  2 -1</clus>
<clus scale="   78.588">  5  6 -1 -1</clus>
<clus scale="   93.373">  7  8 -1 -1</clus>
<clus scale="   95.234">  1  5  2 -1</clus>
<clus scale="   40.721">  1  5  2 -1</clus>
</clustering>
</event>
<event>
 9    1  0.7586638E-005  0.1244704E+03  0.7546771E-02  0.1247010E+00
          1   -1    0    0  502    0 -0.00000000000E+00  0.00000000000E+00  0.11989219619E+04  0.11989219619E+04  0.00000000000E+00 0. -1.
         21   -1    0    0  501  502  0.00000000000E+00 -0.00000000000E+00 -0.38233736743E+02  0.38233736743E+02  0.00000000000E+00 0.  1.
         23    2    1    2    0    0  0.34947123462E+02  0.68625005320E+01  0.19832425904E+03  0.22183110127E+03  0.92780010866E+02 0.  0.
        -24    2    1    2    0    0 -0.18029310278E+02  0.93145541384E+02  0.14205861551E+03  0.18877230678E+03  0.80331722604E+02 0.  0.
         11    1    4    4    0    0  0.14236533379E+02  0.27222812162E+02  0.99048266147E+02  0.10370303473E+03  0.00000000000E+00 0. -1.
        -12    1    4    4    0    0 -0.32265843657E+02  0.65922729222E+02  0.43010349364E+02  0.85069272052E+02  0.00000000000E+00 0.  1.
        -11    1    3    3    0    0  0.33684379575E+02  0.33540240955E+02  0.42591866689E+02  0.63825169790E+02  0.00000000000E+00 0.  1.
         11    1    3    3    0    0  0.12627438868E+01 -0.26677740423E+02  0.15573239235E+03  0.15800593148E+03  0.00000000000E+00 0. -1.
          2    1    1    2  501    0 -0.16917813184E+02 -0.10000804192E+03  0.82030535061E+03  0.82655229060E+03  0.00000000000E+00 0. -1.
<scales pt_clust_5="13000.00000" pt_clust_6="13000.00000" pt_clust_7="13000.00000" pt_clust_8="13000.00000" pt_clust_9="95.07738"></scales>
<clustering>
<clus scale="   80.332">  5  6 -1 -1</clus>
<clus scale="   92.780">  7  8 -1 -1</clus>
<clus scale="   99.381">  1  7  2 -1</clus>
<clus scale="   95.077">  2  9  1 -1</clus>
<clus scale="   95.077">  2  5  1 -1</clus>
</clustering>
</event>
<event>
 9    1  0.7586638E-005  0.1047052E+03  0.7546771E-02  0.1274566E+00
         -2   -1    0    0    0  501 -0.00000000000E+00  0.00000000000E+00  0.81296028991E+03  0.81296028991E+03  0.00000000000E+00 0.  1.
         21   -1    0    0  501  502  0.00000000000E+00 -0.00000000000E+00 -0.71675030034E+02  0.71675030034E+02  0.00000000000E+00 0.  1.
        -24    2    1    2    0    0  0.75379398540E+01 -0.57793070741E+02  0.45620056448E+03  0.46691369492E+03  0.80576571721E+02 0.  0.
         23    2    1    2    0    0  0.79628282678E+02  0.16948531139E+02  0.44794855070E+01  0.12106439760E+03  0.89490817774E+02 0.  0.
         13    1    3    3    0    0 -0.36634273482E+02 -0.28678487996E+02  0.20914665721E+03  0.21425883853E+03  0.00000000000E+00 0. -1.
        -14    1    3    3    0    0  0.44172213336E+02 -0.29114582744E+02  0.24705390727E+03  0.25265485639E+03  0.00000000000E+00 0.  1.
        -13    1    4    4    0    0  0.33657521190E+02 -0.26281365306E+02  0.30840847657E+02  0.52675390641E+02  0.00000000000E+00 0. -1.
         13    1    4    4    0    0  0.45970761487E+02  0.43229896445E+02 -0.26361362150E+02  0.68389006959E+02  0.00000000000E+00 0.  1.
         -1    1    1    2    0  502 -0.87166222532E+02  0.40844539602E+02  0.28060520989E+03  0.29665722742E+03  0.00000000000E+00 0.  1.
<scales pt_clust_5="13000.00000" pt_clust_6="13000.00000" pt_clust_7="13000.00000" pt_clust_8="13000.00000" pt_clust_9="96.26129"></scales>
<clustering>
<clus scale="   80.577">  5  6 -1 -1</clus>
<clus scale="   89.491">  7  8 -1 -1</clus>
<clus scale="   96.261">  2  9  1 -1</clus>
<clus scale="   97.197">  1  5  2 -1</clus>
<clus scale="   96.261">  2  5  1 -1</clus>
</clustering>
</event>
<event>
 9    1  0.7586638E-005  0.1178042E+03  0.7546771E-02  0.1249653E+00
          1   -1    0    0  502    0 -0.00000000000E+00  0.00000000000E+00  0.20274137272E+03  0.20274137272E+03  0.00000000000E+00 0. -1.
         21   -1    0    0  501  502  0.00000000000E+00 -0.00000000000E+00 -0.13465866270E+03  0.13465866270E+03  0.00000000000E+00 0. -1.
        -24    2    1    2    0    0  0.27359283166E+02 -0.10373972982E+03  0.28879033775E+02  0.13834424891E+03  0.82429792536E+02 0.  0.
         23    2    1    2    0    0 -0.30700468728E+02  0.29072524809E+02 -0.21496946334E+02  0.10277016656E+03  0.91169391546E+02 0.  0.
         11    1    3    3    0    0  0.38080558223E+02 -0.79866066191E+02 -0.12525568442E+02  0.89362225287E+02  0.00000000000E+00 0. -1.
        -12    1    3    3    0    0 -0.10721275057E+02 -0.23873663627E+02  0.41404602217E+02  0.48982023627E+02  0.00000000000E+00 0.  1.
        -11    1    4    4    0    0 -0.51835807383E+02  0.40266738012E+02 -0.35937228484E+02  0.74832115487E+02  0.00000000000E+00 0.  1.
         11    1    4    4    0    0  0.21135338656E+02 -0.11194213203E+02  0.14440282150E+02  0.27938051076E+02  0.00000000000E+00 0. -1.
          2    1    1    2  501    0  0.33411855615E+01  0.74667205009E+02  0.60700622580E+02  0.96285619935E+02  0.00000000000E+00 0. -1.
<scales pt_clust_5="13000.00000" pt_clust_6="13000.00000" pt_clust_7="13000.00000" pt_clust_8="13000.00000" pt_clust_9="74.74196"></scales>
<clustering>
<clus scale="   74.742">  2  9  1 -1</clus>
<clus scale="   82.430">  5  6 -1 -1</clus>
<clus scale="   91.169">  7  8 -1 -1</clus>
<clus scale="  111.178">  1  5  2 -1</clus>
<clus scale="   74.742">  2  5  1 -1</clus>
</clustering>
</event>
<event>
 9    1  0.7586638E-005  0.1136662E+03  0.7546771E-02  0.1261660E+00
         21   -1    0    0  501  502  0.00000000000E+00  0.00000000000E+00  0.37662954456E+02  0.37662954456E+02  0.00000000000E+00 0. -1.
          3   -1    0    0  502    0 -0.00000000000E+00 -0.00000000000E+00 -0.74020598187E+03  0.74020598187E+03  0.00000000000E+00 0. -1.
        -24    2    1    2    0    0  0.66427596321E+02 -0.56888007588E+02 -0.26486703790E+03  0.29032032300E+03  0.80513795231E+02 0.  0.
         23    2    1    2    0    0 -0.15128078524E+02 -0.10799039531E+02 -0.11161388173E+03  0.15060696406E+03  0.99394773577E+02 0.  0.
         11    1    3    3    0    0  0.70728716108E+02 -0.45813278629E+02 -0.12995461376E+03  0.15488579476E+03  0.00000000000E+00 0. -1.
        -12    1    3    3    0    0 -0.43011197873E+01 -0.11074728959E+02 -0.13491242414E+03  0.13543452824E+03  0.00000000000E+00 0.  1.
        -13    1    4    4    0    0 -0.31023603436E+02 -0.39874690872E+02 -0.22076853513E+02  0.55134765831E+02  0.00000000000E+00 0. -1.
         13    1    4    4    0    0  0.15895524911E+02  0.29075651340E+02 -0.89537028214E+02  0.95472198228E+02  0.00000000000E+00 0.  1.
          4    1    1    2  501    0 -0.51299517797E+02  0.67687047119E+02 -0.32606210779E+03  0.33694164927E+03  0.00000000000E+00 0. -1.
<scales pt_clust_5="13000.00000" pt_clust_6="13000.00000" pt_clust_7="13000.00000" pt_clust_8="13000.00000" pt_clust_9="84.93047"></scales>
<clustering>
<clus scale="   80.514">  5  6 -1 -1</clus>
<clus scale="   84.930">  1  9  2 -1</clus>
<clus scale="   97.587">  2  5  1 -1</clus>
<clus scale="   99.395">  7  8 -1 -1</clus>
<clus scale="   84.930">  1  5  2 -1</clus>
</clustering>
</event>
<event>
 9    1  0.7586638E-005  0.3446180E+03  0.7546771E-02  0.1065140E+00
         21   -1    0    0  501  502  0.00000000000E+00  0.00000000000E+00  0.56479362484E+03  0.56479362484E+03  0.00000000000E+00 0.  1.
          1   -1    0    0  502    0 -0.00000000000E+00 -0.00000000000E+00 -0.41576367785E+03  0.41576367785E+03  0.00000000000E+00 0. -1.
        -24    2    1    2    0    0 -0.27321770193E+03  0.90055064215E+02  0.84683908522E+02  0.31064435311E+03  0.81059993333E+02 0.  0.
         23    2    1    2    0    0  0.40632803492E+03 -0.64669500853E+02  0.20994592697E+03  0.47101067431E+03  0.92136565780E+02 0.  0.
         13    1    3    3    0    0 -0.13983853247E+03  0.88031100222E+02  0.40608082201E+02  0.17015671044E+03  0.00000000000E+00 0. -1.
        -14    1    3    3    0    0 -0.13337916946E+03  0.20239639938E+01  0.44075826321E+02  0.14048764267E+03  0.00000000000E+00 0.  1.
        -11    1    4    4    0    0  0.24070381461E+03  0.69684930908E+01  0.11016591731E+03  0.26480826196E+03  0.00000000000E+00 0.  1.
         11    1    4    4    0    0  0.16562422031E+03 -0.71637993944E+02  0.99780009667E+02  0.20620241235E+03  0.00000000000E+00 0. -1.
          2    1    1    2  501    0 -0.13311033300E+03 -0.25385563362E+02 -0.14559988850E+03  0.19890227528E+03  0.00000000000E+00 0. -1.
<scales pt_clust_5="13000.00000" pt_clust_6="13000.00000" pt_clust_7="13000.00000" pt_clust_8="13000.00000" pt_clust_9="135.50943"></scales>
<clustering>
<clus scale="   81.060">  5  6 -1 -1</clus>
<clus scale="   92.137">  7  8 -1 -1</clus>
<clus scale="  135.509">  1  9  2 -1</clus>
<clus scale="  341.823">  2  5  1 -1</clus>
<clus scale="  135.509">  1  5  2 -1</clus>
</clustering>
</event>
<event>
 9    1  0.1815710E-004  0.9729618E+02  0.7546771E-02  0.1295790E+00
          1   -1    0    0  502    0 -0.00000000000E+00  0.00000000000E+00  0.24824935869E+03  0.24824935869E+03  0.00000000000E+00 0. -1.
         21   -1    0    0  501  502  0.00000000000E+00 -0.00000000000E+00 -0.31370685648E+03  0.31370685648E+03  0.00000000000E+00 0. -1.
        -24    2    1    2    0    0  0.89443995069E+00  0.88002829249E+01  0.22571772052E+03  0.23989944734E+03  0.80777536937E+02 0.  0.
         23    2    1    2    0    0  0.13857451378E+02  0.24452083376E+02 -0.20507377496E+03  0.22858593436E+03  0.96986302491E+02 0.  0.
         13    1    3    3    0    0  0.23054363178E+01  0.44927230806E+02  0.11864048011E+03  0.12688315343E+03  0.00000000000E+00 0. -1.
        -14    1    3    3    0    0 -0.14109963671E+01 -0.36126947881E+02  0.10707724041E+03  0.11301629391E+03  0.00000000000E+00 0.  1.
        -11    1    4    4    0    0 -0.95373362491E+01  0.58059601349E+02 -0.10326747433E+03  0.11885305779E+03  0.00000000000E+00 0. -1.
         11    1    4    4    0    0  0.23394787627E+02 -0.33607517973E+02 -0.10180630063E+03  0.10973287657E+03  0.00000000000E+00 0.  1.
          2    1    1    2  501    0 -0.14751891329E+02 -0.33252366301E+02 -0.86101443349E+02  0.93470833468E+02  0.00000000000E+00 0. -1.
<scales pt_clust_5="13000.00000" pt_clust_6="13000.00000" pt_clust_7="13000.00000" pt_clust_8="13000.00000" pt_clust_9="36.37772"></scales>
<clustering>
<clus scale="   36.378">  2  9  1 -1</clus>
<clus scale="   80.778">  5  6 -1 -1</clus>
<clus scale="   81.149">  1  5  2 -1</clus>
<clus scale="   96.986">  7  8 -1 -1</clus>
<clus scale="   36.378">  2  5  1 -1</clus>
</clustering>
</event>
<event>
 9    1  0.7586638E-005  0.9223239E+02  0.7546771E-02  0.1301043E+00
         21   -1    0    0  501  502  0.00000000000E+00  0.00000000000E+00  0.47984414746E+03  0.47984414746E+03  0.00000000000E+00 0. -1.
          1   -1    0    0  502    0 -0.00000000000E+00 -0.00000000000E+00 -0.69385623404E+02  0.69385623404E+02  0.00000000000E+00 0. -1.
         23    2    1    2    0    0  0.83709631455E+01  0.14820743372E+02 -0.14257069186E+02  0.93450907821E+02  0.90774890210E+02 0.  0.
        -24    2    1    2    0    0  0.32217982968E+02 -0.22270744156E+02  0.14165157145E+03  0.16972256527E+03  0.84891678024E+02 0.  0.
         11    1    4    4    0    0  0.33484915657E+02 -0.52065206868E+02  0.11009174473E+03  0.12630208866E+03  0.00000000000E+00 0. -1.
        -12    1    4    4    0    0 -0.12669326892E+01  0.29794462711E+02  0.31559826716E+02  0.43420476610E+02  0.00000000000E+00 0.  1.
        -13    1    3    3    0    0  0.21514325214E+02 -0.32938759174E+02 -0.18998500840E+02  0.43689484770E+02  0.00000000000E+00 0.  1.
         13    1    3    3    0    0 -0.13143362069E+02  0.47759502546E+02  0.47414316538E+01  0.49761423051E+02  0.00000000000E+00 0. -1.
          2    1    1    2  501    0 -0.40588946113E+02  0.74500007840E+01  0.28306402180E+03  0.28605629777E+03  0.00000000000E+00 0. -1.
<scales pt_clust_5="13000.00000" pt_clust_6="13000.00000" pt_clust_7="13000.00000" pt_clust_8="13000.00000" pt_clust_9="41.26700"></scales>
<clustering>
<clus scale="   41.267">  1  9  2 -1</clus>
<clus scale="   84.892">  5  6 -1 -1</clus>
<clus scale="   86.448">  1  5  2 -1</clus>
<clus scale="   90.775">  7  8 -1 -1</clus>
<clus scale="   41.267">  1  5  2 -1</clus>
</clustering>
</event>
<event>
 9    1  0.7586638E-005  0.1137178E+03  0.7546771E-02  0.1257856E+00
         21   -1    0    0  501  502  0.00000000000E+00  0.00000000000E+00  0.13930670180E+03  0.13930670180E+03  0.00000000000E+00 0.  1.
          1   -1    0    0  502    0 -0.00000000000E+00 -0.00000000000E+00 -0.20676113366E+03  0.20676113366E+03  0.00000000000E+00 0. -1.
        -24    2    1    2    0    0 -0.62393817935E+02  0.50362320889E+02 -0.12242904122E+03  0.16686971429E+03  0.80170315777E+02 0.  0.
         23    2    1    2    0    0  0.21296854591E+02 -0.15700836440E+01  0.65760926263E+02  0.11449891372E+03  0.91265988423E+02 0.  0.
         13    1    3    3    0    0 -0.81041979778E+02  0.42372443480E+02 -0.88038120869E+02  0.12694068370E+03  0.00000000000E+00 0. -1.
        -14    1    3    3    0    0  0.18648161843E+02  0.79898774088E+01 -0.34390920350E+02  0.39929030588E+02  0.00000000000E+00 0.  1.
        -13    1    4    4    0    0  0.52998367199E+02 -0.19784235045E+02  0.33542589402E+02  0.65767379344E+02  0.00000000000E+00 0.  1.
         13    1    4    4    0    0 -0.31701512608E+02  0.18214151401E+02  0.32218336861E+02  0.48731534379E+02  0.00000000000E+00 0. -1.
          2    1    1    2  501    0  0.41096963344E+02 -0.48792237245E+02 -0.10786316900E+02  0.64699207443E+02  0.00000000000E+00 0. -1.
<scales pt_clust_5="13000.00000" pt_clust_6="13000.00000" pt_clust_7="13000.00000" pt_clust_8="13000.00000" pt_clust_9="63.79375"></scales>
<clustering>
<clus scale="   63.794">  1  9  2 -1</clus>
<clus scale="   80.170">  5  6 -1 -1</clus>
<clus scale="   91.266">  7  8 -1 -1</clus>
<clus scale="  105.022">  2  5  1 -1</clus>
<clus scale="   63.794">  1  5  2 -1</clus>
</clustering>
</event>
<event>
 9    1  0.7586638E-005  0.1760128E+03  0.7546771E-02  0.1203029E+00
         21   -1    0    0  501  502  0.00000000000E+00  0.00000000000E+00  0.77580796846E+02  0.77580796846E+02  0.00000000000E+00 0. -1.
          1   -1    0    0  502    0 -0.00000000000E+00 -0.00000000000E+00 -0.15589453836E+04  0.15589453836E+04  0.00000000000E+00 0. -1.
        -24    2    1    2    0    0  0.26893448729E+02 -0.35175799195E+02  0.26549206732E+02  0.91765631070E+02  0.75864855065E+02 0.  0.
         23    2    1    2    0    0 -0.12104486649E+03 -0.86961267945E+02 -0.65882276389E+03  0.68177878296E+03  0.92524336473E+02 0.  0.
         11    1    3    3    0    0  0.31314387303E+02  0.63530330640E+01 -0.12766028568E+02  0.34408187495E+02  0.00000000000E+00 0. -1.
        -12    1    3    3    0    0 -0.44209385742E+01 -0.41528832259E+02  0.39315235301E+02  0.57357443574E+02  0.00000000000E+00 0.  1.
        -11    1    4    4    0    0 -0.10879060570E+02  0.18765393213E+02 -0.60173244108E+02  0.63963374268E+02  0.00000000000E+00 0.  1.
         11    1    4    4    0    0 -0.11016580592E+03 -0.10572666116E+03 -0.59864951978E+03  0.61781540869E+03  0.00000000000E+00 0. -1.
          2    1    1    2  501    0  0.94151417765E+02  0.12213706714E+03 -0.84909102958E+03  0.86298176640E+03  0.00000000000E+00 0. -1.
<scales pt_clust_5="13000.00000" pt_clust_6="13000.00000" pt_clust_7="13000.00000" pt_clust_8="13000.00000" pt_clust_9="149.73235"></scales>
<clustering>
<clus scale="   75.865">  5  6 -1 -1</clus>
<clus scale="   87.841">  2  5  1 -1</clus>
<clus scale="   92.524">  7  8 -1 -1</clus>
<clus scale="  149.732">  1  9  2 -1</clus>
<clus scale="  149.732">  1  5  2 -1</clus>
</clustering>
</event>
<event>
 9    1  0.7586638E-005  0.1117984E+03  0.7546771E-02  0.1260927E+00
          3   -1    0    0  502    0 -0.00000000000E+00  0.00000000000E+00  0.68341529410E+02  0.68341529410E+02  0.00000000000E+00 0. -1.
         21   -1    0    0  501  502  0.00000000000E+00 -0.00000000000E+00 -0.43337477130E+03  0.43337477130E+03  0.00000000000E+00 0. -1.
        -24    2    1    2    0    0  0.34388822630E+02  0.39479938668E+02 -0.52349012611E+02  0.10982797930E+03  0.81120338003E+02 0.  0.
         23    2    1    2    0    0 -0.45238321201E+02 -0.10661202936E+03 -0.28023122861E+03  0.31653829504E+03  0.90853289612E+02 0.  0.
         13    1    3    3    0    0  0.47476613777E+02  0.48889543258E+02 -0.61063450645E+02  0.91503886805E+02  0.00000000000E+00 0. -1.
        -14    1    3    3    0    0 -0.13087791148E+02 -0.94096045903E+01  0.87144380348E+01  0.18324092500E+02  0.00000000000E+00 0.  1.
        -13    1    4    4    0    0 -0.47152457976E+02 -0.91743109207E+01 -0.71000570263E+02  0.85723994609E+02  0.00000000000E+00 0.  1.
         13    1    4    4    0    0  0.19141367746E+01 -0.97437718440E+02 -0.20923065834E+03  0.23081430044E+03  0.00000000000E+00 0. -1.
          4    1    1    2  501    0  0.10849498572E+02  0.67132090693E+02 -0.32453000674E+02  0.75350026362E+02  0.00000000000E+00 0. -1.
<scales pt_clust_5="13000.00000" pt_clust_6="13000.00000" pt_clust_7="13000.00000" pt_clust_8="13000.00000" pt_clust_9="68.00319"></scales>
<clustering>
<clus scale="   68.003">  2  9  1 -1</clus>
<clus scale="   81.120">  5  6 -1 -1</clus>
<clus scale="   90.853">  7  8 -1 -1</clus>
<clus scale="  104.044">  1  5  2 -1</clus>
<clus scale="   68.003">  2  5  1 -1</clus>
</clustering>
</event>
