<event>
 9    2  0.6190160E-005  0.1350765E+03  0.7546771E-02  0.1224632E+00
          2   -1    0    0  502    0 -0.00000000000E+00  0.00000000000E+00  0.30085128172E+03  0.30085128172E+03  0.00000000000E+00 0. -1.
         21   -1    0    0  501  502  0.00000000000E+00 -0.00000000000E+00 -0.31301807464E+03  0.31301807464E+03  0.00000000000E+00 0. -1.
         23    2    1    2    0    0 -0.46175660278E+02 -0.74834358549E+02  0.22015951453E+03  0.25597165421E+03  0.96534465864E+02 0.  0.
         24    2    1    2    0    0  0.55226197117E+02  0.11786810220E+03 -0.35392156620E+02  0.15611347316E+03  0.78587463305E+02 0.  0.
        -11    1    4    4    0    0  0.51123017676E+02  0.73272065687E+02 -0.57420287444E+02  0.10620474545E+03  0.00000000000E+00 0.  1.
         12    1    4    4    0    0  0.41031794411E+01  0.44596036509E+02  0.22028130824E+02  0.49908727708E+02  0.00000000000E+00 0. -1.
        -11    1    3    3    0    0 -0.63758346162E+02 -0.18834168922E+02  0.80002292087E+02  0.10402028342E+03  0.00000000000E+00 0.  1.
         11    1    3    3    0    0  0.17582685884E+02 -0.56000189627E+02  0.14015722244E+03  0.15195137079E+03  0.00000000000E+00 0. -1.
          1    1    1    2  501    0 -0.90505368388E+01 -0.43033743648E+02 -0.19693415082E+03  0.20178422899E+03  0.00000000000E+00 0. -1.
<scales pt_clust_5="13000.00000" pt_clust_6="13000.00000" pt_clust_7="13000.00000" pt_clust_8="13000.00000" pt_clust_9="43.97517"></scales>
<clustering>
<clus scale="   43.975">  2  9  1 -1</clus>
<clus scale="   78.587">  5  6 -1 -1</clus>
<clus scale="   96.534">  7  8 -1 -1</clus>
<clus scale="  122.893">  2  5  1 -1</clus>
<clus scale="   43.975">  2  5  1 -1</clus>
</clustering>
</event>
<event>
 9    2  0.6190160E-005  0.1041460E+03  0.7546771E-02  0.1277201E+00
         21   -1    0    0  501  502  0.00000000000E+00  0.00000000000E+00  0.43220815593E+02  0.43220815593E+02  0.00000000000E+00 0. -1.
          2   -1    0    0  502    0 -0.00000000000E+00 -0.00000000000E+00 -0.64873491131E+03  0.64873491131E+03  0.00000000000E+00 0. -1.
         24    2    1    2    0    0  0.47190679254E+02 -0.54189079170E+02 -0.40731501413E+03  0.42124334724E+03  0.79856247997E+02 0.  0.
         23    2    1    2    0    0 -0.95287637163E+01  0.11798816746E+02 -0.19246005732E+03  0.21371860255E+03  0.91677467238E+02 0.  0.
        -13    1    3    3    0    0  0.63523247483E+02 -0.50196596347E+02 -0.38433051975E+03  0.39276564216E+03  0.00000000000E+00 0.  1.
         14    1    3    3    0    0 -0.16332568229E+02 -0.39924828236E+01 -0.22984494385E+02  0.28477705072E+02  0.00000000000E+00 0. -1.
        -11    1    4    4    0    0 -0.28973726347E+02  0.45360431846E+02 -0.10312217714E+03  0.11632381104E+03  0.00000000000E+00 0.  1.
         11    1    4    4    0    0  0.19444962631E+02 -0.33561615100E+02 -0.89337880173E+02  0.97394791512E+02  0.00000000000E+00 0. -1.
          1    1    1    2  501    0 -0.37661915537E+02  0.42390262424E+02 -0.57390242674E+01  0.56993777116E+02  0.00000000000E+00 0. -1.
<scales pt_clust_5="13000.00000" pt_clust_6="13000.00000" pt_clust_7="13000.00000" pt_clust_8="13000.00000" pt_clust_9="56.70409"></scales>
<clustering>
<clus scale="   56.704">  1  9  2 -1</clus>
<clus scale="   79.856">  5  6 -1 -1</clus>
<clus scale="   91.677">  7  8 -1 -1</clus>
<clus scale="   93.908">  2  5  1 -1</clus>
<clus scale="   56.704">  1  5  2 -1</clus>
</clustering>
</event>
<event>
 9    2  0.6190160E-005  0.9130066E+02  0.7546771E-02  0.1303976E+00
         21   -1    0    0  501  502  0.00000000000E+00  0.00000000000E+00  0.71963365428E+03  0.71963365428E+03  0.00000000000E+00 0.  1.
         -3   -1    0    0    0  501 -0.00000000000E+00 -0.00000000000E+00 -0.17799028175E+02  0.17799028175E+02  0.00000000000E+00 0.  1.
         23    2    1    2    0    0 -0.10195481463E+02 -0.64191447697E+01  0.25939968844E+03  0.27485356894E+03  0.90061827295E+02 0.  0.
         24    2    1    2    0    0 -0.32191405762E+02  0.14395667270E+02  0.26416290444E+03  0.27916376260E+03  0.83107427021E+02 0.  0.
        -13    1    4    4    0    0 -0.51653629789E+02  0.33051357218E+02  0.15424510744E+03  0.16598808046E+03  0.00000000000E+00 0.  1.
         14    1    4    4    0    0  0.19462224027E+02 -0.18655689948E+02  0.10991779699E+03  0.11317568214E+03  0.00000000000E+00 0. -1.
        -11    1    3    3    0    0 -0.26661654659E+02 -0.42656122950E+02  0.16216352402E+03  0.16978632800E+03  0.00000000000E+00 0. -1.
         11    1    3    3    0    0  0.16466173197E+02  0.36236978180E+02  0.97236164418E+02  0.10506724094E+03  0.00000000000E+00 0.  1.
         -4    1    1    2    0  502  0.42386887225E+02 -0.79765225003E+01  0.17827203324E+03  0.18341535092E+03  0.00000000000E+00 0.  1.
<scales pt_clust_5="13000.00000" pt_clust_6="13000.00000" pt_clust_7="13000.00000" pt_clust_8="13000.00000" pt_clust_9="43.13088"></scales>
<clustering>
<clus scale="   43.131">  1  9  2 -1</clus>
<clus scale="   83.107">  5  6 -1 -1</clus>
<clus scale="   84.448">  1  5  2 -1</clus>
<clus scale="   90.062">  7  8 -1 -1</clus>
<clus scale="   43.131">  1  5  2 -1</clus>
</clustering>
</event>
<event>
 9    2  0.6190160E-005  0.1048288E+03  0.7546771E-02  0.1274838E+00
         21   -1    0    0  501  502  0.00000000000E+00  0.00000000000E+00  0.12972531190E+03  0.12972531190E+03  0.00000000000E+00 0.  1.
         -1   -1    0    0    0  501 -0.00000000000E+00 -0.00000000000E+00 -0.14699564730E+03  0.14699564730E+03  0.00000000000E+00 0.  1.
         24    2    1    2    0    0  0.23030776216E+02  0.41455384104E+02 -0.11494633403E+02  0.93420338391E+02  0.79663464045E+02 0.  0.
         23    2    1    2    0    0 -0.77063234887E+02 -0.17717217719E+02  0.15420136019E+02  0.12059280086E+03  0.89734057355E+02 0.  0.
        -13    1    3    3    0    0  0.25718159770E+02  0.26641271709E+02 -0.44053419393E+02  0.57548977927E+02  0.00000000000E+00 0.  1.
         14    1    3    3    0    0 -0.26873835545E+01  0.14814112396E+02  0.32558785990E+02  0.35871360465E+02  0.00000000000E+00 0. -1.
        -13    1    4    4    0    0  0.13003745458E+02 -0.22155505972E+02 -0.89116064939E+01  0.27191553305E+02  0.00000000000E+00 0. -1.
         13    1    4    4    0    0 -0.90066980345E+02  0.44382882531E+01  0.24331742513E+02  0.93401247555E+02  0.00000000000E+00 0.  1.
         -2    1    1    2    0  502  0.54032458671E+02 -0.23738166385E+02 -0.21195838011E+02  0.62707819946E+02  0.00000000000E+00 0.  1.
<scales pt_clust_5="13000.00000" pt_clust_6="13000.00000" pt_clust_7="13000.00000" pt_clust_8="13000.00000" pt_clust_9="59.01704"></scales>
<clustering>
<clus scale="   59.017">  1  9  2 -1</clus>
<clus scale="   79.663">  5  6 -1 -1</clus>
<clus scale="   89.734">  7  8 -1 -1</clus>
<clus scale="   96.349">  2  5  1 -1</clus>
<clus scale="   59.017">  1  5  2 -1</clus>
</clustering>
</event>
<event>
 9    2  0.6190160E-005  0.1777804E+03  0.7546771E-02  0.1171282E+00
          2   -1    0    0  502    0 -0.00000000000E+00  0.00000000000E+00  0.38320574996E+03  0.38320574996E+03  0.00000000000E+00 0. -1.
         21   -1    0    0  501  502  0.00000000000E+00 -0.00000000000E+00 -0.19910581114E+03  0.19910581114E+03  0.00000000000E+00 0. -1.
         23    2    1    2    0    0 -0.13609579886E+03  0.85995075218E+02  0.27534013881E+03  0.33165813985E+03  0.90926950122E+02 0.  0.
         24    2    1    2    0    0  0.79161684305E+02 -0.10826934697E+03 -0.21200536911E+02  0.15768465775E+03  0.80163363007E+02 0.  0.
        -11    1    4    4    0    0  0.84434604468E+02 -0.11802281390E+03 -0.18668401784E+02  0.14631164088E+03  0.00000000000E+00 0.  1.
         12    1    4    4    0    0 -0.52729201632E+01  0.97534669335E+01 -0.25321351269E+01  0.11373016863E+02  0.00000000000E+00 0. -1.
        -11    1    3    3    0    0 -0.77763689327E+02  0.98097994960E+02  0.18054590791E+03  0.21969804928E+03  0.00000000000E+00 0.  1.
         11    1    3    3    0    0 -0.58332109535E+02 -0.12102919741E+02  0.94794230903E+02  0.11196009058E+03  0.00000000000E+00 0. -1.
          1    1    1    2  501    0  0.56934114558E+02  0.22274271751E+02 -0.70039663080E+02  0.92968763501E+02  0.00000000000E+00 0. -1.
<scales pt_clust_5="13000.00000" pt_clust_6="13000.00000" pt_clust_7="13000.00000" pt_clust_8="13000.00000" pt_clust_9="61.13621"></scales>
<clustering>
<clus scale="   61.136">  2  9  1 -1</clus>
<clus scale="   80.163">  5  6 -1 -1</clus>
<clus scale="   90.927">  7  8 -1 -1</clus>
<clus scale="  172.523">  2  5  1 -1</clus>
<clus scale="   61.136">  2  5  1 -1</clus>
</clustering>
</event>
<event>
 9    2  0.6190160E-005  0.1303817E+03  0.7546771E-02  0.1229772E+00
          2   -1    0    0  502    0 -0.00000000000E+00  0.00000000000E+00  0.39870144735E+03  0.39870144735E+03  0.00000000000E+00 0. -1.
         21   -1    0    0  501  502  0.00000000000E+00 -0.00000000000E+00 -0.16876446916E+03  0.16876446916E+03  0.00000000000E+00 0. -1.
         23    2    1    2    0    0 -0.85014331719E+02 -0.41200041887E+02  0.23364851398E+03  0.26794066009E+03  0.90970815082E+02 0.  0.
         24    2    1    2    0    0  0.97971975139E+02 -0.12584242359E+02 -0.11750428103E+03  0.17299684608E+03  0.79773313993E+02 0.  0.
        -13    1    4    4    0    0  0.54778635485E+02  0.25208780164E+02 -0.92440749015E+02  0.11036971315E+03  0.00000000000E+00 0.  1.
         14    1    4    4    0    0  0.43193339654E+02 -0.37793022523E+02 -0.25063532015E+02  0.62627132929E+02  0.00000000000E+00 0. -1.
        -13    1    3    3    0    0 -0.84932251402E+02 -0.36556677609E+01  0.20080305387E+03  0.21805668455E+03  0.00000000000E+00 0.  1.
         13    1    3    3    0    0 -0.82080316466E-01 -0.37544374126E+02  0.32845460108E+02  0.49883975538E+02  0.00000000000E+00 0. -1.
          1    1    1    2  501    0 -0.12957643420E+02  0.53784284246E+02  0.11379274524E+03  0.12652841034E+03  0.00000000000E+00 0. -1.
<scales pt_clust_5="13000.00000" pt_clust_6="13000.00000" pt_clust_7="13000.00000" pt_clust_8="13000.00000" pt_clust_9="55.32317"></scales>
<clustering>
<clus scale="   55.323">  2  9  1 -1</clus>
<clus scale="   79.773">  5  6 -1 -1</clus>
<clus scale="   90.971">  7  8 -1 -1</clus>
<clus scale="  122.831">  2  5  1 -1</clus>
<clus scale="   55.323">  2  5  1 -1</clus>
</clustering>
</event>
<event>
 9    2  0.6190160E-005  0.1029879E+03  0.7546771E-02  0.1277163E+00
          2   -1    0    0  502    0 -0.00000000000E+00  0.00000000000E+00  0.13236616436E+03  0.13236616436E+03  0.00000000000E+00 0. -1.
         21   -1    0    0  501  502  0.00000000000E+00 -0.00000000000E+00 -0.12187690779E+03  0.12187690779E+03  0.00000000000E+00 0.  1.
         23    2    1    2    0    0  0.59447314950E+02  0.30354036150E+01  0.68410334786E+02  0.12642796510E+03  0.88095740673E+02 0.  0.
         24    2    1    2    0    0 -0.38859520172E+02 -0.70974958236E+01 -0.35357647002E+02  0.97001695761E+02  0.81232561354E+02 0.  0.
        -11    1    4    4    0    0 -0.53021160468E+02 -0.31691348741E+02 -0.21373831174E+02  0.65363795035E+02  0.00000000000E+00 0.  1.
         12    1    4    4    0    0  0.14161640296E+02  0.24593852918E+02 -0.13983815828E+02  0.31637900725E+02  0.00000000000E+00 0. -1.
        -11    1    3    3    0    0 -0.14635003128E+02  0.25070532024E+02  0.18927277232E+02  0.34654822405E+02  0.00000000000E+00 0.  1.
         11    1    3    3    0    0  0.74082318078E+02 -0.22035128409E+02  0.49483057554E+02  0.91773142698E+02  0.00000000000E+00 0. -1.
          1    1    1    2  501    0 -0.20587794779E+02  0.40620922085E+01 -0.22563431209E+02  0.30813411283E+02  0.00000000000E+00 0. -1.
<scales pt_clust_5="13000.00000" pt_clust_6="13000.00000" pt_clust_7="13000.00000" pt_clust_8="13000.00000" pt_clust_9="20.98471"></scales>
<clustering>
<clus scale="   20.985">  2  9  1 -1</clus>
<clus scale="   81.233">  5  6 -1 -1</clus>
<clus scale="   88.096">  7  8 -1 -1</clus>
<clus scale="   97.182">  2  5  1 -1</clus>
<clus scale="   20.985">  2  5  1 -1</clus>
</clustering>
</event>
<event>
 9    2  0.6190160E-005  0.9072955E+02  0.7546771E-02  0.1310174E+00
         -1   -1    0    0    0  501 -0.00000000000E+00  0.00000000000E+00  0.11248931573E+03  0.11248931573E+03  0.00000000000E+00 0.  1.
         21   -1    0    0  501  502  0.00000000000E+00 -0.00000000000E+00 -0.91837796313E+03  0.91837796313E+03  0.00000000000E+00 0. -1.
         23    2    1    2    0    0  0.15748880983E+02  0.13512127783E+02  0.81742437982E+02  0.12198186618E+03  0.88131405640E+02 0.  0.
         24    2    1    2    0    0 -0.80745677122E+02  0.27507913253E+02 -0.63503813491E+03  0.64485809231E+03  0.72745974196E+02 0.  0.
        -11    1    4    4    0    0 -0.33222402369E+02 -0.18247083530E+02 -0.12643076863E+03  0.13199023954E+03  0.00000000000E+00 0.  1.
         12    1    4    4    0    0 -0.47523274753E+02  0.45754996783E+02 -0.50860736628E+03  0.51286785277E+03  0.00000000000E+00 0. -1.
        -13    1    3    3    0    0  0.44408069774E+02 -0.16916521684E+02  0.53378649056E+02  0.71466954196E+02  0.00000000000E+00 0.  1.
         13    1    3    3    0    0 -0.28659188792E+02  0.30428649467E+02  0.28363788926E+02  0.50514911984E+02  0.00000000000E+00 0. -1.
         -2    1    1    2    0  502  0.64996796139E+02 -0.41020041036E+02 -0.25259295047E+03  0.26402732037E+03  0.00000000000E+00 0.  1.
<scales pt_clust_5="13000.00000" pt_clust_6="13000.00000" pt_clust_7="13000.00000" pt_clust_8="13000.00000" pt_clust_9="76.85849"></scales>
<clustering>
<clus scale="   72.746">  5  6 -1 -1</clus>
<clus scale="   76.858">  2  9  1 -1</clus>
<clus scale="   76.858">  2  5  1 -1</clus>
<clus scale="   88.131">  7  8 -1 -1</clus>
<clus scale="   76.858">  2  5  1 -1</clus>
</clustering>
</event>
<event>
 9    2  0.6190160E-005  0.9767419E+02  0.7546771E-02  0.1290438E+00
         21   -1    0    0  501  502  0.00000000000E+00  0.00000000000E+00  0.38158275066E+02  0.38158275066E+02  0.00000000000E+00 0.  1.
         -1   -1    0    0    0  501 -0.00000000000E+00 -0.00000000000E+00 -0.76457709850E+03  0.76457709850E+03  0.00000000000E+00 0.  1.
         23    2    1    2    0    0 -0.32094989906E+00 -0.20663844584E+02 -0.42036762288E+03  0.43047069405E+03  0.90382424116E+02 0.  0.
         24    2    1    2    0    0 -0.56601133383E+02  0.66485154442E+02 -0.26012379316E+03  0.28595684238E+03  0.80516854573E+02 0.  0.
        -11    1    4    4    0    0 -0.53793582808E+02  0.84701503193E+02 -0.22023234481E+03  0.24201318125E+03  0.00000000000E+00 0.  1.
         12    1    4    4    0    0 -0.28075505746E+01 -0.18216348751E+02 -0.39891448349E+02  0.43943661129E+02  0.00000000000E+00 0. -1.
        -11    1    3    3    0    0  0.28262829587E+02  0.25040609218E+02 -0.14221105392E+03  0.14713872197E+03  0.00000000000E+00 0.  1.
         11    1    3    3    0    0 -0.28583779486E+02 -0.45704453802E+02 -0.27815656896E+03  0.28333197208E+03  0.00000000000E+00 0. -1.
         -2    1    1    2    0  502  0.56922083282E+02 -0.45821309858E+02 -0.45927407395E+02  0.86307837143E+02  0.00000000000E+00 0.  1.
<scales pt_clust_5="13000.00000" pt_clust_6="13000.00000" pt_clust_7="13000.00000" pt_clust_8="13000.00000" pt_clust_9="73.07336"></scales>
<clustering>
<clus scale="   73.073">  1  9  2 -1</clus>
<clus scale="   80.517">  5  6 -1 -1</clus>
<clus scale="   88.624">  1  5  2 -1</clus>
<clus scale="   90.382">  7  8 -1 -1</clus>
<clus scale="   73.073">  1  5  2 -1</clus>
</clustering>
</event>
<event>
 9    2  0.6190160E-005  0.1318310E+03  0.7546771E-02  0.1227411E+00
         21   -1    0    0  501  502  0.00000000000E+00  0.00000000000E+00  0.90893120606E+02  0.90893120606E+02  0.00000000000E+00 0. -1.
          2   -1    0    0  502    0 -0.00000000000E+00 -0.00000000000E+00 -0.60638314155E+03  0.60638314155E+03  0.00000000000E+00 0. -1.
         24    2    1    2    0    0 -0.71533328520E+01  0.84536884358E+02 -0.35984289520E+03  0.37835553682E+03  0.80426040702E+02 0.  0.
         23    2    1    2    0    0  0.65376002487E+02 -0.15224592655E+03 -0.10349531256E+03  0.21550793468E+03  0.90992012484E+02 0.  0.
        -13    1    3    3    0    0 -0.32026913315E+02  0.12644568959E+02 -0.17700483940E+03  0.18032282571E+03  0.00000000000E+00 0.  1.
         14    1    3    3    0    0  0.24873580463E+02  0.71892315399E+02 -0.18283805580E+03  0.19803271111E+03  0.00000000000E+00 0. -1.
        -11    1    4    4    0    0 -0.19225289673E+02 -0.93340613064E+01 -0.35124390220E+01  0.21658109136E+02  0.00000000000E+00 0.  1.
         11    1    4    4    0    0  0.84601292159E+02 -0.14291186524E+03 -0.99982873542E+02  0.19384982555E+03  0.00000000000E+00 0. -1.
          1    1    1    2  501    0 -0.58222669635E+02  0.67709042192E+02 -0.52151813177E+02  0.10341279066E+03  0.00000000000E+00 0. -1.
<scales pt_clust_5="13000.00000" pt_clust_6="13000.00000" pt_clust_7="13000.00000" pt_clust_8="13000.00000" pt_clust_9="89.29946"></scales>
<clustering>
<clus scale="   80.426">  5  6 -1 -1</clus>
<clus scale="   89.299">  1  9  2 -1</clus>
<clus scale="   90.992">  7  8 -1 -1</clus>
<clus scale="  124.773">  2  5  1 -1</clus>
<clus scale="   89.299">  1  5  2 -1</clus>
</clustering>
</event>
<event>
 9    2  0.7091500E-005  0.1058517E+03  0.7546771E-02  0.1274031E+00
          4   -1    0    0  502    0 -0.00000000000E+00  0.00000000000E+00  0.49010648042E+03  0.49010648042E+03  0.00000000000E+00 0. -1.
         21   -1    0    0  501  502  0.00000000000E+00 -0.00000000000E+00 -0.62250788597E+02  0.62250788597E+02  0.00000000000E+00 0.  1.
         24    2    1    2    0    0  0.38781096584E+02 -0.37063589267E+02  0.41021036972E+03  0.42108271173E+03  0.78488340462E+02 0.  0.
         23    2    1    2    0    0 -0.22833663102E+02  0.52445197211E+02  0.17405311224E+02  0.10911666698E+03  0.91277747959E+02 0.  0.
        -13    1    3    3    0    0 -0.13064022828E+01  0.22507378703E+02  0.12176640570E+03  0.12383596545E+03  0.00000000000E+00 0.  1.
         14    1    3    3    0    0  0.40087498867E+02 -0.59570967970E+02  0.28844396402E+03  0.29724674627E+03  0.00000000000E+00 0. -1.
        -13    1    4    4    0    0  0.19326471711E+02 -0.17131792389E+02  0.89111139036E+01  0.27320665626E+02  0.00000000000E+00 0. -1.
         13    1    4    4    0    0 -0.42160134813E+02  0.69576989600E+02  0.84941973208E+01  0.81796001353E+02  0.00000000000E+00 0.  1.
          3    1    1    2  501    0 -0.15947433481E+02 -0.15381607944E+02  0.24001087360E+00  0.22157890306E+02  0.00000000000E+00 0. -1.
<scales pt_clust_5="13000.00000" pt_clust_6="13000.00000" pt_clust_7="13000.00000" pt_clust_8="13000.00000" pt_clust_9="22.15659"></scales>
<clustering>
<clus scale="   22.157">  2  9  1 -1</clus>
<clus scale="   78.488">  5  6 -1 -1</clus>
<clus scale="   91.278">  7  8 -1 -1</clus>
<clus scale="   95.044">  1  5  2 -1</clus>
<clus scale="   22.157">  2  5  1 -1</clus>
</clustering>
</event>
<event>
 9    2  0.6283780E-005  0.1244303E+03  0.7546771E-02  0.1249216E+00
         21   -1    0    0  501  502  0.00000000000E+00  0.00000000000E+00  0.51911454678E+02  0.51911454678E+02  0.00000000000E+00 0.  1.
          2   -1    0    0  502    0 -0.00000000000E+00 -0.00000000000E+00 -0.83915664728E+03  0.83915664728E+03  0.00000000000E+00 0. -1.
         24    2    1    2    0    0  0.26234830019E+02 -0.43918662834E+02 -0.35901959275E+03  0.37142045329E+03  0.80255653350E+02 0.  0.
         23    2    1    2    0    0  0.79905745228E+02  0.10894337912E+02 -0.60535333281E+02  0.13552194023E+03  0.90543111218E+02 0.  0.
        -11    1    3    3    0    0  0.27431962224E+02  0.15507913009E+02 -0.76874866800E+02  0.83082808468E+02  0.00000000000E+00 0.  1.
         12    1    3    3    0    0 -0.11971322046E+01 -0.59426575843E+02 -0.28214472595E+03  0.28833764482E+03  0.00000000000E+00 0. -1.
        -11    1    4    4    0    0 -0.24864850943E+01  0.34810851406E+02 -0.11729637555E+02  0.36817962748E+02  0.00000000000E+00 0. -1.
         11    1    4    4    0    0  0.82392230323E+02 -0.23916513495E+02 -0.48805695727E+02  0.98703977481E+02  0.00000000000E+00 0.  1.
          1    1    1    2  501    0 -0.10614057525E+03  0.33024324923E+02 -0.36769026657E+03  0.38412570844E+03  0.00000000000E+00 0. -1.
<scales pt_clust_5="13000.00000" pt_clust_6="13000.00000" pt_clust_7="13000.00000" pt_clust_8="13000.00000" pt_clust_9="85.35138"></scales>
<clustering>
<clus scale="   80.256">  5  6 -1 -1</clus>
<clus scale="   90.543">  7  8 -1 -1</clus>
<clus scale="   95.174">  2  5  1 -1</clus>
<clus scale="   85.351">  1  9  2 -1</clus>
<clus scale="   85.351">  1  5  2 -1</clus>
</clustering>
</event>
<event>
 9    2  0.6190160E-005  0.1412763E+03  0.7546771E-02  0.1213350E+00
         21   -1    0    0  501  502  0.00000000000E+00  0.00000000000E+00  0.30160062960E+03  0.30160062960E+03  0.00000000000E+00 0. -1.
         -1   -1    0    0    0  501 -0.00000000000E+00 -0.00000000000E+00 -0.10885810749E+03  0.10885810749E+03  0.00000000000E+00 0.  1.
         23    2    1    2    0    0 -0.11218615260E+03 -0.36787510051E+02 -0.14860002458E+02  0.14968883458E+03  0.90812299802E+02 0.  0.
         24    2    1    2    0    0  0.82509900278E+02  0.96488185998E+01  0.16239737290E+03  0.20026623101E+03  0.82659985584E+02 0.  0.
        -13    1    4    4    0    0  0.26119896704E+02  0.42495259921E+01 -0.18466545242E+01  0.26527676263E+02  0.00000000000E+00 0.  1.
         14    1    4    4    0    0  0.56390003574E+02  0.53992926077E+01  0.16424402742E+03  0.17373855475E+03  0.00000000000E+00 0. -1.
        -11    1    3    3    0    0 -0.71565631422E+02 -0.66586750658E+02 -0.23504423828E+01  0.97780159252E+02  0.00000000000E+00 0. -1.
         11    1    3    3    0    0 -0.40620521178E+02  0.29799240607E+02 -0.12509560075E+02  0.51908675333E+02  0.00000000000E+00 0.  1.
         -2    1    1    2    0  502  0.29676252322E+02  0.27138691451E+02  0.45205151673E+02  0.60503671487E+02  0.00000000000E+00 0.  1.
<scales pt_clust_5="13000.00000" pt_clust_6="13000.00000" pt_clust_7="13000.00000" pt_clust_8="13000.00000" pt_clust_9="40.21428"></scales>
<clustering>
<clus scale="   40.214">  1  9  2 -1</clus>
<clus scale="   82.660">  5  6 -1 -1</clus>
<clus scale="   90.812">  7  8 -1 -1</clus>
<clus scale="  136.179">  1  5  2 -1</clus>
<clus scale="   40.214">  1  5  2 -1</clus>
</clustering>
</event>
<event>
 9    2  0.6190160E-005  0.9708144E+02  0.7546771E-02  0.1293209E+00
         21   -1    0    0  501  502  0.00000000000E+00  0.00000000000E+00  0.43254323333E+02  0.43254323333E+02  0.00000000000E+00 0.  1.
         -3   -1    0    0    0  501 -0.00000000000E+00 -0.00000000000E+00 -0.32868018408E+03  0.32868018408E+03  0.00000000000E+00 0.  1.
         24    2    1    2    0    0  0.40097969126E+02 -0.12095248320E+02 -0.17334258430E+03  0.19570453211E+03  0.80613089492E+02 0.  0.
         23    2    1    2    0    0  0.19668223581E+01  0.12010381501E+02 -0.70020535779E+02  0.11674276628E+03  0.92616847243E+02 0.  0.
        -13    1    3    3    0    0  0.40379485612E+02 -0.10126558056E+02 -0.18206216979E+03  0.18676103369E+03  0.00000000000E+00 0.  1.
         14    1    3    3    0    0 -0.28151648651E+00 -0.19686902640E+01  0.87195854906E+01  0.89434984215E+01  0.00000000000E+00 0. -1.
        -13    1    4    4    0    0 -0.27622770735E+02  0.23920219738E+02 -0.75965634263E+02  0.84296927372E+02  0.00000000000E+00 0. -1.
         13    1    4    4    0    0  0.29589593093E+02 -0.11909838236E+02  0.59450984840E+01  0.32445838905E+02  0.00000000000E+00 0.  1.
         -4    1    1    2    0  502 -0.42064791484E+02  0.84866819063E-01 -0.42062740670E+02  0.59487209025E+02  0.00000000000E+00 0.  1.
<scales pt_clust_5="13000.00000" pt_clust_6="13000.00000" pt_clust_7="13000.00000" pt_clust_8="13000.00000" pt_clust_9="42.06488"></scales>
<clustering>
<clus scale="   42.065">  1  9  2 -1</clus>
<clus scale="   80.613">  5  6 -1 -1</clus>
<clus scale="   85.705">  2  5  1 -1</clus>
<clus scale="   92.617">  7  8 -1 -1</clus>
<clus scale="   42.065">  1  5  2 -1</clus>
</clustering>
</event>
<event>
 9    2  0.6190160E-005  0.1584903E+03  0.7546771E-02  0.1201366E+00
         21   -1    0    0  501  502  0.00000000000E+00  0.00000000000E+00  0.12436370917E+03  0.12436370917E+03  0.00000000000E+00 0.  1.
          2   -1    0    0  502    0 -0.00000000000E+00 -0.00000000000E+00 -0.64279310259E+03  0.64279310259E+03  0.00000000000E+00 0. -1.
         23    2    1    2    0    0 -0.75623370801E+02  0.42426893367E+02 -0.11536715317E+03  0.16989884141E+03  0.89649878912E+02 0.  0.
         24    2    1    2    0    0  0.17271164814E+03  0.48281895361E+02 -0.41953698301E+03  0.46337132018E+03  0.80877966261E+02 0.  0.
        -11    1    4    4    0    0  0.15829833208E+03  0.56273291788E+02 -0.30996431145E+03  0.35256619191E+03  0.00000000000E+00 0.  1.
         12    1    4    4    0    0  0.14413316060E+02 -0.79913964272E+01 -0.10957267156E+03  0.11080512826E+03  0.00000000000E+00 0. -1.
        -13    1    3    3    0    0 -0.68907888455E+02  0.15959486092E+02 -0.12269824080E+03  0.14162577655E+03  0.00000000000E+00 0. -1.
         13    1    3    3    0    0 -0.67154823456E+01  0.26467407275E+02  0.73310876242E+01  0.28273064863E+02  0.00000000000E+00 0.  1.
          1    1    1    2  501    0 -0.97088277334E+02 -0.90708788728E+02  0.16474742765E+02  0.13388665018E+03  0.00000000000E+00 0. -1.
<scales pt_clust_5="13000.00000" pt_clust_6="13000.00000" pt_clust_7="13000.00000" pt_clust_8="13000.00000" pt_clust_9="136.30090"></scales>
<clustering>
<clus scale="   80.878">  5  6 -1 -1</clus>
<clus scale="   89.650">  7  8 -1 -1</clus>
<clus scale="  124.724">  2  7  1 -1</clus>
<clus scale="  136.301">  1  9  2 -1</clus>
<clus scale="  136.301">  1  5  2 -1</clus>
</clustering>
</event>
<event>
 9    2  0.6190160E-005  0.1056051E+03  0.7546771E-02  0.1273686E+00
          2   -1    0    0  502    0 -0.00000000000E+00  0.00000000000E+00  0.59046838571E+03  0.59046838571E+03  0.00000000000E+00 0. -1.
         21   -1    0    0  501  502  0.00000000000E+00 -0.00000000000E+00 -0.26924034872E+02  0.26924034872E+02  0.00000000000E+00 0. -1.
         24    2    1    2    0    0 -0.10988639513E+02  0.46102148714E+02  0.34123499634E+03  0.35381881961E+03  0.80624289576E+02 0.  0.
         23    2    1    2    0    0  0.34640721616E+01 -0.69059229697E+02  0.16091525076E+03  0.19759722145E+03  0.91486430659E+02 0.  0.
        -13    1    3    3    0    0 -0.10146245529E+02  0.24147813067E+02  0.23093272677E+02  0.34919370229E+02  0.00000000000E+00 0.  1.
         14    1    3    3    0    0 -0.84239398416E+00  0.21954335648E+02  0.31814172366E+03  0.31889944938E+03  0.00000000000E+00 0. -1.
        -13    1    4    4    0    0  0.21133041456E+02 -0.37955987135E+02  0.15545537774E+03  0.16141139015E+03  0.00000000000E+00 0.  1.
         13    1    4    4    0    0 -0.17668969294E+02 -0.31103242562E+02  0.54598730224E+01  0.36185831304E+02  0.00000000000E+00 0. -1.
          1    1    1    2  501    0  0.75245673512E+01  0.22957080982E+02  0.61394103730E+02  0.65976379514E+02  0.00000000000E+00 0. -1.
<scales pt_clust_5="13000.00000" pt_clust_6="13000.00000" pt_clust_7="13000.00000" pt_clust_8="13000.00000" pt_clust_9="24.15879"></scales>
<clustering>
<clus scale="   24.159">  2  9  1 -1</clus>
<clus scale="   80.624">  5  6 -1 -1</clus>
<clus scale="   91.486">  7  8 -1 -1</clus>
<clus scale="   96.348">  1  5  2 -1</clus>
<clus scale="   24.159">  2  5  1 -1</clus>
</clustering>
</event>
<event>
 9    2  0.6190160E-005  0.9088145E+02  0.7546771E-02  0.1304863E+00
          2   -1    0    0  502    0 -0.00000000000E+00  0.00000000000E+00  0.40413493140E+03  0.40413493140E+03  0.00000000000E+00 0. -1.
         21   -1    0    0  501  502  0.00000000000E+00 -0.00000000000E+00 -0.99042606123E+02  0.99042606123E+02  0.00000000000E+00 0.  1.
         23    2    1    2    0    0  0.10582696184E+02 -0.18395517131E+02  0.32540974641E+03  0.33792450084E+03  0.88606301689E+02 0.  0.
         24    2    1    2    0    0 -0.26291307371E+02  0.44951138653E+00  0.44097833033E+02  0.96564285381E+02  0.81783906908E+02 0.  0.
        -11    1    4    4    0    0 -0.29320496662E+02  0.16594411192E+02 -0.13780453446E+02  0.36400094841E+02  0.00000000000E+00 0.  1.
         12    1    4    4    0    0  0.30291892907E+01 -0.16144899805E+02  0.57878286479E+02  0.60164190539E+02  0.00000000000E+00 0. -1.
        -13    1    3    3    0    0 -0.10993969772E+02  0.30177957861E+02  0.18548621398E+03  0.18824641321E+03  0.00000000000E+00 0.  1.
         13    1    3    3    0    0  0.21576665957E+02 -0.48573474992E+02  0.13992353243E+03  0.14967808762E+03  0.00000000000E+00 0. -1.
          1    1    1    2  501    0  0.15708611186E+02  0.17946005744E+02 -0.64415254162E+02  0.68688751309E+02  0.00000000000E+00 0. -1.
<scales pt_clust_5="13000.00000" pt_clust_6="13000.00000" pt_clust_7="13000.00000" pt_clust_8="13000.00000" pt_clust_9="23.84994"></scales>
<clustering>
<clus scale="   23.850">  2  9  1 -1</clus>
<clus scale="   81.784">  5  6 -1 -1</clus>
<clus scale="   84.244">  2  5  1 -1</clus>
<clus scale="   88.606">  7  8 -1 -1</clus>
<clus scale="   23.850">  2  5  1 -1</clus>
</clustering>
</event>
<event>
 9    2  0.6190160E-005  0.1145961E+03  0.7546771E-02  0.1263511E+00
         21   -1    0    0  501  502  0.00000000000E+00  0.00000000000E+00  0.61532160425E+03  0.61532160425E+03  0.00000000000E+00 0. -1.
         -3   -1    0    0    0  501 -0.00000000000E+00 -0.00000000000E+00 -0.92843515796E+02  0.92843515796E+02  0.00000000000E+00 0.  1.
         23    2    1    2    0    0 -0.35398766596E+02 -0.26003111644E+02 -0.46559328851E+02  0.12295360777E+03  0.10497896965E+03 0.  0.
         24    2    1    2    0    0  0.58874102931E+02  0.41275345432E+02  0.48204878087E+03  0.49382576169E+03  0.79517555511E+02 0.  0.
        -13    1    4    4    0    0 -0.11864740402E+02  0.26055912173E+02  0.72759180476E+02  0.78189391656E+02  0.00000000000E+00 0.  1.
         14    1    4    4    0    0  0.70738843333E+02  0.15219433258E+02  0.40928960040E+03  0.41563637004E+03  0.00000000000E+00 0. -1.
        -13    1    3    3    0    0 -0.36418758690E+02  0.32232187739E+01  0.25906660519E+02  0.44809264477E+02  0.00000000000E+00 0. -1.
         13    1    3    3    0    0  0.10199920938E+01 -0.29226330418E+02 -0.72465989370E+02  0.78144343294E+02  0.00000000000E+00 0.  1.
         -4    1    1    2    0  502 -0.23475336335E+02 -0.15272233788E+02  0.86988636428E+02  0.91385750577E+02  0.00000000000E+00 0.  1.
<scales pt_clust_5="13000.00000" pt_clust_6="13000.00000" pt_clust_7="13000.00000" pt_clust_8="13000.00000" pt_clust_9="28.00594"></scales>
<clustering>
<clus scale="   28.006">  1  9  2 -1</clus>
<clus scale="   79.518">  5  6 -1 -1</clus>
<clus scale="   91.841">  1  5  2 -1</clus>
<clus scale="  104.979">  7  8 -1 -1</clus>
<clus scale="   28.006">  1  5  2 -1</clus>
</clustering>
</event>
<event>
 9    2  0.6190160E-005  0.1005359E+03  0.7546771E-02  0.1284742E+00
         -1   -1    0    0    0  501 -0.00000000000E+00  0.00000000000E+00  0.60564277822E+03  0.60564277822E+03  0.00000000000E+00 0.  1.
         21   -1    0    0  501  502  0.00000000000E+00 -0.00000000000E+00 -0.27299947041E+02  0.27299947041E+02  0.00000000000E+00 0. -1.
         23    2    1    2    0    0 -0.32969962952E+02 -0.17061759313E+02  0.32786556665E+03  0.34224817972E+03  0.90883797470E+02 0.  0.
         24    2    1    2    0    0  0.55939700864E+02  0.18879986110E+02  0.10883962211E+03  0.14719494080E+03  0.79590095167E+02 0.  0.
        -11    1    4    4    0    0 -0.17273574332E+02 -0.10262853730E+02  0.26055690020E+02  0.32902910499E+02  0.00000000000E+00 0.  1.
         12    1    4    4    0    0  0.73213275195E+02  0.29142839840E+02  0.82783932087E+02  0.11429203030E+03  0.00000000000E+00 0. -1.
        -11    1    3    3    0    0 -0.42730650957E+02 -0.47209183351E+02  0.25424432158E+03  0.26209691067E+03  0.00000000000E+00 0.  1.
         11    1    3    3    0    0  0.97606880043E+01  0.30147424038E+02  0.73621245065E+02  0.80151269057E+02  0.00000000000E+00 0. -1.
         -2    1    1    2    0  502 -0.22969737911E+02 -0.18182267972E+01  0.14163764243E+03  0.14349960474E+03  0.00000000000E+00 0.  1.
<scales pt_clust_5="13000.00000" pt_clust_6="13000.00000" pt_clust_7="13000.00000" pt_clust_8="13000.00000" pt_clust_9="23.04160"></scales>
<clustering>
<clus scale="   23.042">  2  9  1 -1</clus>
<clus scale="   79.590">  5  6 -1 -1</clus>
<clus scale="   90.455">  2  5  1 -1</clus>
<clus scale="   90.884">  7  8 -1 -1</clus>
<clus scale="   23.042">  2  5  1 -1</clus>
</clustering>
</event>
<event>
 9    2  0.6190160E-005  0.1484859E+03  0.7546771E-02  0.1203055E+00
         21   -1    0    0  501  502  0.00000000000E+00  0.00000000000E+00  0.34918471600E+03  0.34918471600E+03  0.00000000000E+00 0. -1.
          2   -1    0    0  502    0 -0.00000000000E+00 -0.00000000000E+00 -0.22503228690E+03  0.22503228690E+03  0.00000000000E+00 0. -1.
         23    2    1    2    0    0 -0.88868611037E+02 -0.83087383315E+02 -0.15048086146E+03  0.21313332344E+03  0.89331856588E+02 0.  0.
         24    2    1    2    0    0  0.18645925364E+02  0.11422729272E+03  0.23259622802E+03  0.27351636725E+03  0.85525744251E+02 0.  0.
        -11    1    4    4    0    0  0.31214221460E+02  0.10791587430E+02  0.25644695021E+02  0.41814308117E+02  0.00000000000E+00 0.  1.
         12    1    4    4    0    0 -0.12568296096E+02  0.10343570529E+03  0.20695153300E+03  0.23170205913E+03  0.00000000000E+00 0. -1.
        -13    1    3    3    0    0 -0.15029216051E+02 -0.20861423238E+02  0.85381560907E+01  0.27091999263E+02  0.00000000000E+00 0.  1.
         13    1    3    3    0    0 -0.73839394986E+02 -0.62225960076E+02 -0.15901901755E+03  0.18604132417E+03  0.00000000000E+00 0. -1.
          1    1    1    2  501    0  0.70222685673E+02 -0.31139909408E+02  0.42037062542E+02  0.87567312213E+02  0.00000000000E+00 0. -1.
<scales pt_clust_5="13000.00000" pt_clust_6="13000.00000" pt_clust_7="13000.00000" pt_clust_8="13000.00000" pt_clust_9="76.81744"></scales>
<clustering>
<clus scale="   76.817">  1  9  2 -1</clus>
<clus scale="   85.526">  5  6 -1 -1</clus>
<clus scale="   89.332">  7  8 -1 -1</clus>
<clus scale="  146.228">  1  5  2 -1</clus>
<clus scale="   76.817">  1  5  2 -1</clus>
</clustering>
</event>
<event>
 9    2  0.6190160E-005  0.1839239E+03  0.7546771E-02  0.1177906E+00
         -1   -1    0    0    0  501 -0.00000000000E+00  0.00000000000E+00  0.57653509457E+03  0.57653509457E+03  0.00000000000E+00 0.  1.
         21   -1    0    0  501  502  0.00000000000E+00 -0.00000000000E+00 -0.13801391672E+03  0.13801391672E+03  0.00000000000E+00 0.  1.
         24    2    1    2    0    0  0.16346235674E+02  0.10327611348E+03  0.13364488887E+03  0.18929858255E+03  0.83903766299E+02 0.  0.
         23    2    1    2    0    0 -0.14851754207E+03  0.35061396074E+00  0.31142133552E+03  0.35717130896E+03  0.92360773564E+02 0.  0.
        -13    1    3    3    0    0  0.21354377208E+02  0.47754446777E+02  0.94395817861E+01  0.53156394886E+02  0.00000000000E+00 0.  1.
         14    1    3    3    0    0 -0.50081415343E+01  0.55521666704E+02  0.12420530708E+03  0.13614218767E+03  0.00000000000E+00 0. -1.
        -13    1    4    4    0    0 -0.84115950341E+02  0.76645475054E+01  0.26310026662E+03  0.27632587408E+03  0.00000000000E+00 0.  1.
         13    1    4    4    0    0 -0.64401591725E+02 -0.73139335446E+01  0.48321068896E+02  0.80845434873E+02  0.00000000000E+00 0. -1.
         -2    1    1    2    0  502  0.13217130639E+03 -0.10362672744E+03 -0.65450465415E+01  0.16807911979E+03  0.00000000000E+00 0.  1.
<scales pt_clust_5="13000.00000" pt_clust_6="13000.00000" pt_clust_7="13000.00000" pt_clust_8="13000.00000" pt_clust_9="159.05188"></scales>
<clustering>
<clus scale="   83.904">  5  6 -1 -1</clus>
<clus scale="   92.361">  7  8 -1 -1</clus>
<clus scale="  134.063">  1  5  2 -1</clus>
<clus scale="  159.052">  2  9  1 -1</clus>
<clus scale="  159.052">  2  5  1 -1</clus>
</clustering>
</event>
<event>
 9    2  0.6190160E-005  0.2523664E+03  0.7546771E-02  0.1112520E+00
         21   -1    0    0  501  502  0.00000000000E+00  0.00000000000E+00  0.94359708870E+02  0.94359708870E+02  0.00000000000E+00 0. -1.
          2   -1    0    0  502    0 -0.00000000000E+00 -0.00000000000E+00 -0.11375456453E+04  0.11375456453E+04  0.00000000000E+00 0. -1.
         24    2    1    2    0    0  0.23490475471E+03  0.95156719827E+02 -0.77579800192E+03  0.81997024536E+03  0.79079822834E+02 0.  0.
         23    2    1    2    0    0 -0.18153619734E+03 -0.35728832028E+02 -0.10692125830E+03  0.23268826521E+03  0.92085465249E+02 0.  0.
        -11    1    3    3    0    0  0.10286437615E+03  0.31519622768E+02 -0.21612666073E+03  0.24142348680E+03  0.00000000000E+00 0.  1.
         12    1    3    3    0    0  0.13204037856E+03  0.63637097059E+02 -0.55967134119E+03  0.57854675856E+03  0.00000000000E+00 0. -1.
        -13    1    4    4    0    0 -0.13403919422E+03 -0.66048178421E+02 -0.67802501496E+02  0.16409158013E+03  0.00000000000E+00 0. -1.
         13    1    4    4    0    0 -0.47497003115E+02  0.30319346393E+02 -0.39118756803E+02  0.68596685083E+02  0.00000000000E+00 0.  1.
          1    1    1    2  501    0 -0.53368557370E+02 -0.59427887800E+02 -0.16046667619E+03  0.17924684357E+03  0.00000000000E+00 0. -1.
<scales pt_clust_5="13000.00000" pt_clust_6="13000.00000" pt_clust_7="13000.00000" pt_clust_8="13000.00000" pt_clust_9="79.87417"></scales>
<clustering>
<clus scale="   79.080">  5  6 -1 -1</clus>
<clus scale="   79.874">  1  9  2 -1</clus>
<clus scale="   92.085">  7  8 -1 -1</clus>
<clus scale="  247.917">  2  5  1 -1</clus>
<clus scale="   79.874">  1  5  2 -1</clus>
</clustering>
</event>
<event>
 9    2  0.6190160E-005  0.9841848E+02  0.7546771E-02  0.1289845E+00
         21   -1    0    0  501  502  0.00000000000E+00  0.00000000000E+00  0.15018696118E+03  0.15018696118E+03  0.00000000000E+00 0. -1.
          2   -1    0    0  502    0 -0.00000000000E+00 -0.00000000000E+00 -0.54951331023E+03  0.54951331023E+03  0.00000000000E+00 0. -1.
         24    2    1    2    0    0  0.22537596744E+02 -0.27494868404E+02 -0.41732048168E+03  0.42640544714E+03  0.80008186281E+02 0.  0.
         23    2    1    2    0    0  0.40967090690E+02  0.79528994288E+02  0.95954238249E+02  0.16007745081E+03  0.91730098477E+02 0.  0.
        -13    1    3    3    0    0  0.22549152141E+02 -0.19929075538E+02 -0.45764562819E+02  0.54772507010E+02  0.00000000000E+00 0.  1.
         14    1    3    3    0    0 -0.11555396597E-01 -0.75657928655E+01 -0.37155591886E+03  0.37163294013E+03  0.00000000000E+00 0. -1.
        -13    1    4    4    0    0  0.65577510361E+02  0.32130388452E+02  0.68060994558E+02  0.99825200763E+02  0.00000000000E+00 0. -1.
         13    1    4    4    0    0 -0.24610419672E+02  0.47398605836E+02  0.27893243692E+02  0.60252250043E+02  0.00000000000E+00 0.  1.
          1    1    1    2  501    0 -0.63504687434E+02 -0.52034125884E+02 -0.77960105628E+02  0.11321737346E+03  0.00000000000E+00 0. -1.
<scales pt_clust_5="13000.00000" pt_clust_6="13000.00000" pt_clust_7="13000.00000" pt_clust_8="13000.00000" pt_clust_9="82.09995"></scales>
<clustering>
<clus scale="   80.008">  5  6 -1 -1</clus>
<clus scale="   82.100">  1  9  2 -1</clus>
<clus scale="   87.596">  2  5  1 -1</clus>
<clus scale="   91.730">  7  8 -1 -1</clus>
<clus scale="   82.100">  1  5  2 -1</clus>
</clustering>
</event>
<event>
 9    2  0.6190160E-005  0.1141566E+03  0.7546771E-02  0.1253143E+00
         21   -1    0    0  501  502  0.00000000000E+00  0.00000000000E+00  0.57610530724E+02  0.57610530724E+02  0.00000000000E+00 0. -1.
         -1   -1    0    0    0  501 -0.00000000000E+00 -0.00000000000E+00 -0.62455857446E+03  0.62455857446E+03  0.00000000000E+00 0.  1.
         23    2    1    2    0    0  0.34336234078E+02  0.14670992157E+02 -0.86838910797E+02  0.13164700333E+03  0.91628172935E+02 0.  0.
         24    2    1    2    0    0 -0.45233374839E+02 -0.10706581599E+03 -0.16399886525E+03  0.22100540655E+03  0.91861933176E+02 0.  0.
        -13    1    4    4    0    0  0.12634545743E+02 -0.29179600811E+02 -0.99590217212E+02  0.10454325523E+03  0.00000000000E+00 0.  1.
         14    1    4    4    0    0 -0.57867920581E+02 -0.77886215179E+02 -0.64408648035E+02  0.11646215132E+03  0.00000000000E+00 0. -1.
        -11    1    3    3    0    0  0.52866040254E+02 -0.20152879426E+02 -0.66348902117E+02  0.87195949295E+02  0.00000000000E+00 0.  1.
         11    1    3    3    0    0 -0.18529806176E+02  0.34823871583E+02 -0.20490008679E+02  0.44451054033E+02  0.00000000000E+00 0. -1.
         -2    1    1    2    0  502  0.10897140761E+02  0.92394823833E+02 -0.31611026769E+03  0.32951669531E+03  0.00000000000E+00 0.  1.
<scales pt_clust_5="13000.00000" pt_clust_6="13000.00000" pt_clust_7="13000.00000" pt_clust_8="13000.00000" pt_clust_9="93.03526"></scales>
<clustering>
<clus scale="   91.628">  7  8 -1 -1</clus>
<clus scale="   91.862">  5  6 -1 -1</clus>
<clus scale="   93.035">  1  9  2 -1</clus>
<clus scale="  113.969">  2  7  1 -1</clus>
<clus scale="   93.035">  1  5  2 -1</clus>
</clustering>
</event>
<event>
 9    2  0.6190160E-005  0.1289335E+03  0.7546771E-02  0.1232184E+00
         21   -1    0    0  501  502  0.00000000000E+00  0.00000000000E+00  0.63494116571E+02  0.63494116571E+02  0.00000000000E+00 0. -1.
          4   -1    0    0  502    0 -0.00000000000E+00 -0.00000000000E+00 -0.35996918236E+03  0.35996918236E+03  0.00000000000E+00 0. -1.
         24    2    1    2    0    0  0.90130438234E+02  0.54433255264E+02 -0.13600280714E+03  0.18696749724E+03  0.73304885923E+02 0.  0.
         23    2    1    2    0    0 -0.84401480069E+02 -0.18791139678E+02 -0.73613300311E+02  0.14243380081E+03  0.85975303797E+02 0.  0.
        -13    1    3    3    0    0  0.46810802559E+02 -0.12023943976E+02 -0.60681531950E+02  0.77576251422E+02  0.00000000000E+00 0.  1.
         14    1    3    3    0    0  0.43319635674E+02  0.66457199239E+02 -0.75321275190E+02  0.10939124582E+03  0.00000000000E+00 0. -1.
        -13    1    4    4    0    0 -0.54731446162E+02 -0.53307094446E+02 -0.47356908533E+02  0.89888009785E+02  0.00000000000E+00 0.  1.
         13    1    4    4    0    0 -0.29670033907E+02  0.34515954768E+02 -0.26256391777E+02  0.52545791027E+02  0.00000000000E+00 0. -1.
          3    1    1    2  501    0 -0.57289581646E+01 -0.35642115586E+02 -0.86858958335E+02  0.94062000872E+02  0.00000000000E+00 0. -1.
<scales pt_clust_5="13000.00000" pt_clust_6="13000.00000" pt_clust_7="13000.00000" pt_clust_8="13000.00000" pt_clust_9="36.09962"></scales>
<clustering>
<clus scale="   36.100">  1  9  2 -1</clus>
<clus scale="   73.305">  5  6 -1 -1</clus>
<clus scale="   85.975">  7  8 -1 -1</clus>
<clus scale="  120.854">  2  5  1 -1</clus>
<clus scale="   36.100">  1  5  2 -1</clus>
</clustering>
</event>
<event>
 9    2  0.6190160E-005  0.1132614E+03  0.7546771E-02  0.1257744E+00
         21   -1    0    0  501  502  0.00000000000E+00  0.00000000000E+00  0.31136147248E+03  0.31136147248E+03  0.00000000000E+00 0. -1.
         -3   -1    0    0    0  501 -0.00000000000E+00 -0.00000000000E+00 -0.11397855824E+03  0.11397855824E+03  0.00000000000E+00 0.  1.
         23    2    1    2    0    0 -0.17099113617E+02 -0.68733466196E+02 -0.51441987377E+02  0.12515325439E+03  0.89444899005E+02 0.  0.
         24    2    1    2    0    0  0.42207039097E+02  0.50596478840E+02  0.24821342398E+03  0.26920723247E+03  0.80753899930E+02 0.  0.
        -13    1    4    4    0    0  0.29900205992E+02  0.62234232164E+01  0.20261575950E+02  0.36650849579E+02  0.00000000000E+00 0.  1.
         14    1    4    4    0    0  0.12306833105E+02  0.44373055624E+02  0.22795184803E+03  0.23255638290E+03  0.00000000000E+00 0. -1.
        -13    1    3    3    0    0 -0.46670783082E+02 -0.58028213578E+02 -0.56267799221E+02  0.93335420895E+02  0.00000000000E+00 0.  1.
         13    1    3    3    0    0  0.29571669465E+02 -0.10705252619E+02  0.48258118433E+01  0.31817833498E+02  0.00000000000E+00 0. -1.
         -4    1    1    2    0  502 -0.25107925480E+02  0.18136987356E+02  0.61147764049E+00  0.30979543850E+02  0.00000000000E+00 0.  1.
<scales pt_clust_5="13000.00000" pt_clust_6="13000.00000" pt_clust_7="13000.00000" pt_clust_8="13000.00000" pt_clust_9="30.97352"></scales>
<clustering>
<clus scale="   30.974">  1  9  2 -1</clus>
<clus scale="   80.754">  5  6 -1 -1</clus>
<clus scale="   89.445">  7  8 -1 -1</clus>
<clus scale="  106.531">  1  5  2 -1</clus>
<clus scale="   30.974">  1  5  2 -1</clus>
</clustering>
</event>
<event>
 9    2  0.6190160E-005  0.1024086E+03  0.7546771E-02  0.1281553E+00
         21   -1    0    0  501  502  0.00000000000E+00  0.00000000000E+00  0.41504014098E+03  0.41504014098E+03  0.00000000000E+00 0.  1.
          2   -1    0    0  502    0 -0.00000000000E+00 -0.00000000000E+00 -0.10809779944E+03  0.10809779944E+03  0.00000000000E+00 0. -1.
         24    2    1    2    0    0  0.34369745094E+02  0.56958834903E+02  0.92800485425E+02  0.13801003028E+03  0.77519353134E+02 0.  0.
         23    2    1    2    0    0  0.39700314528E+02 -0.19012114065E+02  0.26776439804E+03  0.28612435285E+03  0.90729250969E+02 0.  0.
        -13    1    3    3    0    0 -0.68222596961E+00  0.61676097989E+02  0.78566013884E+02  0.99885059108E+02  0.00000000000E+00 0.  1.
         14    1    3    3    0    0  0.35051971064E+02 -0.47172630860E+01  0.14234471541E+02  0.38124971168E+02  0.00000000000E+00 0. -1.
        -13    1    4    4    0    0  0.61131934534E+02 -0.37290221612E+02  0.20968517746E+03  0.22157515135E+03  0.00000000000E+00 0.  1.
         13    1    4    4    0    0 -0.21431620006E+02  0.18278107547E+02  0.58079220577E+02  0.64549201501E+02  0.00000000000E+00 0. -1.
          1    1    1    2  501    0 -0.74070059622E+02 -0.37946720838E+02 -0.53622541919E+02  0.99003557293E+02  0.00000000000E+00 0. -1.
<scales pt_clust_5="13000.00000" pt_clust_6="13000.00000" pt_clust_7="13000.00000" pt_clust_8="13000.00000" pt_clust_9="83.22460"></scales>
<clustering>
<clus scale="   77.519">  5  6 -1 -1</clus>
<clus scale="   83.225">  1  9  2 -1</clus>
<clus scale="   90.729">  7  8 -1 -1</clus>
<clus scale="   90.912">  2  5  1 -1</clus>
<clus scale="   83.225">  1  5  2 -1</clus>
</clustering>
</event>
<event>
 9    2  0.6190160E-005  0.1471577E+03  0.7546771E-02  0.1213730E+00
          2   -1    0    0  502    0 -0.00000000000E+00  0.00000000000E+00  0.45610857059E+03  0.45610857059E+03  0.00000000000E+00 0. -1.
         21   -1    0    0  501  502  0.00000000000E+00 -0.00000000000E+00 -0.95537393125E+02  0.95537393125E+02  0.00000000000E+00 0. -1.
         23    2    1    2    0    0 -0.90409465617E+02  0.24939754418E+02  0.19222358002E+03  0.24400320057E+03  0.11743847049E+03 0.  0.
         24    2    1    2    0    0  0.81000995813E+02  0.19473822941E+02 -0.16974932359E+02  0.11684044342E+03  0.80144555575E+02 0.  0.
        -13    1    4    4    0    0  0.47282319529E+01 -0.25223525655E+02  0.40229450657E+01  0.25976268225E+02  0.00000000000E+00 0.  1.
         14    1    4    4    0    0  0.76272763860E+02  0.44697348596E+02 -0.20997877424E+02  0.90864175199E+02  0.00000000000E+00 0. -1.
        -13    1    3    3    0    0  0.98933490789E+01 -0.28198057259E+02  0.75450491833E+02  0.81152852735E+02  0.00000000000E+00 0.  1.
         13    1    3    3    0    0 -0.10030281470E+03  0.53137811678E+02  0.11677308819E+03  0.16285034784E+03  0.00000000000E+00 0. -1.
          1    1    1    2  501    0  0.94084698041E+01 -0.44413577359E+02  0.18532252980E+03  0.19080231972E+03  0.00000000000E+00 0. -1.
<scales pt_clust_5="13000.00000" pt_clust_6="13000.00000" pt_clust_7="13000.00000" pt_clust_8="13000.00000" pt_clust_9="45.39920"></scales>
<clustering>
<clus scale="   45.399">  2  9  1 -1</clus>
<clus scale="   80.145">  5  6 -1 -1</clus>
<clus scale="  117.438">  7  8 -1 -1</clus>
<clus scale="  119.527">  2  5  1 -1</clus>
<clus scale="   45.399">  2  5  1 -1</clus>
</clustering>
</event>
<event>
 9    2  0.6190160E-005  0.9987230E+02  0.7546771E-02  0.1284950E+00
         21   -1    0    0  501  502  0.00000000000E+00  0.00000000000E+00  0.97029278871E+02  0.97029278871E+02  0.00000000000E+00 0. -1.
          4   -1    0    0  502    0 -0.00000000000E+00 -0.00000000000E+00 -0.27094512773E+03  0.27094512773E+03  0.00000000000E+00 0. -1.
         23    2    1    2    0    0 -0.46406476570E+02  0.73443307480E-01 -0.17290812813E+03  0.20059990031E+03  0.90496037320E+02 0.  0.
         24    2    1    2    0    0  0.19321323515E+02  0.57638753423E+02 -0.12684914677E+02  0.10256200730E+03  0.81624254007E+02 0.  0.
        -13    1    4    4    0    0  0.28321373938E+02  0.34018312836E+02  0.29634326307E+02  0.53268556631E+02  0.00000000000E+00 0.  1.
         14    1    4    4    0    0 -0.90000504229E+01  0.23620440587E+02 -0.42319240984E+02  0.49293450667E+02  0.00000000000E+00 0. -1.
        -13    1    3    3    0    0  0.70709750607E+01  0.36380103589E+02 -0.63700719385E+02  0.73697301685E+02  0.00000000000E+00 0.  1.
         13    1    3    3    0    0 -0.53477451631E+02 -0.36306660282E+02 -0.10920740874E+03  0.12690259863E+03  0.00000000000E+00 0. -1.
          3    1    1    2  501    0  0.27085153055E+02 -0.57712196730E+02  0.11677193943E+02  0.64812498994E+02  0.00000000000E+00 0. -1.
<scales pt_clust_5="13000.00000" pt_clust_6="13000.00000" pt_clust_7="13000.00000" pt_clust_8="13000.00000" pt_clust_9="63.75189"></scales>
<clustering>
<clus scale="   63.752">  1  9  2 -1</clus>
<clus scale="   81.624">  5  6 -1 -1</clus>
<clus scale="   90.496">  7  8 -1 -1</clus>
<clus scale="   91.910">  1  5  2 -1</clus>
<clus scale="   63.752">  1  5  2 -1</clus>
</clustering>
</event>
<event>
 9    2  0.6190160E-005  0.9306379E+02  0.7546771E-02  0.1302568E+00
          2   -1    0    0  502    0 -0.00000000000E+00  0.00000000000E+00  0.28979846320E+03  0.28979846320E+03  0.00000000000E+00 0. -1.
         21   -1    0    0  501  502  0.00000000000E+00 -0.00000000000E+00 -0.80498443378E+02  0.80498443378E+02  0.00000000000E+00 0.  1.
         23    2    1    2    0    0  0.98177187716E+01  0.10190241966E+02  0.14119280885E+03  0.16893752977E+03  0.91674702400E+02 0.  0.
         24    2    1    2    0    0  0.46949135213E+02 -0.38843796850E+02 -0.92967791161E+01  0.10118513062E+03  0.80242997856E+02 0.  0.
        -13    1    4    4    0    0  0.55204631939E+02  0.14252880661E+01 -0.19957402798E+02  0.58718657682E+02  0.00000000000E+00 0.  1.
         14    1    4    4    0    0 -0.82554967251E+01 -0.40269084916E+02  0.10660623682E+02  0.42466472934E+02  0.00000000000E+00 0. -1.
        -13    1    3    3    0    0  0.45311467414E+02  0.27127474882E+02  0.90445619998E+02  0.10473509034E+03  0.00000000000E+00 0.  1.
         13    1    3    3    0    0 -0.35493748642E+02 -0.16937232916E+02  0.50747188848E+02  0.64202439421E+02  0.00000000000E+00 0. -1.
          1    1    1    2  501    0 -0.56766853985E+02  0.28653554884E+02  0.77403990088E+02  0.10017424619E+03  0.00000000000E+00 0. -1.
<scales pt_clust_5="13000.00000" pt_clust_6="13000.00000" pt_clust_7="13000.00000" pt_clust_8="13000.00000" pt_clust_9="63.58857"></scales>
<clustering>
<clus scale="   63.589">  2  9  1 -1</clus>
<clus scale="   80.243">  5  6 -1 -1</clus>
<clus scale="   81.826">  2  5  1 -1</clus>
<clus scale="   91.675">  7  8 -1 -1</clus>
<clus scale="   63.589">  2  5  1 -1</clus>
</clustering>
</event>
<event>
 9    2  0.6190160E-005  0.9486714E+02  0.7546771E-02  0.1300380E+00
          2   -1    0    0  502    0 -0.00000000000E+00  0.00000000000E+00  0.26803862531E+03  0.26803862531E+03  0.00000000000E+00 0. -1.
         21   -1    0    0  501  502  0.00000000000E+00 -0.00000000000E+00 -0.39834641031E+02  0.39834641031E+02  0.00000000000E+00 0.  1.
         24    2    1    2    0    0  0.70465944487E+01  0.15966450561E+01  0.10447900457E+03  0.13087985199E+03  0.78495028451E+02 0.  0.
         23    2    1    2    0    0 -0.33714341280E+02  0.41134466624E+01  0.99231903608E+02  0.14033711005E+03  0.93241388406E+02 0.  0.
        -11    1    3    3    0    0 -0.30353105103E+02  0.11569321051E+02  0.76526976585E+02  0.83135662168E+02  0.00000000000E+00 0.  1.
         12    1    3    3    0    0  0.37399699552E+02 -0.99726759954E+01  0.27952027990E+02  0.47744189823E+02  0.00000000000E+00 0. -1.
        -11    1    4    4    0    0 -0.54837908555E+02 -0.27301086636E+02  0.64664574565E+02  0.89073299871E+02  0.00000000000E+00 0.  1.
         11    1    4    4    0    0  0.21123567275E+02  0.31414533299E+02  0.34567329044E+02  0.51263810179E+02  0.00000000000E+00 0. -1.
          1    1    1    2  501    0  0.26667746831E+02 -0.57100917185E+01  0.24493076100E+02  0.36656304306E+02  0.00000000000E+00 0. -1.
<scales pt_clust_5="13000.00000" pt_clust_6="13000.00000" pt_clust_7="13000.00000" pt_clust_8="13000.00000" pt_clust_9="27.27222"></scales>
<clustering>
<clus scale="   27.272">  2  9  1 -1</clus>
<clus scale="   78.495">  5  6 -1 -1</clus>
<clus scale="   80.419">  1  5  2 -1</clus>
<clus scale="   93.241">  7  8 -1 -1</clus>
<clus scale="   27.272">  2  5  1 -1</clus>
</clustering>
</event>
<event>
 9    2  0.6190160E-005  0.1016988E+03  0.7546771E-02  0.1280679E+00
          2   -1    0    0  502    0 -0.00000000000E+00  0.00000000000E+00  0.26804433648E+03  0.26804433648E+03  0.00000000000E+00 0. -1.
         21   -1    0    0  501  502  0.00000000000E+00 -0.00000000000E+00 -0.19975962433E+03  0.19975962433E+03  0.00000000000E+00 0. -1.
         24    2    1    2    0    0  0.41059386937E+02 -0.47723912467E+02  0.18085590839E+03  0.20673298629E+03  0.77885961157E+02 0.  0.
         23    2    1    2    0    0 -0.22691657521E+02  0.21999201483E+02  0.43421278780E+02  0.10190820720E+03  0.86608308245E+02 0.  0.
        -11    1    3    3    0    0 -0.17635802932E+02 -0.12575845359E+02  0.12502728369E+02  0.25009831032E+02  0.00000000000E+00 0.  1.
         12    1    3    3    0    0  0.58695189869E+02 -0.35148067108E+02  0.16835318002E+03  0.18172315526E+03  0.00000000000E+00 0. -1.
        -11    1    4    4    0    0  0.70738890363E+01 -0.30734035736E+02  0.17173049859E+02  0.35910089114E+02  0.00000000000E+00 0. -1.
         11    1    4    4    0    0 -0.29765546557E+02  0.52733237219E+02  0.26248228922E+02  0.65998118087E+02  0.00000000000E+00 0.  1.
          1    1    1    2  501    0 -0.18367729416E+02  0.25724710984E+02 -0.15599247502E+03  0.15916276732E+03  0.00000000000E+00 0. -1.
<scales pt_clust_5="13000.00000" pt_clust_6="13000.00000" pt_clust_7="13000.00000" pt_clust_8="13000.00000" pt_clust_9="31.60908"></scales>
<clustering>
<clus scale="   31.609">  2  9  1 -1</clus>
<clus scale="   77.886">  5  6 -1 -1</clus>
<clus scale="   86.608">  7  8 -1 -1</clus>
<clus scale="   94.382">  1  5  2 -1</clus>
<clus scale="   31.609">  2  5  1 -1</clus>
</clustering>
</event>
<event>
 9    2  0.6190160E-005  0.1318527E+03  0.7546771E-02  0.1238876E+00
         21   -1    0    0  501  502  0.00000000000E+00  0.00000000000E+00  0.37321379827E+02  0.37321379827E+02  0.00000000000E+00 0.  1.
          2   -1    0    0  502    0 -0.00000000000E+00 -0.00000000000E+00 -0.80990673921E+03  0.80990673921E+03  0.00000000000E+00 0. -1.
         24    2    1    2    0    0 -0.27599261438E+02 -0.50687738972E+02 -0.17033416393E+03  0.19678549966E+03  0.79873896611E+02 0.  0.
         23    2    1    2    0    0  0.16255947952E+02 -0.75239368218E+02 -0.25569747487E+03  0.28154454628E+03  0.89223957049E+02 0.  0.
        -13    1    3    3    0    0 -0.33183741351E+02 -0.66358783039E+02 -0.10004162468E+03  0.12455109572E+03  0.00000000000E+00 0.  1.
         14    1    3    3    0    0  0.55844799127E+01  0.15671044066E+02 -0.70292539252E+02  0.72234403940E+02  0.00000000000E+00 0. -1.
        -11    1    4    4    0    0  0.19519092867E+01 -0.92826075517E+02 -0.22483181582E+03  0.24324850596E+03  0.00000000000E+00 0.  1.
         11    1    4    4    0    0  0.14304038665E+02  0.17586707299E+02 -0.30865659049E+02  0.38296040321E+02  0.00000000000E+00 0. -1.
          1    1    1    2  501    0  0.11343313487E+02  0.12592710719E+03 -0.34655372058E+03  0.36889807309E+03  0.00000000000E+00 0. -1.
<scales pt_clust_5="13000.00000" pt_clust_6="13000.00000" pt_clust_7="13000.00000" pt_clust_8="13000.00000" pt_clust_9="97.07849"></scales>
<clustering>
<clus scale="   79.874">  5  6 -1 -1</clus>
<clus scale="   89.224">  7  8 -1 -1</clus>
<clus scale="   98.543">  2  5  1 -1</clus>
<clus scale="   97.078">  1  9  2 -1</clus>
<clus scale="   97.078">  1  5  2 -1</clus>
</clustering>
</event>
<event>
 9    2  0.6190160E-005  0.1027897E+03  0.7546771E-02  0.1275422E+00
         -1   -1    0    0    0  501 -0.00000000000E+00  0.00000000000E+00  0.56074147284E+03  0.56074147284E+03  0.00000000000E+00 0.  1.
         21   -1    0    0  501  502  0.00000000000E+00 -0.00000000000E+00 -0.12486689348E+03  0.12486689348E+03  0.00000000000E+00 0.  1.
         23    2    1    2    0    0 -0.46669789801E+02  0.32058287685E+02  0.43262868726E+03  0.44344427170E+03  0.79179782609E+02 0.  0.
         24    2    1    2    0    0  0.10883570233E+03 -0.49514925196E+02  0.59626090765E+02  0.15644325892E+03  0.81377420954E+02 0.  0.
        -11    1    4    4    0    0  0.49749528427E+02  0.74452488093E+01  0.54567913945E+02  0.74216605560E+02  0.00000000000E+00 0.  1.
         12    1    4    4    0    0  0.59086173905E+02 -0.56960174005E+02  0.50581768201E+01  0.82226653356E+02  0.00000000000E+00 0. -1.
        -11    1    3    3    0    0 -0.66871019573E+02  0.14297435447E+02  0.34759504241E+03  0.35425762297E+03  0.00000000000E+00 0.  1.
         11    1    3    3    0    0  0.20201229772E+02  0.17760852238E+02  0.85033644842E+02  0.89186648729E+02  0.00000000000E+00 0. -1.
         -2    1    1    2    0  502 -0.62165912531E+02  0.17456637511E+02 -0.56380198661E+02  0.85720835712E+02  0.00000000000E+00 0.  1.
<scales pt_clust_5="13000.00000" pt_clust_6="13000.00000" pt_clust_7="13000.00000" pt_clust_8="13000.00000" pt_clust_9="64.57039"></scales>
<clustering>
<clus scale="   64.570">  2  9  1 -1</clus>
<clus scale="   79.180">  7  8 -1 -1</clus>
<clus scale="   81.377">  5  6 -1 -1</clus>
<clus scale="  101.059">  1  7  2 -1</clus>
<clus scale="   64.570">  2  5  1 -1</clus>
</clustering>
</event>
<event>
 9    2  0.6190160E-005  0.2064933E+03  0.7546771E-02  0.1145305E+00
         21   -1    0    0  501  502  0.00000000000E+00  0.00000000000E+00  0.16903420791E+03  0.16903420791E+03  0.00000000000E+00 0. -1.
          2   -1    0    0  502    0 -0.00000000000E+00 -0.00000000000E+00 -0.75852077029E+03  0.75852077029E+03  0.00000000000E+00 0. -1.
         24    2    1    2    0    0 -0.10905825117E+03  0.14970468688E+03 -0.12121890987E+03  0.23553050408E+03  0.80469862807E+02 0.  0.
         23    2    1    2    0    0 -0.10024752627E+03 -0.17065133727E+03 -0.50079198015E+02  0.22391203666E+03  0.91963191852E+02 0.  0.
        -13    1    3    3    0    0 -0.37653879148E+01  0.47693715417E+02 -0.43413993394E+01  0.48038696742E+02  0.00000000000E+00 0.  1.
         14    1    3    3    0    0 -0.10529286325E+03  0.10201097146E+03 -0.11687751053E+03  0.18749180733E+03  0.00000000000E+00 0. -1.
        -13    1    4    4    0    0 -0.52456833570E+01 -0.62146369152E+02  0.17312424186E+02  0.64725639617E+02  0.00000000000E+00 0.  1.
         13    1    4    4    0    0 -0.95001842909E+02 -0.10850496812E+03 -0.67391622201E+02  0.15918639705E+03  0.00000000000E+00 0. -1.
          1    1    1    2  501    0  0.20930577743E+03  0.20946650388E+02 -0.41818845450E+03  0.46811243746E+03  0.00000000000E+00 0. -1.
<scales pt_clust_5="13000.00000" pt_clust_6="13000.00000" pt_clust_7="13000.00000" pt_clust_8="13000.00000" pt_clust_9="184.88451"></scales>
<clustering>
<clus scale="   80.470">  5  6 -1 -1</clus>
<clus scale="   91.963">  7  8 -1 -1</clus>
<clus scale="  201.942">  2  5  1 -1</clus>
<clus scale="  184.885">  1  9  2 -1</clus>
<clus scale="  184.885">  1  5  2 -1</clus>
</clustering>
</event>
<event>
 9    2  0.6190160E-005  0.1626141E+03  0.7546771E-02  0.1188606E+00
         21   -1    0    0  501  502  0.00000000000E+00  0.00000000000E+00  0.90659934643E+02  0.90659934643E+02  0.00000000000E+00 0. -1.
          2   -1    0    0  502    0 -0.00000000000E+00 -0.00000000000E+00 -0.77935236682E+03  0.77935236682E+03  0.00000000000E+00 0. -1.
         24    2    1    2    0    0 -0.88526955694E+02 -0.10122553137E+03 -0.59359462138E+03  0.61284763617E+03  0.71721827534E+02 0.  0.
         23    2    1    2    0    0  0.41251322247E+02  0.14274526527E+03 -0.83543673841E+02  0.19319301610E+03  0.90918170284E+02 0.  0.
        -11    1    3    3    0    0 -0.31669912360E+02  0.23301648310E+01 -0.17700511726E+03  0.17983110008E+03  0.00000000000E+00 0.  1.
         12    1    3    3    0    0 -0.56857043334E+02 -0.10355569621E+03 -0.41658950411E+03  0.43301653609E+03  0.00000000000E+00 0. -1.
        -13    1    4    4    0    0  0.31611649127E+02  0.81941341643E+02  0.19392418226E+01  0.87848964078E+02  0.00000000000E+00 0.  1.
         13    1    4    4    0    0  0.96396731196E+01  0.60803923622E+02 -0.85482915664E+02  0.10534405202E+03  0.00000000000E+00 0. -1.
          1    1    1    2  501    0  0.47275633447E+02 -0.41519733890E+02 -0.11554136963E+02  0.63971649198E+02  0.00000000000E+00 0. -1.
<scales pt_clust_5="13000.00000" pt_clust_6="13000.00000" pt_clust_7="13000.00000" pt_clust_8="13000.00000" pt_clust_9="62.91958"></scales>
<clustering>
<clus scale="   62.920">  1  9  2 -1</clus>
<clus scale="   71.722">  5  6 -1 -1</clus>
<clus scale="   90.918">  7  8 -1 -1</clus>
<clus scale="  152.713">  2  5  1 -1</clus>
<clus scale="   62.920">  1  5  2 -1</clus>
</clustering>
</event>
<event>
 9    2  0.6190160E-005  0.1148341E+03  0.7546771E-02  0.1253140E+00
         21   -1    0    0  501  502  0.00000000000E+00  0.00000000000E+00  0.66755589772E+02  0.66755589772E+02  0.00000000000E+00 0. -1.
          2   -1    0    0  502    0 -0.00000000000E+00 -0.00000000000E+00 -0.73053714643E+03  0.73053714643E+03  0.00000000000E+00 0. -1.
         23    2    1    2    0    0  0.25408815352E+02 -0.54713154601E+02 -0.36132791610E+03  0.37689548174E+03  0.88618305226E+02 0.  0.
         24    2    1    2    0    0 -0.39325351820E+02  0.81722509525E+02 -0.34581733102E+03  0.36744836505E+03  0.84874157933E+02 0.  0.
        -11    1    4    4    0    0  0.22526700284E+02  0.40819855732E+02 -0.17749179317E+03  0.18351307716E+03  0.00000000000E+00 0.  1.
         12    1    4    4    0    0 -0.61852052104E+02  0.40902653793E+02 -0.16832553785E+03  0.18393528788E+03  0.00000000000E+00 0. -1.
        -13    1    3    3    0    0 -0.32680081671E+02 -0.28912632687E+02 -0.14490543910E+03  0.15133246297E+03  0.00000000000E+00 0.  1.
         13    1    3    3    0    0  0.58088897024E+02 -0.25800521914E+02 -0.21642247700E+03  0.22556301877E+03  0.00000000000E+00 0. -1.
          1    1    1    2  501    0  0.13916536468E+02 -0.27009354924E+02  0.43363690455E+02  0.52948889417E+02  0.00000000000E+00 0. -1.
<scales pt_clust_5="13000.00000" pt_clust_6="13000.00000" pt_clust_7="13000.00000" pt_clust_8="13000.00000" pt_clust_9="30.38380"></scales>
<clustering>
<clus scale="   30.384">  1  9  2 -1</clus>
<clus scale="   84.874">  5  6 -1 -1</clus>
<clus scale="   88.618">  7  8 -1 -1</clus>
<clus scale="  111.970">  1  5  2 -1</clus>
<clus scale="   30.384">  1  5  2 -1</clus>
</clustering>
</event>
<event>
 9    2  0.6190160E-005  0.1307286E+03  0.7546771E-02  0.1228956E+00
         -3   -1    0    0    0  501 -0.00000000000E+00  0.00000000000E+00  0.33632097665E+03  0.33632097665E+03  0.00000000000E+00 0.  1.
         21   -1    0    0  501  502  0.00000000000E+00 -0.00000000000E+00 -0.12650716765E+03  0.12650716765E+03  0.00000000000E+00 0.  1.
         23    2    1    2    0    0  0.88433723040E+02  0.61062064177E+02  0.23140898922E+03  0.27071578886E+03  0.90486568031E+02 0.  0.
         24    2    1    2    0    0 -0.39606250802E+02 -0.61133181428E+02  0.38138051667E+02  0.11496194329E+03  0.80348095474E+02 0.  0.
        -11    1    4    4    0    0  0.76547702899E+01 -0.60378791058E+02  0.17058282935E+02  0.63207427843E+02  0.00000000000E+00 0.  1.
         12    1    4    4    0    0 -0.47261021092E+02 -0.75439036922E+00  0.21079768732E+02  0.51754515448E+02  0.00000000000E+00 0. -1.
        -13    1    3    3    0    0  0.59270423966E+02 -0.69375373373E+01  0.14594326834E+03  0.15767228721E+03  0.00000000000E+00 0.  1.
         13    1    3    3    0    0  0.29163299074E+02  0.67999601514E+02  0.85465720883E+02  0.11304350165E+03  0.00000000000E+00 0. -1.
         -4    1    1    2    0  502 -0.48827472238E+02  0.71117250422E-01 -0.59733231893E+02  0.77150412152E+02  0.00000000000E+00 0.  1.
<scales pt_clust_5="13000.00000" pt_clust_6="13000.00000" pt_clust_7="13000.00000" pt_clust_8="13000.00000" pt_clust_9="48.82752"></scales>
<clustering>
<clus scale="   48.828">  2  9  1 -1</clus>
<clus scale="   80.348">  5  6 -1 -1</clus>
<clus scale="   90.487">  7  8 -1 -1</clus>
<clus scale="  123.927">  2  5  1 -1</clus>
<clus scale="   48.828">  2  5  1 -1</clus>
</clustering>
</event>
<event>
 9    2  0.6190160E-005  0.1279583E+03  0.7546771E-02  0.1249843E+00
          2   -1    0    0  502    0 -0.00000000000E+00  0.00000000000E+00  0.46336522029E+03  0.46336522029E+03  0.00000000000E+00 0. -1.
         21   -1    0    0  501  502  0.00000000000E+00 -0.00000000000E+00 -0.54097267259E+02  0.54097267259E+02  0.00000000000E+00 0. -1.
         24    2    1    2    0    0 -0.14976607935E+02 -0.26737250952E+02  0.17962969955E+03  0.19933991416E+03  0.80810847296E+02 0.  0.
         23    2    1    2    0    0 -0.33337727406E+02 -0.64346201484E+02  0.12555160207E+03  0.17161488995E+03  0.91851118421E+02 0.  0.
        -11    1    3    3    0    0  0.10516507637E+00  0.21513214634E+02  0.12831848810E+02  0.25049666814E+02  0.00000000000E+00 0.  1.
         12    1    3    3    0    0 -0.15081773012E+02 -0.48250465586E+02  0.16679785074E+03  0.17429024734E+03  0.00000000000E+00 0. -1.
        -13    1    4    4    0    0  0.24538998350E+02 -0.30855594666E+02  0.14539677026E+02  0.42019428486E+02  0.00000000000E+00 0.  1.
         13    1    4    4    0    0 -0.57876725756E+02 -0.33490606818E+02  0.11101192505E+03  0.12959546146E+03  0.00000000000E+00 0. -1.
          1    1    1    2  501    0  0.48314335341E+02  0.91083452436E+02  0.10408665140E+03  0.14650768344E+03  0.00000000000E+00 0. -1.
<scales pt_clust_5="13000.00000" pt_clust_6="13000.00000" pt_clust_7="13000.00000" pt_clust_8="13000.00000" pt_clust_9="89.08826"></scales>
<clustering>
<clus scale="   80.811">  5  6 -1 -1</clus>
<clus scale="   86.427">  1  5  2 -1</clus>
<clus scale="   89.088">  2  9  1 -1</clus>
<clus scale="   91.851">  7  8 -1 -1</clus>
<clus scale="   89.088">  2  5  1 -1</clus>
</clustering>
</event>
<event>
 9    2  0.6190160E-005  0.9764352E+02  0.7546771E-02  0.1292077E+00
          2   -1    0    0  502    0 -0.00000000000E+00  0.00000000000E+00  0.54592358607E+03  0.54592358607E+03  0.00000000000E+00 0. -1.
         21   -1    0    0  501  502  0.00000000000E+00 -0.00000000000E+00 -0.27025442059E+02  0.27025442059E+02  0.00000000000E+00 0.  1.
         23    2    1    2    0    0  0.99556114411E+01 -0.22157089636E+02  0.21871276240E+03  0.23829151231E+03  0.91419481410E+02 0.  0.
         24    2    1    2    0    0  0.23511211770E+02  0.51098031926E+02  0.15420994993E+03  0.18212413242E+03  0.78896799727E+02 0.  0.
        -13    1    4    4    0    0  0.42705608767E+02  0.81414938933E+01  0.41997585317E+02  0.60447085252E+02  0.00000000000E+00 0.  1.
         14    1    4    4    0    0 -0.19194396996E+02  0.42956538033E+02  0.11221236462E+03  0.12167704717E+03  0.00000000000E+00 0. -1.
        -11    1    3    3    0    0 -0.38402726651E+01  0.27200032993E+02  0.22535993202E+02  0.35531119861E+02  0.00000000000E+00 0.  1.
         11    1    3    3    0    0  0.13795884106E+02 -0.49357122630E+02  0.19617676920E+03  0.20276039245E+03  0.00000000000E+00 0. -1.
          1    1    1    2  501    0 -0.33466823212E+02 -0.28940942290E+02  0.14597543168E+03  0.15253338339E+03  0.00000000000E+00 0. -1.
<scales pt_clust_5="13000.00000" pt_clust_6="13000.00000" pt_clust_7="13000.00000" pt_clust_8="13000.00000" pt_clust_9="44.24487"></scales>
<clustering>
<clus scale="   44.245">  2  9  1 -1</clus>
<clus scale="   78.897">  5  6 -1 -1</clus>
<clus scale="   86.032">  2  5  1 -1</clus>
<clus scale="   91.419">  7  8 -1 -1</clus>
<clus scale="   44.245">  2  5  1 -1</clus>
</clustering>
</event>
<event>
 9    2  0.6190160E-005  0.9748777E+02  0.7546771E-02  0.1290066E+00
         -3   -1    0    0    0  501 -0.00000000000E+00  0.00000000000E+00  0.10599343110E+03  0.10599343110E+03  0.00000000000E+00 0.  1.
         21   -1    0    0  501  502  0.00000000000E+00 -0.00000000000E+00 -0.26980149274E+03  0.26980149274E+03  0.00000000000E+00 0. -1.
         23    2    1    2    0    0 -0.41642574482E+02 -0.14825747223E+02  0.48365444836E+02  0.11106802043E+03  0.89682674572E+02 0.  0.
         24    2    1    2    0    0  0.66391984407E+01 -0.22032849013E+02 -0.19255194498E+03  0.21024022497E+03  0.81210684578E+02 0.  0.
        -13    1    4    4    0    0  0.52276244216E+01  0.30928444618E+02 -0.67788482087E+02  0.74693875567E+02  0.00000000000E+00 0.  1.
         14    1    4    4    0    0  0.14115740192E+01 -0.52961293631E+02 -0.12476346289E+03  0.13554634940E+03  0.00000000000E+00 0. -1.
        -11    1    3    3    0    0  0.28593311731E+02 -0.39645595241E+01  0.15521458251E+02  0.32775156357E+02  0.00000000000E+00 0. -1.
         11    1    3    3    0    0 -0.70235886213E+02 -0.10861187698E+02  0.32843986585E+02  0.78292864076E+02  0.00000000000E+00 0.  1.
         -4    1    1    2    0  502  0.35003376041E+02  0.36858596235E+02 -0.19621561502E+02  0.54486678431E+02  0.00000000000E+00 0.  1.
<scales pt_clust_5="13000.00000" pt_clust_6="13000.00000" pt_clust_7="13000.00000" pt_clust_8="13000.00000" pt_clust_9="50.83104"></scales>
<clustering>
<clus scale="   50.831">  2  9  1 -1</clus>
<clus scale="   81.211">  5  6 -1 -1</clus>
<clus scale="   89.683">  7  8 -1 -1</clus>
<clus scale="   89.756">  2  5  1 -1</clus>
<clus scale="   50.831">  2  5  1 -1</clus>
</clustering>
</event>
<event>
 9    2  0.6190160E-005  0.1001477E+03  0.7546771E-02  0.1291128E+00
         21   -1    0    0  501  502  0.00000000000E+00  0.00000000000E+00  0.74795924081E+02  0.74795924081E+02  0.00000000000E+00 0.  1.
          2   -1    0    0  502    0 -0.00000000000E+00 -0.00000000000E+00 -0.41345390909E+03  0.41345390909E+03  0.00000000000E+00 0. -1.
         23    2    1    2    0    0 -0.36372890991E+02  0.24317526172E+02 -0.36050507528E+03  0.37445814210E+03  0.91327222703E+02 0.  0.
         24    2    1    2    0    0  0.30202645046E+02  0.84611115182E+01  0.24011135529E+02  0.80367237214E+02  0.69989770768E+02 0.  0.
        -11    1    4    4    0    0  0.27161011865E+02 -0.13120096535E+02  0.42274261890E+02  0.51932366757E+02  0.00000000000E+00 0.  1.
         12    1    4    4    0    0  0.30416331814E+01  0.21581208053E+02 -0.18263126361E+02  0.28434870458E+02  0.00000000000E+00 0. -1.
        -11    1    3    3    0    0  0.30793612955E+02  0.11579479494E+02 -0.11876690048E+03  0.12323922912E+03  0.00000000000E+00 0.  1.
         11    1    3    3    0    0 -0.67166503946E+02  0.12738046678E+02 -0.24173817480E+03  0.25121891298E+03  0.00000000000E+00 0. -1.
          1    1    1    2  501    0  0.61702459454E+01 -0.32778637690E+02 -0.21640452622E+01  0.33424453858E+02  0.00000000000E+00 0. -1.
<scales pt_clust_5="13000.00000" pt_clust_6="13000.00000" pt_clust_7="13000.00000" pt_clust_8="13000.00000" pt_clust_9="33.35433"></scales>
<clustering>
<clus scale="   33.354">  1  9  2 -1</clus>
<clus scale="   69.990">  5  6 -1 -1</clus>
<clus scale="   81.163">  1  5  2 -1</clus>
<clus scale="   91.327">  7  8 -1 -1</clus>
<clus scale="   33.354">  1  5  2 -1</clus>
</clustering>
</event>
<event>
 9    2  0.6190160E-005  0.1057035E+03  0.7546771E-02  0.1273195E+00
          2   -1    0    0  502    0 -0.00000000000E+00  0.00000000000E+00  0.31653698679E+03  0.31653698679E+03  0.00000000000E+00 0. -1.
         21   -1    0    0  501  502  0.00000000000E+00 -0.00000000000E+00 -0.95862684461E+02  0.95862684461E+02  0.00000000000E+00 0.  1.
         23    2    1    2    0    0 -0.16356461488E+02 -0.49083280576E+02  0.22723193685E+03  0.25032936434E+03  0.91398770574E+02 0.  0.
         24    2    1    2    0    0 -0.10222690430E+02  0.61756711067E+02  0.37444168176E+02  0.10912480855E+03  0.81165037727E+02 0.  0.
        -13    1    4    4    0    0  0.13847912011E+02  0.35343245381E+02 -0.18899441027E+02  0.42403991937E+02  0.00000000000E+00 0.  1.
         14    1    4    4    0    0 -0.24070602441E+02  0.26413465686E+02  0.56343609203E+02  0.66720816613E+02  0.00000000000E+00 0. -1.
        -13    1    3    3    0    0 -0.35530457248E+02 -0.16389188511E+02  0.19966468626E+03  0.20346254159E+03  0.00000000000E+00 0.  1.
         13    1    3    3    0    0  0.19173995761E+02 -0.32694092065E+02  0.27567250590E+02  0.46866822748E+02  0.00000000000E+00 0. -1.
          1    1    1    2  501    0  0.26579151918E+02 -0.12673430491E+02 -0.44001802691E+02  0.52945498365E+02  0.00000000000E+00 0. -1.
<scales pt_clust_5="13000.00000" pt_clust_6="13000.00000" pt_clust_7="13000.00000" pt_clust_8="13000.00000" pt_clust_9="29.44600"></scales>
<clustering>
<clus scale="   29.446">  2  9  1 -1</clus>
<clus scale="   81.165">  5  6 -1 -1</clus>
<clus scale="   91.399">  7  8 -1 -1</clus>
<clus scale="   96.991">  2  5  1 -1</clus>
<clus scale="   29.446">  2  5  1 -1</clus>
</clustering>
</event>
<event>
 9    2  0.6190160E-005  0.9750174E+02  0.7546771E-02  0.1292520E+00
         -1   -1    0    0    0  501 -0.00000000000E+00  0.00000000000E+00  0.11027137854E+04  0.11027137854E+04  0.00000000000E+00 0.  1.
         21   -1    0    0  501  502  0.00000000000E+00 -0.00000000000E+00 -0.83821070113E+02  0.83821070113E+02  0.00000000000E+00 0. -1.
         24    2    1    2    0    0 -0.31509167824E+02 -0.78393524284E+01  0.10288270259E+04  0.10323624115E+04  0.78948188342E+02 0.  0.
         23    2    1    2    0    0  0.50473508301E+02  0.16718230258E+02  0.29113204799E+02  0.10986455361E+03  0.91627327712E+02 0.  0.
        -13    1    3    3    0    0 -0.67253469345E+01 -0.30451011617E+02  0.16725079185E+03  0.17013324712E+03  0.00000000000E+00 0.  1.
         14    1    3    3    0    0 -0.24783820890E+02  0.22611659189E+02  0.86157623404E+03  0.86222916442E+03  0.00000000000E+00 0. -1.
        -13    1    4    4    0    0  0.31847817968E+02 -0.24603163464E+02  0.46340168517E+02  0.61375975592E+02  0.00000000000E+00 0.  1.
         13    1    4    4    0    0  0.18625690334E+02  0.41321393722E+02 -0.17226963718E+02  0.48488578021E+02  0.00000000000E+00 0. -1.
         -2    1    1    2    0  502 -0.18964340477E+02 -0.88788778301E+01 -0.39047515452E+02  0.44307890316E+02  0.00000000000E+00 0.  1.
<scales pt_clust_5="13000.00000" pt_clust_6="13000.00000" pt_clust_7="13000.00000" pt_clust_8="13000.00000" pt_clust_9="20.93993"></scales>
<clustering>
<clus scale="   20.940">  2  9  1 -1</clus>
<clus scale="   78.948">  5  6 -1 -1</clus>
<clus scale="   85.696">  1  5  2 -1</clus>
<clus scale="   91.627">  7  8 -1 -1</clus>
<clus scale="   20.940">  2  5  1 -1</clus>
</clustering>
</event>
<event>
 9    2  0.6190160E-005  0.1874210E+03  0.7546771E-02  0.1161511E+00
         21   -1    0    0  501  502  0.00000000000E+00  0.00000000000E+00  0.14855491101E+03  0.14855491101E+03  0.00000000000E+00 0. -1.
          2   -1    0    0  502    0 -0.00000000000E+00 -0.00000000000E+00 -0.36776912670E+03  0.36776912670E+03  0.00000000000E+00 0. -1.
         24    2    1    2    0    0  0.51014754486E+02  0.16550372893E+03 -0.20300637305E+03  0.28376208881E+03  0.96516040544E+02 0.  0.
         23    2    1    2    0    0 -0.38932266372E+02 -0.12348239452E+03  0.38449443932E+02  0.16256767742E+03  0.90477991145E+02 0.  0.
        -11    1    3    3    0    0  0.31696687986E+02  0.10012882294E+03 -0.50131853246E+02  0.11637724830E+03  0.00000000000E+00 0.  1.
         12    1    3    3    0    0  0.19318066500E+02  0.65374905989E+02 -0.15287451981E+03  0.16738484051E+03  0.00000000000E+00 0. -1.
        -11    1    4    4    0    0  0.27525842339E+02 -0.25335477697E+02 -0.16248738676E+01  0.37445942927E+02  0.00000000000E+00 0.  1.
         11    1    4    4    0    0 -0.66458108711E+02 -0.98146916822E+02  0.40074317799E+02  0.12512173449E+03  0.00000000000E+00 0. -1.
          1    1    1    2  501    0 -0.12082488115E+02 -0.42021334409E+02 -0.54657286567E+02  0.69994271476E+02  0.00000000000E+00 0. -1.
<scales pt_clust_5="13000.00000" pt_clust_6="13000.00000" pt_clust_7="13000.00000" pt_clust_8="13000.00000" pt_clust_9="43.72392"></scales>
<clustering>
<clus scale="   43.724">  1  9  2 -1</clus>
<clus scale="   90.478">  7  8 -1 -1</clus>
<clus scale="   96.516">  5  6 -1 -1</clus>
<clus scale="  184.384">  1  7  2 -1</clus>
<clus scale="   43.724">  1  5  2 -1</clus>
</clustering>
</event>
<event>
 9    2  0.6190160E-005  0.8402242E+02  0.7546771E-02  0.1325422E+00
         -3   -1    0    0    0  501 -0.00000000000E+00  0.00000000000E+00  0.31884779445E+02  0.31884779445E+02  0.00000000000E+00 0.  1.
         21   -1    0    0  501  502  0.00000000000E+00 -0.00000000000E+00 -0.45363925085E+03  0.45363925085E+03  0.00000000000E+00 0.  1.
         24    2    1    2    0    0  0.25145977488E+02 -0.27299297301E+02 -0.52548022687E+02  0.10187675607E+03  0.78993714446E+02 0.  0.
         23    2    1    2    0    0  0.17401073250E+01  0.93275046205E+01 -0.20067485563E+03  0.21204090850E+03  0.67830073563E+02 0.  0.
        -11    1    3    3    0    0  0.23146058125E+02 -0.52283695782E+02 -0.19526514944E+02  0.60420275051E+02  0.00000000000E+00 0.  1.
         12    1    3    3    0    0  0.19999193624E+01  0.24984398480E+02 -0.33021507743E+02  0.41456481019E+02  0.00000000000E+00 0. -1.
        -13    1    4    4    0    0 -0.17723575211E+01  0.35352916209E+02 -0.66640751968E+02  0.75458331273E+02  0.00000000000E+00 0. -1.
         13    1    4    4    0    0  0.35124648461E+01 -0.26025411588E+02 -0.13403410366E+03  0.13658257723E+03  0.00000000000E+00 0.  1.
         -4    1    1    2    0  502 -0.26886084813E+02  0.17971792681E+02 -0.16853159309E+03  0.17160636573E+03  0.00000000000E+00 0.  1.
<scales pt_clust_5="13000.00000" pt_clust_6="13000.00000" pt_clust_7="13000.00000" pt_clust_8="13000.00000" pt_clust_9="32.33956"></scales>
<clustering>
<clus scale="   32.340">  2  9  1 -1</clus>
<clus scale="   67.830">  7  8 -1 -1</clus>
<clus scale="   73.625">  2  7  1 -1</clus>
<clus scale="   78.994">  5  6 -1 -1</clus>
<clus scale="   32.340">  2  5  1 -1</clus>
</clustering>
</event>
<event>
 9    2  0.6190160E-005  0.2559474E+03  0.7546771E-02  0.1146756E+00
         -1   -1    0    0    0  501 -0.00000000000E+00  0.00000000000E+00  0.75233962159E+03  0.75233962159E+03  0.00000000000E+00 0.  1.
         21   -1    0    0  501  502  0.00000000000E+00 -0.00000000000E+00 -0.12374856067E+03  0.12374856067E+03  0.00000000000E+00 0.  1.
         24    2    1    2    0    0 -0.27830578319E+02  0.50701312913E+02  0.56843284831E+02  0.11715310772E+03  0.84548964502E+02 0.  0.
         23    2    1    2    0    0  0.14665731967E+03 -0.22711449554E+03  0.30097762603E+03  0.41461272611E+03  0.90701806902E+02 0.  0.
        -13    1    3    3    0    0  0.29392388433E+02  0.69210147392E+01  0.13554053271E+02  0.33098720562E+02  0.00000000000E+00 0.  1.
         14    1    3    3    0    0 -0.57222966752E+02  0.43780298174E+02  0.43289231561E+02  0.84054387162E+02  0.00000000000E+00 0. -1.
        -13    1    4    4    0    0  0.11973989554E+03 -0.10584314066E+03  0.18743770805E+03  0.24631952299E+03  0.00000000000E+00 0.  1.
         13    1    4    4    0    0  0.26917424129E+02 -0.12127135488E+03  0.11353991799E+03  0.16829320311E+03  0.00000000000E+00 0. -1.
         -2    1    1    2    0  502 -0.11882674135E+03  0.17641318263E+03  0.27077015006E+03  0.34432234843E+03  0.00000000000E+00 0.  1.
<scales pt_clust_5="13000.00000" pt_clust_6="13000.00000" pt_clust_7="13000.00000" pt_clust_8="13000.00000" pt_clust_9="239.33716"></scales>
<clustering>
<clus scale="   84.549">  5  6 -1 -1</clus>
<clus scale="   90.702">  7  8 -1 -1</clus>
<clus scale="  102.439">  1  5  2 -1</clus>
<clus scale="  239.337">  2  9  1 -1</clus>
<clus scale="  239.337">  2  5  1 -1</clus>
</clustering>
</event>
<event>
 9    2  0.6190160E-005  0.1084892E+03  0.7546771E-02  0.1263585E+00
         21   -1    0    0  501  502  0.00000000000E+00  0.00000000000E+00  0.12736523783E+03  0.12736523783E+03  0.00000000000E+00 0. -1.
         -1   -1    0    0    0  501 -0.00000000000E+00 -0.00000000000E+00 -0.16085809441E+03  0.16085809441E+03  0.00000000000E+00 0.  1.
         23    2    1    2    0    0  0.51964974013E+02 -0.22825314824E+02 -0.78507811289E+02  0.13397083115E+03  0.92538390113E+02 0.  0.
         24    2    1    2    0    0 -0.34720011337E+02  0.53655599934E+02  0.37081324576E+02  0.11804700835E+03  0.92063396396E+02 0.  0.
        -13    1    4    4    0    0 -0.40881613461E+02  0.23922873025E+02 -0.21535349160E+02  0.52032503653E+02  0.00000000000E+00 0.  1.
         14    1    4    4    0    0  0.61616021239E+01  0.29732726910E+02  0.58616673736E+02  0.66014504695E+02  0.00000000000E+00 0. -1.
        -11    1    3    3    0    0  0.57333473116E+02  0.10168360185E+02 -0.81770991384E+02  0.10038434998E+03  0.00000000000E+00 0.  1.
         11    1    3    3    0    0 -0.53684991035E+01 -0.32993675009E+02  0.32631800952E+01  0.33586481173E+02  0.00000000000E+00 0. -1.
         -2    1    1    2    0  502 -0.17244962676E+02 -0.30830285110E+02  0.79336301293E+01  0.36205492742E+02  0.00000000000E+00 0.  1.
<scales pt_clust_5="13000.00000" pt_clust_6="13000.00000" pt_clust_7="13000.00000" pt_clust_8="13000.00000" pt_clust_9="35.32556"></scales>
<clustering>
<clus scale="   35.326">  1  9  2 -1</clus>
<clus scale="   92.063">  5  6 -1 -1</clus>
<clus scale="   92.538">  7  8 -1 -1</clus>
<clus scale="  108.084">  1  5  2 -1</clus>
<clus scale="   35.326">  1  5  2 -1</clus>
</clustering>
</event>
<event>
 9    2  0.6190160E-005  0.1167174E+03  0.7546771E-02  0.1254031E+00
         -3   -1    0    0    0  501 -0.00000000000E+00  0.00000000000E+00  0.17669114158E+03  0.17669114158E+03  0.00000000000E+00 0.  1.
         21   -1    0    0  501  502  0.00000000000E+00 -0.00000000000E+00 -0.10338349878E+03  0.10338349878E+03  0.00000000000E+00 0.  1.
         23    2    1    2    0    0  0.37815480796E+01 -0.82431113047E+02  0.71329810104E+02  0.14463366467E+03  0.94982980804E+02 0.  0.
         24    2    1    2    0    0 -0.22399435723E+01  0.45495009332E+02 -0.17624101524E+02  0.93597360565E+02  0.79843870954E+02 0.  0.
        -13    1    4    4    0    0 -0.23859606918E+02 -0.13227171138E+02  0.36069369426E+01  0.27518155692E+02  0.00000000000E+00 0.  1.
         14    1    4    4    0    0  0.21619663346E+02  0.58722180469E+02 -0.21231038467E+02  0.66079204873E+02  0.00000000000E+00 0. -1.
        -11    1    3    3    0    0 -0.25130586464E+02 -0.13214491758E+01 -0.91436722815E+01  0.26774976130E+02  0.00000000000E+00 0. -1.
         11    1    3    3    0    0  0.28912134544E+02 -0.81109663871E+02  0.80473482386E+02  0.11785868854E+03  0.00000000000E+00 0.  1.
         -4    1    1    2    0  502 -0.15416045073E+01  0.36936103715E+02  0.19601934216E+02  0.41843615129E+02  0.00000000000E+00 0.  1.
<scales pt_clust_5="13000.00000" pt_clust_6="13000.00000" pt_clust_7="13000.00000" pt_clust_8="13000.00000" pt_clust_9="36.96828"></scales>
<clustering>
<clus scale="   36.968">  2  9  1 -1</clus>
<clus scale="   79.844">  5  6 -1 -1</clus>
<clus scale="   94.983">  7  8 -1 -1</clus>
<clus scale="  104.768">  2  5  1 -1</clus>
<clus scale="   36.968">  2  5  1 -1</clus>
</clustering>
</event>
<event>
 9    2  0.6190160E-005  0.9397790E+02  0.7546771E-02  0.1303438E+00
          2   -1    0    0  502    0 -0.00000000000E+00  0.00000000000E+00  0.57502943817E+03  0.57502943817E+03  0.00000000000E+00 0. -1.
         21   -1    0    0  501  502  0.00000000000E+00 -0.00000000000E+00 -0.40682992175E+02  0.40682992175E+02  0.00000000000E+00 0. -1.
         24    2    1    2    0    0  0.54182446849E+01  0.17235513532E+02  0.31763968418E+03  0.32721878373E+03  0.76490150736E+02 0.  0.
         23    2    1    2    0    0  0.27675611472E+02 -0.11458362329E+02  0.23200814725E+03  0.25157872839E+03  0.92557239871E+02 0.  0.
        -11    1    3    3    0    0 -0.30954064884E+02  0.20902321733E+02  0.10467240485E+03  0.11113673346E+03  0.00000000000E+00 0.  1.
         12    1    3    3    0    0  0.36372309569E+02 -0.36668082018E+01  0.21296727933E+03  0.21608205028E+03  0.00000000000E+00 0. -1.
        -11    1    4    4    0    0  0.26362869727E+02  0.38223830065E+02  0.13143326891E+03  0.13939428346E+03  0.00000000000E+00 0. -1.
         11    1    4    4    0    0  0.13127417444E+01 -0.49682192394E+02  0.10057487834E+03  0.11218444493E+03  0.00000000000E+00 0.  1.
          1    1    1    2  501    0 -0.33093856156E+02 -0.57771512028E+01 -0.15301385430E+02  0.36914918223E+02  0.00000000000E+00 0. -1.
<scales pt_clust_5="13000.00000" pt_clust_6="13000.00000" pt_clust_7="13000.00000" pt_clust_8="13000.00000" pt_clust_9="33.59433"></scales>
<clustering>
<clus scale="   33.594">  2  9  1 -1</clus>
<clus scale="   76.490">  5  6 -1 -1</clus>
<clus scale="   78.203">  1  5  2 -1</clus>
<clus scale="   92.557">  7  8 -1 -1</clus>
<clus scale="   33.594">  2  5  1 -1</clus>
</clustering>
</event>
<event>
 9    2  0.6190160E-005  0.1039934E+03  0.7546771E-02  0.1278442E+00
         -1   -1    0    0    0  501 -0.00000000000E+00  0.00000000000E+00  0.30627180075E+03  0.30627180075E+03  0.00000000000E+00 0.  1.
         21   -1    0    0  501  502  0.00000000000E+00 -0.00000000000E+00 -0.54236912628E+02  0.54236912628E+02  0.00000000000E+00 0. -1.
         23    2    1    2    0    0 -0.95087030682E+01 -0.39659712258E+02  0.18756613915E+03  0.21440615484E+03  0.95528186762E+02 0.  0.
         24    2    1    2    0    0 -0.24204388483E+02  0.44085045179E+02  0.53377971464E+02  0.11033719178E+03  0.82436305248E+02 0.  0.
        -13    1    4    4    0    0 -0.18201033579E+02 -0.22110679944E+02  0.25187172606E+02  0.38138608454E+02  0.00000000000E+00 0.  1.
         14    1    4    4    0    0 -0.60033549043E+01  0.66195725123E+02  0.28190798858E+02  0.72198583330E+02  0.00000000000E+00 0. -1.
        -11    1    3    3    0    0 -0.49418085098E+02 -0.40586801794E+02  0.11593368752E+03  0.13240111599E+03  0.00000000000E+00 0. -1.
         11    1    3    3    0    0  0.39909382030E+02  0.92708953656E+00  0.71632451636E+02  0.82005038848E+02  0.00000000000E+00 0.  1.
         -2    1    1    2    0  502  0.33713091551E+02 -0.44253329214E+01  0.11090777505E+02  0.35765366755E+02  0.00000000000E+00 0.  1.
<scales pt_clust_5="13000.00000" pt_clust_6="13000.00000" pt_clust_7="13000.00000" pt_clust_8="13000.00000" pt_clust_9="34.00230"></scales>
<clustering>
<clus scale="   34.002">  2  9  1 -1</clus>
<clus scale="   82.436">  5  6 -1 -1</clus>
<clus scale="   92.113">  2  5  1 -1</clus>
<clus scale="   95.528">  7  8 -1 -1</clus>
<clus scale="   34.002">  2  5  1 -1</clus>
</clustering>
</event>
<event>
 9    2  0.6190160E-005  0.1161717E+03  0.7546771E-02  0.1254706E+00
         21   -1    0    0  501  502  0.00000000000E+00  0.00000000000E+00  0.27804327382E+03  0.27804327382E+03  0.00000000000E+00 0. -1.
         -1   -1    0    0    0  501 -0.00000000000E+00 -0.00000000000E+00 -0.88672489012E+02  0.88672489012E+02  0.00000000000E+00 0.  1.
         24    2    1    2    0    0 -0.49015302483E+02 -0.50402519947E+02 -0.22517767602E+02  0.10815430509E+03  0.79040432415E+02 0.  0.
         23    2    1    2    0    0  0.63978927686E+02  0.24277167835E+02  0.14844820778E+03  0.18833951367E+03  0.93553289372E+02 0.  0.
        -13    1    3    3    0    0 -0.66049320376E+02 -0.18150844285E+02 -0.21017282909E+02  0.71649787517E+02  0.00000000000E+00 0.  1.
         14    1    3    3    0    0  0.17034017894E+02 -0.32251675662E+02 -0.15004846930E+01  0.36504517569E+02  0.00000000000E+00 0. -1.
        -13    1    4    4    0    0 -0.22635325337E+02  0.88276886287E+01  0.15178043697E+02  0.28647147329E+02  0.00000000000E+00 0.  1.
         13    1    4    4    0    0  0.86614253022E+02  0.15449479207E+02  0.13327016408E+03  0.15969236634E+03  0.00000000000E+00 0. -1.
         -2    1    1    2    0  502 -0.14963625203E+02  0.26125352112E+02  0.63440344630E+02  0.70221944070E+02  0.00000000000E+00 0.  1.
<scales pt_clust_5="13000.00000" pt_clust_6="13000.00000" pt_clust_7="13000.00000" pt_clust_8="13000.00000" pt_clust_9="30.10721"></scales>
<clustering>
<clus scale="   30.107">  1  9  2 -1</clus>
<clus scale="   79.040">  5  6 -1 -1</clus>
<clus scale="   93.553">  7  8 -1 -1</clus>
<clus scale="  104.838">  2  5  1 -1</clus>
<clus scale="   30.107">  1  5  2 -1</clus>
</clustering>
</event>
<event>
 9    2  0.6190160E-005  0.1068685E+03  0.7546771E-02  0.1272022E+00
         -1   -1    0    0    0  501 -0.00000000000E+00  0.00000000000E+00  0.13988648090E+03  0.13988648090E+03  0.00000000000E+00 0.  1.
         21   -1    0    0  501  502  0.00000000000E+00 -0.00000000000E+00 -0.12471530023E+03  0.12471530023E+03  0.00000000000E+00 0.  1.
         23    2    1    2    0    0  0.34030244724E+02 -0.11965340436E+01  0.21142014480E+02  0.10049465544E+03  0.92155855733E+02 0.  0.
         24    2    1    2    0    0 -0.81833045162E+02 -0.83594612444E+01  0.41078946523E+01  0.11432755615E+03  0.79293047765E+02 0.  0.
        -11    1    4    4    0    0 -0.68203379022E+02 -0.38665879850E+02 -0.83374435730E+01  0.78843288490E+02  0.00000000000E+00 0.  1.
         12    1    4    4    0    0 -0.13629666141E+02  0.30306418606E+02  0.12445338225E+02  0.35484267660E+02  0.00000000000E+00 0. -1.
        -11    1    3    3    0    0  0.63483037479E+02 -0.59220753785E+01 -0.29823273871E+00  0.63759359840E+02  0.00000000000E+00 0.  1.
         11    1    3    3    0    0 -0.29452792756E+02  0.47255413350E+01  0.21440247219E+02  0.36735295600E+02  0.00000000000E+00 0. -1.
         -2    1    1    2    0  502  0.47802800439E+02  0.95559952880E+01 -0.10078728464E+02  0.49779569536E+02  0.00000000000E+00 0.  1.
<scales pt_clust_5="13000.00000" pt_clust_6="13000.00000" pt_clust_7="13000.00000" pt_clust_8="13000.00000" pt_clust_9="48.74859"></scales>
<clustering>
<clus scale="   48.749">  2  9  1 -1</clus>
<clus scale="   79.293">  5  6 -1 -1</clus>
<clus scale="   92.156">  7  8 -1 -1</clus>
<clus scale="   95.998">  2  5  1 -1</clus>
<clus scale="   48.749">  2  5  1 -1</clus>
</clustering>
</event>
<event>
 9    2  0.6190160E-005  0.1007385E+03  0.7546771E-02  0.1283932E+00
          2   -1    0    0  502    0 -0.00000000000E+00  0.00000000000E+00  0.42858866765E+03  0.42858866765E+03  0.00000000000E+00 0. -1.
         21   -1    0    0  501  502  0.00000000000E+00 -0.00000000000E+00 -0.48936970651E+02  0.48936970651E+02  0.00000000000E+00 0.  1.
         24    2    1    2    0    0  0.94195432826E+00 -0.49785243025E+02  0.31393277212E+03  0.32769296668E+03  0.79683356478E+02 0.  0.
         23    2    1    2    0    0  0.13524444486E+02  0.26745329311E+02  0.74897831480E+02  0.12112088580E+03  0.90345783406E+02 0.  0.
        -13    1    3    3    0    0 -0.12883707053E+02  0.18627837670E+02  0.10484115732E+03  0.10725975252E+03  0.00000000000E+00 0.  1.
         14    1    3    3    0    0  0.13825661381E+02 -0.68413080695E+02  0.20909161480E+03  0.22043321416E+03  0.00000000000E+00 0. -1.
        -11    1    4    4    0    0  0.33090822799E+02 -0.15260378582E+02  0.63796871710E+02  0.73470555653E+02  0.00000000000E+00 0. -1.
         11    1    4    4    0    0 -0.19566378313E+02  0.42005707892E+02  0.11100959770E+02  0.47650330152E+02  0.00000000000E+00 0.  1.
          1    1    1    2  501    0 -0.14466398814E+02  0.23039913715E+02 -0.91789065974E+01  0.28711785820E+02  0.00000000000E+00 0. -1.
<scales pt_clust_5="13000.00000" pt_clust_6="13000.00000" pt_clust_7="13000.00000" pt_clust_8="13000.00000" pt_clust_9="27.20504"></scales>
<clustering>
<clus scale="   27.205">  2  9  1 -1</clus>
<clus scale="   79.683">  5  6 -1 -1</clus>
<clus scale="   90.346">  7  8 -1 -1</clus>
<clus scale="   91.298">  1  5  2 -1</clus>
<clus scale="   27.205">  2  5  1 -1</clus>
</clustering>
</event>
<event>
 9    2  0.6190160E-005  0.1770741E+03  0.7546771E-02  0.1171915E+00
         -3   -1    0    0    0  501 -0.00000000000E+00  0.00000000000E+00  0.11241680644E+03  0.11241680644E+03  0.00000000000E+00 0.  1.
         21   -1    0    0  501  502  0.00000000000E+00 -0.00000000000E+00 -0.88932843538E+03  0.88932843538E+03  0.00000000000E+00 0.  1.
         24    2    1    2    0    0 -0.13515532963E+03  0.99183481811E+02 -0.16454914588E+03  0.24862097936E+03  0.81434905159E+02 0.  0.
         23    2    1    2    0    0  0.13184328396E+03  0.17302544132E+02 -0.61573886419E+03  0.63654225768E+03  0.91485886245E+02 0.  0.
        -13    1    3    3    0    0 -0.36430698846E+01  0.43229155794E+02 -0.35416432330E+02  0.56003174444E+02  0.00000000000E+00 0.  1.
         14    1    3    3    0    0 -0.13151225974E+03  0.55954326018E+02 -0.12913271355E+03  0.19261780492E+03  0.00000000000E+00 0. -1.
        -13    1    4    4    0    0  0.86127205767E+02  0.54322789722E+02 -0.35993019818E+03  0.37405695905E+03  0.00000000000E+00 0.  1.
         13    1    4    4    0    0  0.45716078194E+02 -0.37020245590E+02 -0.25580866602E+03  0.26248529863E+03  0.00000000000E+00 0. -1.
         -4    1    1    2    0  502  0.33120456645E+01 -0.11648602594E+03  0.33763811328E+01  0.11658200477E+03  0.00000000000E+00 0.  1.
<scales pt_clust_5="13000.00000" pt_clust_6="13000.00000" pt_clust_7="13000.00000" pt_clust_8="13000.00000" pt_clust_9="116.53316"></scales>
<clustering>
<clus scale="   81.435">  5  6 -1 -1</clus>
<clus scale="   91.486">  7  8 -1 -1</clus>
<clus scale="  116.533">  2  9  1 -1</clus>
<clus scale="  172.096">  1  5  2 -1</clus>
<clus scale="  116.533">  2  5  1 -1</clus>
</clustering>
</event>
<event>
 9    2  0.6190160E-005  0.9356745E+02  0.7546771E-02  0.1301727E+00
         21   -1    0    0  501  502  0.00000000000E+00  0.00000000000E+00  0.33886624864E+03  0.33886624864E+03  0.00000000000E+00 0.  1.
         -1   -1    0    0    0  501 -0.00000000000E+00 -0.00000000000E+00 -0.11384807055E+03  0.11384807055E+03  0.00000000000E+00 0.  1.
         23    2    1    2    0    0 -0.98717426816E+01  0.76929476859E+01 -0.68949469179E+02  0.11535240348E+03  0.91627042633E+02 0.  0.
         24    2    1    2    0    0  0.26404984644E+02 -0.49728453478E+02  0.10576503637E+03  0.14381462281E+03  0.79537793020E+02 0.  0.
        -11    1    4    4    0    0  0.25884619956E+02 -0.65755810180E+02  0.52077214544E+02  0.87783121369E+02  0.00000000000E+00 0.  1.
         12    1    4    4    0    0  0.52036468861E+00  0.16027356702E+02  0.53687821822E+02  0.56031501445E+02  0.00000000000E+00 0. -1.
        -11    1    3    3    0    0 -0.24212985750E+02  0.33726753269E+02 -0.74337042125E+02  0.85145513076E+02  0.00000000000E+00 0.  1.
         11    1    3    3    0    0  0.14341243068E+02 -0.26033805583E+02  0.53875729464E+01  0.30206890408E+02  0.00000000000E+00 0. -1.
         -2    1    1    2    0  502 -0.16533241963E+02  0.42035505792E+02  0.18820261090E+03  0.19354729290E+03  0.00000000000E+00 0.  1.
<scales pt_clust_5="13000.00000" pt_clust_6="13000.00000" pt_clust_7="13000.00000" pt_clust_8="13000.00000" pt_clust_9="45.17003"></scales>
<clustering>
<clus scale="   45.170">  1  9  2 -1</clus>
<clus scale="   79.538">  5  6 -1 -1</clus>
<clus scale="   81.766">  1  5  2 -1</clus>
<clus scale="   91.627">  7  8 -1 -1</clus>
<clus scale="   45.170">  1  5  2 -1</clus>
</clustering>
</event>
<event>
 9    2  0.6190160E-005  0.1403829E+03  0.7546771E-02  0.1229914E+00
         21   -1    0    0  501  502  0.00000000000E+00  0.00000000000E+00  0.98798623051E+02  0.98798623051E+02  0.00000000000E+00 0. -1.
          2   -1    0    0  502    0 -0.00000000000E+00 -0.00000000000E+00 -0.84785770001E+03  0.84785770001E+03  0.00000000000E+00 0. -1.
         24    2    1    2    0    0 -0.11921246089E+02 -0.10499216452E+02 -0.51297630325E+03  0.52227522524E+03  0.96821348604E+02 0.  0.
         23    2    1    2    0    0  0.31755414687E+01  0.11348324748E+03 -0.27658707202E+03  0.31337300723E+03  0.93881317237E+02 0.  0.
        -13    1    3    3    0    0 -0.18889420416E+01  0.43293307266E+02 -0.21757399975E+03  0.22184752405E+03  0.00000000000E+00 0.  1.
         14    1    3    3    0    0 -0.10032304047E+02 -0.53792523717E+02 -0.29540230350E+03  0.30042770119E+03  0.00000000000E+00 0. -1.
        -13    1    4    4    0    0  0.35232084133E+02  0.97183314646E+02 -0.24338199236E+03  0.26442520796E+03  0.00000000000E+00 0.  1.
         13    1    4    4    0    0 -0.32056542665E+02  0.16299932833E+02 -0.33205079665E+02  0.48947799272E+02  0.00000000000E+00 0. -1.
          1    1    1    2  501    0  0.87457046198E+01 -0.10298403103E+03  0.40504298316E+02  0.11100809060E+03  0.00000000000E+00 0. -1.
<scales pt_clust_5="13000.00000" pt_clust_6="13000.00000" pt_clust_7="13000.00000" pt_clust_8="13000.00000" pt_clust_9="104.37269"></scales>
<clustering>
<clus scale="   93.881">  7  8 -1 -1</clus>
<clus scale="   96.821">  5  6 -1 -1</clus>
<clus scale="   98.116">  2  5  1 -1</clus>
<clus scale="  104.373">  1  9  2 -1</clus>
<clus scale="  104.373">  1  5  2 -1</clus>
</clustering>
</event>
<event>
 9    2  0.6190160E-005  0.1053623E+03  0.7546771E-02  0.1273838E+00
         -3   -1    0    0    0  501 -0.00000000000E+00  0.00000000000E+00  0.10226749570E+03  0.10226749570E+03  0.00000000000E+00 0.  1.
         21   -1    0    0  501  502  0.00000000000E+00 -0.00000000000E+00 -0.24445690150E+03  0.24445690150E+03  0.00000000000E+00 0.  1.
         23    2    1    2    0    0 -0.25940733109E+02 -0.37500649418E+01 -0.99794406590E+01  0.95629090753E+02  0.91424007466E+02 0.  0.
         24    2    1    2    0    0  0.85479015176E+02  0.17091711780E+01 -0.14134636190E+02  0.11884268611E+03  0.81327810747E+02 0.  0.
        -11    1    4    4    0    0 -0.30175131566E+01 -0.25110769946E+02 -0.61424185009E+01  0.26026629785E+02  0.00000000000E+00 0.  1.
         12    1    4    4    0    0  0.88496528332E+02  0.26819941124E+02 -0.79922176895E+01  0.92816056328E+02  0.00000000000E+00 0. -1.
        -11    1    3    3    0    0 -0.47895249024E+02 -0.33036246991E+02 -0.22921410311E+01  0.58228879475E+02  0.00000000000E+00 0.  1.
         11    1    3    3    0    0  0.21954515916E+02  0.29286182049E+02 -0.76872996278E+01  0.37400211278E+02  0.00000000000E+00 0. -1.
         -4    1    1    2    0  502 -0.59538282067E+02  0.20408937639E+01 -0.11807532895E+03  0.13225262033E+03  0.00000000000E+00 0.  1.
<scales pt_clust_5="13000.00000" pt_clust_6="13000.00000" pt_clust_7="13000.00000" pt_clust_8="13000.00000" pt_clust_9="59.57325"></scales>
<clustering>
<clus scale="   59.573">  2  9  1 -1</clus>
<clus scale="   81.328">  5  6 -1 -1</clus>
<clus scale="   91.424">  7  8 -1 -1</clus>
<clus scale="   96.732">  2  5  1 -1</clus>
<clus scale="   59.573">  2  5  1 -1</clus>
</clustering>
</event>
<event>
 9    2  0.6190160E-005  0.1231014E+03  0.7546771E-02  0.1252489E+00
         21   -1    0    0  501  502  0.00000000000E+00  0.00000000000E+00  0.36466514757E+03  0.36466514757E+03  0.00000000000E+00 0.  1.
          4   -1    0    0  502    0 -0.00000000000E+00 -0.00000000000E+00 -0.20260998021E+03  0.20260998021E+03  0.00000000000E+00 0. -1.
         23    2    1    2    0    0  0.10135105124E+00 -0.16369509320E+01 -0.15645665339E+03  0.18153990573E+03  0.92061735266E+02 0.  0.
         24    2    1    2    0    0 -0.21184751603E+02 -0.90844859408E+02  0.16876855222E+03  0.20847710095E+03  0.79235694115E+02 0.  0.
        -13    1    4    4    0    0 -0.48944896721E+02 -0.41161610490E+02  0.10556696537E+03  0.12342716585E+03  0.00000000000E+00 0.  1.
         14    1    4    4    0    0  0.27760145118E+02 -0.49683248919E+02  0.63201586851E+02  0.85049935100E+02  0.00000000000E+00 0. -1.
        -11    1    3    3    0    0 -0.26260692327E+01  0.30946392973E+02 -0.14274395163E+03  0.14608357609E+03  0.00000000000E+00 0. -1.
         11    1    3    3    0    0  0.27274202839E+01 -0.32583343905E+02 -0.13712701765E+02  0.35456329634E+02  0.00000000000E+00 0.  1.
          3    1    1    2  501    0  0.21083400552E+02  0.92481810340E+02  0.14974326855E+03  0.17725812110E+03  0.00000000000E+00 0. -1.
<scales pt_clust_5="13000.00000" pt_clust_6="13000.00000" pt_clust_7="13000.00000" pt_clust_8="13000.00000" pt_clust_9="94.21076"></scales>
<clustering>
<clus scale="   79.236">  5  6 -1 -1</clus>
<clus scale="   92.062">  7  8 -1 -1</clus>
<clus scale="   92.076">  2  7  1 -1</clus>
<clus scale="   94.211">  1  9  2 -1</clus>
<clus scale="   94.211">  1  5  2 -1</clus>
</clustering>
</event>
<event>
 9    2  0.6190160E-005  0.1008782E+03  0.7546771E-02  0.1280431E+00
         21   -1    0    0  501  502  0.00000000000E+00  0.00000000000E+00  0.20169806076E+03  0.20169806076E+03  0.00000000000E+00 0.  1.
          2   -1    0    0  502    0 -0.00000000000E+00 -0.00000000000E+00 -0.95919768758E+02  0.95919768758E+02  0.00000000000E+00 0. -1.
         24    2    1    2    0    0 -0.68653882737E+02 -0.36788573150E+02  0.10486372717E+01  0.11254967836E+03  0.81237772793E+02 0.  0.
         23    2    1    2    0    0  0.86776151327E+01  0.12801042762E+02  0.70240447510E+02  0.11184206493E+03  0.85649047405E+02 0.  0.
        -13    1    3    3    0    0 -0.53304915357E+02  0.12053436445E+02  0.19653215656E+02  0.58077088572E+02  0.00000000000E+00 0.  1.
         14    1    3    3    0    0 -0.15348967380E+02 -0.48842009595E+02 -0.18604578384E+02  0.54472589784E+02  0.00000000000E+00 0. -1.
        -11    1    4    4    0    0 -0.23813299933E+02  0.31851523427E+02  0.61400182778E+02  0.73154461542E+02  0.00000000000E+00 0.  1.
         11    1    4    4    0    0  0.32490915066E+02 -0.19050480665E+02  0.88402647317E+01  0.38687603388E+02  0.00000000000E+00 0. -1.
          1    1    1    2  501    0  0.59976267605E+02  0.23987530389E+02  0.34489207218E+02  0.73226086230E+02  0.00000000000E+00 0. -1.
<scales pt_clust_5="13000.00000" pt_clust_6="13000.00000" pt_clust_7="13000.00000" pt_clust_8="13000.00000" pt_clust_9="64.59531"></scales>
<clustering>
<clus scale="   64.595">  1  9  2 -1</clus>
<clus scale="   81.238">  5  6 -1 -1</clus>
<clus scale="   85.649">  7  8 -1 -1</clus>
<clus scale="   97.161">  2  5  1 -1</clus>
<clus scale="   64.595">  1  5  2 -1</clus>
</clustering>
</event>
<event>
 9    2  0.6190160E-005  0.1267878E+03  0.7546771E-02  0.1246092E+00
         -3   -1    0    0    0  501 -0.00000000000E+00  0.00000000000E+00  0.52879097094E+03  0.52879097094E+03  0.00000000000E+00 0.  1.
         21   -1    0    0  501  502  0.00000000000E+00 -0.00000000000E+00 -0.60915863839E+02  0.60915863839E+02  0.00000000000E+00 0. -1.
         24    2    1    2    0    0  0.17469250654E+02  0.53858264436E+02  0.10436443603E+03  0.14165347249E+03  0.77252076949E+02 0.  0.
         23    2    1    2    0    0 -0.49300604582E+02  0.61825673233E+02  0.91139338312E+02  0.15042582419E+03  0.89825308867E+02 0.  0.
        -13    1    3    3    0    0 -0.26453298519E+02  0.38842653772E+02  0.68135333393E+02  0.82770480313E+02  0.00000000000E+00 0.  1.
         14    1    3    3    0    0  0.43922549172E+02  0.15015610663E+02  0.36229102638E+02  0.58882992174E+02  0.00000000000E+00 0. -1.
        -13    1    4    4    0    0 -0.54206829210E+02  0.91667299946E+00  0.22975825772E+02  0.58882163617E+02  0.00000000000E+00 0. -1.
         13    1    4    4    0    0  0.49062246279E+01  0.60909000234E+02  0.68163512540E+02  0.91543660575E+02  0.00000000000E+00 0.  1.
         -4    1    1    2    0  502  0.31831353928E+02 -0.11568393767E+03  0.27237133276E+03  0.29762753810E+03  0.00000000000E+00 0.  1.
<scales pt_clust_5="13000.00000" pt_clust_6="13000.00000" pt_clust_7="13000.00000" pt_clust_8="13000.00000" pt_clust_9="89.47944"></scales>
<clustering>
<clus scale="   77.252">  5  6 -1 -1</clus>
<clus scale="   89.825">  7  8 -1 -1</clus>
<clus scale="   95.780">  1  5  2 -1</clus>
<clus scale="   89.479">  2  9  1 -1</clus>
<clus scale="   89.479">  2  5  1 -1</clus>
</clustering>
</event>
<event>
 9    2  0.6190160E-005  0.1082821E+03  0.7546771E-02  0.1267412E+00
          2   -1    0    0  502    0 -0.00000000000E+00  0.00000000000E+00  0.60735332389E+03  0.60735332389E+03  0.00000000000E+00 0. -1.
         21   -1    0    0  501  502  0.00000000000E+00 -0.00000000000E+00 -0.26909748413E+02  0.26909748413E+02  0.00000000000E+00 0.  1.
         24    2    1    2    0    0  0.34290897715E+02  0.40717541353E+02  0.33771538157E+03  0.35149996836E+03  0.81650260071E+02 0.  0.
         23    2    1    2    0    0 -0.32376174143E+02 -0.67886722698E+02  0.19440298097E+03  0.22729097773E+03  0.90619235129E+02 0.  0.
        -13    1    3    3    0    0  0.59504852483E+02  0.18431922825E+02  0.18809691562E+03  0.19814391970E+03  0.00000000000E+00 0.  1.
         14    1    3    3    0    0 -0.25213954768E+02  0.22285618528E+02  0.14961846595E+03  0.15335604866E+03  0.00000000000E+00 0. -1.
        -13    1    4    4    0    0 -0.50135671662E+02 -0.49999038486E+01  0.64202524282E+02  0.81612184971E+02  0.00000000000E+00 0. -1.
         13    1    4    4    0    0  0.17759497519E+02 -0.62886818849E+02  0.13020045669E+03  0.14567879276E+03  0.00000000000E+00 0.  1.
          1    1    1    2  501    0 -0.19147235719E+01  0.27169181345E+02  0.48325212934E+02  0.55472126212E+02  0.00000000000E+00 0. -1.
<scales pt_clust_5="13000.00000" pt_clust_6="13000.00000" pt_clust_7="13000.00000" pt_clust_8="13000.00000" pt_clust_9="27.23657"></scales>
<clustering>
<clus scale="   27.237">  2  9  1 -1</clus>
<clus scale="   81.650">  5  6 -1 -1</clus>
<clus scale="   90.619">  7  8 -1 -1</clus>
<clus scale="  100.896">  1  5  2 -1</clus>
<clus scale="   27.237">  2  5  1 -1</clus>
</clustering>
</event>
<event>
 9    2  0.6190160E-005  0.1006489E+03  0.7546771E-02  0.1285947E+00
         21   -1    0    0  501  502  0.00000000000E+00  0.00000000000E+00  0.13820772921E+03  0.13820772921E+03  0.00000000000E+00 0. -1.
          4   -1    0    0  502    0 -0.00000000000E+00 -0.00000000000E+00 -0.16890277615E+03  0.16890277615E+03  0.00000000000E+00 0. -1.
         23    2    1    2    0    0  0.47408803398E+02 -0.71968436050E+01 -0.71964829548E+02  0.12748818272E+03  0.93674494094E+02 0.  0.
         24    2    1    2    0    0 -0.25811069518E+02  0.51555557483E+01 -0.41578802940E+02  0.93980527394E+02  0.80067169368E+02 0.  0.
        -13    1    4    4    0    0 -0.42572226141E+02  0.20835281678E+02 -0.10558193552E+01  0.47409051412E+02  0.00000000000E+00 0.  1.
         14    1    4    4    0    0  0.16761156623E+02 -0.15679725930E+02 -0.40522983585E+02  0.46571475983E+02  0.00000000000E+00 0. -1.
        -11    1    3    3    0    0  0.91138781553E+01 -0.21272250057E+02  0.17595840889E+02  0.29072065873E+02  0.00000000000E+00 0.  1.
         11    1    3    3    0    0  0.38294925243E+02  0.14075406452E+02 -0.89560670437E+02  0.98416116847E+02  0.00000000000E+00 0. -1.
          3    1    1    2  501    0 -0.21597733880E+02  0.20412878567E+01  0.82848585550E+02  0.85641795244E+02  0.00000000000E+00 0. -1.
<scales pt_clust_5="13000.00000" pt_clust_6="13000.00000" pt_clust_7="13000.00000" pt_clust_8="13000.00000" pt_clust_9="21.69398"></scales>
<clustering>
<clus scale="   21.694">  1  9  2 -1</clus>
<clus scale="   80.067">  5  6 -1 -1</clus>
<clus scale="   88.125">  1  5  2 -1</clus>
<clus scale="   93.674">  7  8 -1 -1</clus>
<clus scale="   21.694">  1  5  2 -1</clus>
</clustering>
</event>
<event>
 9    2  0.6190160E-005  0.1139518E+03  0.7546771E-02  0.1257816E+00
         21   -1    0    0  501  502  0.00000000000E+00  0.00000000000E+00  0.58824477661E+02  0.58824477661E+02  0.00000000000E+00 0. -1.
          2   -1    0    0  502    0 -0.00000000000E+00 -0.00000000000E+00 -0.30831043154E+03  0.30831043154E+03  0.00000000000E+00 0. -1.
         24    2    1    2    0    0 -0.77471052666E+02  0.27064147989E+02 -0.15432197941E+03  0.19225780403E+03  0.80084691255E+02 0.  0.
         23    2    1    2    0    0  0.42125232400E+02 -0.54406523652E+01 -0.48405795520E+02  0.11240127087E+03  0.92123768650E+02 0.  0.
        -11    1    3    3    0    0 -0.14527125827E+02 -0.21163757189E+02 -0.99273201729E+01  0.27522603237E+02  0.00000000000E+00 0.  1.
         12    1    3    3    0    0 -0.62943926839E+02  0.48227905178E+02 -0.14439465923E+03  0.16473520079E+03  0.00000000000E+00 0. -1.
        -13    1    4    4    0    0 -0.74042244995E+01 -0.25923342263E+02  0.13802707360E+02  0.30287900967E+02  0.00000000000E+00 0. -1.
         13    1    4    4    0    0  0.49529456900E+02  0.20482689898E+02 -0.62208502880E+02  0.82113369903E+02  0.00000000000E+00 0.  1.
          1    1    1    2  501    0  0.35345820266E+02 -0.21623495623E+02 -0.46758178955E+02  0.62475834308E+02  0.00000000000E+00 0. -1.
<scales pt_clust_5="13000.00000" pt_clust_6="13000.00000" pt_clust_7="13000.00000" pt_clust_8="13000.00000" pt_clust_9="41.43554"></scales>
<clustering>
<clus scale="   41.436">  1  9  2 -1</clus>
<clus scale="   80.085">  5  6 -1 -1</clus>
<clus scale="   92.124">  7  8 -1 -1</clus>
<clus scale="  104.459">  2  5  1 -1</clus>
<clus scale="   41.436">  1  5  2 -1</clus>
</clustering>
</event>
<event>
 9    2  0.6190160E-005  0.1599199E+03  0.7546771E-02  0.1191882E+00
          2   -1    0    0  502    0 -0.00000000000E+00  0.00000000000E+00  0.73256073005E+03  0.73256073005E+03  0.00000000000E+00 0. -1.
         21   -1    0    0  501  502  0.00000000000E+00 -0.00000000000E+00 -0.82548351295E+02  0.82548351295E+02  0.00000000000E+00 0.  1.
         23    2    1    2    0    0  0.57345491979E+02 -0.12004159737E+03  0.40916999119E+03  0.43937871235E+03  0.89079069486E+02 0.  0.
         24    2    1    2    0    0 -0.37246296800E+02  0.12821231759E+03  0.28750378883E+03  0.32427140783E+03  0.68321536437E+02 0.  0.
        -13    1    4    4    0    0  0.18506049600E-01  0.96253887732E+02  0.14960146019E+03  0.17789156286E+03  0.00000000000E+00 0.  1.
         14    1    4    4    0    0 -0.37264802850E+02  0.31958429856E+02  0.13790232864E+03  0.14637984498E+03  0.00000000000E+00 0. -1.
        -11    1    3    3    0    0 -0.23507020906E+02 -0.39601675033E+02  0.11823747385E+03  0.12688960918E+03  0.00000000000E+00 0. -1.
         11    1    3    3    0    0  0.80852512885E+02 -0.80439922340E+02  0.29093251735E+03  0.31248910316E+03  0.00000000000E+00 0.  1.
          1    1    1    2  501    0 -0.20099195179E+02 -0.81707202147E+01 -0.46661401268E+02  0.51458961163E+02  0.00000000000E+00 0. -1.
<scales pt_clust_5="13000.00000" pt_clust_6="13000.00000" pt_clust_7="13000.00000" pt_clust_8="13000.00000" pt_clust_9="21.69650"></scales>
<clustering>
<clus scale="   21.697">  2  9  1 -1</clus>
<clus scale="   68.322">  5  6 -1 -1</clus>
<clus scale="   89.079">  7  8 -1 -1</clus>
<clus scale="  149.356">  2  5  1 -1</clus>
<clus scale="   21.697">  2  5  1 -1</clus>
</clustering>
</event>
<event>
 9    2  0.6190160E-005  0.1699019E+03  0.7546771E-02  0.1203029E+00
          2   -1    0    0  502    0 -0.00000000000E+00  0.00000000000E+00  0.14563767030E+04  0.14563767030E+04  0.00000000000E+00 0. -1.
         21   -1    0    0  501  502  0.00000000000E+00 -0.00000000000E+00 -0.30187550514E+02  0.30187550514E+02  0.00000000000E+00 0. -1.
         24    2    1    2    0    0 -0.53734607570E+02  0.40378299936E+01  0.42700174673E+03  0.43802818640E+03  0.81452367964E+02 0.  0.
         23    2    1    2    0    0 -0.82732635217E+02 -0.90115014066E+02  0.56647064053E+03  0.58671750006E+03  0.91558907812E+02 0.  0.
        -13    1    3    3    0    0 -0.28398257864E+02 -0.16690580146E+02  0.51702828980E+02  0.61304315018E+02  0.00000000000E+00 0.  1.
         14    1    3    3    0    0 -0.25336349707E+02  0.20728410139E+02  0.37529891775E+03  0.37672387138E+03  0.00000000000E+00 0. -1.
        -11    1    4    4    0    0 -0.40701439280E+02 -0.98463533583E+02  0.34268085194E+03  0.35886186882E+03  0.00000000000E+00 0.  1.
         11    1    4    4    0    0 -0.42031195936E+02  0.83485195165E+01  0.22378978859E+03  0.22785563124E+03  0.00000000000E+00 0. -1.
          1    1    1    2  501    0  0.13646724279E+03  0.86077184072E+02  0.43271676519E+03  0.46181856702E+03  0.00000000000E+00 0. -1.
<scales pt_clust_5="13000.00000" pt_clust_6="13000.00000" pt_clust_7="13000.00000" pt_clust_8="13000.00000" pt_clust_9="143.12097"></scales>
<clustering>
<clus scale="   81.452">  5  6 -1 -1</clus>
<clus scale="   91.559">  7  8 -1 -1</clus>
<clus scale="   97.664">  1  5  2 -1</clus>
<clus scale="  143.121">  2  9  1 -1</clus>
<clus scale="  143.121">  2  5  1 -1</clus>
</clustering>
</event>
<event>
 9    2  0.6190160E-005  0.1733130E+03  0.7546771E-02  0.1175545E+00
         -1   -1    0    0    0  501 -0.00000000000E+00  0.00000000000E+00  0.59196756811E+03  0.59196756811E+03  0.00000000000E+00 0.  1.
         21   -1    0    0  501  502  0.00000000000E+00 -0.00000000000E+00 -0.74440045774E+02  0.74440045774E+02  0.00000000000E+00 0. -1.
         23    2    1    2    0    0  0.62613720467E+02  0.12888403810E+03  0.37016908025E+03  0.40697274562E+03  0.89833704361E+02 0.  0.
         24    2    1    2    0    0 -0.57364577424E+02 -0.15244369148E+03  0.10351459052E+03  0.20938595128E+03  0.81224579597E+02 0.  0.
        -13    1    4    4    0    0  0.86473015213E+01 -0.54086641475E+02  0.64615353913E+02  0.84707051483E+02  0.00000000000E+00 0.  1.
         14    1    4    4    0    0 -0.66011878945E+02 -0.98357050003E+02  0.38899236603E+02  0.12467889980E+03  0.00000000000E+00 0. -1.
        -13    1    3    3    0    0  0.84617574907E+02  0.11469358861E+03  0.32235503019E+03  0.35245924409E+03  0.00000000000E+00 0.  1.
         13    1    3    3    0    0 -0.22003854440E+02  0.14190449491E+02  0.47814050053E+02  0.54513501534E+02  0.00000000000E+00 0. -1.
         -2    1    1    2    0  502 -0.52491430437E+01  0.23559653377E+02  0.43843851570E+02  0.50048916976E+02  0.00000000000E+00 0.  1.
<scales pt_clust_5="13000.00000" pt_clust_6="13000.00000" pt_clust_7="13000.00000" pt_clust_8="13000.00000" pt_clust_9="24.13734"></scales>
<clustering>
<clus scale="   24.137">  2  9  1 -1</clus>
<clus scale="   81.225">  5  6 -1 -1</clus>
<clus scale="   89.834">  7  8 -1 -1</clus>
<clus scale="  169.011">  2  5  1 -1</clus>
<clus scale="   24.137">  2  5  1 -1</clus>
</clustering>
</event>
<event>
 9    2  0.6190160E-005  0.1938915E+03  0.7546771E-02  0.1156144E+00
         21   -1    0    0  501  502  0.00000000000E+00  0.00000000000E+00  0.11159403031E+03  0.11159403031E+03  0.00000000000E+00 0. -1.
         -1   -1    0    0    0  501 -0.00000000000E+00 -0.00000000000E+00 -0.59427209839E+03  0.59427209839E+03  0.00000000000E+00 0.  1.
         23    2    1    2    0    0  0.57244593138E+02  0.16592702496E+03 -0.46161972956E+03  0.50228689355E+03  0.91600369309E+02 0.  0.
         24    2    1    2    0    0 -0.57547255303E+02 -0.14040591585E+03 -0.18053358618E+01  0.17160898763E+03  0.80130378760E+02 0.  0.
        -13    1    4    4    0    0  0.18809155563E+02 -0.18512992585E+02 -0.81909157058E+01  0.27633427719E+02  0.00000000000E+00 0.  1.
         14    1    4    4    0    0 -0.76356410865E+02 -0.12189292326E+03  0.63855798440E+01  0.14397555991E+03  0.00000000000E+00 0. -1.
        -11    1    3    3    0    0 -0.13304021445E+02  0.99875917758E+02 -0.25491718344E+03  0.27410758170E+03  0.00000000000E+00 0.  1.
         11    1    3    3    0    0  0.70548614583E+02  0.66051107204E+02 -0.20670254612E+03  0.22817931185E+03  0.00000000000E+00 0. -1.
         -2    1    1    2    0  502  0.30266216452E+00 -0.25521109115E+02 -0.19253002666E+02  0.31970247520E+02  0.00000000000E+00 0.  1.
<scales pt_clust_5="13000.00000" pt_clust_6="13000.00000" pt_clust_7="13000.00000" pt_clust_8="13000.00000" pt_clust_9="25.52290"></scales>
<clustering>
<clus scale="   25.523">  1  9  2 -1</clus>
<clus scale="   80.130">  5  6 -1 -1</clus>
<clus scale="   91.600">  7  8 -1 -1</clus>
<clus scale="  188.744">  1  5  2 -1</clus>
<clus scale="   25.523">  1  5  2 -1</clus>
</clustering>
</event>
<event>
 9    2  0.6190160E-005  0.1027906E+03  0.7546771E-02  0.1279086E+00
          2   -1    0    0  502    0 -0.00000000000E+00  0.00000000000E+00  0.22754872467E+03  0.22754872467E+03  0.00000000000E+00 0. -1.
         21   -1    0    0  501  502  0.00000000000E+00 -0.00000000000E+00 -0.77732892718E+02  0.77732892718E+02  0.00000000000E+00 0. -1.
         24    2    1    2    0    0  0.32425877163E+02 -0.22043579182E+02  0.45360352300E+02  0.10061755571E+03  0.80802067195E+02 0.  0.
         23    2    1    2    0    0 -0.57809469465E+02  0.29398955091E+02  0.16318165365E+02  0.11264985363E+03  0.90650282306E+02 0.  0.
        -13    1    3    3    0    0  0.59700734843E+02 -0.13228602808E+02  0.30920625308E+02  0.68521958104E+02  0.00000000000E+00 0.  1.
         14    1    3    3    0    0 -0.27274857680E+02 -0.88149763742E+01  0.14439726992E+02  0.32095597604E+02  0.00000000000E+00 0. -1.
        -11    1    4    4    0    0  0.10698057269E+02  0.32941341905E+02 -0.14372129046E+02  0.37498513693E+02  0.00000000000E+00 0. -1.
         11    1    4    4    0    0 -0.68507526735E+02 -0.35423868139E+01  0.30690294411E+02  0.75151339939E+02  0.00000000000E+00 0.  1.
          1    1    1    2  501    0  0.25383592303E+02 -0.73553759092E+01  0.88137314291E+02  0.92014208051E+02  0.00000000000E+00 0. -1.
<scales pt_clust_5="13000.00000" pt_clust_6="13000.00000" pt_clust_7="13000.00000" pt_clust_8="13000.00000" pt_clust_9="26.42781"></scales>
<clustering>
<clus scale="   26.428">  2  9  1 -1</clus>
<clus scale="   80.802">  5  6 -1 -1</clus>
<clus scale="   90.650">  7  8 -1 -1</clus>
<clus scale="   94.220">  1  5  2 -1</clus>
<clus scale="   26.428">  2  5  1 -1</clus>
</clustering>
</event>
<event>
 9    2  0.6190160E-005  0.9437181E+02  0.7546771E-02  0.1299384E+00
         -1   -1    0    0    0  501 -0.00000000000E+00  0.00000000000E+00  0.33943066118E+03  0.33943066118E+03  0.00000000000E+00 0.  1.
         21   -1    0    0  501  502  0.00000000000E+00 -0.00000000000E+00 -0.15410236824E+03  0.15410236824E+03  0.00000000000E+00 0.  1.
         23    2    1    2    0    0 -0.31024652154E+01 -0.27987567688E+02  0.29574563408E+03  0.31077092158E+03  0.91214891250E+02 0.  0.
         24    2    1    2    0    0 -0.33116538644E+02 -0.15626086327E+02 -0.54843610536E+02  0.10337440985E+03  0.79608839271E+02 0.  0.
        -13    1    4    4    0    0 -0.39936733791E+02 -0.42777165814E+02 -0.29166385588E+02  0.65387358635E+02  0.00000000000E+00 0.  1.
         14    1    4    4    0    0  0.68201951471E+01  0.27151079487E+02 -0.25677224948E+02  0.37987051217E+02  0.00000000000E+00 0. -1.
        -11    1    3    3    0    0  0.36188291813E+02  0.84016845220E+01  0.17145808518E+03  0.17543675710E+03  0.00000000000E+00 0.  1.
         11    1    3    3    0    0 -0.39290757028E+02 -0.36389252210E+02  0.12428754890E+03  0.13533416448E+03  0.00000000000E+00 0. -1.
         -2    1    1    2    0  502  0.36219003860E+02  0.43613654015E+02 -0.55573730611E+02  0.79387697984E+02  0.00000000000E+00 0.  1.
<scales pt_clust_5="13000.00000" pt_clust_6="13000.00000" pt_clust_7="13000.00000" pt_clust_8="13000.00000" pt_clust_9="56.69186"></scales>
<clustering>
<clus scale="   56.692">  2  9  1 -1</clus>
<clus scale="   79.609">  5  6 -1 -1</clus>
<clus scale="   83.207">  2  5  1 -1</clus>
<clus scale="   91.215">  7  8 -1 -1</clus>
<clus scale="   56.692">  2  5  1 -1</clus>
</clustering>
</event>
<event>
 9    2  0.6190160E-005  0.9806420E+02  0.7546771E-02  0.1286952E+00
         21   -1    0    0  501  502  0.00000000000E+00  0.00000000000E+00  0.54174511577E+03  0.54174511577E+03  0.00000000000E+00 0. -1.
          2   -1    0    0  502    0 -0.00000000000E+00 -0.00000000000E+00 -0.16831680303E+03  0.16831680303E+03  0.00000000000E+00 0. -1.
         23    2    1    2    0    0 -0.31511698129E+02  0.29735871098E+02  0.39864479647E+02  0.10220763597E+03  0.83546483856E+02 0.  0.
         24    2    1    2    0    0  0.91947440813E+02 -0.52289968998E+02  0.45322299627E+03  0.47191502559E+03  0.78128959441E+02 0.  0.
        -11    1    4    4    0    0  0.30281387863E+02 -0.16719234418E+02  0.41237234302E+02  0.53823830626E+02  0.00000000000E+00 0.  1.
         12    1    4    4    0    0  0.61666052951E+02 -0.35570734580E+02  0.41198576197E+03  0.41809119497E+03  0.00000000000E+00 0. -1.
        -13    1    3    3    0    0  0.67629015031E+01  0.48645763474E+02  0.32481379990E+02  0.58882825907E+02  0.00000000000E+00 0. -1.
         13    1    3    3    0    0 -0.38274599632E+02 -0.18909892377E+02  0.73830996573E+01  0.43324810066E+02  0.00000000000E+00 0.  1.
          1    1    1    2  501    0 -0.60435742684E+02  0.22554097900E+02 -0.11965916318E+03  0.13593925724E+03  0.00000000000E+00 0. -1.
<scales pt_clust_5="13000.00000" pt_clust_6="13000.00000" pt_clust_7="13000.00000" pt_clust_8="13000.00000" pt_clust_9="64.50714"></scales>
<clustering>
<clus scale="   64.507">  1  9  2 -1</clus>
<clus scale="   78.129">  5  6 -1 -1</clus>
<clus scale="   83.546">  7  8 -1 -1</clus>
<clus scale="   93.492">  1  5  2 -1</clus>
<clus scale="   64.507">  1  5  2 -1</clus>
</clustering>
</event>
<event>
 9    2  0.6190160E-005  0.1037438E+03  0.7546771E-02  0.1277759E+00
          2   -1    0    0  502    0 -0.00000000000E+00  0.00000000000E+00  0.15297393613E+03  0.15297393613E+03  0.00000000000E+00 0. -1.
         21   -1    0    0  501  502  0.00000000000E+00 -0.00000000000E+00 -0.24816749177E+03  0.24816749177E+03  0.00000000000E+00 0.  1.
         23    2    1    2    0    0  0.33357063683E+01 -0.15947763935E+02 -0.70669879926E+02  0.11671041515E+03  0.91441954068E+02 0.  0.
         24    2    1    2    0    0 -0.44983769830E+02  0.86833975173E+02 -0.10869364525E+03  0.16677048452E+03  0.80214756729E+02 0.  0.
        -13    1    4    4    0    0 -0.32840225414E+02  0.76073053271E+02 -0.12082812300E+03  0.14650947118E+03  0.00000000000E+00 0.  1.
         14    1    4    4    0    0 -0.12143544415E+02  0.10760921902E+02  0.12134477750E+02  0.20261013336E+02  0.00000000000E+00 0. -1.
        -11    1    3    3    0    0  0.27801540304E+02 -0.39592559818E+02 -0.66782825212E+02  0.82464793576E+02  0.00000000000E+00 0. -1.
         11    1    3    3    0    0 -0.24465833936E+02  0.23644795883E+02 -0.38870547143E+01  0.34245621572E+02  0.00000000000E+00 0.  1.
          1    1    1    2  501    0  0.41648063461E+02 -0.70886211239E+02  0.84169969531E+02  0.11766052824E+03  0.00000000000E+00 0. -1.
<scales pt_clust_5="13000.00000" pt_clust_6="13000.00000" pt_clust_7="13000.00000" pt_clust_8="13000.00000" pt_clust_9="82.21571"></scales>
<clustering>
<clus scale="   80.215">  5  6 -1 -1</clus>
<clus scale="   82.216">  2  9  1 -1</clus>
<clus scale="   91.442">  7  8 -1 -1</clus>
<clus scale="   93.998">  2  5  1 -1</clus>
<clus scale="   82.216">  2  5  1 -1</clus>
</clustering>
</event>
<event>
 9    2  0.6190160E-005  0.9921822E+02  0.7546771E-02  0.1289435E+00
          2   -1    0    0  502    0 -0.00000000000E+00  0.00000000000E+00  0.54144700373E+03  0.54144700373E+03  0.00000000000E+00 0. -1.
         21   -1    0    0  501  502  0.00000000000E+00 -0.00000000000E+00 -0.14735267548E+03  0.14735267548E+03  0.00000000000E+00 0. -1.
         23    2    1    2    0    0  0.27530381314E+02 -0.16644913396E+02  0.44241794414E+03  0.45352072939E+03  0.94405718311E+02 0.  0.
         24    2    1    2    0    0 -0.39557055477E+02 -0.36791761091E+02  0.59885570606E+02  0.11399685257E+03  0.80564300446E+02 0.  0.
        -13    1    4    4    0    0 -0.36913956632E+02  0.42180276342E+01 -0.46952565021E+01  0.37449664685E+02  0.00000000000E+00 0.  1.
         14    1    4    4    0    0 -0.26430988445E+01 -0.41009788725E+02  0.64580827108E+02  0.76547187883E+02  0.00000000000E+00 0. -1.
        -11    1    3    3    0    0  0.35924868517E+02 -0.51952089626E+02  0.29704904596E+03  0.30369022293E+03  0.00000000000E+00 0. -1.
         11    1    3    3    0    0 -0.83944872034E+01  0.35307176230E+02  0.14536889818E+03  0.14983050647E+03  0.00000000000E+00 0.  1.
          1    1    1    2  501    0  0.12026674163E+02  0.53436674487E+02 -0.10820918650E+03  0.12128209726E+03  0.00000000000E+00 0. -1.
<scales pt_clust_5="13000.00000" pt_clust_6="13000.00000" pt_clust_7="13000.00000" pt_clust_8="13000.00000" pt_clust_9="54.77334"></scales>
<clustering>
<clus scale="   54.773">  2  9  1 -1</clus>
<clus scale="   80.564">  5  6 -1 -1</clus>
<clus scale="   86.153">  2  5  1 -1</clus>
<clus scale="   94.406">  7  8 -1 -1</clus>
<clus scale="   54.773">  2  5  1 -1</clus>
</clustering>
</event>
<event>
 9    2  0.6190160E-005  0.8525903E+02  0.7546771E-02  0.1315999E+00
          2   -1    0    0  502    0 -0.00000000000E+00  0.00000000000E+00  0.43311051833E+02  0.43311051833E+02  0.00000000000E+00 0. -1.
         21   -1    0    0  501  502  0.00000000000E+00 -0.00000000000E+00 -0.43144242851E+03  0.43144242851E+03  0.00000000000E+00 0. -1.
         23    2    1    2    0    0  0.16162952029E+01  0.37062755423E+02 -0.81002766094E+02  0.12022597021E+03  0.80725309225E+02 0.  0.
         24    2    1    2    0    0 -0.46967098792E+02  0.11745561572E+02 -0.25077553033E+03  0.26726573816E+03  0.78732087447E+02 0.  0.
        -13    1    4    4    0    0 -0.45482109944E+02 -0.12402814281E+02 -0.67109408483E+02  0.82012955281E+02  0.00000000000E+00 0.  1.
         14    1    4    4    0    0 -0.14849888478E+01  0.24148375852E+02 -0.18366612185E+03  0.18525278287E+03  0.00000000000E+00 0. -1.
        -13    1    3    3    0    0 -0.33957004121E+02  0.28333266160E+02 -0.18832598916E+02  0.48067857057E+02  0.00000000000E+00 0. -1.
         13    1    3    3    0    0  0.35573299324E+02  0.87294892632E+01 -0.62170167177E+02  0.72158113157E+02  0.00000000000E+00 0.  1.
          1    1    1    2  501    0  0.45350803589E+02 -0.48808316994E+02 -0.56353080254E+02  0.87261771974E+02  0.00000000000E+00 0. -1.
<scales pt_clust_5="13000.00000" pt_clust_6="13000.00000" pt_clust_7="13000.00000" pt_clust_8="13000.00000" pt_clust_9="66.62546"></scales>
<clustering>
<clus scale="   66.625">  2  9  1 -1</clus>
<clus scale="   78.732">  5  6 -1 -1</clus>
<clus scale="   80.725">  7  8 -1 -1</clus>
<clus scale="   83.374">  2  5  1 -1</clus>
<clus scale="   66.625">  2  5  1 -1</clus>
</clustering>
</event>
<event>
 9    2  0.6190160E-005  0.9089538E+02  0.7546771E-02  0.1306707E+00
         -3   -1    0    0    0  501 -0.00000000000E+00  0.00000000000E+00  0.31657299355E+03  0.31657299355E+03  0.00000000000E+00 0.  1.
         21   -1    0    0  501  502  0.00000000000E+00 -0.00000000000E+00 -0.76968106495E+02  0.76968106495E+02  0.00000000000E+00 0.  1.
         24    2    1    2    0    0  0.64863856211E+01 -0.40114392323E+02  0.35556463445E+02  0.97375396009E+02  0.81033745966E+02 0.  0.
         23    2    1    2    0    0  0.12172041197E+02 -0.32819149455E+02  0.22541691748E+02  0.99666003989E+02  0.90553461151E+02 0.  0.
        -13    1    3    3    0    0 -0.32880365289E+02 -0.29936819679E+02  0.17589026247E+01  0.44501969984E+02  0.00000000000E+00 0.  1.
         14    1    3    3    0    0  0.39366750910E+02 -0.10177572643E+02  0.33797560821E+02  0.52873426024E+02  0.00000000000E+00 0. -1.
        -11    1    4    4    0    0  0.38644280150E+02 -0.51585947880E+02  0.12127908363E+02  0.65586405361E+02  0.00000000000E+00 0.  1.
         11    1    4    4    0    0 -0.26472238952E+02  0.18766798424E+02  0.10413783385E+02  0.34079598628E+02  0.00000000000E+00 0. -1.
         -4    1    1    2    0  502 -0.18658426819E+02  0.72933541778E+02  0.18150673186E+03  0.19649970005E+03  0.00000000000E+00 0.  1.
<scales pt_clust_5="13000.00000" pt_clust_6="13000.00000" pt_clust_7="13000.00000" pt_clust_8="13000.00000" pt_clust_9="75.28243"></scales>
<clustering>
<clus scale="   75.282">  2  9  1 -1</clus>
<clus scale="   81.034">  5  6 -1 -1</clus>
<clus scale="   81.416">  1  5  2 -1</clus>
<clus scale="   90.553">  7  8 -1 -1</clus>
<clus scale="   75.282">  2  5  1 -1</clus>
</clustering>
</event>
<event>
 9    2  0.6190160E-005  0.1931659E+03  0.7546771E-02  0.1157046E+00
         -1   -1    0    0    0  501 -0.00000000000E+00  0.00000000000E+00  0.11525477318E+04  0.11525477318E+04  0.00000000000E+00 0.  1.
         21   -1    0    0  501  502  0.00000000000E+00 -0.00000000000E+00 -0.48679611514E+02  0.48679611514E+02  0.00000000000E+00 0.  1.
         23    2    1    2    0    0  0.17183460075E+03  0.34134000973E+02  0.64433332678E+03  0.67397701523E+03  0.91582318273E+02 0.  0.
         24    2    1    2    0    0 -0.16224231188E+03  0.77851687115E+01  0.22164193146E+03  0.28550202384E+03  0.77479566465E+02 0.  0.
        -11    1    4    4    0    0 -0.10562325939E+03 -0.32090870072E+02  0.14438477620E+03  0.18174999441E+03  0.00000000000E+00 0.  1.
         12    1    4    4    0    0 -0.56619052485E+02  0.39876038784E+02  0.77257155252E+02  0.10375202943E+03  0.00000000000E+00 0. -1.
        -11    1    3    3    0    0  0.15118162194E+03 -0.59127727022E+01  0.52704363883E+03  0.54833004743E+03  0.00000000000E+00 0.  1.
         11    1    3    3    0    0  0.20652978815E+02  0.40046773675E+02  0.11728968795E+03  0.12564696779E+03  0.00000000000E+00 0. -1.
         -2    1    1    2    0  502 -0.95922888721E+01 -0.41919169685E+02  0.23789286210E+03  0.24174830430E+03  0.00000000000E+00 0.  1.
<scales pt_clust_5="13000.00000" pt_clust_6="13000.00000" pt_clust_7="13000.00000" pt_clust_8="13000.00000" pt_clust_9="43.00268"></scales>
<clustering>
<clus scale="   43.003">  2  9  1 -1</clus>
<clus scale="   77.480">  5  6 -1 -1</clus>
<clus scale="   91.582">  7  8 -1 -1</clus>
<clus scale="  186.893">  2  5  1 -1</clus>
<clus scale="   43.003">  2  5  1 -1</clus>
</clustering>
</event>
<event>
 9    2  0.6190160E-005  0.1153183E+03  0.7546771E-02  0.1253585E+00
          2   -1    0    0  502    0 -0.00000000000E+00  0.00000000000E+00  0.60078503068E+03  0.60078503068E+03  0.00000000000E+00 0. -1.
         21   -1    0    0  501  502  0.00000000000E+00 -0.00000000000E+00 -0.86184271351E+02  0.86184271351E+02  0.00000000000E+00 0. -1.
         23    2    1    2    0    0  0.24985678718E+02  0.74305487547E+02  0.45866059563E+03  0.47419149870E+03  0.91336990516E+02 0.  0.
         24    2    1    2    0    0 -0.14545670262E+02 -0.58456930854E+01  0.91363200756E+02  0.13499265829E+03  0.98132740144E+02 0.  0.
        -13    1    4    4    0    0  0.29555908034E+02 -0.33796060192E+02  0.56692298220E+02  0.72316955562E+02  0.00000000000E+00 0.  1.
         14    1    4    4    0    0 -0.44101578296E+02  0.27950367107E+02  0.34670902536E+02  0.62675702726E+02  0.00000000000E+00 0. -1.
        -13    1    3    3    0    0  0.51085365507E+02  0.11671905229E+02  0.18984346168E+03  0.19694285436E+03  0.00000000000E+00 0.  1.
         13    1    3    3    0    0 -0.26099686788E+02  0.62633582317E+02  0.26881713395E+03  0.27724864434E+03  0.00000000000E+00 0. -1.
          1    1    1    2  501    0 -0.10440008456E+02 -0.68459794461E+02 -0.35423037060E+02  0.77785145039E+02  0.00000000000E+00 0. -1.
<scales pt_clust_5="13000.00000" pt_clust_6="13000.00000" pt_clust_7="13000.00000" pt_clust_8="13000.00000" pt_clust_9="69.25126"></scales>
<clustering>
<clus scale="   69.251">  2  9  1 -1</clus>
<clus scale="   91.337">  7  8 -1 -1</clus>
<clus scale="   98.133">  5  6 -1 -1</clus>
<clus scale="  109.593">  1  7  2 -1</clus>
<clus scale="   69.251">  2  5  1 -1</clus>
</clustering>
</event>
<event>
 9    2  0.6190160E-005  0.1174459E+03  0.7546771E-02  0.1251260E+00
         21   -1    0    0  501  502  0.00000000000E+00  0.00000000000E+00  0.73185725003E+02  0.73185725003E+02  0.00000000000E+00 0. -1.
         -1   -1    0    0    0  501 -0.00000000000E+00 -0.00000000000E+00 -0.23706795472E+03  0.23706795472E+03  0.00000000000E+00 0.  1.
         23    2    1    2    0    0 -0.79155805382E+02  0.95752384337E+01 -0.13857248503E+03  0.18486093826E+03  0.92811131725E+02 0.  0.
         24    2    1    2    0    0  0.57502036568E+02 -0.41567936161E+01 -0.15255338115E+02  0.10091139469E+03  0.81404060677E+02 0.  0.
        -13    1    4    4    0    0  0.44524594573E+02  0.27974759641E+02 -0.32896814423E+02  0.62026019524E+02  0.00000000000E+00 0.  1.
         14    1    4    4    0    0  0.12977441994E+02 -0.32131553257E+02  0.17641476308E+02  0.38885375165E+02  0.00000000000E+00 0. -1.
        -13    1    3    3    0    0 -0.90870715152E+02 -0.16335190232E+02 -0.11767697957E+03  0.14957338277E+03  0.00000000000E+00 0.  1.
         13    1    3    3    0    0  0.11714909770E+02  0.25910428665E+02 -0.20895505464E+02  0.35287555499E+02  0.00000000000E+00 0. -1.
         -2    1    1    2    0  502  0.21653768814E+02 -0.54184448176E+01 -0.10054406573E+02  0.24481346769E+02  0.00000000000E+00 0.  1.
<scales pt_clust_5="13000.00000" pt_clust_6="13000.00000" pt_clust_7="13000.00000" pt_clust_8="13000.00000" pt_clust_9="22.32141"></scales>
<clustering>
<clus scale="   22.321">  1  9  2 -1</clus>
<clus scale="   81.404">  5  6 -1 -1</clus>
<clus scale="   92.811">  7  8 -1 -1</clus>
<clus scale="  108.657">  1  5  2 -1</clus>
<clus scale="   22.321">  1  5  2 -1</clus>
</clustering>
</event>
<event>
 9    2  0.6190160E-005  0.1081234E+03  0.7546771E-02  0.1268989E+00
         -1   -1    0    0    0  501 -0.00000000000E+00  0.00000000000E+00  0.51124920190E+03  0.51124920190E+03  0.00000000000E+00 0.  1.
         21   -1    0    0  501  502  0.00000000000E+00 -0.00000000000E+00 -0.47078958989E+02  0.47078958989E+02  0.00000000000E+00 0.  1.
         23    2    1    2    0    0 -0.58025249494E+02  0.17001353693E+02  0.36682945651E+03  0.38326732993E+03  0.93134421275E+02 0.  0.
         24    2    1    2    0    0  0.31000774825E+02 -0.28332427516E+01  0.16696247409E+02  0.88836708645E+02  0.81511476622E+02 0.  0.
        -13    1    4    4    0    0 -0.39922250572E+01  0.32848642826E+02 -0.65262890246E+01  0.33727787429E+02  0.00000000000E+00 0.  1.
         14    1    4    4    0    0  0.34992999882E+02 -0.35681885578E+02  0.23222536434E+02  0.55108921216E+02  0.00000000000E+00 0. -1.
        -11    1    3    3    0    0 -0.42689754725E+02 -0.31744526274E+02  0.12093153978E+03  0.13211573495E+03  0.00000000000E+00 0.  1.
         11    1    3    3    0    0 -0.15335494769E+02  0.48745879967E+02  0.24589791672E+03  0.25115159498E+03  0.00000000000E+00 0. -1.
         -2    1    1    2    0  502  0.27024474669E+02 -0.14168110941E+02  0.80644538996E+02  0.86224122313E+02  0.00000000000E+00 0.  1.
<scales pt_clust_5="13000.00000" pt_clust_6="13000.00000" pt_clust_7="13000.00000" pt_clust_8="13000.00000" pt_clust_9="30.51325"></scales>
<clustering>
<clus scale="   30.513">  2  9  1 -1</clus>
<clus scale="   81.511">  5  6 -1 -1</clus>
<clus scale="   93.134">  7  8 -1 -1</clus>
<clus scale="   98.289">  2  5  1 -1</clus>
<clus scale="   30.513">  2  5  1 -1</clus>
</clustering>
</event>
<event>
 9    2  0.6190160E-005  0.3263743E+03  0.7546771E-02  0.1072752E+00
         21   -1    0    0  501  502  0.00000000000E+00  0.00000000000E+00  0.14072878258E+03  0.14072878258E+03  0.00000000000E+00 0. -1.
          2   -1    0    0  502    0 -0.00000000000E+00 -0.00000000000E+00 -0.74134760804E+03  0.74134760804E+03  0.00000000000E+00 0. -1.
         24    2    1    2    0    0 -0.13554512852E+03 -0.15067791254E+02 -0.17604595332E+03  0.23690447053E+03  0.80820976720E+02 0.  0.
         23    2    1    2    0    0 -0.12605185566E+03  0.16137708676E+02 -0.33343801358E+03  0.36815262599E+03  0.90586705227E+02 0.  0.
        -13    1    3    3    0    0 -0.12692446700E+03 -0.57332219695E+01 -0.10527398991E+03  0.16500091851E+03  0.00000000000E+00 0.  1.
         14    1    3    3    0    0 -0.86206615247E+01 -0.93345692848E+01 -0.70771963409E+02  0.71903552024E+02  0.00000000000E+00 0. -1.
        -13    1    4    4    0    0 -0.17096931726E+02  0.37700455203E+02 -0.12917126005E+03  0.13564233786E+03  0.00000000000E+00 0. -1.
         13    1    4    4    0    0 -0.10895492394E+03 -0.21562746526E+02 -0.20426675353E+03  0.23251028813E+03  0.00000000000E+00 0.  1.
          1    1    1    2  501    0  0.26159698418E+03 -0.10699174221E+01 -0.91134858553E+02  0.27701929409E+03  0.00000000000E+00 0. -1.
<scales pt_clust_5="13000.00000" pt_clust_6="13000.00000" pt_clust_7="13000.00000" pt_clust_8="13000.00000" pt_clust_9="261.59917"></scales>
<clustering>
<clus scale="   80.821">  5  6 -1 -1</clus>
<clus scale="   90.587">  7  8 -1 -1</clus>
<clus scale="  127.554">  5  7 -1 -1</clus>
<clus scale="  261.599">  1  9  2 -1</clus>
<clus scale="  261.599">  1  5  2 -1</clus>
</clustering>
</event>
<event>
 9    2  0.6190160E-005  0.9493300E+02  0.7546771E-02  0.1305881E+00
         21   -1    0    0  501  502  0.00000000000E+00  0.00000000000E+00  0.19637379430E+03  0.19637379430E+03  0.00000000000E+00 0. -1.
          2   -1    0    0  502    0 -0.00000000000E+00 -0.00000000000E+00 -0.21647436022E+03  0.21647436022E+03  0.00000000000E+00 0. -1.
         23    2    1    2    0    0  0.27503652375E+02  0.27053832256E+02 -0.17472565207E+03  0.20043882309E+03  0.90323350112E+02 0.  0.
         24    2    1    2    0    0 -0.70494755255E+01  0.20402881823E+02  0.27254933151E+02  0.74955088362E+02  0.66403773977E+02 0.  0.
        -11    1    4    4    0    0 -0.37487434656E+01 -0.22722812496E+02 -0.13996796166E+01  0.23072459521E+02  0.00000000000E+00 0.  1.
         12    1    4    4    0    0 -0.33007320600E+01  0.43125694319E+02  0.28654612767E+02  0.51882628841E+02  0.00000000000E+00 0. -1.
        -13    1    3    3    0    0  0.32228387232E+02  0.58091493734E+02 -0.12673570512E+03  0.14309168229E+03  0.00000000000E+00 0. -1.
         13    1    3    3    0    0 -0.47247348562E+01 -0.31037661479E+02 -0.47989946951E+02  0.57347140800E+02  0.00000000000E+00 0.  1.
          1    1    1    2  501    0 -0.20454176850E+02 -0.47456714079E+02  0.12737015300E+03  0.13745424307E+03  0.00000000000E+00 0. -1.
<scales pt_clust_5="13000.00000" pt_clust_6="13000.00000" pt_clust_7="13000.00000" pt_clust_8="13000.00000" pt_clust_9="51.67701"></scales>
<clustering>
<clus scale="   51.677">  1  9  2 -1</clus>
<clus scale="   66.404">  5  6 -1 -1</clus>
<clus scale="   72.549">  1  5  2 -1</clus>
<clus scale="   90.323">  7  8 -1 -1</clus>
<clus scale="   51.677">  1  5  2 -1</clus>
</clustering>
</event>
<event>
 9    2  0.6190160E-005  0.9307825E+02  0.7546771E-02  0.1301853E+00
         21   -1    0    0  501  502  0.00000000000E+00  0.00000000000E+00  0.34794076396E+03  0.34794076396E+03  0.00000000000E+00 0. -1.
         -1   -1    0    0    0  501 -0.00000000000E+00 -0.00000000000E+00 -0.28674070068E+03  0.28674070068E+03  0.00000000000E+00 0.  1.
         23    2    1    2    0    0  0.10805867334E+02 -0.19853766075E+02 -0.25705120174E+03  0.27357886219E+03  0.90879781742E+02 0.  0.
         24    2    1    2    0    0 -0.23091808210E+01 -0.52711671172E+02  0.20335392481E+03  0.22494337524E+03  0.80391857399E+02 0.  0.
        -11    1    4    4    0    0  0.17104843294E+02 -0.59853526273E+02  0.88251988399E+02  0.10799737834E+03  0.00000000000E+00 0.  1.
         12    1    4    4    0    0 -0.19414024115E+02  0.71418551007E+01  0.11510193641E+03  0.11694599690E+03  0.00000000000E+00 0. -1.
        -13    1    3    3    0    0 -0.29429157927E+02 -0.30834585949E+02 -0.18913969622E+03  0.19388313932E+03  0.00000000000E+00 0.  1.
         13    1    3    3    0    0  0.40235025261E+02  0.10980819873E+02 -0.67911505518E+02  0.79695722875E+02  0.00000000000E+00 0. -1.
         -2    1    1    2    0  502 -0.84966865129E+01  0.72565437248E+02  0.11489734022E+03  0.13615922721E+03  0.00000000000E+00 0.  1.
<scales pt_clust_5="13000.00000" pt_clust_6="13000.00000" pt_clust_7="13000.00000" pt_clust_8="13000.00000" pt_clust_9="73.06118"></scales>
<clustering>
<clus scale="   73.061">  1  9  2 -1</clus>
<clus scale="   80.392">  5  6 -1 -1</clus>
<clus scale="   82.869">  1  5  2 -1</clus>
<clus scale="   90.880">  7  8 -1 -1</clus>
<clus scale="   73.061">  1  5  2 -1</clus>
</clustering>
</event>
<event>
 9    2  0.6190160E-005  0.2557078E+03  0.7546771E-02  0.1142574E+00
         21   -1    0    0  501  502  0.00000000000E+00  0.00000000000E+00  0.58093984390E+02  0.58093984390E+02  0.00000000000E+00 0. -1.
          2   -1    0    0  502    0 -0.00000000000E+00 -0.00000000000E+00 -0.22838930689E+04  0.22838930689E+04  0.00000000000E+00 0. -1.
         24    2    1    2    0    0 -0.78118081789E+02  0.85221095018E+01 -0.14119979395E+03  0.18118362066E+03  0.81945479012E+02 0.  0.
         23    2    1    2    0    0  0.29127206998E+03 -0.58762559413E+02 -0.15853450648E+04  0.16156305175E+04  0.93008264933E+02 0.  0.
        -13    1    3    3    0    0 -0.78264031666E+02  0.34857952324E+02 -0.94397824073E+02  0.12748052668E+03  0.00000000000E+00 0.  1.
         14    1    3    3    0    0  0.14594987664E+00 -0.26335842822E+02 -0.46801969875E+02  0.53703093977E+02  0.00000000000E+00 0. -1.
        -13    1    4    4    0    0  0.97778114135E+02 -0.65482034777E+02 -0.58319543299E+03  0.59494988826E+03  0.00000000000E+00 0.  1.
         13    1    4    4    0    0  0.19349395585E+03  0.67194753645E+01 -0.10021496318E+04  0.10206806292E+04  0.00000000000E+00 0. -1.
          1    1    1    2  501    0 -0.21315398819E+03  0.50240449911E+02 -0.49925422575E+03  0.54517291516E+03  0.00000000000E+00 0. -1.
<scales pt_clust_5="13000.00000" pt_clust_6="13000.00000" pt_clust_7="13000.00000" pt_clust_8="13000.00000" pt_clust_9="238.19311"></scales>
<clustering>
<clus scale="   81.945">  5  6 -1 -1</clus>
<clus scale="   93.008">  7  8 -1 -1</clus>
<clus scale="  113.535">  2  5  1 -1</clus>
<clus scale="  238.193">  1  9  2 -1</clus>
<clus scale="  238.193">  1  5  2 -1</clus>
</clustering>
</event>
<event>
 9    2  0.6190160E-005  0.1551688E+03  0.7546771E-02  0.1212894E+00
         -1   -1    0    0    0  501 -0.00000000000E+00  0.00000000000E+00  0.22225222932E+03  0.22225222932E+03  0.00000000000E+00 0.  1.
         21   -1    0    0  501  502  0.00000000000E+00 -0.00000000000E+00 -0.66657003175E+03  0.66657003175E+03  0.00000000000E+00 0.  1.
         23    2    1    2    0    0  0.45926179345E+02 -0.23621400129E+02 -0.19370084071E+03  0.21975026515E+03  0.90016547627E+02 0.  0.
         24    2    1    2    0    0 -0.23799621356E+02 -0.10849732118E+03  0.17522695630E+03  0.22265516872E+03  0.80825412222E+02 0.  0.
        -13    1    4    4    0    0  0.75760978803E+00 -0.61112893139E+02  0.15315841120E+03  0.16490257306E+03  0.00000000000E+00 0.  1.
         14    1    4    4    0    0 -0.24557231144E+02 -0.47384428043E+02  0.22068545106E+02  0.57752595660E+02  0.00000000000E+00 0. -1.
        -11    1    3    3    0    0  0.78243193209E+01 -0.51264894747E+02 -0.67954841507E+02  0.85481985767E+02  0.00000000000E+00 0.  1.
         11    1    3    3    0    0  0.38101860024E+02  0.27643494618E+02 -0.12574599921E+03  0.13426827938E+03  0.00000000000E+00 0. -1.
         -2    1    1    2    0  502 -0.22126557989E+02  0.13211872131E+03 -0.42584391802E+03  0.44641682720E+03  0.00000000000E+00 0.  1.
<scales pt_clust_5="13000.00000" pt_clust_6="13000.00000" pt_clust_7="13000.00000" pt_clust_8="13000.00000" pt_clust_9="132.45604"></scales>
<clustering>
<clus scale="   80.825">  5  6 -1 -1</clus>
<clus scale="   90.017">  7  8 -1 -1</clus>
<clus scale="  103.779">  1  7  2 -1</clus>
<clus scale="  132.456">  2  9  1 -1</clus>
<clus scale="  132.456">  2  5  1 -1</clus>
</clustering>
</event>
<event>
 9    2  0.6190160E-005  0.1494252E+03  0.7546771E-02  0.1203371E+00
         21   -1    0    0  501  502  0.00000000000E+00  0.00000000000E+00  0.24246123435E+03  0.24246123435E+03  0.00000000000E+00 0.  1.
         -3   -1    0    0    0  501 -0.00000000000E+00 -0.00000000000E+00 -0.23475649468E+03  0.23475649468E+03  0.00000000000E+00 0.  1.
         24    2    1    2    0    0 -0.56834871105E+02 -0.99546911168E+02 -0.88340689415E+02  0.16580555654E+03  0.80917334835E+02 0.  0.
         23    2    1    2    0    0  0.37993924228E+02  0.11655555180E+03 -0.51261227117E+02  0.16193466214E+03  0.92554775488E+02 0.  0.
        -11    1    3    3    0    0 -0.61261550848E+02 -0.50186158218E+02 -0.84938600388E+02  0.11613007330E+03  0.00000000000E+00 0.  1.
         12    1    3    3    0    0  0.44266797431E+01 -0.49360752950E+02 -0.34020890267E+01  0.49675483240E+02  0.00000000000E+00 0. -1.
        -13    1    4    4    0    0 -0.20744005632E+02  0.80340835663E+02 -0.39640416110E+02  0.91958285293E+02  0.00000000000E+00 0. -1.
         13    1    4    4    0    0  0.58737929859E+02  0.36214716133E+02 -0.11620811007E+02  0.69976376851E+02  0.00000000000E+00 0.  1.
         -4    1    1    2    0  502  0.18840946877E+02 -0.17008640628E+02  0.14730665620E+03  0.14947751034E+03  0.00000000000E+00 0.  1.
<scales pt_clust_5="13000.00000" pt_clust_6="13000.00000" pt_clust_7="13000.00000" pt_clust_8="13000.00000" pt_clust_9="25.38258"></scales>
<clustering>
<clus scale="   25.383">  1  9  2 -1</clus>
<clus scale="   80.917">  5  6 -1 -1</clus>
<clus scale="   92.555">  7  8 -1 -1</clus>
<clus scale="  142.510">  2  5  1 -1</clus>
<clus scale="   25.383">  1  5  2 -1</clus>
</clustering>
</event>
<event>
 9    2  0.6190160E-005  0.9337268E+02  0.7546771E-02  0.1300068E+00
          2   -1    0    0  502    0 -0.00000000000E+00  0.00000000000E+00  0.16895750652E+03  0.16895750652E+03  0.00000000000E+00 0. -1.
         21   -1    0    0  501  502  0.00000000000E+00 -0.00000000000E+00 -0.16925943399E+03  0.16925943399E+03  0.00000000000E+00 0.  1.
         24    2    1    2    0    0 -0.17288015250E+02  0.15457318159E+02  0.13342716248E+03  0.15834548557E+03  0.82052915591E+02 0.  0.
         23    2    1    2    0    0  0.16583500011E+02  0.89206298555E+01 -0.87172373541E+02  0.12731378629E+03  0.90858061618E+02 0.  0.
        -13    1    3    3    0    0 -0.20081268621E+02  0.42405774462E+02  0.11841398251E+03  0.12737102618E+03  0.00000000000E+00 0.  1.
         14    1    3    3    0    0  0.27932533710E+01 -0.26948456303E+02  0.15013179972E+02  0.30974459388E+02  0.00000000000E+00 0. -1.
        -13    1    4    4    0    0 -0.14584593244E+02  0.30499929955E+02 -0.17447901988E+01  0.33852627375E+02  0.00000000000E+00 0.  1.
         13    1    4    4    0    0  0.31168093255E+02 -0.21579300100E+02 -0.85427583343E+02  0.93461158915E+02  0.00000000000E+00 0. -1.
          1    1    1    2  501    0  0.70451523890E+00 -0.24377948015E+02 -0.46556716411E+02  0.52557668652E+02  0.00000000000E+00 0. -1.
<scales pt_clust_5="13000.00000" pt_clust_6="13000.00000" pt_clust_7="13000.00000" pt_clust_8="13000.00000" pt_clust_9="24.38813"></scales>
<clustering>
<clus scale="   24.388">  2  9  1 -1</clus>
<clus scale="   82.053">  5  6 -1 -1</clus>
<clus scale="   84.829">  1  5  2 -1</clus>
<clus scale="   90.858">  7  8 -1 -1</clus>
<clus scale="   24.388">  2  5  1 -1</clus>
</clustering>
</event>
<event>
 9    2  0.6190160E-005  0.1530853E+03  0.7546771E-02  0.1226542E+00
         21   -1    0    0  501  502  0.00000000000E+00  0.00000000000E+00  0.46192826036E+02  0.46192826036E+02  0.00000000000E+00 0. -1.
          2   -1    0    0  502    0 -0.00000000000E+00 -0.00000000000E+00 -0.87198234428E+03  0.87198234428E+03  0.00000000000E+00 0. -1.
         24    2    1    2    0    0  0.11662985159E+02  0.57079558614E+01 -0.26281922142E+03  0.27505777474E+03  0.80088890097E+02 0.  0.
         23    2    1    2    0    0  0.98332022110E+02  0.55029454961E+02 -0.15303420646E+03  0.21435693462E+03  0.99156439956E+02 0.  0.
        -13    1    3    3    0    0  0.20343345805E+02  0.38136902309E+02 -0.10214256296E+03  0.11091157832E+03  0.00000000000E+00 0.  1.
         14    1    3    3    0    0 -0.86803606457E+01 -0.32428946448E+02 -0.16067665846E+03  0.16414619643E+03  0.00000000000E+00 0. -1.
        -13    1    4    4    0    0  0.56394216931E+02 -0.20177986936E+02 -0.87993076186E+02  0.10644360158E+03  0.00000000000E+00 0.  1.
         13    1    4    4    0    0  0.41937805179E+02  0.75207441897E+02 -0.65041130279E+02  0.10791333304E+03  0.00000000000E+00 0. -1.
          1    1    1    2  501    0 -0.10999500727E+03 -0.60737410822E+02 -0.40993609036E+03  0.42876046095E+03  0.00000000000E+00 0. -1.
<scales pt_clust_5="13000.00000" pt_clust_6="13000.00000" pt_clust_7="13000.00000" pt_clust_8="13000.00000" pt_clust_9="116.63249"></scales>
<clustering>
<clus scale="   80.089">  5  6 -1 -1</clus>
<clus scale="   81.135">  2  5  1 -1</clus>
<clus scale="   99.156">  7  8 -1 -1</clus>
<clus scale="  116.632">  1  9  2 -1</clus>
<clus scale="  116.632">  1  5  2 -1</clus>
</clustering>
</event>
<event>
 9    2  0.6190160E-005  0.1016972E+03  0.7546771E-02  0.1282170E+00
         21   -1    0    0  501  502  0.00000000000E+00  0.00000000000E+00  0.63092471828E+02  0.63092471828E+02  0.00000000000E+00 0. -1.
         -1   -1    0    0    0  501 -0.00000000000E+00 -0.00000000000E+00 -0.38446088127E+03  0.38446088127E+03  0.00000000000E+00 0.  1.
         23    2    1    2    0    0  0.39909678206E+02  0.46558190697E+02 -0.22307670853E+03  0.24882721240E+03  0.91604127685E+02 0.  0.
         24    2    1    2    0    0  0.36415571030E+02 -0.26744539014E+02 -0.39389749935E+02  0.10030071566E+03  0.80419630574E+02 0.  0.
        -11    1    4    4    0    0 -0.40760573047E+01 -0.29616397572E+02 -0.50078914769E+02  0.58323605451E+02  0.00000000000E+00 0.  1.
         12    1    4    4    0    0  0.40491628334E+02  0.28718585583E+01  0.10689164834E+02  0.41977110210E+02  0.00000000000E+00 0. -1.
        -13    1    3    3    0    0  0.27788227827E+02 -0.48935391313E+01 -0.11036543789E+02  0.30297485536E+02  0.00000000000E+00 0.  1.
         13    1    3    3    0    0  0.12121450379E+02  0.51451729828E+02 -0.21204016474E+03  0.21852972687E+03  0.00000000000E+00 0. -1.
         -2    1    1    2    0  502 -0.76325249236E+02 -0.19813651683E+02 -0.58901950977E+02  0.98425425033E+02  0.00000000000E+00 0.  1.
<scales pt_clust_5="13000.00000" pt_clust_6="13000.00000" pt_clust_7="13000.00000" pt_clust_8="13000.00000" pt_clust_9="78.85509"></scales>
<clustering>
<clus scale="   78.855">  1  9  2 -1</clus>
<clus scale="   80.420">  5  6 -1 -1</clus>
<clus scale="   91.604">  7  8 -1 -1</clus>
<clus scale="   91.751">  1  5  2 -1</clus>
<clus scale="   78.855">  1  5  2 -1</clus>
</clustering>
</event>
<event>
 9    2  0.6190160E-005  0.9974949E+02  0.7546771E-02  0.1284628E+00
         21   -1    0    0  501  502  0.00000000000E+00  0.00000000000E+00  0.59167927779E+03  0.59167927779E+03  0.00000000000E+00 0. -1.
         -1   -1    0    0    0  501 -0.00000000000E+00 -0.00000000000E+00 -0.42549992452E+02  0.42549992452E+02  0.00000000000E+00 0.  1.
         23    2    1    2    0    0  0.25092106644E+02 -0.27600360586E+02  0.60939895724E+02  0.11366025333E+03  0.88394505349E+02 0.  0.
         24    2    1    2    0    0 -0.82960999605E+02  0.15646259551E+02  0.26204439263E+03  0.28683140983E+03  0.80483918036E+02 0.  0.
        -13    1    4    4    0    0 -0.25395439268E+02  0.20328524830E+01  0.90855698955E+01  0.27048260668E+02  0.00000000000E+00 0.  1.
         14    1    4    4    0    0 -0.57565560336E+02  0.13613407068E+02  0.25295882273E+03  0.25978314916E+03  0.00000000000E+00 0. -1.
        -13    1    3    3    0    0 -0.73720759755E+01  0.27716746109E+02  0.32937381740E+02  0.43674210181E+02  0.00000000000E+00 0. -1.
         13    1    3    3    0    0  0.32464182619E+02 -0.55317106695E+02  0.28002513985E+02  0.69986043149E+02  0.00000000000E+00 0.  1.
         -2    1    1    2    0  502  0.57868892961E+02  0.11954101035E+02  0.22614499698E+03  0.23373760708E+03  0.00000000000E+00 0.  1.
<scales pt_clust_5="13000.00000" pt_clust_6="13000.00000" pt_clust_7="13000.00000" pt_clust_8="13000.00000" pt_clust_9="59.09069"></scales>
<clustering>
<clus scale="   59.091">  1  9  2 -1</clus>
<clus scale="   80.484">  5  6 -1 -1</clus>
<clus scale="   88.395">  7  8 -1 -1</clus>
<clus scale="   92.812">  1  5  2 -1</clus>
<clus scale="   59.091">  1  5  2 -1</clus>
</clustering>
</event>
<event>
 9    2  0.6190160E-005  0.1010176E+03  0.7546771E-02  0.1284356E+00
         21   -1    0    0  501  502  0.00000000000E+00  0.00000000000E+00  0.10529179032E+03  0.10529179032E+03  0.00000000000E+00 0.  1.
         -1   -1    0    0    0  501 -0.00000000000E+00 -0.00000000000E+00 -0.16257271057E+03  0.16257271057E+03  0.00000000000E+00 0.  1.
         23    2    1    2    0    0  0.59878722032E+02 -0.36810228534E+02 -0.57946651799E+02  0.12785382737E+03  0.89712498808E+02 0.  0.
         24    2    1    2    0    0 -0.24127415338E+02 -0.97658148962E+01  0.32603586878E+01  0.81238096217E+02  0.76886247319E+02 0.  0.
        -11    1    4    4    0    0 -0.27904374318E+02  0.18340036963E+02  0.28020996041E+02  0.43591137642E+02  0.00000000000E+00 0.  1.
         12    1    4    4    0    0  0.37769589797E+01 -0.28105851859E+02 -0.24760637353E+02  0.37646958575E+02  0.00000000000E+00 0. -1.
        -13    1    3    3    0    0  0.50329409180E+02 -0.16283287232E+02 -0.80222487163E+02  0.96092883806E+02  0.00000000000E+00 0.  1.
         13    1    3    3    0    0  0.95493128520E+01 -0.20526941302E+02  0.22275835364E+02  0.31760943568E+02  0.00000000000E+00 0. -1.
         -2    1    1    2    0  502 -0.35751306694E+02  0.46576043430E+02 -0.25946271338E+01  0.58772577295E+02  0.00000000000E+00 0.  1.
<scales pt_clust_5="13000.00000" pt_clust_6="13000.00000" pt_clust_7="13000.00000" pt_clust_8="13000.00000" pt_clust_9="58.71528"></scales>
<clustering>
<clus scale="   58.715">  1  9  2 -1</clus>
<clus scale="   76.886">  5  6 -1 -1</clus>
<clus scale="   89.712">  7  8 -1 -1</clus>
<clus scale="   89.821">  1  5  2 -1</clus>
<clus scale="   58.715">  1  5  2 -1</clus>
</clustering>
</event>
<event>
 9    2  0.6190160E-005  0.9121119E+02  0.7546771E-02  0.1307391E+00
         21   -1    0    0  501  502  0.00000000000E+00  0.00000000000E+00  0.10399140921E+03  0.10399140921E+03  0.00000000000E+00 0.  1.
          2   -1    0    0  502    0 -0.00000000000E+00 -0.00000000000E+00 -0.30514764717E+03  0.30514764717E+03  0.00000000000E+00 0. -1.
         23    2    1    2    0    0  0.20875659988E+02  0.47076249664E+01 -0.18937041403E+03  0.21126865664E+03  0.91188467794E+02 0.  0.
         24    2    1    2    0    0  0.35154121737E+02  0.39706167975E+01 -0.73592638367E+02  0.11399709868E+03  0.79547998170E+02 0.  0.
        -13    1    4    4    0    0  0.58797910003E+02  0.87041224612E+01 -0.36485083454E+02  0.69743223923E+02  0.00000000000E+00 0.  1.
         14    1    4    4    0    0 -0.23643788266E+02 -0.47335056637E+01 -0.37107554913E+02  0.44253874758E+02  0.00000000000E+00 0. -1.
        -13    1    3    3    0    0  0.56167558671E+02  0.11362865148E+02 -0.10617646055E+03  0.12065384423E+03  0.00000000000E+00 0.  1.
         13    1    3    3    0    0 -0.35291898683E+02 -0.66552401817E+01 -0.83193953475E+02  0.90614812417E+02  0.00000000000E+00 0. -1.
          1    1    1    2  501    0 -0.56029781724E+02 -0.86782417639E+01  0.61806814429E+02  0.83873301056E+02  0.00000000000E+00 0. -1.
<scales pt_clust_5="13000.00000" pt_clust_6="13000.00000" pt_clust_7="13000.00000" pt_clust_8="13000.00000" pt_clust_9="56.69787"></scales>
<clustering>
<clus scale="   56.698">  1  9  2 -1</clus>
<clus scale="   79.548">  5  6 -1 -1</clus>
<clus scale="   79.574">  1  5  2 -1</clus>
<clus scale="   91.188">  7  8 -1 -1</clus>
<clus scale="   56.698">  1  5  2 -1</clus>
</clustering>
</event>
<event>
 9    2  0.6190160E-005  0.1144461E+03  0.7546771E-02  0.1256582E+00
          2   -1    0    0  502    0 -0.00000000000E+00  0.00000000000E+00  0.11128744246E+04  0.11128744246E+04  0.00000000000E+00 0. -1.
         21   -1    0    0  501  502  0.00000000000E+00 -0.00000000000E+00 -0.19341629289E+02  0.19341629289E+02  0.00000000000E+00 0.  1.
         24    2    1    2    0    0  0.43557825543E+02 -0.54219561224E+02  0.73173167095E+03  0.73932012208E+03  0.79535901670E+02 0.  0.
         23    2    1    2    0    0 -0.20066360225E+02  0.71412695988E+02  0.23327493700E+03  0.26111416652E+03  0.90889932136E+02 0.  0.
        -13    1    3    3    0    0  0.36193751699E+02 -0.97923906442E+01  0.11525128569E+03  0.12119710158E+03  0.00000000000E+00 0.  1.
         14    1    3    3    0    0  0.73640738447E+01 -0.44427170580E+02  0.61648038525E+03  0.61812302050E+03  0.00000000000E+00 0. -1.
        -13    1    4    4    0    0 -0.36947468420E+02  0.86887251325E+02  0.18747933740E+03  0.20991191442E+03  0.00000000000E+00 0.  1.
         13    1    4    4    0    0  0.16881108195E+02 -0.15474555338E+02  0.45795599603E+02  0.51202252097E+02  0.00000000000E+00 0. -1.
          1    1    1    2  501    0 -0.23491465318E+02 -0.17193134763E+02  0.12852618735E+03  0.13178176528E+03  0.00000000000E+00 0. -1.
<scales pt_clust_5="13000.00000" pt_clust_6="13000.00000" pt_clust_7="13000.00000" pt_clust_8="13000.00000" pt_clust_9="29.11106"></scales>
<clustering>
<clus scale="   29.111">  2  9  1 -1</clus>
<clus scale="   79.536">  5  6 -1 -1</clus>
<clus scale="   90.890">  7  8 -1 -1</clus>
<clus scale="  105.655">  1  5  2 -1</clus>
<clus scale="   29.111">  2  5  1 -1</clus>
</clustering>
</event>
<event>
 9    2  0.6190160E-005  0.4621485E+03  0.7546771E-02  0.1069801E+00
          2   -1    0    0  502    0 -0.00000000000E+00  0.00000000000E+00  0.92427222062E+03  0.92427222062E+03  0.00000000000E+00 0. -1.
         21   -1    0    0  501  502  0.00000000000E+00 -0.00000000000E+00 -0.11213697209E+04  0.11213697209E+04  0.00000000000E+00 0.  1.
         23    2    1    2    0    0  0.84146357526E+02  0.33459547911E+02 -0.25704824778E+01  0.12465824449E+03  0.85632468767E+02 0.  0.
         24    2    1    2    0    0 -0.26759130565E+03  0.37015354491E+03 -0.94317977796E+03  0.10509052333E+04  0.78708082429E+02 0.  0.
        -13    1    4    4    0    0 -0.18036839115E+03  0.23563839028E+03 -0.52522128396E+03  0.60325417912E+03  0.00000000000E+00 0.  1.
         14    1    4    4    0    0 -0.87222914507E+02  0.13451515463E+03 -0.41795849399E+03  0.44765105422E+03  0.00000000000E+00 0. -1.
        -11    1    3    3    0    0  0.69295631058E+02  0.60519889021E+02 -0.11005728427E+02  0.92658877120E+02  0.00000000000E+00 0.  1.
         11    1    3    3    0    0  0.14850726467E+02 -0.27060341111E+02  0.84352459494E+01  0.31999367366E+02  0.00000000000E+00 0. -1.
          1    1    1    2  501    0  0.18344494813E+03 -0.40361309282E+03  0.74865276016E+03  0.87007846370E+03  0.00000000000E+00 0. -1.
<scales pt_clust_5="13000.00000" pt_clust_6="13000.00000" pt_clust_7="13000.00000" pt_clust_8="13000.00000" pt_clust_9="455.39710"></scales>
<clustering>
<clus scale="   78.708">  5  6 -1 -1</clus>
<clus scale="   85.632">  7  8 -1 -1</clus>
<clus scale="  124.632">  1  7  2 -1</clus>
<clus scale="  455.397">  2  9  1 -1</clus>
<clus scale="  455.397">  2  5  1 -1</clus>
</clustering>
</event>
<event>
 9    2  0.6190160E-005  0.1122724E+03  0.7546771E-02  0.1262771E+00
         21   -1    0    0  501  502  0.00000000000E+00  0.00000000000E+00  0.99414254517E+02  0.99414254517E+02  0.00000000000E+00 0. -1.
         -1   -1    0    0    0  501 -0.00000000000E+00 -0.00000000000E+00 -0.45651022066E+03  0.45651022066E+03  0.00000000000E+00 0.  1.
         23    2    1    2    0    0  0.62800432596E+02 -0.12979227558E+02 -0.36191032797E+03  0.37896920137E+03  0.92337508147E+02 0.  0.
         24    2    1    2    0    0 -0.49927988162E+02  0.54682719463E+02  0.47328721746E+02  0.11602620142E+03  0.75756634726E+02 0.  0.
        -13    1    4    4    0    0 -0.11338222598E+02 -0.18177346755E+02  0.98656877953E+00  0.21446317742E+02  0.00000000000E+00 0.  1.
         14    1    4    4    0    0 -0.38589765564E+02  0.72860066218E+02  0.46342152967E+02  0.94579883681E+02  0.00000000000E+00 0. -1.
        -13    1    3    3    0    0  0.53831778606E+02  0.33261708991E+02 -0.17096060877E+03  0.18229572519E+03  0.00000000000E+00 0.  1.
         13    1    3    3    0    0  0.89686539908E+01 -0.46240936550E+02 -0.19094971920E+03  0.19667347617E+03  0.00000000000E+00 0. -1.
         -2    1    1    2    0  502 -0.12872444435E+02 -0.41703491904E+02 -0.42514359922E+02  0.60929072390E+02  0.00000000000E+00 0.  1.
<scales pt_clust_5="13000.00000" pt_clust_6="13000.00000" pt_clust_7="13000.00000" pt_clust_8="13000.00000" pt_clust_9="43.64496"></scales>
<clustering>
<clus scale="   43.645">  1  9  2 -1</clus>
<clus scale="   75.757">  5  6 -1 -1</clus>
<clus scale="   92.338">  7  8 -1 -1</clus>
<clus scale="   99.086">  1  5  2 -1</clus>
<clus scale="   43.645">  1  5  2 -1</clus>
</clustering>
</event>
<event>
 9    2  0.6190160E-005  0.2396687E+03  0.7546771E-02  0.1148627E+00
         -1   -1    0    0    0  501 -0.00000000000E+00  0.00000000000E+00  0.27716485648E+03  0.27716485648E+03  0.00000000000E+00 0.  1.
         21   -1    0    0  501  502  0.00000000000E+00 -0.00000000000E+00 -0.34448179929E+03  0.34448179929E+03  0.00000000000E+00 0.  1.
         24    2    1    2    0    0  0.90058538618E+02  0.22333024722E+02  0.50505480101E+02  0.12957581046E+03  0.75031878316E+02 0.  0.
         23    2    1    2    0    0 -0.25012337338E+03 -0.11732378171E+03 -0.70548621659E+02  0.30003228792E+03  0.93357881890E+02 0.  0.
        -13    1    3    3    0    0  0.35589492659E+02 -0.22967512581E+02  0.39432078265E+02  0.57870609278E+02  0.00000000000E+00 0.  1.
         14    1    3    3    0    0  0.54469045959E+02  0.45300537303E+02  0.11073401836E+02  0.71705201177E+02  0.00000000000E+00 0. -1.
        -11    1    4    4    0    0 -0.11841060149E+03 -0.13215011482E+02 -0.33470523403E+01  0.11919274236E+03  0.00000000000E+00 0.  1.
         11    1    4    4    0    0 -0.13171277190E+03 -0.10410877023E+03 -0.67201569318E+02  0.18083954556E+03  0.00000000000E+00 0. -1.
         -2    1    1    2    0  502  0.16006483476E+03  0.94990756989E+02 -0.47273801245E+02  0.19203855739E+03  0.00000000000E+00 0.  1.
<scales pt_clust_5="13000.00000" pt_clust_6="13000.00000" pt_clust_7="13000.00000" pt_clust_8="13000.00000" pt_clust_9="220.73829"></scales>
<clustering>
<clus scale="   75.032">  5  6 -1 -1</clus>
<clus scale="   93.358">  7  8 -1 -1</clus>
<clus scale="  119.328">  1  5  2 -1</clus>
<clus scale="  220.738">  2  9  1 -1</clus>
<clus scale="  220.738">  2  5  1 -1</clus>
</clustering>
</event>
<event>
 9    2  0.6190160E-005  0.1037457E+03  0.7546771E-02  0.1278228E+00
         -1   -1    0    0    0  501 -0.00000000000E+00  0.00000000000E+00  0.13980608592E+03  0.13980608592E+03  0.00000000000E+00 0.  1.
         21   -1    0    0  501  502  0.00000000000E+00 -0.00000000000E+00 -0.10941508934E+03  0.10941508934E+03  0.00000000000E+00 0. -1.
         23    2    1    2    0    0  0.20321678549E+02  0.47719255647E+02  0.66225126901E+02  0.12422454319E+03  0.91410457388E+02 0.  0.
         24    2    1    2    0    0 -0.33660710840E+02 -0.32234931549E+02 -0.10551204145E+02  0.92486319383E+02  0.79184954997E+02 0.  0.
        -13    1    4    4    0    0 -0.28984923915E+02 -0.10512927030E+02  0.32028659560E+02  0.44457648187E+02  0.00000000000E+00 0.  1.
         14    1    4    4    0    0 -0.46757869252E+01 -0.21722004519E+02 -0.42579863705E+02  0.48028671196E+02  0.00000000000E+00 0. -1.
        -13    1    3    3    0    0 -0.21996676782E+02  0.48366970790E+02  0.62057242546E+02  0.81696505466E+02  0.00000000000E+00 0.  1.
         13    1    3    3    0    0  0.42318355332E+02 -0.64771514344E+00  0.41678843547E+01  0.42528037727E+02  0.00000000000E+00 0. -1.
         -2    1    1    2    0  502  0.13339032291E+02 -0.15484324098E+02 -0.25282926175E+02  0.32510312690E+02  0.00000000000E+00 0.  1.
<scales pt_clust_5="13000.00000" pt_clust_6="13000.00000" pt_clust_7="13000.00000" pt_clust_8="13000.00000" pt_clust_9="20.43757"></scales>
<clustering>
<clus scale="   20.438">  2  9  1 -1</clus>
<clus scale="   79.185">  5  6 -1 -1</clus>
<clus scale="   91.410">  7  8 -1 -1</clus>
<clus scale="   93.153">  2  5  1 -1</clus>
<clus scale="   20.438">  2  5  1 -1</clus>
</clustering>
</event>
<event>
 9    2  0.6190160E-005  0.9842786E+02  0.7546771E-02  0.1290393E+00
          2   -1    0    0  502    0 -0.00000000000E+00  0.00000000000E+00  0.28460497054E+03  0.28460497054E+03  0.00000000000E+00 0. -1.
         21   -1    0    0  501  502  0.00000000000E+00 -0.00000000000E+00 -0.64302843481E+02  0.64302843481E+02  0.00000000000E+00 0. -1.
         24    2    1    2    0    0 -0.37266727844E+02  0.10742062367E+02  0.17867254477E+03  0.19915919085E+03  0.78970273756E+02 0.  0.
         23    2    1    2    0    0  0.25553324605E+02  0.17624238827E+02 -0.14735084205E+01  0.96836173902E+02  0.91714160065E+02 0.  0.
        -11    1    3    3    0    0  0.16978367247E+02 -0.19122376476E+02  0.43116214632E+02  0.50129215042E+02  0.00000000000E+00 0.  1.
         12    1    3    3    0    0 -0.54245095092E+02  0.29864438843E+02  0.13555633014E+03  0.14902997581E+03  0.00000000000E+00 0. -1.
        -13    1    4    4    0    0  0.48196223905E+02  0.35894997970E+02  0.16899829189E+02  0.62425404320E+02  0.00000000000E+00 0.  1.
         13    1    4    4    0    0 -0.22642899300E+02 -0.18270759143E+02 -0.18373337609E+02  0.34410769582E+02  0.00000000000E+00 0. -1.
          1    1    1    2  501    0  0.11713403239E+02 -0.28366301194E+02  0.43103090706E+02  0.52912449266E+02  0.00000000000E+00 0. -1.
<scales pt_clust_5="13000.00000" pt_clust_6="13000.00000" pt_clust_7="13000.00000" pt_clust_8="13000.00000" pt_clust_9="30.68960"></scales>
<clustering>
<clus scale="   30.690">  2  9  1 -1</clus>
<clus scale="   78.970">  5  6 -1 -1</clus>
<clus scale="   86.677">  1  5  2 -1</clus>
<clus scale="   91.714">  7  8 -1 -1</clus>
<clus scale="   30.690">  2  5  1 -1</clus>
</clustering>
</event>
<event>
 9    2  0.6190160E-005  0.1589202E+03  0.7546771E-02  0.1190884E+00
         21   -1    0    0  501  502  0.00000000000E+00  0.00000000000E+00  0.30457754672E+03  0.30457754672E+03  0.00000000000E+00 0. -1.
         -3   -1    0    0    0  501 -0.00000000000E+00 -0.00000000000E+00 -0.15195888506E+03  0.15195888506E+03  0.00000000000E+00 0.  1.
         23    2    1    2    0    0  0.21983126634E+02 -0.14561888949E+03  0.42947584841E+02  0.17606579501E+03  0.86409202615E+02 0.  0.
         24    2    1    2    0    0 -0.29310440470E+01  0.11002013029E+03  0.16377819425E+03  0.21295890694E+03  0.80094812861E+02 0.  0.
        -11    1    4    4    0    0  0.31767339947E+02  0.31734353436E+02  0.29587270372E+02  0.53773968083E+02  0.00000000000E+00 0.  1.
         12    1    4    4    0    0 -0.34698383994E+02  0.78285776850E+02  0.13419092388E+03  0.15918493886E+03  0.00000000000E+00 0. -1.
        -13    1    3    3    0    0 -0.20332197197E+02 -0.13380800673E+02  0.26932832279E+02  0.36301811581E+02  0.00000000000E+00 0.  1.
         13    1    3    3    0    0  0.42315323830E+02 -0.13223808882E+03  0.16014752561E+02  0.13976398343E+03  0.00000000000E+00 0. -1.
         -4    1    1    2    0  502 -0.19052082587E+02  0.35598759203E+02 -0.54107117428E+02  0.67511729826E+02  0.00000000000E+00 0.  1.
<scales pt_clust_5="13000.00000" pt_clust_6="13000.00000" pt_clust_7="13000.00000" pt_clust_8="13000.00000" pt_clust_9="40.37642"></scales>
<clustering>
<clus scale="   40.376">  1  9  2 -1</clus>
<clus scale="   80.095">  5  6 -1 -1</clus>
<clus scale="   86.409">  7  8 -1 -1</clus>
<clus scale="  155.577">  1  5  2 -1</clus>
<clus scale="   40.376">  1  5  2 -1</clus>
</clustering>
</event>
<event>
 9    2  0.6190160E-005  0.9659860E+02  0.7546771E-02  0.1293302E+00
         21   -1    0    0  501  502  0.00000000000E+00  0.00000000000E+00  0.76915189979E+02  0.76915189979E+02  0.00000000000E+00 0. -1.
          2   -1    0    0  502    0 -0.00000000000E+00 -0.00000000000E+00 -0.16347216968E+03  0.16347216968E+03  0.00000000000E+00 0. -1.
         24    2    1    2    0    0 -0.20942909415E+02  0.22490183058E+02 -0.49534812576E+02  0.99420839344E+02  0.80538139103E+02 0.  0.
         23    2    1    2    0    0  0.44282757077E+02  0.27517602363E+01 -0.22716637985E+02  0.10373008179E+03  0.90968947818E+02 0.  0.
        -13    1    3    3    0    0 -0.47372626573E+02  0.32993736699E+02 -0.31910805910E+02  0.65962504073E+02  0.00000000000E+00 0.  1.
         14    1    3    3    0    0  0.26429717158E+02 -0.10503553641E+02 -0.17624006666E+02  0.33458335270E+02  0.00000000000E+00 0. -1.
        -11    1    4    4    0    0  0.19583783906E+01  0.29484338982E+02  0.21815167260E+02  0.36729593160E+02  0.00000000000E+00 0. -1.
         11    1    4    4    0    0  0.42324378686E+02 -0.26732578746E+02 -0.44531805245E+02  0.67000488625E+02  0.00000000000E+00 0.  1.
          1    1    1    2  501    0 -0.23339847661E+02 -0.25241943295E+02 -0.14305529136E+02  0.37236438525E+02  0.00000000000E+00 0. -1.
<scales pt_clust_5="13000.00000" pt_clust_6="13000.00000" pt_clust_7="13000.00000" pt_clust_8="13000.00000" pt_clust_9="34.37885"></scales>
<clustering>
<clus scale="   34.379">  1  9  2 -1</clus>
<clus scale="   80.538">  5  6 -1 -1</clus>
<clus scale="   86.847">  2  5  1 -1</clus>
<clus scale="   90.969">  7  8 -1 -1</clus>
<clus scale="   34.379">  1  5  2 -1</clus>
</clustering>
</event>
<event>
 9    2  0.6190160E-005  0.1087536E+03  0.7546771E-02  0.1267701E+00
          2   -1    0    0  502    0 -0.00000000000E+00  0.00000000000E+00  0.40555654527E+03  0.40555654527E+03  0.00000000000E+00 0. -1.
         21   -1    0    0  501  502  0.00000000000E+00 -0.00000000000E+00 -0.63924298274E+02  0.63924298274E+02  0.00000000000E+00 0.  1.
         23    2    1    2    0    0 -0.35765327639E+02 -0.10331482145E+02  0.18005539345E+03  0.20620783912E+03  0.93358609786E+02 0.  0.
         24    2    1    2    0    0  0.86515239199E+02  0.62862945310E+02  0.99776780316E+02  0.16759459935E+03  0.81828523963E+02 0.  0.
        -11    1    4    4    0    0  0.33561657701E+02  0.32186786016E+02 -0.44666015325E+01  0.46715357120E+02  0.00000000000E+00 0.  1.
         12    1    4    4    0    0  0.52953581499E+02  0.30676159294E+02  0.10424338185E+03  0.12087924223E+03  0.00000000000E+00 0. -1.
        -13    1    3    3    0    0  0.90091550033E+01 -0.31758478486E+02  0.19920723555E+02  0.38556465821E+02  0.00000000000E+00 0. -1.
         13    1    3    3    0    0 -0.44774482643E+02  0.21426996342E+02  0.16013466989E+03  0.16765137330E+03  0.00000000000E+00 0.  1.
          1    1    1    2  501    0 -0.50749911560E+02 -0.52531463165E+02  0.61800073232E+02  0.95678405072E+02  0.00000000000E+00 0. -1.
<scales pt_clust_5="13000.00000" pt_clust_6="13000.00000" pt_clust_7="13000.00000" pt_clust_8="13000.00000" pt_clust_9="73.04182"></scales>
<clustering>
<clus scale="   73.042">  2  9  1 -1</clus>
<clus scale="   81.829">  5  6 -1 -1</clus>
<clus scale="   93.359">  7  8 -1 -1</clus>
<clus scale="   99.032">  2  5  1 -1</clus>
<clus scale="   73.042">  2  5  1 -1</clus>
</clustering>
</event>
<event>
 9    2  0.6190160E-005  0.9525402E+02  0.7546771E-02  0.1297420E+00
         -1   -1    0    0    0  501 -0.00000000000E+00  0.00000000000E+00  0.74806023724E+02  0.74806023724E+02  0.00000000000E+00 0.  1.
         21   -1    0    0  501  502  0.00000000000E+00 -0.00000000000E+00 -0.30026764676E+03  0.30026764676E+03  0.00000000000E+00 0.  1.
         24    2    1    2    0    0 -0.16682148774E+02  0.16473713884E+02 -0.13320001896E+02  0.85426971707E+02  0.81059655240E+02 0.  0.
         23    2    1    2    0    0 -0.33942797847E+02 -0.29055583189E+02 -0.41149884205E+02  0.11087488121E+03  0.92755516673E+02 0.  0.
        -11    1    3    3    0    0 -0.26878716469E+02 -0.66122542759E+01  0.26475712179E+02  0.38303402473E+02  0.00000000000E+00 0.  1.
         12    1    3    3    0    0  0.10196567695E+02  0.23085968160E+02 -0.39795714074E+02  0.47123569234E+02  0.00000000000E+00 0. -1.
        -11    1    4    4    0    0 -0.14317323598E+02 -0.40708649732E+02  0.18542148471E+02  0.46967980454E+02  0.00000000000E+00 0. -1.
         11    1    4    4    0    0 -0.19625474249E+02  0.11653066543E+02 -0.59692032676E+02  0.63906900757E+02  0.00000000000E+00 0.  1.
         -2    1    1    2    0  502  0.50624946621E+02  0.12581869305E+02 -0.17099173693E+03  0.17877181757E+03  0.00000000000E+00 0.  1.
<scales pt_clust_5="13000.00000" pt_clust_6="13000.00000" pt_clust_7="13000.00000" pt_clust_8="13000.00000" pt_clust_9="52.16501"></scales>
<clustering>
<clus scale="   52.165">  2  9  1 -1</clus>
<clus scale="   81.060">  5  6 -1 -1</clus>
<clus scale="   83.907">  1  5  2 -1</clus>
<clus scale="   92.756">  7  8 -1 -1</clus>
<clus scale="   52.165">  2  5  1 -1</clus>
</clustering>
</event>
<event>
 9    2  0.6190160E-005  0.9447798E+02  0.7546771E-02  0.1298694E+00
         21   -1    0    0  501  502  0.00000000000E+00  0.00000000000E+00  0.21938084298E+03  0.21938084298E+03  0.00000000000E+00 0. -1.
          2   -1    0    0  502    0 -0.00000000000E+00 -0.00000000000E+00 -0.91417721301E+02  0.91417721301E+02  0.00000000000E+00 0. -1.
         23    2    1    2    0    0  0.14701255659E+02 -0.21971355925E+02 -0.48013227880E+02  0.10675823543E+03  0.91614318648E+02 0.  0.
         24    2    1    2    0    0 -0.10156694796E+02  0.14964911165E+01  0.12818054200E+03  0.15184538329E+03  0.80755006922E+02 0.  0.
        -11    1    4    4    0    0 -0.42912015490E+01  0.41118355294E+02  0.63936230498E+02  0.76137869179E+02  0.00000000000E+00 0.  1.
         12    1    4    4    0    0 -0.58654932472E+01 -0.39621864177E+02  0.64244311502E+02  0.75707514107E+02  0.00000000000E+00 0. -1.
        -11    1    3    3    0    0 -0.32247008212E+02 -0.13823035224E+02  0.50431577092E+01  0.35445440907E+02  0.00000000000E+00 0.  1.
         11    1    3    3    0    0  0.46948263871E+02 -0.81483207006E+01 -0.53056385589E+02  0.71312794522E+02  0.00000000000E+00 0. -1.
          1    1    1    2  501    0 -0.45445608627E+01  0.20474864808E+02  0.47795807561E+02  0.52194945567E+02  0.00000000000E+00 0. -1.
<scales pt_clust_5="13000.00000" pt_clust_6="13000.00000" pt_clust_7="13000.00000" pt_clust_8="13000.00000" pt_clust_9="20.97315"></scales>
<clustering>
<clus scale="   20.973">  1  9  2 -1</clus>
<clus scale="   80.755">  5  6 -1 -1</clus>
<clus scale="   83.990">  1  5  2 -1</clus>
<clus scale="   91.614">  7  8 -1 -1</clus>
<clus scale="   20.973">  1  5  2 -1</clus>
</clustering>
</event>
<event>
 9    2  0.6190160E-005  0.1171337E+03  0.7546771E-02  0.1254655E+00
         21   -1    0    0  501  502  0.00000000000E+00  0.00000000000E+00  0.55765117113E+03  0.55765117113E+03  0.00000000000E+00 0. -1.
         -1   -1    0    0    0  501 -0.00000000000E+00 -0.00000000000E+00 -0.45853015525E+02  0.45853015525E+02  0.00000000000E+00 0.  1.
         24    2    1    2    0    0  0.16811595485E+01  0.76816160675E+02  0.46192461006E+02  0.11459837731E+03  0.71382741539E+02 0.  0.
         23    2    1    2    0    0  0.24814221415E+02 -0.59809941613E+02  0.29708697283E+03  0.31747134290E+03  0.91292986791E+02 0.  0.
        -13    1    3    3    0    0 -0.32925143078E+02  0.40287416597E+02  0.35966610280E+02  0.63251387635E+02  0.00000000000E+00 0.  1.
         14    1    3    3    0    0  0.34606302627E+02  0.36528744079E+02  0.10225850725E+02  0.51346989673E+02  0.00000000000E+00 0. -1.
        -11    1    4    4    0    0  0.42134849387E+02 -0.71493905184E+02  0.27419707855E+03  0.28647995025E+03  0.00000000000E+00 0.  1.
         11    1    4    4    0    0 -0.17320627972E+02  0.11683963572E+02  0.22889894283E+02  0.30991392650E+02  0.00000000000E+00 0. -1.
         -2    1    1    2    0  502 -0.26495380963E+02 -0.17006219063E+02  0.16851872176E+03  0.17143446644E+03  0.00000000000E+00 0.  1.
<scales pt_clust_5="13000.00000" pt_clust_6="13000.00000" pt_clust_7="13000.00000" pt_clust_8="13000.00000" pt_clust_9="31.48359"></scales>
<clustering>
<clus scale="   31.484">  1  9  2 -1</clus>
<clus scale="   71.383">  5  6 -1 -1</clus>
<clus scale="   91.293">  7  8 -1 -1</clus>
<clus scale="  102.379">  2  5  1 -1</clus>
<clus scale="   31.484">  1  5  2 -1</clus>
</clustering>
</event>
<event>
 9    2  0.6794859E-005  0.9204693E+02  0.7546771E-02  0.1303430E+00
         21   -1    0    0  501  502  0.00000000000E+00  0.00000000000E+00  0.78484513287E+02  0.78484513287E+02  0.00000000000E+00 0. -1.
          2   -1    0    0  502    0 -0.00000000000E+00 -0.00000000000E+00 -0.69191514789E+03  0.69191514789E+03  0.00000000000E+00 0. -1.
         24    2    1    2    0    0  0.36152929634E+02  0.17797994270E+02 -0.38676648058E+03  0.39748483329E+03  0.82353380474E+02 0.  0.
         23    2    1    2    0    0 -0.68544826236E+02  0.27825908428E+02  0.31952663277E+02  0.10831431078E+03  0.72376397017E+02 0.  0.
        -11    1    3    3    0    0 -0.22511418904E+02 -0.12339519493E+02 -0.10205834777E+03  0.10523751266E+03  0.00000000000E+00 0.  1.
         12    1    3    3    0    0  0.58664348539E+02  0.30137513763E+02 -0.28470813282E+03  0.29224732063E+03  0.00000000000E+00 0. -1.
        -13    1    4    4    0    0 -0.53877333491E+02 -0.11318329330E+02 -0.10364838440E+01  0.55063108718E+02  0.00000000000E+00 0.  1.
         13    1    4    4    0    0 -0.14667492746E+02  0.39144237758E+02  0.32989147121E+02  0.53251202061E+02  0.00000000000E+00 0. -1.
          1    1    1    2  501    0  0.32391896602E+02 -0.45623902698E+02 -0.25861681730E+03  0.26460051711E+03  0.00000000000E+00 0. -1.
<scales pt_clust_5="13000.00000" pt_clust_6="13000.00000" pt_clust_7="13000.00000" pt_clust_8="13000.00000" pt_clust_9="55.95336"></scales>
<clustering>
<clus scale="   55.953">  1  9  2 -1</clus>
<clus scale="   72.376">  7  8 -1 -1</clus>
<clus scale="   82.353">  5  6 -1 -1</clus>
<clus scale="   83.240">  1  7  2 -1</clus>
<clus scale="   55.953">  1  5  2 -1</clus>
</clustering>
</event>
<event>
 9    2  0.6190160E-005  0.9949148E+02  0.7546771E-02  0.1287477E+00
         21   -1    0    0  501  502  0.00000000000E+00  0.00000000000E+00  0.11443331005E+03  0.11443331005E+03  0.00000000000E+00 0.  1.
          2   -1    0    0  502    0 -0.00000000000E+00 -0.00000000000E+00 -0.23115121014E+03  0.23115121014E+03  0.00000000000E+00 0. -1.
         24    2    1    2    0    0 -0.39294028447E+02  0.17887855271E+02 -0.16997118978E+03  0.19260806946E+03  0.79647140729E+02 0.  0.
         23    2    1    2    0    0 -0.42986331942E+01 -0.29821063765E+02  0.47351810166E+02  0.10739631170E+03  0.91564183766E+02 0.  0.
        -13    1    3    3    0    0  0.63093365155E+01 -0.20963455460E+02 -0.90356315504E+02  0.92970629467E+02  0.00000000000E+00 0.  1.
         14    1    3    3    0    0 -0.45603364962E+02  0.38851310731E+02 -0.79614874276E+02  0.99637439988E+02  0.00000000000E+00 0. -1.
        -13    1    4    4    0    0  0.30990635863E+02 -0.36065912880E+02  0.52901229261E+02  0.71131636002E+02  0.00000000000E+00 0.  1.
         13    1    4    4    0    0 -0.35289269057E+02  0.62448491145E+01 -0.55494190943E+01  0.36264675696E+02  0.00000000000E+00 0. -1.
          1    1    1    2  501    0  0.43592661641E+02  0.11933208495E+02  0.59014795197E+01  0.45580139035E+02  0.00000000000E+00 0. -1.
<scales pt_clust_5="13000.00000" pt_clust_6="13000.00000" pt_clust_7="13000.00000" pt_clust_8="13000.00000" pt_clust_9="45.19648"></scales>
<clustering>
<clus scale="   45.196">  1  9  2 -1</clus>
<clus scale="   79.647">  5  6 -1 -1</clus>
<clus scale="   88.647">  2  5  1 -1</clus>
<clus scale="   91.564">  7  8 -1 -1</clus>
<clus scale="   45.196">  1  5  2 -1</clus>
</clustering>
</event>
<event>
 9    2  0.6190160E-005  0.1289210E+03  0.7546771E-02  0.1231572E+00
         -3   -1    0    0    0  501 -0.00000000000E+00  0.00000000000E+00  0.46169809747E+03  0.46169809747E+03  0.00000000000E+00 0.  1.
         21   -1    0    0  501  502  0.00000000000E+00 -0.00000000000E+00 -0.32339664449E+03  0.32339664449E+03  0.00000000000E+00 0.  1.
         23    2    1    2    0    0 -0.73999077727E+02 -0.32758364123E+02  0.37854497326E+03  0.39995880919E+03  0.10060704916E+03 0.  0.
         24    2    1    2    0    0  0.14401262189E+02  0.13969342972E+03 -0.73446721771E+02  0.17823455563E+03  0.81556638122E+02 0.  0.
        -11    1    4    4    0    0 -0.21171898487E+02  0.43535490852E+02 -0.56354084189E+02  0.74292469700E+02  0.00000000000E+00 0.  1.
         12    1    4    4    0    0  0.35573160675E+02  0.96157938867E+02 -0.17092637581E+02  0.10394208593E+03  0.00000000000E+00 0. -1.
        -13    1    3    3    0    0 -0.51361863742E+02 -0.66844804984E+02  0.29687696295E+03  0.30861335054E+03  0.00000000000E+00 0.  1.
         13    1    3    3    0    0 -0.22637213985E+02  0.34086440861E+02  0.81668010312E+02  0.91345458650E+02  0.00000000000E+00 0. -1.
         -4    1    1    2    0  502  0.59597815538E+02 -0.10693506560E+03 -0.16679679851E+03  0.20690137714E+03  0.00000000000E+00 0.  1.
<scales pt_clust_5="13000.00000" pt_clust_6="13000.00000" pt_clust_7="13000.00000" pt_clust_8="13000.00000" pt_clust_9="122.42144"></scales>
<clustering>
<clus scale="   81.557">  5  6 -1 -1</clus>
<clus scale="  100.607">  7  8 -1 -1</clus>
<clus scale="  122.421">  2  9  1 -1</clus>
<clus scale="  122.421">  2  5  1 -1</clus>
<clus scale="  122.421">  2  5  1 -1</clus>
</clustering>
</event>
<event>
 9    2  0.6190160E-005  0.9497593E+02  0.7546771E-02  0.1296801E+00
         21   -1    0    0  501  502  0.00000000000E+00  0.00000000000E+00  0.76784047364E+03  0.76784047364E+03  0.00000000000E+00 0. -1.
          2   -1    0    0  502    0 -0.00000000000E+00 -0.00000000000E+00 -0.21882913753E+02  0.21882913753E+02  0.00000000000E+00 0. -1.
         23    2    1    2    0    0 -0.12746992142E+02  0.27831381570E+02  0.18399694395E+03  0.20685519896E+03  0.89426653427E+02 0.  0.
         24    2    1    2    0    0 -0.38396933913E+02 -0.35028786790E+02  0.26583196524E+03  0.28226931689E+03  0.79422875011E+02 0.  0.
        -13    1    4    4    0    0 -0.38596926165E+02 -0.21905875852E+02  0.53409564523E+02  0.69441858333E+02  0.00000000000E+00 0.  1.
         14    1    4    4    0    0  0.19999225247E+00 -0.13122910939E+02  0.21242240072E+03  0.21282745856E+03  0.00000000000E+00 0. -1.
        -13    1    3    3    0    0 -0.31204534665E+02  0.14249051812E+02  0.18043101921E+03  0.18366303699E+03  0.00000000000E+00 0.  1.
         13    1    3    3    0    0  0.18457542524E+02  0.13582329758E+02  0.35659247411E+01  0.23192161972E+02  0.00000000000E+00 0. -1.
          1    1    1    2  501    0  0.51143926054E+02  0.71974052199E+01  0.29612865069E+03  0.30059887154E+03  0.00000000000E+00 0. -1.
<scales pt_clust_5="13000.00000" pt_clust_6="13000.00000" pt_clust_7="13000.00000" pt_clust_8="13000.00000" pt_clust_9="51.64788"></scales>
<clustering>
<clus scale="   51.648">  1  9  2 -1</clus>
<clus scale="   79.423">  5  6 -1 -1</clus>
<clus scale="   85.623">  1  5  2 -1</clus>
<clus scale="   89.427">  7  8 -1 -1</clus>
<clus scale="   51.648">  1  5  2 -1</clus>
</clustering>
</event>
<event>
 9    2  0.6190160E-005  0.9697566E+02  0.7546771E-02  0.1292498E+00
         21   -1    0    0  501  502  0.00000000000E+00  0.00000000000E+00  0.38349686684E+03  0.38349686684E+03  0.00000000000E+00 0. -1.
          2   -1    0    0  502    0 -0.00000000000E+00 -0.00000000000E+00 -0.36909432496E+02  0.36909432496E+02  0.00000000000E+00 0. -1.
         24    2    1    2    0    0 -0.32564740534E+02 -0.35221549781E+02  0.11682972952E+03  0.15019184524E+03  0.81285821532E+02 0.  0.
         23    2    1    2    0    0  0.22460687603E+02 -0.10369094774E+02  0.14322913035E+03  0.17188951851E+03  0.91757409402E+02 0.  0.
        -11    1    3    3    0    0  0.23013774001E+02 -0.30925818232E+02  0.44543521490E+02  0.58908109237E+02  0.00000000000E+00 0.  1.
         12    1    3    3    0    0 -0.55578514536E+02 -0.42957315486E+01  0.72286208029E+02  0.91283736003E+02  0.00000000000E+00 0. -1.
        -13    1    4    4    0    0  0.82742156859E+01 -0.50092613789E+02  0.60129573526E+02  0.78697510849E+02  0.00000000000E+00 0.  1.
         13    1    4    4    0    0  0.14186471917E+02  0.39723519015E+02  0.83099556822E+02  0.93192007664E+02  0.00000000000E+00 0. -1.
          1    1    1    2  501    0  0.10104052931E+02  0.45590644555E+02  0.86528574481E+02  0.98324935588E+02  0.00000000000E+00 0. -1.
<scales pt_clust_5="13000.00000" pt_clust_6="13000.00000" pt_clust_7="13000.00000" pt_clust_8="13000.00000" pt_clust_9="46.69688"></scales>
<clustering>
<clus scale="   46.697">  1  9  2 -1</clus>
<clus scale="   81.286">  5  6 -1 -1</clus>
<clus scale="   87.133">  2  5  1 -1</clus>
<clus scale="   91.757">  7  8 -1 -1</clus>
<clus scale="   46.697">  1  5  2 -1</clus>
</clustering>
</event>
<event>
 9    2  0.6190160E-005  0.1468829E+03  0.7546771E-02  0.1211382E+00
          2   -1    0    0  502    0 -0.00000000000E+00  0.00000000000E+00  0.20730011780E+04  0.20730011780E+04  0.00000000000E+00 0. -1.
         21   -1    0    0  501  502  0.00000000000E+00 -0.00000000000E+00 -0.20251768511E+02  0.20251768511E+02  0.00000000000E+00 0. -1.
         24    2    1    2    0    0 -0.72858814772E+02 -0.62058194913E+02  0.53441680371E+03  0.54915045801E+03  0.82494114900E+02 0.  0.
         23    2    1    2    0    0  0.98023254481E+02 -0.65872813255E+02  0.74580694195E+03  0.76065147335E+03  0.91732673038E+02 0.  0.
        -11    1    3    3    0    0 -0.24833081504E+02  0.25194204200E+00  0.31473238269E+02  0.40091272603E+02  0.00000000000E+00 0.  1.
         12    1    3    3    0    0 -0.48025733268E+02 -0.62310136955E+02  0.50294356544E+03  0.50905918540E+03  0.00000000000E+00 0. -1.
        -11    1    4    4    0    0  0.16547008470E+02  0.16124556475E+02  0.47262595491E+02  0.52607582565E+02  0.00000000000E+00 0.  1.
         11    1    4    4    0    0  0.81476246012E+02 -0.81997369731E+02  0.69854434646E+03  0.70804389078E+03  0.00000000000E+00 0. -1.
          1    1    1    2  501    0 -0.25164439710E+02  0.12793100817E+03  0.77252566386E+03  0.78345101519E+03  0.00000000000E+00 0. -1.
<scales pt_clust_5="13000.00000" pt_clust_6="13000.00000" pt_clust_7="13000.00000" pt_clust_8="13000.00000" pt_clust_9="114.71583"></scales>
<clustering>
<clus scale="   82.494">  5  6 -1 -1</clus>
<clus scale="   91.733">  7  8 -1 -1</clus>
<clus scale="  126.352">  1  5  2 -1</clus>
<clus scale="  114.716">  2  9  1 -1</clus>
<clus scale="  114.716">  2  5  1 -1</clus>
</clustering>
</event>
<event>
 9    2  0.6190160E-005  0.1716964E+03  0.7546771E-02  0.1186479E+00
         21   -1    0    0  501  502  0.00000000000E+00  0.00000000000E+00  0.30938593269E+03  0.30938593269E+03  0.00000000000E+00 0.  1.
         -1   -1    0    0    0  501 -0.00000000000E+00 -0.00000000000E+00 -0.23351933433E+03  0.23351933433E+03  0.00000000000E+00 0.  1.
         24    2    1    2    0    0 -0.41482998071E+02  0.10094940075E+03  0.13284272236E+03  0.19012003696E+03  0.81159219614E+02 0.  0.
         23    2    1    2    0    0 -0.59101696673E+02  0.79059844071E+02 -0.12248456930E+02  0.14178481955E+03  0.10104177781E+03 0.  0.
        -11    1    3    3    0    0 -0.50175762357E+02  0.96221131038E+02  0.14055649885E+03  0.17757320337E+03  0.00000000000E+00 0.  1.
         12    1    3    3    0    0  0.86927642860E+01  0.47282697129E+01 -0.77137764881E+01  0.12546833589E+02  0.00000000000E+00 0. -1.
        -11    1    4    4    0    0 -0.63979703537E+01  0.86407826069E+02  0.21035111689E+01  0.86669897830E+02  0.00000000000E+00 0.  1.
         11    1    4    4    0    0 -0.52703726319E+02 -0.73479819987E+01 -0.14351968099E+02  0.55114921715E+02  0.00000000000E+00 0. -1.
         -2    1    1    2    0  502  0.10058469474E+03 -0.18000924482E+03 -0.44727667075E+02  0.21100041052E+03  0.00000000000E+00 0.  1.
<scales pt_clust_5="13000.00000" pt_clust_6="13000.00000" pt_clust_7="13000.00000" pt_clust_8="13000.00000" pt_clust_9="138.81732"></scales>
<clustering>
<clus scale="   81.159">  5  6 -1 -1</clus>
<clus scale="  101.042">  7  8 -1 -1</clus>
<clus scale="  136.009">  2  5  1 -1</clus>
<clus scale="  138.817">  1  9  2 -1</clus>
<clus scale="  138.817">  1  5  2 -1</clus>
</clustering>
</event>
<event>
 9    2  0.6190160E-005  0.1322321E+03  0.7546771E-02  0.1248836E+00
          4   -1    0    0  502    0 -0.00000000000E+00  0.00000000000E+00  0.28198644137E+03  0.28198644137E+03  0.00000000000E+00 0. -1.
         21   -1    0    0  501  502  0.00000000000E+00 -0.00000000000E+00 -0.14191177560E+03  0.14191177560E+03  0.00000000000E+00 0.  1.
         24    2    1    2    0    0 -0.32793835734E+01  0.75128902316E+01 -0.42843913814E+02  0.90669393168E+02  0.79486728643E+02 0.  0.
         23    2    1    2    0    0  0.73679796712E+02 -0.70271185158E+02  0.19490893313E+03  0.23815732265E+03  0.91447614581E+02 0.  0.
        -11    1    3    3    0    0 -0.24100827373E+02 -0.26265943101E+02 -0.35511419032E+02  0.50317099764E+02  0.00000000000E+00 0.  1.
         12    1    3    3    0    0  0.20821443800E+02  0.33778833333E+02 -0.73324947829E+01  0.40352293404E+02  0.00000000000E+00 0. -1.
        -13    1    4    4    0    0  0.53449027292E+00 -0.61818663943E+02  0.10607021432E+03  0.12277101961E+03  0.00000000000E+00 0.  1.
         13    1    4    4    0    0  0.73145306440E+02 -0.84525212150E+01  0.88838718812E+02  0.11538630304E+03  0.00000000000E+00 0. -1.
          3    1    1    2  501    0 -0.70400413139E+02  0.62758294927E+02 -0.11990353551E+02  0.95071501148E+02  0.00000000000E+00 0. -1.
<scales pt_clust_5="13000.00000" pt_clust_6="13000.00000" pt_clust_7="13000.00000" pt_clust_8="13000.00000" pt_clust_9="95.51269"></scales>
<clustering>
<clus scale="   79.487">  5  6 -1 -1</clus>
<clus scale="   79.908">  1  5  2 -1</clus>
<clus scale="   91.448">  7  8 -1 -1</clus>
<clus scale="   95.513">  2  9  1 -1</clus>
<clus scale="   95.513">  2  5  1 -1</clus>
</clustering>
</event>
<event>
 9    2  0.6190160E-005  0.1709989E+03  0.7546771E-02  0.1184536E+00
         -1   -1    0    0    0  501 -0.00000000000E+00  0.00000000000E+00  0.58568691328E+03  0.58568691328E+03  0.00000000000E+00 0.  1.
         21   -1    0    0  501  502  0.00000000000E+00 -0.00000000000E+00 -0.12209495380E+03  0.12209495380E+03  0.00000000000E+00 0.  1.
         24    2    1    2    0    0 -0.85352945997E+02  0.89240326577E+02  0.20339101757E+03  0.25091117664E+03  0.79621299030E+02 0.  0.
         23    2    1    2    0    0  0.12873907395E+03 -0.14055814867E+02 -0.47525924207E+01  0.17805992620E+03  0.12211238714E+03 0.  0.
        -13    1    3    3    0    0 -0.81111987522E+02  0.29190430798E+02  0.10918936374E+03  0.13911704756E+03  0.00000000000E+00 0.  1.
         14    1    3    3    0    0 -0.42409584753E+01  0.60049895779E+02  0.94201653832E+02  0.11179412908E+03  0.00000000000E+00 0. -1.
        -11    1    4    4    0    0  0.14305749914E+03  0.13662507736E+02 -0.16651057352E+02  0.14466986517E+03  0.00000000000E+00 0.  1.
         11    1    4    4    0    0 -0.14318425193E+02 -0.27718322604E+02  0.11898464932E+02  0.33390061032E+02  0.00000000000E+00 0. -1.
         -2    1    1    2    0  502 -0.43386127949E+02 -0.75184511710E+02  0.26495353433E+03  0.27881076423E+03  0.00000000000E+00 0.  1.
<scales pt_clust_5="13000.00000" pt_clust_6="13000.00000" pt_clust_7="13000.00000" pt_clust_8="13000.00000" pt_clust_9="86.80481"></scales>
<clustering>
<clus scale="   79.621">  5  6 -1 -1</clus>
<clus scale="   86.805">  2  9  1 -1</clus>
<clus scale="  122.112">  7  8 -1 -1</clus>
<clus scale="  143.766">  1  5  2 -1</clus>
<clus scale="   86.805">  2  5  1 -1</clus>
</clustering>
</event>
<event>
 9    2  0.6190160E-005  0.1026485E+03  0.7546771E-02  0.1277854E+00
         21   -1    0    0  501  502  0.00000000000E+00  0.00000000000E+00  0.73695500437E+02  0.73695500437E+02  0.00000000000E+00 0. -1.
         -1   -1    0    0    0  501 -0.00000000000E+00 -0.00000000000E+00 -0.19248937069E+03  0.19248937069E+03  0.00000000000E+00 0.  1.
         23    2    1    2    0    0 -0.40016070785E+02  0.25808301317E+02 -0.90004578618E+02  0.13622955175E+03  0.90500343975E+02 0.  0.
         24    2    1    2    0    0  0.53677548238E+02 -0.35824964099E+01 -0.29280489909E+02  0.10386195537E+03  0.83879945265E+02 0.  0.
        -11    1    4    4    0    0  0.64806862685E+01  0.30024418122E+02 -0.33891435730E+02  0.45739418381E+02  0.00000000000E+00 0.  1.
         12    1    4    4    0    0  0.47196861969E+02 -0.33606914532E+02  0.46109458210E+01  0.58122536984E+02  0.00000000000E+00 0. -1.
        -11    1    3    3    0    0 -0.19529364158E+02  0.14405323583E+02 -0.10541498937E+03  0.10817222100E+03  0.00000000000E+00 0.  1.
         11    1    3    3    0    0 -0.20486706626E+02  0.11402977734E+02  0.15410410748E+02  0.28057330754E+02  0.00000000000E+00 0. -1.
         -2    1    1    2    0  502 -0.13661477453E+02 -0.22225804907E+02  0.49119827047E+00  0.26093364016E+02  0.00000000000E+00 0.  1.
<scales pt_clust_5="13000.00000" pt_clust_6="13000.00000" pt_clust_7="13000.00000" pt_clust_8="13000.00000" pt_clust_9="26.08874"></scales>
<clustering>
<clus scale="   26.089">  1  9  2 -1</clus>
<clus scale="   83.880">  5  6 -1 -1</clus>
<clus scale="   90.500">  7  8 -1 -1</clus>
<clus scale="   96.862">  1  5  2 -1</clus>
<clus scale="   26.089">  1  5  2 -1</clus>
</clustering>
</event>
<event>
 9    2  0.6190160E-005  0.1210453E+03  0.7546771E-02  0.1253056E+00
         21   -1    0    0  501  502  0.00000000000E+00  0.00000000000E+00  0.37444184108E+02  0.37444184108E+02  0.00000000000E+00 0. -1.
          2   -1    0    0  502    0 -0.00000000000E+00 -0.00000000000E+00 -0.75660776955E+03  0.75660776955E+03  0.00000000000E+00 0. -1.
         23    2    1    2    0    0  0.31365744323E+02  0.31735036962E+02 -0.56959175154E+03  0.58166335194E+03  0.10911722628E+03 0.  0.
         24    2    1    2    0    0 -0.54846326238E+02 -0.56368601993E+02 -0.13436699949E+03  0.17511478729E+03  0.80157091906E+02 0.  0.
        -11    1    4    4    0    0 -0.36526655830E+02 -0.11670894363E+02 -0.71122404781E+01  0.38999875974E+02  0.00000000000E+00 0.  1.
         12    1    4    4    0    0 -0.18319670408E+02 -0.44697707630E+02 -0.12725475901E+03  0.13611491131E+03  0.00000000000E+00 0. -1.
        -11    1    3    3    0    0 -0.84569112470E+01  0.65093415397E+02 -0.29723452746E+03  0.30439618327E+03  0.00000000000E+00 0. -1.
         11    1    3    3    0    0  0.39822655570E+02 -0.33358378435E+02 -0.27235722408E+03  0.27726716866E+03  0.00000000000E+00 0.  1.
          1    1    1    2  501    0  0.23480581915E+02  0.24633565031E+02 -0.15204834413E+02  0.37273814437E+02  0.00000000000E+00 0. -1.
<scales pt_clust_5="13000.00000" pt_clust_6="13000.00000" pt_clust_7="13000.00000" pt_clust_8="13000.00000" pt_clust_9="34.03161"></scales>
<clustering>
<clus scale="   34.032">  1  9  2 -1</clus>
<clus scale="   80.157">  5  6 -1 -1</clus>
<clus scale="   95.763">  1  5  2 -1</clus>
<clus scale="  109.117">  7  8 -1 -1</clus>
<clus scale="   34.032">  1  5  2 -1</clus>
</clustering>
</event>
<event>
 9    2  0.6190160E-005  0.1122448E+03  0.7546771E-02  0.1262129E+00
          2   -1    0    0  502    0 -0.00000000000E+00  0.00000000000E+00  0.13001949503E+03  0.13001949503E+03  0.00000000000E+00 0. -1.
         21   -1    0    0  501  502  0.00000000000E+00 -0.00000000000E+00 -0.26724480245E+03  0.26724480245E+03  0.00000000000E+00 0. -1.
         24    2    1    2    0    0  0.55207014537E+02 -0.47512243778E+02  0.50283041446E+02  0.11754916221E+03  0.77357569229E+02 0.  0.
         23    2    1    2    0    0 -0.33126084985E+02  0.35408674761E+02 -0.14842037130E+02  0.10522238745E+03  0.92197358958E+02 0.  0.
        -11    1    3    3    0    0  0.28767426311E+02 -0.50791576764E+02 -0.24972099603E+01  0.58425894467E+02  0.00000000000E+00 0.  1.
         12    1    3    3    0    0  0.26439588227E+02  0.32793329862E+01  0.52780251406E+02  0.59123267746E+02  0.00000000000E+00 0. -1.
        -13    1    4    4    0    0  0.22780116091E+02 -0.67899889665E+01  0.16035942333E+02  0.28673839746E+02  0.00000000000E+00 0. -1.
         13    1    4    4    0    0 -0.55906201077E+02  0.42198663728E+02 -0.30877979463E+02  0.76548547700E+02  0.00000000000E+00 0.  1.
          1    1    1    2  501    0 -0.22080929552E+02  0.12103569016E+02 -0.17266631174E+03  0.17449274782E+03  0.00000000000E+00 0. -1.
<scales pt_clust_5="13000.00000" pt_clust_6="13000.00000" pt_clust_7="13000.00000" pt_clust_8="13000.00000" pt_clust_9="25.18062"></scales>
<clustering>
<clus scale="   25.181">  2  9  1 -1</clus>
<clus scale="   77.358">  5  6 -1 -1</clus>
<clus scale="   92.197">  7  8 -1 -1</clus>
<clus scale="  100.413">  1  5  2 -1</clus>
<clus scale="   25.181">  2  5  1 -1</clus>
</clustering>
</event>
<event>
 9    2  0.6190160E-005  0.3283503E+03  0.7546771E-02  0.1071877E+00
          2   -1    0    0  502    0 -0.00000000000E+00  0.00000000000E+00  0.96625387532E+03  0.96625387532E+03  0.00000000000E+00 0. -1.
         21   -1    0    0  501  502  0.00000000000E+00 -0.00000000000E+00 -0.22826697987E+03  0.22826697987E+03  0.00000000000E+00 0. -1.
         23    2    1    2    0    0  0.23385454738E+03  0.31706223677E+02  0.20081436452E+03  0.32288019178E+03  0.90730233638E+02 0.  0.
         24    2    1    2    0    0 -0.39394546679E+03 -0.10557518707E+03  0.55467218413E+03  0.69446288802E+03  0.90985273832E+02 0.  0.
        -11    1    4    4    0    0 -0.51995604297E+02 -0.42450969339E+02  0.61566276715E+02  0.91082567446E+02  0.00000000000E+00 0.  1.
         12    1    4    4    0    0 -0.34194986249E+03 -0.63124217733E+02  0.49310590742E+03  0.60338032057E+03  0.00000000000E+00 0. -1.
        -11    1    3    3    0    0  0.10629027415E+03 -0.30684314462E+02  0.81597574149E+02  0.13746750030E+03  0.00000000000E+00 0. -1.
         11    1    3    3    0    0  0.12756427323E+03  0.62390538139E+02  0.11921679037E+03  0.18541269148E+03  0.00000000000E+00 0.  1.
          1    1    1    2  501    0  0.16009091941E+03  0.73868963395E+02 -0.17499653205E+02  0.17717777539E+03  0.00000000000E+00 0. -1.
<scales pt_clust_5="13000.00000" pt_clust_6="13000.00000" pt_clust_7="13000.00000" pt_clust_8="13000.00000" pt_clust_9="176.31145"></scales>
<clustering>
<clus scale="   90.730">  7  8 -1 -1</clus>
<clus scale="   90.985">  5  6 -1 -1</clus>
<clus scale="  176.311">  2  9  1 -1</clus>
<clus scale="  328.280">  1  7  2 -1</clus>
<clus scale="  176.311">  2  5  1 -1</clus>
</clustering>
</event>
<event>
 9    2  0.6190160E-005  0.9064123E+02  0.7546771E-02  0.1303139E+00
         21   -1    0    0  501  502  0.00000000000E+00  0.00000000000E+00  0.21400938089E+03  0.21400938089E+03  0.00000000000E+00 0.  1.
          2   -1    0    0  502    0 -0.00000000000E+00 -0.00000000000E+00 -0.11820552309E+03  0.11820552309E+03  0.00000000000E+00 0. -1.
         24    2    1    2    0    0 -0.87028415857E+00 -0.11155460517E+02 -0.73762867730E+02  0.11442716119E+03  0.86760664290E+02 0.  0.
         23    2    1    2    0    0  0.24305697551E+02  0.12329237642E+02  0.74347164420E+02  0.11971959724E+03  0.89791447649E+02 0.  0.
        -11    1    3    3    0    0 -0.33059260903E+02  0.10097438572E+01 -0.46527607447E-01  0.33074710565E+02  0.00000000000E+00 0.  1.
         12    1    3    3    0    0  0.32188976745E+02 -0.12165204374E+02 -0.73716340123E+02  0.81352450623E+02  0.00000000000E+00 0. -1.
        -11    1    4    4    0    0  0.35406094570E+02  0.43744481403E+02  0.28607926858E+02  0.63131487113E+02  0.00000000000E+00 0.  1.
         11    1    4    4    0    0 -0.11100397019E+02 -0.31415243762E+02  0.45739237562E+02  0.56588110123E+02  0.00000000000E+00 0. -1.
          1    1    1    2  501    0 -0.23435413392E+02 -0.11737771246E+01  0.95219561110E+02  0.98068145549E+02  0.00000000000E+00 0. -1.
<scales pt_clust_5="13000.00000" pt_clust_6="13000.00000" pt_clust_7="13000.00000" pt_clust_8="13000.00000" pt_clust_9="23.46479"></scales>
<clustering>
<clus scale="   23.465">  1  9  2 -1</clus>
<clus scale="   86.761">  5  6 -1 -1</clus>
<clus scale="   87.640">  2  5  1 -1</clus>
<clus scale="   89.791">  7  8 -1 -1</clus>
<clus scale="   23.465">  1  5  2 -1</clus>
</clustering>
</event>
<event>
 9    2  0.6190160E-005  0.9874176E+02  0.7546771E-02  0.1287663E+00
          2   -1    0    0  502    0 -0.00000000000E+00  0.00000000000E+00  0.10715602860E+04  0.10715602860E+04  0.00000000000E+00 0. -1.
         21   -1    0    0  501  502  0.00000000000E+00 -0.00000000000E+00 -0.20215492411E+02  0.20215492411E+02  0.00000000000E+00 0. -1.
         24    2    1    2    0    0  0.12625250322E+02  0.44524371758E+02  0.84908530879E+03  0.85408002098E+03  0.79780975280E+02 0.  0.
         23    2    1    2    0    0  0.42434331248E+01 -0.27429734045E+02  0.18760904735E+03  0.20956366834E+03  0.89159292321E+02 0.  0.
        -11    1    3    3    0    0  0.22959087665E+02 -0.24450629800E+01  0.74329633833E+02  0.77833106742E+02  0.00000000000E+00 0.  1.
         12    1    3    3    0    0 -0.10333837342E+02  0.46969434738E+02  0.77475567495E+03  0.77624691424E+03  0.00000000000E+00 0. -1.
        -13    1    4    4    0    0  0.32536576220E+02  0.19178371335E+02  0.92858550683E+02  0.10024544456E+03  0.00000000000E+00 0. -1.
         13    1    4    4    0    0 -0.28293143095E+02 -0.46608105380E+02  0.94750496664E+02  0.10931822378E+03  0.00000000000E+00 0.  1.
          1    1    1    2  501    0 -0.16868683447E+02 -0.17094637713E+02  0.14650437487E+02  0.28132089121E+02  0.00000000000E+00 0. -1.
<scales pt_clust_5="13000.00000" pt_clust_6="13000.00000" pt_clust_7="13000.00000" pt_clust_8="13000.00000" pt_clust_9="24.01623"></scales>
<clustering>
<clus scale="   24.016">  2  9  1 -1</clus>
<clus scale="   79.781">  5  6 -1 -1</clus>
<clus scale="   89.159">  7  8 -1 -1</clus>
<clus scale="   90.363">  1  5  2 -1</clus>
<clus scale="   24.016">  2  5  1 -1</clus>
</clustering>
</event>
<event>
 9    2  0.6190160E-005  0.2675397E+03  0.7546771E-02  0.1132253E+00
          2   -1    0    0  502    0 -0.00000000000E+00  0.00000000000E+00  0.47866535520E+03  0.47866535520E+03  0.00000000000E+00 0. -1.
         21   -1    0    0  501  502  0.00000000000E+00 -0.00000000000E+00 -0.31060830654E+03  0.31060830654E+03  0.00000000000E+00 0. -1.
         23    2    1    2    0    0 -0.66141587500E+02 -0.59540115885E+02  0.55613668757E+02  0.13891361193E+03  0.91018549921E+02 0.  0.
         24    2    1    2    0    0  0.20219628991E+03  0.25389633731E+03  0.20905617754E+03  0.39419749298E+03  0.79627183512E+02 0.  0.
        -11    1    4    4    0    0  0.42517383523E+02  0.16637112179E+02  0.13040830607E+02  0.47482466934E+02  0.00000000000E+00 0.  1.
         12    1    4    4    0    0  0.15967890639E+03  0.23725922513E+03  0.19601534693E+03  0.34671502605E+03  0.00000000000E+00 0. -1.
        -13    1    3    3    0    0 -0.48068722424E+02  0.13720328531E+02  0.33884632610E+02  0.60390544107E+02  0.00000000000E+00 0.  1.
         13    1    3    3    0    0 -0.18072865076E+02 -0.73260444416E+02  0.21729036147E+02  0.78523067821E+02  0.00000000000E+00 0. -1.
          1    1    1    2  501    0 -0.13605470241E+03 -0.19435622142E+03 -0.96612797639E+02  0.25616255683E+03  0.00000000000E+00 0. -1.
<scales pt_clust_5="13000.00000" pt_clust_6="13000.00000" pt_clust_7="13000.00000" pt_clust_8="13000.00000" pt_clust_9="255.41536"></scales>
<clustering>
<clus scale="   79.627">  5  6 -1 -1</clus>
<clus scale="   91.019">  7  8 -1 -1</clus>
<clus scale="  127.295">  1  7  2 -1</clus>
<clus scale="  255.415">  2  9  1 -1</clus>
<clus scale="  255.415">  2  5  1 -1</clus>
</clustering>
</event>
<event>
 9    2  0.6190160E-005  0.1129615E+03  0.7546771E-02  0.1267833E+00
          2   -1    0    0  502    0 -0.00000000000E+00  0.00000000000E+00  0.68834803080E+03  0.68834803080E+03  0.00000000000E+00 0. -1.
         21   -1    0    0  501  502  0.00000000000E+00 -0.00000000000E+00 -0.45343934856E+02  0.45343934856E+02  0.00000000000E+00 0.  1.
         24    2    1    2    0    0  0.15519322821E+02 -0.23509784539E+02  0.52490279085E+03  0.53205058414E+03  0.82227275802E+02 0.  0.
         23    2    1    2    0    0 -0.21593687182E+02  0.59874376376E+02  0.99636920742E+02  0.16040771892E+03  0.10840614393E+03 0.  0.
        -13    1    3    3    0    0  0.13165444708E+02 -0.36870945480E+02  0.10716675985E+03  0.11409430298E+03  0.00000000000E+00 0.  1.
         14    1    3    3    0    0  0.23538781131E+01  0.13361160941E+02  0.41773603100E+03  0.41795628116E+03  0.00000000000E+00 0. -1.
        -13    1    4    4    0    0  0.27128541685E+02 -0.98492732762E+01 -0.69771225338E+00  0.28869581923E+02  0.00000000000E+00 0. -1.
         13    1    4    4    0    0 -0.48722228867E+02  0.69723649653E+02  0.10033463300E+03  0.13153813700E+03  0.00000000000E+00 0.  1.
          1    1    1    2  501    0  0.60743643615E+01 -0.36364591837E+02  0.18464384350E+02  0.41233662599E+02  0.00000000000E+00 0. -1.
<scales pt_clust_5="13000.00000" pt_clust_6="13000.00000" pt_clust_7="13000.00000" pt_clust_8="13000.00000" pt_clust_9="36.86843"></scales>
<clustering>
<clus scale="   36.868">  2  9  1 -1</clus>
<clus scale="   82.227">  5  6 -1 -1</clus>
<clus scale="   88.146">  1  5  2 -1</clus>
<clus scale="  108.406">  7  8 -1 -1</clus>
<clus scale="   36.868">  2  5  1 -1</clus>
</clustering>
</event>
<event>
 9    2  0.6190160E-005  0.2413010E+03  0.7546771E-02  0.1137353E+00
         21   -1    0    0  501  502  0.00000000000E+00  0.00000000000E+00  0.11822004207E+03  0.11822004207E+03  0.00000000000E+00 0.  1.
          2   -1    0    0  502    0 -0.00000000000E+00 -0.00000000000E+00 -0.13224638563E+04  0.13224638563E+04  0.00000000000E+00 0. -1.
         23    2    1    2    0    0  0.11754241061E+03  0.31826423309E+02 -0.53243925447E+03  0.55405270512E+03  0.93025269881E+02 0.  0.
         24    2    1    2    0    0 -0.10753491537E+03 -0.22147219699E+03 -0.87723986548E+02  0.27245224095E+03  0.76948253512E+02 0.  0.
        -13    1    4    4    0    0 -0.67173059136E+02 -0.95042667257E+02 -0.58873279531E+01  0.11653321030E+03  0.00000000000E+00 0.  1.
         14    1    4    4    0    0 -0.40361856229E+02 -0.12642952974E+03 -0.81836658595E+02  0.15591903065E+03  0.00000000000E+00 0. -1.
        -13    1    3    3    0    0  0.64174717970E+02  0.63499141416E+02 -0.28545655218E+03  0.29939268290E+03  0.00000000000E+00 0.  1.
         13    1    3    3    0    0  0.53367692643E+02 -0.31672718107E+02 -0.24698270229E+03  0.25466002222E+03  0.00000000000E+00 0. -1.
          1    1    1    2  501    0 -0.10007495248E+02  0.18964577368E+03 -0.58408057321E+03  0.61417895229E+03  0.00000000000E+00 0. -1.
<scales pt_clust_5="13000.00000" pt_clust_6="13000.00000" pt_clust_7="13000.00000" pt_clust_8="13000.00000" pt_clust_9="228.70333"></scales>
<clustering>
<clus scale="   76.948">  5  6 -1 -1</clus>
<clus scale="   93.025">  7  8 -1 -1</clus>
<clus scale="  153.241">  2  7  1 -1</clus>
<clus scale="  228.703">  1  9  2 -1</clus>
<clus scale="  228.703">  1  5  2 -1</clus>
</clustering>
</event>
<event>
 9    2  0.6190160E-005  0.1784741E+03  0.7546771E-02  0.1171017E+00
         21   -1    0    0  501  502  0.00000000000E+00  0.00000000000E+00  0.46147659875E+02  0.46147659875E+02  0.00000000000E+00 0.  1.
         -1   -1    0    0    0  501 -0.00000000000E+00 -0.00000000000E+00 -0.10149112485E+04  0.10149112485E+04  0.00000000000E+00 0.  1.
         23    2    1    2    0    0  0.18017685039E+03 -0.23323249780E+02 -0.52926427445E+03  0.56685431964E+03  0.90528868805E+02 0.  0.
         24    2    1    2    0    0 -0.11459250362E+03  0.57963302342E+02 -0.25649229560E+03  0.29673862045E+03  0.75988978551E+02 0.  0.
        -11    1    4    4    0    0 -0.11821575423E+03  0.69075005565E+02 -0.22813857169E+03  0.26607053357E+03  0.00000000000E+00 0.  1.
         12    1    4    4    0    0  0.36232506066E+01 -0.11111703223E+02 -0.28353723906E+02  0.30668086879E+02  0.00000000000E+00 0. -1.
        -11    1    3    3    0    0  0.44300314135E+02  0.23515222863E+02 -0.73623611555E+02  0.89083779203E+02  0.00000000000E+00 0. -1.
         11    1    3    3    0    0  0.13587653625E+03 -0.46838472643E+02 -0.45564066290E+03  0.47777054044E+03  0.00000000000E+00 0.  1.
         -2    1    1    2    0  502 -0.65584346770E+02 -0.34640052561E+02 -0.18300701857E+03  0.19746596828E+03  0.00000000000E+00 0.  1.
<scales pt_clust_5="13000.00000" pt_clust_6="13000.00000" pt_clust_7="13000.00000" pt_clust_8="13000.00000" pt_clust_9="74.17038"></scales>
<clustering>
<clus scale="   74.170">  1  9  2 -1</clus>
<clus scale="   75.989">  5  6 -1 -1</clus>
<clus scale="   90.529">  7  8 -1 -1</clus>
<clus scale="  171.557">  1  5  2 -1</clus>
<clus scale="   74.170">  1  5  2 -1</clus>
</clustering>
</event>
<event>
 9    2  0.6190160E-005  0.2264004E+03  0.7546771E-02  0.1132787E+00
         21   -1    0    0  501  502  0.00000000000E+00  0.00000000000E+00  0.16484666107E+03  0.16484666107E+03  0.00000000000E+00 0.  1.
         -3   -1    0    0    0  501 -0.00000000000E+00 -0.00000000000E+00 -0.83173724494E+03  0.83173724494E+03  0.00000000000E+00 0.  1.
         23    2    1    2    0    0  0.11299261376E+03 -0.16467982303E+03 -0.62048234025E+03  0.66250216193E+03  0.11842299237E+03 0.  0.
         24    2    1    2    0    0 -0.82893705011E+02  0.15731835740E+03 -0.13790864978E+03  0.23747708680E+03  0.75869224093E+02 0.  0.
        -11    1    4    4    0    0  0.10408556294E+02  0.24034558124E+02 -0.34640032462E+01  0.26419639416E+02  0.00000000000E+00 0.  1.
         12    1    4    4    0    0 -0.93302261305E+02  0.13328379927E+03 -0.13444464653E+03  0.21105744738E+03  0.00000000000E+00 0. -1.
        -11    1    3    3    0    0  0.48458367235E+01 -0.81208714367E+02 -0.35179243206E+03  0.36107651915E+03  0.00000000000E+00 0.  1.
         11    1    3    3    0    0  0.10814677704E+03 -0.83471108660E+02 -0.26868990818E+03  0.30142564278E+03  0.00000000000E+00 0. -1.
         -4    1    1    2    0  502 -0.30098908753E+02  0.73614656288E+01  0.91500406155E+02  0.96604657294E+02  0.00000000000E+00 0.  1.
<scales pt_clust_5="13000.00000" pt_clust_6="13000.00000" pt_clust_7="13000.00000" pt_clust_8="13000.00000" pt_clust_9="30.98605"></scales>
<clustering>
<clus scale="   30.986">  1  9  2 -1</clus>
<clus scale="   75.869">  5  6 -1 -1</clus>
<clus scale="  118.423">  7  8 -1 -1</clus>
<clus scale="  207.339">  1  5  2 -1</clus>
<clus scale="   30.986">  1  5  2 -1</clus>
</clustering>
</event>
<event>
 9    2  0.8420299E-005  0.9726483E+02  0.7546771E-02  0.1292493E+00
          2   -1    0    0  502    0 -0.00000000000E+00  0.00000000000E+00  0.89282920866E+03  0.89282920866E+03  0.00000000000E+00 0. -1.
         21   -1    0    0  501  502  0.00000000000E+00 -0.00000000000E+00 -0.32150895617E+02  0.32150895617E+02  0.00000000000E+00 0. -1.
         24    2    1    2    0    0 -0.33699882420E+02 -0.22748674676E+01  0.74889080348E+03  0.75395898011E+03  0.80472672773E+02 0.  0.
         23    2    1    2    0    0  0.11000719561E+02  0.22150700511E+02  0.10123403737E+03  0.13905744933E+03  0.92070486730E+02 0.  0.
        -11    1    3    3    0    0  0.22080221102E+02  0.12667387621E+02  0.13664508963E+03  0.13899596898E+03  0.00000000000E+00 0.  1.
         12    1    3    3    0    0 -0.55780103522E+02 -0.14942255089E+02  0.61224571385E+03  0.61496301113E+03  0.00000000000E+00 0. -1.
        -11    1    4    4    0    0  0.47699721227E+02  0.23421433724E+02  0.35960441934E+02  0.64163699604E+02  0.00000000000E+00 0.  1.
         11    1    4    4    0    0 -0.36699001666E+02 -0.12707332128E+01  0.65273595438E+02  0.74893749723E+02  0.00000000000E+00 0. -1.
          1    1    1    2  501    0  0.22699162859E+02 -0.19875833044E+02  0.10553472193E+02  0.31963674836E+02  0.00000000000E+00 0. -1.
<scales pt_clust_5="13000.00000" pt_clust_6="13000.00000" pt_clust_7="13000.00000" pt_clust_8="13000.00000" pt_clust_9="30.17119"></scales>
<clustering>
<clus scale="   30.171">  2  9  1 -1</clus>
<clus scale="   80.473">  5  6 -1 -1</clus>
<clus scale="   86.367">  1  5  2 -1</clus>
<clus scale="   92.070">  7  8 -1 -1</clus>
<clus scale="   30.171">  2  5  1 -1</clus>
</clustering>
</event>
<event>
 9    2  0.6190160E-005  0.2285459E+03  0.7546771E-02  0.1128479E+00
         21   -1    0    0  501  502  0.00000000000E+00  0.00000000000E+00  0.36060719678E+03  0.36060719678E+03  0.00000000000E+00 0. -1.
          2   -1    0    0  502    0 -0.00000000000E+00 -0.00000000000E+00 -0.34806410616E+03  0.34806410616E+03  0.00000000000E+00 0. -1.
         23    2    1    2    0    0  0.13052089441E+03  0.17542847111E+03 -0.23191012635E+03  0.33145489587E+03  0.90935080883E+02 0.  0.
         24    2    1    2    0    0 -0.42014268422E+02 -0.17652479516E+03  0.18255310617E+03  0.26920599791E+03  0.78867171115E+02 0.  0.
        -11    1    4    4    0    0 -0.21896340497E+02 -0.51880917416E+02  0.12974620794E+02  0.57787715856E+02  0.00000000000E+00 0.  1.
         12    1    4    4    0    0 -0.20117927925E+02 -0.12464387774E+03  0.16957848538E+03  0.21141828205E+03  0.00000000000E+00 0. -1.
        -13    1    3    3    0    0  0.39740682938E+02  0.62177607194E+02 -0.23424802308E+02  0.77421560821E+02  0.00000000000E+00 0.  1.
         13    1    3    3    0    0  0.90780211472E+02  0.11325086392E+03 -0.20848532404E+03  0.25403333504E+03  0.00000000000E+00 0. -1.
          1    1    1    2  501    0 -0.88506625988E+02  0.10963240455E+01  0.61900110800E+02  0.10801040916E+03  0.00000000000E+00 0. -1.
<scales pt_clust_5="13000.00000" pt_clust_6="13000.00000" pt_clust_7="13000.00000" pt_clust_8="13000.00000" pt_clust_9="88.51342"></scales>
<clustering>
<clus scale="   78.867">  5  6 -1 -1</clus>
<clus scale="   88.513">  1  9  2 -1</clus>
<clus scale="   90.935">  7  8 -1 -1</clus>
<clus scale="  224.018">  1  5  2 -1</clus>
<clus scale="   88.513">  1  5  2 -1</clus>
</clustering>
</event>
<event>
 9    2  0.6190160E-005  0.2480572E+03  0.7546771E-02  0.1136366E+00
         21   -1    0    0  501  502  0.00000000000E+00  0.00000000000E+00  0.67866011111E+03  0.67866011111E+03  0.00000000000E+00 0.  1.
         -3   -1    0    0    0  501 -0.00000000000E+00 -0.00000000000E+00 -0.32252069980E+03  0.32252069980E+03  0.00000000000E+00 0.  1.
         24    2    1    2    0    0  0.11696579783E+03  0.21050691030E+02 -0.85788998480E+02  0.16802606717E+03  0.82151552229E+02 0.  0.
         23    2    1    2    0    0 -0.73427386300E+02 -0.22565654898E+03  0.54364202417E+03  0.60055033764E+03  0.93816834521E+02 0.  0.
        -11    1    3    3    0    0  0.10399897732E+03 -0.15941476254E+02 -0.60291523263E+02  0.12126411558E+03  0.00000000000E+00 0.  1.
         12    1    3    3    0    0  0.12966820509E+02  0.36992167284E+02 -0.25497475217E+02  0.46761951594E+02  0.00000000000E+00 0. -1.
        -13    1    4    4    0    0 -0.19947995453E+02 -0.17933285800E+03  0.43455489771E+03  0.47052752906E+03  0.00000000000E+00 0.  1.
         13    1    4    4    0    0 -0.53479390847E+02 -0.46323690984E+02  0.10908712646E+03  0.13002280858E+03  0.00000000000E+00 0. -1.
         -4    1    1    2    0  502 -0.43538411531E+02  0.20460585795E+03 -0.10171361438E+03  0.23260440610E+03  0.00000000000E+00 0.  1.
<scales pt_clust_5="13000.00000" pt_clust_6="13000.00000" pt_clust_7="13000.00000" pt_clust_8="13000.00000" pt_clust_9="229.63194"></scales>
<clustering>
<clus scale="   82.152">  5  6 -1 -1</clus>
<clus scale="   93.817">  7  8 -1 -1</clus>
<clus scale="  144.475">  2  5  1 -1</clus>
<clus scale="  229.632">  1  9  2 -1</clus>
<clus scale="  229.632">  1  5  2 -1</clus>
</clustering>
</event>
<event>
 9    2  0.6190160E-005  0.1078309E+03  0.7546771E-02  0.1273595E+00
         21   -1    0    0  501  502  0.00000000000E+00  0.00000000000E+00  0.46720358646E+02  0.46720358646E+02  0.00000000000E+00 0. -1.
         -1   -1    0    0    0  501 -0.00000000000E+00 -0.00000000000E+00 -0.61176407092E+03  0.61176407092E+03  0.00000000000E+00 0.  1.
         23    2    1    2    0    0  0.10964994661E+02 -0.60813991744E+02 -0.47397269519E+03  0.48685104554E+03  0.92494605546E+02 0.  0.
         24    2    1    2    0    0 -0.46659741569E+02  0.23948836675E+02 -0.79024339822E+02  0.11892402008E+03  0.71745369234E+02 0.  0.
        -11    1    4    4    0    0 -0.47127151267E+02 -0.12806577416E+02 -0.60532640741E+02  0.77776457921E+02  0.00000000000E+00 0.  1.
         12    1    4    4    0    0  0.46740969758E+00  0.36755414091E+02 -0.18491699081E+02  0.41147562160E+02  0.00000000000E+00 0. -1.
        -13    1    3    3    0    0 -0.40690303665E+02 -0.24148881057E+02 -0.17853520139E+03  0.18469891014E+03  0.00000000000E+00 0. -1.
         13    1    3    3    0    0  0.51655298326E+02 -0.36665110688E+02 -0.29543749379E+03  0.30215213540E+03  0.00000000000E+00 0.  1.
         -2    1    1    2    0  502  0.35694746908E+02  0.36865155070E+02 -0.12046677267E+02  0.52709363953E+02  0.00000000000E+00 0.  1.
<scales pt_clust_5="13000.00000" pt_clust_6="13000.00000" pt_clust_7="13000.00000" pt_clust_8="13000.00000" pt_clust_9="51.31427"></scales>
<clustering>
<clus scale="   51.314">  1  9  2 -1</clus>
<clus scale="   71.745">  5  6 -1 -1</clus>
<clus scale="   90.662">  1  5  2 -1</clus>
<clus scale="   92.495">  7  8 -1 -1</clus>
<clus scale="   51.314">  1  5  2 -1</clus>
</clustering>
</event>
<event>
 9    2  0.6190160E-005  0.1076317E+03  0.7546771E-02  0.1268493E+00
          2   -1    0    0  502    0 -0.00000000000E+00  0.00000000000E+00  0.99057920291E+03  0.99057920291E+03  0.00000000000E+00 0. -1.
         21   -1    0    0  501  502  0.00000000000E+00 -0.00000000000E+00 -0.24375510043E+02  0.24375510043E+02  0.00000000000E+00 0. -1.
         24    2    1    2    0    0 -0.67863239724E+01  0.56078309208E+02  0.68579469210E+03  0.69314869454E+03  0.83366192705E+02 0.  0.
         23    2    1    2    0    0 -0.24345612139E+02 -0.56990158611E+02  0.26471814649E+03  0.28693150302E+03  0.91724605946E+02 0.  0.
        -13    1    3    3    0    0 -0.84522524198E+01  0.42666250957E+02  0.12796042667E+03  0.13515073191E+03  0.00000000000E+00 0.  1.
         14    1    3    3    0    0  0.16659284473E+01  0.13412058251E+02  0.55783426542E+03  0.55799796264E+03  0.00000000000E+00 0. -1.
        -13    1    4    4    0    0  0.18716740808E+02 -0.57002380204E+02  0.99456149507E+02  0.11615125230E+03  0.00000000000E+00 0.  1.
         13    1    4    4    0    0 -0.43062352947E+02  0.12221592281E-01  0.16526199698E+03  0.17078025073E+03  0.00000000000E+00 0. -1.
          1    1    1    2  501    0  0.31131936112E+02  0.91184940343E+00  0.15690854283E+02  0.34874515388E+02  0.00000000000E+00 0. -1.
<scales pt_clust_5="13000.00000" pt_clust_6="13000.00000" pt_clust_7="13000.00000" pt_clust_8="13000.00000" pt_clust_9="31.14529"></scales>
<clustering>
<clus scale="   31.145">  2  9  1 -1</clus>
<clus scale="   83.366">  5  6 -1 -1</clus>
<clus scale="   91.725">  7  8 -1 -1</clus>
<clus scale="  100.604">  1  5  2 -1</clus>
<clus scale="   31.145">  2  5  1 -1</clus>
</clustering>
</event>
<event>
 9    2  0.6190160E-005  0.1205520E+03  0.7546771E-02  0.1249735E+00
         -1   -1    0    0    0  501 -0.00000000000E+00  0.00000000000E+00  0.14623739273E+03  0.14623739273E+03  0.00000000000E+00 0.  1.
         21   -1    0    0  501  502  0.00000000000E+00 -0.00000000000E+00 -0.20917036516E+03  0.20917036516E+03  0.00000000000E+00 0.  1.
         24    2    1    2    0    0  0.73332156480E+02  0.62440131714E+02  0.66622242114E+01  0.11785716990E+03  0.67598461847E+02 0.  0.
         23    2    1    2    0    0 -0.76805165414E+02  0.38421510515E+02 -0.47876156398E+02  0.13431857080E+03  0.91510142633E+02 0.  0.
        -11    1    3    3    0    0  0.31765485209E+02 -0.74942212583E+01 -0.11308600283E+02  0.34541190530E+02  0.00000000000E+00 0.  1.
         12    1    3    3    0    0  0.41566671270E+02  0.69934352973E+02  0.17970824495E+02  0.83315979375E+02  0.00000000000E+00 0. -1.
        -13    1    4    4    0    0 -0.26462585152E+02  0.57834581614E+02 -0.22229113023E+01  0.63639991971E+02  0.00000000000E+00 0. -1.
         13    1    4    4    0    0 -0.50342580262E+02 -0.19413071099E+02 -0.45653245096E+02  0.70678578825E+02  0.00000000000E+00 0.  1.
         -2    1    1    2    0  502  0.34730089340E+01 -0.10086164223E+03 -0.21719040240E+02  0.10323201719E+03  0.00000000000E+00 0.  1.
<scales pt_clust_5="13000.00000" pt_clust_6="13000.00000" pt_clust_7="13000.00000" pt_clust_8="13000.00000" pt_clust_9="100.92142"></scales>
<clustering>
<clus scale="   67.598">  5  6 -1 -1</clus>
<clus scale="   91.510">  7  8 -1 -1</clus>
<clus scale="  100.921">  2  9  1 -1</clus>
<clus scale="  103.577">  1  5  2 -1</clus>
<clus scale="  100.921">  2  5  1 -1</clus>
</clustering>
</event>
<event>
 9    2  0.6190160E-005  0.1023286E+03  0.7546771E-02  0.1283287E+00
          2   -1    0    0  502    0 -0.00000000000E+00  0.00000000000E+00  0.73176093984E+03  0.73176093984E+03  0.00000000000E+00 0. -1.
         21   -1    0    0  501  502  0.00000000000E+00 -0.00000000000E+00 -0.25467949005E+02  0.25467949005E+02  0.00000000000E+00 0.  1.
         24    2    1    2    0    0  0.40677008035E+02 -0.26988658370E+02  0.52559796450E+03  0.53339257474E+03  0.76625138426E+02 0.  0.
         23    2    1    2    0    0 -0.30615483950E+02 -0.52464589125E+01  0.14389450326E+03  0.17389018761E+03  0.92559905415E+02 0.  0.
        -13    1    3    3    0    0 -0.14970191362E+01  0.24359763469E+02  0.14056376048E+03  0.14266677926E+03  0.00000000000E+00 0.  1.
         14    1    3    3    0    0  0.42174027171E+02 -0.51348421839E+02  0.38503420401E+03  0.39072579548E+03  0.00000000000E+00 0. -1.
        -11    1    4    4    0    0 -0.61192055475E+02 -0.90850936652E+01  0.67741843657E+02  0.91738563114E+02  0.00000000000E+00 0.  1.
         11    1    4    4    0    0  0.30576571525E+02  0.38386347526E+01  0.76152659601E+02  0.82151624495E+02  0.00000000000E+00 0. -1.
          1    1    1    2  501    0 -0.10061524084E+02  0.32235117282E+02  0.36800523080E+02  0.49946126497E+02  0.00000000000E+00 0. -1.
<scales pt_clust_5="13000.00000" pt_clust_6="13000.00000" pt_clust_7="13000.00000" pt_clust_8="13000.00000" pt_clust_9="33.76888"></scales>
<clustering>
<clus scale="   33.769">  2  9  1 -1</clus>
<clus scale="   76.625">  5  6 -1 -1</clus>
<clus scale="   88.177">  1  5  2 -1</clus>
<clus scale="   92.560">  7  8 -1 -1</clus>
<clus scale="   33.769">  2  5  1 -1</clus>
</clustering>
</event>
<event>
 9    2  0.6190160E-005  0.1922358E+03  0.7546771E-02  0.1183508E+00
         21   -1    0    0  501  502  0.00000000000E+00  0.00000000000E+00  0.10564485211E+03  0.10564485211E+03  0.00000000000E+00 0.  1.
          2   -1    0    0  502    0 -0.00000000000E+00 -0.00000000000E+00 -0.60872561781E+03  0.60872561781E+03  0.00000000000E+00 0. -1.
         24    2    1    2    0    0  0.48851625041E+02 -0.42971140320E+02 -0.15642762531E+03  0.18758899482E+03  0.80542093652E+02 0.  0.
         23    2    1    2    0    0  0.24010405319E+02 -0.14925060840E+03 -0.92483400473E+02  0.19988648761E+03  0.92461802364E+02 0.  0.
        -11    1    3    3    0    0  0.46990722801E+02 -0.58308512901E+02 -0.15491423876E+03  0.17206519717E+03  0.00000000000E+00 0.  1.
         12    1    3    3    0    0  0.18609022399E+01  0.15337372581E+02 -0.15133865498E+01  0.15523797657E+02  0.00000000000E+00 0. -1.
        -11    1    4    4    0    0 -0.16094561651E+02 -0.96697800493E+02 -0.16903604906E+02  0.99474777676E+02  0.00000000000E+00 0.  1.
         11    1    4    4    0    0  0.40104966970E+02 -0.52552807904E+02 -0.75579795567E+02  0.10041170994E+03  0.00000000000E+00 0. -1.
          1    1    1    2  501    0 -0.72862030360E+02  0.19222174872E+03 -0.25416973993E+03  0.32689498749E+03  0.00000000000E+00 0. -1.
<scales pt_clust_5="13000.00000" pt_clust_6="13000.00000" pt_clust_7="13000.00000" pt_clust_8="13000.00000" pt_clust_9="168.53920"></scales>
<clustering>
<clus scale="   80.542">  5  6 -1 -1</clus>
<clus scale="   92.462">  7  8 -1 -1</clus>
<clus scale="  103.538">  2  5  1 -1</clus>
<clus scale="  168.539">  1  9  2 -1</clus>
<clus scale="  168.539">  1  5  2 -1</clus>
</clustering>
</event>
<event>
 9    2  0.6190160E-005  0.1112611E+03  0.7546771E-02  0.1262176E+00
         -1   -1    0    0    0  501 -0.00000000000E+00  0.00000000000E+00  0.37667972334E+03  0.37667972334E+03  0.00000000000E+00 0.  1.
         21   -1    0    0  501  502  0.00000000000E+00 -0.00000000000E+00 -0.14790440487E+03  0.14790440487E+03  0.00000000000E+00 0.  1.
         23    2    1    2    0    0  0.72930503879E+02  0.17992796645E+02  0.30479226862E+03  0.32715837863E+03  0.92150304224E+02 0.  0.
         24    2    1    2    0    0 -0.10921086943E+02 -0.29440373645E+02  0.12562439408E+02  0.88694323287E+02  0.81993062872E+02 0.  0.
        -11    1    4    4    0    0  0.20752472509E+02 -0.18661402148E+02  0.37656902137E+02  0.46871690005E+02  0.00000000000E+00 0.  1.
         12    1    4    4    0    0 -0.31673559452E+02 -0.10778971496E+02 -0.25094462730E+02  0.41822633281E+02  0.00000000000E+00 0. -1.
        -13    1    3    3    0    0 -0.36105754454E+01 -0.25713864388E+02  0.36761600053E+02  0.45007269583E+02  0.00000000000E+00 0. -1.
         13    1    3    3    0    0  0.76541079325E+02  0.43706661033E+02  0.26803066857E+03  0.28215110905E+03  0.00000000000E+00 0.  1.
         -2    1    1    2    0  502 -0.62009416936E+02  0.11447577000E+02 -0.88579389566E+02  0.10873142629E+03  0.00000000000E+00 0.  1.
<scales pt_clust_5="13000.00000" pt_clust_6="13000.00000" pt_clust_7="13000.00000" pt_clust_8="13000.00000" pt_clust_9="63.05723"></scales>
<clustering>
<clus scale="   63.057">  2  9  1 -1</clus>
<clus scale="   81.993">  5  6 -1 -1</clus>
<clus scale="   92.150">  7  8 -1 -1</clus>
<clus scale="  103.006">  2  5  1 -1</clus>
<clus scale="   63.057">  2  5  1 -1</clus>
</clustering>
</event>
<event>
 9    2  0.6190160E-005  0.1027912E+03  0.7546771E-02  0.1280759E+00
          4   -1    0    0  502    0 -0.00000000000E+00  0.00000000000E+00  0.17413369429E+03  0.17413369429E+03  0.00000000000E+00 0. -1.
         21   -1    0    0  501  502  0.00000000000E+00 -0.00000000000E+00 -0.24420234033E+03  0.24420234033E+03  0.00000000000E+00 0.  1.
         23    2    1    2    0    0 -0.36111909753E+02  0.23569271442E+02  0.13483914244E+03  0.16875898694E+03  0.91860877182E+02 0.  0.
         24    2    1    2    0    0  0.62777009097E+02 -0.34070556323E+02 -0.12184284046E+03  0.16170731401E+03  0.78751647295E+02 0.  0.
        -11    1    4    4    0    0  0.18412005670E+02 -0.11431676882E+02 -0.10780175896E+03  0.10995864870E+03  0.00000000000E+00 0.  1.
         12    1    4    4    0    0  0.44365003427E+02 -0.22638879441E+02 -0.14041081507E+02  0.51748665310E+02  0.00000000000E+00 0. -1.
        -11    1    3    3    0    0  0.28009665691E+02  0.49149362166E+01  0.16500090182E+02  0.32877818452E+02  0.00000000000E+00 0.  1.
         11    1    3    3    0    0 -0.64121575444E+02  0.18654335226E+02  0.11833905226E+03  0.13588116849E+03  0.00000000000E+00 0. -1.
          3    1    1    2  501    0 -0.26665099344E+02  0.10501284881E+02 -0.83064948016E+02  0.87869733675E+02  0.00000000000E+00 0. -1.
<scales pt_clust_5="13000.00000" pt_clust_6="13000.00000" pt_clust_7="13000.00000" pt_clust_8="13000.00000" pt_clust_9="28.65841"></scales>
<clustering>
<clus scale="   28.658">  2  9  1 -1</clus>
<clus scale="   78.752">  5  6 -1 -1</clus>
<clus scale="   91.266">  2  5  1 -1</clus>
<clus scale="   91.861">  7  8 -1 -1</clus>
<clus scale="   28.658">  2  5  1 -1</clus>
</clustering>
</event>
<event>
 9    2  0.6190160E-005  0.9364380E+02  0.7546771E-02  0.1299866E+00
         21   -1    0    0  501  502  0.00000000000E+00  0.00000000000E+00  0.96279395703E+02  0.96279395703E+02  0.00000000000E+00 0.  1.
          2   -1    0    0  502    0 -0.00000000000E+00 -0.00000000000E+00 -0.70384291890E+03  0.70384291890E+03  0.00000000000E+00 0. -1.
         23    2    1    2    0    0 -0.18498866903E+02 -0.39017944031E+02 -0.21060429522E+02  0.10400912877E+03  0.92248301575E+02 0.  0.
         24    2    1    2    0    0 -0.43191015360E+02 -0.18594175704E+02  0.90025861982E+01  0.94655113579E+02  0.81653761643E+02 0.  0.
        -13    1    4    4    0    0 -0.50941809685E+02 -0.39310719159E+02  0.23167150139E+02  0.68389454307E+02  0.00000000000E+00 0.  1.
         14    1    4    4    0    0  0.77507943246E+01  0.20716543455E+02 -0.14164563941E+02  0.26265659273E+02  0.00000000000E+00 0. -1.
        -11    1    3    3    0    0  0.70739729095E+01  0.25347031540E+02 -0.22666262289E+02  0.34731434562E+02  0.00000000000E+00 0.  1.
         11    1    3    3    0    0 -0.25572839813E+02 -0.64364975571E+02  0.16058327667E+01  0.69277694211E+02  0.00000000000E+00 0. -1.
          1    1    1    2  501    0  0.61689882264E+02  0.57612119735E+02 -0.59550567988E+03  0.60145807226E+03  0.00000000000E+00 0. -1.
<scales pt_clust_5="13000.00000" pt_clust_6="13000.00000" pt_clust_7="13000.00000" pt_clust_8="13000.00000" pt_clust_9="84.40856"></scales>
<clustering>
<clus scale="   81.654">  5  6 -1 -1</clus>
<clus scale="   84.409">  1  9  2 -1</clus>
<clus scale="   84.409">  1  5  2 -1</clus>
<clus scale="   92.248">  7  8 -1 -1</clus>
<clus scale="   84.409">  1  5  2 -1</clus>
</clustering>
</event>
<event>
 9    2  0.6190160E-005  0.1140671E+03  0.7546771E-02  0.1256048E+00
         21   -1    0    0  501  502  0.00000000000E+00  0.00000000000E+00  0.38155472682E+02  0.38155472682E+02  0.00000000000E+00 0.  1.
         -1   -1    0    0    0  501 -0.00000000000E+00 -0.00000000000E+00 -0.81213037022E+03  0.81213037022E+03  0.00000000000E+00 0.  1.
         24    2    1    2    0    0 -0.64236637207E+02  0.21514821478E+02 -0.60646489425E+03  0.61611062437E+03  0.84872848394E+02 0.  0.
         23    2    1    2    0    0  0.43933933133E+02 -0.55662794727E+02 -0.15179044907E+03  0.19145065588E+03  0.92652447395E+02 0.  0.
        -11    1    3    3    0    0 -0.76311417482E+02  0.16560322231E+02 -0.32151070628E+03  0.33085768989E+03  0.00000000000E+00 0.  1.
         12    1    3    3    0    0  0.12074780275E+02  0.49544992468E+01 -0.28495418797E+03  0.28525293447E+03  0.00000000000E+00 0. -1.
        -11    1    4    4    0    0  0.72878956132E+02 -0.45842226704E+02 -0.11318447296E+03  0.14220962315E+03  0.00000000000E+00 0.  1.
         11    1    4    4    0    0 -0.28945022999E+02 -0.98205680224E+01 -0.38605976110E+02  0.49241032728E+02  0.00000000000E+00 0. -1.
         -2    1    1    2    0  502  0.20302704074E+02  0.34147973249E+02 -0.15719554212E+02  0.42724562658E+02  0.00000000000E+00 0.  1.
<scales pt_clust_5="13000.00000" pt_clust_6="13000.00000" pt_clust_7="13000.00000" pt_clust_8="13000.00000" pt_clust_9="39.72762"></scales>
<clustering>
<clus scale="   39.728">  1  9  2 -1</clus>
<clus scale="   84.873">  5  6 -1 -1</clus>
<clus scale="   92.652">  7  8 -1 -1</clus>
<clus scale="  107.843">  2  5  1 -1</clus>
<clus scale="   39.728">  1  5  2 -1</clus>
</clustering>
</event>
<event>
 9    2  0.6190160E-005  0.1008575E+03  0.7546771E-02  0.1282283E+00
         21   -1    0    0  501  502  0.00000000000E+00  0.00000000000E+00  0.38296221199E+02  0.38296221199E+02  0.00000000000E+00 0.  1.
         -3   -1    0    0    0  501 -0.00000000000E+00 -0.00000000000E+00 -0.59726972926E+03  0.59726972926E+03  0.00000000000E+00 0.  1.
         23    2    1    2    0    0  0.38895286244E+02 -0.69849511016E+01 -0.25984668163E+03  0.27797999522E+03  0.90503850483E+02 0.  0.
         24    2    1    2    0    0 -0.40407548823E+02 -0.71966484668E+02 -0.18587364586E+03  0.21952111881E+03  0.82635128509E+02 0.  0.
        -11    1    4    4    0    0 -0.37995026774E+02 -0.80357181854E+02 -0.19007525172E+03  0.20983207584E+03  0.00000000000E+00 0.  1.
         12    1    4    4    0    0 -0.24125220488E+01  0.83906971863E+01  0.42016058629E+01  0.96890429731E+01  0.00000000000E+00 0. -1.
        -11    1    3    3    0    0  0.61075496663E+02  0.98926442038E+01 -0.11610969375E+03  0.13156573142E+03  0.00000000000E+00 0.  1.
         11    1    3    3    0    0 -0.22180210418E+02 -0.16877595305E+02 -0.14373698788E+03  0.14641426380E+03  0.00000000000E+00 0. -1.
         -4    1    1    2    0  502  0.15122625785E+01  0.78951435769E+02 -0.11325318056E+03  0.13806483642E+03  0.00000000000E+00 0.  1.
<scales pt_clust_5="13000.00000" pt_clust_6="13000.00000" pt_clust_7="13000.00000" pt_clust_8="13000.00000" pt_clust_9="78.96592"></scales>
<clustering>
<clus scale="   78.966">  1  9  2 -1</clus>
<clus scale="   82.635">  5  6 -1 -1</clus>
<clus scale="   90.504">  7  8 -1 -1</clus>
<clus scale="   93.861">  1  5  2 -1</clus>
<clus scale="   78.966">  1  5  2 -1</clus>
</clustering>
</event>
<event>
 9    2  0.6190160E-005  0.1638707E+03  0.7546771E-02  0.1212725E+00
          2   -1    0    0  502    0 -0.00000000000E+00  0.00000000000E+00  0.69839202455E+03  0.69839202455E+03  0.00000000000E+00 0. -1.
         21   -1    0    0  501  502  0.00000000000E+00 -0.00000000000E+00 -0.69730072783E+02  0.69730072783E+02  0.00000000000E+00 0. -1.
         23    2    1    2    0    0  0.66166502866E+01  0.18441325187E+02  0.27102309125E+03  0.28508358842E+03  0.86228034074E+02 0.  0.
         24    2    1    2    0    0  0.31961520318E+02  0.13175530343E+03  0.11520140117E+03  0.19524826552E+03  0.80433348791E+02 0.  0.
        -13    1    4    4    0    0 -0.68759548672E+01  0.37091467760E+02  0.77516338521E+02  0.86208111415E+02  0.00000000000E+00 0.  1.
         14    1    4    4    0    0  0.38837475185E+02  0.94663835666E+02  0.37685062645E+02  0.10904015411E+03  0.00000000000E+00 0. -1.
        -11    1    3    3    0    0 -0.25329077628E+02 -0.24029819880E+02  0.94988847812E+02  0.10120215228E+03  0.00000000000E+00 0.  1.
         11    1    3    3    0    0  0.31945727914E+02  0.42471145067E+02  0.17603424343E+03  0.18388143614E+03  0.00000000000E+00 0. -1.
          1    1    1    2  501    0 -0.38578170605E+02 -0.15019662861E+03  0.24243745936E+03  0.28779024340E+03  0.00000000000E+00 0. -1.
<scales pt_clust_5="13000.00000" pt_clust_6="13000.00000" pt_clust_7="13000.00000" pt_clust_8="13000.00000" pt_clust_9="142.77288"></scales>
<clustering>
<clus scale="   80.433">  5  6 -1 -1</clus>
<clus scale="   86.228">  7  8 -1 -1</clus>
<clus scale="   88.426">  1  7  2 -1</clus>
<clus scale="  142.773">  2  9  1 -1</clus>
<clus scale="  142.773">  2  5  1 -1</clus>
</clustering>
</event>
<event>
 9    2  0.6190160E-005  0.1997135E+03  0.7546771E-02  0.1175544E+00
          2   -1    0    0  502    0 -0.00000000000E+00  0.00000000000E+00  0.27467965236E+03  0.27467965236E+03  0.00000000000E+00 0. -1.
         21   -1    0    0  501  502  0.00000000000E+00 -0.00000000000E+00 -0.30853409224E+03  0.30853409224E+03  0.00000000000E+00 0.  1.
         23    2    1    2    0    0 -0.40616154742E+01  0.55486368690E+02  0.78612881485E+01  0.11073596956E+03  0.95422331097E+02 0.  0.
         24    2    1    2    0    0 -0.69399116828E+02 -0.18086074780E+03 -0.17638371473E+03  0.27435992939E+03  0.81457403127E+02 0.  0.
        -13    1    4    4    0    0 -0.38259675313E+02 -0.87350199019E+02 -0.13980597797E+03  0.16923230040E+03  0.00000000000E+00 0.  1.
         14    1    4    4    0    0 -0.31139441515E+02 -0.93510548776E+02 -0.36577736760E+02  0.10512762899E+03  0.00000000000E+00 0. -1.
        -13    1    3    3    0    0  0.63451065602E+01 -0.21580854855E+02 -0.17970558659E+02  0.28791225262E+02  0.00000000000E+00 0. -1.
         13    1    3    3    0    0 -0.10406722034E+02  0.77067223545E+02  0.25831846808E+02  0.81944744297E+02  0.00000000000E+00 0.  1.
          1    1    1    2  501    0  0.73460732302E+02  0.12537437911E+03  0.13466798670E+03  0.19811784566E+03  0.00000000000E+00 0. -1.
<scales pt_clust_5="13000.00000" pt_clust_6="13000.00000" pt_clust_7="13000.00000" pt_clust_8="13000.00000" pt_clust_9="182.34637"></scales>
<clustering>
<clus scale="   81.457">  5  6 -1 -1</clus>
<clus scale="   95.422">  7  8 -1 -1</clus>
<clus scale="  110.457">  1  7  2 -1</clus>
<clus scale="  182.346">  2  9  1 -1</clus>
<clus scale="  182.346">  2  5  1 -1</clus>
</clustering>
</event>
<event>
 9    2  0.6190160E-005  0.9640665E+02  0.7546771E-02  0.1292214E+00
          2   -1    0    0  502    0 -0.00000000000E+00  0.00000000000E+00  0.17361369284E+03  0.17361369284E+03  0.00000000000E+00 0. -1.
         21   -1    0    0  501  502  0.00000000000E+00 -0.00000000000E+00 -0.10275591299E+03  0.10275591299E+03  0.00000000000E+00 0. -1.
         24    2    1    2    0    0 -0.25054401417E+02  0.13554432559E+01  0.40002534647E+02  0.95660275138E+02  0.83193300238E+02 0.  0.
         23    2    1    2    0    0  0.44924284911E+02  0.34161085754E+02 -0.26630859463E+02  0.11027575679E+03  0.90919572725E+02 0.  0.
        -11    1    3    3    0    0 -0.37324644631E+02  0.30536935123E+02  0.41987246264E+02  0.63941866976E+02  0.00000000000E+00 0.  1.
         12    1    3    3    0    0  0.12270243214E+02 -0.29181491867E+02 -0.19847116175E+01  0.31718408162E+02  0.00000000000E+00 0. -1.
        -11    1    4    4    0    0  0.11525573591E+01 -0.24065162009E+02  0.12971242399E+02  0.27362630363E+02  0.00000000000E+00 0.  1.
         11    1    4    4    0    0  0.43771727552E+02  0.58226247764E+02 -0.39602101862E+02  0.82913126424E+02  0.00000000000E+00 0. -1.
          1    1    1    2  501    0 -0.19869883494E+02 -0.35516529010E+02  0.57486104665E+02  0.70433573901E+02  0.00000000000E+00 0. -1.
<scales pt_clust_5="13000.00000" pt_clust_6="13000.00000" pt_clust_7="13000.00000" pt_clust_8="13000.00000" pt_clust_9="40.69690"></scales>
<clustering>
<clus scale="   40.697">  2  9  1 -1</clus>
<clus scale="   83.193">  5  6 -1 -1</clus>
<clus scale="   89.157">  1  5  2 -1</clus>
<clus scale="   90.920">  7  8 -1 -1</clus>
<clus scale="   40.697">  2  5  1 -1</clus>
</clustering>
</event>
<event>
 9    2  0.6190160E-005  0.1679879E+03  0.7546771E-02  0.1187436E+00
         -1   -1    0    0    0  501 -0.00000000000E+00  0.00000000000E+00  0.66358653344E+03  0.66358653344E+03  0.00000000000E+00 0.  1.
         21   -1    0    0  501  502  0.00000000000E+00 -0.00000000000E+00 -0.95572263790E+02  0.95572263790E+02  0.00000000000E+00 0.  1.
         24    2    1    2    0    0  0.10657723245E+03  0.42944544085E+02  0.30790667628E+03  0.33914072320E+03  0.83707637014E+02 0.  0.
         23    2    1    2    0    0 -0.10510074104E+03  0.10771885352E+03  0.11965088247E+03  0.21403330022E+03  0.94044684875E+02 0.  0.
        -13    1    3    3    0    0  0.17344977573E+02 -0.13883601914E+02  0.13212358739E+03  0.13397852438E+03  0.00000000000E+00 0.  1.
         14    1    3    3    0    0  0.89232254880E+02  0.56828145999E+02  0.17578308889E+03  0.20516219883E+03  0.00000000000E+00 0. -1.
        -11    1    4    4    0    0 -0.85848929583E+02  0.33248327816E+02  0.32112406575E+02  0.97502290584E+02  0.00000000000E+00 0.  1.
         11    1    4    4    0    0 -0.19251811460E+02  0.74470525706E+02  0.87538475898E+02  0.11653100963E+03  0.00000000000E+00 0. -1.
         -2    1    1    2    0  502 -0.14764914106E+01 -0.15066339761E+03  0.14045671090E+03  0.20598477381E+03  0.00000000000E+00 0.  1.
<scales pt_clust_5="13000.00000" pt_clust_6="13000.00000" pt_clust_7="13000.00000" pt_clust_8="13000.00000" pt_clust_9="139.19603"></scales>
<clustering>
<clus scale="   83.708">  5  6 -1 -1</clus>
<clus scale="   94.045">  7  8 -1 -1</clus>
<clus scale="  142.162">  1  5  2 -1</clus>
<clus scale="  139.196">  2  9  1 -1</clus>
<clus scale="  139.196">  2  5  1 -1</clus>
</clustering>
</event>
<event>
 9    2  0.6190160E-005  0.2636596E+03  0.7546771E-02  0.1118552E+00
         21   -1    0    0  501  502  0.00000000000E+00  0.00000000000E+00  0.23398316571E+03  0.23398316571E+03  0.00000000000E+00 0. -1.
          4   -1    0    0  502    0 -0.00000000000E+00 -0.00000000000E+00 -0.96772955691E+03  0.96772955691E+03  0.00000000000E+00 0. -1.
         23    2    1    2    0    0  0.13126231834E+03 -0.91325587091E+02  0.77168841356E+02  0.20204524132E+03  0.96421420807E+02 0.  0.
         24    2    1    2    0    0 -0.31267915954E+03  0.18659283499E+03 -0.59155155723E+03  0.69948696753E+03  0.82241291336E+02 0.  0.
        -11    1    4    4    0    0 -0.60543389912E+02  0.76552775345E+02 -0.13803831936E+03  0.16905740767E+03  0.00000000000E+00 0.  1.
         12    1    4    4    0    0 -0.25213576963E+03  0.11004005964E+03 -0.45351323786E+03  0.53042955986E+03  0.00000000000E+00 0. -1.
        -13    1    3    3    0    0  0.28346023438E+02  0.10626442207E+02 -0.11287927480E+02  0.32308445112E+02  0.00000000000E+00 0.  1.
         13    1    3    3    0    0  0.10291629491E+03 -0.10195202930E+03  0.88456768836E+02  0.16973679621E+03  0.00000000000E+00 0. -1.
          3    1    1    2  501    0  0.18141684120E+03 -0.95267247899E+02 -0.21936367533E+03  0.30018051377E+03  0.00000000000E+00 0. -1.
<scales pt_clust_5="13000.00000" pt_clust_6="13000.00000" pt_clust_7="13000.00000" pt_clust_8="13000.00000" pt_clust_9="250.50505"></scales>
<clustering>
<clus scale="   82.241">  5  6 -1 -1</clus>
<clus scale="   96.421">  7  8 -1 -1</clus>
<clus scale="  186.728">  2  7  1 -1</clus>
<clus scale="  250.505">  1  9  2 -1</clus>
<clus scale="  250.505">  1  5  2 -1</clus>
</clustering>
</event>
<event>
 9    2  0.6190160E-005  0.1931757E+03  0.7546771E-02  0.1171939E+00
         21   -1    0    0  501  502  0.00000000000E+00  0.00000000000E+00  0.44760945684E+03  0.44760945684E+03  0.00000000000E+00 0. -1.
          2   -1    0    0  502    0 -0.00000000000E+00 -0.00000000000E+00 -0.24693142324E+03  0.24693142324E+03  0.00000000000E+00 0. -1.
         23    2    1    2    0    0 -0.63118414570E+02  0.73925401838E+02 -0.10830622060E+03  0.17111447290E+03  0.90005700489E+02 0.  0.
         24    2    1    2    0    0 -0.74810698296E+02  0.12547944010E+03  0.18942974291E+03  0.25309325654E+03  0.82648887119E+02 0.  0.
        -11    1    4    4    0    0  0.17297146900E+02  0.10966678894E+02  0.17727715114E+02  0.27087473489E+02  0.00000000000E+00 0.  1.
         12    1    4    4    0    0 -0.92107845195E+02  0.11451276120E+03  0.17170202780E+03  0.22600578305E+03  0.00000000000E+00 0. -1.
        -13    1    3    3    0    0 -0.39665902447E+02  0.88525026578E+02 -0.10554381887E+03  0.14335118364E+03  0.00000000000E+00 0.  1.
         13    1    3    3    0    0 -0.23452512123E+02 -0.14599624741E+02 -0.27624017273E+01  0.27763289264E+02  0.00000000000E+00 0. -1.
          1    1    1    2  501    0  0.13792911287E+03 -0.19940484193E+03  0.11955451129E+03  0.27033315063E+03  0.00000000000E+00 0. -1.
<scales pt_clust_5="13000.00000" pt_clust_6="13000.00000" pt_clust_7="13000.00000" pt_clust_8="13000.00000" pt_clust_9="174.60251"></scales>
<clustering>
<clus scale="   82.649">  5  6 -1 -1</clus>
<clus scale="   90.006">  7  8 -1 -1</clus>
<clus scale="  132.476">  2  7  1 -1</clus>
<clus scale="  174.603">  1  9  2 -1</clus>
<clus scale="  174.603">  1  5  2 -1</clus>
</clustering>
</event>
<event>
 9    2  0.6190160E-005  0.9341951E+02  0.7546771E-02  0.1301379E+00
         -1   -1    0    0    0  501 -0.00000000000E+00  0.00000000000E+00  0.31600990243E+03  0.31600990243E+03  0.00000000000E+00 0.  1.
         21   -1    0    0  501  502  0.00000000000E+00 -0.00000000000E+00 -0.57005323988E+02  0.57005323988E+02  0.00000000000E+00 0. -1.
         23    2    1    2    0    0 -0.37115109174E+02 -0.21711416223E+02  0.96628517258E+02  0.13928897824E+03  0.90639021332E+02 0.  0.
         24    2    1    2    0    0  0.28675345441E+01 -0.42246660134E+02  0.59991630524E+02  0.10824276902E+03  0.79526714166E+02 0.  0.
        -11    1    4    4    0    0  0.61018489048E+01  0.23119223346E+02  0.22425945143E+02  0.32781916718E+02  0.00000000000E+00 0.  1.
         12    1    4    4    0    0 -0.32343143606E+01 -0.65365883479E+02  0.37565685381E+02  0.75460852305E+02  0.00000000000E+00 0. -1.
        -11    1    3    3    0    0  0.27754812858E+02 -0.69049446892E+00  0.48293277724E+02  0.55705000608E+02  0.00000000000E+00 0.  1.
         11    1    3    3    0    0 -0.64869922032E+02 -0.21020921754E+02  0.48335239534E+02  0.83583977631E+02  0.00000000000E+00 0. -1.
         -2    1    1    2    0  502  0.34247574629E+02  0.63958076356E+02  0.10238443066E+03  0.12548347915E+03  0.00000000000E+00 0.  1.
<scales pt_clust_5="13000.00000" pt_clust_6="13000.00000" pt_clust_7="13000.00000" pt_clust_8="13000.00000" pt_clust_9="72.55024"></scales>
<clustering>
<clus scale="   72.550">  2  9  1 -1</clus>
<clus scale="   79.527">  5  6 -1 -1</clus>
<clus scale="   82.682">  2  5  1 -1</clus>
<clus scale="   90.639">  7  8 -1 -1</clus>
<clus scale="   72.550">  2  5  1 -1</clus>
</clustering>
</event>
<event>
 9    2  0.6190160E-005  0.9533874E+02  0.7546771E-02  0.1296790E+00
          2   -1    0    0  502    0 -0.00000000000E+00  0.00000000000E+00  0.73032239480E+02  0.73032239480E+02  0.00000000000E+00 0. -1.
         21   -1    0    0  501  502  0.00000000000E+00 -0.00000000000E+00 -0.46798147005E+03  0.46798147005E+03  0.00000000000E+00 0. -1.
         24    2    1    2    0    0 -0.14501727331E+00 -0.27802571048E+02  0.35713628622E+02  0.92601104614E+02  0.80786739750E+02 0.  0.
         23    2    1    2    0    0  0.77234206509E+01  0.12366866909E+01 -0.26824616529E+03  0.28366321685E+03  0.91911015564E+02 0.  0.
        -11    1    3    3    0    0  0.35053551974E+02 -0.29481028230E+02  0.54033683500E+01  0.46120265838E+02  0.00000000000E+00 0.  1.
         12    1    3    3    0    0 -0.35198569247E+02  0.16784571815E+01  0.30310260272E+02  0.46480838776E+02  0.00000000000E+00 0. -1.
        -13    1    4    4    0    0 -0.10956658897E+02 -0.41877960628E+02 -0.15797768387E+03  0.16380097851E+03  0.00000000000E+00 0. -1.
         13    1    4    4    0    0  0.18680079548E+02  0.43114647319E+02 -0.11026848142E+03  0.11986223834E+03  0.00000000000E+00 0.  1.
          1    1    1    2  501    0 -0.75784033775E+01  0.26565884357E+02 -0.16241669390E+03  0.16474938806E+03  0.00000000000E+00 0. -1.
<scales pt_clust_5="13000.00000" pt_clust_6="13000.00000" pt_clust_7="13000.00000" pt_clust_8="13000.00000" pt_clust_9="27.62568"></scales>
<clustering>
<clus scale="   27.626">  2  9  1 -1</clus>
<clus scale="   80.787">  5  6 -1 -1</clus>
<clus scale="   84.666">  1  5  2 -1</clus>
<clus scale="   91.911">  7  8 -1 -1</clus>
<clus scale="   27.626">  2  5  1 -1</clus>
</clustering>
</event>
<event>
 9    2  0.6190160E-005  0.3424786E+03  0.7546771E-02  0.1115527E+00
         21   -1    0    0  501  502  0.00000000000E+00  0.00000000000E+00  0.94108324672E+03  0.94108324672E+03  0.00000000000E+00 0. -1.
          2   -1    0    0  502    0 -0.00000000000E+00 -0.00000000000E+00 -0.28789564226E+03  0.28789564226E+03  0.00000000000E+00 0. -1.
         23    2    1    2    0    0 -0.81519989799E+01 -0.10677414100E+02 -0.72597834815E+01  0.92219290216E+02  0.90946307086E+02 0.  0.
         24    2    1    2    0    0 -0.12345823658E+03 -0.29723888027E+03 -0.64677001316E+02  0.33804871344E+03  0.80628345116E+02 0.  0.
        -11    1    4    4    0    0  0.61561831205E+01 -0.66719007048E+02 -0.69562309788E+01  0.67362553704E+02  0.00000000000E+00 0.  1.
         12    1    4    4    0    0 -0.12961441970E+03 -0.23051987322E+03 -0.57720770337E+02  0.27068615973E+03  0.00000000000E+00 0. -1.
        -13    1    3    3    0    0 -0.48753159915E+02 -0.14368288899E+02 -0.98047712559E-01  0.50826449226E+02  0.00000000000E+00 0. -1.
         13    1    3    3    0    0  0.40601160935E+02  0.36908747992E+01 -0.71617357689E+01  0.41392840991E+02  0.00000000000E+00 0.  1.
          1    1    1    2  501    0  0.13161023556E+03  0.30791629437E+03  0.72512438926E+03  0.79871088533E+03  0.00000000000E+00 0. -1.
<scales pt_clust_5="13000.00000" pt_clust_6="13000.00000" pt_clust_7="13000.00000" pt_clust_8="13000.00000" pt_clust_9="332.85228"></scales>
<clustering>
<clus scale="   80.628">  5  6 -1 -1</clus>
<clus scale="   90.946">  7  8 -1 -1</clus>
<clus scale="   91.933">  2  7  1 -1</clus>
<clus scale="  332.852">  1  9  2 -1</clus>
<clus scale="  332.852">  1  5  2 -1</clus>
</clustering>
</event>
<event>
 9    2  0.6190160E-005  0.9673582E+02  0.7546771E-02  0.1291629E+00
         21   -1    0    0  501  502  0.00000000000E+00  0.00000000000E+00  0.72250420265E+03  0.72250420265E+03  0.00000000000E+00 0. -1.
         -1   -1    0    0    0  501 -0.00000000000E+00 -0.00000000000E+00 -0.19431141580E+02  0.19431141580E+02  0.00000000000E+00 0.  1.
         23    2    1    2    0    0 -0.13787832631E+02  0.79555392377E+01  0.31165477834E+03  0.32525964723E+03  0.91715551138E+02 0.  0.
         24    2    1    2    0    0  0.37352859219E+02 -0.29823304097E+02  0.35606362140E+03  0.36889011658E+03  0.83749328764E+02 0.  0.
        -11    1    4    4    0    0  0.31836216506E+02 -0.16592626399E+02  0.45322738015E+02  0.57818773019E+02  0.00000000000E+00 0.  1.
         12    1    4    4    0    0  0.55166427125E+01 -0.13230677697E+02  0.31074088338E+03  0.31107134356E+03  0.00000000000E+00 0. -1.
        -11    1    3    3    0    0 -0.41425655815E+02  0.30108854263E+02  0.12178771689E+03  0.13211690297E+03  0.00000000000E+00 0.  1.
         11    1    3    3    0    0  0.27637823184E+02 -0.22153315026E+02  0.18986706145E+03  0.19314274426E+03  0.00000000000E+00 0. -1.
         -2    1    1    2    0  502 -0.23565026588E+02  0.21867764859E+02  0.35354661326E+02  0.47785580414E+02  0.00000000000E+00 0.  1.
<scales pt_clust_5="13000.00000" pt_clust_6="13000.00000" pt_clust_7="13000.00000" pt_clust_8="13000.00000" pt_clust_9="32.14826"></scales>
<clustering>
<clus scale="   32.148">  1  9  2 -1</clus>
<clus scale="   83.749">  5  6 -1 -1</clus>
<clus scale="   89.219">  1  5  2 -1</clus>
<clus scale="   91.716">  7  8 -1 -1</clus>
<clus scale="   32.148">  1  5  2 -1</clus>
</clustering>
</event>
<event>
 9    2  0.8117777E-005  0.1858081E+03  0.7546771E-02  0.1163703E+00
         21   -1    0    0  501  502  0.00000000000E+00  0.00000000000E+00  0.18884326879E+03  0.18884326879E+03  0.00000000000E+00 0.  1.
          2   -1    0    0  502    0 -0.00000000000E+00 -0.00000000000E+00 -0.10125839908E+04  0.10125839908E+04  0.00000000000E+00 0. -1.
         24    2    1    2    0    0 -0.64348286529E+02 -0.15422262482E+03 -0.77634205546E+03  0.79791584337E+03  0.77700617935E+02 0.  0.
         23    2    1    2    0    0  0.82020591857E+02  0.59140293864E+02  0.13850101753E+03  0.19396034232E+03  0.90626324483E+02 0.  0.
        -11    1    3    3    0    0 -0.19296058551E+02 -0.29941913435E+02 -0.62514167607E+02  0.71950519160E+02  0.00000000000E+00 0.  1.
         12    1    3    3    0    0 -0.45052227978E+02 -0.12428071139E+03 -0.71382788786E+03  0.72596532421E+03  0.00000000000E+00 0. -1.
        -11    1    4    4    0    0  0.62527436021E+02  0.70235374203E+02  0.58207653405E+02  0.11059303305E+03  0.00000000000E+00 0. -1.
         11    1    4    4    0    0  0.19493155836E+02 -0.11095080339E+02  0.80293364123E+02  0.83367309266E+02  0.00000000000E+00 0.  1.
          1    1    1    2  501    0 -0.17672305328E+02  0.95082330959E+02 -0.18589968412E+03  0.20955107395E+03  0.00000000000E+00 0. -1.
<scales pt_clust_5="13000.00000" pt_clust_6="13000.00000" pt_clust_7="13000.00000" pt_clust_8="13000.00000" pt_clust_9="96.71075"></scales>
<clustering>
<clus scale="   77.701">  5  6 -1 -1</clus>
<clus scale="   90.626">  7  8 -1 -1</clus>
<clus scale="   96.711">  1  9  2 -1</clus>
<clus scale="  179.858">  2  5  1 -1</clus>
<clus scale="   96.711">  1  5  2 -1</clus>
</clustering>
</event>
<event>
 9    2  0.6190160E-005  0.8747848E+02  0.7546771E-02  0.1313409E+00
         21   -1    0    0  501  502  0.00000000000E+00  0.00000000000E+00  0.10738742312E+03  0.10738742312E+03  0.00000000000E+00 0. -1.
         -1   -1    0    0    0  501 -0.00000000000E+00 -0.00000000000E+00 -0.29148452919E+03  0.29148452919E+03  0.00000000000E+00 0.  1.
         24    2    1    2    0    0 -0.45541924664E+01  0.73436689146E+01 -0.23619528862E+03  0.24959011787E+03  0.80201885459E+02 0.  0.
         23    2    1    2    0    0  0.34350966162E+02 -0.52993061509E+00  0.55168739807E+01  0.93567446163E+02  0.86857132006E+02 0.  0.
        -13    1    3    3    0    0  0.20814056770E+02  0.31393228145E+02 -0.17596241300E+03  0.17994868858E+03  0.00000000000E+00 0.  1.
         14    1    3    3    0    0 -0.25368249236E+02 -0.24049559230E+02 -0.60232875615E+02  0.69641429288E+02  0.00000000000E+00 0. -1.
        -11    1    4    4    0    0  0.48704289431E+01 -0.31216885538E+02  0.30755730391E+02  0.44092289265E+02  0.00000000000E+00 0. -1.
         11    1    4    4    0    0  0.29480537219E+02  0.30686954923E+02 -0.25238856411E+02  0.49475156898E+02  0.00000000000E+00 0.  1.
         -2    1    1    2    0  502 -0.29796773695E+02 -0.68137382996E+01  0.46581308567E+02  0.55714388268E+02  0.00000000000E+00 0.  1.
<scales pt_clust_5="13000.00000" pt_clust_6="13000.00000" pt_clust_7="13000.00000" pt_clust_8="13000.00000" pt_clust_9="30.56591"></scales>
<clustering>
<clus scale="   30.566">  1  9  2 -1</clus>
<clus scale="   80.202">  5  6 -1 -1</clus>
<clus scale="   80.874">  2  5  1 -1</clus>
<clus scale="   86.857">  7  8 -1 -1</clus>
<clus scale="   30.566">  1  5  2 -1</clus>
</clustering>
</event>
<event>
 9    2  0.6190160E-005  0.9994568E+02  0.7546771E-02  0.1286545E+00
         -3   -1    0    0    0  501 -0.00000000000E+00  0.00000000000E+00  0.32358031409E+03  0.32358031409E+03  0.00000000000E+00 0.  1.
         21   -1    0    0  501  502  0.00000000000E+00 -0.00000000000E+00 -0.76503970003E+02  0.76503970003E+02  0.00000000000E+00 0.  1.
         24    2    1    2    0    0  0.52162951120E+02 -0.21296103338E+02  0.18097414487E+03  0.20592886994E+03  0.80501930882E+02 0.  0.
         23    2    1    2    0    0 -0.13303874008E+02 -0.71845651731E+01  0.98617481773E+02  0.13603123715E+03  0.92468798672E+02 0.  0.
        -11    1    3    3    0    0  0.56520095514E+02  0.81257634649E+01  0.15901954286E+03  0.16896083641E+03  0.00000000000E+00 0.  1.
         12    1    3    3    0    0 -0.43571443934E+01 -0.29421866803E+02  0.21954602005E+02  0.36968033524E+02  0.00000000000E+00 0. -1.
        -13    1    4    4    0    0  0.36330599303E+02 -0.53295317679E+01  0.16943361408E+02  0.40440003096E+02  0.00000000000E+00 0.  1.
         13    1    4    4    0    0 -0.49634473311E+02 -0.18550334051E+01  0.81674120365E+02  0.95591234050E+02  0.00000000000E+00 0. -1.
         -4    1    1    2    0  502 -0.38859077112E+02  0.28480668512E+02 -0.32515282558E+02  0.58124177007E+02  0.00000000000E+00 0.  1.
<scales pt_clust_5="13000.00000" pt_clust_6="13000.00000" pt_clust_7="13000.00000" pt_clust_8="13000.00000" pt_clust_9="48.17859"></scales>
<clustering>
<clus scale="   48.179">  2  9  1 -1</clus>
<clus scale="   80.502">  5  6 -1 -1</clus>
<clus scale="   88.990">  1  5  2 -1</clus>
<clus scale="   92.469">  7  8 -1 -1</clus>
<clus scale="   48.179">  2  5  1 -1</clus>
</clustering>
</event>
<event>
 9    2  0.6190160E-005  0.1266281E+03  0.7546771E-02  0.1249120E+00
         21   -1    0    0  501  502  0.00000000000E+00  0.00000000000E+00  0.23710639135E+02  0.23710639135E+02  0.00000000000E+00 0. -1.
          4   -1    0    0  502    0 -0.00000000000E+00 -0.00000000000E+00 -0.13249106099E+04  0.13249106099E+04  0.00000000000E+00 0. -1.
         23    2    1    2    0    0 -0.22734053429E+01 -0.37035254203E+00 -0.15165292884E+03  0.17659232692E+03  0.90448513364E+02 0.  0.
         24    2    1    2    0    0 -0.68236827789E+01 -0.99884411583E+02 -0.57531821787E+03  0.58904305855E+03  0.77182994777E+02 0.  0.
        -11    1    4    4    0    0  0.34991930321E+02 -0.53884152018E+02 -0.29245673739E+03  0.29943092738E+03  0.00000000000E+00 0.  1.
         12    1    4    4    0    0 -0.41815613100E+02 -0.46000259565E+02 -0.28286148048E+03  0.28961213116E+03  0.00000000000E+00 0. -1.
        -11    1    3    3    0    0 -0.40226313279E+02  0.60873878532E+01 -0.34721713151E+02  0.53486539755E+02  0.00000000000E+00 0.  1.
         11    1    3    3    0    0  0.37952907936E+02 -0.64577403952E+01 -0.11693121569E+03  0.12310578717E+03  0.00000000000E+00 0. -1.
          3    1    1    2  501    0  0.90970881218E+01  0.10025476412E+03 -0.57422882403E+03  0.58298586354E+03  0.00000000000E+00 0. -1.
<scales pt_clust_5="13000.00000" pt_clust_6="13000.00000" pt_clust_7="13000.00000" pt_clust_8="13000.00000" pt_clust_9="100.38660"></scales>
<clustering>
<clus scale="   77.183">  5  6 -1 -1</clus>
<clus scale="   90.449">  7  8 -1 -1</clus>
<clus scale="   90.478">  2  7  1 -1</clus>
<clus scale="  100.387">  1  9  2 -1</clus>
<clus scale="  100.387">  1  5  2 -1</clus>
</clustering>
</event>
<event>
 9    2  0.6190160E-005  0.9620530E+02  0.7546771E-02  0.1294611E+00
         -1   -1    0    0    0  501 -0.00000000000E+00  0.00000000000E+00  0.39161401558E+03  0.39161401558E+03  0.00000000000E+00 0.  1.
         21   -1    0    0  501  502  0.00000000000E+00 -0.00000000000E+00 -0.14504934806E+03  0.14504934806E+03  0.00000000000E+00 0.  1.
         23    2    1    2    0    0  0.94028921270E+01  0.33961747499E+02  0.33079530387E+03  0.34495029382E+03  0.91232436492E+02 0.  0.
         24    2    1    2    0    0 -0.75055542308E+01 -0.78420111519E+01  0.20735136938E+02  0.83529641893E+02  0.80183693402E+02 0.  0.
        -13    1    4    4    0    0 -0.13894952342E+02 -0.18643676045E+02  0.48099387036E+02  0.53424782548E+02  0.00000000000E+00 0.  1.
         14    1    4    4    0    0  0.63893981112E+01  0.10801664893E+02 -0.27364250099E+02  0.30104859344E+02  0.00000000000E+00 0. -1.
        -13    1    3    3    0    0 -0.34074879995E+02 -0.81683622784E+01  0.15852626274E+03  0.16235268882E+03  0.00000000000E+00 0.  1.
         13    1    3    3    0    0  0.43477772122E+02  0.42130109777E+02  0.17226904113E+03  0.18259760500E+03  0.00000000000E+00 0. -1.
         -2    1    1    2    0  502 -0.18973378961E+01 -0.26119736347E+02 -0.10496577329E+03  0.10818342793E+03  0.00000000000E+00 0.  1.
<scales pt_clust_5="13000.00000" pt_clust_6="13000.00000" pt_clust_7="13000.00000" pt_clust_8="13000.00000" pt_clust_9="26.18856"></scales>
<clustering>
<clus scale="   26.189">  2  9  1 -1</clus>
<clus scale="   80.184">  5  6 -1 -1</clus>
<clus scale="   85.799">  2  5  1 -1</clus>
<clus scale="   91.232">  7  8 -1 -1</clus>
<clus scale="   26.189">  2  5  1 -1</clus>
</clustering>
</event>
<event>
 9    2  0.6190160E-005  0.3865107E+03  0.7546771E-02  0.1080400E+00
         21   -1    0    0  501  502  0.00000000000E+00  0.00000000000E+00  0.22303623366E+03  0.22303623366E+03  0.00000000000E+00 0. -1.
          4   -1    0    0  502    0 -0.00000000000E+00 -0.00000000000E+00 -0.12304264093E+04  0.12304264093E+04  0.00000000000E+00 0. -1.
         24    2    1    2    0    0 -0.45845689361E+02  0.13075956731E+03  0.26075248599E+02  0.16182220416E+03  0.79414202091E+02 0.  0.
         23    2    1    2    0    0 -0.35206029277E+03 -0.43775302103E+02 -0.49589300179E+03  0.61719285568E+03  0.95678759668E+02 0.  0.
        -11    1    3    3    0    0  0.19464292827E+02  0.11193621641E+02 -0.25796384828E+01  0.22601114915E+02  0.00000000000E+00 0.  1.
         12    1    3    3    0    0 -0.65309982187E+02  0.11956594567E+03  0.28654887082E+02  0.13922108925E+03  0.00000000000E+00 0. -1.
        -13    1    4    4    0    0 -0.21565506990E+03  0.19013008291E+02 -0.31253544241E+03  0.38019338029E+03  0.00000000000E+00 0. -1.
         13    1    4    4    0    0 -0.13640522287E+03 -0.62788310394E+02 -0.18335755938E+03  0.23699947538E+03  0.00000000000E+00 0.  1.
          3    1    1    2  501    0  0.39790598213E+03 -0.86984265206E+02 -0.53757242243E+03  0.67444758311E+03  0.00000000000E+00 0. -1.
<scales pt_clust_5="13000.00000" pt_clust_6="13000.00000" pt_clust_7="13000.00000" pt_clust_8="13000.00000" pt_clust_9="374.48129"></scales>
<clustering>
<clus scale="   79.414">  5  6 -1 -1</clus>
<clus scale="   95.679">  7  8 -1 -1</clus>
<clus scale="  159.708">  2  5  1 -1</clus>
<clus scale="  374.481">  1  9  2 -1</clus>
<clus scale="  374.481">  1  5  2 -1</clus>
</clustering>
</event>
<event>
 9    2  0.6190160E-005  0.3310071E+03  0.7546771E-02  0.1099559E+00
          2   -1    0    0  502    0 -0.00000000000E+00  0.00000000000E+00  0.21234126607E+03  0.21234126607E+03  0.00000000000E+00 0. -1.
         21   -1    0    0  501  502  0.00000000000E+00 -0.00000000000E+00 -0.13501580272E+04  0.13501580272E+04  0.00000000000E+00 0.  1.
         24    2    1    2    0    0 -0.21709515589E+02 -0.12898891725E+03 -0.13659716585E+03  0.20527006707E+03  0.79797060570E+02 0.  0.
         23    2    1    2    0    0  0.23034013170E+02  0.33658639754E+03 -0.10798000928E+04  0.11352531854E+04  0.94924105495E+02 0.  0.
        -13    1    3    3    0    0  0.28131682148E+02 -0.71108145481E+02 -0.61221989108E+02  0.97958623125E+02  0.00000000000E+00 0.  1.
         14    1    3    3    0    0 -0.49841197736E+02 -0.57880771770E+02 -0.75375176739E+02  0.10731144394E+03  0.00000000000E+00 0. -1.
        -13    1    4    4    0    0  0.36536052351E+02  0.31168088770E+03 -0.10405883516E+04  0.10868780872E+04  0.00000000000E+00 0.  1.
         13    1    4    4    0    0 -0.13502039181E+02  0.24905509838E+02 -0.39211741215E+02  0.48375098257E+02  0.00000000000E+00 0. -1.
          1    1    1    2  501    0 -0.13244975815E+01 -0.20759748029E+03  0.78580497490E+02  0.22197604083E+03  0.00000000000E+00 0. -1.
<scales pt_clust_5="13000.00000" pt_clust_6="13000.00000" pt_clust_7="13000.00000" pt_clust_8="13000.00000" pt_clust_9="317.10443"></scales>
<clustering>
<clus scale="   79.797">  5  6 -1 -1</clus>
<clus scale="   94.924">  7  8 -1 -1</clus>
<clus scale="  153.222">  1  5  2 -1</clus>
<clus scale="  317.104">  2  9  1 -1</clus>
<clus scale="  317.104">  2  5  1 -1</clus>
</clustering>
</event>
<event>
 9    2  0.6190160E-005  0.9332353E+02  0.7546771E-02  0.1302792E+00
         21   -1    0    0  501  502  0.00000000000E+00  0.00000000000E+00  0.49472962185E+02  0.49472962185E+02  0.00000000000E+00 0.  1.
         -3   -1    0    0    0  501 -0.00000000000E+00 -0.00000000000E+00 -0.30767675581E+03  0.30767675581E+03  0.00000000000E+00 0.  1.
         24    2    1    2    0    0 -0.15999063701E+02 -0.34319395538E+02 -0.10866033485E+03  0.13898812553E+03  0.77954087250E+02 0.  0.
         23    2    1    2    0    0 -0.32989372151E+02  0.15243445655E+00 -0.73318825691E+02  0.12132439525E+03  0.90860534722E+02 0.  0.
        -11    1    3    3    0    0  0.29606735418E+02 -0.77266752865E+01 -0.59228793593E+02  0.66665660453E+02  0.00000000000E+00 0.  1.
         12    1    3    3    0    0 -0.45605799119E+02 -0.26592720252E+02 -0.49431541257E+02  0.72322465076E+02  0.00000000000E+00 0. -1.
        -13    1    4    4    0    0 -0.41250559225E+02 -0.26009994593E+02 -0.66327142158E+01  0.49215052098E+02  0.00000000000E+00 0.  1.
         13    1    4    4    0    0  0.82611870744E+01  0.26162429049E+02 -0.66686111475E+02  0.72109343148E+02  0.00000000000E+00 0. -1.
         -4    1    1    2    0  502  0.48988435851E+02  0.34166961082E+02 -0.76224633084E+02  0.96837197221E+02  0.00000000000E+00 0.  1.
<scales pt_clust_5="13000.00000" pt_clust_6="13000.00000" pt_clust_7="13000.00000" pt_clust_8="13000.00000" pt_clust_9="59.72647"></scales>
<clustering>
<clus scale="   59.726">  1  9  2 -1</clus>
<clus scale="   77.954">  5  6 -1 -1</clus>
<clus scale="   80.811">  2  5  1 -1</clus>
<clus scale="   90.861">  7  8 -1 -1</clus>
<clus scale="   59.726">  1  5  2 -1</clus>
</clustering>
</event>
<event>
 9    2  0.6190160E-005  0.2088605E+03  0.7546771E-02  0.1153091E+00
         21   -1    0    0  501  502  0.00000000000E+00  0.00000000000E+00  0.45780332980E+02  0.45780332980E+02  0.00000000000E+00 0. -1.
          2   -1    0    0  502    0 -0.00000000000E+00 -0.00000000000E+00 -0.18117041355E+04  0.18117041355E+04  0.00000000000E+00 0. -1.
         24    2    1    2    0    0  0.55642005970E+02  0.13031541687E+03 -0.42140694455E+03  0.45155708647E+03  0.79005371522E+02 0.  0.
         23    2    1    2    0    0  0.11043268638E+03 -0.17853187011E+03 -0.74412820656E+03  0.78112968471E+03  0.11121056456E+03 0.  0.
        -11    1    3    3    0    0  0.41863075246E+01  0.10464619489E+03 -0.27295069469E+03  0.29235326748E+03  0.00000000000E+00 0.  1.
         12    1    3    3    0    0  0.51455698445E+02  0.25669221977E+02 -0.14845624986E+03  0.15920381899E+03  0.00000000000E+00 0. -1.
        -11    1    4    4    0    0  0.73456204147E+02 -0.33238033321E+02 -0.17663408301E+03  0.19416534209E+03  0.00000000000E+00 0.  1.
         11    1    4    4    0    0  0.36976482238E+02 -0.14529383679E+03 -0.56749412354E+03  0.58696434262E+03  0.00000000000E+00 0. -1.
          1    1    1    2  501    0 -0.16607469235E+03  0.48216453239E+02 -0.60038865143E+03  0.62479769732E+03  0.00000000000E+00 0. -1.
<scales pt_clust_5="13000.00000" pt_clust_6="13000.00000" pt_clust_7="13000.00000" pt_clust_8="13000.00000" pt_clust_9="176.79062"></scales>
<clustering>
<clus scale="   79.005">  5  6 -1 -1</clus>
<clus scale="  111.211">  7  8 -1 -1</clus>
<clus scale="  162.234">  2  5  1 -1</clus>
<clus scale="  176.791">  1  9  2 -1</clus>
<clus scale="  176.791">  1  5  2 -1</clus>
</clustering>
</event>
<event>
 9    2  0.6190160E-005  0.1869450E+03  0.7546771E-02  0.1162448E+00
         21   -1    0    0  501  502  0.00000000000E+00  0.00000000000E+00  0.18664380817E+03  0.18664380817E+03  0.00000000000E+00 0. -1.
          2   -1    0    0  502    0 -0.00000000000E+00 -0.00000000000E+00 -0.39941966405E+03  0.39941966405E+03  0.00000000000E+00 0. -1.
         23    2    1    2    0    0  0.13917866510E+03  0.15445830414E+03 -0.97864657125E+02  0.24725189794E+03  0.91257555214E+02 0.  0.
         24    2    1    2    0    0 -0.66963084679E+01 -0.13288400702E+03  0.97006752531E+01  0.15565823891E+03  0.80202146925E+02 0.  0.
        -11    1    4    4    0    0  0.32171976716E+02 -0.47588350461E+02  0.21181246113E+02  0.61223625932E+02  0.00000000000E+00 0.  1.
         12    1    4    4    0    0 -0.38868285184E+02 -0.85295656556E+02 -0.11480570860E+02  0.94434612975E+02  0.00000000000E+00 0. -1.
        -11    1    3    3    0    0  0.40548282708E+02  0.13597746986E+02  0.10447328460E+02  0.44025090865E+02  0.00000000000E+00 0.  1.
         11    1    3    3    0    0  0.98630382393E+02  0.14086055716E+03 -0.10831198559E+03  0.20322680708E+03  0.00000000000E+00 0. -1.
          1    1    1    2  501    0 -0.13248235663E+03 -0.21574297125E+02 -0.12461187400E+03  0.18315333537E+03  0.00000000000E+00 0. -1.
<scales pt_clust_5="13000.00000" pt_clust_6="13000.00000" pt_clust_7="13000.00000" pt_clust_8="13000.00000" pt_clust_9="134.22758"></scales>
<clustering>
<clus scale="   80.202">  5  6 -1 -1</clus>
<clus scale="   91.258">  7  8 -1 -1</clus>
<clus scale="  134.228">  1  9  2 -1</clus>
<clus scale="  181.805">  1  5  2 -1</clus>
<clus scale="  134.228">  1  5  2 -1</clus>
</clustering>
</event>
<event>
 9    2  0.6190160E-005  0.1209174E+03  0.7546771E-02  0.1245022E+00
          2   -1    0    0  502    0 -0.00000000000E+00  0.00000000000E+00  0.12434443648E+03  0.12434443648E+03  0.00000000000E+00 0. -1.
         21   -1    0    0  501  502  0.00000000000E+00 -0.00000000000E+00 -0.27916140739E+03  0.27916140739E+03  0.00000000000E+00 0. -1.
         24    2    1    2    0    0  0.63732638340E+02  0.71709904988E+02 -0.14911427494E+02  0.12639108346E+03  0.80920922169E+02 0.  0.
         23    2    1    2    0    0 -0.83455737499E+02  0.34038002870E+02 -0.97598766131E+02  0.16152287462E+03  0.91873141418E+02 0.  0.
        -11    1    3    3    0    0  0.26650242804E+02  0.68015930085E+01  0.28776519579E+02  0.39806848506E+02  0.00000000000E+00 0.  1.
         12    1    3    3    0    0  0.37082395536E+02  0.64908311979E+02 -0.43687947073E+02  0.86584234951E+02  0.00000000000E+00 0. -1.
        -11    1    4    4    0    0  0.78481794272E+00  0.25329828917E+02  0.76128083227E+01  0.26460744939E+02  0.00000000000E+00 0.  1.
         11    1    4    4    0    0 -0.84240555442E+02  0.87081739532E+01 -0.10521157445E+03  0.13506212968E+03  0.00000000000E+00 0. -1.
          1    1    1    2  501    0  0.19723099159E+02 -0.10574790786E+03 -0.42306777280E+02  0.11559188579E+03  0.00000000000E+00 0. -1.
<scales pt_clust_5="13000.00000" pt_clust_6="13000.00000" pt_clust_7="13000.00000" pt_clust_8="13000.00000" pt_clust_9="107.57152"></scales>
<clustering>
<clus scale="   80.921">  5  6 -1 -1</clus>
<clus scale="   91.873">  7  8 -1 -1</clus>
<clus scale="  107.572">  2  9  1 -1</clus>
<clus scale="  112.821">  1  5  2 -1</clus>
<clus scale="  107.572">  2  5  1 -1</clus>
</clustering>
</event>
<event>
 9    2  0.6190160E-005  0.1035283E+03  0.7546771E-02  0.1279005E+00
         21   -1    0    0  501  502  0.00000000000E+00  0.00000000000E+00  0.16546071729E+03  0.16546071729E+03  0.00000000000E+00 0.  1.
         -1   -1    0    0    0  501 -0.00000000000E+00 -0.00000000000E+00 -0.12196638189E+03  0.12196638189E+03  0.00000000000E+00 0.  1.
         24    2    1    2    0    0  0.15919513129E+02  0.20752112326E+02  0.28687402917E+02  0.88838073545E+02  0.79907165891E+02 0.  0.
         23    2    1    2    0    0  0.11439450724E+02 -0.81522730928E+02  0.35372915949E+02  0.12884276650E+03  0.92587248611E+02 0.  0.
        -11    1    3    3    0    0  0.29027897307E+02  0.46692169995E+02  0.19981388854E+02  0.58498149213E+02  0.00000000000E+00 0.  1.
         12    1    3    3    0    0 -0.13108384178E+02 -0.25940057668E+02  0.87060140631E+01  0.30339924332E+02  0.00000000000E+00 0. -1.
        -11    1    4    4    0    0 -0.26884026411E+02 -0.80790019409E+02  0.29229995649E+02  0.90023167895E+02  0.00000000000E+00 0.  1.
         11    1    4    4    0    0  0.38323477135E+02 -0.73271151859E+00  0.61429203004E+01  0.38819598604E+02  0.00000000000E+00 0. -1.
         -2    1    1    2    0  502 -0.27358963853E+02  0.60770618601E+02 -0.20565983460E+02  0.69746259140E+02  0.00000000000E+00 0.  1.
<scales pt_clust_5="13000.00000" pt_clust_6="13000.00000" pt_clust_7="13000.00000" pt_clust_8="13000.00000" pt_clust_9="66.64522"></scales>
<clustering>
<clus scale="   66.645">  1  9  2 -1</clus>
<clus scale="   79.907">  5  6 -1 -1</clus>
<clus scale="   92.363">  2  5  1 -1</clus>
<clus scale="   92.587">  7  8 -1 -1</clus>
<clus scale="   66.645">  1  5  2 -1</clus>
</clustering>
</event>
<event>
 9    2  0.6190160E-005  0.1165838E+03  0.7546771E-02  0.1252788E+00
          2   -1    0    0  502    0 -0.00000000000E+00  0.00000000000E+00  0.12947200653E+04  0.12947200653E+04  0.00000000000E+00 0. -1.
         21   -1    0    0  501  502  0.00000000000E+00 -0.00000000000E+00 -0.29834941190E+02  0.29834941190E+02  0.00000000000E+00 0.  1.
         23    2    1    2    0    0  0.45820419743E+02  0.68102267171E+02  0.41299072649E+03  0.43071864468E+03  0.90663008143E+02 0.  0.
         24    2    1    2    0    0 -0.96373499489E+02  0.21999945321E+02  0.22203673134E+03  0.25556157590E+03  0.78990885628E+02 0.  0.
        -13    1    4    4    0    0 -0.53730074120E+02  0.50137988499E+02  0.10833845220E+03  0.13091202764E+03  0.00000000000E+00 0.  1.
         14    1    4    4    0    0 -0.42643425369E+02 -0.28138043177E+02  0.11369827914E+03  0.12464954826E+03  0.00000000000E+00 0. -1.
        -11    1    3    3    0    0 -0.26284849839E+02  0.16966460964E+02  0.72940425981E+02  0.79366616854E+02  0.00000000000E+00 0. -1.
         11    1    3    3    0    0  0.72105269582E+02  0.51135806207E+02  0.34005030051E+03  0.35135202782E+03  0.00000000000E+00 0.  1.
          1    1    1    2  501    0  0.50553079745E+02 -0.90102212492E+02  0.62985766630E+03  0.63827478594E+03  0.00000000000E+00 0. -1.
<scales pt_clust_5="13000.00000" pt_clust_6="13000.00000" pt_clust_7="13000.00000" pt_clust_8="13000.00000" pt_clust_9="103.31521"></scales>
<clustering>
<clus scale="   78.991">  5  6 -1 -1</clus>
<clus scale="   90.663">  7  8 -1 -1</clus>
<clus scale="  103.315">  2  9  1 -1</clus>
<clus scale="  107.757">  2  5  1 -1</clus>
<clus scale="  103.315">  2  5  1 -1</clus>
</clustering>
</event>
<event>
 9    2  0.6190160E-005  0.1128972E+03  0.7546771E-02  0.1259410E+00
          2   -1    0    0  502    0 -0.00000000000E+00  0.00000000000E+00  0.83179104797E+03  0.83179104797E+03  0.00000000000E+00 0. -1.
         21   -1    0    0  501  502  0.00000000000E+00 -0.00000000000E+00 -0.11178184871E+03  0.11178184871E+03  0.00000000000E+00 0.  1.
         24    2    1    2    0    0  0.50032354503E+02  0.19269061647E+01  0.74523521307E+03  0.75360919162E+03  0.10022146190E+03 0.  0.
         23    2    1    2    0    0 -0.78020172329E+02 -0.49281467744E+02  0.96825008750E+00  0.12903824314E+03  0.90189358192E+02 0.  0.
        -11    1    3    3    0    0  0.47997705408E+02  0.36315887281E+02  0.24866491813E+03  0.25584539258E+03  0.00000000000E+00 0.  1.
         12    1    3    3    0    0  0.20346490953E+01 -0.34388981117E+02  0.49657029494E+03  0.49776379904E+03  0.00000000000E+00 0. -1.
        -13    1    4    4    0    0 -0.36341146369E+02 -0.32099971980E+02  0.44905138574E+02  0.66087507071E+02  0.00000000000E+00 0. -1.
         13    1    4    4    0    0 -0.41679025960E+02 -0.17181495764E+02 -0.43936888487E+02  0.62950736068E+02  0.00000000000E+00 0.  1.
          1    1    1    2  501    0  0.27987817826E+02  0.47354561579E+02 -0.26194263898E+02  0.60925461920E+02  0.00000000000E+00 0. -1.
<scales pt_clust_5="13000.00000" pt_clust_6="13000.00000" pt_clust_7="13000.00000" pt_clust_8="13000.00000" pt_clust_9="55.00702"></scales>
<clustering>
<clus scale="   55.007">  2  9  1 -1</clus>
<clus scale="   90.189">  7  8 -1 -1</clus>
<clus scale="  100.221">  5  6 -1 -1</clus>
<clus scale="  104.094">  2  7  1 -1</clus>
<clus scale="   55.007">  2  5  1 -1</clus>
</clustering>
</event>
<event>
 9    2  0.6190160E-005  0.1518858E+03  0.7546771E-02  0.1199980E+00
         21   -1    0    0  501  502  0.00000000000E+00  0.00000000000E+00  0.15975606445E+03  0.15975606445E+03  0.00000000000E+00 0. -1.
          2   -1    0    0  502    0 -0.00000000000E+00 -0.00000000000E+00 -0.21932253308E+03  0.21932253308E+03  0.00000000000E+00 0. -1.
         24    2    1    2    0    0  0.29951558070E+02  0.11115778295E+03 -0.10349579108E+03  0.17447135045E+03  0.80471888369E+02 0.  0.
         23    2    1    2    0    0 -0.48226614380E+02 -0.13148800383E+03  0.19541657637E+02  0.16797319518E+03  0.90654378981E+02 0.  0.
        -13    1    3    3    0    0  0.41624548973E+02  0.21805970093E+02 -0.54286633418E+02  0.71799317384E+02  0.00000000000E+00 0.  1.
         14    1    3    3    0    0 -0.11672990903E+02  0.89351812856E+02 -0.49209157657E+02  0.10267203307E+03  0.00000000000E+00 0. -1.
        -13    1    4    4    0    0  0.20952516367E+02 -0.71224892193E+01  0.12660335652E+02  0.25495526933E+02  0.00000000000E+00 0.  1.
         13    1    4    4    0    0 -0.69179130747E+02 -0.12436551461E+03  0.68813219856E+01  0.14247766824E+03  0.00000000000E+00 0. -1.
          1    1    1    2  501    0  0.18275056310E+02  0.20330220884E+02  0.24387664803E+02  0.36634051903E+02  0.00000000000E+00 0. -1.
<scales pt_clust_5="13000.00000" pt_clust_6="13000.00000" pt_clust_7="13000.00000" pt_clust_8="13000.00000" pt_clust_9="27.33671"></scales>
<clustering>
<clus scale="   27.337">  1  9  2 -1</clus>
<clus scale="   80.472">  5  6 -1 -1</clus>
<clus scale="   90.654">  7  8 -1 -1</clus>
<clus scale="  146.037">  2  5  1 -1</clus>
<clus scale="   27.337">  1  5  2 -1</clus>
</clustering>
</event>
<event>
 9    2  0.6190160E-005  0.1011315E+03  0.7546771E-02  0.1282523E+00
          4   -1    0    0  502    0 -0.00000000000E+00  0.00000000000E+00  0.47058275516E+03  0.47058275516E+03  0.00000000000E+00 0. -1.
         21   -1    0    0  501  502  0.00000000000E+00 -0.00000000000E+00 -0.18599825117E+03  0.18599825117E+03  0.00000000000E+00 0.  1.
         23    2    1    2    0    0  0.15095422345E+02  0.44081999573E+02  0.43505938158E+03  0.44683352727E+03  0.90622520020E+02 0.  0.
         24    2    1    2    0    0  0.30962377482E+02 -0.17043841083E+02 -0.11716910623E+03  0.14680578107E+03  0.81081296006E+02 0.  0.
        -13    1    4    4    0    0 -0.53693209831E+01 -0.41536929521E+02 -0.75501439826E+02  0.86340103878E+02  0.00000000000E+00 0.  1.
         14    1    4    4    0    0  0.36331698465E+02  0.24493088437E+02 -0.41667666407E+02  0.60465677193E+02  0.00000000000E+00 0. -1.
        -11    1    3    3    0    0  0.39886877440E+02 -0.43944274221E+01  0.10681507467E+03  0.11410404971E+03  0.00000000000E+00 0.  1.
         11    1    3    3    0    0 -0.24791455095E+02  0.48476426995E+02  0.32824430690E+03  0.33272947756E+03  0.00000000000E+00 0. -1.
          3    1    1    2  501    0 -0.46057799828E+02 -0.27038158490E+02 -0.33305771352E+02  0.62941697982E+02  0.00000000000E+00 0. -1.
<scales pt_clust_5="13000.00000" pt_clust_6="13000.00000" pt_clust_7="13000.00000" pt_clust_8="13000.00000" pt_clust_9="53.40770"></scales>
<clustering>
<clus scale="   53.408">  2  9  1 -1</clus>
<clus scale="   81.081">  5  6 -1 -1</clus>
<clus scale="   90.623">  7  8 -1 -1</clus>
<clus scale="   92.679">  2  5  1 -1</clus>
<clus scale="   53.408">  2  5  1 -1</clus>
</clustering>
</event>
<event>
 9    2  0.6190160E-005  0.1067118E+03  0.7546771E-02  0.1271927E+00
          2   -1    0    0  502    0 -0.00000000000E+00  0.00000000000E+00  0.17994320864E+03  0.17994320864E+03  0.00000000000E+00 0. -1.
         21   -1    0    0  501  502  0.00000000000E+00 -0.00000000000E+00 -0.20386894100E+03  0.20386894100E+03  0.00000000000E+00 0. -1.
         23    2    1    2    0    0 -0.90844857255E+01  0.51570778053E+02  0.12477671118E+03  0.16356992943E+03  0.91890266792E+02 0.  0.
         24    2    1    2    0    0  0.28714613883E+02 -0.56790072516E+02 -0.40090706616E+02  0.10974745851E+03  0.79922453080E+02 0.  0.
        -13    1    4    4    0    0  0.41281152241E+01 -0.43292293062E+02 -0.60892502373E+02  0.74827540512E+02  0.00000000000E+00 0.  1.
         14    1    4    4    0    0  0.24586498659E+02 -0.13497779454E+02  0.20801795757E+02  0.34919918001E+02  0.00000000000E+00 0. -1.
        -13    1    3    3    0    0  0.22791708327E+02 -0.14746829696E+02  0.13896815228E+02  0.30496760944E+02  0.00000000000E+00 0.  1.
         13    1    3    3    0    0 -0.31876194053E+02  0.66317607749E+02  0.11087989595E+03  0.13307316849E+03  0.00000000000E+00 0. -1.
          1    1    1    2  501    0 -0.19630128157E+02  0.52192944632E+01 -0.10861173692E+03  0.11049476170E+03  0.00000000000E+00 0. -1.
<scales pt_clust_5="13000.00000" pt_clust_6="13000.00000" pt_clust_7="13000.00000" pt_clust_8="13000.00000" pt_clust_9="20.31214"></scales>
<clustering>
<clus scale="   20.312">  2  9  1 -1</clus>
<clus scale="   79.922">  5  6 -1 -1</clus>
<clus scale="   91.890">  7  8 -1 -1</clus>
<clus scale="   96.598">  2  5  1 -1</clus>
<clus scale="   20.312">  2  5  1 -1</clus>
</clustering>
</event>
<event>
 9    2  0.6190160E-005  0.1355882E+03  0.7546771E-02  0.1219515E+00
         21   -1    0    0  501  502  0.00000000000E+00  0.00000000000E+00  0.10311115976E+03  0.10311115976E+03  0.00000000000E+00 0.  1.
         -1   -1    0    0    0  501 -0.00000000000E+00 -0.00000000000E+00 -0.32762176061E+03  0.32762176061E+03  0.00000000000E+00 0.  1.
         23    2    1    2    0    0  0.11478438017E+01 -0.91046504137E+02 -0.11543709505E+03  0.16701260906E+03  0.79225660052E+02 0.  0.
         24    2    1    2    0    0 -0.18400693177E+02  0.15363412444E+03 -0.65391406565E+02  0.18547073099E+03  0.78621411195E+02 0.  0.
        -11    1    4    4    0    0 -0.13021631655E+02  0.14312343878E+03 -0.81717282903E+02  0.16532270244E+03  0.00000000000E+00 0.  1.
         12    1    4    4    0    0 -0.53790615225E+01  0.10510685662E+02  0.16325876337E+02  0.20148028542E+02  0.00000000000E+00 0. -1.
        -13    1    3    3    0    0 -0.23359071182E+02 -0.53242354358E+01 -0.39847591678E+01  0.24287280520E+02  0.00000000000E+00 0.  1.
         13    1    3    3    0    0  0.24506914983E+02 -0.85722268701E+02 -0.11145233588E+03  0.14272532854E+03  0.00000000000E+00 0. -1.
         -2    1    1    2    0  502  0.17252849376E+02 -0.62587620301E+02 -0.43682099238E+02  0.78249580321E+02  0.00000000000E+00 0.  1.
<scales pt_clust_5="13000.00000" pt_clust_6="13000.00000" pt_clust_7="13000.00000" pt_clust_8="13000.00000" pt_clust_9="64.92207"></scales>
<clustering>
<clus scale="   64.922">  1  9  2 -1</clus>
<clus scale="   78.621">  5  6 -1 -1</clus>
<clus scale="   79.226">  7  8 -1 -1</clus>
<clus scale="  135.236">  1  5  2 -1</clus>
<clus scale="   64.922">  1  5  2 -1</clus>
</clustering>
</event>
<event>
 9    2  0.6190160E-005  0.9707125E+02  0.7546771E-02  0.1288624E+00
         21   -1    0    0  501  502  0.00000000000E+00  0.00000000000E+00  0.21757021926E+03  0.21757021926E+03  0.00000000000E+00 0.  1.
         -1   -1    0    0    0  501 -0.00000000000E+00 -0.00000000000E+00 -0.68242423317E+02  0.68242423317E+02  0.00000000000E+00 0.  1.
         23    2    1    2    0    0 -0.18259194153E+02  0.10964165873E+02  0.40637957309E+02  0.10287034588E+03  0.92072001085E+02 0.  0.
         24    2    1    2    0    0  0.19924944582E+01 -0.51466165765E+02  0.64320648614E+02  0.12070370306E+03  0.88201484353E+02 0.  0.
        -13    1    4    4    0    0 -0.40231077888E+02 -0.11169164276E+02  0.38813493365E+02  0.57006816486E+02  0.00000000000E+00 0.  1.
         14    1    4    4    0    0  0.42223572346E+02 -0.40297001489E+02  0.25507155249E+02  0.63696886577E+02  0.00000000000E+00 0. -1.
        -11    1    3    3    0    0  0.49508424756E+00 -0.30956090413E+02 -0.11829700225E+02  0.33143120696E+02  0.00000000000E+00 0. -1.
         11    1    3    3    0    0 -0.18754278401E+02  0.41920256285E+02  0.52467657534E+02  0.69727225189E+02  0.00000000000E+00 0.  1.
         -2    1    1    2    0  502  0.16266699695E+02  0.40501999892E+02  0.44369190024E+02  0.62238593635E+02  0.00000000000E+00 0.  1.
<scales pt_clust_5="13000.00000" pt_clust_6="13000.00000" pt_clust_7="13000.00000" pt_clust_8="13000.00000" pt_clust_9="43.64651"></scales>
<clustering>
<clus scale="   43.647">  1  9  2 -1</clus>
<clus scale="   88.201">  5  6 -1 -1</clus>
<clus scale="   92.072">  7  8 -1 -1</clus>
<clus scale="   93.408">  1  5  2 -1</clus>
<clus scale="   43.647">  1  5  2 -1</clus>
</clustering>
</event>
<event>
 9    2  0.6190160E-005  0.1405065E+03  0.7546771E-02  0.1215784E+00
         21   -1    0    0  501  502  0.00000000000E+00  0.00000000000E+00  0.66067366683E+02  0.66067366683E+02  0.00000000000E+00 0.  1.
          2   -1    0    0  502    0 -0.00000000000E+00 -0.00000000000E+00 -0.71893068555E+03  0.71893068555E+03  0.00000000000E+00 0. -1.
         23    2    1    2    0    0  0.61444396596E+01  0.58836626988E+02 -0.70277344978E+02  0.13184070093E+03  0.94570409693E+02 0.  0.
         24    2    1    2    0    0 -0.50200227551E+02 -0.13953930974E+03 -0.21004357223E+03  0.26943651986E+03  0.80538526129E+02 0.  0.
        -11    1    4    4    0    0 -0.26702737867E+02 -0.92873076395E+02 -0.19058131261E+03  0.21368126087E+03  0.00000000000E+00 0.  1.
         12    1    4    4    0    0 -0.23497489683E+02 -0.46666233346E+02 -0.19462259617E+02  0.55755258994E+02  0.00000000000E+00 0. -1.
        -13    1    3    3    0    0 -0.26165756079E+02 -0.11061172859E+02 -0.40081682978E+02  0.49127768589E+02  0.00000000000E+00 0. -1.
         13    1    3    3    0    0  0.32310195739E+02  0.69897799847E+02 -0.30195661999E+02  0.82712932337E+02  0.00000000000E+00 0.  1.
          1    1    1    2  501    0  0.44055787891E+02  0.80702682753E+02 -0.37254240166E+03  0.38372083145E+03  0.00000000000E+00 0. -1.
<scales pt_clust_5="13000.00000" pt_clust_6="13000.00000" pt_clust_7="13000.00000" pt_clust_8="13000.00000" pt_clust_9="91.94479"></scales>
<clustering>
<clus scale="   80.539">  5  6 -1 -1</clus>
<clus scale="   91.945">  1  9  2 -1</clus>
<clus scale="   94.570">  7  8 -1 -1</clus>
<clus scale="  131.472">  1  5  2 -1</clus>
<clus scale="   91.945">  1  5  2 -1</clus>
</clustering>
</event>
<event>
 9    2  0.6190160E-005  0.1084024E+03  0.7546771E-02  0.1268394E+00
         21   -1    0    0  501  502  0.00000000000E+00  0.00000000000E+00  0.87788157690E+02  0.87788157690E+02  0.00000000000E+00 0.  1.
          2   -1    0    0  502    0 -0.00000000000E+00 -0.00000000000E+00 -0.50014343268E+03  0.50014343268E+03  0.00000000000E+00 0. -1.
         23    2    1    2    0    0 -0.39577244706E+01 -0.55097522649E+02 -0.36824401141E+03  0.38370958417E+03  0.92617452242E+02 0.  0.
         24    2    1    2    0    0 -0.19193361175E+02  0.68419945665E+02  0.40791617674E+02  0.11521661891E+03  0.81001476051E+02 0.  0.
        -11    1    4    4    0    0  0.18003428768E+02  0.55779260104E+02  0.47397837352E+02  0.75379070642E+02  0.00000000000E+00 0.  1.
         12    1    4    4    0    0 -0.37196789943E+02  0.12640685561E+02 -0.66062196787E+01  0.39837548268E+02  0.00000000000E+00 0. -1.
        -13    1    3    3    0    0 -0.47786249634E+02 -0.20488020098E+02 -0.17823866789E+03  0.18566719515E+03  0.00000000000E+00 0.  1.
         13    1    3    3    0    0  0.43828525164E+02 -0.34609502551E+02 -0.19000534351E+03  0.19804238902E+03  0.00000000000E+00 0. -1.
          1    1    1    2  501    0  0.23151085645E+02 -0.13322423016E+02 -0.84902881258E+02  0.89005387295E+02  0.00000000000E+00 0. -1.
<scales pt_clust_5="13000.00000" pt_clust_6="13000.00000" pt_clust_7="13000.00000" pt_clust_8="13000.00000" pt_clust_9="26.71068"></scales>
<clustering>
<clus scale="   26.711">  1  9  2 -1</clus>
<clus scale="   81.001">  5  6 -1 -1</clus>
<clus scale="   92.617">  7  8 -1 -1</clus>
<clus scale="   98.663">  1  5  2 -1</clus>
<clus scale="   26.711">  1  5  2 -1</clus>
</clustering>
</event>
<event>
 9    2  0.6190160E-005  0.1280728E+03  0.7546771E-02  0.1232948E+00
          2   -1    0    0  502    0 -0.00000000000E+00  0.00000000000E+00  0.50360098788E+03  0.50360098788E+03  0.00000000000E+00 0. -1.
         21   -1    0    0  501  502  0.00000000000E+00 -0.00000000000E+00 -0.62595286775E+02  0.62595286775E+02  0.00000000000E+00 0. -1.
         23    2    1    2    0    0  0.57055182858E+02  0.36874439756E+02  0.11767679822E+03  0.16394192183E+03  0.91728439955E+02 0.  0.
         24    2    1    2    0    0 -0.12662920986E+03  0.31982196265E+01  0.15839054590E+03  0.21881219608E+03  0.82134199502E+02 0.  0.
        -11    1    4    4    0    0 -0.33204248816E+02  0.15545815851E+02  0.10339131715E+03  0.10969940288E+03  0.00000000000E+00 0.  1.
         12    1    4    4    0    0 -0.93424961042E+02 -0.12347596224E+02  0.54999228743E+02  0.10911279320E+03  0.00000000000E+00 0. -1.
        -13    1    3    3    0    0  0.91884994594E+01 -0.30280601597E+02  0.34409446066E+02  0.46747762877E+02  0.00000000000E+00 0.  1.
         13    1    3    3    0    0  0.47866683398E+02  0.67155041353E+02  0.83267352152E+02  0.11719415895E+03  0.00000000000E+00 0. -1.
          1    1    1    2  501    0  0.69574027000E+02 -0.40072659383E+02  0.16493835699E+03  0.18344215674E+03  0.00000000000E+00 0. -1.
<scales pt_clust_5="13000.00000" pt_clust_6="13000.00000" pt_clust_7="13000.00000" pt_clust_8="13000.00000" pt_clust_9="80.28929"></scales>
<clustering>
<clus scale="   80.289">  2  9  1 -1</clus>
<clus scale="   82.134">  5  6 -1 -1</clus>
<clus scale="   91.728">  7  8 -1 -1</clus>
<clus scale="  121.386">  2  5  1 -1</clus>
<clus scale="   80.289">  2  5  1 -1</clus>
</clustering>
</event>
<event>
 9    2  0.6190160E-005  0.1391889E+03  0.7546771E-02  0.1215732E+00
         21   -1    0    0  501  502  0.00000000000E+00  0.00000000000E+00  0.34962885221E+02  0.34962885221E+02  0.00000000000E+00 0. -1.
          2   -1    0    0  502    0 -0.00000000000E+00 -0.00000000000E+00 -0.93405247435E+03  0.93405247435E+03  0.00000000000E+00 0. -1.
         24    2    1    2    0    0 -0.10427776460E+03 -0.15261010413E+02 -0.47138855204E+03  0.49036933692E+03  0.84546844823E+02 0.  0.
         23    2    1    2    0    0  0.91822632189E+02  0.67397837861E+02 -0.37997804677E+03  0.40687651029E+03  0.90505879732E+02 0.  0.
        -11    1    3    3    0    0 -0.90656137184E+02 -0.19427633379E+02 -0.22210926088E+03  0.24068338521E+03  0.00000000000E+00 0.  1.
         12    1    3    3    0    0 -0.13621627418E+02  0.41666229654E+01 -0.24927929116E+03  0.24968595172E+03  0.00000000000E+00 0. -1.
        -11    1    4    4    0    0  0.40178016982E+02  0.55298714090E+02 -0.31816503971E+03  0.32542466612E+03  0.00000000000E+00 0.  1.
         11    1    4    4    0    0  0.51644615207E+02  0.12099123770E+02 -0.61813007066E+02  0.81451844168E+02  0.00000000000E+00 0. -1.
          1    1    1    2  501    0  0.12455132412E+02 -0.52136827448E+02 -0.47722990319E+02  0.71769512362E+02  0.00000000000E+00 0. -1.
<scales pt_clust_5="13000.00000" pt_clust_6="13000.00000" pt_clust_7="13000.00000" pt_clust_8="13000.00000" pt_clust_9="53.60391"></scales>
<clustering>
<clus scale="   53.604">  1  9  2 -1</clus>
<clus scale="   84.547">  5  6 -1 -1</clus>
<clus scale="   90.506">  7  8 -1 -1</clus>
<clus scale="  135.390">  2  5  1 -1</clus>
<clus scale="   53.604">  1  5  2 -1</clus>
</clustering>
</event>
<event>
 9    2  0.6190160E-005  0.1680907E+03  0.7546771E-02  0.1182112E+00
         21   -1    0    0  501  502  0.00000000000E+00  0.00000000000E+00  0.36528968189E+03  0.36528968189E+03  0.00000000000E+00 0.  1.
         -1   -1    0    0    0  501 -0.00000000000E+00 -0.00000000000E+00 -0.18354012379E+03  0.18354012379E+03  0.00000000000E+00 0.  1.
         23    2    1    2    0    0  0.12848588840E+03  0.26881369659E+02 -0.54650806693E+02  0.16980493380E+03  0.92821190024E+02 0.  0.
         24    2    1    2    0    0 -0.15638215857E+03 -0.17669107355E+02  0.38922048750E+02  0.17937329294E+03  0.76761158589E+02 0.  0.
        -13    1    4    4    0    0 -0.10915047567E+03  0.22969318327E+02  0.14626985031E+02  0.11249606488E+03  0.00000000000E+00 0.  1.
         14    1    4    4    0    0 -0.47231682902E+02 -0.40638425683E+02  0.24295063719E+02  0.66877228059E+02  0.00000000000E+00 0. -1.
        -13    1    3    3    0    0  0.79839897638E+02  0.22868815223E+02 -0.79556325775E+02  0.11500696038E+03  0.00000000000E+00 0.  1.
         13    1    3    3    0    0  0.48645990759E+02  0.40125544358E+01  0.24905519082E+02  0.54797973419E+02  0.00000000000E+00 0. -1.
         -2    1    1    2    0  502  0.27896270172E+02 -0.92122623037E+01  0.19747831604E+03  0.19965157894E+03  0.00000000000E+00 0.  1.
<scales pt_clust_5="13000.00000" pt_clust_6="13000.00000" pt_clust_7="13000.00000" pt_clust_8="13000.00000" pt_clust_9="29.37801"></scales>
<clustering>
<clus scale="   29.378">  1  9  2 -1</clus>
<clus scale="   76.761">  5  6 -1 -1</clus>
<clus scale="   92.821">  7  8 -1 -1</clus>
<clus scale="  159.784">  1  5  2 -1</clus>
<clus scale="   29.378">  1  5  2 -1</clus>
</clustering>
</event>
<event>
 9    2  0.6190160E-005  0.9067735E+02  0.7546771E-02  0.1304054E+00
         21   -1    0    0  501  502  0.00000000000E+00  0.00000000000E+00  0.20593529576E+03  0.20593529576E+03  0.00000000000E+00 0. -1.
          4   -1    0    0  502    0 -0.00000000000E+00 -0.00000000000E+00 -0.10380111754E+03  0.10380111754E+03  0.00000000000E+00 0. -1.
         23    2    1    2    0    0 -0.17821320079E+02 -0.36134111784E+01  0.50026841881E+00  0.91351008051E+02  0.89521506990E+02 0.  0.
         24    2    1    2    0    0 -0.66895972816E+02  0.18868694366E+02  0.54400322198E+02  0.12019805790E+03  0.81590926349E+02 0.  0.
        -13    1    4    4    0    0  0.76672614560E+01 -0.20287902274E+02  0.19026909537E+02  0.28851501927E+02  0.00000000000E+00 0.  1.
         14    1    4    4    0    0 -0.74563234272E+02  0.39156596640E+02  0.35373412661E+02  0.91346555976E+02  0.00000000000E+00 0. -1.
        -13    1    3    3    0    0  0.24202411405E+02 -0.31924357828E+02 -0.50452457549E+01  0.40377912839E+02  0.00000000000E+00 0.  1.
         13    1    3    3    0    0 -0.42023731484E+02  0.28310946650E+02  0.55455141738E+01  0.50973095212E+02  0.00000000000E+00 0. -1.
          3    1    1    2  501    0  0.84717292895E+02 -0.15255283188E+02  0.47233587607E+02  0.98187347345E+02  0.00000000000E+00 0. -1.
<scales pt_clust_5="13000.00000" pt_clust_6="13000.00000" pt_clust_7="13000.00000" pt_clust_8="13000.00000" pt_clust_9="86.07987"></scales>
<clustering>
<clus scale="   81.591">  5  6 -1 -1</clus>
<clus scale="   86.080">  1  9  2 -1</clus>
<clus scale="   86.080">  1  5  2 -1</clus>
<clus scale="   89.522">  7  8 -1 -1</clus>
<clus scale="   86.080">  1  5  2 -1</clus>
</clustering>
</event>
<event>
 9    2  0.6190160E-005  0.3288218E+03  0.7546771E-02  0.1102679E+00
         21   -1    0    0  501  502  0.00000000000E+00  0.00000000000E+00  0.11736491342E+03  0.11736491342E+03  0.00000000000E+00 0. -1.
          2   -1    0    0  502    0 -0.00000000000E+00 -0.00000000000E+00 -0.16065560666E+04  0.16065560666E+04  0.00000000000E+00 0. -1.
         24    2    1    2    0    0  0.20526467170E+02 -0.10761144983E+03 -0.69994299605E+02  0.16025859797E+03  0.93712625927E+02 0.  0.
         23    2    1    2    0    0 -0.28486693206E+03 -0.98770908801E+02 -0.79461001739E+03  0.85473482914E+03  0.90893822756E+02 0.  0.
        -11    1    3    3    0    0 -0.27802431344E+02 -0.56662762724E+02 -0.29748807402E+01  0.63186183486E+02  0.00000000000E+00 0.  1.
         12    1    3    3    0    0  0.48328898514E+02 -0.50948687108E+02 -0.67019418864E+02  0.97072414488E+02  0.00000000000E+00 0. -1.
        -11    1    4    4    0    0 -0.10283154712E+03 -0.60707648075E+02 -0.21393394913E+03  0.24500506160E+03  0.00000000000E+00 0.  1.
         11    1    4    4    0    0 -0.18203538494E+03 -0.38063260725E+02 -0.58067606826E+03  0.60972976755E+03  0.00000000000E+00 0. -1.
          1    1    1    2  501    0  0.26434046489E+03  0.20638235863E+03 -0.62458683623E+03  0.70892755294E+03  0.00000000000E+00 0. -1.
<scales pt_clust_5="13000.00000" pt_clust_6="13000.00000" pt_clust_7="13000.00000" pt_clust_8="13000.00000" pt_clust_9="316.00967"></scales>
<clustering>
<clus scale="   90.894">  7  8 -1 -1</clus>
<clus scale="   93.713">  5  6 -1 -1</clus>
<clus scale="  144.165">  2  5  1 -1</clus>
<clus scale="  316.010">  1  9  2 -1</clus>
<clus scale="  316.010">  1  5  2 -1</clus>
</clustering>
</event>
<event>
 9    2  0.6190160E-005  0.1008304E+03  0.7546771E-02  0.1282474E+00
         -1   -1    0    0    0  501 -0.00000000000E+00  0.00000000000E+00  0.31641982832E+03  0.31641982832E+03  0.00000000000E+00 0.  1.
         21   -1    0    0  501  502  0.00000000000E+00 -0.00000000000E+00 -0.21240135102E+03  0.21240135102E+03  0.00000000000E+00 0.  1.
         23    2    1    2    0    0 -0.14375337095E+01  0.42088293049E+02  0.26978759527E+03  0.28837422490E+03  0.92740800664E+02 0.  0.
         24    2    1    2    0    0  0.35824912690E+02 -0.18750042007E+02 -0.30273915694E+02  0.98721460492E+02  0.84819976100E+02 0.  0.
        -11    1    4    4    0    0  0.54654224851E+02 -0.18925692434E+01  0.54541855574E+01  0.54958295575E+02  0.00000000000E+00 0.  1.
         12    1    4    4    0    0 -0.18829312162E+02 -0.16857472763E+02 -0.35728101252E+02  0.43763164916E+02  0.00000000000E+00 0. -1.
        -13    1    3    3    0    0  0.22585788230E+02  0.64378024132E+02  0.19896367576E+03  0.21033590301E+03  0.00000000000E+00 0.  1.
         13    1    3    3    0    0 -0.24023321939E+02 -0.22289731083E+02  0.70823919510E+02  0.78038321891E+02  0.00000000000E+00 0. -1.
         -2    1    1    2    0  502 -0.34387378980E+02 -0.23338251042E+02 -0.13549520228E+03  0.14172549395E+03  0.00000000000E+00 0.  1.
<scales pt_clust_5="13000.00000" pt_clust_6="13000.00000" pt_clust_7="13000.00000" pt_clust_8="13000.00000" pt_clust_9="41.55918"></scales>
<clustering>
<clus scale="   41.559">  2  9  1 -1</clus>
<clus scale="   84.820">  5  6 -1 -1</clus>
<clus scale="   92.741">  7  8 -1 -1</clus>
<clus scale="   93.597">  2  5  1 -1</clus>
<clus scale="   41.559">  2  5  1 -1</clus>
</clustering>
</event>
<event>
 9    2  0.6190160E-005  0.1164779E+03  0.7546771E-02  0.1252488E+00
         21   -1    0    0  501  502  0.00000000000E+00  0.00000000000E+00  0.55715722283E+02  0.55715722283E+02  0.00000000000E+00 0.  1.
         -3   -1    0    0    0  501 -0.00000000000E+00 -0.00000000000E+00 -0.47683765692E+03  0.47683765692E+03  0.00000000000E+00 0.  1.
         24    2    1    2    0    0  0.83972819379E+02  0.28828054777E+02 -0.33303580990E+03  0.35388298035E+03  0.80236039103E+02 0.  0.
         23    2    1    2    0    0 -0.34431544313E+02 -0.18792962282E+02 -0.80995554936E+02  0.12762809095E+03  0.90498303874E+02 0.  0.
        -13    1    3    3    0    0  0.71711647036E+02  0.36901891769E+02 -0.32888167537E+03  0.33862585006E+03  0.00000000000E+00 0.  1.
         14    1    3    3    0    0  0.12261172343E+02 -0.80738369919E+01 -0.41541345309E+01  0.15257130291E+02  0.00000000000E+00 0. -1.
        -13    1    4    4    0    0  0.29237654426E+02  0.26421398174E+01 -0.37384711464E+02  0.47533545948E+02  0.00000000000E+00 0.  1.
         13    1    4    4    0    0 -0.63669198740E+02 -0.21435102099E+02 -0.43610843473E+02  0.80094544999E+02  0.00000000000E+00 0. -1.
         -4    1    1    2    0  502 -0.49541275066E+02 -0.10035092495E+02 -0.70905698076E+01  0.51042307910E+02  0.00000000000E+00 0.  1.
<scales pt_clust_5="13000.00000" pt_clust_6="13000.00000" pt_clust_7="13000.00000" pt_clust_8="13000.00000" pt_clust_9="50.54741"></scales>
<clustering>
<clus scale="   50.547">  1  9  2 -1</clus>
<clus scale="   80.236">  5  6 -1 -1</clus>
<clus scale="   90.498">  7  8 -1 -1</clus>
<clus scale="  108.697">  2  5  1 -1</clus>
<clus scale="   50.547">  1  5  2 -1</clus>
</clustering>
</event>
<event>
 9    2  0.6190160E-005  0.1448179E+03  0.7546771E-02  0.1213848E+00
         -1   -1    0    0    0  501 -0.00000000000E+00  0.00000000000E+00  0.12854951038E+04  0.12854951038E+04  0.00000000000E+00 0.  1.
         21   -1    0    0  501  502  0.00000000000E+00 -0.00000000000E+00 -0.37948995271E+02  0.37948995271E+02  0.00000000000E+00 0.  1.
         23    2    1    2    0    0  0.82645539357E+02 -0.20398175685E+02  0.42974538519E+03  0.44758357408E+03  0.91671091118E+02 0.  0.
         24    2    1    2    0    0  0.20759473774E+02 -0.10465918974E+03  0.23301273127E+03  0.26897590906E+03  0.81661526876E+02 0.  0.
        -11    1    4    4    0    0  0.41393143341E+02 -0.90135270108E+02  0.21827738588E+03  0.23975565983E+03  0.00000000000E+00 0.  1.
         12    1    4    4    0    0 -0.20633669566E+02 -0.14523919634E+02  0.14735345387E+02  0.29220249229E+02  0.00000000000E+00 0. -1.
        -11    1    3    3    0    0  0.11118881830E+02  0.27613721297E+02  0.50009771399E+02  0.58199006628E+02  0.00000000000E+00 0. -1.
         11    1    3    3    0    0  0.71526657527E+02 -0.48011896982E+02  0.37973561379E+03  0.38938456745E+03  0.00000000000E+00 0.  1.
         -2    1    1    2    0  502 -0.10340501313E+03  0.12505736543E+03  0.58478799212E+03  0.60688461598E+03  0.00000000000E+00 0.  1.
<scales pt_clust_5="13000.00000" pt_clust_6="13000.00000" pt_clust_7="13000.00000" pt_clust_8="13000.00000" pt_clust_9="119.59782"></scales>
<clustering>
<clus scale="   81.662">  5  6 -1 -1</clus>
<clus scale="   91.671">  7  8 -1 -1</clus>
<clus scale="  125.100">  1  7  2 -1</clus>
<clus scale="  119.598">  2  9  1 -1</clus>
<clus scale="  119.598">  2  5  1 -1</clus>
</clustering>
</event>
<event>
 9    2  0.6190160E-005  0.9390716E+02  0.7546771E-02  0.1299892E+00
          2   -1    0    0  502    0 -0.00000000000E+00  0.00000000000E+00  0.13449773621E+03  0.13449773621E+03  0.00000000000E+00 0. -1.
         21   -1    0    0  501  502  0.00000000000E+00 -0.00000000000E+00 -0.17562812248E+03  0.17562812248E+03  0.00000000000E+00 0.  1.
         23    2    1    2    0    0  0.23298605203E+02 -0.18612431796E+02  0.33248181403E+02  0.10133226735E+03  0.90958997454E+02 0.  0.
         24    2    1    2    0    0  0.43903765986E+02  0.33136642799E+02 -0.95988237572E+02  0.13672356128E+03  0.80336870074E+02 0.  0.
        -13    1    4    4    0    0  0.63660231432E+02  0.26356897506E+02 -0.92819092663E+02  0.11559712399E+03  0.00000000000E+00 0.  1.
         14    1    4    4    0    0 -0.19756465445E+02  0.67797452931E+01 -0.31691449095E+01  0.21126437291E+02  0.00000000000E+00 0. -1.
        -11    1    3    3    0    0 -0.13781000472E+01 -0.53170094083E+02  0.20420231139E+02  0.56973185836E+02  0.00000000000E+00 0.  1.
         11    1    3    3    0    0  0.24676705251E+02  0.34557662287E+02  0.12827950264E+02  0.44359081514E+02  0.00000000000E+00 0. -1.
          1    1    1    2  501    0 -0.67202371190E+02 -0.14524211003E+02  0.21609669896E+02  0.72070030053E+02  0.00000000000E+00 0. -1.
<scales pt_clust_5="13000.00000" pt_clust_6="13000.00000" pt_clust_7="13000.00000" pt_clust_8="13000.00000" pt_clust_9="68.75403"></scales>
<clustering>
<clus scale="   68.754">  2  9  1 -1</clus>
<clus scale="   80.337">  5  6 -1 -1</clus>
<clus scale="   83.660">  2  5  1 -1</clus>
<clus scale="   90.959">  7  8 -1 -1</clus>
<clus scale="   68.754">  2  5  1 -1</clus>
</clustering>
</event>
<event>
 9    2  0.6190160E-005  0.1425261E+03  0.7546771E-02  0.1231533E+00
          2   -1    0    0  502    0 -0.00000000000E+00  0.00000000000E+00  0.87834511073E+03  0.87834511073E+03  0.00000000000E+00 0. -1.
         21   -1    0    0  501  502  0.00000000000E+00 -0.00000000000E+00 -0.53249118751E+02  0.53249118751E+02  0.00000000000E+00 0. -1.
         24    2    1    2    0    0  0.15750748456E+02 -0.38990494419E+02  0.52281093110E+03  0.53061625787E+03  0.80336783052E+02 0.  0.
         23    2    1    2    0    0  0.45714959488E+02 -0.70057381282E+02  0.21854569148E+03  0.25037334208E+03  0.89031999676E+02 0.  0.
        -11    1    3    3    0    0 -0.14357174966E+02 -0.14498984029E+02  0.30012532011E+02  0.36291887366E+02  0.00000000000E+00 0.  1.
         12    1    3    3    0    0  0.30107923422E+02 -0.24491510390E+02  0.49279839909E+03  0.49432437051E+03  0.00000000000E+00 0. -1.
        -13    1    4    4    0    0  0.49478251364E+02 -0.25921117226E+02  0.18911433488E+03  0.19719085509E+03  0.00000000000E+00 0.  1.
         13    1    4    4    0    0 -0.37632918758E+01 -0.44136264056E+02  0.29431356603E+02  0.53182486986E+02  0.00000000000E+00 0. -1.
          1    1    1    2  501    0 -0.61465707944E+02  0.10904787570E+03  0.83739369401E+02  0.15060462953E+03  0.00000000000E+00 0. -1.
<scales pt_clust_5="13000.00000" pt_clust_6="13000.00000" pt_clust_7="13000.00000" pt_clust_8="13000.00000" pt_clust_9="111.29688"></scales>
<clustering>
<clus scale="   80.337">  5  6 -1 -1</clus>
<clus scale="   89.032">  7  8 -1 -1</clus>
<clus scale="   90.677">  1  5  2 -1</clus>
<clus scale="  111.297">  2  9  1 -1</clus>
<clus scale="  111.297">  2  5  1 -1</clus>
</clustering>
</event>
<event>
 9    2  0.6190160E-005  0.1443168E+03  0.7546771E-02  0.1223095E+00
         21   -1    0    0  501  502  0.00000000000E+00  0.00000000000E+00  0.90076076236E+03  0.90076076236E+03  0.00000000000E+00 0.  1.
         -1   -1    0    0    0  501 -0.00000000000E+00 -0.00000000000E+00 -0.24888223107E+03  0.24888223107E+03  0.00000000000E+00 0.  1.
         24    2    1    2    0    0 -0.46336961249E+02 -0.30691004710E+02  0.33212571270E+03  0.34804237291E+03  0.87959948616E+02 0.  0.
         23    2    1    2    0    0  0.52865085539E+02 -0.80807973027E+02 -0.21621807764E+03  0.25411597227E+03  0.92195577386E+02 0.  0.
        -11    1    3    3    0    0  0.20845842468E+02  0.79150541923E+01  0.39788382043E+02  0.45610443724E+02  0.00000000000E+00 0.  1.
         12    1    3    3    0    0 -0.67182803717E+02 -0.38606058902E+02  0.29233733065E+03  0.30243192919E+03  0.00000000000E+00 0. -1.
        -11    1    4    4    0    0  0.12839500437E+02 -0.34886808391E+02 -0.17880375721E+03  0.18262728647E+03  0.00000000000E+00 0.  1.
         11    1    4    4    0    0  0.40025585102E+02 -0.45921164635E+02 -0.37414320438E+02  0.71488685805E+02  0.00000000000E+00 0. -1.
         -2    1    1    2    0  502 -0.65281242906E+01  0.11149897774E+03  0.53597089624E+03  0.54748464824E+03  0.00000000000E+00 0.  1.
<scales pt_clust_5="13000.00000" pt_clust_6="13000.00000" pt_clust_7="13000.00000" pt_clust_8="13000.00000" pt_clust_9="111.02847"></scales>
<clustering>
<clus scale="   87.960">  5  6 -1 -1</clus>
<clus scale="   92.196">  7  8 -1 -1</clus>
<clus scale="  104.048">  2  5  1 -1</clus>
<clus scale="  111.028">  1  9  2 -1</clus>
<clus scale="  111.028">  1  5  2 -1</clus>
</clustering>
</event>
<event>
 9    2  0.6190160E-005  0.9810128E+02  0.7546771E-02  0.1291160E+00
         -1   -1    0    0    0  501 -0.00000000000E+00  0.00000000000E+00  0.50189641380E+02  0.50189641380E+02  0.00000000000E+00 0.  1.
         21   -1    0    0  501  502  0.00000000000E+00 -0.00000000000E+00 -0.32398549247E+03  0.32398549247E+03  0.00000000000E+00 0.  1.
         24    2    1    2    0    0 -0.51477596041E+01 -0.26127287439E+02 -0.24144597129E+02  0.88193732696E+02  0.80535944388E+02 0.  0.
         23    2    1    2    0    0  0.11174273760E+00  0.50680197243E+02 -0.23277820417E+03  0.25576705597E+03  0.93073087969E+02 0.  0.
        -13    1    3    3    0    0  0.13490732454E+02 -0.48202086182E+02 -0.30496180847E+02  0.58612780353E+02  0.00000000000E+00 0.  1.
         14    1    3    3    0    0 -0.18638492058E+02  0.22074798743E+02  0.63515837176E+01  0.29580952342E+02  0.00000000000E+00 0. -1.
        -13    1    4    4    0    0  0.40751648243E+02  0.12684244926E+02 -0.15057171070E+03  0.15650376024E+03  0.00000000000E+00 0.  1.
         13    1    4    4    0    0 -0.40639905505E+02  0.37995952317E+02 -0.82206493469E+02  0.99263295736E+02  0.00000000000E+00 0. -1.
         -2    1    1    2    0  502  0.50360168665E+01 -0.24552909804E+02 -0.16873049791E+02  0.30214345185E+02  0.00000000000E+00 0.  1.
<scales pt_clust_5="13000.00000" pt_clust_6="13000.00000" pt_clust_7="13000.00000" pt_clust_8="13000.00000" pt_clust_9="25.06407"></scales>
<clustering>
<clus scale="   25.064">  2  9  1 -1</clus>
<clus scale="   80.536">  5  6 -1 -1</clus>
<clus scale="   86.298">  1  5  2 -1</clus>
<clus scale="   93.073">  7  8 -1 -1</clus>
<clus scale="   25.064">  2  5  1 -1</clus>
</clustering>
</event>
<event>
 9    2  0.6190160E-005  0.3724290E+03  0.7546771E-02  0.1054048E+00
          2   -1    0    0  502    0 -0.00000000000E+00  0.00000000000E+00  0.10681288572E+04  0.10681288572E+04  0.00000000000E+00 0. -1.
         21   -1    0    0  501  502  0.00000000000E+00 -0.00000000000E+00 -0.17737645310E+03  0.17737645310E+03  0.00000000000E+00 0. -1.
         24    2    1    2    0    0  0.83591681889E+02  0.35929935495E+03  0.59654984021E+03  0.70582248294E+03  0.78930791377E+02 0.  0.
         23    2    1    2    0    0 -0.13048676656E+03 -0.32158083092E+03  0.16078627051E+03  0.39332114055E+03  0.91696607140E+02 0.  0.
        -11    1    3    3    0    0  0.27800670998E+02  0.11052309672E+03  0.25764107450E+03  0.28172176964E+03  0.00000000000E+00 0.  1.
         12    1    3    3    0    0  0.55791010891E+02  0.24877625823E+03  0.33890876571E+03  0.42410071331E+03  0.00000000000E+00 0. -1.
        -13    1    4    4    0    0 -0.87482167061E+02 -0.28692669356E+03  0.15539831652E+03  0.33782938565E+03  0.00000000000E+00 0. -1.
         13    1    4    4    0    0 -0.43004599496E+02 -0.34654137353E+02  0.53879539867E+01  0.55491754898E+02  0.00000000000E+00 0.  1.
          1    1    1    2  501    0  0.46895084669E+02 -0.37718524034E+02  0.13341629334E+03  0.14636168675E+03  0.00000000000E+00 0. -1.
<scales pt_clust_5="13000.00000" pt_clust_6="13000.00000" pt_clust_7="13000.00000" pt_clust_8="13000.00000" pt_clust_9="60.18172"></scales>
<clustering>
<clus scale="   60.182">  2  9  1 -1</clus>
<clus scale="   78.931">  5  6 -1 -1</clus>
<clus scale="   91.697">  7  8 -1 -1</clus>
<clus scale="  369.493">  1  5  2 -1</clus>
<clus scale="   60.182">  2  5  1 -1</clus>
</clustering>
</event>
<event>
 9    2  0.6190160E-005  0.8992283E+02  0.7546771E-02  0.1307790E+00
          2   -1    0    0  502    0 -0.00000000000E+00  0.00000000000E+00  0.13119578005E+03  0.13119578005E+03  0.00000000000E+00 0. -1.
         21   -1    0    0  501  502  0.00000000000E+00 -0.00000000000E+00 -0.10471769649E+03  0.10471769649E+03  0.00000000000E+00 0.  1.
         23    2    1    2    0    0  0.57329133100E+01 -0.61573725274E+01  0.56379677556E+02  0.10537621521E+03  0.88626740650E+02 0.  0.
         24    2    1    2    0    0 -0.38613582412E+02 -0.81764701784E+01 -0.28919802201E+02  0.94654656038E+02  0.81026449626E+02 0.  0.
        -13    1    4    4    0    0 -0.49016290034E+02 -0.13085523396E+02 -0.49625450606E+02  0.70968394086E+02  0.00000000000E+00 0.  1.
         14    1    4    4    0    0  0.10402707622E+02  0.49090532179E+01  0.20705648405E+02  0.23686261952E+02  0.00000000000E+00 0. -1.
        -13    1    3    3    0    0 -0.25170456911E+02  0.26842777935E+02  0.53255977661E+01  0.37181293952E+02  0.00000000000E+00 0. -1.
         13    1    3    3    0    0  0.30903370221E+02 -0.33000150463E+02  0.51054079790E+02  0.68194921254E+02  0.00000000000E+00 0.  1.
          1    1    1    2  501    0  0.32880669102E+02  0.14333842706E+02 -0.98179179858E+00  0.35882605291E+02  0.00000000000E+00 0. -1.
<scales pt_clust_5="13000.00000" pt_clust_6="13000.00000" pt_clust_7="13000.00000" pt_clust_8="13000.00000" pt_clust_9="35.86917"></scales>
<clustering>
<clus scale="   35.869">  2  9  1 -1</clus>
<clus scale="   81.026">  5  6 -1 -1</clus>
<clus scale="   82.442">  2  5  1 -1</clus>
<clus scale="   88.627">  7  8 -1 -1</clus>
<clus scale="   35.869">  2  5  1 -1</clus>
</clustering>
</event>
<event>
 9    2  0.6190160E-005  0.9441054E+02  0.7546771E-02  0.1296022E+00
          2   -1    0    0  502    0 -0.00000000000E+00  0.00000000000E+00  0.31124387519E+03  0.31124387519E+03  0.00000000000E+00 0. -1.
         21   -1    0    0  501  502  0.00000000000E+00 -0.00000000000E+00 -0.21331077101E+03  0.21331077101E+03  0.00000000000E+00 0. -1.
         24    2    1    2    0    0  0.33271768547E+02  0.11639199604E+02  0.27877558326E+03  0.29270348472E+03  0.81957443790E+02 0.  0.
         23    2    1    2    0    0  0.15738990583E+02 -0.26987758085E+02 -0.11617729246E+03  0.14927259816E+03  0.88369057752E+02 0.  0.
        -13    1    3    3    0    0  0.67664797393E+01 -0.34935362415E+02  0.10682273253E+03  0.11259378749E+03  0.00000000000E+00 0.  1.
         14    1    3    3    0    0  0.26505288808E+02  0.46574562018E+02  0.17195285073E+03  0.18010969723E+03  0.00000000000E+00 0. -1.
        -13    1    4    4    0    0  0.24685878819E+02  0.27918603046E+02 -0.56535797081E+02  0.67713642353E+02  0.00000000000E+00 0. -1.
         13    1    4    4    0    0 -0.89468882363E+01 -0.54906361131E+02 -0.59641495375E+02  0.81558955807E+02  0.00000000000E+00 0.  1.
          1    1    1    2  501    0 -0.49010759130E+02  0.15348558481E+02 -0.64665186626E+02  0.82578563316E+02  0.00000000000E+00 0. -1.
<scales pt_clust_5="13000.00000" pt_clust_6="13000.00000" pt_clust_7="13000.00000" pt_clust_8="13000.00000" pt_clust_9="51.35789"></scales>
<clustering>
<clus scale="   51.358">  2  9  1 -1</clus>
<clus scale="   81.957">  5  6 -1 -1</clus>
<clus scale="   88.369">  7  8 -1 -1</clus>
<clus scale="   88.438">  1  5  2 -1</clus>
<clus scale="   51.358">  2  5  1 -1</clus>
</clustering>
</event>
<event>
 9    2  0.6190160E-005  0.2178343E+03  0.7546771E-02  0.1135508E+00
          4   -1    0    0  502    0 -0.00000000000E+00  0.00000000000E+00  0.35696787749E+02  0.35696787749E+02  0.00000000000E+00 0. -1.
         21   -1    0    0  501  502  0.00000000000E+00 -0.00000000000E+00 -0.77967095304E+03  0.77967095304E+03  0.00000000000E+00 0. -1.
         24    2    1    2    0    0  0.89997484092E+02 -0.28035402029E+02 -0.23310958880E+03  0.26430375853E+03  0.81430126326E+02 0.  0.
         23    2    1    2    0    0  0.17536001555E+02  0.86811838154E+01 -0.18146853744E+03  0.20401962365E+03  0.91160860302E+02 0.  0.
        -11    1    3    3    0    0  0.50410069069E+02 -0.48577072501E+02 -0.87738999820E+02  0.11224544145E+03  0.00000000000E+00 0.  1.
         12    1    3    3    0    0  0.39587415023E+02  0.20541670472E+02 -0.14537058898E+03  0.15205831708E+03  0.00000000000E+00 0. -1.
        -11    1    4    4    0    0  0.38045447221E+01  0.37804667748E+02 -0.16199341943E+03  0.16638970942E+03  0.00000000000E+00 0.  1.
         11    1    4    4    0    0  0.13731456833E+02 -0.29123483932E+02 -0.19475118010E+02  0.37629914225E+02  0.00000000000E+00 0. -1.
          3    1    1    2  501    0 -0.10753348565E+03  0.19354218213E+02 -0.32939603905E+03  0.34704435861E+03  0.00000000000E+00 0. -1.
<scales pt_clust_5="13000.00000" pt_clust_6="13000.00000" pt_clust_7="13000.00000" pt_clust_8="13000.00000" pt_clust_9="109.26132"></scales>
<clustering>
<clus scale="   81.430">  5  6 -1 -1</clus>
<clus scale="   91.161">  7  8 -1 -1</clus>
<clus scale="   92.569">  5  7 -1 -1</clus>
<clus scale="  109.261">  2  9  1 -1</clus>
<clus scale="  109.261">  2  5  1 -1</clus>
</clustering>
</event>
<event>
 9    2  0.6190160E-005  0.9832500E+02  0.7546771E-02  0.1291134E+00
          2   -1    0    0  502    0 -0.00000000000E+00  0.00000000000E+00  0.22141941110E+03  0.22141941110E+03  0.00000000000E+00 0. -1.
         21   -1    0    0  501  502  0.00000000000E+00 -0.00000000000E+00 -0.67063043398E+02  0.67063043398E+02  0.00000000000E+00 0. -1.
         23    2    1    2    0    0  0.42673319204E+02 -0.84714080023E+01  0.10659788905E+03  0.14691106897E+03  0.91252261953E+02 0.  0.
         24    2    1    2    0    0 -0.30325138909E+02 -0.14270261187E+02  0.68220086624E+02  0.10858141016E+03  0.77541524415E+02 0.  0.
        -13    1    4    4    0    0  0.24482180098E+02  0.97354571228E+00  0.34937986212E+02  0.42673033806E+02  0.00000000000E+00 0.  1.
         14    1    4    4    0    0 -0.54807319007E+02 -0.15243806900E+02  0.33282100412E+02  0.65908376352E+02  0.00000000000E+00 0. -1.
        -13    1    3    3    0    0  0.30465378697E+02  0.38716861033E+02  0.35558983906E+02  0.60758340693E+02  0.00000000000E+00 0.  1.
         13    1    3    3    0    0  0.12207940507E+02 -0.47188269035E+02  0.71038905146E+02  0.86152728281E+02  0.00000000000E+00 0. -1.
          1    1    1    2  501    0 -0.12348180295E+02  0.22741669190E+02 -0.20461607970E+02  0.32989975369E+02  0.00000000000E+00 0. -1.
<scales pt_clust_5="13000.00000" pt_clust_6="13000.00000" pt_clust_7="13000.00000" pt_clust_8="13000.00000" pt_clust_9="25.87781"></scales>
<clustering>
<clus scale="   25.878">  2  9  1 -1</clus>
<clus scale="   77.542">  5  6 -1 -1</clus>
<clus scale="   85.753">  2  5  1 -1</clus>
<clus scale="   91.252">  7  8 -1 -1</clus>
<clus scale="   25.878">  2  5  1 -1</clus>
</clustering>
</event>
<event>
 9    2  0.6190160E-005  0.9938675E+02  0.7546771E-02  0.1287346E+00
         21   -1    0    0  501  502  0.00000000000E+00  0.00000000000E+00  0.41916939541E+03  0.41916939541E+03  0.00000000000E+00 0. -1.
         -3   -1    0    0    0  501 -0.00000000000E+00 -0.00000000000E+00 -0.35591243901E+02  0.35591243901E+02  0.00000000000E+00 0.  1.
         23    2    1    2    0    0  0.91855050692E+01 -0.33392763974E+02  0.96980393566E+02  0.13744636177E+03  0.91032167058E+02 0.  0.
         24    2    1    2    0    0  0.16231762531E+02  0.48897392727E+02  0.15001829884E+03  0.17752736951E+03  0.79724850646E+02 0.  0.
        -13    1    4    4    0    0 -0.14022897859E+02  0.57096436562E+02  0.68968774356E+02  0.90627460345E+02  0.00000000000E+00 0.  1.
         14    1    4    4    0    0  0.30254660389E+02 -0.81990438349E+01  0.81049524481E+02  0.86899909170E+02  0.00000000000E+00 0. -1.
        -13    1    3    3    0    0 -0.30161402477E+02 -0.44282118158E+02  0.37881950701E+02  0.65617515778E+02  0.00000000000E+00 0.  1.
         13    1    3    3    0    0  0.39346907546E+02  0.10889354184E+02  0.59098442865E+02  0.71828845995E+02  0.00000000000E+00 0. -1.
         -4    1    1    2    0  502 -0.25417267600E+02 -0.15504628753E+02  0.13657945910E+03  0.13978690802E+03  0.00000000000E+00 0.  1.
<scales pt_clust_5="13000.00000" pt_clust_6="13000.00000" pt_clust_7="13000.00000" pt_clust_8="13000.00000" pt_clust_9="29.77299"></scales>
<clustering>
<clus scale="   29.773">  1  9  2 -1</clus>
<clus scale="   79.725">  5  6 -1 -1</clus>
<clus scale="   89.146">  1  5  2 -1</clus>
<clus scale="   91.032">  7  8 -1 -1</clus>
<clus scale="   29.773">  1  5  2 -1</clus>
</clustering>
</event>
<event>
 9    2  0.6190160E-005  0.1045774E+03  0.7546771E-02  0.1277658E+00
          2   -1    0    0  502    0 -0.00000000000E+00  0.00000000000E+00  0.28501278963E+03  0.28501278963E+03  0.00000000000E+00 0. -1.
         21   -1    0    0  501  502  0.00000000000E+00 -0.00000000000E+00 -0.28594724973E+03  0.28594724973E+03  0.00000000000E+00 0.  1.
         23    2    1    2    0    0  0.27872834019E+02  0.42677122859E+02  0.26230094033E+03  0.28252517376E+03  0.91763058020E+02 0.  0.
         24    2    1    2    0    0 -0.39008286859E+02 -0.14460855759E+02 -0.19494925406E+03  0.21371436090E+03  0.77057469474E+02 0.  0.
        -11    1    4    4    0    0 -0.47025882561E+02 -0.13905522203E+02 -0.19883110385E+03  0.20478917216E+03  0.00000000000E+00 0.  1.
         12    1    4    4    0    0  0.80175957015E+01 -0.55533355580E+00  0.38818497852E+01  0.89251887344E+01  0.00000000000E+00 0. -1.
        -11    1    3    3    0    0  0.38513366916E+02 -0.17167441792E+02  0.13548335514E+03  0.14189341074E+03  0.00000000000E+00 0. -1.
         11    1    3    3    0    0 -0.10640532897E+02  0.59844564651E+02  0.12681758518E+03  0.14063176302E+03  0.00000000000E+00 0.  1.
          1    1    1    2  501    0  0.11135452840E+02 -0.28216267100E+02 -0.68286146360E+02  0.74720504707E+02  0.00000000000E+00 0. -1.
<scales pt_clust_5="13000.00000" pt_clust_6="13000.00000" pt_clust_7="13000.00000" pt_clust_8="13000.00000" pt_clust_9="30.33407"></scales>
<clustering>
<clus scale="   30.334">  2  9  1 -1</clus>
<clus scale="   77.057">  5  6 -1 -1</clus>
<clus scale="   91.763">  7  8 -1 -1</clus>
<clus scale="   91.945">  2  5  1 -1</clus>
<clus scale="   30.334">  2  5  1 -1</clus>
</clustering>
</event>
<event>
 9    2  0.6190160E-005  0.1178367E+03  0.7546771E-02  0.1250421E+00
          2   -1    0    0  502    0 -0.00000000000E+00  0.00000000000E+00  0.92850873551E+03  0.92850873551E+03  0.00000000000E+00 0. -1.
         21   -1    0    0  501  502  0.00000000000E+00 -0.00000000000E+00 -0.24938870725E+02  0.24938870725E+02  0.00000000000E+00 0.  1.
         24    2    1    2    0    0  0.60242009494E+02 -0.46933418602E+02  0.69654016064E+03  0.70533436051E+03  0.80600987845E+02 0.  0.
         23    2    1    2    0    0 -0.38472540982E+02  0.54654693493E+02  0.16755972859E+03  0.20238134422E+03  0.91731531717E+02 0.  0.
        -13    1    3    3    0    0  0.21930232463E+02 -0.15846442291E+02  0.49465975659E+02  0.56381979187E+02  0.00000000000E+00 0.  1.
         14    1    3    3    0    0  0.38311777031E+02 -0.31086976311E+02  0.64707418498E+03  0.64895238132E+03  0.00000000000E+00 0. -1.
        -13    1    4    4    0    0  0.59603801313E+01  0.66133321957E+02  0.84290629171E+02  0.10730355339E+03  0.00000000000E+00 0.  1.
         13    1    4    4    0    0 -0.44432921113E+02 -0.11478628464E+02  0.83269099424E+02  0.95077790829E+02  0.00000000000E+00 0. -1.
          1    1    1    2  501    0 -0.21769468512E+02 -0.77212748911E+01  0.39469975548E+02  0.45731901502E+02  0.00000000000E+00 0. -1.
<scales pt_clust_5="13000.00000" pt_clust_6="13000.00000" pt_clust_7="13000.00000" pt_clust_8="13000.00000" pt_clust_9="23.09822"></scales>
<clustering>
<clus scale="   23.098">  2  9  1 -1</clus>
<clus scale="   80.601">  5  6 -1 -1</clus>
<clus scale="   91.732">  7  8 -1 -1</clus>
<clus scale="  109.395">  1  5  2 -1</clus>
<clus scale="   23.098">  2  5  1 -1</clus>
</clustering>
</event>
<event>
 9    2  0.6190160E-005  0.1146890E+03  0.7546771E-02  0.1257510E+00
         21   -1    0    0  501  502  0.00000000000E+00  0.00000000000E+00  0.30082399604E+03  0.30082399604E+03  0.00000000000E+00 0.  1.
         -3   -1    0    0    0  501 -0.00000000000E+00 -0.00000000000E+00 -0.10081757518E+03  0.10081757518E+03  0.00000000000E+00 0.  1.
         24    2    1    2    0    0  0.80801140274E+02  0.25482290288E+02 -0.16528139141E+02  0.11682582066E+03  0.78720528457E+02 0.  0.
         23    2    1    2    0    0  0.21882123305E+01 -0.28831171166E+02  0.14669983538E+03  0.17630152840E+03  0.93409648931E+02 0.  0.
        -13    1    3    3    0    0  0.36306305762E+02  0.41952733974E+02 -0.35347098094E+02  0.65784474381E+02  0.00000000000E+00 0.  1.
         14    1    3    3    0    0  0.44494834511E+02 -0.16470443686E+02  0.18818958953E+02  0.51041346274E+02  0.00000000000E+00 0. -1.
        -13    1    4    4    0    0 -0.34310034525E+02 -0.44564227898E+02  0.10207244074E+03  0.11654154639E+03  0.00000000000E+00 0. -1.
         13    1    4    4    0    0  0.36498246855E+02  0.15733056732E+02  0.44627394641E+02  0.59759982012E+02  0.00000000000E+00 0.  1.
         -4    1    1    2    0  502 -0.82989352604E+02  0.33488808775E+01  0.69834724625E+02  0.10851422217E+03  0.00000000000E+00 0.  1.
<scales pt_clust_5="13000.00000" pt_clust_6="13000.00000" pt_clust_7="13000.00000" pt_clust_8="13000.00000" pt_clust_9="83.05689"></scales>
<clustering>
<clus scale="   78.721">  5  6 -1 -1</clus>
<clus scale="   83.057">  1  9  2 -1</clus>
<clus scale="   93.410">  7  8 -1 -1</clus>
<clus scale="  103.078">  2  5  1 -1</clus>
<clus scale="   83.057">  1  5  2 -1</clus>
</clustering>
</event>
<event>
 9    2  0.6190160E-005  0.1287120E+03  0.7546771E-02  0.1237491E+00
         21   -1    0    0  501  502  0.00000000000E+00  0.00000000000E+00  0.28494655721E+03  0.28494655721E+03  0.00000000000E+00 0. -1.
         -1   -1    0    0    0  501 -0.00000000000E+00 -0.00000000000E+00 -0.11196797361E+03  0.11196797361E+03  0.00000000000E+00 0.  1.
         24    2    1    2    0    0  0.76857151467E+02  0.37082066455E+02 -0.24092524324E+02  0.10647518883E+03  0.58944166164E+02 0.  0.
         23    2    1    2    0    0 -0.98645142131E+02 -0.44839170014E+02  0.63237525620E+02  0.15462212310E+03  0.90374781170E+02 0.  0.
        -13    1    3    3    0    0  0.64858084591E+02  0.38096555505E+01 -0.28280675578E+02  0.70858176828E+02  0.00000000000E+00 0.  1.
         14    1    3    3    0    0  0.11999066876E+02  0.33272410905E+02  0.41881512541E+01  0.35617012006E+02  0.00000000000E+00 0. -1.
        -13    1    4    4    0    0 -0.57082469366E+01 -0.34999857954E+02 -0.89013761179E+01  0.36562393749E+02  0.00000000000E+00 0.  1.
         13    1    4    4    0    0 -0.92936895195E+02 -0.98393120605E+01  0.72138901738E+02  0.11805972935E+03  0.00000000000E+00 0. -1.
         -2    1    1    2    0  502  0.21787990664E+02  0.77571035593E+01  0.13383358231E+03  0.13581721888E+03  0.00000000000E+00 0.  1.
<scales pt_clust_5="13000.00000" pt_clust_6="13000.00000" pt_clust_7="13000.00000" pt_clust_8="13000.00000" pt_clust_9="23.12767"></scales>
<clustering>
<clus scale="   23.128">  1  9  2 -1</clus>
<clus scale="   58.944">  5  6 -1 -1</clus>
<clus scale="   90.375">  7  8 -1 -1</clus>
<clus scale="  108.966">  2  5  1 -1</clus>
<clus scale="   23.128">  1  5  2 -1</clus>
</clustering>
</event>
<event>
 9    2  0.6190160E-005  0.1245384E+03  0.7546771E-02  0.1238673E+00
         21   -1    0    0  501  502  0.00000000000E+00  0.00000000000E+00  0.46611502785E+03  0.46611502785E+03  0.00000000000E+00 0.  1.
         -3   -1    0    0    0  501 -0.00000000000E+00 -0.00000000000E+00 -0.68515677069E+02  0.68515677069E+02  0.00000000000E+00 0.  1.
         24    2    1    2    0    0 -0.66392872520E+02  0.85376772998E+02  0.61348293017E+02  0.14835085979E+03  0.80914508304E+02 0.  0.
         23    2    1    2    0    0  0.47969561015E+02 -0.31857434640E+02  0.11335614375E+03  0.15631054136E+03  0.90925217009E+02 0.  0.
        -11    1    3    3    0    0 -0.11363648743E+02  0.47627374953E+02  0.65163442382E+02  0.81509346585E+02  0.00000000000E+00 0.  1.
         12    1    3    3    0    0 -0.55029223777E+02  0.37749398044E+02 -0.38151493650E+01  0.66841513200E+02  0.00000000000E+00 0. -1.
        -13    1    4    4    0    0  0.47856384180E+02 -0.76418648513E+01  0.91388362563E+01  0.49316832150E+02  0.00000000000E+00 0. -1.
         13    1    4    4    0    0  0.11317683500E+00 -0.24215569789E+02  0.10421730749E+03  0.10699370921E+03  0.00000000000E+00 0.  1.
         -4    1    1    2    0  502  0.18423311505E+02 -0.53519338357E+02  0.22289491402E+03  0.22996930378E+03  0.00000000000E+00 0.  1.
<scales pt_clust_5="13000.00000" pt_clust_6="13000.00000" pt_clust_7="13000.00000" pt_clust_8="13000.00000" pt_clust_9="56.60157"></scales>
<clustering>
<clus scale="   56.602">  1  9  2 -1</clus>
<clus scale="   80.915">  5  6 -1 -1</clus>
<clus scale="   90.925">  7  8 -1 -1</clus>
<clus scale="  117.429">  2  5  1 -1</clus>
<clus scale="   56.602">  1  5  2 -1</clus>
</clustering>
</event>
<event>
 9    2  0.6190160E-005  0.9199509E+02  0.7546771E-02  0.1304150E+00
         21   -1    0    0  501  502  0.00000000000E+00  0.00000000000E+00  0.14315357895E+03  0.14315357895E+03  0.00000000000E+00 0.  1.
          2   -1    0    0  502    0 -0.00000000000E+00 -0.00000000000E+00 -0.46884598769E+03  0.46884598769E+03  0.00000000000E+00 0. -1.
         23    2    1    2    0    0  0.16716553428E+02 -0.35387769441E+00 -0.38135149251E+03  0.39236366610E+03  0.90778396394E+02 0.  0.
         24    2    1    2    0    0  0.27820731808E+02 -0.31101681583E+01  0.11623355908E+03  0.14437079275E+03  0.80926011139E+02 0.  0.
        -13    1    4    4    0    0  0.54843238943E+02 -0.13626571733E+02  0.73091460411E+02  0.92389533497E+02  0.00000000000E+00 0.  1.
         14    1    4    4    0    0 -0.27022507135E+02  0.10516403574E+02  0.43142098674E+02  0.51981259258E+02  0.00000000000E+00 0. -1.
        -11    1    3    3    0    0 -0.34642625792E+02 -0.75776927420E+01 -0.96069981926E+02  0.10240592940E+03  0.00000000000E+00 0.  1.
         11    1    3    3    0    0  0.51359179220E+02  0.72238150476E+01 -0.28528151058E+03  0.28995773670E+03  0.00000000000E+00 0. -1.
          1    1    1    2  501    0 -0.44537285236E+02  0.34640458527E+01 -0.60574475313E+02  0.75265107781E+02  0.00000000000E+00 0. -1.
<scales pt_clust_5="13000.00000" pt_clust_6="13000.00000" pt_clust_7="13000.00000" pt_clust_8="13000.00000" pt_clust_9="44.67182"></scales>
<clustering>
<clus scale="   44.672">  1  9  2 -1</clus>
<clus scale="   80.926">  5  6 -1 -1</clus>
<clus scale="   82.289">  1  5  2 -1</clus>
<clus scale="   90.778">  7  8 -1 -1</clus>
<clus scale="   44.672">  1  5  2 -1</clus>
</clustering>
</event>
<event>
 9    2  0.6190160E-005  0.1929992E+03  0.7546771E-02  0.1186588E+00
          2   -1    0    0  502    0 -0.00000000000E+00  0.00000000000E+00  0.19987373579E+04  0.19987373579E+04  0.00000000000E+00 0. -1.
         21   -1    0    0  501  502  0.00000000000E+00 -0.00000000000E+00 -0.31363738525E+02  0.31363738525E+02  0.00000000000E+00 0. -1.
         23    2    1    2    0    0 -0.24239013275E+02  0.16122688018E+02  0.23322944811E+03  0.25203504941E+03  0.90984723079E+02 0.  0.
         24    2    1    2    0    0  0.18076216889E+03  0.39277830995E+02  0.61220059650E+03  0.64390287501E+03  0.74857413738E+02 0.  0.
        -11    1    4    4    0    0  0.83606855431E+02  0.30648519989E+02  0.17986085108E+03  0.20069719431E+03  0.00000000000E+00 0.  1.
         12    1    4    4    0    0  0.97155313458E+02  0.86293110066E+01  0.43233974542E+03  0.44320568071E+03  0.00000000000E+00 0. -1.
        -11    1    3    3    0    0  0.79431058399E+01  0.36585492192E+02  0.19301741052E+03  0.19661462797E+03  0.00000000000E+00 0.  1.
         11    1    3    3    0    0 -0.32182119115E+02 -0.20462804174E+02  0.40212037586E+02  0.55420421436E+02  0.00000000000E+00 0. -1.
          1    1    1    2  501    0 -0.15652315561E+03 -0.55400519013E+02  0.11219435748E+04  0.11341631720E+04  0.00000000000E+00 0. -1.
<scales pt_clust_5="13000.00000" pt_clust_6="13000.00000" pt_clust_7="13000.00000" pt_clust_8="13000.00000" pt_clust_9="177.89072"></scales>
<clustering>
<clus scale="   74.857">  5  6 -1 -1</clus>
<clus scale="   90.985">  7  8 -1 -1</clus>
<clus scale="   95.529">  1  7  2 -1</clus>
<clus scale="  177.891">  2  9  1 -1</clus>
<clus scale="  177.891">  2  5  1 -1</clus>
</clustering>
</event>
<event>
 9    2  0.6190160E-005  0.1070957E+03  0.7546771E-02  0.1277457E+00
         21   -1    0    0  501  502  0.00000000000E+00  0.00000000000E+00  0.21842166299E+03  0.21842166299E+03  0.00000000000E+00 0. -1.
          2   -1    0    0  502    0 -0.00000000000E+00 -0.00000000000E+00 -0.26646294614E+03  0.26646294614E+03  0.00000000000E+00 0. -1.
         23    2    1    2    0    0 -0.15102884071E+02 -0.60041897571E+01  0.52727950751E+01  0.10533046114E+03  0.10393534660E+03 0.  0.
         24    2    1    2    0    0 -0.28658459804E+02  0.79967517144E+02  0.13108936131E+03  0.17610819073E+03  0.81323816176E+02 0.  0.
        -11    1    4    4    0    0 -0.40344261826E+02  0.49961716589E+01  0.34780908243E+02  0.53500773562E+02  0.00000000000E+00 0.  1.
         12    1    4    4    0    0  0.11685802022E+02  0.74971345485E+02  0.96308453063E+02  0.12260741717E+03  0.00000000000E+00 0. -1.
        -13    1    3    3    0    0 -0.59347989160E+02 -0.11033588714E+02 -0.91959004663E+00  0.60371926780E+02  0.00000000000E+00 0. -1.
         13    1    3    3    0    0  0.44245105089E+02  0.50293989572E+01  0.61923851218E+01  0.44958534359E+02  0.00000000000E+00 0.  1.
          1    1    1    2  501    0  0.43761343874E+02 -0.73963327387E+02 -0.18440343953E+03  0.20344595727E+03  0.00000000000E+00 0. -1.
<scales pt_clust_5="13000.00000" pt_clust_6="13000.00000" pt_clust_7="13000.00000" pt_clust_8="13000.00000" pt_clust_9="85.93973"></scales>
<clustering>
<clus scale="   81.324">  5  6 -1 -1</clus>
<clus scale="   85.940">  1  9  2 -1</clus>
<clus scale="   85.940">  1  5  2 -1</clus>
<clus scale="  103.935">  7  8 -1 -1</clus>
<clus scale="   85.940">  1  5  2 -1</clus>
</clustering>
</event>
<event>
 9    2  0.6190160E-005  0.1006523E+03  0.7546771E-02  0.1283033E+00
         21   -1    0    0  501  502  0.00000000000E+00  0.00000000000E+00  0.18474364561E+03  0.18474364561E+03  0.00000000000E+00 0.  1.
         -1   -1    0    0    0  501 -0.00000000000E+00 -0.00000000000E+00 -0.10490100578E+03  0.10490100578E+03  0.00000000000E+00 0.  1.
         23    2    1    2    0    0  0.65246514573E+02  0.63568499060E+01  0.44551893046E+01  0.11119054210E+03  0.89699335205E+02 0.  0.
         24    2    1    2    0    0 -0.60113454141E+01 -0.34465932292E+02  0.69886772001E+02  0.11265758018E+03  0.81138971579E+02 0.  0.
        -11    1    4    4    0    0  0.21735981886E+02 -0.51360431021E+02  0.41505167731E+02  0.69519966424E+02  0.00000000000E+00 0.  1.
         12    1    4    4    0    0 -0.27747327300E+02  0.16894498729E+02  0.28381604270E+02  0.43137613756E+02  0.00000000000E+00 0. -1.
        -13    1    3    3    0    0  0.16393858926E+02  0.41731640256E+02  0.19707825902E+02  0.48976390340E+02  0.00000000000E+00 0.  1.
         13    1    3    3    0    0  0.48852655647E+02 -0.35374790350E+02 -0.15252636598E+02  0.62214151761E+02  0.00000000000E+00 0. -1.
         -2    1    1    2    0  502 -0.59235169159E+02  0.28109082386E+02  0.55006785230E+01  0.65796529104E+02  0.00000000000E+00 0.  1.
<scales pt_clust_5="13000.00000" pt_clust_6="13000.00000" pt_clust_7="13000.00000" pt_clust_8="13000.00000" pt_clust_9="65.56623"></scales>
<clustering>
<clus scale="   65.566">  1  9  2 -1</clus>
<clus scale="   81.139">  5  6 -1 -1</clus>
<clus scale="   89.699">  7  8 -1 -1</clus>
<clus scale="   93.104">  1  5  2 -1</clus>
<clus scale="   65.566">  1  5  2 -1</clus>
</clustering>
</event>
<event>
 9    2  0.6190160E-005  0.9618203E+02  0.7546771E-02  0.1294754E+00
         21   -1    0    0  501  502  0.00000000000E+00  0.00000000000E+00  0.72965504232E+02  0.72965504232E+02  0.00000000000E+00 0. -1.
          2   -1    0    0  502    0 -0.00000000000E+00 -0.00000000000E+00 -0.35440624090E+03  0.35440624090E+03  0.00000000000E+00 0. -1.
         23    2    1    2    0    0  0.35424920245E+02 -0.21048440899E+02 -0.21870954600E+03  0.24051628760E+03  0.91193515403E+02 0.  0.
         24    2    1    2    0    0  0.98406275166E+01 -0.22456181716E+02  0.16999835305E+02  0.85373151164E+02  0.79990389998E+02 0.  0.
        -13    1    4    4    0    0 -0.31844951513E+02 -0.11273818906E+02  0.24282873058E+02  0.41603579816E+02  0.00000000000E+00 0.  1.
         14    1    4    4    0    0  0.41685579029E+02 -0.11182362810E+02 -0.72830377531E+01  0.43769571347E+02  0.00000000000E+00 0. -1.
        -13    1    3    3    0    0  0.26871803575E+02 -0.51353355723E+02 -0.83209587321E+02  0.10140560336E+03  0.00000000000E+00 0.  1.
         13    1    3    3    0    0  0.85531166696E+01  0.30304914824E+02 -0.13549995868E+03  0.13911068424E+03  0.00000000000E+00 0. -1.
          1    1    1    2  501    0 -0.45265547761E+02  0.43504622615E+02 -0.79731025974E+02  0.10148230637E+03  0.00000000000E+00 0. -1.
<scales pt_clust_5="13000.00000" pt_clust_6="13000.00000" pt_clust_7="13000.00000" pt_clust_8="13000.00000" pt_clust_9="62.78237"></scales>
<clustering>
<clus scale="   62.782">  1  9  2 -1</clus>
<clus scale="   79.990">  5  6 -1 -1</clus>
<clus scale="   85.634">  1  5  2 -1</clus>
<clus scale="   91.194">  7  8 -1 -1</clus>
<clus scale="   62.782">  1  5  2 -1</clus>
</clustering>
</event>
<event>
 9    2  0.6190160E-005  0.9931985E+02  0.7546771E-02  0.1286844E+00
          2   -1    0    0  502    0 -0.00000000000E+00  0.00000000000E+00  0.78059622587E+03  0.78059622587E+03  0.00000000000E+00 0. -1.
         21   -1    0    0  501  502  0.00000000000E+00 -0.00000000000E+00 -0.18754460808E+02  0.18754460808E+02  0.00000000000E+00 0. -1.
         24    2    1    2    0    0 -0.25180325020E+02  0.32195356782E+02  0.36619931962E+03  0.37736280166E+03  0.81425749128E+02 0.  0.
         23    2    1    2    0    0  0.43115896251E+02 -0.48788996180E+01  0.35850046354E+03  0.37251667756E+03  0.91451126469E+02 0.  0.
        -13    1    3    3    0    0 -0.18778904771E+02 -0.25465878695E+02  0.16305305518E+03  0.16609472311E+03  0.00000000000E+00 0.  1.
         14    1    3    3    0    0 -0.64014202488E+01  0.57661235477E+02  0.20314626445E+03  0.21126807856E+03  0.00000000000E+00 0. -1.
        -13    1    4    4    0    0 -0.56211351209E+01  0.35182251586E+02  0.17146794534E+03  0.17513036364E+03  0.00000000000E+00 0. -1.
         13    1    4    4    0    0  0.48737031372E+02 -0.40061151204E+02  0.18703251820E+03  0.19738631393E+03  0.00000000000E+00 0.  1.
          1    1    1    2  501    0 -0.17935571231E+02 -0.27316457164E+02  0.37141981901E+02  0.49471207454E+02  0.00000000000E+00 0. -1.
<scales pt_clust_5="13000.00000" pt_clust_6="13000.00000" pt_clust_7="13000.00000" pt_clust_8="13000.00000" pt_clust_9="32.67833"></scales>
<clustering>
<clus scale="   32.678">  2  9  1 -1</clus>
<clus scale="   81.426">  5  6 -1 -1</clus>
<clus scale="   90.174">  1  5  2 -1</clus>
<clus scale="   91.451">  7  8 -1 -1</clus>
<clus scale="   32.678">  2  5  1 -1</clus>
</clustering>
</event>
<event>
 9    2  0.6190160E-005  0.1128611E+03  0.7546771E-02  0.1259843E+00
         21   -1    0    0  501  502  0.00000000000E+00  0.00000000000E+00  0.13352324796E+03  0.13352324796E+03  0.00000000000E+00 0.  1.
         -3   -1    0    0    0  501 -0.00000000000E+00 -0.00000000000E+00 -0.17807612720E+03  0.17807612720E+03  0.00000000000E+00 0.  1.
         24    2    1    2    0    0  0.61935791363E+02 -0.59099959067E+02 -0.63498383993E+02  0.13450486276E+03  0.82040635810E+02 0.  0.
         23    2    1    2    0    0  0.34861006773E+01  0.28793243773E+02  0.33139269337E+02  0.10360992963E+03  0.93784873838E+02 0.  0.
        -11    1    3    3    0    0  0.50897737047E+02 -0.37188148599E+02 -0.82248147164E+02  0.10362574846E+03  0.00000000000E+00 0.  1.
         12    1    3    3    0    0  0.11038054316E+02 -0.21911810467E+02  0.18749763171E+02  0.30879114301E+02  0.00000000000E+00 0. -1.
        -11    1    4    4    0    0  0.27928621999E+02  0.55334153408E+02  0.18647290642E+02  0.64727103353E+02  0.00000000000E+00 0.  1.
         11    1    4    4    0    0 -0.24442521322E+02 -0.26540909635E+02  0.14491978695E+02  0.38882826277E+02  0.00000000000E+00 0. -1.
         -4    1    1    2    0  502 -0.65421892040E+02  0.30306715293E+02 -0.14193764586E+02  0.73484582758E+02  0.00000000000E+00 0.  1.
<scales pt_clust_5="13000.00000" pt_clust_6="13000.00000" pt_clust_7="13000.00000" pt_clust_8="13000.00000" pt_clust_9="72.10081"></scales>
<clustering>
<clus scale="   72.101">  1  9  2 -1</clus>
<clus scale="   82.041">  5  6 -1 -1</clus>
<clus scale="   93.785">  7  8 -1 -1</clus>
<clus scale="  103.309">  2  5  1 -1</clus>
<clus scale="   72.101">  1  5  2 -1</clus>
</clustering>
</event>
<event>
 9    2  0.6190160E-005  0.9430034E+02  0.7546771E-02  0.1294768E+00
         21   -1    0    0  501  502  0.00000000000E+00  0.00000000000E+00  0.56618537650E+02  0.56618537650E+02  0.00000000000E+00 0.  1.
          4   -1    0    0  502    0 -0.00000000000E+00 -0.00000000000E+00 -0.37553188162E+03  0.37553188162E+03  0.00000000000E+00 0. -1.
         24    2    1    2    0    0 -0.15113464113E+02  0.71849637149E+01 -0.73472802538E+02  0.11552227005E+03  0.87561987550E+02 0.  0.
         23    2    1    2    0    0 -0.67714201865E+02  0.41649466180E+01 -0.11475745056E+03  0.16149171586E+03  0.91146815180E+02 0.  0.
        -13    1    3    3    0    0  0.50967359039E+01  0.34410515112E+02 -0.20220540265E+00  0.34786508221E+02  0.00000000000E+00 0.  1.
         14    1    3    3    0    0 -0.20210200017E+02 -0.27225551397E+02 -0.73270597135E+02  0.80735761829E+02  0.00000000000E+00 0. -1.
        -13    1    4    4    0    0  0.22714369454E+02 -0.25905511533E+01 -0.20704491100E+02  0.30843629596E+02  0.00000000000E+00 0. -1.
         13    1    4    4    0    0 -0.90428571319E+02  0.67554977713E+01 -0.94052959460E+02  0.13064808626E+03  0.00000000000E+00 0.  1.
          3    1    1    2  501    0  0.82827665978E+02 -0.11349910333E+02 -0.13068309087E+03  0.15513643336E+03  0.00000000000E+00 0. -1.
<scales pt_clust_5="13000.00000" pt_clust_6="13000.00000" pt_clust_7="13000.00000" pt_clust_8="13000.00000" pt_clust_9="83.60173"></scales>
<clustering>
<clus scale="   83.602">  1  9  2 -1</clus>
<clus scale="   87.562">  5  6 -1 -1</clus>
<clus scale="   90.840">  2  5  1 -1</clus>
<clus scale="   91.147">  7  8 -1 -1</clus>
<clus scale="   83.602">  1  5  2 -1</clus>
</clustering>
</event>
<event>
 9    2  0.6190160E-005  0.1482666E+03  0.7546771E-02  0.1204529E+00
         21   -1    0    0  501  502  0.00000000000E+00  0.00000000000E+00  0.56303027253E+03  0.56303027253E+03  0.00000000000E+00 0.  1.
         -3   -1    0    0    0  501 -0.00000000000E+00 -0.00000000000E+00 -0.28334395340E+03  0.28334395340E+03  0.00000000000E+00 0.  1.
         23    2    1    2    0    0  0.65272494212E+02  0.10513789748E+03 -0.21407801923E+03  0.26339113872E+03  0.90724956045E+02 0.  0.
         24    2    1    2    0    0 -0.92200449073E+02 -0.46513989406E+02  0.59339285205E+02  0.14379405711E+03  0.80567400809E+02 0.  0.
        -11    1    4    4    0    0 -0.40752622195E+02  0.20970074249E+02  0.16289644537E+02  0.48640237961E+02  0.00000000000E+00 0.  1.
         12    1    4    4    0    0 -0.51447826877E+02 -0.67484063654E+02  0.43049640668E+02  0.95153819153E+02  0.00000000000E+00 0. -1.
        -13    1    3    3    0    0  0.24539863147E+02  0.41426759471E+02 -0.14995199840E+02  0.50430519547E+02  0.00000000000E+00 0. -1.
         13    1    3    3    0    0  0.40732631065E+02  0.63711138005E+02 -0.19908281939E+03  0.21296061917E+03  0.00000000000E+00 0.  1.
         -4    1    1    2    0  502  0.26927954861E+02 -0.58623908071E+02  0.43442505316E+03  0.43918903010E+03  0.00000000000E+00 0.  1.
<scales pt_clust_5="13000.00000" pt_clust_6="13000.00000" pt_clust_7="13000.00000" pt_clust_8="13000.00000" pt_clust_9="64.51261"></scales>
<clustering>
<clus scale="   64.513">  1  9  2 -1</clus>
<clus scale="   80.567">  5  6 -1 -1</clus>
<clus scale="   90.725">  7  8 -1 -1</clus>
<clus scale="  142.278">  1  5  2 -1</clus>
<clus scale="   64.513">  1  5  2 -1</clus>
</clustering>
</event>
<event>
 9    2  0.6190160E-005  0.1003917E+03  0.7546771E-02  0.1281804E+00
          2   -1    0    0  502    0 -0.00000000000E+00  0.00000000000E+00  0.24005594450E+03  0.24005594450E+03  0.00000000000E+00 0. -1.
         21   -1    0    0  501  502  0.00000000000E+00 -0.00000000000E+00 -0.98429306035E+02  0.98429306035E+02  0.00000000000E+00 0.  1.
         23    2    1    2    0    0 -0.25984607559E+02 -0.22226738386E+02  0.16294111158E+03  0.19208310882E+03  0.95796070504E+02 0.  0.
         24    2    1    2    0    0  0.23485372792E+02  0.95484481017E+00  0.23182956993E+02  0.97018329427E+02  0.91228462039E+02 0.  0.
        -11    1    4    4    0    0 -0.23453908866E+02  0.30143149450E+02  0.35364063599E+01  0.38356244209E+02  0.00000000000E+00 0.  1.
         12    1    4    4    0    0  0.46939281658E+02 -0.29188304640E+02  0.19646550633E+02  0.58662085218E+02  0.00000000000E+00 0. -1.
        -11    1    3    3    0    0 -0.48813053089E+02 -0.25823185249E+01  0.33682876033E+02  0.59362603200E+02  0.00000000000E+00 0.  1.
         11    1    3    3    0    0  0.22828445530E+02 -0.19644419861E+02  0.12925823554E+03  0.13272050562E+03  0.00000000000E+00 0. -1.
          1    1    1    2  501    0  0.24992347669E+01  0.21271893575E+02 -0.44497430100E+02  0.49383812289E+02  0.00000000000E+00 0. -1.
<scales pt_clust_5="13000.00000" pt_clust_6="13000.00000" pt_clust_7="13000.00000" pt_clust_8="13000.00000" pt_clust_9="21.41821"></scales>
<clustering>
<clus scale="   21.418">  2  9  1 -1</clus>
<clus scale="   91.228">  5  6 -1 -1</clus>
<clus scale="   95.796">  7  8 -1 -1</clus>
<clus scale="   96.043">  2  5  1 -1</clus>
<clus scale="   21.418">  2  5  1 -1</clus>
</clustering>
</event>
<event>
 9    2  0.6190160E-005  0.1081178E+03  0.7546771E-02  0.1268773E+00
         21   -1    0    0  501  502  0.00000000000E+00  0.00000000000E+00  0.13653577597E+03  0.13653577597E+03  0.00000000000E+00 0.  1.
         -1   -1    0    0    0  501 -0.00000000000E+00 -0.00000000000E+00 -0.22236614117E+03  0.22236614117E+03  0.00000000000E+00 0.  1.
         24    2    1    2    0    0  0.78289987981E+01 -0.74879608161E+02 -0.10446947704E+03  0.15183457366E+03  0.80446362165E+02 0.  0.
         23    2    1    2    0    0  0.29185947386E+02  0.33012218715E+02 -0.54163336473E+02  0.11528945387E+03  0.91740749101E+02 0.  0.
        -13    1    3    3    0    0 -0.10028734484E+02 -0.19321598283E+02 -0.88772770637E+02  0.91402978519E+02  0.00000000000E+00 0.  1.
         14    1    3    3    0    0  0.17857733283E+02 -0.55558009878E+02 -0.15696706403E+02  0.60431595143E+02  0.00000000000E+00 0. -1.
        -11    1    4    4    0    0  0.18869547669E+02  0.64570287567E+02 -0.27371427864E+02  0.72626282633E+02  0.00000000000E+00 0. -1.
         11    1    4    4    0    0  0.10316399717E+02 -0.31558068852E+02 -0.26791908610E+02  0.42663171234E+02  0.00000000000E+00 0.  1.
         -2    1    1    2    0  502 -0.37014946184E+02  0.41867389446E+02  0.72802448313E+02  0.91777889605E+02  0.00000000000E+00 0.  1.
<scales pt_clust_5="13000.00000" pt_clust_6="13000.00000" pt_clust_7="13000.00000" pt_clust_8="13000.00000" pt_clust_9="55.88367"></scales>
<clustering>
<clus scale="   55.884">  1  9  2 -1</clus>
<clus scale="   80.446">  5  6 -1 -1</clus>
<clus scale="   91.741">  7  8 -1 -1</clus>
<clus scale="   98.715">  2  5  1 -1</clus>
<clus scale="   55.884">  1  5  2 -1</clus>
</clustering>
</event>
<event>
 9    2  0.6190160E-005  0.9423356E+02  0.7546771E-02  0.1292941E+00
         21   -1    0    0  501  502  0.00000000000E+00  0.00000000000E+00  0.13583382692E+03  0.13583382692E+03  0.00000000000E+00 0.  1.
         -3   -1    0    0    0  501 -0.00000000000E+00 -0.00000000000E+00 -0.20361591213E+03  0.20361591213E+03  0.00000000000E+00 0.  1.
         23    2    1    2    0    0 -0.74755512744E-02  0.38402629515E+02 -0.98747935929E+02  0.14028527893E+03  0.91945867909E+02 0.  0.
         24    2    1    2    0    0 -0.40105965096E+02  0.46810674858E+02  0.30071364469E+02  0.10497743623E+03  0.79474822682E+02 0.  0.
        -13    1    4    4    0    0 -0.17332410490E+01  0.58187593175E+02  0.28764777995E+02  0.64932369255E+02  0.00000000000E+00 0.  1.
         14    1    4    4    0    0 -0.38372724047E+02 -0.11376918316E+02  0.13065864737E+01  0.40045066979E+02  0.00000000000E+00 0. -1.
        -11    1    3    3    0    0  0.33475511981E+02 -0.11876401275E+01 -0.77165441548E+02  0.84122088424E+02  0.00000000000E+00 0. -1.
         11    1    3    3    0    0 -0.33482987533E+02  0.39590269642E+02 -0.21582494381E+02  0.56163190509E+02  0.00000000000E+00 0.  1.
         -4    1    1    2    0  502  0.40113440647E+02 -0.85213304373E+02  0.89448624572E+00  0.94187023885E+02  0.00000000000E+00 0.  1.
<scales pt_clust_5="13000.00000" pt_clust_6="13000.00000" pt_clust_7="13000.00000" pt_clust_8="13000.00000" pt_clust_9="94.18278"></scales>
<clustering>
<clus scale="   79.475">  5  6 -1 -1</clus>
<clus scale="   91.946">  7  8 -1 -1</clus>
<clus scale="   94.183">  1  9  2 -1</clus>
<clus scale="   94.183">  1  5  2 -1</clus>
<clus scale="   94.183">  1  5  2 -1</clus>
</clustering>
</event>
<event>
 9    2  0.6190160E-005  0.1434689E+03  0.7546771E-02  0.1211168E+00
         -3   -1    0    0    0  501 -0.00000000000E+00  0.00000000000E+00  0.65343408552E+03  0.65343408552E+03  0.00000000000E+00 0.  1.
         21   -1    0    0  501  502  0.00000000000E+00 -0.00000000000E+00 -0.55283026513E+02  0.55283026513E+02  0.00000000000E+00 0. -1.
         23    2    1    2    0    0  0.33222224420E+02 -0.10796810738E+03  0.48367683427E+03  0.50511392910E+03  0.91847552795E+02 0.  0.
         24    2    1    2    0    0 -0.47375116854E+02  0.92722156542E+02  0.12409520075E+03  0.18068361573E+03  0.80032181872E+02 0.  0.
        -11    1    4    4    0    0 -0.25502416685E+02  0.52334155725E+02  0.12144372100E+03  0.13467670356E+03  0.00000000000E+00 0.  1.
         12    1    4    4    0    0 -0.21872700168E+02  0.40388000817E+02  0.26514797488E+01  0.46006912171E+02  0.00000000000E+00 0. -1.
        -13    1    3    3    0    0  0.26094208628E+02 -0.85435256672E+02  0.46869445320E+03  0.47713161839E+03  0.00000000000E+00 0.  1.
         13    1    3    3    0    0  0.71280157920E+01 -0.22532850710E+02  0.14982381073E+02  0.27982310714E+02  0.00000000000E+00 0. -1.
         -4    1    1    2    0  502  0.14152892434E+02  0.15245950840E+02 -0.96209760094E+01  0.22919567200E+02  0.00000000000E+00 0.  1.
<scales pt_clust_5="13000.00000" pt_clust_6="13000.00000" pt_clust_7="13000.00000" pt_clust_8="13000.00000" pt_clust_9="20.80248"></scales>
<clustering>
<clus scale="   20.802">  2  9  1 -1</clus>
<clus scale="   80.032">  5  6 -1 -1</clus>
<clus scale="   91.848">  7  8 -1 -1</clus>
<clus scale="  136.208">  2  5  1 -1</clus>
<clus scale="   20.802">  2  5  1 -1</clus>
</clustering>
</event>
<event>
 9    2  0.6190160E-005  0.1158284E+03  0.7546771E-02  0.1253948E+00
          2   -1    0    0  502    0 -0.00000000000E+00  0.00000000000E+00  0.21714699494E+03  0.21714699494E+03  0.00000000000E+00 0. -1.
         21   -1    0    0  501  502  0.00000000000E+00 -0.00000000000E+00 -0.97277058394E+02  0.97277058394E+02  0.00000000000E+00 0.  1.
         24    2    1    2    0    0  0.35815552012E+00  0.61612190077E+02  0.39317790009E+02  0.10849824328E+03  0.80185970980E+02 0.  0.
         23    2    1    2    0    0  0.57906065342E+02 -0.72584468708E+02  0.58134348509E+02  0.14254073295E+03  0.91195617069E+02 0.  0.
        -13    1    3    3    0    0 -0.32251005663E+02  0.60110143040E+02  0.30225513584E+02  0.74611918176E+02  0.00000000000E+00 0.  1.
         14    1    3    3    0    0  0.32609161183E+02  0.15020470372E+01  0.90922764248E+01  0.33886325103E+02  0.00000000000E+00 0. -1.
        -13    1    4    4    0    0  0.28426098006E+02 -0.19513353888E+02  0.72388563300E+02  0.80180534573E+02  0.00000000000E+00 0. -1.
         13    1    4    4    0    0  0.29479967337E+02 -0.53071114820E+02 -0.14254214791E+02  0.62360198378E+02  0.00000000000E+00 0.  1.
          1    1    1    2  501    0 -0.58264220862E+02  0.10972278631E+02  0.22417798029E+02  0.63385077105E+02  0.00000000000E+00 0. -1.
<scales pt_clust_5="13000.00000" pt_clust_6="13000.00000" pt_clust_7="13000.00000" pt_clust_8="13000.00000" pt_clust_9="59.28837"></scales>
<clustering>
<clus scale="   59.288">  2  9  1 -1</clus>
<clus scale="   80.186">  5  6 -1 -1</clus>
<clus scale="   91.196">  7  8 -1 -1</clus>
<clus scale="  107.375">  1  5  2 -1</clus>
<clus scale="   59.288">  2  5  1 -1</clus>
</clustering>
</event>
<event>
 9    2  0.6190160E-005  0.1622424E+03  0.7546771E-02  0.1205044E+00
         21   -1    0    0  501  502  0.00000000000E+00  0.00000000000E+00  0.36970233729E+02  0.36970233729E+02  0.00000000000E+00 0. -1.
          2   -1    0    0  502    0 -0.00000000000E+00 -0.00000000000E+00 -0.14533877566E+04  0.14533877566E+04  0.00000000000E+00 0. -1.
         23    2    1    2    0    0 -0.53842592344E+01 -0.54196863342E+02 -0.16474561029E+03  0.19665528508E+03  0.92552119340E+02 0.  0.
         24    2    1    2    0    0  0.11166006456E+03  0.12870424011E+03 -0.88239900340E+03  0.90228428790E+03  0.80350379854E+02 0.  0.
        -13    1    4    4    0    0 -0.22020415328E+01  0.48952564846E+02 -0.20601234260E+03  0.21175997708E+03  0.00000000000E+00 0.  1.
         14    1    4    4    0    0  0.11386210609E+03  0.79751675265E+02 -0.67638666081E+03  0.69052431082E+03  0.00000000000E+00 0. -1.
        -11    1    3    3    0    0  0.28758513190E+02 -0.46057798464E+02 -0.14823394305E+03  0.15786600252E+03  0.00000000000E+00 0.  1.
         11    1    3    3    0    0 -0.34142772424E+02 -0.81390648780E+01 -0.16511667241E+02  0.38789282553E+02  0.00000000000E+00 0. -1.
          1    1    1    2  501    0 -0.10627580533E+03 -0.74507376769E+02 -0.36927290914E+03  0.39141841732E+03  0.00000000000E+00 0. -1.
<scales pt_clust_5="13000.00000" pt_clust_6="13000.00000" pt_clust_7="13000.00000" pt_clust_8="13000.00000" pt_clust_9="140.94826"></scales>
<clustering>
<clus scale="   80.350">  5  6 -1 -1</clus>
<clus scale="   92.552">  7  8 -1 -1</clus>
<clus scale="  107.388">  2  7  1 -1</clus>
<clus scale="  140.948">  1  9  2 -1</clus>
<clus scale="  140.948">  1  5  2 -1</clus>
</clustering>
</event>
<event>
 9    2  0.6190160E-005  0.1234341E+03  0.7546771E-02  0.1237953E+00
          2   -1    0    0  502    0 -0.00000000000E+00  0.00000000000E+00  0.87869229647E+03  0.87869229647E+03  0.00000000000E+00 0. -1.
         21   -1    0    0  501  502  0.00000000000E+00 -0.00000000000E+00 -0.41896796714E+02  0.41896796714E+02  0.00000000000E+00 0. -1.
         23    2    1    2    0    0 -0.15741722013E+02 -0.63753930202E+02  0.30652289658E+03  0.32659886623E+03  0.91641518237E+02 0.  0.
         24    2    1    2    0    0 -0.67657931466E+02  0.99772134304E+02  0.44348853609E+03  0.46835469247E+03  0.90232820175E+02 0.  0.
        -13    1    4    4    0    0 -0.30005394880E+02 -0.11606854446E+02  0.76390404504E+02  0.82888700631E+02  0.00000000000E+00 0.  1.
         14    1    4    4    0    0 -0.37652536586E+02  0.11137898875E+03  0.36709813159E+03  0.38546599183E+03  0.00000000000E+00 0. -1.
        -13    1    3    3    0    0  0.66516999745E+01 -0.77773346116E+02  0.27286526799E+03  0.28381048774E+03  0.00000000000E+00 0. -1.
         13    1    3    3    0    0 -0.22393421987E+02  0.14019415914E+02  0.33657628593E+02  0.42788378485E+02  0.00000000000E+00 0.  1.
          1    1    1    2  501    0  0.83399653478E+02 -0.36018204102E+02  0.86784067082E+02  0.12563553449E+03  0.00000000000E+00 0. -1.
<scales pt_clust_5="13000.00000" pt_clust_6="13000.00000" pt_clust_7="13000.00000" pt_clust_8="13000.00000" pt_clust_9="90.84500"></scales>
<clustering>
<clus scale="   90.233">  5  6 -1 -1</clus>
<clus scale="   90.845">  2  9  1 -1</clus>
<clus scale="   91.642">  7  8 -1 -1</clus>
<clus scale="  122.392">  2  5  1 -1</clus>
<clus scale="   90.845">  2  5  1 -1</clus>
</clustering>
</event>
<event>
 9    2  0.6190160E-005  0.9333607E+02  0.7546771E-02  0.1300383E+00
         -3   -1    0    0    0  501 -0.00000000000E+00  0.00000000000E+00  0.70183145719E+03  0.70183145719E+03  0.00000000000E+00 0.  1.
         21   -1    0    0  501  502  0.00000000000E+00 -0.00000000000E+00 -0.34921812467E+02  0.34921812467E+02  0.00000000000E+00 0.  1.
         23    2    1    2    0    0  0.47790956874E+02  0.11667446134E+01  0.36167389506E+03  0.37582513305E+03  0.90283926650E+02 0.  0.
         24    2    1    2    0    0  0.18413864594E+02  0.37070840550E+02  0.25155265924E+03  0.26750937242E+03  0.81050640560E+02 0.  0.
        -13    1    4    4    0    0  0.42695271092E+02  0.35205030894E+02  0.22401195414E+03  0.23074582547E+03  0.00000000000E+00 0.  1.
         14    1    4    4    0    0 -0.24281406498E+02  0.18658096560E+01  0.27540705098E+02  0.36763546952E+02  0.00000000000E+00 0. -1.
        -13    1    3    3    0    0  0.49471606896E+02 -0.35624772429E+02  0.27454002073E+03  0.28122728759E+03  0.00000000000E+00 0.  1.
         13    1    3    3    0    0 -0.16806500223E+01  0.36791517042E+02  0.87133874326E+02  0.94597845461E+02  0.00000000000E+00 0. -1.
         -4    1    1    2    0  502 -0.66204821468E+02 -0.38237585163E+02  0.53683090429E+02  0.93418764190E+02  0.00000000000E+00 0.  1.
<scales pt_clust_5="13000.00000" pt_clust_6="13000.00000" pt_clust_7="13000.00000" pt_clust_8="13000.00000" pt_clust_9="76.45385"></scales>
<clustering>
<clus scale="   76.454">  2  9  1 -1</clus>
<clus scale="   81.051">  5  6 -1 -1</clus>
<clus scale="   84.437">  2  5  1 -1</clus>
<clus scale="   90.284">  7  8 -1 -1</clus>
<clus scale="   76.454">  2  5  1 -1</clus>
</clustering>
</event>
<event>
 9    2  0.6190160E-005  0.9775117E+02  0.7546771E-02  0.1290801E+00
         21   -1    0    0  501  502  0.00000000000E+00  0.00000000000E+00  0.21499060342E+02  0.21499060342E+02  0.00000000000E+00 0.  1.
          2   -1    0    0  502    0 -0.00000000000E+00 -0.00000000000E+00 -0.71992243565E+03  0.71992243565E+03  0.00000000000E+00 0. -1.
         23    2    1    2    0    0 -0.36691589910E+02 -0.25777761543E+02 -0.42763898323E+03  0.43962203937E+03  0.91551470541E+02 0.  0.
         24    2    1    2    0    0 -0.11835743761E+01  0.18894631220E+02 -0.11834954490E+03  0.14457894846E+03  0.80858206900E+02 0.  0.
        -13    1    4    4    0    0 -0.15362886890E+02  0.35843139330E+02 -0.20094277062E+02  0.43869452940E+02  0.00000000000E+00 0.  1.
         14    1    4    4    0    0  0.14179312514E+02 -0.16948508109E+02 -0.98255267834E+02  0.10070949552E+03  0.00000000000E+00 0. -1.
        -13    1    3    3    0    0  0.24102090237E+02 -0.27968053287E+02 -0.10509689538E+03  0.11139335787E+03  0.00000000000E+00 0.  1.
         13    1    3    3    0    0 -0.60793680147E+02  0.21902917443E+01 -0.32254208785E+03  0.32822868150E+03  0.00000000000E+00 0. -1.
          1    1    1    2  501    0  0.37875164286E+02  0.68831303225E+01 -0.15243484718E+03  0.15722050817E+03  0.00000000000E+00 0. -1.
<scales pt_clust_5="13000.00000" pt_clust_6="13000.00000" pt_clust_7="13000.00000" pt_clust_8="13000.00000" pt_clust_9="38.49555"></scales>
<clustering>
<clus scale="   38.496">  1  9  2 -1</clus>
<clus scale="   80.858">  5  6 -1 -1</clus>
<clus scale="   87.816">  1  5  2 -1</clus>
<clus scale="   91.551">  7  8 -1 -1</clus>
<clus scale="   38.496">  1  5  2 -1</clus>
</clustering>
</event>
<event>
 9    2  0.6190160E-005  0.9534225E+02  0.7546771E-02  0.1295203E+00
          2   -1    0    0  502    0 -0.00000000000E+00  0.00000000000E+00  0.17052385101E+03  0.17052385101E+03  0.00000000000E+00 0. -1.
         21   -1    0    0  501  502  0.00000000000E+00 -0.00000000000E+00 -0.11326090557E+03  0.11326090557E+03  0.00000000000E+00 0.  1.
         24    2    1    2    0    0 -0.50382831039E+02 -0.94558643345E+01  0.53407690440E+02  0.11002996239E+03  0.81402507281E+02 0.  0.
         23    2    1    2    0    0 -0.19623329651E+02  0.23432551077E+02 -0.22336267243E+02  0.97713975254E+02  0.90083031748E+02 0.  0.
        -13    1    3    3    0    0  0.27896669187E+01  0.29907997096E+02  0.17105887147E+02  0.34567063903E+02  0.00000000000E+00 0.  1.
         14    1    3    3    0    0 -0.53172497958E+02 -0.39363861430E+02  0.36301803293E+02  0.75462898488E+02  0.00000000000E+00 0. -1.
        -11    1    4    4    0    0 -0.45994610434E+02  0.37782011971E+02  0.12476776224E+01  0.59536050566E+02  0.00000000000E+00 0. -1.
         11    1    4    4    0    0  0.26371280783E+02 -0.14349460893E+02 -0.23583944866E+02  0.38177924688E+02  0.00000000000E+00 0.  1.
          1    1    1    2  501    0  0.70006160690E+02 -0.13976686743E+02  0.26191522248E+02  0.76040818936E+02  0.00000000000E+00 0. -1.
<scales pt_clust_5="13000.00000" pt_clust_6="13000.00000" pt_clust_7="13000.00000" pt_clust_8="13000.00000" pt_clust_9="71.38778"></scales>
<clustering>
<clus scale="   71.388">  2  9  1 -1</clus>
<clus scale="   81.403">  5  6 -1 -1</clus>
<clus scale="   87.187">  1  5  2 -1</clus>
<clus scale="   90.083">  7  8 -1 -1</clus>
<clus scale="   71.388">  2  5  1 -1</clus>
</clustering>
</event>
<event>
 9    2  0.6190160E-005  0.3685422E+03  0.7546771E-02  0.1055252E+00
         21   -1    0    0  501  502  0.00000000000E+00  0.00000000000E+00  0.10866895042E+03  0.10866895042E+03  0.00000000000E+00 0. -1.
         -1   -1    0    0    0  501 -0.00000000000E+00 -0.00000000000E+00 -0.10954426220E+04  0.10954426220E+04  0.00000000000E+00 0.  1.
         24    2    1    2    0    0 -0.29663480666E+01  0.18479926523E+03 -0.17547933193E+03  0.26782714515E+03  0.82333566020E+02 0.  0.
         23    2    1    2    0    0  0.34686455527E+02  0.11997537882E+03 -0.23667562291E+03  0.28506985549E+03  0.98245764835E+02 0.  0.
        -13    1    3    3    0    0  0.25301184025E+02  0.14143612431E+02 -0.19759319642E+02  0.35080228026E+02  0.00000000000E+00 0.  1.
         14    1    3    3    0    0 -0.28267532092E+02  0.17065565280E+03 -0.15572001229E+03  0.23274691713E+03  0.00000000000E+00 0. -1.
        -13    1    4    4    0    0 -0.16237465574E+02  0.69237560464E+02 -0.55676718051E+02  0.90318281649E+02  0.00000000000E+00 0. -1.
         13    1    4    4    0    0  0.50923921101E+02  0.50737818352E+02 -0.18099890486E+03  0.19475157384E+03  0.00000000000E+00 0.  1.
         -2    1    1    2    0  502 -0.31720107460E+02 -0.30477464405E+03 -0.57461871670E+03  0.65121457174E+03  0.00000000000E+00 0.  1.
<scales pt_clust_5="13000.00000" pt_clust_6="13000.00000" pt_clust_7="13000.00000" pt_clust_8="13000.00000" pt_clust_9="306.42102"></scales>
<clustering>
<clus scale="   82.334">  5  6 -1 -1</clus>
<clus scale="   98.246">  7  8 -1 -1</clus>
<clus scale="  119.133">  5  7 -1 -1</clus>
<clus scale="  306.421">  1  9  2 -1</clus>
<clus scale="  306.421">  1  5  2 -1</clus>
</clustering>
</event>
<event>
 9    2  0.6190160E-005  0.9308431E+02  0.7546771E-02  0.1304501E+00
         21   -1    0    0  501  502  0.00000000000E+00  0.00000000000E+00  0.27844688147E+02  0.27844688147E+02  0.00000000000E+00 0.  1.
          2   -1    0    0  502    0 -0.00000000000E+00 -0.00000000000E+00 -0.47495632528E+03  0.47495632528E+03  0.00000000000E+00 0. -1.
         23    2    1    2    0    0  0.22624849639E+02 -0.10024837641E+01 -0.16028123982E+03  0.18665062558E+03  0.92927344721E+02 0.  0.
         24    2    1    2    0    0  0.15363683973E+02  0.76440235716E+01 -0.11747433403E+03  0.14245895194E+03  0.78739189416E+02 0.  0.
        -11    1    4    4    0    0 -0.33081360635E+01  0.20944073689E+02  0.15374517404E+01  0.21259391919E+02  0.00000000000E+00 0.  1.
         12    1    4    4    0    0  0.18671820036E+02 -0.13300050118E+02 -0.11901178577E+03  0.12119956002E+03  0.00000000000E+00 0. -1.
        -11    1    3    3    0    0 -0.35496042203E+02 -0.96284416133E+01 -0.66119248969E+02  0.75659969496E+02  0.00000000000E+00 0.  1.
         11    1    3    3    0    0  0.58120891842E+02  0.86259578491E+01 -0.94161990852E+02  0.11099065609E+03  0.00000000000E+00 0. -1.
          1    1    1    2  501    0 -0.37988533611E+02 -0.66415398075E+01 -0.16935606329E+03  0.17369143591E+03  0.00000000000E+00 0. -1.
<scales pt_clust_5="13000.00000" pt_clust_6="13000.00000" pt_clust_7="13000.00000" pt_clust_8="13000.00000" pt_clust_9="38.56475"></scales>
<clustering>
<clus scale="   38.565">  1  9  2 -1</clus>
<clus scale="   78.739">  5  6 -1 -1</clus>
<clus scale="   78.924">  1  5  2 -1</clus>
<clus scale="   92.927">  7  8 -1 -1</clus>
<clus scale="   38.565">  1  5  2 -1</clus>
</clustering>
</event>
<event>
 9    2  0.6190160E-005  0.1008182E+03  0.7546771E-02  0.1281600E+00
          2   -1    0    0  502    0 -0.00000000000E+00  0.00000000000E+00  0.16180068333E+04  0.16180068333E+04  0.00000000000E+00 0. -1.
         21   -1    0    0  501  502  0.00000000000E+00 -0.00000000000E+00 -0.15317438910E+02  0.15317438910E+02  0.00000000000E+00 0.  1.
         24    2    1    2    0    0 -0.32608189255E+02  0.57808111171E+02  0.10624428360E+04  0.10672649533E+04  0.76580865905E+02 0.  0.
         23    2    1    2    0    0 -0.34453967321E+02 -0.43361455166E+02  0.33465716839E+03  0.34932668180E+03  0.83465074156E+02 0.  0.
        -13    1    3    3    0    0 -0.67344781442E+01  0.30646785037E+02  0.11871346855E+03  0.12279033449E+03  0.00000000000E+00 0.  1.
         14    1    3    3    0    0 -0.25873711110E+02  0.27161326134E+02  0.94372936747E+03  0.94447461882E+03  0.00000000000E+00 0. -1.
        -13    1    4    4    0    0 -0.25129216664E+02  0.17861467357E+02  0.18188917046E+03  0.18448354907E+03  0.00000000000E+00 0. -1.
         13    1    4    4    0    0 -0.93247506566E+01 -0.61222922522E+02  0.15276799793E+03  0.16484313273E+03  0.00000000000E+00 0.  1.
          1    1    1    2  501    0  0.67062156575E+02 -0.14446656005E+02  0.20558939000E+03  0.21673263712E+03  0.00000000000E+00 0. -1.
<scales pt_clust_5="13000.00000" pt_clust_6="13000.00000" pt_clust_7="13000.00000" pt_clust_8="13000.00000" pt_clust_9="68.60057"></scales>
<clustering>
<clus scale="   68.601">  2  9  1 -1</clus>
<clus scale="   76.581">  5  6 -1 -1</clus>
<clus scale="   83.465">  7  8 -1 -1</clus>
<clus scale="   95.197">  1  5  2 -1</clus>
<clus scale="   68.601">  2  5  1 -1</clus>
</clustering>
</event>
<event>
 9    2  0.6190160E-005  0.9411723E+02  0.7546771E-02  0.1299286E+00
         -1   -1    0    0    0  501 -0.00000000000E+00  0.00000000000E+00  0.14094274282E+03  0.14094274282E+03  0.00000000000E+00 0.  1.
         21   -1    0    0  501  502  0.00000000000E+00 -0.00000000000E+00 -0.19718141094E+03  0.19718141094E+03  0.00000000000E+00 0.  1.
         24    2    1    2    0    0  0.18899670311E+02 -0.81402474805E+01  0.67691326549E+02  0.10689635545E+03  0.80132727097E+02 0.  0.
         23    2    1    2    0    0 -0.25020170282E+02  0.29559666175E+02  0.66137424680E+01  0.98796988745E+02  0.90649438003E+02 0.  0.
        -11    1    3    3    0    0  0.40919530472E+02 -0.94874084341E+01  0.72984684446E+02  0.84209162545E+02  0.00000000000E+00 0.  1.
         12    1    3    3    0    0 -0.22019860161E+02  0.13471609536E+01 -0.52933578975E+01  0.22687192906E+02  0.00000000000E+00 0. -1.
        -11    1    4    4    0    0  0.16397703059E+02 -0.24687041025E+02 -0.33401729731E+01  0.29824342669E+02  0.00000000000E+00 0. -1.
         11    1    4    4    0    0 -0.41417873340E+02  0.54246707200E+02  0.99539154411E+01  0.68972646076E+02  0.00000000000E+00 0.  1.
         -2    1    1    2    0  502  0.61204999701E+01 -0.21419418694E+02 -0.13054373713E+03  0.13243080956E+03  0.00000000000E+00 0.  1.
<scales pt_clust_5="13000.00000" pt_clust_6="13000.00000" pt_clust_7="13000.00000" pt_clust_8="13000.00000" pt_clust_9="22.27671"></scales>
<clustering>
<clus scale="   22.277">  2  9  1 -1</clus>
<clus scale="   80.133">  5  6 -1 -1</clus>
<clus scale="   84.036">  1  5  2 -1</clus>
<clus scale="   90.649">  7  8 -1 -1</clus>
<clus scale="   22.277">  2  5  1 -1</clus>
</clustering>
</event>
<event>
 9    2  0.6190160E-005  0.1284674E+03  0.7546771E-02  0.1238314E+00
         21   -1    0    0  501  502  0.00000000000E+00  0.00000000000E+00  0.61018696743E+03  0.61018696743E+03  0.00000000000E+00 0.  1.
         -1   -1    0    0    0  501 -0.00000000000E+00 -0.00000000000E+00 -0.86419418201E+02  0.86419418201E+02  0.00000000000E+00 0.  1.
         23    2    1    2    0    0  0.80484628900E+02 -0.49368416153E+01 -0.13157358624E+02  0.13513556915E+03  0.10763994644E+03 0.  0.
         24    2    1    2    0    0 -0.17289330672E+02  0.38312313282E+02  0.27551559832E+03  0.29046824281E+03  0.81830317476E+02 0.  0.
        -11    1    4    4    0    0  0.11470383877E+02  0.47140713543E+02  0.87405693322E+02  0.99967853857E+02  0.00000000000E+00 0.  1.
         12    1    4    4    0    0 -0.28759714549E+02 -0.88284002615E+01  0.18810990500E+03  0.19050038895E+03  0.00000000000E+00 0. -1.
        -11    1    3    3    0    0 -0.19982186581E+02  0.77380593519E+01  0.19258308991E+02  0.28810550295E+02  0.00000000000E+00 0. -1.
         11    1    3    3    0    0  0.10046681548E+03 -0.12674900967E+02 -0.32415667615E+02  0.10632501885E+03  0.00000000000E+00 0.  1.
         -2    1    1    2    0  502 -0.63195298228E+02 -0.33375471666E+02  0.26140930953E+03  0.27100257367E+03  0.00000000000E+00 0.  1.
<scales pt_clust_5="13000.00000" pt_clust_6="13000.00000" pt_clust_7="13000.00000" pt_clust_8="13000.00000" pt_clust_9="71.46725"></scales>
<clustering>
<clus scale="   71.467">  1  9  2 -1</clus>
<clus scale="   81.830">  5  6 -1 -1</clus>
<clus scale="  107.640">  7  8 -1 -1</clus>
<clus scale="  107.767">  1  5  2 -1</clus>
<clus scale="   71.467">  1  5  2 -1</clus>
</clustering>
</event>
<event>
 9    2  0.6190160E-005  0.2043589E+03  0.7546771E-02  0.1146723E+00
         21   -1    0    0  501  502  0.00000000000E+00  0.00000000000E+00  0.55573879154E+02  0.55573879154E+02  0.00000000000E+00 0. -1.
          2   -1    0    0  502    0 -0.00000000000E+00 -0.00000000000E+00 -0.98214420123E+03  0.98214420123E+03  0.00000000000E+00 0. -1.
         23    2    1    2    0    0  0.13196452516E+03  0.12402863628E+03 -0.39863825994E+03  0.44639115134E+03  0.86918692995E+02 0.  0.
         24    2    1    2    0    0 -0.16815634420E+03 -0.93959856615E+02 -0.35099158412E+03  0.40823702753E+03  0.79733103335E+02 0.  0.
        -11    1    4    4    0    0 -0.45249246236E+02  0.49240647648E+01 -0.45156037376E+02  0.64115586328E+02  0.00000000000E+00 0.  1.
         12    1    4    4    0    0 -0.12290709797E+03 -0.98883921380E+02 -0.30583554675E+03  0.34412144120E+03  0.00000000000E+00 0. -1.
        -11    1    3    3    0    0  0.40974487549E+02 -0.59338041557E+01 -0.67016056028E+02  0.78773538877E+02  0.00000000000E+00 0.  1.
         11    1    3    3    0    0  0.90990037613E+02  0.12996244044E+03 -0.33162220391E+03  0.36761761247E+03  0.00000000000E+00 0. -1.
          1    1    1    2  501    0  0.36191819041E+02 -0.30068779668E+02 -0.17694047801E+03  0.18308990151E+03  0.00000000000E+00 0. -1.
<scales pt_clust_5="13000.00000" pt_clust_6="13000.00000" pt_clust_7="13000.00000" pt_clust_8="13000.00000" pt_clust_9="47.05296"></scales>
<clustering>
<clus scale="   47.053">  1  9  2 -1</clus>
<clus scale="   79.733">  5  6 -1 -1</clus>
<clus scale="   86.919">  7  8 -1 -1</clus>
<clus scale="  201.408">  1  5  2 -1</clus>
<clus scale="   47.053">  1  5  2 -1</clus>
</clustering>
</event>
<event>
 9    2  0.7425109E-005  0.2122611E+03  0.7546771E-02  0.1140711E+00
          2   -1    0    0  502    0 -0.00000000000E+00  0.00000000000E+00  0.10852463240E+04  0.10852463240E+04  0.00000000000E+00 0. -1.
         21   -1    0    0  501  502  0.00000000000E+00 -0.00000000000E+00 -0.14036377981E+03  0.14036377981E+03  0.00000000000E+00 0. -1.
         24    2    1    2    0    0  0.20111455661E+03  0.51051366559E+02  0.94414814277E+03  0.97001026530E+03  0.80317447575E+02 0.  0.
         23    2    1    2    0    0 -0.12004058570E+03 -0.90199890244E+01  0.39475626995E+02  0.15640050371E+03  0.91715266000E+02 0.  0.
        -13    1    3    3    0    0  0.36212707061E+02 -0.21584854541E+02  0.16556582761E+03  0.17084879095E+03  0.00000000000E+00 0.  1.
         14    1    3    3    0    0  0.16490184955E+03  0.72636221099E+02  0.77858231516E+03  0.79916147435E+03  0.00000000000E+00 0. -1.
        -13    1    4    4    0    0 -0.97942849891E+02 -0.44854204581E+02  0.38146184275E+02  0.11427962587E+03  0.00000000000E+00 0.  1.
         13    1    4    4    0    0 -0.22097735806E+02  0.35834215557E+02  0.13294427194E+01  0.42120877843E+02  0.00000000000E+00 0. -1.
          1    1    1    2  501    0 -0.81073970911E+02 -0.42031377534E+02 -0.38741225601E+02  0.99199334765E+02  0.00000000000E+00 0. -1.
<scales pt_clust_5="13000.00000" pt_clust_6="13000.00000" pt_clust_7="13000.00000" pt_clust_8="13000.00000" pt_clust_9="91.32155"></scales>
<clustering>
<clus scale="   80.317">  5  6 -1 -1</clus>
<clus scale="   91.322">  2  9  1 -1</clus>
<clus scale="   91.715">  7  8 -1 -1</clus>
<clus scale="  207.591">  1  5  2 -1</clus>
<clus scale="   91.322">  2  5  1 -1</clus>
</clustering>
</event>
<event>
 9    2  0.6190160E-005  0.1519593E+03  0.7546771E-02  0.1200089E+00
         21   -1    0    0  501  502  0.00000000000E+00  0.00000000000E+00  0.22866317452E+02  0.22866317452E+02  0.00000000000E+00 0.  1.
          2   -1    0    0  502    0 -0.00000000000E+00 -0.00000000000E+00 -0.16443285131E+04  0.16443285131E+04  0.00000000000E+00 0. -1.
         24    2    1    2    0    0 -0.96059586240E+02 -0.15046486923E+02 -0.42791735817E+03  0.44565565051E+03  0.77729354375E+02 0.  0.
         23    2    1    2    0    0  0.13897762186E+03  0.76308954225E+02 -0.75173813097E+03  0.77344520151E+03  0.89271643379E+02 0.  0.
        -11    1    3    3    0    0 -0.40994883909E+02 -0.31502987864E+02 -0.98315930379E+02  0.11108123567E+03  0.00000000000E+00 0.  1.
         12    1    3    3    0    0 -0.55064702331E+02  0.16456500941E+02 -0.32960142779E+03  0.33457441484E+03  0.00000000000E+00 0. -1.
        -13    1    4    4    0    0 -0.41021416110E+01  0.30403482132E+02 -0.16090291086E+03  0.16380154460E+03  0.00000000000E+00 0. -1.
         13    1    4    4    0    0  0.14307976347E+03  0.45905472094E+02 -0.59083522011E+03  0.60964365691E+03  0.00000000000E+00 0.  1.
          1    1    1    2  501    0 -0.42918035616E+02 -0.61262467302E+02 -0.44180670656E+03  0.44809397858E+03  0.00000000000E+00 0. -1.
<scales pt_clust_5="13000.00000" pt_clust_6="13000.00000" pt_clust_7="13000.00000" pt_clust_8="13000.00000" pt_clust_9="74.80009"></scales>
<clustering>
<clus scale="   74.800">  1  9  2 -1</clus>
<clus scale="   77.729">  5  6 -1 -1</clus>
<clus scale="   89.272">  7  8 -1 -1</clus>
<clus scale="  145.479">  2  5  1 -1</clus>
<clus scale="   74.800">  1  5  2 -1</clus>
</clustering>
</event>
<event>
 9    2  0.6190160E-005  0.1002681E+03  0.7546771E-02  0.1285682E+00
         21   -1    0    0  501  502  0.00000000000E+00  0.00000000000E+00  0.23278203848E+02  0.23278203848E+02  0.00000000000E+00 0. -1.
          2   -1    0    0  502    0 -0.00000000000E+00 -0.00000000000E+00 -0.78863009858E+03  0.78863009858E+03  0.00000000000E+00 0. -1.
         24    2    1    2    0    0  0.13787084403E+02 -0.47329008282E+02 -0.57348372573E+03  0.58078676500E+03  0.77456852543E+02 0.  0.
         23    2    1    2    0    0  0.10736880266E+02  0.33487223778E+02 -0.17041249662E+03  0.19571863191E+03  0.89602952626E+02 0.  0.
        -11    1    3    3    0    0 -0.31018688390E+02 -0.91244489239E+01 -0.17269006679E+03  0.17569084713E+03  0.00000000000E+00 0.  1.
         12    1    3    3    0    0  0.44805772794E+02 -0.38204559358E+02 -0.40079365894E+03  0.40509591787E+03  0.00000000000E+00 0. -1.
        -13    1    4    4    0    0 -0.29767576370E+02 -0.13143955527E+02 -0.78532851286E+02  0.85007534378E+02  0.00000000000E+00 0. -1.
         13    1    4    4    0    0  0.40504456636E+02  0.46631179304E+02 -0.91879645329E+02  0.11071109753E+03  0.00000000000E+00 0.  1.
          1    1    1    2  501    0 -0.24523964669E+02  0.13841784504E+02 -0.21455672388E+02  0.35402905516E+02  0.00000000000E+00 0. -1.
<scales pt_clust_5="13000.00000" pt_clust_6="13000.00000" pt_clust_7="13000.00000" pt_clust_8="13000.00000" pt_clust_9="28.16061"></scales>
<clustering>
<clus scale="   28.161">  1  9  2 -1</clus>
<clus scale="   77.457">  5  6 -1 -1</clus>
<clus scale="   89.580">  2  5  1 -1</clus>
<clus scale="   89.603">  7  8 -1 -1</clus>
<clus scale="   28.161">  1  5  2 -1</clus>
</clustering>
</event>
<event>
 9    2  0.6190160E-005  0.1179781E+03  0.7546771E-02  0.1263138E+00
         21   -1    0    0  501  502  0.00000000000E+00  0.00000000000E+00  0.13651028019E+03  0.13651028019E+03  0.00000000000E+00 0. -1.
          2   -1    0    0  502    0 -0.00000000000E+00 -0.00000000000E+00 -0.27547982490E+03  0.27547982490E+03  0.00000000000E+00 0. -1.
         24    2    1    2    0    0 -0.21518030710E+01 -0.16764687040E+02 -0.19097895468E+03  0.20853524345E+03  0.82026225326E+02 0.  0.
         23    2    1    2    0    0 -0.28069426578E+02  0.56592989963E+02  0.11004693710E+01  0.13210125859E+03  0.11601237980E+03 0.  0.
        -11    1    3    3    0    0  0.76112949850E+01 -0.47422412855E+02 -0.14227527796E+03  0.15016348348E+03  0.00000000000E+00 0.  1.
         12    1    3    3    0    0 -0.97630980560E+01  0.30657725815E+02 -0.48703676728E+02  0.58371759975E+02  0.00000000000E+00 0. -1.
        -11    1    4    4    0    0  0.36864011377E+02  0.23665565787E+02  0.30717093071E+02  0.53502842406E+02  0.00000000000E+00 0.  1.
         11    1    4    4    0    0 -0.64933437955E+02  0.32927424177E+02 -0.29616623700E+02  0.78598416186E+02  0.00000000000E+00 0. -1.
          1    1    1    2  501    0  0.30221229649E+02 -0.39828302924E+02  0.50908940600E+02  0.71353603050E+02  0.00000000000E+00 0. -1.
<scales pt_clust_5="13000.00000" pt_clust_6="13000.00000" pt_clust_7="13000.00000" pt_clust_8="13000.00000" pt_clust_9="49.99616"></scales>
<clustering>
<clus scale="   49.996">  1  9  2 -1</clus>
<clus scale="   82.026">  5  6 -1 -1</clus>
<clus scale="   84.784">  2  5  1 -1</clus>
<clus scale="  116.012">  7  8 -1 -1</clus>
<clus scale="   49.996">  1  5  2 -1</clus>
</clustering>
</event>
<event>
 9    2  0.6190160E-005  0.1094249E+03  0.7546771E-02  0.1265149E+00
         21   -1    0    0  501  502  0.00000000000E+00  0.00000000000E+00  0.66398787509E+02  0.66398787509E+02  0.00000000000E+00 0.  1.
          2   -1    0    0  502    0 -0.00000000000E+00 -0.00000000000E+00 -0.34091827477E+03  0.34091827477E+03  0.00000000000E+00 0. -1.
         24    2    1    2    0    0 -0.29103531863E+02 -0.47628882589E+02 -0.18469894614E+03  0.20952067956E+03  0.81668160474E+02 0.  0.
         23    2    1    2    0    0  0.35341771622E+00  0.83104016187E+02 -0.89628476349E+02  0.15213358542E+03  0.90581243260E+02 0.  0.
        -13    1    3    3    0    0  0.27105358480E+02 -0.61516383000E+01 -0.68731637198E+02  0.74138930826E+02  0.00000000000E+00 0.  1.
         14    1    3    3    0    0 -0.56208890343E+02 -0.41477244289E+02 -0.11596730895E+03  0.13538174874E+03  0.00000000000E+00 0. -1.
        -11    1    4    4    0    0  0.33172370881E+02  0.33504292251E+02 -0.78583357866E+02  0.91642173275E+02  0.00000000000E+00 0. -1.
         11    1    4    4    0    0 -0.32818953165E+02  0.49599723936E+02 -0.11045118483E+02  0.60491412148E+02  0.00000000000E+00 0.  1.
          1    1    1    2  501    0  0.28750114147E+02 -0.35475133598E+02 -0.19206476593E+00  0.45662797288E+02  0.00000000000E+00 0. -1.
<scales pt_clust_5="13000.00000" pt_clust_6="13000.00000" pt_clust_7="13000.00000" pt_clust_8="13000.00000" pt_clust_9="45.66239"></scales>
<clustering>
<clus scale="   45.662">  1  9  2 -1</clus>
<clus scale="   81.668">  5  6 -1 -1</clus>
<clus scale="   90.581">  7  8 -1 -1</clus>
<clus scale="  102.169">  2  5  1 -1</clus>
<clus scale="   45.662">  1  5  2 -1</clus>
</clustering>
</event>
<event>
 9    2  0.6190160E-005  0.1190526E+03  0.7546771E-02  0.1245184E+00
         -1   -1    0    0    0  501 -0.00000000000E+00  0.00000000000E+00  0.13534126322E+03  0.13534126322E+03  0.00000000000E+00 0.  1.
         21   -1    0    0  501  502  0.00000000000E+00 -0.00000000000E+00 -0.55131713422E+03  0.55131713422E+03  0.00000000000E+00 0. -1.
         23    2    1    2    0    0 -0.75440960113E+02 -0.60540476717E+01  0.97896783402E+02  0.15427676503E+03  0.92138754458E+02 0.  0.
         24    2    1    2    0    0  0.45938522548E+02  0.73881359041E+01 -0.33103328505E+03  0.34717253814E+03  0.93705939095E+02 0.  0.
        -13    1    4    4    0    0  0.18055720338E+02  0.20105631650E+02 -0.17610060065E+02  0.32254607058E+02  0.00000000000E+00 0.  1.
         14    1    4    4    0    0  0.27882802210E+02 -0.12717495745E+02 -0.31342322499E+03  0.31491793109E+03  0.00000000000E+00 0. -1.
        -13    1    3    3    0    0 -0.82889874050E+02 -0.31985897813E+02  0.89275944701E+02  0.12595246397E+03  0.00000000000E+00 0.  1.
         13    1    3    3    0    0  0.74489139376E+01  0.25931850142E+02  0.86208387014E+01  0.28324301060E+02  0.00000000000E+00 0. -1.
         -2    1    1    2    0  502  0.29502437564E+02 -0.13340882324E+01 -0.18283936935E+03  0.18520909426E+03  0.00000000000E+00 0.  1.
<scales pt_clust_5="13000.00000" pt_clust_6="13000.00000" pt_clust_7="13000.00000" pt_clust_8="13000.00000" pt_clust_9="29.53259"></scales>
<clustering>
<clus scale="   29.533">  2  9  1 -1</clus>
<clus scale="   92.139">  7  8 -1 -1</clus>
<clus scale="   93.706">  5  6 -1 -1</clus>
<clus scale="  117.823">  1  7  2 -1</clus>
<clus scale="   29.533">  2  5  1 -1</clus>
</clustering>
</event>
<event>
 9    2  0.6190160E-005  0.1189051E+03  0.7546771E-02  0.1248061E+00
          2   -1    0    0  502    0 -0.00000000000E+00  0.00000000000E+00  0.40054263179E+03  0.40054263179E+03  0.00000000000E+00 0. -1.
         21   -1    0    0  501  502  0.00000000000E+00 -0.00000000000E+00 -0.87557311321E+02  0.87557311321E+02  0.00000000000E+00 0. -1.
         24    2    1    2    0    0 -0.57380550307E+02  0.63362873864E+02  0.30971767382E+03  0.33152927521E+03  0.81726626676E+02 0.  0.
         23    2    1    2    0    0  0.24393047261E+02 -0.36371005627E+02  0.30655240915E+02  0.10590690740E+03  0.91425698982E+02 0.  0.
        -13    1    3    3    0    0 -0.48397913446E+02  0.83607863361E+01  0.70604347244E+02  0.86007177746E+02  0.00000000000E+00 0.  1.
         14    1    3    3    0    0 -0.89826368603E+01  0.55002087528E+02  0.23911332658E+03  0.24552209746E+03  0.00000000000E+00 0. -1.
        -13    1    4    4    0    0 -0.34056283226E+02 -0.21760481931E+02  0.62112896640E+01  0.40889229882E+02  0.00000000000E+00 0. -1.
         13    1    4    4    0    0  0.58449330487E+02 -0.14610523696E+02  0.24443951251E+02  0.65017677518E+02  0.00000000000E+00 0.  1.
          1    1    1    2  501    0  0.32987503045E+02 -0.26991868236E+02 -0.27387594267E+02  0.50663760498E+02  0.00000000000E+00 0. -1.
<scales pt_clust_5="13000.00000" pt_clust_6="13000.00000" pt_clust_7="13000.00000" pt_clust_8="13000.00000" pt_clust_9="42.62319"></scales>
<clustering>
<clus scale="   42.623">  2  9  1 -1</clus>
<clus scale="   81.727">  5  6 -1 -1</clus>
<clus scale="   91.426">  7  8 -1 -1</clus>
<clus scale="  111.620">  1  5  2 -1</clus>
<clus scale="   42.623">  2  5  1 -1</clus>
</clustering>
</event>
<event>
 9    2  0.6190160E-005  0.1422228E+03  0.7546771E-02  0.1231217E+00
         -1   -1    0    0    0  501 -0.00000000000E+00  0.00000000000E+00  0.14298221698E+03  0.14298221698E+03  0.00000000000E+00 0.  1.
         21   -1    0    0  501  502  0.00000000000E+00 -0.00000000000E+00 -0.40896573874E+03  0.40896573874E+03  0.00000000000E+00 0.  1.
         24    2    1    2    0    0 -0.30159001681E+02  0.39870070619E+02 -0.27994696006E+03  0.29463090057E+03  0.77057635652E+02 0.  0.
         23    2    1    2    0    0 -0.37175188414E+02 -0.11751039063E+03  0.13935408946E+02  0.15454588588E+03  0.92192996919E+02 0.  0.
        -13    1    3    3    0    0  0.54435802457E+00  0.56240776311E+02 -0.19140796492E+03  0.19950020121E+03  0.00000000000E+00 0.  1.
         14    1    3    3    0    0 -0.30703359706E+02 -0.16370705692E+02 -0.88538995136E+02  0.95130699366E+02  0.00000000000E+00 0. -1.
        -13    1    4    4    0    0 -0.65914737898E+02 -0.74136505574E+02  0.22740623567E+02  0.10177480086E+03  0.00000000000E+00 0.  1.
         13    1    4    4    0    0  0.28739549484E+02 -0.43373885052E+02 -0.88052146206E+01  0.52771085014E+02  0.00000000000E+00 0. -1.
         -2    1    1    2    0  502  0.67334190095E+02  0.77640320006E+02  0.28029350199E-01  0.10277116926E+03  0.00000000000E+00 0.  1.
<scales pt_clust_5="13000.00000" pt_clust_6="13000.00000" pt_clust_7="13000.00000" pt_clust_8="13000.00000" pt_clust_9="108.29484"></scales>
<clustering>
<clus scale="   77.058">  5  6 -1 -1</clus>
<clus scale="   91.854">  1  5  2 -1</clus>
<clus scale="   92.193">  7  8 -1 -1</clus>
<clus scale="  108.295">  2  9  1 -1</clus>
<clus scale="  108.295">  2  5  1 -1</clus>
</clustering>
</event>
<event>
 9    2  0.6190160E-005  0.1912281E+03  0.7546771E-02  0.1158840E+00
         21   -1    0    0  501  502  0.00000000000E+00  0.00000000000E+00  0.41067381847E+02  0.41067381847E+02  0.00000000000E+00 0. -1.
          2   -1    0    0  502    0 -0.00000000000E+00 -0.00000000000E+00 -0.19498479540E+04  0.19498479540E+04  0.00000000000E+00 0. -1.
         24    2    1    2    0    0 -0.11158997857E+03  0.15887833082E+03 -0.12243444039E+04  0.12419255746E+04  0.75267962173E+02 0.  0.
         23    2    1    2    0    0 -0.13569168783E+02 -0.14777390030E+03 -0.46175588733E+03  0.49330513509E+03  0.90056698121E+02 0.  0.
        -11    1    3    3    0    0  0.76189650346E+01  0.24942115344E+02 -0.98574549729E+02  0.10196616890E+03  0.00000000000E+00 0.  1.
         12    1    3    3    0    0 -0.11920894361E+03  0.13393621548E+03 -0.11257698542E+04  0.11399594057E+04  0.00000000000E+00 0. -1.
        -13    1    4    4    0    0 -0.30735155456E+01 -0.11395859585E+03 -0.43281134886E+03  0.44757309098E+03  0.00000000000E+00 0.  1.
         13    1    4    4    0    0 -0.10495653237E+02 -0.33815304449E+02 -0.28944538469E+02  0.45732044116E+02  0.00000000000E+00 0. -1.
          1    1    1    2  501    0  0.12515914736E+03 -0.11104430522E+02 -0.22268028091E+03  0.25568462615E+03  0.00000000000E+00 0. -1.
<scales pt_clust_5="13000.00000" pt_clust_6="13000.00000" pt_clust_7="13000.00000" pt_clust_8="13000.00000" pt_clust_9="125.65079"></scales>
<clustering>
<clus scale="   75.268">  5  6 -1 -1</clus>
<clus scale="   90.057">  7  8 -1 -1</clus>
<clus scale="  125.651">  1  9  2 -1</clus>
<clus scale="  184.725">  2  5  1 -1</clus>
<clus scale="  125.651">  1  5  2 -1</clus>
</clustering>
</event>
<event>
 9    2  0.6190160E-005  0.1021712E+03  0.7546771E-02  0.1281582E+00
         -1   -1    0    0    0  501 -0.00000000000E+00  0.00000000000E+00  0.26372601101E+03  0.26372601101E+03  0.00000000000E+00 0.  1.
         21   -1    0    0  501  502  0.00000000000E+00 -0.00000000000E+00 -0.21117340377E+03  0.21117340377E+03  0.00000000000E+00 0.  1.
         24    2    1    2    0    0  0.45680366257E+02 -0.22310736371E+00  0.21347643362E+03  0.23205456977E+03  0.78679031525E+02 0.  0.
         23    2    1    2    0    0 -0.65232647757E+02  0.40542059728E+02 -0.15820389797E+03  0.19795266706E+03  0.90872592794E+02 0.  0.
        -13    1    3    3    0    0  0.54329449811E+02  0.29210227190E+01  0.71831364534E+02  0.90110856290E+02  0.00000000000E+00 0.  1.
         14    1    3    3    0    0 -0.86490835535E+01 -0.31441300828E+01  0.14164506908E+03  0.14194371348E+03  0.00000000000E+00 0. -1.
        -11    1    4    4    0    0 -0.58779444792E+02 -0.13721079715E+02 -0.57426849860E+02  0.83313469760E+02  0.00000000000E+00 0. -1.
         11    1    4    4    0    0 -0.64532029646E+01  0.54263139443E+02 -0.10077704811E+03  0.11463919730E+03  0.00000000000E+00 0.  1.
         -2    1    1    2    0  502  0.19552281500E+02 -0.40318952364E+02 -0.27199284012E+01  0.44892177961E+02  0.00000000000E+00 0.  1.
<scales pt_clust_5="13000.00000" pt_clust_6="13000.00000" pt_clust_7="13000.00000" pt_clust_8="13000.00000" pt_clust_9="44.80970"></scales>
<clustering>
<clus scale="   44.810">  2  9  1 -1</clus>
<clus scale="   78.679">  5  6 -1 -1</clus>
<clus scale="   90.873">  7  8 -1 -1</clus>
<clus scale="   91.496">  1  5  2 -1</clus>
<clus scale="   44.810">  2  5  1 -1</clus>
</clustering>
</event>
<event>
 9    2  0.6190160E-005  0.9278567E+02  0.7546771E-02  0.1301445E+00
         21   -1    0    0  501  502  0.00000000000E+00  0.00000000000E+00  0.53575814364E+02  0.53575814364E+02  0.00000000000E+00 0. -1.
          2   -1    0    0  502    0 -0.00000000000E+00 -0.00000000000E+00 -0.33643214916E+03  0.33643214916E+03  0.00000000000E+00 0. -1.
         24    2    1    2    0    0  0.25543034477E+01 -0.18672796954E+01 -0.14454536002E+03  0.16592018312E+03  0.81401074085E+02 0.  0.
         23    2    1    2    0    0 -0.28032643120E+02  0.59737790488E+02 -0.10129205467E+03  0.15081744358E+03  0.90174210605E+02 0.  0.
        -13    1    3    3    0    0  0.32429570320E+02 -0.17232170417E+02 -0.32816238165E+02  0.49249672240E+02  0.00000000000E+00 0.  1.
         14    1    3    3    0    0 -0.29875266872E+02  0.15364890721E+02 -0.11172912186E+03  0.11667051088E+03  0.00000000000E+00 0. -1.
        -11    1    4    4    0    0  0.32615764254E+02  0.21496618567E+02 -0.45510622725E+02  0.59975907401E+02  0.00000000000E+00 0.  1.
         11    1    4    4    0    0 -0.60648407374E+02  0.38241171922E+02 -0.55781431940E+02  0.90841536184E+02  0.00000000000E+00 0. -1.
          1    1    1    2  501    0  0.25478339672E+02 -0.57870510793E+02 -0.37018920108E+02  0.73270336821E+02  0.00000000000E+00 0. -1.
<scales pt_clust_5="13000.00000" pt_clust_6="13000.00000" pt_clust_7="13000.00000" pt_clust_8="13000.00000" pt_clust_9="63.23086"></scales>
<clustering>
<clus scale="   63.231">  1  9  2 -1</clus>
<clus scale="   81.401">  5  6 -1 -1</clus>
<clus scale="   84.285">  2  5  1 -1</clus>
<clus scale="   90.174">  7  8 -1 -1</clus>
<clus scale="   63.231">  1  5  2 -1</clus>
</clustering>
</event>
<event>
 9    2  0.6190160E-005  0.1293744E+03  0.7546771E-02  0.1230518E+00
         21   -1    0    0  501  502  0.00000000000E+00  0.00000000000E+00  0.50963148048E+03  0.50963148048E+03  0.00000000000E+00 0.  1.
         -1   -1    0    0    0  501 -0.00000000000E+00 -0.00000000000E+00 -0.91261168808E+02  0.91261168808E+02  0.00000000000E+00 0.  1.
         24    2    1    2    0    0 -0.28712362084E+02  0.85685623361E+02  0.20518195347E+01  0.13365612683E+03  0.98454682411E+02 0.  0.
         23    2    1    2    0    0 -0.37049829680E+02 -0.61339245895E+02  0.35721765692E+03  0.37552872189E+03  0.91006448032E+02 0.  0.
        -13    1    3    3    0    0 -0.27504721122E+02  0.95017817274E+02  0.30643014973E+02  0.10355621493E+03  0.00000000000E+00 0.  1.
         14    1    3    3    0    0 -0.12076409612E+01 -0.93321939130E+01 -0.28591195439E+02  0.30099911902E+02  0.00000000000E+00 0. -1.
        -11    1    4    4    0    0 -0.38319824554E+02  0.12408641471E+02  0.96256752224E+02  0.10434436106E+03  0.00000000000E+00 0. -1.
         11    1    4    4    0    0  0.12699948734E+01 -0.73747887366E+02  0.26096090469E+03  0.27118436083E+03  0.00000000000E+00 0.  1.
         -2    1    1    2    0  502  0.65762191764E+02 -0.24346377466E+02  0.59100835217E+02  0.91707800566E+02  0.00000000000E+00 0.  1.
<scales pt_clust_5="13000.00000" pt_clust_6="13000.00000" pt_clust_7="13000.00000" pt_clust_8="13000.00000" pt_clust_9="70.12430"></scales>
<clustering>
<clus scale="   70.124">  1  9  2 -1</clus>
<clus scale="   91.006">  7  8 -1 -1</clus>
<clus scale="   98.455">  5  6 -1 -1</clus>
<clus scale="  123.801">  1  7  2 -1</clus>
<clus scale="   70.124">  1  5  2 -1</clus>
</clustering>
</event>
<event>
 9    2  0.6190160E-005  0.1042976E+03  0.7546771E-02  0.1274015E+00
          4   -1    0    0  502    0 -0.00000000000E+00  0.00000000000E+00  0.75926765687E+02  0.75926765687E+02  0.00000000000E+00 0. -1.
         21   -1    0    0  501  502  0.00000000000E+00 -0.00000000000E+00 -0.60219834190E+03  0.60219834190E+03  0.00000000000E+00 0. -1.
         23    2    1    2    0    0  0.13276095698E+02  0.60216371950E+02  0.29927546886E+01  0.10626125613E+03  0.86488333356E+02 0.  0.
         24    2    1    2    0    0  0.42575722816E+02 -0.52871969508E+02 -0.12389022781E+03  0.16259434449E+03  0.80498415997E+02 0.  0.
        -13    1    4    4    0    0 -0.67218916712E+01 -0.49622637471E+02 -0.35665857280E+02  0.61478804093E+02  0.00000000000E+00 0.  1.
         14    1    4    4    0    0  0.49297614487E+02 -0.32493320368E+01 -0.88224370534E+02  0.10111554039E+03  0.00000000000E+00 0. -1.
        -13    1    3    3    0    0 -0.30857065131E+02  0.25795173400E+02 -0.20994124671E+02  0.45368521134E+02  0.00000000000E+00 0.  1.
         13    1    3    3    0    0  0.44133160829E+02  0.34421198549E+02  0.23986879359E+02  0.60892734999E+02  0.00000000000E+00 0. -1.
          3    1    1    2  501    0 -0.55851818514E+02 -0.73444024419E+01 -0.40537410309E+03  0.40926950697E+03  0.00000000000E+00 0. -1.
<scales pt_clust_5="13000.00000" pt_clust_6="13000.00000" pt_clust_7="13000.00000" pt_clust_8="13000.00000" pt_clust_9="56.33264"></scales>
<clustering>
<clus scale="   56.333">  2  9  1 -1</clus>
<clus scale="   80.498">  5  6 -1 -1</clus>
<clus scale="   86.488">  7  8 -1 -1</clus>
<clus scale="   99.387">  2  5  1 -1</clus>
<clus scale="   56.333">  2  5  1 -1</clus>
</clustering>
</event>
<event>
 9    2  0.6190160E-005  0.1319826E+03  0.7546771E-02  0.1238547E+00
         21   -1    0    0  501  502  0.00000000000E+00  0.00000000000E+00  0.70419301051E+03  0.70419301051E+03  0.00000000000E+00 0.  1.
         -3   -1    0    0    0  501 -0.00000000000E+00 -0.00000000000E+00 -0.12703601424E+03  0.12703601424E+03  0.00000000000E+00 0.  1.
         23    2    1    2    0    0 -0.47844776245E+01 -0.33919591443E+02 -0.79443542710E+02  0.12686617247E+03  0.92791806370E+02 0.  0.
         24    2    1    2    0    0  0.43284190749E+02 -0.72967689367E+02  0.17947135805E+03  0.21389432728E+03  0.79643016158E+02 0.  0.
        -11    1    4    4    0    0 -0.32080721864E+01 -0.69234271097E+02  0.98306607923E+02  0.12028243921E+03  0.00000000000E+00 0.  1.
         12    1    4    4    0    0  0.46492262936E+02 -0.37334182704E+01  0.81164750129E+02  0.93611888072E+02  0.00000000000E+00 0. -1.
        -13    1    3    3    0    0  0.91286207888E+01 -0.57460929897E+02 -0.80706270781E+02  0.99491669629E+02  0.00000000000E+00 0.  1.
         13    1    3    3    0    0 -0.13913098413E+02  0.23541338455E+02  0.12627280706E+01  0.27374502843E+02  0.00000000000E+00 0. -1.
         -4    1    1    2    0  502 -0.38499713125E+02  0.10688728081E+03  0.47712918093E+03  0.49046852499E+03  0.00000000000E+00 0.  1.
<scales pt_clust_5="13000.00000" pt_clust_6="13000.00000" pt_clust_7="13000.00000" pt_clust_8="13000.00000" pt_clust_9="105.24445"></scales>
<clustering>
<clus scale="   79.643">  5  6 -1 -1</clus>
<clus scale="   92.792">  7  8 -1 -1</clus>
<clus scale="   98.913">  2  7  1 -1</clus>
<clus scale="  105.244">  1  9  2 -1</clus>
<clus scale="  105.244">  1  5  2 -1</clus>
</clustering>
</event>
<event>
 9    2  0.6190160E-005  0.1231956E+03  0.7546771E-02  0.1255774E+00
          4   -1    0    0  502    0 -0.00000000000E+00  0.00000000000E+00  0.52894350128E+03  0.52894350128E+03  0.00000000000E+00 0. -1.
         21   -1    0    0  501  502  0.00000000000E+00 -0.00000000000E+00 -0.44876502282E+02  0.44876502282E+02  0.00000000000E+00 0.  1.
         24    2    1    2    0    0  0.23270485697E+02 -0.21338581177E+02  0.77672325377E+02  0.11593446176E+03  0.80068462851E+02 0.  0.
         23    2    1    2    0    0  0.35582701251E+02 -0.53023304387E+02  0.27032860736E+03  0.29203210642E+03  0.90153179576E+02 0.  0.
        -11    1    3    3    0    0  0.71831513743E+00 -0.47777333380E+02  0.60728333040E+02  0.77273022429E+02  0.00000000000E+00 0.  1.
         12    1    3    3    0    0  0.22552170560E+02  0.26438752203E+02  0.16943992338E+02  0.38661439333E+02  0.00000000000E+00 0. -1.
        -11    1    4    4    0    0  0.13290955710E+02 -0.66385636566E+02  0.25008868950E+03  0.25909082358E+03  0.00000000000E+00 0.  1.
         11    1    4    4    0    0  0.22291745542E+02  0.13362332178E+02  0.20239917862E+02  0.32941282847E+02  0.00000000000E+00 0. -1.
          3    1    1    2  501    0 -0.58853186949E+02  0.74361885565E+02  0.13606606626E+03  0.16585343537E+03  0.00000000000E+00 0. -1.
<scales pt_clust_5="13000.00000" pt_clust_6="13000.00000" pt_clust_7="13000.00000" pt_clust_8="13000.00000" pt_clust_9="83.96172"></scales>
<clustering>
<clus scale="   80.068">  5  6 -1 -1</clus>
<clus scale="   86.069">  1  5  2 -1</clus>
<clus scale="   83.962">  2  9  1 -1</clus>
<clus scale="   90.153">  7  8 -1 -1</clus>
<clus scale="   83.962">  2  5  1 -1</clus>
</clustering>
</event>
<event>
 9    2  0.6190160E-005  0.1258087E+03  0.7546771E-02  0.1237943E+00
          4   -1    0    0  502    0 -0.00000000000E+00  0.00000000000E+00  0.18443499329E+03  0.18443499329E+03  0.00000000000E+00 0. -1.
         21   -1    0    0  501  502  0.00000000000E+00 -0.00000000000E+00 -0.15818694994E+03  0.15818694994E+03  0.00000000000E+00 0. -1.
         23    2    1    2    0    0 -0.22306771099E+02 -0.88869447675E+02  0.87041570754E+02  0.15692663467E+03  0.93028828119E+02 0.  0.
         24    2    1    2    0    0  0.65788186592E+02  0.51082181729E+02 -0.23219343992E+02  0.11691791242E+03  0.78696794876E+02 0.  0.
        -13    1    4    4    0    0  0.48734050376E+02  0.26779407299E+02  0.24461160579E+02  0.60749425497E+02  0.00000000000E+00 0.  1.
         14    1    4    4    0    0  0.17054136216E+02  0.24302774429E+02 -0.47680504570E+02  0.56168486922E+02  0.00000000000E+00 0. -1.
        -13    1    3    3    0    0 -0.44712620640E+00 -0.60428524155E+02 -0.24848664245E+01  0.60481245147E+02  0.00000000000E+00 0.  1.
         13    1    3    3    0    0 -0.21859644892E+02 -0.28440923520E+02  0.89526437178E+02  0.96445389518E+02  0.00000000000E+00 0. -1.
          3    1    1    2  501    0 -0.43481415493E+02  0.37787265946E+02 -0.37574183408E+02  0.68777396140E+02  0.00000000000E+00 0. -1.
<scales pt_clust_5="13000.00000" pt_clust_6="13000.00000" pt_clust_7="13000.00000" pt_clust_8="13000.00000" pt_clust_9="57.60652"></scales>
<clustering>
<clus scale="   57.607">  2  9  1 -1</clus>
<clus scale="   78.697">  5  6 -1 -1</clus>
<clus scale="   93.029">  7  8 -1 -1</clus>
<clus scale="  115.614">  2  5  1 -1</clus>
<clus scale="   57.607">  2  5  1 -1</clus>
</clustering>
</event>
<event>
 9    2  0.6190160E-005  0.1028878E+03  0.7546771E-02  0.1281892E+00
         21   -1    0    0  501  502  0.00000000000E+00  0.00000000000E+00  0.28450150878E+03  0.28450150878E+03  0.00000000000E+00 0.  1.
         -1   -1    0    0    0  501 -0.00000000000E+00 -0.00000000000E+00 -0.87431198261E+02  0.87431198261E+02  0.00000000000E+00 0.  1.
         24    2    1    2    0    0  0.60783335066E+00 -0.58171529932E+02  0.50305026301E+01  0.98854679661E+02  0.79766191950E+02 0.  0.
         23    2    1    2    0    0 -0.17447226813E+01 -0.21962702934E+02  0.15877786194E+03  0.18630738233E+03  0.94945388987E+02 0.  0.
        -11    1    3    3    0    0 -0.21593466773E+02 -0.69432943134E+02  0.10212660381E+02  0.73426901280E+02  0.00000000000E+00 0.  1.
         12    1    3    3    0    0  0.22201300123E+02  0.11261413202E+02 -0.51821577513E+01  0.25427778381E+02  0.00000000000E+00 0. -1.
        -11    1    4    4    0    0 -0.70989386641E+01 -0.50745721396E+02  0.14531347623E+03  0.15408286584E+03  0.00000000000E+00 0.  1.
         11    1    4    4    0    0  0.53542159828E+01  0.28783018462E+02  0.13464385712E+02  0.32224516493E+02  0.00000000000E+00 0. -1.
         -2    1    1    2    0  502  0.11368893307E+01  0.80134232866E+02  0.33261945944E+02  0.86770645050E+02  0.00000000000E+00 0.  1.
<scales pt_clust_5="13000.00000" pt_clust_6="13000.00000" pt_clust_7="13000.00000" pt_clust_8="13000.00000" pt_clust_9="80.14234"></scales>
<clustering>
<clus scale="   79.766">  5  6 -1 -1</clus>
<clus scale="   80.142">  1  9  2 -1</clus>
<clus scale="   89.073">  2  5  1 -1</clus>
<clus scale="   94.945">  7  8 -1 -1</clus>
<clus scale="   80.142">  1  5  2 -1</clus>
</clustering>
</event>
<event>
 9    2  0.6190160E-005  0.1942600E+03  0.7546771E-02  0.1156501E+00
         21   -1    0    0  501  502  0.00000000000E+00  0.00000000000E+00  0.21488666038E+03  0.21488666038E+03  0.00000000000E+00 0.  1.
          2   -1    0    0  502    0 -0.00000000000E+00 -0.00000000000E+00 -0.20855258295E+03  0.20855258295E+03  0.00000000000E+00 0. -1.
         23    2    1    2    0    0 -0.11526065500E+03  0.12386581486E+03 -0.42318825348E+02  0.20025292427E+03  0.98400162702E+02 0.  0.
         24    2    1    2    0    0  0.91987330652E+02 -0.13833784426E+03  0.58728393954E+02  0.19398695633E+03  0.81134991305E+02 0.  0.
        -11    1    4    4    0    0  0.32098207597E+02 -0.11464601513E+03  0.49454638021E+02  0.12891766728E+03  0.00000000000E+00 0.  1.
         12    1    4    4    0    0  0.59889123055E+02 -0.23691829133E+02  0.92737559330E+01  0.65069289047E+02  0.00000000000E+00 0. -1.
        -11    1    3    3    0    0 -0.16798473761E+02  0.51519234548E+02 -0.55248103191E+02  0.77387164021E+02  0.00000000000E+00 0. -1.
         11    1    3    3    0    0 -0.98462181237E+02  0.72346580310E+02  0.12929277842E+02  0.12286576025E+03  0.00000000000E+00 0.  1.
          1    1    1    2  501    0  0.23273324346E+02  0.14472029403E+02 -0.10075491175E+02  0.29199362726E+02  0.00000000000E+00 0. -1.
<scales pt_clust_5="13000.00000" pt_clust_6="13000.00000" pt_clust_7="13000.00000" pt_clust_8="13000.00000" pt_clust_9="27.40598"></scales>
<clustering>
<clus scale="   27.406">  1  9  2 -1</clus>
<clus scale="   81.135">  5  6 -1 -1</clus>
<clus scale="   98.400">  7  8 -1 -1</clus>
<clus scale="  186.111">  1  5  2 -1</clus>
<clus scale="   27.406">  1  5  2 -1</clus>
</clustering>
</event>
<event>
 9    2  0.6190160E-005  0.1048264E+03  0.7546771E-02  0.1281088E+00
          4   -1    0    0  502    0 -0.00000000000E+00  0.00000000000E+00  0.56512228144E+03  0.56512228144E+03  0.00000000000E+00 0. -1.
         21   -1    0    0  501  502  0.00000000000E+00 -0.00000000000E+00 -0.25774221281E+02  0.25774221281E+02  0.00000000000E+00 0.  1.
         24    2    1    2    0    0 -0.26171338207E+02  0.27520200664E+01  0.35002951615E+03  0.36002269865E+03  0.80019802586E+02 0.  0.
         23    2    1    2    0    0  0.44828252919E+02  0.62213870364E+01  0.14611598761E+03  0.18296698429E+03  0.10039301565E+03 0.  0.
        -11    1    3    3    0    0  0.26147435278E+02  0.59487540575E+01  0.66756662273E+02  0.71941142640E+02  0.00000000000E+00 0.  1.
         12    1    3    3    0    0 -0.52318773485E+02 -0.31967339911E+01  0.28327285388E+03  0.28808155601E+03  0.00000000000E+00 0. -1.
        -13    1    4    4    0    0  0.40042335956E+02 -0.16807971228E+02  0.96466429285E+01  0.44485439027E+02  0.00000000000E+00 0.  1.
         13    1    4    4    0    0  0.47859169623E+01  0.23029358264E+02  0.13646934468E+03  0.13848154527E+03  0.00000000000E+00 0. -1.
          3    1    1    2  501    0 -0.18656914712E+02 -0.89734071029E+01  0.43202556404E+02  0.47906819780E+02  0.00000000000E+00 0. -1.
<scales pt_clust_5="13000.00000" pt_clust_6="13000.00000" pt_clust_7="13000.00000" pt_clust_8="13000.00000" pt_clust_9="20.70272"></scales>
<clustering>
<clus scale="   20.703">  2  9  1 -1</clus>
<clus scale="   80.020">  5  6 -1 -1</clus>
<clus scale="   85.516">  1  5  2 -1</clus>
<clus scale="  100.393">  7  8 -1 -1</clus>
<clus scale="   20.703">  2  5  1 -1</clus>
</clustering>
</event>
<event>
 9    2  0.6190160E-005  0.9434764E+02  0.7546771E-02  0.1299501E+00
          2   -1    0    0  502    0 -0.00000000000E+00  0.00000000000E+00  0.27452018340E+03  0.27452018340E+03  0.00000000000E+00 0. -1.
         21   -1    0    0  501  502  0.00000000000E+00 -0.00000000000E+00 -0.14929902546E+03  0.14929902546E+03  0.00000000000E+00 0.  1.
         23    2    1    2    0    0 -0.74372162642E+01  0.25994054778E+02  0.23924629683E+03  0.25698079796E+03  0.89829487938E+02 0.  0.
         24    2    1    2    0    0 -0.20293210030E+01 -0.50483853146E+02 -0.72978856587E+02  0.11811302900E+03  0.77923273402E+02 0.  0.
        -11    1    4    4    0    0 -0.26691199638E+02 -0.41189747500E+02 -0.77140683257E+02  0.91431397510E+02  0.00000000000E+00 0.  1.
         12    1    4    4    0    0  0.24661878635E+02 -0.92941056456E+01  0.41618266697E+01  0.26681631486E+02  0.00000000000E+00 0. -1.
        -13    1    3    3    0    0  0.29078403506E+02 -0.19290876025E+02  0.74555350825E+02  0.82317627425E+02  0.00000000000E+00 0.  1.
         13    1    3    3    0    0 -0.36515619770E+02  0.45284930803E+02  0.16469094600E+03  0.17466317053E+03  0.00000000000E+00 0. -1.
          1    1    1    2  501    0  0.94665372671E+01  0.24489798368E+02 -0.41046282292E+02  0.48725381906E+02  0.00000000000E+00 0. -1.
<scales pt_clust_5="13000.00000" pt_clust_6="13000.00000" pt_clust_7="13000.00000" pt_clust_8="13000.00000" pt_clust_9="26.25577"></scales>
<clustering>
<clus scale="   26.256">  2  9  1 -1</clus>
<clus scale="   77.923">  5  6 -1 -1</clus>
<clus scale="   83.091">  2  5  1 -1</clus>
<clus scale="   89.829">  7  8 -1 -1</clus>
<clus scale="   26.256">  2  5  1 -1</clus>
</clustering>
</event>
<event>
 9    2  0.6190160E-005  0.1005226E+03  0.7546771E-02  0.1280903E+00
         21   -1    0    0  501  502  0.00000000000E+00  0.00000000000E+00  0.90769190836E+02  0.90769190836E+02  0.00000000000E+00 0.  1.
         -1   -1    0    0    0  501 -0.00000000000E+00 -0.00000000000E+00 -0.38576700663E+03  0.38576700663E+03  0.00000000000E+00 0.  1.
         23    2    1    2    0    0  0.20676241513E+02 -0.39605374066E+02 -0.17945262797E+03  0.20653943773E+03  0.91973914958E+02 0.  0.
         24    2    1    2    0    0 -0.62140539905E+02 -0.53765580054E+02 -0.12159894915E+03  0.16765385016E+03  0.81051371003E+02 0.  0.
        -13    1    4    4    0    0 -0.76693689938E+02 -0.22736572293E+02 -0.73788293926E+02  0.10882824135E+03  0.00000000000E+00 0.  1.
         14    1    4    4    0    0  0.14553150033E+02 -0.31029007761E+02 -0.47810655225E+02  0.58825608808E+02  0.00000000000E+00 0. -1.
        -11    1    3    3    0    0 -0.26639636595E+02  0.14189341260E+02 -0.62100629330E+02  0.69047055017E+02  0.00000000000E+00 0. -1.
         11    1    3    3    0    0  0.47315878109E+02 -0.53794715326E+02 -0.11735199864E+03  0.13749238271E+03  0.00000000000E+00 0.  1.
         -2    1    1    2    0  502  0.41464298392E+02  0.93370954120E+02  0.60537613274E+01  0.10234290958E+03  0.00000000000E+00 0.  1.
<scales pt_clust_5="13000.00000" pt_clust_6="13000.00000" pt_clust_7="13000.00000" pt_clust_8="13000.00000" pt_clust_9="102.16371"></scales>
<clustering>
<clus scale="   81.051">  5  6 -1 -1</clus>
<clus scale="   91.974">  7  8 -1 -1</clus>
<clus scale="  102.164">  1  9  2 -1</clus>
<clus scale="  102.164">  1  5  2 -1</clus>
<clus scale="  100.523">  1  5  2 -1</clus>
</clustering>
</event>
<event>
 9    2  0.6190160E-005  0.1127631E+03  0.7546771E-02  0.1258549E+00
         21   -1    0    0  501  502  0.00000000000E+00  0.00000000000E+00  0.15824299353E+03  0.15824299353E+03  0.00000000000E+00 0.  1.
          2   -1    0    0  502    0 -0.00000000000E+00 -0.00000000000E+00 -0.26522313068E+03  0.26522313068E+03  0.00000000000E+00 0. -1.
         23    2    1    2    0    0 -0.58014642303E+02 -0.37215736619E+02 -0.16802324199E+03  0.20273852066E+03  0.90113196240E+02 0.  0.
         24    2    1    2    0    0  0.43652389072E+02  0.51426003747E+02 -0.43231582245E+02  0.11451359141E+03  0.81818261898E+02 0.  0.
        -13    1    4    4    0    0  0.30894880284E+02  0.56813088488E+02  0.44876079949E+01  0.64825606644E+02  0.00000000000E+00 0.  1.
         14    1    4    4    0    0  0.12757508789E+02 -0.53870847403E+01 -0.47719190240E+02  0.49687984762E+02  0.00000000000E+00 0. -1.
        -13    1    3    3    0    0 -0.61523550430E+02  0.12105265057E+02 -0.10892509715E+03  0.12568357684E+03  0.00000000000E+00 0.  1.
         13    1    3    3    0    0  0.35089081273E+01 -0.49321001676E+02 -0.59098144842E+02  0.77054943815E+02  0.00000000000E+00 0. -1.
          1    1    1    2  501    0  0.14362253230E+02 -0.14210267128E+02  0.10427468708E+03  0.10621401215E+03  0.00000000000E+00 0. -1.
<scales pt_clust_5="13000.00000" pt_clust_6="13000.00000" pt_clust_7="13000.00000" pt_clust_8="13000.00000" pt_clust_9="20.20411"></scales>
<clustering>
<clus scale="   20.204">  1  9  2 -1</clus>
<clus scale="   81.818">  5  6 -1 -1</clus>
<clus scale="   90.113">  7  8 -1 -1</clus>
<clus scale="  106.251">  1  5  2 -1</clus>
<clus scale="   20.204">  1  5  2 -1</clus>
</clustering>
</event>
<event>
 9    2  0.6190160E-005  0.1569490E+03  0.7546771E-02  0.1194467E+00
          2   -1    0    0  502    0 -0.00000000000E+00  0.00000000000E+00  0.58391778914E+03  0.58391778914E+03  0.00000000000E+00 0. -1.
         21   -1    0    0  501  502  0.00000000000E+00 -0.00000000000E+00 -0.67390734427E+02  0.67390734427E+02  0.00000000000E+00 0. -1.
         23    2    1    2    0    0 -0.42731480881E+02  0.11883654205E+03  0.38546546055E+03  0.41638130888E+03  0.94030154351E+02 0.  0.
         24    2    1    2    0    0  0.67055716816E+02 -0.10705690700E+03  0.14137396870E+03  0.20600018021E+03  0.80571860632E+02 0.  0.
        -11    1    4    4    0    0  0.17265743538E+02 -0.15724182517E+02  0.84038417339E+02  0.87222768842E+02  0.00000000000E+00 0.  1.
         12    1    4    4    0    0  0.49789973278E+02 -0.91332724486E+02  0.57335551358E+02  0.11877741137E+03  0.00000000000E+00 0. -1.
        -11    1    3    3    0    0  0.20053520489E+02  0.40416030853E+02  0.20434925413E+03  0.20927067854E+03  0.00000000000E+00 0. -1.
         11    1    3    3    0    0 -0.62785001369E+02  0.78420511192E+02  0.18111620642E+03  0.20711063034E+03  0.00000000000E+00 0.  1.
          1    1    1    2  501    0 -0.24324235935E+02 -0.11779635043E+02 -0.10312374526E+02  0.28927034482E+02  0.00000000000E+00 0. -1.
<scales pt_clust_5="13000.00000" pt_clust_6="13000.00000" pt_clust_7="13000.00000" pt_clust_8="13000.00000" pt_clust_9="27.02644"></scales>
<clustering>
<clus scale="   27.026">  2  9  1 -1</clus>
<clus scale="   80.572">  5  6 -1 -1</clus>
<clus scale="   94.030">  7  8 -1 -1</clus>
<clus scale="  149.275">  2  5  1 -1</clus>
<clus scale="   27.026">  2  5  1 -1</clus>
</clustering>
</event>
<event>
 9    2  0.6190160E-005  0.1080641E+03  0.7546771E-02  0.1268625E+00
          2   -1    0    0  502    0 -0.00000000000E+00  0.00000000000E+00  0.74718903640E+03  0.74718903640E+03  0.00000000000E+00 0. -1.
         21   -1    0    0  501  502  0.00000000000E+00 -0.00000000000E+00 -0.45324469310E+02  0.45324469310E+02  0.00000000000E+00 0. -1.
         24    2    1    2    0    0 -0.29470752895E+02  0.42542708125E+02  0.40961861795E+03  0.42079081369E+03  0.81234779674E+02 0.  0.
         23    2    1    2    0    0  0.21085045807E+02 -0.64117154611E+02  0.31756562259E+03  0.33741725967E+03  0.91906984473E+02 0.  0.
        -13    1    3    3    0    0  0.14833453594E+02  0.47060338034E+02  0.16774800613E+03  0.17485451188E+03  0.00000000000E+00 0.  1.
         14    1    3    3    0    0 -0.44304206489E+02 -0.45176299093E+01  0.24187061181E+03  0.24593630182E+03  0.00000000000E+00 0. -1.
        -13    1    4    4    0    0  0.52299739171E+02 -0.28377315320E+02  0.11635193752E+03  0.13068400096E+03  0.00000000000E+00 0.  1.
         13    1    4    4    0    0 -0.31214693364E+02 -0.35739839291E+02  0.20121368507E+03  0.20673325871E+03  0.00000000000E+00 0. -1.
          1    1    1    2  501    0  0.83857070885E+01  0.21574446487E+02 -0.25319673456E+02  0.34305432346E+02  0.00000000000E+00 0. -1.
<scales pt_clust_5="13000.00000" pt_clust_6="13000.00000" pt_clust_7="13000.00000" pt_clust_8="13000.00000" pt_clust_9="23.14685"></scales>
<clustering>
<clus scale="   23.147">  2  9  1 -1</clus>
<clus scale="   81.235">  5  6 -1 -1</clus>
<clus scale="   91.907">  7  8 -1 -1</clus>
<clus scale="   99.147">  1  5  2 -1</clus>
<clus scale="   23.147">  2  5  1 -1</clus>
</clustering>
</event>
<event>
 9    2  0.6190160E-005  0.9119341E+02  0.7546771E-02  0.1312568E+00
         21   -1    0    0  501  502  0.00000000000E+00  0.00000000000E+00  0.21323901480E+02  0.21323901480E+02  0.00000000000E+00 0. -1.
          2   -1    0    0  502    0 -0.00000000000E+00 -0.00000000000E+00 -0.12563642437E+04  0.12563642437E+04  0.00000000000E+00 0. -1.
         24    2    1    2    0    0 -0.84777139044E+01 -0.33356274133E+02 -0.84219820503E+03  0.84671407013E+03  0.80264483729E+02 0.  0.
         23    2    1    2    0    0  0.60996125290E+02  0.50846906646E+02 -0.34177308184E+03  0.35566036996E+03  0.58133674227E+02 0.  0.
        -11    1    3    3    0    0 -0.30278164100E+01 -0.24734217622E+02 -0.67565402967E+02  0.72014115781E+02  0.00000000000E+00 0.  1.
         12    1    3    3    0    0 -0.54498974944E+01 -0.86220565103E+01 -0.77463280206E+03  0.77469995435E+03  0.00000000000E+00 0. -1.
        -13    1    4    4    0    0 -0.34526584498E+01  0.29435041714E+02 -0.12668709188E+03  0.13010750086E+03  0.00000000000E+00 0.  1.
         13    1    4    4    0    0  0.64448783740E+02  0.21411864932E+02 -0.21508598995E+03  0.22555286910E+03  0.00000000000E+00 0. -1.
          1    1    1    2  501    0 -0.52518411386E+02 -0.17490632513E+02 -0.51069055386E+02  0.75313705116E+02  0.00000000000E+00 0. -1.
<scales pt_clust_5="13000.00000" pt_clust_6="13000.00000" pt_clust_7="13000.00000" pt_clust_8="13000.00000" pt_clust_9="55.35437"></scales>
<clustering>
<clus scale="   55.354">  1  9  2 -1</clus>
<clus scale="   58.134">  7  8 -1 -1</clus>
<clus scale="   72.480">  1  7  2 -1</clus>
<clus scale="   80.264">  5  6 -1 -1</clus>
<clus scale="   55.354">  1  5  2 -1</clus>
</clustering>
</event>
<event>
 9    2  0.6190160E-005  0.9839970E+02  0.7546771E-02  0.1290818E+00
         21   -1    0    0  501  502  0.00000000000E+00  0.00000000000E+00  0.98331926185E+01  0.98331926185E+01  0.00000000000E+00 0. -1.
          2   -1    0    0  502    0 -0.00000000000E+00 -0.00000000000E+00 -0.12282641443E+04  0.12282641443E+04  0.00000000000E+00 0. -1.
         24    2    1    2    0    0  0.15100933026E+02  0.23408198307E+02 -0.69294784736E+03  0.69828560215E+03  0.81548029269E+02 0.  0.
         23    2    1    2    0    0 -0.31961224004E+02 -0.75770937933E+01 -0.44268820223E+03  0.45384727064E+03  0.94475226807E+02 0.  0.
        -13    1    3    3    0    0  0.29934381923E+02  0.57194156392E+01 -0.92438741990E+02  0.97332933568E+02  0.00000000000E+00 0.  1.
         14    1    3    3    0    0 -0.14833448896E+02  0.17688782668E+02 -0.60050910537E+03  0.60095266858E+03  0.00000000000E+00 0. -1.
        -13    1    4    4    0    0  0.27808304077E+02  0.19439455196E+02 -0.17315389634E+03  0.17644677955E+03  0.00000000000E+00 0.  1.
         13    1    4    4    0    0 -0.59769528081E+02 -0.27016548989E+02 -0.26953430589E+03  0.27740049109E+03  0.00000000000E+00 0. -1.
          1    1    1    2  501    0  0.16860290978E+02 -0.15831104514E+02 -0.82794902110E+02  0.85964464155E+02  0.00000000000E+00 0. -1.
<scales pt_clust_5="13000.00000" pt_clust_6="13000.00000" pt_clust_7="13000.00000" pt_clust_8="13000.00000" pt_clust_9="23.12776"></scales>
<clustering>
<clus scale="   23.128">  1  9  2 -1</clus>
<clus scale="   81.548">  5  6 -1 -1</clus>
<clus scale="   86.064">  2  5  1 -1</clus>
<clus scale="   94.475">  7  8 -1 -1</clus>
<clus scale="   23.128">  1  5  2 -1</clus>
</clustering>
</event>
<event>
 9    2  0.6190160E-005  0.5384704E+03  0.7546771E-02  0.1057541E+00
         21   -1    0    0  501  502  0.00000000000E+00  0.00000000000E+00  0.10752822053E+03  0.10752822053E+03  0.00000000000E+00 0.  1.
          2   -1    0    0  502    0 -0.00000000000E+00 -0.00000000000E+00 -0.34022392073E+04  0.34022392073E+04  0.00000000000E+00 0. -1.
         23    2    1    2    0    0 -0.14040093332E+02  0.51712448486E+02 -0.23794085872E+03  0.26246317601E+03  0.96952385027E+02 0.  0.
         24    2    1    2    0    0 -0.51967505674E+03 -0.10805728088E+03 -0.12011417106E+04  0.13156253382E+04  0.79937982741E+02 0.  0.
        -13    1    4    4    0    0 -0.43349012667E+03 -0.89495642640E+02 -0.91920144207E+03  0.10202227458E+04  0.00000000000E+00 0.  1.
         14    1    4    4    0    0 -0.86184930072E+02 -0.18561638243E+02 -0.28194026848E+03  0.29540259237E+03  0.00000000000E+00 0. -1.
        -11    1    3    3    0    0  0.21973793691E+02 -0.17089923779E+02 -0.32260095900E+02  0.42610173567E+02  0.00000000000E+00 0.  1.
         11    1    3    3    0    0 -0.36013887023E+02  0.68802372265E+02 -0.20568076283E+03  0.21985300245E+03  0.00000000000E+00 0. -1.
          1    1    1    2  501    0  0.53371515007E+03  0.56344832396E+02 -0.18556284175E+04  0.19316789136E+04  0.00000000000E+00 0. -1.
<scales pt_clust_5="13000.00000" pt_clust_6="13000.00000" pt_clust_7="13000.00000" pt_clust_8="13000.00000" pt_clust_9="532.50402"></scales>
<clustering>
<clus scale="   79.938">  5  6 -1 -1</clus>
<clus scale="   96.952">  7  8 -1 -1</clus>
<clus scale="  110.775">  2  7  1 -1</clus>
<clus scale="  532.504">  1  9  2 -1</clus>
<clus scale="  532.504">  1  5  2 -1</clus>
</clustering>
</event>
<event>
 9    2  0.6190160E-005  0.1519889E+03  0.7546771E-02  0.1199440E+00
         -1   -1    0    0    0  501 -0.00000000000E+00  0.00000000000E+00  0.75962610932E+03  0.75962610932E+03  0.00000000000E+00 0.  1.
         21   -1    0    0  501  502  0.00000000000E+00 -0.00000000000E+00 -0.52066114150E+02  0.52066114150E+02  0.00000000000E+00 0. -1.
         23    2    1    2    0    0  0.12651734599E+03  0.20844102275E+02  0.53976257322E+03  0.56230671963E+03  0.91673856980E+02 0.  0.
         24    2    1    2    0    0 -0.79920129864E+02 -0.37423494343E+02  0.13962562860E+03  0.19246602798E+03  0.98793272436E+02 0.  0.
        -11    1    4    4    0    0  0.22641186904E+02 -0.91566661759E+01  0.39090667298E+02  0.46092821021E+02  0.00000000000E+00 0.  1.
         12    1    4    4    0    0 -0.10256131677E+03 -0.28266828167E+02  0.10053496130E+03  0.14637320696E+03  0.00000000000E+00 0. -1.
        -11    1    3    3    0    0  0.10465560848E+03  0.32033490659E+02  0.51817823510E+03  0.52961082338E+03  0.00000000000E+00 0.  1.
         11    1    3    3    0    0  0.21861737510E+02 -0.11189388384E+02  0.21584338121E+02  0.32695896249E+02  0.00000000000E+00 0. -1.
         -2    1    1    2    0  502 -0.46597216123E+02  0.16579392067E+02  0.28171793346E+02  0.56919475859E+02  0.00000000000E+00 0.  1.
<scales pt_clust_5="13000.00000" pt_clust_6="13000.00000" pt_clust_7="13000.00000" pt_clust_8="13000.00000" pt_clust_9="49.45884"></scales>
<clustering>
<clus scale="   49.459">  2  9  1 -1</clus>
<clus scale="   91.674">  7  8 -1 -1</clus>
<clus scale="   98.793">  5  6 -1 -1</clus>
<clus scale="  147.461">  1  7  2 -1</clus>
<clus scale="   49.459">  2  5  1 -1</clus>
</clustering>
</event>
<event>
 9    2  0.6190160E-005  0.1027366E+03  0.7546771E-02  0.1279723E+00
         21   -1    0    0  501  502  0.00000000000E+00  0.00000000000E+00  0.11206121636E+03  0.11206121636E+03  0.00000000000E+00 0. -1.
          2   -1    0    0  502    0 -0.00000000000E+00 -0.00000000000E+00 -0.67521352197E+03  0.67521352197E+03  0.00000000000E+00 0. -1.
         24    2    1    2    0    0 -0.34668064928E+02  0.26824074378E+02 -0.36124308085E+03  0.37266706355E+03  0.80391362136E+02 0.  0.
         23    2    1    2    0    0  0.56652619627E+02 -0.77082263461E+01 -0.29659768122E+03  0.31553880944E+03  0.91244833795E+02 0.  0.
        -11    1    3    3    0    0 -0.26876012473E+02 -0.21294758457E+02 -0.77214130364E+02  0.84485553274E+02  0.00000000000E+00 0.  1.
         12    1    3    3    0    0 -0.77920524556E+01  0.48118832834E+02 -0.28402895048E+03  0.28818151028E+03  0.00000000000E+00 0. -1.
        -13    1    4    4    0    0  0.49957449823E+02 -0.39133925869E+02 -0.11712061690E+03  0.13320829498E+03  0.00000000000E+00 0.  1.
         13    1    4    4    0    0  0.66951698043E+01  0.31425699523E+02 -0.17947706432E+03  0.18233051446E+03  0.00000000000E+00 0. -1.
          1    1    1    2  501    0 -0.21984554699E+02 -0.19115848031E+02  0.94688456464E+02  0.99068865335E+02  0.00000000000E+00 0. -1.
<scales pt_clust_5="13000.00000" pt_clust_6="13000.00000" pt_clust_7="13000.00000" pt_clust_8="13000.00000" pt_clust_9="29.13308"></scales>
<clustering>
<clus scale="   29.133">  1  9  2 -1</clus>
<clus scale="   80.391">  5  6 -1 -1</clus>
<clus scale="   91.245">  7  8 -1 -1</clus>
<clus scale="   93.231">  2  5  1 -1</clus>
<clus scale="   29.133">  1  5  2 -1</clus>
</clustering>
</event>
<event>
 9    2  0.6190160E-005  0.1110735E+03  0.7546771E-02  0.1262867E+00
         21   -1    0    0  501  502  0.00000000000E+00  0.00000000000E+00  0.83233672349E+03  0.83233672349E+03  0.00000000000E+00 0.  1.
          4   -1    0    0  502    0 -0.00000000000E+00 -0.00000000000E+00 -0.17776679102E+02  0.17776679102E+02  0.00000000000E+00 0. -1.
         24    2    1    2    0    0 -0.45545378044E+02 -0.54217577720E+02  0.27850097317E+03  0.29800077224E+03  0.78916037674E+02 0.  0.
         23    2    1    2    0    0  0.46696330779E+02  0.31429358300E+02  0.47911034189E+03  0.49076293265E+03  0.90184169816E+02 0.  0.
        -11    1    3    3    0    0  0.72433404515E+01 -0.52627190678E+02  0.13349493668E+03  0.14367666929E+03  0.00000000000E+00 0.  1.
         12    1    3    3    0    0 -0.52788718495E+02 -0.15903870420E+01  0.14500603649E+03  0.15432410294E+03  0.00000000000E+00 0. -1.
        -13    1    4    4    0    0  0.16600633565E+01 -0.29717773587E+02  0.15958013553E+03  0.16233213340E+03  0.00000000000E+00 0. -1.
         13    1    4    4    0    0  0.45036267423E+02  0.61147131887E+02  0.31953020636E+03  0.32843079925E+03  0.00000000000E+00 0.  1.
          3    1    1    2  501    0 -0.11509527355E+01  0.22788219420E+02  0.56948729326E+02  0.61349697704E+02  0.00000000000E+00 0. -1.
<scales pt_clust_5="13000.00000" pt_clust_6="13000.00000" pt_clust_7="13000.00000" pt_clust_8="13000.00000" pt_clust_9="22.81728"></scales>
<clustering>
<clus scale="   22.817">  1  9  2 -1</clus>
<clus scale="   78.916">  5  6 -1 -1</clus>
<clus scale="   90.184">  7  8 -1 -1</clus>
<clus scale="  102.137">  2  5  1 -1</clus>
<clus scale="   22.817">  1  5  2 -1</clus>
</clustering>
</event>
<event>
 9    2  0.6190160E-005  0.1564363E+03  0.7546771E-02  0.1194620E+00
         21   -1    0    0  501  502  0.00000000000E+00  0.00000000000E+00  0.91336926945E+02  0.91336926945E+02  0.00000000000E+00 0. -1.
         -1   -1    0    0    0  501 -0.00000000000E+00 -0.00000000000E+00 -0.65100504109E+03  0.65100504109E+03  0.00000000000E+00 0.  1.
         23    2    1    2    0    0 -0.12993719365E+03 -0.58684616317E+02 -0.50826133237E+03  0.53581753901E+03  0.91887402011E+02 0.  0.
         24    2    1    2    0    0  0.47926535164E+02  0.70010277878E+02 -0.30980165456E+02  0.12125271408E+03  0.80895353621E+02 0.  0.
        -11    1    4    4    0    0  0.18842793661E+02  0.25381730921E+02 -0.54514422554E+02  0.63016707340E+02  0.00000000000E+00 0.  1.
         12    1    4    4    0    0  0.29083741504E+02  0.44628546957E+02  0.23534257098E+02  0.58236006736E+02  0.00000000000E+00 0. -1.
        -11    1    3    3    0    0 -0.71855537829E+02 -0.16931146487E+02 -0.39514068740E+03  0.40197766713E+03  0.00000000000E+00 0.  1.
         11    1    3    3    0    0 -0.58081655826E+02 -0.41753469830E+02 -0.11312064497E+03  0.13383987188E+03  0.00000000000E+00 0. -1.
         -2    1    1    2    0  502  0.82010658490E+02 -0.11325661561E+02 -0.20426616326E+02  0.85271714949E+02  0.00000000000E+00 0.  1.
<scales pt_clust_5="13000.00000" pt_clust_6="13000.00000" pt_clust_7="13000.00000" pt_clust_8="13000.00000" pt_clust_9="82.78900"></scales>
<clustering>
<clus scale="   80.895">  5  6 -1 -1</clus>
<clus scale="   82.789">  1  9  2 -1</clus>
<clus scale="   91.887">  7  8 -1 -1</clus>
<clus scale="  150.243">  1  5  2 -1</clus>
<clus scale="   82.789">  1  5  2 -1</clus>
</clustering>
</event>
<event>
 9    2  0.6190160E-005  0.1026783E+03  0.7546771E-02  0.1280581E+00
         21   -1    0    0  501  502  0.00000000000E+00  0.00000000000E+00  0.14838929319E+03  0.14838929319E+03  0.00000000000E+00 0. -1.
          2   -1    0    0  502    0 -0.00000000000E+00 -0.00000000000E+00 -0.34434574618E+03  0.34434574618E+03  0.00000000000E+00 0. -1.
         24    2    1    2    0    0  0.17221613565E+02 -0.50009474346E+02 -0.26806420518E+03  0.28460715760E+03  0.79657294439E+02 0.  0.
         23    2    1    2    0    0  0.22351561182E+01 -0.36082382677E+02  0.67735715489E+02  0.11975657174E+03  0.91905250447E+02 0.  0.
        -11    1    3    3    0    0 -0.28088626125E+02 -0.39251977929E+02 -0.11823803316E+03  0.12771030175E+03  0.00000000000E+00 0.  1.
         12    1    3    3    0    0  0.45310239691E+02 -0.10757496416E+02 -0.14982617203E+03  0.15689685585E+03  0.00000000000E+00 0. -1.
        -13    1    4    4    0    0 -0.33787875676E+02  0.94236247988E+01  0.70381979123E+01  0.35776549259E+02  0.00000000000E+00 0.  1.
         13    1    4    4    0    0  0.36023031794E+02 -0.45506007476E+02  0.60697517576E+02  0.83980022481E+02  0.00000000000E+00 0. -1.
          1    1    1    2  501    0 -0.19456769683E+02  0.86091857023E+02  0.43720367060E+01  0.88371310034E+02  0.00000000000E+00 0. -1.
<scales pt_clust_5="13000.00000" pt_clust_6="13000.00000" pt_clust_7="13000.00000" pt_clust_8="13000.00000" pt_clust_9="88.26309"></scales>
<clustering>
<clus scale="   79.657">  5  6 -1 -1</clus>
<clus scale="   88.263">  1  9  2 -1</clus>
<clus scale="   91.878">  2  5  1 -1</clus>
<clus scale="   91.905">  7  8 -1 -1</clus>
<clus scale="   88.263">  1  5  2 -1</clus>
</clustering>
</event>
<event>
 9    2  0.6190160E-005  0.4208009E+03  0.7546771E-02  0.1073045E+00
         -1   -1    0    0    0  501 -0.00000000000E+00  0.00000000000E+00  0.53725189234E+03  0.53725189234E+03  0.00000000000E+00 0.  1.
         21   -1    0    0  501  502  0.00000000000E+00 -0.00000000000E+00 -0.54413157150E+03  0.54413157150E+03  0.00000000000E+00 0.  1.
         23    2    1    2    0    0  0.91414218731E+02 -0.78275813000E+02 -0.74245337751E+02  0.16832474935E+03  0.91308207628E+02 0.  0.
         24    2    1    2    0    0 -0.37157937782E+03  0.32937567930E+03  0.15545916882E+03  0.52665979398E+03  0.81507136453E+02 0.  0.
        -11    1    4    4    0    0 -0.31387624741E+03  0.30188121645E+03  0.15643492358E+03  0.46273367378E+03  0.00000000000E+00 0.  1.
         12    1    4    4    0    0 -0.57703130414E+02  0.27494462848E+02 -0.97575476745E+00  0.63926120203E+02  0.00000000000E+00 0. -1.
        -11    1    3    3    0    0  0.65355567603E+02 -0.68322490792E-01 -0.50335934427E+02  0.82492794712E+02  0.00000000000E+00 0.  1.
         11    1    3    3    0    0  0.26058651128E+02 -0.78207490510E+02 -0.23909403323E+02  0.85831954642E+02  0.00000000000E+00 0. -1.
         -2    1    1    2    0  502  0.28016515909E+03 -0.25109986630E+03 -0.88093510221E+02  0.38639892050E+03  0.00000000000E+00 0.  1.
<scales pt_clust_5="13000.00000" pt_clust_6="13000.00000" pt_clust_7="13000.00000" pt_clust_8="13000.00000" pt_clust_9="412.83164"></scales>
<clustering>
<clus scale="   81.507">  5  6 -1 -1</clus>
<clus scale="   91.308">  7  8 -1 -1</clus>
<clus scale="  151.066">  1  7  2 -1</clus>
<clus scale="  412.832">  2  9  1 -1</clus>
<clus scale="  412.832">  2  5  1 -1</clus>
</clustering>
</event>
<event>
 9    2  0.6190160E-005  0.3294727E+03  0.7546771E-02  0.1071734E+00
          2   -1    0    0  502    0 -0.00000000000E+00  0.00000000000E+00  0.18222092814E+04  0.18222092814E+04  0.00000000000E+00 0. -1.
         21   -1    0    0  501  502  0.00000000000E+00 -0.00000000000E+00 -0.11261267604E+03  0.11261267604E+03  0.00000000000E+00 0. -1.
         24    2    1    2    0    0 -0.92392900681E+02  0.29961623268E+03  0.12706756879E+04  0.13112204994E+04  0.79850856547E+02 0.  0.
         23    2    1    2    0    0  0.78175425611E+02 -0.31433439184E+03  0.47490236177E+03  0.58220791822E+03  0.92283800113E+02 0.  0.
        -11    1    3    3    0    0  0.14740341917E+02  0.31013212264E+02  0.12957845764E+03  0.13405101156E+03  0.00000000000E+00 0.  1.
         12    1    3    3    0    0 -0.10713324260E+03  0.26860302041E+03  0.11410972302E+04  0.11771694878E+04  0.00000000000E+00 0. -1.
        -11    1    4    4    0    0  0.29615554443E+02 -0.21189154499E+02  0.29889002322E+02  0.47110654773E+02  0.00000000000E+00 0. -1.
         11    1    4    4    0    0  0.48559871167E+02 -0.29314523734E+03  0.44501335944E+03  0.53509726345E+03  0.00000000000E+00 0.  1.
          1    1    1    2  501    0  0.14217475070E+02  0.14718159165E+02 -0.35981444282E+02  0.41393539825E+02  0.00000000000E+00 0. -1.
<scales pt_clust_5="13000.00000" pt_clust_6="13000.00000" pt_clust_7="13000.00000" pt_clust_8="13000.00000" pt_clust_9="20.46365"></scales>
<clustering>
<clus scale="   20.464">  2  9  1 -1</clus>
<clus scale="   79.851">  5  6 -1 -1</clus>
<clus scale="   92.284">  7  8 -1 -1</clus>
<clus scale="  326.209">  1  5  2 -1</clus>
<clus scale="   20.464">  2  5  1 -1</clus>
</clustering>
</event>
<event>
 9    2  0.6190160E-005  0.1366855E+03  0.7546771E-02  0.1219528E+00
          2   -1    0    0  502    0 -0.00000000000E+00  0.00000000000E+00  0.11809215293E+03  0.11809215293E+03  0.00000000000E+00 0. -1.
         21   -1    0    0  501  502  0.00000000000E+00 -0.00000000000E+00 -0.29827637983E+03  0.29827637983E+03  0.00000000000E+00 0. -1.
         23    2    1    2    0    0 -0.72532449140E+02 -0.35377240788E+02 -0.80482097058E+02  0.14653056246E+03  0.92094149889E+02 0.  0.
         24    2    1    2    0    0  0.13367144140E+03 -0.27027287244E+02 -0.83205280539E+02  0.18093101034E+03  0.84937525812E+02 0.  0.
        -13    1    4    4    0    0  0.38330044431E+02 -0.39191563220E+02 -0.15944346790E+01  0.54842621707E+02  0.00000000000E+00 0.  1.
         14    1    4    4    0    0  0.95341396964E+02  0.12164275976E+02 -0.81610845860E+02  0.12608838863E+03  0.00000000000E+00 0. -1.
        -13    1    3    3    0    0 -0.49186354498E+02  0.81611124898E+01  0.25379156712E+01  0.49923363687E+02  0.00000000000E+00 0.  1.
         13    1    3    3    0    0 -0.23346094643E+02 -0.43538353277E+02 -0.83020012729E+02  0.96607198772E+02  0.00000000000E+00 0. -1.
          1    1    1    2  501    0 -0.61138992255E+02  0.62404528031E+02 -0.16496849303E+02  0.88906959962E+02  0.00000000000E+00 0. -1.
<scales pt_clust_5="13000.00000" pt_clust_6="13000.00000" pt_clust_7="13000.00000" pt_clust_8="13000.00000" pt_clust_9="87.36309"></scales>
<clustering>
<clus scale="   84.938">  5  6 -1 -1</clus>
<clus scale="   87.363">  2  9  1 -1</clus>
<clus scale="   92.094">  7  8 -1 -1</clus>
<clus scale="  131.970">  2  5  1 -1</clus>
<clus scale="   87.363">  2  5  1 -1</clus>
</clustering>
</event>
<event>
 9    2  0.6190160E-005  0.3602265E+03  0.7546771E-02  0.1058729E+00
         21   -1    0    0  501  502  0.00000000000E+00  0.00000000000E+00  0.28272742366E+03  0.28272742366E+03  0.00000000000E+00 0. -1.
          2   -1    0    0  502    0 -0.00000000000E+00 -0.00000000000E+00 -0.70891768123E+03  0.70891768123E+03  0.00000000000E+00 0. -1.
         23    2    1    2    0    0 -0.13035513388E+02  0.33452245609E+03 -0.18952046626E+03  0.39535773730E+03  0.91184072488E+02 0.  0.
         24    2    1    2    0    0 -0.13215927771E+03 -0.35358712758E+03 -0.23052034776E+03  0.44971723176E+03  0.81338959508E+02 0.  0.
        -13    1    4    4    0    0 -0.36141644690E+02 -0.25550323669E+02 -0.29400668933E+02  0.53136022191E+02  0.00000000000E+00 0.  1.
         14    1    4    4    0    0 -0.96017633017E+02 -0.32803680391E+03 -0.20111967882E+03  0.39658120957E+03  0.00000000000E+00 0. -1.
        -11    1    3    3    0    0 -0.38060541558E+02  0.11976430455E+03 -0.37814482274E+02  0.13123272662E+03  0.00000000000E+00 0.  1.
         11    1    3    3    0    0  0.25025028170E+02  0.21475815155E+03 -0.15170598398E+03  0.26412501068E+03  0.00000000000E+00 0. -1.
          1    1    1    2  501    0  0.14519479110E+03  0.19064671486E+02 -0.61494435552E+01  0.14657013583E+03  0.00000000000E+00 0. -1.
<scales pt_clust_5="13000.00000" pt_clust_6="13000.00000" pt_clust_7="13000.00000" pt_clust_8="13000.00000" pt_clust_9="146.44108"></scales>
<clustering>
<clus scale="   81.339">  5  6 -1 -1</clus>
<clus scale="   91.184">  7  8 -1 -1</clus>
<clus scale="  146.441">  1  9  2 -1</clus>
<clus scale="  357.861">  1  5  2 -1</clus>
<clus scale="  146.441">  1  5  2 -1</clus>
</clustering>
</event>
<event>
 9    2  0.6190160E-005  0.1059306E+03  0.7546771E-02  0.1273614E+00
         21   -1    0    0  501  502  0.00000000000E+00  0.00000000000E+00  0.54857556044E+02  0.54857556044E+02  0.00000000000E+00 0.  1.
         -1   -1    0    0    0  501 -0.00000000000E+00 -0.00000000000E+00 -0.42950333927E+03  0.42950333927E+03  0.00000000000E+00 0.  1.
         23    2    1    2    0    0 -0.52454569519E+02 -0.28472239178E+02 -0.34325970707E+03  0.36023172161E+03  0.91528774096E+02 0.  0.
         24    2    1    2    0    0  0.24229748136E+02  0.23106852439E+02 -0.38811177757E+02  0.94454941595E+02  0.79337388087E+02 0.  0.
        -13    1    4    4    0    0 -0.24073665197E+02  0.27948672716E+01 -0.34111422870E+02  0.41844256587E+02  0.00000000000E+00 0.  1.
         14    1    4    4    0    0  0.48303413333E+02  0.20311985167E+02 -0.46997548873E+01  0.52610685008E+02  0.00000000000E+00 0. -1.
        -11    1    3    3    0    0 -0.47990744996E+02  0.24040100125E+02 -0.21427999585E+03  0.22090032739E+03  0.00000000000E+00 0.  1.
         11    1    3    3    0    0 -0.44638245235E+01 -0.52512339303E+02 -0.12897971122E+03  0.13933139422E+03  0.00000000000E+00 0. -1.
         -2    1    1    2    0  502  0.28224821384E+02  0.53653867391E+01  0.74251016093E+01  0.29674232103E+02  0.00000000000E+00 0.  1.
<scales pt_clust_5="13000.00000" pt_clust_6="13000.00000" pt_clust_7="13000.00000" pt_clust_8="13000.00000" pt_clust_9="28.73026"></scales>
<clustering>
<clus scale="   28.730">  1  9  2 -1</clus>
<clus scale="   79.337">  5  6 -1 -1</clus>
<clus scale="   91.529">  7  8 -1 -1</clus>
<clus scale="   95.594">  1  5  2 -1</clus>
<clus scale="   28.730">  1  5  2 -1</clus>
</clustering>
</event>
<event>
 9    2  0.6190160E-005  0.8988236E+02  0.7546771E-02  0.1309332E+00
         -1   -1    0    0    0  501 -0.00000000000E+00  0.00000000000E+00  0.39168070461E+02  0.39168070461E+02  0.00000000000E+00 0.  1.
         21   -1    0    0  501  502  0.00000000000E+00 -0.00000000000E+00 -0.33503661142E+03  0.33503661142E+03  0.00000000000E+00 0.  1.
         24    2    1    2    0    0  0.13495020404E+02 -0.54597174876E+01 -0.75700200670E+02  0.11123098807E+03  0.80186583879E+02 0.  0.
         23    2    1    2    0    0  0.28600558362E+02 -0.17455011902E+02 -0.14435221264E+03  0.17327861153E+03  0.89806717677E+02 0.  0.
        -11    1    3    3    0    0  0.17864576447E+02 -0.41032182810E+02 -0.50159204311E+02  0.67221491317E+02  0.00000000000E+00 0.  1.
         12    1    3    3    0    0 -0.43695560430E+01  0.35572465323E+02 -0.25540996359E+02  0.44009496750E+02  0.00000000000E+00 0. -1.
        -11    1    4    4    0    0  0.49312109885E+02 -0.90972239680E+01 -0.14226906201E+03  0.15084737210E+03  0.00000000000E+00 0. -1.
         11    1    4    4    0    0 -0.20711551524E+02 -0.83577879344E+01 -0.20831506327E+01  0.22431239427E+02  0.00000000000E+00 0.  1.
         -2    1    1    2    0  502 -0.42095578766E+02  0.22914729390E+02 -0.75816127648E+02  0.89695082285E+02  0.00000000000E+00 0.  1.
<scales pt_clust_5="13000.00000" pt_clust_6="13000.00000" pt_clust_7="13000.00000" pt_clust_8="13000.00000" pt_clust_9="47.92831"></scales>
<clustering>
<clus scale="   47.928">  2  9  1 -1</clus>
<clus scale="   80.187">  5  6 -1 -1</clus>
<clus scale="   80.271">  1  5  2 -1</clus>
<clus scale="   89.807">  7  8 -1 -1</clus>
<clus scale="   47.928">  2  5  1 -1</clus>
</clustering>
</event>
<event>
 9    2  0.7404594E-005  0.1103705E+03  0.7546771E-02  0.1262082E+00
         21   -1    0    0  501  502  0.00000000000E+00  0.00000000000E+00  0.18803815570E+03  0.18803815570E+03  0.00000000000E+00 0. -1.
          2   -1    0    0  502    0 -0.00000000000E+00 -0.00000000000E+00 -0.50706204318E+03  0.50706204318E+03  0.00000000000E+00 0. -1.
         24    2    1    2    0    0  0.10931565055E+02 -0.57378840170E+02 -0.39507744972E+03  0.40855442130E+03  0.86131837746E+02 0.  0.
         23    2    1    2    0    0 -0.67003087606E+00  0.76963381484E+02 -0.70059138393E+02  0.13876968131E+03  0.91787420420E+02 0.  0.
        -13    1    3    3    0    0 -0.28935966196E+02 -0.31761506187E+01 -0.58795882258E+02  0.65607422164E+02  0.00000000000E+00 0.  1.
         14    1    3    3    0    0  0.39867531251E+02 -0.54202689552E+02 -0.33628156746E+03  0.34294699913E+03  0.00000000000E+00 0. -1.
        -11    1    4    4    0    0 -0.54929660529E+00 -0.20217025104E+02 -0.23521798516E+02  0.31021038607E+02  0.00000000000E+00 0.  1.
         11    1    4    4    0    0 -0.12073427077E+00  0.97180406588E+02 -0.46537339877E+02  0.10774864270E+03  0.00000000000E+00 0. -1.
          1    1    1    2  501    0 -0.10261534179E+02 -0.19584541314E+02  0.14611270064E+03  0.14777609627E+03  0.00000000000E+00 0. -1.
<scales pt_clust_5="13000.00000" pt_clust_6="13000.00000" pt_clust_7="13000.00000" pt_clust_8="13000.00000" pt_clust_9="22.11003"></scales>
<clustering>
<clus scale="   22.110">  1  9  2 -1</clus>
<clus scale="   86.132">  5  6 -1 -1</clus>
<clus scale="   91.787">  7  8 -1 -1</clus>
<clus scale="  105.714">  2  5  1 -1</clus>
<clus scale="   22.110">  1  5  2 -1</clus>
</clustering>
</event>
<event>
 9    2  0.6190160E-005  0.1919787E+03  0.7546771E-02  0.1157952E+00
         -1   -1    0    0    0  501 -0.00000000000E+00  0.00000000000E+00  0.11382046611E+04  0.11382046611E+04  0.00000000000E+00 0.  1.
         21   -1    0    0  501  502  0.00000000000E+00 -0.00000000000E+00 -0.59795678334E+02  0.59795678334E+02  0.00000000000E+00 0.  1.
         23    2    1    2    0    0 -0.14041899431E+03 -0.91516214913E+02  0.79919555118E+03  0.82189107052E+03  0.93266774466E+02 0.  0.
         24    2    1    2    0    0  0.10972419689E+03  0.13670281592E+03  0.18650668916E+03  0.26850564634E+03  0.81138632917E+02 0.  0.
        -11    1    4    4    0    0  0.33162878740E+02  0.10170975467E+03  0.12328356111E+03  0.16322832830E+03  0.00000000000E+00 0.  1.
         12    1    4    4    0    0  0.76561318149E+02  0.34993061253E+02  0.63223128055E+02  0.10527731804E+03  0.00000000000E+00 0. -1.
        -11    1    3    3    0    0 -0.91724777595E+02 -0.10627331235E+03  0.55811046451E+03  0.57549521487E+03  0.00000000000E+00 0.  1.
         11    1    3    3    0    0 -0.48694216716E+02  0.14757097441E+02  0.24108508667E+03  0.24639585565E+03  0.00000000000E+00 0. -1.
         -2    1    1    2    0  502  0.30694797422E+02 -0.45186601012E+02  0.92706742438E+02  0.10760362258E+03  0.00000000000E+00 0.  1.
<scales pt_clust_5="13000.00000" pt_clust_6="13000.00000" pt_clust_7="13000.00000" pt_clust_8="13000.00000" pt_clust_9="54.62600"></scales>
<clustering>
<clus scale="   54.626">  2  9  1 -1</clus>
<clus scale="   81.139">  5  6 -1 -1</clus>
<clus scale="   93.267">  7  8 -1 -1</clus>
<clus scale="  186.388">  2  5  1 -1</clus>
<clus scale="   54.626">  2  5  1 -1</clus>
</clustering>
</event>
<event>
 9    2  0.6190160E-005  0.9910063E+02  0.7546771E-02  0.1289537E+00
         21   -1    0    0  501  502  0.00000000000E+00  0.00000000000E+00  0.47682139761E+02  0.47682139761E+02  0.00000000000E+00 0.  1.
         -1   -1    0    0    0  501 -0.00000000000E+00 -0.00000000000E+00 -0.76832384904E+03  0.76832384904E+03  0.00000000000E+00 0.  1.
         23    2    1    2    0    0  0.11549690844E+02 -0.25508681562E+02 -0.34309935354E+03  0.35702503103E+03  0.94686948356E+02 0.  0.
         24    2    1    2    0    0 -0.61236911325E+02  0.32758792719E+01 -0.28421832925E+02  0.10564222960E+03  0.81189835532E+02 0.  0.
        -13    1    4    4    0    0  0.18047283702E+02  0.92509646008E+01  0.22874518740E+01  0.20408753787E+02  0.00000000000E+00 0.  1.
         14    1    4    4    0    0 -0.79284195027E+02 -0.59750853289E+01 -0.30709284799E+02  0.85233475810E+02  0.00000000000E+00 0. -1.
        -13    1    3    3    0    0  0.28011424342E+02 -0.55984482530E+02 -0.18964714952E+03  0.19971215160E+03  0.00000000000E+00 0. -1.
         13    1    3    3    0    0 -0.16461733498E+02  0.30475800968E+02 -0.15345220402E+03  0.15731287942E+03  0.00000000000E+00 0.  1.
         -2    1    1    2    0  502  0.49687220481E+02  0.22232802290E+02 -0.34912052282E+03  0.35333872818E+03  0.00000000000E+00 0.  1.
<scales pt_clust_5="13000.00000" pt_clust_6="13000.00000" pt_clust_7="13000.00000" pt_clust_8="13000.00000" pt_clust_9="54.43455"></scales>
<clustering>
<clus scale="   54.435">  1  9  2 -1</clus>
<clus scale="   81.190">  5  6 -1 -1</clus>
<clus scale="   86.297">  1  5  2 -1</clus>
<clus scale="   94.687">  7  8 -1 -1</clus>
<clus scale="   54.435">  1  5  2 -1</clus>
</clustering>
</event>
<event>
 9    2  0.6190160E-005  0.1057484E+03  0.7546771E-02  0.1271125E+00
         -1   -1    0    0    0  501 -0.00000000000E+00  0.00000000000E+00  0.28823836903E+03  0.28823836903E+03  0.00000000000E+00 0.  1.
         21   -1    0    0  501  502  0.00000000000E+00 -0.00000000000E+00 -0.52781098501E+02  0.52781098501E+02  0.00000000000E+00 0. -1.
         24    2    1    2    0    0  0.68416042021E+02  0.47962277271E+01  0.12157155979E+03  0.16395304814E+03  0.86006972032E+02 0.  0.
         23    2    1    2    0    0 -0.34991782319E+02  0.10546025640E+02  0.80894357397E+02  0.12765998995E+03  0.91747111609E+02 0.  0.
        -11    1    3    3    0    0  0.76913380398E+02 -0.19120380301E+02  0.11115765702E+03  0.13651843004E+03  0.00000000000E+00 0.  1.
         12    1    3    3    0    0 -0.84973383765E+01  0.23916608028E+02  0.10413902762E+02  0.27434618091E+02  0.00000000000E+00 0. -1.
        -13    1    4    4    0    0 -0.63334427110E+02 -0.59566764208E+01  0.65911332925E+02  0.91602595265E+02  0.00000000000E+00 0.  1.
         13    1    4    4    0    0  0.28342644791E+02  0.16502702061E+02  0.14983024472E+02  0.36057394684E+02  0.00000000000E+00 0. -1.
         -2    1    1    2    0  502 -0.33424259702E+02 -0.15342253367E+02  0.32991353347E+02  0.49406429447E+02  0.00000000000E+00 0.  1.
<scales pt_clust_5="13000.00000" pt_clust_6="13000.00000" pt_clust_7="13000.00000" pt_clust_8="13000.00000" pt_clust_9="36.77725"></scales>
<clustering>
<clus scale="   36.777">  2  9  1 -1</clus>
<clus scale="   86.007">  5  6 -1 -1</clus>
<clus scale="   91.747">  7  8 -1 -1</clus>
<clus scale="  100.809">  1  5  2 -1</clus>
<clus scale="   36.777">  2  5  1 -1</clus>
</clustering>
</event>
<event>
 9    2  0.6190160E-005  0.2023037E+03  0.7546771E-02  0.1148627E+00
          2   -1    0    0  502    0 -0.00000000000E+00  0.00000000000E+00  0.20638866765E+04  0.20638866765E+04  0.00000000000E+00 0. -1.
         21   -1    0    0  501  502  0.00000000000E+00 -0.00000000000E+00 -0.32626692143E+02  0.32626692143E+02  0.00000000000E+00 0. -1.
         24    2    1    2    0    0 -0.16577959903E+03  0.10778022300E+03  0.14049119662E+04  0.14211201890E+04  0.81887159410E+02 0.  0.
         23    2    1    2    0    0  0.90510655608E+02 -0.12073229870E+03  0.42671960700E+03  0.46165344854E+03  0.90916537717E+02 0.  0.
        -13    1    3    3    0    0 -0.35367770413E+02 -0.53922259751E+01  0.14100622930E+03  0.14547409387E+03  0.00000000000E+00 0.  1.
         14    1    3    3    0    0 -0.13041182861E+03  0.11317244897E+03  0.12639057369E+04  0.12756460951E+04  0.00000000000E+00 0. -1.
        -11    1    4    4    0    0  0.43217661197E+02 -0.74480824287E+02  0.34960449304E+03  0.36005341407E+03  0.00000000000E+00 0.  1.
         11    1    4    4    0    0  0.47292994411E+02 -0.46251474412E+02  0.77115113952E+02  0.10160003448E+03  0.00000000000E+00 0. -1.
          1    1    1    2  501    0  0.75268943419E+02  0.12952075702E+02  0.19962841111E+03  0.21373973106E+03  0.00000000000E+00 0. -1.
<scales pt_clust_5="13000.00000" pt_clust_6="13000.00000" pt_clust_7="13000.00000" pt_clust_8="13000.00000" pt_clust_9="76.37519"></scales>
<clustering>
<clus scale="   76.375">  2  9  1 -1</clus>
<clus scale="   81.887">  5  6 -1 -1</clus>
<clus scale="   90.917">  7  8 -1 -1</clus>
<clus scale="  198.410">  1  5  2 -1</clus>
<clus scale="   76.375">  2  5  1 -1</clus>
</clustering>
</event>
<event>
 9    2  0.6190160E-005  0.1435821E+03  0.7546771E-02  0.1221126E+00
         -1   -1    0    0    0  501 -0.00000000000E+00  0.00000000000E+00  0.19947707067E+03  0.19947707067E+03  0.00000000000E+00 0.  1.
         21   -1    0    0  501  502  0.00000000000E+00 -0.00000000000E+00 -0.34095294033E+03  0.34095294033E+03  0.00000000000E+00 0.  1.
         23    2    1    2    0    0 -0.61631368342E+02 -0.53337637472E+01  0.10159696372E+03  0.14981153195E+03  0.91075119911E+02 0.  0.
         24    2    1    2    0    0  0.31937242268E+02 -0.11300465202E+03 -0.31421018784E+02  0.14631904722E+03  0.81436750522E+02 0.  0.
        -11    1    4    4    0    0  0.28082276158E+02 -0.12573649448E+03 -0.32803033970E+02  0.13294479800E+03  0.00000000000E+00 0.  1.
         12    1    4    4    0    0  0.38549661097E+01  0.12731842459E+02  0.13820151858E+01  0.13374249216E+02  0.00000000000E+00 0. -1.
        -13    1    3    3    0    0 -0.81717469878E+02 -0.12994005676E+02  0.97585171249E+02  0.12794316986E+03  0.00000000000E+00 0.  1.
         13    1    3    3    0    0  0.20086101536E+02  0.76602419290E+01  0.40117924728E+01  0.21868362083E+02  0.00000000000E+00 0. -1.
         -2    1    1    2    0  502  0.29694126074E+02  0.11833841577E+03 -0.21165181460E+03  0.24429943183E+03  0.00000000000E+00 0.  1.
<scales pt_clust_5="13000.00000" pt_clust_6="13000.00000" pt_clust_7="13000.00000" pt_clust_8="13000.00000" pt_clust_9="118.25341"></scales>
<clustering>
<clus scale="   81.437">  5  6 -1 -1</clus>
<clus scale="   91.075">  7  8 -1 -1</clus>
<clus scale="  110.098">  1  7  2 -1</clus>
<clus scale="  118.253">  2  9  1 -1</clus>
<clus scale="  118.253">  2  5  1 -1</clus>
</clustering>
</event>
<event>
 9    2  0.6190160E-005  0.1117777E+03  0.7546771E-02  0.1261749E+00
          2   -1    0    0  502    0 -0.00000000000E+00  0.00000000000E+00  0.50239260723E+03  0.50239260723E+03  0.00000000000E+00 0. -1.
         21   -1    0    0  501  502  0.00000000000E+00 -0.00000000000E+00 -0.24766930600E+03  0.24766930600E+03  0.00000000000E+00 0. -1.
         23    2    1    2    0    0 -0.35830838555E+02  0.52293831653E+02  0.38823793394E+03  0.40434803031E+03  0.93542196061E+02 0.  0.
         24    2    1    2    0    0 -0.66492387368E+02 -0.47451993830E+02 -0.19548268743E+03  0.22599117930E+03  0.78648602909E+02 0.  0.
        -11    1    4    4    0    0 -0.13033360721E+02 -0.35131388134E+02 -0.15035758431E+03  0.15495640059E+03  0.00000000000E+00 0.  1.
         12    1    4    4    0    0 -0.53459026647E+02 -0.12320605696E+02 -0.45125103120E+02  0.71034778710E+02  0.00000000000E+00 0. -1.
        -11    1    3    3    0    0 -0.35146010144E+02  0.78097048604E+02  0.32375792916E+03  0.33489339755E+03  0.00000000000E+00 0. -1.
         11    1    3    3    0    0 -0.68482841086E+00 -0.25803216951E+02  0.64480004785E+02  0.69454632761E+02  0.00000000000E+00 0.  1.
          1    1    1    2  501    0  0.10232322592E+03 -0.48418378224E+01  0.61968054713E+02  0.11972270362E+03  0.00000000000E+00 0. -1.
<scales pt_clust_5="13000.00000" pt_clust_6="13000.00000" pt_clust_7="13000.00000" pt_clust_8="13000.00000" pt_clust_9="102.43777"></scales>
<clustering>
<clus scale="   78.649">  5  6 -1 -1</clus>
<clus scale="   93.542">  7  8 -1 -1</clus>
<clus scale="  102.438">  2  9  1 -1</clus>
<clus scale="  102.438">  2  5  1 -1</clus>
<clus scale="  102.438">  2  5  1 -1</clus>
</clustering>
</event>
<event>
 9    2  0.6190160E-005  0.1256031E+03  0.7546771E-02  0.1249283E+00
          2   -1    0    0  502    0 -0.00000000000E+00  0.00000000000E+00  0.90171550589E+03  0.90171550589E+03  0.00000000000E+00 0. -1.
         21   -1    0    0  501  502  0.00000000000E+00 -0.00000000000E+00 -0.39453000134E+02  0.39453000134E+02  0.00000000000E+00 0. -1.
         24    2    1    2    0    0 -0.35135439467E+02  0.19488296163E+02  0.71100373339E+02  0.11659694983E+03  0.83218344298E+02 0.  0.
         23    2    1    2    0    0 -0.55704803968E+02  0.43634894673E+02  0.30785811292E+03  0.32876992014E+03  0.91137333071E+02 0.  0.
        -11    1    3    3    0    0 -0.13369189697E+02 -0.24439647384E+02  0.60260605016E+02  0.66388041953E+02  0.00000000000E+00 0.  1.
         12    1    3    3    0    0 -0.21766249770E+02  0.43927943547E+02  0.10839768323E+02  0.50208907880E+02  0.00000000000E+00 0. -1.
        -11    1    4    4    0    0  0.18213608458E+02  0.36556975256E+02  0.98454790443E+02  0.10659030788E+03  0.00000000000E+00 0.  1.
         11    1    4    4    0    0 -0.73918412426E+02  0.70779194174E+01  0.20940332247E+03  0.22217961226E+03  0.00000000000E+00 0. -1.
          1    1    1    2  501    0  0.90840243435E+02 -0.63123190836E+02  0.48330401950E+03  0.49580163605E+03  0.00000000000E+00 0. -1.
<scales pt_clust_5="13000.00000" pt_clust_6="13000.00000" pt_clust_7="13000.00000" pt_clust_8="13000.00000" pt_clust_9="86.42992"></scales>
<clustering>
<clus scale="   83.218">  5  6 -1 -1</clus>
<clus scale="   91.137">  7  8 -1 -1</clus>
<clus scale="   92.410">  1  5  2 -1</clus>
<clus scale="   86.430">  2  9  1 -1</clus>
<clus scale="   86.430">  2  5  1 -1</clus>
</clustering>
</event>
<event>
 9    2  0.6190160E-005  0.9655381E+02  0.7546771E-02  0.1293765E+00
          2   -1    0    0  502    0 -0.00000000000E+00  0.00000000000E+00  0.55847460330E+03  0.55847460330E+03  0.00000000000E+00 0. -1.
         21   -1    0    0  501  502  0.00000000000E+00 -0.00000000000E+00 -0.30331198133E+02  0.30331198133E+02  0.00000000000E+00 0. -1.
         24    2    1    2    0    0  0.10225715656E+02 -0.27093431620E+02  0.23190799655E+03  0.24685983071E+03  0.79497407847E+02 0.  0.
         23    2    1    2    0    0  0.33664083022E+02  0.49297737308E+02  0.13400057124E+03  0.17241872195E+03  0.90600911680E+02 0.  0.
        -13    1    3    3    0    0  0.26528662875E+02  0.14674853449E+02  0.42424135133E+02  0.52143345879E+02  0.00000000000E+00 0.  1.
         14    1    3    3    0    0 -0.16302947219E+02 -0.41768285069E+02  0.18948386142E+03  0.19471648483E+03  0.00000000000E+00 0. -1.
        -13    1    4    4    0    0  0.19103340058E+02  0.17617098478E+02  0.13505878937E+03  0.13753609106E+03  0.00000000000E+00 0. -1.
         13    1    4    4    0    0  0.14560742964E+02  0.31680638829E+02 -0.10582181210E+01  0.34882630891E+02  0.00000000000E+00 0.  1.
          1    1    1    2  501    0 -0.43889798678E+02 -0.22204305688E+02  0.16223483737E+03  0.16952724877E+03  0.00000000000E+00 0. -1.
<scales pt_clust_5="13000.00000" pt_clust_6="13000.00000" pt_clust_7="13000.00000" pt_clust_8="13000.00000" pt_clust_9="49.18687"></scales>
<clustering>
<clus scale="   49.187">  2  9  1 -1</clus>
<clus scale="   79.497">  5  6 -1 -1</clus>
<clus scale="   86.220">  1  5  2 -1</clus>
<clus scale="   90.601">  7  8 -1 -1</clus>
<clus scale="   49.187">  2  5  1 -1</clus>
</clustering>
</event>
<event>
 9    2  0.6190160E-005  0.1037506E+03  0.7546771E-02  0.1281429E+00
         21   -1    0    0  501  502  0.00000000000E+00  0.00000000000E+00  0.75489731287E+02  0.75489731287E+02  0.00000000000E+00 0. -1.
          2   -1    0    0  502    0 -0.00000000000E+00 -0.00000000000E+00 -0.44706887633E+03  0.44706887633E+03  0.00000000000E+00 0. -1.
         24    2    1    2    0    0  0.32827465721E+02 -0.45712042387E+01 -0.28782896981E+03  0.30076178642E+03  0.80706864002E+02 0.  0.
         23    2    1    2    0    0 -0.20747250946E+02  0.79228635064E+02 -0.37244092324E+02  0.13301349329E+03  0.97968576328E+02 0.  0.
        -11    1    3    3    0    0 -0.18109846244E+02  0.23041000447E+02 -0.97471992942E+02  0.10178233462E+03  0.00000000000E+00 0.  1.
         12    1    3    3    0    0  0.50937311966E+02 -0.27612204685E+02 -0.19035697686E+03  0.19897945180E+03  0.00000000000E+00 0. -1.
        -11    1    4    4    0    0 -0.38175478133E+02  0.14626846535E+02  0.19487584448E+02  0.45288825529E+02  0.00000000000E+00 0.  1.
         11    1    4    4    0    0  0.17428227186E+02  0.64601788529E+02 -0.56731676772E+02  0.87724667759E+02  0.00000000000E+00 0. -1.
          1    1    1    2  501    0 -0.12080214775E+02 -0.74657430825E+02 -0.46506082911E+02  0.88783327907E+02  0.00000000000E+00 0. -1.
<scales pt_clust_5="13000.00000" pt_clust_6="13000.00000" pt_clust_7="13000.00000" pt_clust_8="13000.00000" pt_clust_9="75.62846"></scales>
<clustering>
<clus scale="   75.628">  1  9  2 -1</clus>
<clus scale="   80.707">  5  6 -1 -1</clus>
<clus scale="   87.635">  2  5  1 -1</clus>
<clus scale="   97.969">  7  8 -1 -1</clus>
<clus scale="   75.628">  1  5  2 -1</clus>
</clustering>
</event>
<event>
 9    2  0.6190160E-005  0.1225768E+03  0.7546771E-02  0.1242284E+00
          2   -1    0    0  502    0 -0.00000000000E+00  0.00000000000E+00  0.74359065323E+03  0.74359065323E+03  0.00000000000E+00 0. -1.
         21   -1    0    0  501  502  0.00000000000E+00 -0.00000000000E+00 -0.40439853037E+02  0.40439853037E+02  0.00000000000E+00 0.  1.
         23    2    1    2    0    0  0.24599787016E+02 -0.58337994138E+02  0.24271135020E+03  0.26702033236E+03  0.91556470537E+02 0.  0.
         24    2    1    2    0    0  0.34656796754E+02  0.11918647502E+03  0.25610884009E+03  0.29573008333E+03  0.80361899067E+02 0.  0.
        -13    1    4    4    0    0  0.25572054362E+02  0.61473584328E+02  0.55162407670E+02  0.86462840310E+02  0.00000000000E+00 0.  1.
         14    1    4    4    0    0  0.90847423922E+01  0.57712890689E+02  0.20094643242E+03  0.20926724302E+03  0.00000000000E+00 0. -1.
        -13    1    3    3    0    0 -0.14285625873E+02 -0.48004859914E+02  0.52338498041E+02  0.72442142839E+02  0.00000000000E+00 0. -1.
         13    1    3    3    0    0  0.38885412890E+02 -0.10333134224E+02  0.19037285216E+03  0.19457818952E+03  0.00000000000E+00 0.  1.
          1    1    1    2  501    0 -0.59256583770E+02 -0.60848480880E+02  0.20433060990E+03  0.22128009058E+03  0.00000000000E+00 0. -1.
<scales pt_clust_5="13000.00000" pt_clust_6="13000.00000" pt_clust_7="13000.00000" pt_clust_8="13000.00000" pt_clust_9="84.93461"></scales>
<clustering>
<clus scale="   80.362">  5  6 -1 -1</clus>
<clus scale="   84.935">  2  9  1 -1</clus>
<clus scale="   91.556">  7  8 -1 -1</clus>
<clus scale="  114.457">  2  5  1 -1</clus>
<clus scale="   84.935">  2  5  1 -1</clus>
</clustering>
</event>
<event>
 9    2  0.6190160E-005  0.9154237E+02  0.7546771E-02  0.1304015E+00
         21   -1    0    0  501  502  0.00000000000E+00  0.00000000000E+00  0.24576230004E+03  0.24576230004E+03  0.00000000000E+00 0.  1.
          2   -1    0    0  502    0 -0.00000000000E+00 -0.00000000000E+00 -0.10145181665E+03  0.10145181665E+03  0.00000000000E+00 0. -1.
         23    2    1    2    0    0 -0.13785039455E+01  0.38963856419E+02 -0.63640478799E+02  0.10466190152E+03  0.73375204998E+02 0.  0.
         24    2    1    2    0    0  0.20247317496E+02 -0.48973349373E+02  0.13606622431E+03  0.16756129830E+03  0.82185330049E+02 0.  0.
        -11    1    4    4    0    0 -0.19653161462E+02 -0.41462684568E+02  0.11032832938E+03  0.11948950259E+03  0.00000000000E+00 0.  1.
         12    1    4    4    0    0  0.39900478958E+02 -0.75106648051E+01  0.25737894937E+02  0.48071795709E+02  0.00000000000E+00 0. -1.
        -13    1    3    3    0    0  0.23545346837E+02 -0.86511314168E+01 -0.36937897783E+02  0.44650125701E+02  0.00000000000E+00 0. -1.
         13    1    3    3    0    0 -0.24923850782E+02  0.47614987836E+02 -0.26702581016E+02  0.60011775823E+02  0.00000000000E+00 0.  1.
          1    1    1    2  501    0 -0.18868813550E+02  0.10009492953E+02  0.71884737866E+02  0.74990916864E+02  0.00000000000E+00 0. -1.
<scales pt_clust_5="13000.00000" pt_clust_6="13000.00000" pt_clust_7="13000.00000" pt_clust_8="13000.00000" pt_clust_9="21.35936"></scales>
<clustering>
<clus scale="   21.359">  1  9  2 -1</clus>
<clus scale="   73.375">  7  8 -1 -1</clus>
<clus scale="   82.185">  5  6 -1 -1</clus>
<clus scale="   83.723">  2  7  1 -1</clus>
<clus scale="   21.359">  1  5  2 -1</clus>
</clustering>
</event>
<event>
 9    2  0.6190160E-005  0.1585400E+03  0.7546771E-02  0.1191896E+00
         21   -1    0    0  501  502  0.00000000000E+00  0.00000000000E+00  0.36994849572E+03  0.36994849572E+03  0.00000000000E+00 0.  1.
         -1   -1    0    0    0  501 -0.00000000000E+00 -0.00000000000E+00 -0.47854744137E+03  0.47854744137E+03  0.00000000000E+00 0.  1.
         24    2    1    2    0    0  0.13830431366E+03 -0.19613668478E+02 -0.39418523236E+03  0.42618714722E+03  0.82101814091E+02 0.  0.
         23    2    1    2    0    0 -0.89344625927E+02  0.70643227898E+01 -0.41227916377E+01  0.12822395997E+03  0.91607967231E+02 0.  0.
        -11    1    3    3    0    0  0.79419112726E+02  0.26720026248E+02 -0.25042647157E+03  0.26407342337E+03  0.00000000000E+00 0.  1.
         12    1    3    3    0    0  0.58885200933E+02 -0.46333694725E+02 -0.14375876080E+03  0.16211372385E+03  0.00000000000E+00 0. -1.
        -11    1    4    4    0    0 -0.10236727491E+03 -0.13939103781E+02 -0.56281702473E+01  0.10346513368E+03  0.00000000000E+00 0. -1.
         11    1    4    4    0    0  0.13022648985E+02  0.21003426571E+02  0.15053786096E+01  0.24758826286E+02  0.00000000000E+00 0.  1.
         -2    1    1    2    0  502 -0.48959687732E+02  0.12549345688E+02  0.28970907835E+03  0.29408482991E+03  0.00000000000E+00 0.  1.
<scales pt_clust_5="13000.00000" pt_clust_6="13000.00000" pt_clust_7="13000.00000" pt_clust_8="13000.00000" pt_clust_9="50.54243"></scales>
<clustering>
<clus scale="   50.542">  1  9  2 -1</clus>
<clus scale="   82.102">  5  6 -1 -1</clus>
<clus scale="   91.608">  7  8 -1 -1</clus>
<clus scale="  153.244">  2  5  1 -1</clus>
<clus scale="   50.542">  1  5  2 -1</clus>
</clustering>
</event>
<event>
 9    2  0.6190160E-005  0.1232179E+03  0.7546771E-02  0.1239873E+00
          2   -1    0    0  502    0 -0.00000000000E+00  0.00000000000E+00  0.60311099286E+03  0.60311099286E+03  0.00000000000E+00 0. -1.
         21   -1    0    0  501  502  0.00000000000E+00 -0.00000000000E+00 -0.44802441541E+02  0.44802441541E+02  0.00000000000E+00 0. -1.
         24    2    1    2    0    0 -0.20428798291E+02 -0.97723728203E+02  0.33997233067E+03  0.36425641942E+03  0.84464730014E+02 0.  0.
         23    2    1    2    0    0 -0.29777464725E+02  0.53768253206E+02  0.10450781364E+03  0.15171134862E+03  0.91196094928E+02 0.  0.
        -13    1    3    3    0    0 -0.23059102253E+02 -0.74009193702E+02  0.11913933897E+03  0.14213818994E+03  0.00000000000E+00 0.  1.
         14    1    3    3    0    0  0.26303039615E+01 -0.23714534501E+02  0.22083299170E+03  0.22211822949E+03  0.00000000000E+00 0. -1.
        -13    1    4    4    0    0 -0.17469414065E+02  0.10016711464E+02  0.10433565878E+03  0.10626120943E+03  0.00000000000E+00 0.  1.
         13    1    4    4    0    0 -0.12308050659E+02  0.43751541742E+02  0.17215486825E+00  0.45450139198E+02  0.00000000000E+00 0. -1.
          1    1    1    2  501    0  0.50206263016E+02  0.43955474997E+02  0.11382840700E+03  0.13194566635E+03  0.00000000000E+00 0. -1.
<scales pt_clust_5="13000.00000" pt_clust_6="13000.00000" pt_clust_7="13000.00000" pt_clust_8="13000.00000" pt_clust_9="66.72898"></scales>
<clustering>
<clus scale="   66.729">  2  9  1 -1</clus>
<clus scale="   84.465">  5  6 -1 -1</clus>
<clus scale="   91.196">  7  8 -1 -1</clus>
<clus scale="  118.323">  1  5  2 -1</clus>
<clus scale="   66.729">  2  5  1 -1</clus>
</clustering>
</event>
<event>
 9    2  0.6190160E-005  0.1698170E+03  0.7546771E-02  0.1179622E+00
         21   -1    0    0  501  502  0.00000000000E+00  0.00000000000E+00  0.13723641254E+03  0.13723641254E+03  0.00000000000E+00 0.  1.
          2   -1    0    0  502    0 -0.00000000000E+00 -0.00000000000E+00 -0.61094672254E+03  0.61094672254E+03  0.00000000000E+00 0. -1.
         23    2    1    2    0    0 -0.13158348835E+03  0.48300052052E+02 -0.50625061500E+03  0.53316768811E+03  0.91274251702E+02 0.  0.
         24    2    1    2    0    0  0.15542731089E+03 -0.61329188179E+02  0.24801094318E+02  0.18676333832E+03  0.79665123908E+02 0.  0.
        -11    1    4    4    0    0  0.13821832248E+03 -0.66282412843E+02  0.45010810160E+02  0.15976118412E+03  0.00000000000E+00 0.  1.
         12    1    4    4    0    0  0.17208988405E+02  0.49532246634E+01 -0.20209715842E+02  0.27002154191E+02  0.00000000000E+00 0. -1.
        -13    1    3    3    0    0 -0.53290462862E+02  0.57888577804E+02 -0.34233561938E+03  0.35126149400E+03  0.00000000000E+00 0.  1.
         13    1    3    3    0    0 -0.78293025491E+02 -0.95885257520E+01 -0.16391499562E+03  0.18190619411E+03  0.00000000000E+00 0. -1.
          1    1    1    2  501    0 -0.23843822533E+02  0.13029136127E+02  0.77392106849E+01  0.28252108651E+02  0.00000000000E+00 0. -1.
<scales pt_clust_5="13000.00000" pt_clust_6="13000.00000" pt_clust_7="13000.00000" pt_clust_8="13000.00000" pt_clust_9="27.17142"></scales>
<clustering>
<clus scale="   27.171">  1  9  2 -1</clus>
<clus scale="   79.665">  5  6 -1 -1</clus>
<clus scale="   91.274">  7  8 -1 -1</clus>
<clus scale="  163.870">  1  5  2 -1</clus>
<clus scale="   27.171">  1  5  2 -1</clus>
</clustering>
</event>
<event>
 9    2  0.6190160E-005  0.5579335E+03  0.7546771E-02  0.1041934E+00
          2   -1    0    0  502    0 -0.00000000000E+00  0.00000000000E+00  0.92238673868E+03  0.92238673868E+03  0.00000000000E+00 0. -1.
         21   -1    0    0  501  502  0.00000000000E+00 -0.00000000000E+00 -0.66202269030E+03  0.66202269030E+03  0.00000000000E+00 0.  1.
         23    2    1    2    0    0 -0.11058561949E+03  0.63457704704E+02 -0.28462475771E+03  0.32432529325E+03  0.88992042441E+02 0.  0.
         24    2    1    2    0    0  0.49998176386E+03 -0.33950546888E+03  0.12089886703E+03  0.62158276395E+03  0.80640367045E+02 0.  0.
        -13    1    4    4    0    0  0.42558171213E+03 -0.30738669565E+03  0.80787075329E+02  0.53116186413E+03  0.00000000000E+00 0.  1.
         14    1    4    4    0    0  0.74400051728E+02 -0.32118773231E+02  0.40111791701E+02  0.90420899822E+02  0.00000000000E+00 0. -1.
        -13    1    3    3    0    0 -0.22173860405E+02  0.59843782479E+02 -0.15241300130E+03  0.16523523036E+03  0.00000000000E+00 0. -1.
         13    1    3    3    0    0 -0.88411759084E+02  0.36139222247E+01 -0.13221175640E+03  0.15909006289E+03  0.00000000000E+00 0.  1.
          1    1    1    2  501    0 -0.38939614437E+03  0.27604776418E+03  0.42408993906E+03  0.63850137178E+03  0.00000000000E+00 0. -1.
<scales pt_clust_5="13000.00000" pt_clust_6="13000.00000" pt_clust_7="13000.00000" pt_clust_8="13000.00000" pt_clust_9="552.07540"></scales>
<clustering>
<clus scale="   80.640">  5  6 -1 -1</clus>
<clus scale="   88.992">  7  8 -1 -1</clus>
<clus scale="  155.485">  1  7  2 -1</clus>
<clus scale="  552.075">  2  9  1 -1</clus>
<clus scale="  552.075">  2  5  1 -1</clus>
</clustering>
</event>
<event>
 9    2  0.6190160E-005  0.1329360E+03  0.7546771E-02  0.1236686E+00
          2   -1    0    0  502    0 -0.00000000000E+00  0.00000000000E+00  0.10784622466E+04  0.10784622466E+04  0.00000000000E+00 0. -1.
         21   -1    0    0  501  502  0.00000000000E+00 -0.00000000000E+00 -0.34396761239E+02  0.34396761239E+02  0.00000000000E+00 0. -1.
         23    2    1    2    0    0  0.33608876196E+02  0.27107807188E+02  0.14215363537E+03  0.17411733298E+03  0.90800880091E+02 0.  0.
         24    2    1    2    0    0  0.82482659143E+02  0.40851709245E+02  0.33263152014E+03  0.35378369825E+03  0.77761981367E+02 0.  0.
        -11    1    4    4    0    0  0.64318987153E+02  0.35840665995E+01  0.27706494858E+03  0.28445520452E+03  0.00000000000E+00 0.  1.
         12    1    4    4    0    0  0.18163671989E+02  0.37267642646E+02  0.55566571558E+02  0.69328493733E+02  0.00000000000E+00 0. -1.
        -11    1    3    3    0    0 -0.46111663845E+01 -0.26600581531E+02  0.14980669399E+02  0.30875139657E+02  0.00000000000E+00 0. -1.
         11    1    3    3    0    0  0.38220042580E+02  0.53708388719E+02  0.12717296598E+03  0.14324219333E+03  0.00000000000E+00 0.  1.
          1    1    1    2  501    0 -0.11609153534E+03 -0.67959516433E+02  0.56928032989E+03  0.58495797666E+03  0.00000000000E+00 0. -1.
<scales pt_clust_5="13000.00000" pt_clust_6="13000.00000" pt_clust_7="13000.00000" pt_clust_8="13000.00000" pt_clust_9="107.81957"></scales>
<clustering>
<clus scale="   77.762">  5  6 -1 -1</clus>
<clus scale="   90.801">  7  8 -1 -1</clus>
<clus scale="  100.545">  1  7  2 -1</clus>
<clus scale="  107.820">  2  9  1 -1</clus>
<clus scale="  107.820">  2  5  1 -1</clus>
</clustering>
</event>
<event>
 9    2  0.6190160E-005  0.1371429E+03  0.7546771E-02  0.1220493E+00
         21   -1    0    0  501  502  0.00000000000E+00  0.00000000000E+00  0.20419587353E+03  0.20419587353E+03  0.00000000000E+00 0.  1.
         -1   -1    0    0    0  501 -0.00000000000E+00 -0.00000000000E+00 -0.30221593154E+03  0.30221593154E+03  0.00000000000E+00 0.  1.
         24    2    1    2    0    0 -0.78066859468E+02  0.91254998117E+02 -0.13012605938E+03  0.19422725269E+03  0.79809304784E+02 0.  0.
         23    2    1    2    0    0  0.10440272259E+03  0.16441857344E+02 -0.73349529282E+02  0.15917128725E+03  0.93728768687E+02 0.  0.
        -13    1    3    3    0    0 -0.53817647690E+02  0.15922607169E+02 -0.88533879358E+02  0.10482421674E+03  0.00000000000E+00 0.  1.
         14    1    3    3    0    0 -0.24249211778E+02  0.75332390947E+02 -0.41592180023E+02  0.89403035949E+02  0.00000000000E+00 0. -1.
        -13    1    4    4    0    0  0.81881808694E+02  0.16509297943E+02 -0.95984718012E+02  0.12724092740E+03  0.00000000000E+00 0. -1.
         13    1    4    4    0    0  0.22520913900E+02 -0.67440598982E-01  0.22635188729E+02  0.31930359847E+02  0.00000000000E+00 0.  1.
         -2    1    1    2    0  502 -0.26335863126E+02 -0.10769685546E+03  0.10545553065E+03  0.15301326513E+03  0.00000000000E+00 0.  1.
<scales pt_clust_5="13000.00000" pt_clust_6="13000.00000" pt_clust_7="13000.00000" pt_clust_8="13000.00000" pt_clust_9="110.87015"></scales>
<clustering>
<clus scale="   79.809">  5  6 -1 -1</clus>
<clus scale="   93.729">  7  8 -1 -1</clus>
<clus scale="  110.870">  1  9  2 -1</clus>
<clus scale="  128.034">  2  5  1 -1</clus>
<clus scale="  110.870">  1  5  2 -1</clus>
</clustering>
</event>
<event>
 9    2  0.6190160E-005  0.9280568E+02  0.7546771E-02  0.1303769E+00
         -1   -1    0    0    0  501 -0.00000000000E+00  0.00000000000E+00  0.42009119619E+02  0.42009119619E+02  0.00000000000E+00 0.  1.
         21   -1    0    0  501  502  0.00000000000E+00 -0.00000000000E+00 -0.47365766265E+03  0.47365766265E+03  0.00000000000E+00 0.  1.
         23    2    1    2    0    0  0.34365155694E+01 -0.17224414666E+02 -0.26680814152E+02  0.96603557132E+02  0.91169574458E+02 0.  0.
         24    2    1    2    0    0 -0.22414998470E+02  0.10045190478E+02 -0.26307244054E+03  0.27572447627E+03  0.78826009897E+02 0.  0.
        -13    1    4    4    0    0 -0.24588422078E+02 -0.15551063077E+02 -0.32078452895E+02  0.43306503013E+02  0.00000000000E+00 0.  1.
         14    1    4    4    0    0  0.21734236072E+01  0.25596253555E+02 -0.23099398764E+03  0.23241797326E+03  0.00000000000E+00 0. -1.
        -11    1    3    3    0    0  0.10962612641E+02 -0.44343530784E+02  0.13422739668E+02  0.47609847075E+02  0.00000000000E+00 0.  1.
         11    1    3    3    0    0 -0.75260970718E+01  0.27119116118E+02 -0.40103553820E+02  0.48993710057E+02  0.00000000000E+00 0. -1.
         -2    1    1    2    0  502  0.18978482901E+02  0.71792241884E+01 -0.14189528834E+03  0.14333874886E+03  0.00000000000E+00 0.  1.
<scales pt_clust_5="13000.00000" pt_clust_6="13000.00000" pt_clust_7="13000.00000" pt_clust_8="13000.00000" pt_clust_9="20.29099"></scales>
<clustering>
<clus scale="   20.291">  2  9  1 -1</clus>
<clus scale="   78.826">  5  6 -1 -1</clus>
<clus scale="   80.713">  2  5  1 -1</clus>
<clus scale="   91.170">  7  8 -1 -1</clus>
<clus scale="   20.291">  2  5  1 -1</clus>
</clustering>
</event>
<event>
 9    2  0.6190160E-005  0.1008285E+03  0.7546771E-02  0.1278615E+00
          2   -1    0    0  502    0 -0.00000000000E+00  0.00000000000E+00  0.44328367743E+03  0.44328367743E+03  0.00000000000E+00 0. -1.
         21   -1    0    0  501  502  0.00000000000E+00 -0.00000000000E+00 -0.10947618240E+03  0.10947618240E+03  0.00000000000E+00 0. -1.
         23    2    1    2    0    0 -0.53717651961E+02  0.26665762857E+02  0.29295819918E+03  0.31020192395E+03  0.82486836004E+02 0.  0.
         24    2    1    2    0    0  0.36427380713E+02 -0.44239661002E+02  0.12187425132E+03  0.15786532236E+03  0.82365194095E+02 0.  0.
        -13    1    4    4    0    0  0.59056427180E+02 -0.46333242281E+02  0.10700400740E+03  0.13070688020E+03  0.00000000000E+00 0.  1.
         14    1    4    4    0    0 -0.22629046467E+02  0.20935812790E+01  0.14870243926E+02  0.27158442168E+02  0.00000000000E+00 0. -1.
        -11    1    3    3    0    0 -0.43732863534E+02  0.54809103794E+02  0.23127090624E+03  0.24166678151E+03  0.00000000000E+00 0. -1.
         11    1    3    3    0    0 -0.99847884268E+01 -0.28143340938E+02  0.61687292939E+02  0.68535142439E+02  0.00000000000E+00 0.  1.
          1    1    1    2  501    0  0.17290271248E+02  0.17573898146E+02 -0.81024955475E+02  0.84692613525E+02  0.00000000000E+00 0. -1.
<scales pt_clust_5="13000.00000" pt_clust_6="13000.00000" pt_clust_7="13000.00000" pt_clust_8="13000.00000" pt_clust_9="24.65351"></scales>
<clustering>
<clus scale="   24.654">  2  9  1 -1</clus>
<clus scale="   82.365">  5  6 -1 -1</clus>
<clus scale="   82.487">  7  8 -1 -1</clus>
<clus scale="  100.729">  2  5  1 -1</clus>
<clus scale="   24.654">  2  5  1 -1</clus>
</clustering>
</event>
<event>
 9    2  0.6190160E-005  0.1123707E+03  0.7546771E-02  0.1268917E+00
         21   -1    0    0  501  502  0.00000000000E+00  0.00000000000E+00  0.41744153666E+03  0.41744153666E+03  0.00000000000E+00 0.  1.
          2   -1    0    0  502    0 -0.00000000000E+00 -0.00000000000E+00 -0.21001133165E+03  0.21001133165E+03  0.00000000000E+00 0. -1.
         23    2    1    2    0    0 -0.40537992314E+01 -0.33125985829E+02 -0.18165946825E+03  0.21344188900E+03  0.10697435837E+03 0.  0.
         24    2    1    2    0    0  0.76949927001E+00  0.58880849050E+02  0.36562115799E+03  0.37901282486E+03  0.80649511628E+02 0.  0.
        -13    1    4    4    0    0 -0.11243565664E+02  0.74160670000E+02  0.33016987793E+03  0.33858288651E+03  0.00000000000E+00 0.  1.
         14    1    4    4    0    0  0.12013064934E+02 -0.15279820951E+02  0.35451280059E+02  0.40429938353E+02  0.00000000000E+00 0. -1.
        -13    1    3    3    0    0  0.34944089103E+02  0.13904343948E+02 -0.12346524889E+03  0.12906621490E+03  0.00000000000E+00 0. -1.
         13    1    3    3    0    0 -0.38997888334E+02 -0.47030329776E+02 -0.58194219358E+02  0.84375674102E+02  0.00000000000E+00 0.  1.
          1    1    1    2  501    0  0.32842999614E+01 -0.25754863221E+02  0.23468515272E+02  0.34998154449E+02  0.00000000000E+00 0. -1.
<scales pt_clust_5="13000.00000" pt_clust_6="13000.00000" pt_clust_7="13000.00000" pt_clust_8="13000.00000" pt_clust_9="25.96343"></scales>
<clustering>
<clus scale="   25.963">  1  9  2 -1</clus>
<clus scale="   80.650">  5  6 -1 -1</clus>
<clus scale="   87.681">  1  5  2 -1</clus>
<clus scale="  106.974">  7  8 -1 -1</clus>
<clus scale="   25.963">  1  5  2 -1</clus>
</clustering>
</event>
<event>
 9    2  0.6190160E-005  0.9899830E+02  0.7546771E-02  0.1287581E+00
         -3   -1    0    0    0  501 -0.00000000000E+00  0.00000000000E+00  0.58135540542E+02  0.58135540542E+02  0.00000000000E+00 0.  1.
         21   -1    0    0  501  502  0.00000000000E+00 -0.00000000000E+00 -0.20730563869E+03  0.20730563869E+03  0.00000000000E+00 0.  1.
         23    2    1    2    0    0  0.26305162275E+02 -0.31743250629E+02 -0.44589541488E+02  0.10989429319E+03  0.91591118257E+02 0.  0.
         24    2    1    2    0    0 -0.36367488492E+02  0.87727997101E+01 -0.76690272401E+02  0.11804008692E+03  0.81562908263E+02 0.  0.
        -11    1    4    4    0    0 -0.55879247641E+02  0.10803808472E+02 -0.79965492981E+02  0.98151376261E+02  0.00000000000E+00 0.  1.
         12    1    4    4    0    0  0.19511759149E+02 -0.20310087615E+01  0.32752205792E+01  0.19888710655E+02  0.00000000000E+00 0. -1.
        -11    1    3    3    0    0  0.39897122888E+02 -0.57712419943E+02 -0.38234045156E+02  0.79902102847E+02  0.00000000000E+00 0.  1.
         11    1    3    3    0    0 -0.13591960613E+02  0.25969169314E+02 -0.63554963326E+01  0.29992190347E+02  0.00000000000E+00 0. -1.
         -4    1    1    2    0  502  0.10062326217E+02  0.22970450919E+02 -0.27890284258E+02  0.37506799121E+02  0.00000000000E+00 0.  1.
<scales pt_clust_5="13000.00000" pt_clust_6="13000.00000" pt_clust_7="13000.00000" pt_clust_8="13000.00000" pt_clust_9="25.07772"></scales>
<clustering>
<clus scale="   25.078">  2  9  1 -1</clus>
<clus scale="   81.563">  5  6 -1 -1</clus>
<clus scale="   89.801">  2  5  1 -1</clus>
<clus scale="   91.591">  7  8 -1 -1</clus>
<clus scale="   25.078">  2  5  1 -1</clus>
</clustering>
</event>
<event>
 9    2  0.6190160E-005  0.1693194E+03  0.7546771E-02  0.1180215E+00
         -1   -1    0    0    0  501 -0.00000000000E+00  0.00000000000E+00  0.46032658744E+03  0.46032658744E+03  0.00000000000E+00 0.  1.
         21   -1    0    0  501  502  0.00000000000E+00 -0.00000000000E+00 -0.10927729759E+03  0.10927729759E+03  0.00000000000E+00 0.  1.
         23    2    1    2    0    0 -0.59263059387E+02 -0.12856025330E+03  0.32407036722E+03  0.36559390901E+03  0.92722459274E+02 0.  0.
         24    2    1    2    0    0  0.30764075919E+02  0.14151549200E+03  0.53429962429E+01  0.16595549431E+03  0.80867890043E+02 0.  0.
        -11    1    4    4    0    0 -0.21107672917E+02  0.90496246526E+02  0.69035069735E+01  0.93181344162E+02  0.00000000000E+00 0.  1.
         12    1    4    4    0    0  0.51871748837E+02  0.51019245471E+02 -0.15605107306E+01  0.72774150146E+02  0.00000000000E+00 0. -1.
        -11    1    3    3    0    0 -0.14641410944E+02 -0.12035848912E+03  0.20497737783E+03  0.23815176304E+03  0.00000000000E+00 0.  1.
         11    1    3    3    0    0 -0.44621648443E+02 -0.82017641815E+01  0.11909298940E+03  0.12744214597E+03  0.00000000000E+00 0. -1.
         -2    1    1    2    0  502  0.28498983468E+02 -0.12955238692E+02  0.21635926388E+02  0.38054481719E+02  0.00000000000E+00 0.  1.
<scales pt_clust_5="13000.00000" pt_clust_6="13000.00000" pt_clust_7="13000.00000" pt_clust_8="13000.00000" pt_clust_9="31.30544"></scales>
<clustering>
<clus scale="   31.305">  2  9  1 -1</clus>
<clus scale="   80.868">  5  6 -1 -1</clus>
<clus scale="   92.722">  7  8 -1 -1</clus>
<clus scale="  163.129">  2  5  1 -1</clus>
<clus scale="   31.305">  2  5  1 -1</clus>
</clustering>
</event>
<event>
 9    2  0.6190160E-005  0.9663094E+02  0.7546771E-02  0.1292997E+00
         -3   -1    0    0    0  501 -0.00000000000E+00  0.00000000000E+00  0.43135704333E+03  0.43135704333E+03  0.00000000000E+00 0.  1.
         21   -1    0    0  501  502  0.00000000000E+00 -0.00000000000E+00 -0.26526944248E+02  0.26526944248E+02  0.00000000000E+00 0.  1.
         24    2    1    2    0    0 -0.11716837864E+02 -0.26389568999E+02  0.18835596657E+03  0.20709005041E+03  0.81084062526E+02 0.  0.
         23    2    1    2    0    0 -0.10581850140E+02  0.40177832682E+02  0.17818195563E+03  0.20438662618E+03  0.91098023361E+02 0.  0.
        -13    1    3    3    0    0  0.18878917287E+02  0.19904657523E+02  0.90827670338E+02  0.94880317285E+02  0.00000000000E+00 0.  1.
         14    1    3    3    0    0 -0.30595755151E+02 -0.46294226522E+02  0.97528296231E+02  0.11220973313E+03  0.00000000000E+00 0. -1.
        -11    1    4    4    0    0  0.28344131495E+02 -0.70166307179E+01  0.10509115468E+03  0.10907233237E+03  0.00000000000E+00 0. -1.
         11    1    4    4    0    0 -0.38925981635E+02  0.47194463400E+02  0.73090800942E+02  0.95314293808E+02  0.00000000000E+00 0.  1.
         -4    1    1    2    0  502  0.22298688004E+02 -0.13788263683E+02  0.38292176887E+02  0.46407310985E+02  0.00000000000E+00 0.  1.
<scales pt_clust_5="13000.00000" pt_clust_6="13000.00000" pt_clust_7="13000.00000" pt_clust_8="13000.00000" pt_clust_9="26.21732"></scales>
<clustering>
<clus scale="   26.217">  2  9  1 -1</clus>
<clus scale="   81.084">  5  6 -1 -1</clus>
<clus scale="   87.254">  1  5  2 -1</clus>
<clus scale="   91.098">  7  8 -1 -1</clus>
<clus scale="   26.217">  2  5  1 -1</clus>
</clustering>
</event>
<event>
 9    2  0.6190160E-005  0.9844328E+02  0.7546771E-02  0.1293454E+00
         21   -1    0    0  501  502  0.00000000000E+00  0.00000000000E+00  0.34255201475E+03  0.34255201475E+03  0.00000000000E+00 0. -1.
         -1   -1    0    0    0  501 -0.00000000000E+00 -0.00000000000E+00 -0.52974904411E+03  0.52974904411E+03  0.00000000000E+00 0.  1.
         24    2    1    2    0    0  0.95496776528E+01  0.12001539422E+02 -0.47839506210E+03  0.48534465219E+03  0.80388821799E+02 0.  0.
         23    2    1    2    0    0  0.58860205767E+02 -0.54203021757E+02  0.27840458879E+03  0.30556507133E+03  0.97254338553E+02 0.  0.
        -13    1    3    3    0    0 -0.27078978750E+02 -0.88780508644E+01 -0.83997158173E+02  0.88699568535E+02  0.00000000000E+00 0.  1.
         14    1    3    3    0    0  0.36628656402E+02  0.20879590286E+02 -0.39439790393E+03  0.39664508365E+03  0.00000000000E+00 0. -1.
        -13    1    4    4    0    0  0.10588218542E+02 -0.60775911640E+02  0.78664526464E+02  0.99969643049E+02  0.00000000000E+00 0.  1.
         13    1    4    4    0    0  0.48271987225E+02  0.65728898833E+01  0.19974006233E+03  0.20559542829E+03  0.00000000000E+00 0. -1.
         -2    1    1    2    0  502 -0.68409883420E+02  0.42201482335E+02  0.12793443950E+02  0.81391335343E+02  0.00000000000E+00 0.  1.
<scales pt_clust_5="13000.00000" pt_clust_6="13000.00000" pt_clust_7="13000.00000" pt_clust_8="13000.00000" pt_clust_9="80.37958"></scales>
<clustering>
<clus scale="   80.380">  1  9  2 -1</clus>
<clus scale="   80.389">  5  6 -1 -1</clus>
<clus scale="   81.823">  2  5  1 -1</clus>
<clus scale="   97.254">  7  8 -1 -1</clus>
<clus scale="   80.380">  1  5  2 -1</clus>
</clustering>
</event>
<event>
 9    2  0.6190160E-005  0.1180126E+03  0.7546771E-02  0.1250578E+00
         21   -1    0    0  501  502  0.00000000000E+00  0.00000000000E+00  0.45571250980E+02  0.45571250980E+02  0.00000000000E+00 0. -1.
          2   -1    0    0  502    0 -0.00000000000E+00 -0.00000000000E+00 -0.52085790085E+03  0.52085790085E+03  0.00000000000E+00 0. -1.
         24    2    1    2    0    0  0.67219678825E+02  0.60506583328E+02 -0.32529418195E+03  0.34664888223E+03  0.78546870711E+02 0.  0.
         23    2    1    2    0    0 -0.40747105624E+02 -0.10231255346E+02 -0.73094972947E+02  0.12416839549E+03  0.91158708673E+02 0.  0.
        -11    1    3    3    0    0  0.40367574888E+02 -0.92819229816E+01 -0.78261386459E+02  0.88546822682E+02  0.00000000000E+00 0.  1.
         12    1    3    3    0    0  0.26852103937E+02  0.69788506310E+02 -0.24703279549E+03  0.25810205955E+03  0.00000000000E+00 0. -1.
        -11    1    4    4    0    0  0.26376200306E+02 -0.19125753400E+02 -0.21399705947E+02  0.38980069271E+02  0.00000000000E+00 0.  1.
         11    1    4    4    0    0 -0.67123305931E+02  0.88944980540E+01 -0.51695267000E+02  0.85188326224E+02  0.00000000000E+00 0. -1.
          1    1    1    2  501    0 -0.26472573200E+02 -0.50275327982E+02 -0.76897494977E+02  0.95611874102E+02  0.00000000000E+00 0. -1.
<scales pt_clust_5="13000.00000" pt_clust_6="13000.00000" pt_clust_7="13000.00000" pt_clust_8="13000.00000" pt_clust_9="56.81906"></scales>
<clustering>
<clus scale="   56.819">  1  9  2 -1</clus>
<clus scale="   78.547">  5  6 -1 -1</clus>
<clus scale="   91.159">  7  8 -1 -1</clus>
<clus scale="  108.566">  2  5  1 -1</clus>
<clus scale="   56.819">  1  5  2 -1</clus>
</clustering>
</event>
<event>
 9    2  0.6190160E-005  0.1077943E+03  0.7546771E-02  0.1267374E+00
          2   -1    0    0  502    0 -0.00000000000E+00  0.00000000000E+00  0.36694646870E+03  0.36694646870E+03  0.00000000000E+00 0. -1.
         21   -1    0    0  501  502  0.00000000000E+00 -0.00000000000E+00 -0.95432752498E+02  0.95432752498E+02  0.00000000000E+00 0.  1.
         23    2    1    2    0    0  0.65649489394E+02  0.80836557513E+01  0.30343732476E+03  0.32286113677E+03  0.88260425046E+02 0.  0.
         24    2    1    2    0    0 -0.28268399322E+02 -0.21287786669E+02 -0.42468493080E+02  0.98495047514E+02  0.81519502077E+02 0.  0.
        -11    1    4    4    0    0 -0.29578333472E+02 -0.16230526998E+01 -0.63256835258E+02  0.69849404563E+02  0.00000000000E+00 0.  1.
         12    1    4    4    0    0  0.13099341501E+01 -0.19664733969E+02  0.20788342178E+02  0.28645642951E+02  0.00000000000E+00 0. -1.
        -11    1    3    3    0    0  0.46546758021E+02 -0.37044386129E+02  0.19483695613E+03  0.20371628973E+03  0.00000000000E+00 0. -1.
         11    1    3    3    0    0  0.19102731373E+02  0.45128041881E+02  0.10860036863E+03  0.11914484705E+03  0.00000000000E+00 0.  1.
          1    1    1    2  501    0 -0.37381090072E+02  0.13204130918E+02  0.10544884523E+02  0.41023036917E+02  0.00000000000E+00 0. -1.
<scales pt_clust_5="13000.00000" pt_clust_6="13000.00000" pt_clust_7="13000.00000" pt_clust_8="13000.00000" pt_clust_9="39.64461"></scales>
<clustering>
<clus scale="   39.645">  2  9  1 -1</clus>
<clus scale="   81.520">  5  6 -1 -1</clus>
<clus scale="   88.260">  7  8 -1 -1</clus>
<clus scale="  102.348">  2  5  1 -1</clus>
<clus scale="   39.645">  2  5  1 -1</clus>
</clustering>
</event>
<event>
 9    2  0.6190160E-005  0.1298835E+03  0.7546771E-02  0.1240165E+00
         21   -1    0    0  501  502  0.00000000000E+00  0.00000000000E+00  0.12742661015E+03  0.12742661015E+03  0.00000000000E+00 0. -1.
          2   -1    0    0  502    0 -0.00000000000E+00 -0.00000000000E+00 -0.71510445493E+03  0.71510445493E+03  0.00000000000E+00 0. -1.
         23    2    1    2    0    0  0.38645306306E+02  0.17434885420E+02 -0.16759793255E+03  0.19538407578E+03  0.91040843275E+02 0.  0.
         24    2    1    2    0    0 -0.46840131227E+02 -0.12149861224E+03 -0.49579433566E+03  0.51819316691E+03  0.75869785086E+02 0.  0.
        -11    1    4    4    0    0 -0.46741450436E+02 -0.74016637325E+02 -0.19598336928E+03  0.21464553763E+03  0.00000000000E+00 0.  1.
         12    1    4    4    0    0 -0.98680791148E-01 -0.47481974914E+02 -0.29981096638E+03  0.30354762928E+03  0.00000000000E+00 0. -1.
        -11    1    3    3    0    0  0.21442569609E+02  0.54749311664E+02 -0.88529341753E+02  0.10627659794E+03  0.00000000000E+00 0.  1.
         11    1    3    3    0    0  0.17202736696E+02 -0.37314426244E+02 -0.79068590792E+02  0.89107477832E+02  0.00000000000E+00 0. -1.
          1    1    1    2  501    0  0.81948249219E+01  0.10406372682E+03  0.75714423425E+02  0.12895382239E+03  0.00000000000E+00 0. -1.
<scales pt_clust_5="13000.00000" pt_clust_6="13000.00000" pt_clust_7="13000.00000" pt_clust_8="13000.00000" pt_clust_9="105.42060"></scales>
<clustering>
<clus scale="   75.870">  5  6 -1 -1</clus>
<clus scale="   91.041">  7  8 -1 -1</clus>
<clus scale="  100.428">  2  7  1 -1</clus>
<clus scale="  105.421">  1  9  2 -1</clus>
<clus scale="  105.421">  1  5  2 -1</clus>
</clustering>
</event>
<event>
 9    2  0.6190160E-005  0.9385759E+02  0.7546771E-02  0.1295638E+00
         21   -1    0    0  501  502  0.00000000000E+00  0.00000000000E+00  0.22638304117E+03  0.22638304117E+03  0.00000000000E+00 0. -1.
         -3   -1    0    0    0  501 -0.00000000000E+00 -0.00000000000E+00 -0.60432510866E+02  0.60432510866E+02  0.00000000000E+00 0.  1.
         24    2    1    2    0    0  0.14871025197E+02 -0.43235511856E+02  0.19969953329E+02  0.95685332974E+02  0.81648190639E+02 0.  0.
         23    2    1    2    0    0 -0.21576281562E+02  0.21942564323E+02  0.77853693695E+02  0.11943905989E+03  0.85190840770E+02 0.  0.
        -11    1    3    3    0    0 -0.61683674095E+01 -0.54855126955E+02 -0.11199368491E+02  0.56325478821E+02  0.00000000000E+00 0.  1.
         12    1    3    3    0    0  0.21039392606E+02  0.11619615099E+02  0.31169321820E+02  0.39359854154E+02  0.00000000000E+00 0. -1.
        -11    1    4    4    0    0  0.29696588559E+02  0.16126443965E+02  0.12186216912E+02  0.35922881978E+02  0.00000000000E+00 0.  1.
         11    1    4    4    0    0 -0.51272870121E+02  0.58161203578E+01  0.65667476783E+02  0.83516177915E+02  0.00000000000E+00 0. -1.
         -4    1    1    2    0  502  0.67052563653E+01  0.21292947533E+02  0.68126883277E+02  0.71691159167E+02  0.00000000000E+00 0.  1.
<scales pt_clust_5="13000.00000" pt_clust_6="13000.00000" pt_clust_7="13000.00000" pt_clust_8="13000.00000" pt_clust_9="22.32376"></scales>
<clustering>
<clus scale="   22.324">  1  9  2 -1</clus>
<clus scale="   81.648">  5  6 -1 -1</clus>
<clus scale="   85.191">  7  8 -1 -1</clus>
<clus scale="   90.654">  2  5  1 -1</clus>
<clus scale="   22.324">  1  5  2 -1</clus>
</clustering>
</event>
<event>
 9    2  0.6190160E-005  0.1171968E+03  0.7546771E-02  0.1251150E+00
         21   -1    0    0  501  502  0.00000000000E+00  0.00000000000E+00  0.20917457946E+02  0.20917457946E+02  0.00000000000E+00 0. -1.
          2   -1    0    0  502    0 -0.00000000000E+00 -0.00000000000E+00 -0.19372683130E+04  0.19372683130E+04  0.00000000000E+00 0. -1.
         24    2    1    2    0    0  0.44737856711E+02  0.62344277447E+02 -0.16784731074E+04  0.16821978380E+04  0.81420569786E+02 0.  0.
         23    2    1    2    0    0 -0.42631179975E+02 -0.30725491715E+02 -0.20377970291E+03  0.22943836416E+03  0.91401981827E+02 0.  0.
        -13    1    3    3    0    0  0.14877338156E+02  0.25745979775E+02 -0.14601614535E+03  0.14901310469E+03  0.00000000000E+00 0.  1.
         14    1    3    3    0    0  0.29860518555E+02  0.36598297672E+02 -0.15324569620E+04  0.15331847333E+04  0.00000000000E+00 0. -1.
        -11    1    4    4    0    0 -0.62542563680E+02 -0.10331097032E+01 -0.16614664360E+03  0.17753125575E+03  0.00000000000E+00 0.  1.
         11    1    4    4    0    0  0.19911383705E+02 -0.29692382011E+02 -0.37633059310E+02  0.51907108411E+02  0.00000000000E+00 0. -1.
          1    1    1    2  501    0 -0.21066767357E+01 -0.31618785732E+02 -0.34098044737E+02  0.46549568773E+02  0.00000000000E+00 0. -1.
<scales pt_clust_5="13000.00000" pt_clust_6="13000.00000" pt_clust_7="13000.00000" pt_clust_8="13000.00000" pt_clust_9="31.68889"></scales>
<clustering>
<clus scale="   31.689">  1  9  2 -1</clus>
<clus scale="   81.421">  5  6 -1 -1</clus>
<clus scale="   91.402">  7  8 -1 -1</clus>
<clus scale="  109.590">  2  5  1 -1</clus>
<clus scale="   31.689">  1  5  2 -1</clus>
</clustering>
</event>
<event>
 9    2  0.6190160E-005  0.1079389E+03  0.7546771E-02  0.1270202E+00
         21   -1    0    0  501  502  0.00000000000E+00  0.00000000000E+00  0.25982891015E+03  0.25982891015E+03  0.00000000000E+00 0.  1.
          2   -1    0    0  502    0 -0.00000000000E+00 -0.00000000000E+00 -0.12637817785E+03  0.12637817785E+03  0.00000000000E+00 0. -1.
         24    2    1    2    0    0  0.29367100730E+02 -0.50635289115E+02 -0.77890130358E+02  0.12621328584E+03  0.80228187111E+02 0.  0.
         23    2    1    2    0    0 -0.19992039272E+02  0.25204460241E+02  0.84206622428E+02  0.13000251833E+03  0.93674719432E+02 0.  0.
        -13    1    3    3    0    0 -0.19692394371E+02  0.86932150222E+01 -0.10735695276E+02  0.24054470199E+02  0.00000000000E+00 0.  1.
         14    1    3    3    0    0  0.49059495101E+02 -0.59328504137E+02 -0.67154435082E+02  0.10215881564E+03  0.00000000000E+00 0. -1.
        -13    1    4    4    0    0  0.25438506236E+02  0.42561774025E+02  0.34122237513E+02  0.60190940353E+02  0.00000000000E+00 0.  1.
         13    1    4    4    0    0 -0.45430545509E+02 -0.17357313784E+02  0.50084384915E+02  0.69811577975E+02  0.00000000000E+00 0. -1.
          1    1    1    2  501    0 -0.93750614575E+01  0.25430828873E+02  0.12713424022E+03  0.12999128383E+03  0.00000000000E+00 0. -1.
<scales pt_clust_5="13000.00000" pt_clust_6="13000.00000" pt_clust_7="13000.00000" pt_clust_8="13000.00000" pt_clust_9="27.10385"></scales>
<clustering>
<clus scale="   27.104">  1  9  2 -1</clus>
<clus scale="   80.228">  5  6 -1 -1</clus>
<clus scale="   93.675">  7  8 -1 -1</clus>
<clus scale="   96.501">  2  5  1 -1</clus>
<clus scale="   27.104">  1  5  2 -1</clus>
</clustering>
</event>
<event>
 9    2  0.6190160E-005  0.2066076E+03  0.7546771E-02  0.1179522E+00
         -3   -1    0    0    0  501 -0.00000000000E+00  0.00000000000E+00  0.10703985227E+03  0.10703985227E+03  0.00000000000E+00 0.  1.
         21   -1    0    0  501  502  0.00000000000E+00 -0.00000000000E+00 -0.55333313390E+03  0.55333313390E+03  0.00000000000E+00 0.  1.
         24    2    1    2    0    0  0.39268317832E+02  0.13420748955E+02 -0.94604228962E+02  0.13140325572E+03  0.81207993380E+02 0.  0.
         23    2    1    2    0    0 -0.18797246927E+03 -0.82260552613E+02 -0.24951843086E+03  0.33586178348E+03  0.91887118496E+02 0.  0.
        -11    1    3    3    0    0  0.35050036977E+02 -0.23901271756E+01  0.26564083094E+00  0.35132440352E+02  0.00000000000E+00 0.  1.
         12    1    3    3    0    0  0.42182808549E+01  0.15810876131E+02 -0.94869869793E+02  0.96270815369E+02  0.00000000000E+00 0. -1.
        -13    1    4    4    0    0 -0.38763649866E+02 -0.18347861414E+02 -0.61468780798E+01  0.43324919844E+02  0.00000000000E+00 0. -1.
         13    1    4    4    0    0 -0.14920881940E+03 -0.63912691199E+02 -0.24337155278E+03  0.29253686364E+03  0.00000000000E+00 0.  1.
         -4    1    1    2    0  502  0.14870415143E+03  0.68839803658E+02 -0.10217062181E+03  0.19310794697E+03  0.00000000000E+00 0.  1.
<scales pt_clust_5="13000.00000" pt_clust_6="13000.00000" pt_clust_7="13000.00000" pt_clust_8="13000.00000" pt_clust_9="185.05003"></scales>
<clustering>
<clus scale="   81.208">  5  6 -1 -1</clus>
<clus scale="   91.197">  1  5  2 -1</clus>
<clus scale="   91.887">  7  8 -1 -1</clus>
<clus scale="  185.050">  2  9  1 -1</clus>
<clus scale="  185.050">  2  5  1 -1</clus>
</clustering>
</event>
<event>
 9    2  0.6190160E-005  0.1066716E+03  0.7546771E-02  0.1275896E+00
         21   -1    0    0  501  502  0.00000000000E+00  0.00000000000E+00  0.56557188949E+03  0.56557188949E+03  0.00000000000E+00 0.  1.
         -1   -1    0    0    0  501 -0.00000000000E+00 -0.00000000000E+00 -0.40726744495E+02  0.40726744495E+02  0.00000000000E+00 0.  1.
         23    2    1    2    0    0 -0.52316240858E+01  0.41815778524E+02  0.65786902887E+02  0.12343762217E+03  0.95566734543E+02 0.  0.
         24    2    1    2    0    0  0.30584814966E+02 -0.65975057947E+02  0.40504114267E+03  0.41848475764E+03  0.76046209270E+02 0.  0.
        -13    1    4    4    0    0 -0.24889703206E+02 -0.11397954616E+02  0.10157499088E+03  0.10519928454E+03  0.00000000000E+00 0.  1.
         14    1    4    4    0    0  0.55474518173E+02 -0.54577103331E+02  0.30346615179E+03  0.31328547310E+03  0.00000000000E+00 0. -1.
        -13    1    3    3    0    0 -0.44296645254E+02  0.23516603899E+02  0.62556646245E+02  0.80178285272E+02  0.00000000000E+00 0.  1.
         13    1    3    3    0    0  0.39065021168E+02  0.18299174625E+02  0.32302566424E+01  0.43259336898E+02  0.00000000000E+00 0. -1.
         -2    1    1    2    0  502 -0.25353190880E+02  0.24159279423E+02  0.54017099443E+02  0.64376254181E+02  0.00000000000E+00 0.  1.
<scales pt_clust_5="13000.00000" pt_clust_6="13000.00000" pt_clust_7="13000.00000" pt_clust_8="13000.00000" pt_clust_9="35.02080"></scales>
<clustering>
<clus scale="   35.021">  1  9  2 -1</clus>
<clus scale="   76.046">  5  6 -1 -1</clus>
<clus scale="   89.604">  1  5  2 -1</clus>
<clus scale="   95.567">  7  8 -1 -1</clus>
<clus scale="   35.021">  1  5  2 -1</clus>
</clustering>
</event>
<event>
 9    2  0.6190160E-005  0.3326245E+03  0.7546771E-02  0.1070420E+00
         21   -1    0    0  501  502  0.00000000000E+00  0.00000000000E+00  0.89759518804E+02  0.89759518804E+02  0.00000000000E+00 0. -1.
          2   -1    0    0  502    0 -0.00000000000E+00 -0.00000000000E+00 -0.15770354080E+04  0.15770354080E+04  0.00000000000E+00 0. -1.
         23    2    1    2    0    0 -0.10417911868E+03  0.28614442651E+03 -0.68792343749E+03  0.75824807770E+03  0.94707813324E+02 0.  0.
         24    2    1    2    0    0  0.18546121365E+03 -0.28658965504E+03 -0.65388238792E+03  0.74190796813E+03  0.79597511274E+02 0.  0.
        -13    1    4    4    0    0  0.43567024932E+02 -0.40039333940E+02 -0.64885069430E+02  0.87814043061E+02  0.00000000000E+00 0.  1.
         14    1    4    4    0    0  0.14189418872E+03 -0.24655032110E+03 -0.58899731849E+03  0.65409392507E+03  0.00000000000E+00 0. -1.
        -13    1    3    3    0    0 -0.48304430243E+02  0.23725437606E+03 -0.48297886740E+03  0.54026988005E+03  0.00000000000E+00 0. -1.
         13    1    3    3    0    0 -0.55874688438E+02  0.48890050446E+02 -0.20494457009E+03  0.21797819765E+03  0.00000000000E+00 0.  1.
          1    1    1    2  501    0 -0.81282094973E+02  0.44522853339E+00 -0.14547006378E+03  0.16663888096E+03  0.00000000000E+00 0. -1.
<scales pt_clust_5="13000.00000" pt_clust_6="13000.00000" pt_clust_7="13000.00000" pt_clust_8="13000.00000" pt_clust_9="81.28331"></scales>
<clustering>
<clus scale="   79.598">  5  6 -1 -1</clus>
<clus scale="   81.283">  1  9  2 -1</clus>
<clus scale="   94.708">  7  8 -1 -1</clus>
<clus scale="  328.642">  1  5  2 -1</clus>
<clus scale="   81.283">  1  5  2 -1</clus>
</clustering>
</event>
<event>
 9    2  0.6190160E-005  0.9295182E+02  0.7546771E-02  0.1301969E+00
         -1   -1    0    0    0  501 -0.00000000000E+00  0.00000000000E+00  0.74270195777E+02  0.74270195777E+02  0.00000000000E+00 0.  1.
         21   -1    0    0  501  502  0.00000000000E+00 -0.00000000000E+00 -0.33482565694E+03  0.33482565694E+03  0.00000000000E+00 0.  1.
         23    2    1    2    0    0 -0.34335863876E+02  0.27937329001E+02  0.16212556220E+01  0.10051547635E+03  0.90229078551E+02 0.  0.
         24    2    1    2    0    0 -0.14881607512E+02  0.16567062999E+02 -0.82473334922E+02  0.11701757766E+03  0.79970823985E+02 0.  0.
        -11    1    4    4    0    0 -0.44585542700E+02  0.14635129490E+02 -0.27201699773E+02  0.54240115261E+02  0.00000000000E+00 0.  1.
         12    1    4    4    0    0  0.29703935187E+02  0.19319335094E+01 -0.55271635149E+02  0.62777462395E+02  0.00000000000E+00 0. -1.
        -11    1    3    3    0    0  0.40682494370E+01 -0.26532680836E+02 -0.16423655083E+02  0.31468559740E+02  0.00000000000E+00 0. -1.
         11    1    3    3    0    0 -0.38404113313E+02  0.54470009836E+02  0.18044910705E+02  0.69046916610E+02  0.00000000000E+00 0.  1.
         -2    1    1    2    0  502  0.49217471389E+02 -0.44504392000E+02 -0.17970338186E+03  0.19156279871E+03  0.00000000000E+00 0.  1.
<scales pt_clust_5="13000.00000" pt_clust_6="13000.00000" pt_clust_7="13000.00000" pt_clust_8="13000.00000" pt_clust_9="66.35511"></scales>
<clustering>
<clus scale="   66.355">  2  9  1 -1</clus>
<clus scale="   79.971">  5  6 -1 -1</clus>
<clus scale="   83.031">  2  5  1 -1</clus>
<clus scale="   90.229">  7  8 -1 -1</clus>
<clus scale="   66.355">  2  5  1 -1</clus>
</clustering>
</event>
<event>
 9    2  0.6190160E-005  0.9203769E+02  0.7546771E-02  0.1303124E+00
         21   -1    0    0  501  502  0.00000000000E+00  0.00000000000E+00  0.14854188199E+03  0.14854188199E+03  0.00000000000E+00 0.  1.
          2   -1    0    0  502    0 -0.00000000000E+00 -0.00000000000E+00 -0.29272687925E+03  0.29272687925E+03  0.00000000000E+00 0. -1.
         23    2    1    2    0    0  0.14481521008E+02  0.22994971940E+02 -0.26236030601E+03  0.27808925582E+03  0.88103466730E+02 0.  0.
         24    2    1    2    0    0  0.89441069270E+01 -0.28523155010E+02  0.72672652800E+02  0.11170317541E+03  0.79389656203E+02 0.  0.
        -13    1    4    4    0    0  0.32921504448E+02 -0.35763710132E+02  0.18482283496E+02  0.52004453855E+02  0.00000000000E+00 0.  1.
         14    1    4    4    0    0 -0.23977397521E+02  0.72405551221E+01  0.54190369304E+02  0.59698721558E+02  0.00000000000E+00 0. -1.
        -13    1    3    3    0    0  0.31102046275E+02 -0.10763887269E+02 -0.36628627402E+02  0.49242815689E+02  0.00000000000E+00 0.  1.
         13    1    3    3    0    0 -0.16620525266E+02  0.33758859210E+02 -0.22573167861E+03  0.22884644014E+03  0.00000000000E+00 0. -1.
          1    1    1    2  501    0 -0.23425627935E+02  0.55281830699E+01  0.45502655946E+02  0.51476330001E+02  0.00000000000E+00 0. -1.
<scales pt_clust_5="13000.00000" pt_clust_6="13000.00000" pt_clust_7="13000.00000" pt_clust_8="13000.00000" pt_clust_9="24.06908"></scales>
<clustering>
<clus scale="   24.069">  1  9  2 -1</clus>
<clus scale="   79.390">  5  6 -1 -1</clus>
<clus scale="   83.734">  1  5  2 -1</clus>
<clus scale="   88.103">  7  8 -1 -1</clus>
<clus scale="   24.069">  1  5  2 -1</clus>
</clustering>
</event>
<event>
 9    2  0.6190160E-005  0.2408144E+03  0.7546771E-02  0.1119954E+00
         21   -1    0    0  501  502  0.00000000000E+00  0.00000000000E+00  0.85226082207E+02  0.85226082207E+02  0.00000000000E+00 0. -1.
          2   -1    0    0  502    0 -0.00000000000E+00 -0.00000000000E+00 -0.15607996240E+04  0.15607996240E+04  0.00000000000E+00 0. -1.
         23    2    1    2    0    0 -0.13616163189E+03 -0.20695105005E+03 -0.10914681399E+04  0.11229827641E+04  0.91754350684E+02 0.  0.
         24    2    1    2    0    0  0.74325950141E+02  0.10437088973E+03 -0.36600876484E+02  0.15547562040E+03  0.80096285138E+02 0.  0.
        -11    1    4    4    0    0 -0.68009153284E+01  0.20816220985E+02 -0.32189021841E+02  0.38932000109E+02  0.00000000000E+00 0.  1.
         12    1    4    4    0    0  0.81126865469E+02  0.83554668741E+02 -0.44118546432E+01  0.11654362029E+03  0.00000000000E+00 0. -1.
        -11    1    3    3    0    0 -0.54827933132E+02 -0.98955826209E+02 -0.31200594598E+03  0.33188261196E+03  0.00000000000E+00 0.  1.
         11    1    3    3    0    0 -0.81333698755E+02 -0.10799522384E+03 -0.77946219391E+03  0.79110015211E+03  0.00000000000E+00 0. -1.
          1    1    1    2  501    0  0.61835681745E+02  0.10258016032E+03 -0.34750452543E+03  0.36756732176E+03  0.00000000000E+00 0. -1.
<scales pt_clust_5="13000.00000" pt_clust_6="13000.00000" pt_clust_7="13000.00000" pt_clust_8="13000.00000" pt_clust_9="119.77627"></scales>
<clustering>
<clus scale="   80.096">  5  6 -1 -1</clus>
<clus scale="   91.754">  7  8 -1 -1</clus>
<clus scale="  119.776">  1  9  2 -1</clus>
<clus scale="  236.618">  1  5  2 -1</clus>
<clus scale="  119.776">  1  5  2 -1</clus>
</clustering>
</event>
<event>
 9    2  0.6190160E-005  0.1305860E+03  0.7546771E-02  0.1229586E+00
         21   -1    0    0  501  502  0.00000000000E+00  0.00000000000E+00  0.30110150787E+02  0.30110150787E+02  0.00000000000E+00 0. -1.
         -3   -1    0    0    0  501 -0.00000000000E+00 -0.00000000000E+00 -0.13589008107E+04  0.13589008107E+04  0.00000000000E+00 0.  1.
         23    2    1    2    0    0  0.10897907985E+03  0.48561612075E+02 -0.72190471030E+03  0.73737512073E+03  0.91329009189E+02 0.  0.
         24    2    1    2    0    0 -0.69135914363E+02  0.60148808948E+02 -0.30150810713E+03  0.32504579167E+03  0.79686725040E+02 0.  0.
        -11    1    4    4    0    0  0.20055405526E+01  0.49028351346E+02 -0.13473355022E+03  0.14339083298E+03  0.00000000000E+00 0.  1.
         12    1    4    4    0    0 -0.71141454916E+02  0.11120457601E+02 -0.16677455691E+03  0.18165495869E+03  0.00000000000E+00 0. -1.
        -13    1    3    3    0    0  0.48516147830E+02  0.66809501764E+02 -0.49525716860E+03  0.50209261015E+03  0.00000000000E+00 0. -1.
         13    1    3    3    0    0  0.60462932016E+02 -0.18247889690E+02 -0.22664754170E+03  0.23528251058E+03  0.00000000000E+00 0.  1.
         -4    1    1    2    0  502 -0.39843165483E+02 -0.10871042102E+03 -0.30537784250E+03  0.32659004909E+03  0.00000000000E+00 0.  1.
<scales pt_clust_5="13000.00000" pt_clust_6="13000.00000" pt_clust_7="13000.00000" pt_clust_8="13000.00000" pt_clust_9="115.78184"></scales>
<clustering>
<clus scale="   79.687">  5  6 -1 -1</clus>
<clus scale="   91.329">  7  8 -1 -1</clus>
<clus scale="  115.782">  1  9  2 -1</clus>
<clus scale="  122.726">  1  5  2 -1</clus>
<clus scale="  115.782">  1  5  2 -1</clus>
</clustering>
</event>
<event>
 9    2  0.6190160E-005  0.1610980E+03  0.7546771E-02  0.1189017E+00
         -1   -1    0    0    0  501 -0.00000000000E+00  0.00000000000E+00  0.80561019139E+02  0.80561019139E+02  0.00000000000E+00 0.  1.
         21   -1    0    0  501  502  0.00000000000E+00 -0.00000000000E+00 -0.47351734042E+03  0.47351734042E+03  0.00000000000E+00 0.  1.
         23    2    1    2    0    0  0.15764748037E+03 -0.19107723173E+01 -0.10799475388E+03  0.21132205683E+03  0.90209565563E+02 0.  0.
         24    2    1    2    0    0 -0.10180568373E+03  0.19989776333E+02 -0.18257166621E+03  0.22473576001E+03  0.80060977562E+02 0.  0.
        -13    1    4    4    0    0  0.33527995881E+01  0.24452808306E+02 -0.47168492457E+02  0.53235775375E+02  0.00000000000E+00 0.  1.
         14    1    4    4    0    0 -0.10515848332E+03 -0.44630319738E+01 -0.13540317375E+03  0.17149998463E+03  0.00000000000E+00 0. -1.
        -11    1    3    3    0    0  0.14251145005E+02  0.31195637047E+02 -0.16814628413E+02  0.38196788260E+02  0.00000000000E+00 0.  1.
         11    1    3    3    0    0  0.14339633536E+03 -0.33106409364E+02 -0.91180125467E+02  0.17312526857E+03  0.00000000000E+00 0. -1.
         -2    1    1    2    0  502 -0.55841796638E+02 -0.18079004015E+02 -0.10238990120E+03  0.11802054272E+03  0.00000000000E+00 0.  1.
<scales pt_clust_5="13000.00000" pt_clust_6="13000.00000" pt_clust_7="13000.00000" pt_clust_8="13000.00000" pt_clust_9="58.69546"></scales>
<clustering>
<clus scale="   58.695">  2  9  1 -1</clus>
<clus scale="   80.061">  5  6 -1 -1</clus>
<clus scale="   90.210">  7  8 -1 -1</clus>
<clus scale="  155.642">  2  5  1 -1</clus>
<clus scale="   58.695">  2  5  1 -1</clus>
</clustering>
</event>
<event>
 9    2  0.6190160E-005  0.1355981E+03  0.7546771E-02  0.1222364E+00
         21   -1    0    0  501  502  0.00000000000E+00  0.00000000000E+00  0.16796181074E+03  0.16796181074E+03  0.00000000000E+00 0.  1.
         -1   -1    0    0    0  501 -0.00000000000E+00 -0.00000000000E+00 -0.16584473906E+03  0.16584473906E+03  0.00000000000E+00 0.  1.
         23    2    1    2    0    0  0.49983947436E+02 -0.10246972886E+03 -0.64791546483E+02  0.16044014812E+03  0.92437310109E+02 0.  0.
         24    2    1    2    0    0 -0.17177401936E+02  0.68317842075E+02  0.67340698848E+02  0.12600811315E+03  0.79880436750E+02 0.  0.
        -11    1    4    4    0    0  0.16851179073E+01  0.21011610997E+02  0.71852394898E+02  0.74880531994E+02  0.00000000000E+00 0.  1.
         12    1    4    4    0    0 -0.18862519843E+02  0.47306231079E+02 -0.45116960501E+01  0.51127581157E+02  0.00000000000E+00 0. -1.
        -11    1    3    3    0    0  0.32638962264E+02 -0.11559703842E+03 -0.38114435096E+02  0.12601859907E+03  0.00000000000E+00 0.  1.
         11    1    3    3    0    0  0.17344985172E+02  0.13127309564E+02 -0.26677111387E+02  0.34421549049E+02  0.00000000000E+00 0. -1.
         -2    1    1    2    0  502 -0.32806545500E+02  0.34151886783E+02 -0.43208069337E+00  0.47358288527E+02  0.00000000000E+00 0.  1.
<scales pt_clust_5="13000.00000" pt_clust_6="13000.00000" pt_clust_7="13000.00000" pt_clust_8="13000.00000" pt_clust_9="47.35634"></scales>
<clustering>
<clus scale="   47.356">  1  9  2 -1</clus>
<clus scale="   79.880">  5  6 -1 -1</clus>
<clus scale="   92.437">  7  8 -1 -1</clus>
<clus scale="  127.370">  1  5  2 -1</clus>
<clus scale="   47.356">  1  5  2 -1</clus>
</clustering>
</event>
<event>
 9    2  0.6190160E-005  0.1042210E+03  0.7546771E-02  0.1278517E+00
          2   -1    0    0  502    0 -0.00000000000E+00  0.00000000000E+00  0.53612634786E+03  0.53612634786E+03  0.00000000000E+00 0. -1.
         21   -1    0    0  501  502  0.00000000000E+00 -0.00000000000E+00 -0.92784397876E+02  0.92784397876E+02  0.00000000000E+00 0. -1.
         24    2    1    2    0    0  0.49956805415E+01 -0.41898382288E+02  0.37463059379E+03  0.38529542413E+03  0.79523900768E+02 0.  0.
         23    2    1    2    0    0  0.16782956888E+02  0.56733783197E+02  0.13350640504E+03  0.17366679393E+03  0.93998964507E+02 0.  0.
        -11    1    3    3    0    0  0.79165964141E+01 -0.63600769010E+02  0.32155151734E+03  0.32787666679E+03  0.00000000000E+00 0.  1.
         12    1    3    3    0    0 -0.29209158726E+01  0.21702386722E+02  0.53079076446E+02  0.57418757348E+02  0.00000000000E+00 0. -1.
        -11    1    4    4    0    0  0.40154356450E+02  0.67648533277E+02  0.12258312589E+03  0.14565479446E+03  0.00000000000E+00 0. -1.
         11    1    4    4    0    0 -0.23371399562E+02 -0.10914750080E+02  0.10923279156E+02  0.28011999471E+02  0.00000000000E+00 0.  1.
          1    1    1    2  501    0 -0.21778637430E+02 -0.14835400908E+02 -0.64795048848E+02  0.69948527673E+02  0.00000000000E+00 0. -1.
<scales pt_clust_5="13000.00000" pt_clust_6="13000.00000" pt_clust_7="13000.00000" pt_clust_8="13000.00000" pt_clust_9="26.35144"></scales>
<clustering>
<clus scale="   26.351">  2  9  1 -1</clus>
<clus scale="   79.524">  5  6 -1 -1</clus>
<clus scale="   91.380">  1  5  2 -1</clus>
<clus scale="   93.999">  7  8 -1 -1</clus>
<clus scale="   26.351">  2  5  1 -1</clus>
</clustering>
</event>
<event>
 9    2  0.6190160E-005  0.1014316E+03  0.7546771E-02  0.1280621E+00
          2   -1    0    0  502    0 -0.00000000000E+00  0.00000000000E+00  0.32621269255E+03  0.32621269255E+03  0.00000000000E+00 0. -1.
         21   -1    0    0  501  502  0.00000000000E+00 -0.00000000000E+00 -0.10177166423E+03  0.10177166423E+03  0.00000000000E+00 0. -1.
         24    2    1    2    0    0 -0.46658860928E+02  0.40476008002E+02  0.18996881699E+03  0.21713017041E+03  0.85099958554E+02 0.  0.
         23    2    1    2    0    0 -0.23577287152E+02  0.29749962108E+02 -0.13737558991E+02  0.10045044853E+03  0.91981646908E+02 0.  0.
        -13    1    3    3    0    0 -0.35674353357E+02  0.10904925969E+01  0.17256664863E+02  0.39643929469E+02  0.00000000000E+00 0.  1.
         14    1    3    3    0    0 -0.10984507572E+02  0.39385515405E+02  0.17271215213E+03  0.17748624094E+03  0.00000000000E+00 0. -1.
        -11    1    4    4    0    0  0.16852673383E+02 -0.25723486867E+02 -0.20625335388E+01  0.30821492848E+02  0.00000000000E+00 0.  1.
         11    1    4    4    0    0 -0.40429960534E+02  0.55473448975E+02 -0.11675025453E+02  0.69628955682E+02  0.00000000000E+00 0. -1.
          1    1    1    2  501    0  0.70236148080E+02 -0.70225970109E+02  0.48209770310E+02  0.11040373784E+03  0.00000000000E+00 0. -1.
<scales pt_clust_5="13000.00000" pt_clust_6="13000.00000" pt_clust_7="13000.00000" pt_clust_8="13000.00000" pt_clust_9="99.32172"></scales>
<clustering>
<clus scale="   85.100">  5  6 -1 -1</clus>
<clus scale="   91.982">  7  8 -1 -1</clus>
<clus scale="   99.322">  2  9  1 -1</clus>
<clus scale="   95.235">  1  5  2 -1</clus>
<clus scale="   99.322">  2  5  1 -1</clus>
</clustering>
</event>
<event>
 9    2  0.6190160E-005  0.1417425E+03  0.7546771E-02  0.1213435E+00
         21   -1    0    0  501  502  0.00000000000E+00  0.00000000000E+00  0.31674556517E+02  0.31674556517E+02  0.00000000000E+00 0.  1.
         -1   -1    0    0    0  501 -0.00000000000E+00 -0.00000000000E+00 -0.12029434800E+04  0.12029434800E+04  0.00000000000E+00 0.  1.
         23    2    1    2    0    0  0.48385662280E+02  0.71040739341E+02 -0.56441018072E+03  0.57827243636E+03  0.91935845021E+02 0.  0.
         24    2    1    2    0    0 -0.86448935711E+02 -0.12465938812E+03 -0.51853895191E+03  0.54623584700E+03  0.80483379462E+02 0.  0.
        -13    1    4    4    0    0 -0.35280552634E+02 -0.39244982543E+01 -0.64297479415E+02  0.73445795930E+02  0.00000000000E+00 0.  1.
         14    1    4    4    0    0 -0.51168383077E+02 -0.12073488986E+03 -0.45424147250E+03  0.47279005107E+03  0.00000000000E+00 0. -1.
        -11    1    3    3    0    0  0.38787348000E+02 -0.91943104572E+01 -0.11648830539E+03  0.12311993747E+03  0.00000000000E+00 0.  1.
         11    1    3    3    0    0  0.95983142796E+01  0.80235049798E+02 -0.44792187533E+03  0.45515249890E+03  0.00000000000E+00 0. -1.
         -2    1    1    2    0  502  0.38063273432E+02  0.53618648776E+02 -0.88319790815E+02  0.11010975311E+03  0.00000000000E+00 0.  1.
<scales pt_clust_5="13000.00000" pt_clust_6="13000.00000" pt_clust_7="13000.00000" pt_clust_8="13000.00000" pt_clust_9="65.75540"></scales>
<clustering>
<clus scale="   65.755">  1  9  2 -1</clus>
<clus scale="   80.483">  5  6 -1 -1</clus>
<clus scale="   91.936">  7  8 -1 -1</clus>
<clus scale="  134.597">  1  5  2 -1</clus>
<clus scale="   65.755">  1  5  2 -1</clus>
</clustering>
</event>
<event>
 9    2  0.6190160E-005  0.2184855E+03  0.7546771E-02  0.1135795E+00
          2   -1    0    0  502    0 -0.00000000000E+00  0.00000000000E+00  0.38013737507E+03  0.38013737507E+03  0.00000000000E+00 0. -1.
         21   -1    0    0  501  502  0.00000000000E+00 -0.00000000000E+00 -0.16940094235E+03  0.16940094235E+03  0.00000000000E+00 0. -1.
         24    2    1    2    0    0  0.26028862232E+02 -0.21285259452E+03  0.21030467162E+03  0.31098707389E+03  0.80629873855E+02 0.  0.
         23    2    1    2    0    0 -0.27974532278E+02  0.16577401896E+03 -0.42820133377E+01  0.19119728299E+03  0.90964089427E+02 0.  0.
        -13    1    3    3    0    0 -0.27944400751E+02 -0.56350600939E+02  0.68630281916E+02  0.93093476439E+02  0.00000000000E+00 0.  1.
         14    1    3    3    0    0  0.53973262983E+02 -0.15650199358E+03  0.14167438971E+03  0.21789359745E+03  0.00000000000E+00 0. -1.
        -13    1    4    4    0    0  0.14809952748E+02  0.12583843432E+03 -0.24928145013E+02  0.12913581480E+03  0.00000000000E+00 0.  1.
         13    1    4    4    0    0 -0.42784485026E+02  0.39935584642E+02  0.20646131675E+02  0.62061468181E+02  0.00000000000E+00 0. -1.
          1    1    1    2  501    0  0.19456700461E+01  0.47078575566E+02  0.47137744326E+01  0.47353960538E+02  0.00000000000E+00 0. -1.
<scales pt_clust_5="13000.00000" pt_clust_6="13000.00000" pt_clust_7="13000.00000" pt_clust_8="13000.00000" pt_clust_9="47.11876"></scales>
<clustering>
<clus scale="   47.119">  2  9  1 -1</clus>
<clus scale="   80.630">  5  6 -1 -1</clus>
<clus scale="   90.964">  7  8 -1 -1</clus>
<clus scale="  214.389">  1  5  2 -1</clus>
<clus scale="   47.119">  2  5  1 -1</clus>
</clustering>
</event>
<event>
 9    2  0.6190160E-005  0.9352821E+02  0.7546771E-02  0.1302554E+00
         21   -1    0    0  501  502  0.00000000000E+00  0.00000000000E+00  0.27318505945E+03  0.27318505945E+03  0.00000000000E+00 0. -1.
         -1   -1    0    0    0  501 -0.00000000000E+00 -0.00000000000E+00 -0.23765741851E+03  0.23765741851E+03  0.00000000000E+00 0.  1.
         23    2    1    2    0    0 -0.25701558760E+02 -0.13504660664E+02 -0.20732199128E+03  0.22779761794E+03  0.89813143173E+02 0.  0.
         24    2    1    2    0    0 -0.37603184745E+01 -0.38439958670E+02  0.14946757179E+03  0.17220057782E+03  0.76293601094E+02 0.  0.
        -13    1    4    4    0    0 -0.35441601953E+02 -0.15305581931E+02  0.38578964834E+02  0.54577509241E+02  0.00000000000E+00 0.  1.
         14    1    4    4    0    0  0.31681283478E+02 -0.23134376739E+02  0.11088860695E+03  0.11762306858E+03  0.00000000000E+00 0. -1.
        -13    1    3    3    0    0 -0.54340677520E+02 -0.11980128894E+02 -0.81075374203E+02  0.98334373562E+02  0.00000000000E+00 0.  1.
         13    1    3    3    0    0  0.28639118760E+02 -0.15245317698E+01 -0.12624661708E+03  0.12946324437E+03  0.00000000000E+00 0. -1.
         -2    1    1    2    0  502  0.29461877234E+02  0.51944619334E+02  0.93382060426E+02  0.11084428220E+03  0.00000000000E+00 0.  1.
<scales pt_clust_5="13000.00000" pt_clust_6="13000.00000" pt_clust_7="13000.00000" pt_clust_8="13000.00000" pt_clust_9="59.71805"></scales>
<clustering>
<clus scale="   59.718">  1  9  2 -1</clus>
<clus scale="   76.294">  5  6 -1 -1</clus>
<clus scale="   80.634">  1  5  2 -1</clus>
<clus scale="   89.813">  7  8 -1 -1</clus>
<clus scale="   59.718">  1  5  2 -1</clus>
</clustering>
</event>
<event>
 9    2  0.6190160E-005  0.2078269E+03  0.7546771E-02  0.1151258E+00
          2   -1    0    0  502    0 -0.00000000000E+00  0.00000000000E+00  0.95343508214E+03  0.95343508214E+03  0.00000000000E+00 0. -1.
         21   -1    0    0  501  502  0.00000000000E+00 -0.00000000000E+00 -0.10528106516E+03  0.10528106516E+03  0.00000000000E+00 0.  1.
         24    2    1    2    0    0  0.82486988932E+02  0.11971348611E+03  0.99547938771E+02  0.19868611532E+03  0.91820249450E+02 0.  0.
         23    2    1    2    0    0 -0.21879118997E+03 -0.87189297554E+01  0.33444646049E+03  0.41011135521E+03  0.91603952951E+02 0.  0.
        -13    1    3    3    0    0  0.18950945468E+02  0.60023182193E+02 -0.43089134498E+01  0.63091104522E+02  0.00000000000E+00 0.  1.
         14    1    3    3    0    0  0.63536043464E+02  0.59690303912E+02  0.10385685222E+03  0.13559501080E+03  0.00000000000E+00 0. -1.
        -11    1    4    4    0    0 -0.96175997527E+02  0.31850325435E+02  0.99473081773E+02  0.14198295577E+03  0.00000000000E+00 0.  1.
         11    1    4    4    0    0 -0.12261519244E+03 -0.40569255191E+02  0.23497337872E+03  0.26812839945E+03  0.00000000000E+00 0. -1.
          1    1    1    2  501    0  0.13630420104E+03 -0.11099455635E+03  0.41415961772E+03  0.44991867677E+03  0.00000000000E+00 0. -1.
<scales pt_clust_5="13000.00000" pt_clust_6="13000.00000" pt_clust_7="13000.00000" pt_clust_8="13000.00000" pt_clust_9="186.54960"></scales>
<clustering>
<clus scale="   91.604">  7  8 -1 -1</clus>
<clus scale="   91.820">  5  6 -1 -1</clus>
<clus scale="  171.949">  1  5  2 -1</clus>
<clus scale="  186.550">  2  9  1 -1</clus>
<clus scale="  186.550">  2  5  1 -1</clus>
</clustering>
</event>
<event>
 9    2  0.6190160E-005  0.9485936E+02  0.7546771E-02  0.1296527E+00
         -1   -1    0    0    0  501 -0.00000000000E+00  0.00000000000E+00  0.75609351830E+02  0.75609351830E+02  0.00000000000E+00 0.  1.
         21   -1    0    0  501  502  0.00000000000E+00 -0.00000000000E+00 -0.25568340703E+03  0.25568340703E+03  0.00000000000E+00 0. -1.
         23    2    1    2    0    0 -0.26362200829E+02  0.29523567876E+01 -0.31122204038E+01  0.96111445378E+02  0.92325738414E+02 0.  0.
         24    2    1    2    0    0  0.54812965483E+00  0.43342740296E+02 -0.14620028889E+03  0.17389611958E+03  0.83584940940E+02 0.  0.
        -11    1    4    4    0    0 -0.22399062191E+02 -0.11272075296E+02 -0.13285673467E+02  0.28377575442E+02  0.00000000000E+00 0.  1.
         12    1    4    4    0    0  0.22947191846E+02  0.54614815592E+02 -0.13291461542E+03  0.14551854414E+03  0.00000000000E+00 0. -1.
        -13    1    3    3    0    0 -0.47528880614E+02  0.21037450136E+02  0.24000417362E+02  0.57250229993E+02  0.00000000000E+00 0. -1.
         13    1    3    3    0    0  0.21166679786E+02 -0.18085093348E+02 -0.27112637766E+02  0.38861215385E+02  0.00000000000E+00 0.  1.
         -2    1    1    2    0  502  0.25814071174E+02 -0.46295097083E+02 -0.30761545904E+02  0.61285193897E+02  0.00000000000E+00 0.  1.
<scales pt_clust_5="13000.00000" pt_clust_6="13000.00000" pt_clust_7="13000.00000" pt_clust_8="13000.00000" pt_clust_9="53.00571"></scales>
<clustering>
<clus scale="   53.006">  2  9  1 -1</clus>
<clus scale="   83.585">  5  6 -1 -1</clus>
<clus scale="   86.375">  2  5  1 -1</clus>
<clus scale="   92.326">  7  8 -1 -1</clus>
<clus scale="   53.006">  2  5  1 -1</clus>
</clustering>
</event>
<event>
 9    2  0.6190160E-005  0.9356375E+02  0.7546771E-02  0.1301978E+00
         -1   -1    0    0    0  501 -0.00000000000E+00  0.00000000000E+00  0.99201937267E+02  0.99201937267E+02  0.00000000000E+00 0.  1.
         21   -1    0    0  501  502  0.00000000000E+00 -0.00000000000E+00 -0.13398773783E+03  0.13398773783E+03  0.00000000000E+00 0.  1.
         24    2    1    2    0    0 -0.11452616738E+02 -0.16530207808E+02  0.31797724341E+02  0.88723774641E+02  0.80351743684E+02 0.  0.
         23    2    1    2    0    0 -0.79604496392E+01  0.20428584551E+01 -0.24963612897E+02  0.96310241256E+02  0.92654943596E+02 0.  0.
        -13    1    3    3    0    0 -0.29751016957E+01 -0.42435879786E+02  0.41847117195E+02  0.59672743702E+02  0.00000000000E+00 0.  1.
         14    1    3    3    0    0 -0.84775150418E+01  0.25905671978E+02 -0.10049392854E+02  0.29051030940E+02  0.00000000000E+00 0. -1.
        -13    1    4    4    0    0 -0.49721221548E+02  0.58010400147E+01 -0.64391145112E+01  0.50470923641E+02  0.00000000000E+00 0.  1.
         13    1    4    4    0    0  0.41760771908E+02 -0.37581815596E+01 -0.18524498386E+02  0.45839317616E+02  0.00000000000E+00 0. -1.
         -2    1    1    2    0  502  0.19413066377E+02  0.14487349353E+02 -0.41619912007E+02  0.48155659199E+02  0.00000000000E+00 0.  1.
<scales pt_clust_5="13000.00000" pt_clust_6="13000.00000" pt_clust_7="13000.00000" pt_clust_8="13000.00000" pt_clust_9="24.22293"></scales>
<clustering>
<clus scale="   24.223">  2  9  1 -1</clus>
<clus scale="   80.352">  5  6 -1 -1</clus>
<clus scale="   81.398">  1  5  2 -1</clus>
<clus scale="   92.655">  7  8 -1 -1</clus>
<clus scale="   24.223">  2  5  1 -1</clus>
</clustering>
</event>
<event>
 9    2  0.6190160E-005  0.9224977E+02  0.7546771E-02  0.1305455E+00
         21   -1    0    0  501  502  0.00000000000E+00  0.00000000000E+00  0.98384198621E+02  0.98384198621E+02  0.00000000000E+00 0. -1.
          2   -1    0    0  502    0 -0.00000000000E+00 -0.00000000000E+00 -0.27294038842E+03  0.27294038842E+03  0.00000000000E+00 0. -1.
         24    2    1    2    0    0  0.14443733147E+02  0.48425578497E+01 -0.21745880240E+03  0.23179657868E+03  0.78798803006E+02 0.  0.
         23    2    1    2    0    0  0.17953776182E+02 -0.87539222309E+01  0.11685014634E+02  0.94367895374E+02  0.91486561181E+02 0.  0.
        -11    1    3    3    0    0 -0.77329583514E+01  0.28808448441E+02 -0.17844931731E+03  0.18092507896E+03  0.00000000000E+00 0.  1.
         12    1    3    3    0    0  0.22176691498E+02 -0.23965890592E+02 -0.39009485081E+02  0.50871499722E+02  0.00000000000E+00 0. -1.
        -11    1    4    4    0    0  0.48123340012E+02 -0.84158261377E+01 -0.17978380414E+02  0.52056739677E+02  0.00000000000E+00 0. -1.
         11    1    4    4    0    0 -0.30169563830E+02 -0.33809609319E+00  0.29663395047E+02  0.42311155697E+02  0.00000000000E+00 0.  1.
          1    1    1    2  501    0 -0.32397509329E+02  0.39113643812E+01  0.31217597965E+02  0.45160112984E+02  0.00000000000E+00 0. -1.
<scales pt_clust_5="13000.00000" pt_clust_6="13000.00000" pt_clust_7="13000.00000" pt_clust_8="13000.00000" pt_clust_9="32.63277"></scales>
<clustering>
<clus scale="   32.633">  1  9  2 -1</clus>
<clus scale="   78.799">  5  6 -1 -1</clus>
<clus scale="   79.684">  2  5  1 -1</clus>
<clus scale="   91.487">  7  8 -1 -1</clus>
<clus scale="   32.633">  1  5  2 -1</clus>
</clustering>
</event>
<event>
 9    2  0.6190160E-005  0.8849121E+02  0.7546771E-02  0.1311164E+00
         -1   -1    0    0    0  501 -0.00000000000E+00  0.00000000000E+00  0.22925908236E+03  0.22925908236E+03  0.00000000000E+00 0.  1.
         21   -1    0    0  501  502  0.00000000000E+00 -0.00000000000E+00 -0.66766512220E+02  0.66766512220E+02  0.00000000000E+00 0. -1.
         23    2    1    2    0    0 -0.45542426176E+01  0.15228170486E+02  0.16063761662E+03  0.18380176202E+03  0.87897699319E+02 0.  0.
         24    2    1    2    0    0 -0.11314968012E+02  0.42444553305E+01  0.16320244235E+02  0.83236600247E+02  0.80721356200E+02 0.  0.
        -11    1    4    4    0    0  0.34507251103E+02 -0.29205163503E+01  0.19631141990E+01  0.34686216452E+02  0.00000000000E+00 0.  1.
         12    1    4    4    0    0 -0.45822219115E+02  0.71649716808E+01  0.14357130036E+02  0.48550383795E+02  0.00000000000E+00 0. -1.
        -11    1    3    3    0    0 -0.29478103869E+02 -0.12368355555E+02  0.18616930178E+02  0.36993579390E+02  0.00000000000E+00 0. -1.
         11    1    3    3    0    0  0.24923861251E+02  0.27596526041E+02  0.14202068644E+03  0.14680818263E+03  0.00000000000E+00 0.  1.
         -2    1    1    2    0  502  0.15869210630E+02 -0.19472625816E+02 -0.14465290709E+02  0.28987232319E+02  0.00000000000E+00 0.  1.
<scales pt_clust_5="13000.00000" pt_clust_6="13000.00000" pt_clust_7="13000.00000" pt_clust_8="13000.00000" pt_clust_9="25.12001"></scales>
<clustering>
<clus scale="   25.120">  2  9  1 -1</clus>
<clus scale="   80.721">  5  6 -1 -1</clus>
<clus scale="   81.367">  2  5  1 -1</clus>
<clus scale="   87.898">  7  8 -1 -1</clus>
<clus scale="   25.120">  2  5  1 -1</clus>
</clustering>
</event>
<event>
 9    2  0.6190160E-005  0.1350642E+03  0.7546771E-02  0.1236434E+00
         -1   -1    0    0    0  501 -0.00000000000E+00  0.00000000000E+00  0.49036098708E+03  0.49036098708E+03  0.00000000000E+00 0.  1.
         21   -1    0    0  501  502  0.00000000000E+00 -0.00000000000E+00 -0.74733308646E+02  0.74733308646E+02  0.00000000000E+00 0.  1.
         23    2    1    2    0    0  0.20655158537E+02  0.31854189167E+02  0.20773284289E+03  0.22899426884E+03  0.88567015334E+02 0.  0.
         24    2    1    2    0    0  0.75915797267E+02 -0.81400707359E+02  0.53093309423E+02  0.14703834526E+03  0.80075539571E+02 0.  0.
        -13    1    4    4    0    0  0.43921789277E+02 -0.53056526644E+02  0.72582222732E+02  0.10006146935E+03  0.00000000000E+00 0.  1.
         14    1    4    4    0    0  0.31994007990E+02 -0.28344180715E+02 -0.19488913309E+02  0.46976875904E+02  0.00000000000E+00 0. -1.
        -11    1    3    3    0    0 -0.30551597837E+02  0.25672324398E+02  0.56222990276E+02  0.68945580032E+02  0.00000000000E+00 0. -1.
         11    1    3    3    0    0  0.51206756374E+02  0.61818647692E+01  0.15150985261E+03  0.16004868881E+03  0.00000000000E+00 0.  1.
         -2    1    1    2    0  502 -0.96570955804E+02  0.49546518192E+02  0.15480152612E+03  0.18906168163E+03  0.00000000000E+00 0.  1.
<scales pt_clust_5="13000.00000" pt_clust_6="13000.00000" pt_clust_7="13000.00000" pt_clust_8="13000.00000" pt_clust_9="108.76702"></scales>
<clustering>
<clus scale="   80.076">  5  6 -1 -1</clus>
<clus scale="   88.567">  7  8 -1 -1</clus>
<clus scale="   96.361">  1  7  2 -1</clus>
<clus scale="  108.767">  2  9  1 -1</clus>
<clus scale="  108.767">  2  5  1 -1</clus>
</clustering>
</event>
<event>
 9    2  0.6190160E-005  0.1039041E+03  0.7546771E-02  0.1275287E+00
         21   -1    0    0  501  502  0.00000000000E+00  0.00000000000E+00  0.35399389122E+03  0.35399389122E+03  0.00000000000E+00 0. -1.
         -1   -1    0    0    0  501 -0.00000000000E+00 -0.00000000000E+00 -0.92021784933E+02  0.92021784933E+02  0.00000000000E+00 0.  1.
         23    2    1    2    0    0 -0.29137060169E+02  0.39510932662E+02 -0.32573254428E+02  0.10712773353E+03  0.89472075602E+02 0.  0.
         24    2    1    2    0    0  0.19436803544E+02 -0.82329254174E+02  0.24882043719E+03  0.27549809906E+03  0.82654081538E+02 0.  0.
        -11    1    4    4    0    0  0.20665649757E+02  0.25637270493E+01  0.12263964283E+02  0.24167056010E+02  0.00000000000E+00 0.  1.
         12    1    4    4    0    0 -0.12288462130E+01 -0.84892981223E+02  0.23655647291E+03  0.25133104305E+03  0.00000000000E+00 0. -1.
        -11    1    3    3    0    0 -0.55621972966E+01 -0.26750063354E+02  0.43953755376E+01  0.27673511781E+02  0.00000000000E+00 0. -1.
         11    1    3    3    0    0 -0.23574862872E+02  0.66260996016E+02 -0.36968629966E+02  0.79454221751E+02  0.00000000000E+00 0.  1.
         -2    1    1    2    0  502  0.97002566251E+01  0.42818321512E+02  0.45724923518E+02  0.63389843559E+02  0.00000000000E+00 0.  1.
<scales pt_clust_5="13000.00000" pt_clust_6="13000.00000" pt_clust_7="13000.00000" pt_clust_8="13000.00000" pt_clust_9="43.90334"></scales>
<clustering>
<clus scale="   43.903">  1  9  2 -1</clus>
<clus scale="   82.654">  5  6 -1 -1</clus>
<clus scale="   89.472">  7  8 -1 -1</clus>
<clus scale="   98.094">  1  5  2 -1</clus>
<clus scale="   43.903">  1  5  2 -1</clus>
</clustering>
</event>
<event>
 9    2  0.6190160E-005  0.1432796E+03  0.7546771E-02  0.1211751E+00
         21   -1    0    0  501  502  0.00000000000E+00  0.00000000000E+00  0.59848975920E+03  0.59848975920E+03  0.00000000000E+00 0.  1.
         -1   -1    0    0    0  501 -0.00000000000E+00 -0.00000000000E+00 -0.14508067064E+03  0.14508067064E+03  0.00000000000E+00 0.  1.
         24    2    1    2    0    0 -0.12003947624E+03  0.13117122442E+01 -0.76150829091E+02  0.16209503567E+03  0.77875897244E+02 0.  0.
         23    2    1    2    0    0  0.73859941136E+02  0.34935764224E+02  0.13412632212E+03  0.18170776482E+03  0.91389512429E+02 0.  0.
        -11    1    3    3    0    0 -0.11410970053E+03 -0.40050184943E+01 -0.90491867614E+02  0.14569091266E+03  0.00000000000E+00 0.  1.
         12    1    3    3    0    0 -0.59297757188E+01  0.53167307385E+01  0.14341038523E+02  0.16404123011E+02  0.00000000000E+00 0. -1.
        -11    1    4    4    0    0  0.26679149095E+02  0.52904323942E+02  0.30962988364E+02  0.66853205881E+02  0.00000000000E+00 0.  1.
         11    1    4    4    0    0  0.47180792041E+02 -0.17968559718E+02  0.10316333376E+03  0.11485455894E+03  0.00000000000E+00 0. -1.
         -2    1    1    2    0  502  0.46179535109E+02 -0.36247476468E+02  0.39543359552E+03  0.39976762936E+03  0.00000000000E+00 0.  1.
<scales pt_clust_5="13000.00000" pt_clust_6="13000.00000" pt_clust_7="13000.00000" pt_clust_8="13000.00000" pt_clust_9="58.70629"></scales>
<clustering>
<clus scale="   58.706">  1  9  2 -1</clus>
<clus scale="   77.876">  5  6 -1 -1</clus>
<clus scale="   91.390">  7  8 -1 -1</clus>
<clus scale="  135.062">  2  5  1 -1</clus>
<clus scale="   58.706">  1  5  2 -1</clus>
</clustering>
</event>
<event>
 9    2  0.6190160E-005  0.1115639E+03  0.7546771E-02  0.1262198E+00
          2   -1    0    0  502    0 -0.00000000000E+00  0.00000000000E+00  0.22546793690E+03  0.22546793690E+03  0.00000000000E+00 0. -1.
         21   -1    0    0  501  502  0.00000000000E+00 -0.00000000000E+00 -0.11339376330E+03  0.11339376330E+03  0.00000000000E+00 0.  1.
         23    2    1    2    0    0  0.69298165644E+02 -0.18305643401E+02  0.15788665929E+03  0.19594351344E+03  0.91259689534E+02 0.  0.
         24    2    1    2    0    0 -0.46091109876E+02  0.25707206944E+01 -0.32362464651E+01  0.91938863734E+02  0.79443579722E+02 0.  0.
        -13    1    4    4    0    0 -0.20339010288E+02 -0.27789771394E+02 -0.28574063489E+02  0.44748450676E+02  0.00000000000E+00 0.  1.
         14    1    4    4    0    0 -0.25752099588E+02  0.30360492088E+02  0.25337817024E+02  0.47190413058E+02  0.00000000000E+00 0. -1.
        -11    1    3    3    0    0  0.91202740395E+01  0.27818879176E+02  0.12216985039E+02  0.31722612764E+02  0.00000000000E+00 0.  1.
         11    1    3    3    0    0  0.60177891604E+02 -0.46124522576E+02  0.14566967425E+03  0.16422090067E+03  0.00000000000E+00 0. -1.
          1    1    1    2  501    0 -0.23207055767E+02  0.15734922706E+02 -0.42576239222E+02  0.50979323026E+02  0.00000000000E+00 0. -1.
<scales pt_clust_5="13000.00000" pt_clust_6="13000.00000" pt_clust_7="13000.00000" pt_clust_8="13000.00000" pt_clust_9="28.03846"></scales>
<clustering>
<clus scale="   28.038">  2  9  1 -1</clus>
<clus scale="   79.444">  5  6 -1 -1</clus>
<clus scale="   91.260">  7  8 -1 -1</clus>
<clus scale="  102.125">  2  5  1 -1</clus>
<clus scale="   28.038">  2  5  1 -1</clus>
</clustering>
</event>
<event>
 9    2  0.6190160E-005  0.1864990E+03  0.7546771E-02  0.1163042E+00
         21   -1    0    0  501  502  0.00000000000E+00  0.00000000000E+00  0.47708487132E+02  0.47708487132E+02  0.00000000000E+00 0. -1.
          2   -1    0    0  502    0 -0.00000000000E+00 -0.00000000000E+00 -0.11352978108E+04  0.11352978108E+04  0.00000000000E+00 0. -1.
         23    2    1    2    0    0  0.15191622956E+03 -0.38377422350E+01 -0.58478072314E+03  0.61126107582E+03  0.92619326260E+02 0.  0.
         24    2    1    2    0    0 -0.18662715141E+03  0.43138054076E+01 -0.27819253211E+03  0.34446246226E+03  0.80093697769E+02 0.  0.
        -13    1    4    4    0    0 -0.36921154586E+02  0.60054461101E+01 -0.12410172841E+03  0.12961665030E+03  0.00000000000E+00 0.  1.
         14    1    4    4    0    0 -0.14970599682E+03 -0.16916407025E+01 -0.15409080370E+03  0.21484581196E+03  0.00000000000E+00 0. -1.
        -13    1    3    3    0    0  0.88791441729E+01  0.27175956669E+02 -0.14417170255E+03  0.14697908571E+03  0.00000000000E+00 0.  1.
         13    1    3    3    0    0  0.14303708539E+03 -0.31013698904E+02 -0.44060902059E+03  0.46428199011E+03  0.00000000000E+00 0. -1.
          1    1    1    2  501    0  0.34710921852E+02 -0.47606317259E+00 -0.22461606843E+03  0.22728275985E+03  0.00000000000E+00 0. -1.
<scales pt_clust_5="13000.00000" pt_clust_6="13000.00000" pt_clust_7="13000.00000" pt_clust_8="13000.00000" pt_clust_9="34.71420"></scales>
<clustering>
<clus scale="   34.714">  1  9  2 -1</clus>
<clus scale="   80.094">  5  6 -1 -1</clus>
<clus scale="   92.619">  7  8 -1 -1</clus>
<clus scale="  180.606">  1  5  2 -1</clus>
<clus scale="   34.714">  1  5  2 -1</clus>
</clustering>
</event>
<event>
 9    2  0.6190160E-005  0.9529068E+02  0.7546771E-02  0.1296317E+00
         21   -1    0    0  501  502  0.00000000000E+00  0.00000000000E+00  0.82460497526E+02  0.82460497526E+02  0.00000000000E+00 0.  1.
         -1   -1    0    0    0  501 -0.00000000000E+00 -0.00000000000E+00 -0.55034782219E+03  0.55034782219E+03  0.00000000000E+00 0.  1.
         23    2    1    2    0    0 -0.49073032039E+01  0.25164887746E+02 -0.35013961436E+03  0.36290936226E+03  0.91913559812E+02 0.  0.
         24    2    1    2    0    0 -0.33238334500E+02 -0.20407705141E+02 -0.17725097755E+03  0.19905857862E+03  0.81762750497E+02 0.  0.
        -11    1    4    4    0    0 -0.50448443083E+02 -0.43179297638E+01 -0.55818707549E+02  0.75361913719E+02  0.00000000000E+00 0.  1.
         12    1    4    4    0    0  0.17210108583E+02 -0.16089775378E+02 -0.12143227000E+03  0.12369666490E+03  0.00000000000E+00 0. -1.
        -11    1    3    3    0    0 -0.19820722697E+01 -0.32775026415E+02 -0.77551019364E+02  0.84215744202E+02  0.00000000000E+00 0. -1.
         11    1    3    3    0    0 -0.29252309341E+01  0.57939914161E+02 -0.27258859499E+03  0.27869361806E+03  0.00000000000E+00 0.  1.
         -2    1    1    2    0  502  0.38145637704E+02 -0.47571826042E+01  0.59503267238E+02  0.70840378840E+02  0.00000000000E+00 0.  1.
<scales pt_clust_5="13000.00000" pt_clust_6="13000.00000" pt_clust_7="13000.00000" pt_clust_8="13000.00000" pt_clust_9="38.44113"></scales>
<clustering>
<clus scale="   38.441">  1  9  2 -1</clus>
<clus scale="   81.763">  5  6 -1 -1</clus>
<clus scale="   85.542">  1  5  2 -1</clus>
<clus scale="   91.914">  7  8 -1 -1</clus>
<clus scale="   38.441">  1  5  2 -1</clus>
</clustering>
</event>
<event>
 9    2  0.6190160E-005  0.9347290E+02  0.7546771E-02  0.1296716E+00
         -3   -1    0    0    0  501 -0.00000000000E+00  0.00000000000E+00  0.49120332963E+02  0.49120332963E+02  0.00000000000E+00 0.  1.
         21   -1    0    0  501  502  0.00000000000E+00 -0.00000000000E+00 -0.39665023256E+03  0.39665023256E+03  0.00000000000E+00 0. -1.
         23    2    1    2    0    0  0.20621162460E+01 -0.27932489050E+02 -0.18197034504E+02  0.95477349749E+02  0.89444485478E+02 0.  0.
         24    2    1    2    0    0 -0.22122743240E+02  0.19656569970E+02 -0.30233125723E+03  0.31565210697E+03  0.85768683235E+02 0.  0.
        -13    1    4    4    0    0  0.27479701703E+02 -0.13942888701E+02 -0.10428505369E+03  0.10874240468E+03  0.00000000000E+00 0.  1.
         14    1    4    4    0    0 -0.49602444943E+02  0.33599458671E+02 -0.19804620354E+03  0.20690970230E+03  0.00000000000E+00 0. -1.
        -13    1    3    3    0    0  0.12973918518E+02 -0.58034779631E+02 -0.17776270876E+01  0.59493849822E+02  0.00000000000E+00 0.  1.
         13    1    3    3    0    0 -0.10911802272E+02  0.30102290581E+02 -0.16419407417E+02  0.35983499927E+02  0.00000000000E+00 0. -1.
         -4    1    1    2    0  502  0.20060626994E+02  0.82759190805E+01 -0.27001607858E+02  0.34641108801E+02  0.00000000000E+00 0.  1.
<scales pt_clust_5="13000.00000" pt_clust_6="13000.00000" pt_clust_7="13000.00000" pt_clust_8="13000.00000" pt_clust_9="21.70069"></scales>
<clustering>
<clus scale="   21.701">  2  9  1 -1</clus>
<clus scale="   85.769">  5  6 -1 -1</clus>
<clus scale="   89.444">  7  8 -1 -1</clus>
<clus scale="   89.962">  2  5  1 -1</clus>
<clus scale="   21.701">  2  5  1 -1</clus>
</clustering>
</event>
<event>
 9    2  0.6190160E-005  0.9671701E+02  0.7546771E-02  0.1293506E+00
         21   -1    0    0  501  502  0.00000000000E+00  0.00000000000E+00  0.42082580040E+03  0.42082580040E+03  0.00000000000E+00 0. -1.
          4   -1    0    0  502    0 -0.00000000000E+00 -0.00000000000E+00 -0.47259559334E+02  0.47259559334E+02  0.00000000000E+00 0. -1.
         24    2    1    2    0    0 -0.10073782376E+02  0.38921069952E+02  0.27369030454E+02  0.94168430021E+02  0.80636831579E+02 0.  0.
         23    2    1    2    0    0 -0.74947424333E+01  0.66679884079E+01  0.23258226333E+03  0.25024247175E+03  0.91794075076E+02 0.  0.
        -13    1    3    3    0    0 -0.32099411713E+02 -0.10101482995E+02  0.21894620065E+02  0.40147061895E+02  0.00000000000E+00 0.  1.
         14    1    3    3    0    0  0.22025629336E+02  0.49022552947E+02  0.54744103884E+01  0.54021368126E+02  0.00000000000E+00 0. -1.
        -11    1    4    4    0    0  0.34322754330E+01 -0.34437164687E+02  0.39433673197E+02  0.52466307361E+02  0.00000000000E+00 0.  1.
         11    1    4    4    0    0 -0.10927017866E+02  0.41105153095E+02  0.19314859014E+03  0.19777616439E+03  0.00000000000E+00 0. -1.
          3    1    1    2  501    0  0.17568524810E+02 -0.45589058360E+02  0.11361494728E+03  0.12367445796E+03  0.00000000000E+00 0. -1.
<scales pt_clust_5="13000.00000" pt_clust_6="13000.00000" pt_clust_7="13000.00000" pt_clust_8="13000.00000" pt_clust_9="48.85709"></scales>
<clustering>
<clus scale="   48.857">  1  9  2 -1</clus>
<clus scale="   80.637">  5  6 -1 -1</clus>
<clus scale="   86.199">  2  5  1 -1</clus>
<clus scale="   91.794">  7  8 -1 -1</clus>
<clus scale="   48.857">  1  5  2 -1</clus>
</clustering>
</event>
<event>
 9    2  0.6190160E-005  0.9545131E+02  0.7546771E-02  0.1294559E+00
         -1   -1    0    0    0  501 -0.00000000000E+00  0.00000000000E+00  0.26462537956E+03  0.26462537956E+03  0.00000000000E+00 0.  1.
         21   -1    0    0  501  502  0.00000000000E+00 -0.00000000000E+00 -0.76992074844E+02  0.76992074844E+02  0.00000000000E+00 0.  1.
         23    2    1    2    0    0 -0.29636722311E+01 -0.26052483456E+02  0.14067671251E+03  0.16849494564E+03  0.88955573263E+02 0.  0.
         24    2    1    2    0    0  0.30556274185E+02  0.40863851993E+02  0.82129127220E+02  0.12602860746E+03  0.80836106225E+02 0.  0.
        -11    1    4    4    0    0  0.33583533624E+02 -0.16390792892E+02  0.40950027115E+02  0.55438403143E+02  0.00000000000E+00 0.  1.
         12    1    4    4    0    0 -0.30272594387E+01  0.57254644885E+02  0.41179100105E+02  0.70590204321E+02  0.00000000000E+00 0. -1.
        -13    1    3    3    0    0 -0.34001446856E+02 -0.12906341483E+02  0.12702410839E+03  0.13212795371E+03  0.00000000000E+00 0.  1.
         13    1    3    3    0    0  0.31037774625E+02 -0.13146141973E+02  0.13652604118E+02  0.36366991925E+02  0.00000000000E+00 0. -1.
         -2    1    1    2    0  502 -0.27592601954E+02 -0.14811368538E+02 -0.35172535016E+02  0.47093901304E+02  0.00000000000E+00 0.  1.
<scales pt_clust_5="13000.00000" pt_clust_6="13000.00000" pt_clust_7="13000.00000" pt_clust_8="13000.00000" pt_clust_9="31.31658"></scales>
<clustering>
<clus scale="   31.317">  2  9  1 -1</clus>
<clus scale="   80.836">  5  6 -1 -1</clus>
<clus scale="   87.934">  2  5  1 -1</clus>
<clus scale="   88.956">  7  8 -1 -1</clus>
<clus scale="   31.317">  2  5  1 -1</clus>
</clustering>
</event>
<event>
 9    2  0.6190160E-005  0.1839596E+03  0.7546771E-02  0.1165131E+00
         -1   -1    0    0    0  501 -0.00000000000E+00  0.00000000000E+00  0.26011215987E+03  0.26011215987E+03  0.00000000000E+00 0.  1.
         21   -1    0    0  501  502  0.00000000000E+00 -0.00000000000E+00 -0.17270467418E+03  0.17270467418E+03  0.00000000000E+00 0. -1.
         24    2    1    2    0    0 -0.71480195308E+02 -0.13970611212E+03  0.74866044409E+02  0.19184996973E+03  0.81081873399E+02 0.  0.
         23    2    1    2    0    0  0.92943697835E+02  0.13809003324E+03 -0.31215857200E+02  0.19220217605E+03  0.90883763631E+02 0.  0.
        -11    1    3    3    0    0 -0.69172132701E+02 -0.11860093761E+03  0.91401025131E+02  0.16493972760E+03  0.00000000000E+00 0.  1.
         12    1    3    3    0    0 -0.23080626068E+01 -0.21105174513E+02 -0.16534980722E+02  0.26910242134E+02  0.00000000000E+00 0. -1.
        -11    1    4    4    0    0  0.73504602682E+02  0.29310134783E+02 -0.14190960705E+02  0.80395236067E+02  0.00000000000E+00 0.  1.
         11    1    4    4    0    0  0.19439095153E+02  0.10877989846E+03 -0.17024896495E+02  0.11180693999E+03  0.00000000000E+00 0. -1.
         -2    1    1    2    0  502 -0.21463502527E+02  0.16160788821E+01  0.43757298476E+02  0.48764688265E+02  0.00000000000E+00 0.  1.
<scales pt_clust_5="13000.00000" pt_clust_6="13000.00000" pt_clust_7="13000.00000" pt_clust_8="13000.00000" pt_clust_9="21.52427"></scales>
<clustering>
<clus scale="   21.524">  2  9  1 -1</clus>
<clus scale="   81.082">  5  6 -1 -1</clus>
<clus scale="   90.884">  7  8 -1 -1</clus>
<clus scale="  179.320">  1  5  2 -1</clus>
<clus scale="   21.524">  2  5  1 -1</clus>
</clustering>
</event>
<event>
 9    2  0.6190160E-005  0.1238095E+03  0.7546771E-02  0.1239959E+00
         -1   -1    0    0    0  501 -0.00000000000E+00  0.00000000000E+00  0.12013966434E+03  0.12013966434E+03  0.00000000000E+00 0.  1.
         21   -1    0    0  501  502  0.00000000000E+00 -0.00000000000E+00 -0.21473929300E+03  0.21473929300E+03  0.00000000000E+00 0.  1.
         23    2    1    2    0    0 -0.26136593228E+02 -0.96229239942E+02 -0.59844348983E+02  0.14773609540E+03  0.91112126822E+02 0.  0.
         24    2    1    2    0    0 -0.14796355833E+02  0.71742443495E+02 -0.68431192563E+02  0.12875470708E+03  0.80802451289E+02 0.  0.
        -13    1    4    4    0    0 -0.79094898349E+01  0.84740453630E+02 -0.34616884105E+02  0.91879449150E+02  0.00000000000E+00 0.  1.
         14    1    4    4    0    0 -0.68868659977E+01 -0.12998010135E+02 -0.33814308457E+02  0.36875257927E+02  0.00000000000E+00 0. -1.
        -11    1    3    3    0    0  0.23428085192E+01 -0.10480075040E+03 -0.51794732003E+02  0.11692467789E+03  0.00000000000E+00 0.  1.
         11    1    3    3    0    0 -0.28479401747E+02  0.85715104613E+01 -0.80496169803E+01  0.30811417510E+02  0.00000000000E+00 0. -1.
         -2    1    1    2    0  502  0.40932949061E+02  0.24486796447E+02  0.33675912893E+02  0.58388154863E+02  0.00000000000E+00 0.  1.
<scales pt_clust_5="13000.00000" pt_clust_6="13000.00000" pt_clust_7="13000.00000" pt_clust_8="13000.00000" pt_clust_9="47.69813"></scales>
<clustering>
<clus scale="   47.698">  2  9  1 -1</clus>
<clus scale="   80.802">  5  6 -1 -1</clus>
<clus scale="   91.112">  7  8 -1 -1</clus>
<clus scale="  116.432">  2  5  1 -1</clus>
<clus scale="   47.698">  2  5  1 -1</clus>
</clustering>
</event>
<event>
 9    2  0.6190160E-005  0.1254330E+03  0.7546771E-02  0.1240799E+00
         21   -1    0    0  501  502  0.00000000000E+00  0.00000000000E+00  0.90084567990E+02  0.90084567990E+02  0.00000000000E+00 0. -1.
          2   -1    0    0  502    0 -0.00000000000E+00 -0.00000000000E+00 -0.51246636885E+03  0.51246636885E+03  0.00000000000E+00 0. -1.
         23    2    1    2    0    0 -0.72569419981E+02  0.29784357324E+02 -0.41795491600E+03  0.43600560853E+03  0.96234869961E+02 0.  0.
         24    2    1    2    0    0  0.92887549875E+02 -0.10041511736E+02 -0.34971388640E+02  0.12488511870E+03  0.75128995530E+02 0.  0.
        -13    1    4    4    0    0  0.50649192556E+02 -0.10947337973E+02  0.20008609893E+02  0.55547541666E+02  0.00000000000E+00 0.  1.
         14    1    4    4    0    0  0.42238357319E+02  0.90582623743E+00 -0.54979998533E+02  0.69337577033E+02  0.00000000000E+00 0. -1.
        -11    1    3    3    0    0 -0.13913859873E+02 -0.32477611883E+02 -0.17225346679E+03  0.17583983505E+03  0.00000000000E+00 0. -1.
         11    1    3    3    0    0 -0.58655560108E+02  0.62261969206E+02 -0.24570144921E+03  0.26016577347E+03  0.00000000000E+00 0.  1.
          1    1    1    2  501    0 -0.20318129893E+02 -0.19742845588E+02  0.30544503781E+02  0.41660209619E+02  0.00000000000E+00 0. -1.
<scales pt_clust_5="13000.00000" pt_clust_6="13000.00000" pt_clust_7="13000.00000" pt_clust_8="13000.00000" pt_clust_9="28.33031"></scales>
<clustering>
<clus scale="   28.330">  1  9  2 -1</clus>
<clus scale="   75.129">  5  6 -1 -1</clus>
<clus scale="   96.235">  7  8 -1 -1</clus>
<clus scale="  110.076">  1  5  2 -1</clus>
<clus scale="   28.330">  1  5  2 -1</clus>
</clustering>
</event>
<event>
 9    2  0.6190160E-005  0.9389404E+02  0.7546771E-02  0.1301005E+00
         21   -1    0    0  501  502  0.00000000000E+00  0.00000000000E+00  0.13408584703E+03  0.13408584703E+03  0.00000000000E+00 0. -1.
          2   -1    0    0  502    0 -0.00000000000E+00 -0.00000000000E+00 -0.15063563510E+03  0.15063563510E+03  0.00000000000E+00 0. -1.
         23    2    1    2    0    0 -0.11845181723E+02 -0.16157209930E+02 -0.84506332923E+02  0.12725120987E+03  0.93006377991E+02 0.  0.
         24    2    1    2    0    0 -0.17500005682E+01  0.14809987641E+01 -0.56365810240E+01  0.81206464782E+02  0.80978163831E+02 0.  0.
        -11    1    4    4    0    0  0.10105551943E+02  0.37704126012E+02 -0.15234884252E+02  0.41902565513E+02  0.00000000000E+00 0.  1.
         12    1    4    4    0    0 -0.11855552511E+02 -0.36223127247E+02  0.95983032278E+01  0.39303899269E+02  0.00000000000E+00 0. -1.
        -11    1    3    3    0    0  0.29340776541E+02 -0.19106095655E+02 -0.77936841132E+02  0.85440477906E+02  0.00000000000E+00 0.  1.
         11    1    3    3    0    0 -0.41185958264E+02  0.29488857249E+01 -0.65694917912E+01  0.41810731966E+02  0.00000000000E+00 0. -1.
          1    1    1    2  501    0  0.13595182291E+02  0.14676211166E+02  0.73593125868E+02  0.76263807476E+02  0.00000000000E+00 0. -1.
<scales pt_clust_5="13000.00000" pt_clust_6="13000.00000" pt_clust_7="13000.00000" pt_clust_8="13000.00000" pt_clust_9="20.00550"></scales>
<clustering>
<clus scale="   20.006">  1  9  2 -1</clus>
<clus scale="   80.978">  5  6 -1 -1</clus>
<clus scale="   81.996">  1  5  2 -1</clus>
<clus scale="   93.006">  7  8 -1 -1</clus>
<clus scale="   20.006">  1  5  2 -1</clus>
</clustering>
</event>
<event>
 9    2  0.6190160E-005  0.7658207E+03  0.7546771E-02  0.9610852E-01
          2   -1    0    0  502    0 -0.00000000000E+00  0.00000000000E+00  0.18436242450E+04  0.18436242450E+04  0.00000000000E+00 0. -1.
         21   -1    0    0  501  502  0.00000000000E+00 -0.00000000000E+00 -0.52625558498E+03  0.52625558498E+03  0.00000000000E+00 0. -1.
         24    2    1    2    0    0 -0.39498134334E+03  0.34665291995E+03  0.92955513046E+03  0.10709898517E+04  0.82267936585E+02 0.  0.
         23    2    1    2    0    0 -0.20684301642E+03 -0.22088887376E+02  0.55101867257E+03  0.59591751080E+03  0.90687098167E+02 0.  0.
        -11    1    3    3    0    0 -0.63070426528E+02  0.86787299091E+02  0.23840390107E+03  0.26143131800E+03  0.00000000000E+00 0.  1.
         12    1    3    3    0    0 -0.33191091681E+03  0.25986562086E+03  0.69115122939E+03  0.80955853370E+03  0.00000000000E+00 0. -1.
        -11    1    4    4    0    0 -0.18819247461E+03  0.83756850010E+01  0.49323920987E+03  0.52798814168E+03  0.00000000000E+00 0. -1.
         11    1    4    4    0    0 -0.18650541810E+02 -0.30464572377E+02  0.57779462701E+02  0.67929369126E+02  0.00000000000E+00 0.  1.
          1    1    1    2  501    0  0.60182435976E+03 -0.32456403257E+03 -0.16320514306E+03  0.70297246743E+03  0.00000000000E+00 0. -1.
<scales pt_clust_5="13000.00000" pt_clust_6="13000.00000" pt_clust_7="13000.00000" pt_clust_8="13000.00000" pt_clust_9="683.76485"></scales>
<clustering>
<clus scale="   82.268">  5  6 -1 -1</clus>
<clus scale="   90.687">  7  8 -1 -1</clus>
<clus scale="  204.148">  5  7 -1 -1</clus>
<clus scale="  683.765">  2  9  1 -1</clus>
<clus scale="  683.765">  2  5  1 -1</clus>
</clustering>
</event>
<event>
 9    2  0.6190160E-005  0.9755045E+02  0.7546771E-02  0.1291983E+00
          2   -1    0    0  502    0 -0.00000000000E+00  0.00000000000E+00  0.33070691154E+03  0.33070691154E+03  0.00000000000E+00 0. -1.
         21   -1    0    0  501  502  0.00000000000E+00 -0.00000000000E+00 -0.36741060547E+02  0.36741060547E+02  0.00000000000E+00 0.  1.
         23    2    1    2    0    0 -0.90877295798E+00 -0.34247940334E+02  0.18772349602E+03  0.21094733022E+03  0.89916171413E+02 0.  0.
         24    2    1    2    0    0  0.23074700732E+02  0.41385741154E+02  0.77759249888E+02  0.11970983011E+03  0.77709208578E+02 0.  0.
        -13    1    4    4    0    0  0.18492464005E+02  0.19602949995E+02 -0.10323001172E+02  0.28858468890E+02  0.00000000000E+00 0.  1.
         14    1    4    4    0    0  0.45822367263E+01  0.21782791159E+02  0.88082251061E+02  0.90851361223E+02  0.00000000000E+00 0. -1.
        -13    1    3    3    0    0  0.23050904561E+02  0.22356458633E+02  0.89398214700E+02  0.94990506027E+02  0.00000000000E+00 0.  1.
         13    1    3    3    0    0 -0.23959677519E+02 -0.56604398967E+02  0.98325281323E+02  0.11595682419E+03  0.00000000000E+00 0. -1.
          1    1    1    2  501    0 -0.22165927774E+02 -0.71378008194E+01  0.28483105082E+02  0.36790811757E+02  0.00000000000E+00 0. -1.
<scales pt_clust_5="13000.00000" pt_clust_6="13000.00000" pt_clust_7="13000.00000" pt_clust_8="13000.00000" pt_clust_9="23.28683"></scales>
<clustering>
<clus scale="   23.287">  2  9  1 -1</clus>
<clus scale="   77.709">  5  6 -1 -1</clus>
<clus scale="   86.429">  2  5  1 -1</clus>
<clus scale="   89.916">  7  8 -1 -1</clus>
<clus scale="   23.287">  2  5  1 -1</clus>
</clustering>
</event>
<event>
 9    2  0.6190160E-005  0.1784557E+03  0.7546771E-02  0.1170450E+00
         -1   -1    0    0    0  501 -0.00000000000E+00  0.00000000000E+00  0.17263884292E+03  0.17263884292E+03  0.00000000000E+00 0.  1.
         21   -1    0    0  501  502  0.00000000000E+00 -0.00000000000E+00 -0.57859246662E+03  0.57859246662E+03  0.00000000000E+00 0.  1.
         23    2    1    2    0    0 -0.14878348335E+03 -0.23390637787E+02  0.95990598807E+02  0.20076473204E+03  0.91698613485E+02 0.  0.
         24    2    1    2    0    0  0.11814560790E+03  0.17968048880E+02 -0.49446189564E+03  0.51846549787E+03  0.10016322076E+03 0.  0.
        -11    1    4    4    0    0  0.76107095323E+02 -0.22473493707E+02 -0.15610898128E+03  0.17512099221E+03  0.00000000000E+00 0.  1.
         12    1    4    4    0    0  0.42038512580E+02  0.40441542587E+02 -0.33835291436E+03  0.34334450566E+03  0.00000000000E+00 0. -1.
        -13    1    3    3    0    0 -0.10419025178E+03 -0.19657463725E+02  0.11106037512E+03  0.15354618643E+03  0.00000000000E+00 0.  1.
         13    1    3    3    0    0 -0.44593231573E+02 -0.37331740616E+01 -0.15069776313E+02  0.47218545603E+02  0.00000000000E+00 0. -1.
         -2    1    1    2    0  502  0.30637875450E+02  0.54225889071E+01 -0.74823268611E+01  0.32001079635E+02  0.00000000000E+00 0.  1.
<scales pt_clust_5="13000.00000" pt_clust_6="13000.00000" pt_clust_7="13000.00000" pt_clust_8="13000.00000" pt_clust_9="31.11406"></scales>
<clustering>
<clus scale="   31.114">  2  9  1 -1</clus>
<clus scale="   91.699">  7  8 -1 -1</clus>
<clus scale="  100.163">  5  6 -1 -1</clus>
<clus scale="  173.846">  1  7  2 -1</clus>
<clus scale="   31.114">  2  5  1 -1</clus>
</clustering>
</event>
<event>
 9    2  0.6190160E-005  0.2553418E+03  0.7546771E-02  0.1143995E+00
         21   -1    0    0  501  502  0.00000000000E+00  0.00000000000E+00  0.14235623213E+03  0.14235623213E+03  0.00000000000E+00 0. -1.
          2   -1    0    0  502    0 -0.00000000000E+00 -0.00000000000E+00 -0.70386868312E+03  0.70386868312E+03  0.00000000000E+00 0. -1.
         24    2    1    2    0    0 -0.72879217631E+02  0.21475954486E+02 -0.25398761735E+02  0.11309233049E+03  0.79825942737E+02 0.  0.
         23    2    1    2    0    0 -0.98563875775E+02 -0.20649267947E+03 -0.29438035963E+03  0.38376325948E+03  0.90886626670E+02 0.  0.
        -13    1    3    3    0    0  0.11482677241E+02  0.17141942713E+02  0.81733601517E+01  0.22192383665E+02  0.00000000000E+00 0.  1.
         14    1    3    3    0    0 -0.84361894872E+02  0.43340117738E+01 -0.33572121887E+02  0.90899946823E+02  0.00000000000E+00 0. -1.
        -11    1    4    4    0    0 -0.11608304853E+02 -0.21355774370E+02  0.11727738515E+01  0.24335103021E+02  0.00000000000E+00 0.  1.
         11    1    4    4    0    0 -0.86955570923E+02 -0.18513690510E+03 -0.29555313348E+03  0.35942815646E+03  0.00000000000E+00 0. -1.
          1    1    1    2  501    0  0.17144309341E+03  0.18501672499E+03 -0.24173332962E+03  0.34936932528E+03  0.00000000000E+00 0. -1.
<scales pt_clust_5="13000.00000" pt_clust_6="13000.00000" pt_clust_7="13000.00000" pt_clust_8="13000.00000" pt_clust_9="238.61906"></scales>
<clustering>
<clus scale="   79.826">  5  6 -1 -1</clus>
<clus scale="   90.887">  7  8 -1 -1</clus>
<clus scale="  110.203">  2  5  1 -1</clus>
<clus scale="  238.619">  1  9  2 -1</clus>
<clus scale="  238.619">  1  5  2 -1</clus>
</clustering>
</event>
<event>
 9    2  0.6190160E-005  0.2039218E+03  0.7546771E-02  0.1147367E+00
         -3   -1    0    0    0  501 -0.00000000000E+00  0.00000000000E+00  0.69715238242E+02  0.69715238242E+02  0.00000000000E+00 0.  1.
         21   -1    0    0  501  502  0.00000000000E+00 -0.00000000000E+00 -0.70864124898E+03  0.70864124898E+03  0.00000000000E+00 0.  1.
         23    2    1    2    0    0  0.14382071747E+03  0.12416158628E+03 -0.24937560449E+03  0.32631958164E+03  0.90530541626E+02 0.  0.
         24    2    1    2    0    0 -0.12036810919E+03 -0.12411129234E+03 -0.38276659965E+03  0.42762282365E+03  0.80367374619E+02 0.  0.
        -13    1    4    4    0    0 -0.85066990711E+02 -0.11201064968E+03 -0.35266519615E+03  0.37967817837E+03  0.00000000000E+00 0.  1.
         14    1    4    4    0    0 -0.35301118481E+02 -0.12100642656E+02 -0.30101403492E+02  0.47944645279E+02  0.00000000000E+00 0. -1.
        -13    1    3    3    0    0  0.43862998059E+02  0.53171635104E+02 -0.16115290445E+03  0.17527533766E+03  0.00000000000E+00 0.  1.
         13    1    3    3    0    0  0.99957719411E+02  0.70989951177E+02 -0.88222700032E+02  0.15104424398E+03  0.00000000000E+00 0. -1.
         -4    1    1    2    0  502 -0.23452608279E+02 -0.50293944164E-01 -0.67838066020E+01  0.24414081932E+02  0.00000000000E+00 0.  1.
<scales pt_clust_5="13000.00000" pt_clust_6="13000.00000" pt_clust_7="13000.00000" pt_clust_8="13000.00000" pt_clust_9="23.45267"></scales>
<clustering>
<clus scale="   23.453">  2  9  1 -1</clus>
<clus scale="   80.367">  5  6 -1 -1</clus>
<clus scale="   90.531">  7  8 -1 -1</clus>
<clus scale="  199.618">  2  5  1 -1</clus>
<clus scale="   23.453">  2  5  1 -1</clus>
</clustering>
</event>
<event>
 9    2  0.1479893E-004  0.1442989E+03  0.7546771E-02  0.1218307E+00
          2   -1    0    0  502    0 -0.00000000000E+00  0.00000000000E+00  0.11082980592E+04  0.11082980592E+04  0.00000000000E+00 0. -1.
         21   -1    0    0  501  502  0.00000000000E+00 -0.00000000000E+00 -0.92830286139E+02  0.92830286139E+02  0.00000000000E+00 0.  1.
         24    2    1    2    0    0  0.69453762904E+02 -0.46600360100E+02  0.59820587941E+03  0.60984433626E+03  0.84050113393E+02 0.  0.
         23    2    1    2    0    0  0.45844947668E+01  0.18098604695E+02 -0.38749327845E+02  0.12842307123E+03  0.12100577561E+03 0.  0.
        -13    1    3    3    0    0 -0.10126979541E+02 -0.27142267001E+02  0.77589133625E+02  0.82821084449E+02  0.00000000000E+00 0.  1.
         14    1    3    3    0    0  0.79580742445E+02 -0.19458093099E+02  0.52061674579E+03  0.52702325181E+03  0.00000000000E+00 0. -1.
        -11    1    4    4    0    0 -0.39098829922E+02  0.44400929317E+02  0.74330973693E+01  0.59627275319E+02  0.00000000000E+00 0. -1.
         11    1    4    4    0    0  0.43683324689E+02 -0.26302324622E+02 -0.46182425214E+02  0.68795795911E+02  0.00000000000E+00 0.  1.
          1    1    1    2  501    0 -0.74038257671E+02  0.28501755405E+02  0.45601122151E+03  0.46286093786E+03  0.00000000000E+00 0. -1.
<scales pt_clust_5="13000.00000" pt_clust_6="13000.00000" pt_clust_7="13000.00000" pt_clust_8="13000.00000" pt_clust_9="79.33486"></scales>
<clustering>
<clus scale="   79.335">  2  9  1 -1</clus>
<clus scale="   84.050">  5  6 -1 -1</clus>
<clus scale="  115.083">  1  5  2 -1</clus>
<clus scale="  121.006">  7  8 -1 -1</clus>
<clus scale="   79.335">  2  5  1 -1</clus>
</clustering>
</event>
<event>
 9    2  0.6190160E-005  0.1054972E+03  0.7546771E-02  0.1272762E+00
         21   -1    0    0  501  502  0.00000000000E+00  0.00000000000E+00  0.22745149667E+03  0.22745149667E+03  0.00000000000E+00 0. -1.
          2   -1    0    0  502    0 -0.00000000000E+00 -0.00000000000E+00 -0.41935072857E+03  0.41935072857E+03  0.00000000000E+00 0. -1.
         23    2    1    2    0    0 -0.87721538278E+01  0.57996261002E+02 -0.39083522310E+03  0.40515730354E+03  0.89217442363E+02 0.  0.
         24    2    1    2    0    0 -0.19926960370E+02 -0.13562043253E+02  0.12616357452E+03  0.15167901987E+03  0.80673817116E+02 0.  0.
        -11    1    4    4    0    0 -0.46683576642E+01 -0.27705145926E+02  0.47483113872E+01  0.28494124571E+02  0.00000000000E+00 0.  1.
         12    1    4    4    0    0 -0.15258602705E+02  0.14143102673E+02  0.12141526313E+03  0.12318489530E+03  0.00000000000E+00 0. -1.
        -11    1    3    3    0    0  0.14994570836E+02  0.73665895832E+02 -0.23462983072E+03  0.24637909576E+03  0.00000000000E+00 0. -1.
         11    1    3    3    0    0 -0.23766724664E+02 -0.15669634831E+02 -0.15620539238E+03  0.15877820778E+03  0.00000000000E+00 0.  1.
          1    1    1    2  501    0  0.28699114197E+02 -0.44434217749E+02  0.72772416682E+02  0.89965901832E+02  0.00000000000E+00 0. -1.
<scales pt_clust_5="13000.00000" pt_clust_6="13000.00000" pt_clust_7="13000.00000" pt_clust_8="13000.00000" pt_clust_9="52.89649"></scales>
<clustering>
<clus scale="   52.896">  1  9  2 -1</clus>
<clus scale="   80.674">  5  6 -1 -1</clus>
<clus scale="   89.217">  7  8 -1 -1</clus>
<clus scale="   98.378">  1  5  2 -1</clus>
<clus scale="   52.896">  1  5  2 -1</clus>
</clustering>
</event>
<event>
 9    2  0.6190160E-005  0.1706616E+03  0.7546771E-02  0.1178889E+00
          2   -1    0    0  502    0 -0.00000000000E+00  0.00000000000E+00  0.39594383265E+03  0.39594383265E+03  0.00000000000E+00 0. -1.
         21   -1    0    0  501  502  0.00000000000E+00 -0.00000000000E+00 -0.10497789624E+03  0.10497789624E+03  0.00000000000E+00 0. -1.
         24    2    1    2    0    0 -0.14859217146E+03  0.38219246932E+02  0.20621520413E+03  0.26858411456E+03  0.77925425404E+02 0.  0.
         23    2    1    2    0    0  0.12502116133E+03 -0.11947472771E+02  0.17005293661E+02  0.15594885147E+03  0.90872610704E+02 0.  0.
        -11    1    3    3    0    0 -0.24105062357E+02  0.13002290123E+02  0.97889723945E+02  0.10164896278E+03  0.00000000000E+00 0.  1.
         12    1    3    3    0    0 -0.12448710910E+03  0.25216956808E+02  0.10832548019E+03  0.16693515179E+03  0.00000000000E+00 0. -1.
        -11    1    4    4    0    0  0.54019081484E+02  0.39835160011E+02  0.86436499381E+01  0.67672844049E+02  0.00000000000E+00 0. -1.
         11    1    4    4    0    0  0.71002079850E+02 -0.51782632782E+02  0.83616437226E+01  0.88276007423E+02  0.00000000000E+00 0.  1.
          1    1    1    2  501    0  0.23571010128E+02 -0.26271774161E+02  0.67745438619E+02  0.76388762849E+02  0.00000000000E+00 0. -1.
<scales pt_clust_5="13000.00000" pt_clust_6="13000.00000" pt_clust_7="13000.00000" pt_clust_8="13000.00000" pt_clust_9="35.29589"></scales>
<clustering>
<clus scale="   35.296">  2  9  1 -1</clus>
<clus scale="   77.925">  5  6 -1 -1</clus>
<clus scale="   90.873">  7  8 -1 -1</clus>
<clus scale="  164.134">  1  5  2 -1</clus>
<clus scale="   35.296">  2  5  1 -1</clus>
</clustering>
</event>
<event>
 9    2  0.6190160E-005  0.1029668E+03  0.7546771E-02  0.1280414E+00
         -1   -1    0    0    0  501 -0.00000000000E+00  0.00000000000E+00  0.36641481851E+03  0.36641481851E+03  0.00000000000E+00 0.  1.
         21   -1    0    0  501  502  0.00000000000E+00 -0.00000000000E+00 -0.36940391567E+02  0.36940391567E+02  0.00000000000E+00 0. -1.
         23    2    1    2    0    0  0.47356626127E+02  0.58301081345E+02  0.17109022191E+03  0.19761777779E+03  0.64337049527E+02 0.  0.
         24    2    1    2    0    0 -0.37899631158E+02 -0.31624224304E+02  0.83505580558E+02  0.12568808589E+03  0.79923959769E+02 0.  0.
        -13    1    4    4    0    0  0.25268790890E+02 -0.82032274215E+01  0.23481961061E+02  0.35457118163E+02  0.00000000000E+00 0.  1.
         14    1    4    4    0    0 -0.63168422048E+02 -0.23420996883E+02  0.60023619496E+02  0.90230967724E+02  0.00000000000E+00 0. -1.
        -13    1    3    3    0    0 -0.11082055767E+02  0.28463154537E+02  0.34458304364E+02  0.46047126575E+02  0.00000000000E+00 0. -1.
         13    1    3    3    0    0  0.58438681894E+02  0.29837926808E+02  0.13663191754E+03  0.15157065121E+03  0.00000000000E+00 0.  1.
         -2    1    1    2    0  502 -0.94569949693E+01 -0.26676857041E+02  0.74878624482E+02  0.80049346405E+02  0.00000000000E+00 0.  1.
<scales pt_clust_5="13000.00000" pt_clust_6="13000.00000" pt_clust_7="13000.00000" pt_clust_8="13000.00000" pt_clust_9="28.30354"></scales>
<clustering>
<clus scale="   28.304">  2  9  1 -1</clus>
<clus scale="   64.337">  7  8 -1 -1</clus>
<clus scale="   79.924">  5  6 -1 -1</clus>
<clus scale="   91.398">  1  7  2 -1</clus>
<clus scale="   28.304">  2  5  1 -1</clus>
</clustering>
</event>
<event>
 9    2  0.6190160E-005  0.1025404E+03  0.7546771E-02  0.1280384E+00
         21   -1    0    0  501  502  0.00000000000E+00  0.00000000000E+00  0.18954395182E+03  0.18954395182E+03  0.00000000000E+00 0.  1.
         -1   -1    0    0    0  501 -0.00000000000E+00 -0.00000000000E+00 -0.42414744284E+03  0.42414744284E+03  0.00000000000E+00 0.  1.
         23    2    1    2    0    0 -0.38685037202E+02  0.98644299987E+01 -0.28736396841E+03  0.30441523417E+03  0.92177792187E+02 0.  0.
         24    2    1    2    0    0  0.45551861492E+02 -0.40644943783E+02 -0.10642235229E+03  0.14699933970E+03  0.80969779950E+02 0.  0.
        -11    1    4    4    0    0 -0.58624588322E+01 -0.48525894760E+02 -0.58946979971E+02  0.76575957934E+02  0.00000000000E+00 0.  1.
         12    1    4    4    0    0  0.51414320325E+02  0.78809509770E+01 -0.47475372318E+02  0.70423381767E+02  0.00000000000E+00 0. -1.
        -11    1    3    3    0    0 -0.63407312632E+02 -0.14928005403E+02 -0.17545725554E+03  0.18715924012E+03  0.00000000000E+00 0.  1.
         11    1    3    3    0    0  0.24722275430E+02  0.24792435402E+02 -0.11190671286E+03  0.11725599404E+03  0.00000000000E+00 0. -1.
         -2    1    1    2    0  502 -0.68668242908E+01  0.30780513784E+02  0.15918282968E+03  0.16227682080E+03  0.00000000000E+00 0.  1.
<scales pt_clust_5="13000.00000" pt_clust_6="13000.00000" pt_clust_7="13000.00000" pt_clust_8="13000.00000" pt_clust_9="31.53717"></scales>
<clustering>
<clus scale="   31.537">  1  9  2 -1</clus>
<clus scale="   80.970">  5  6 -1 -1</clus>
<clus scale="   92.178">  7  8 -1 -1</clus>
<clus scale="   92.595">  1  5  2 -1</clus>
<clus scale="   31.537">  1  5  2 -1</clus>
</clustering>
</event>
<event>
 9    2  0.6190160E-005  0.9436373E+02  0.7546771E-02  0.1299052E+00
         21   -1    0    0  501  502  0.00000000000E+00  0.00000000000E+00  0.36527630095E+03  0.36527630095E+03  0.00000000000E+00 0.  1.
         -1   -1    0    0    0  501 -0.00000000000E+00 -0.00000000000E+00 -0.82086063510E+02  0.82086063510E+02  0.00000000000E+00 0.  1.
         23    2    1    2    0    0  0.28848907736E+01  0.23849874208E+02 -0.29061697116E+02  0.99532877706E+02  0.92114452779E+02 0.  0.
         24    2    1    2    0    0 -0.29378882217E+02  0.14052057714E+02  0.27459132252E+03  0.28819049175E+03  0.81195973329E+02 0.  0.
        -11    1    4    4    0    0 -0.39119233395E+02 -0.22525986862E+02  0.10273793194E+03  0.11221772215E+03  0.00000000000E+00 0.  1.
         12    1    4    4    0    0  0.97403511777E+01  0.36578044577E+02  0.17185339058E+03  0.17597276959E+03  0.00000000000E+00 0. -1.
        -11    1    3    3    0    0 -0.31606687405E+02 -0.17412170827E+02  0.41524334456E+01  0.36323671141E+02  0.00000000000E+00 0.  1.
         11    1    3    3    0    0  0.34491578179E+02  0.41262045035E+02 -0.33214130562E+02  0.63209206566E+02  0.00000000000E+00 0. -1.
         -2    1    1    2    0  502  0.26493991443E+02 -0.37901931922E+02  0.37660612034E+02  0.59638995002E+02  0.00000000000E+00 0.  1.
<scales pt_clust_5="13000.00000" pt_clust_6="13000.00000" pt_clust_7="13000.00000" pt_clust_8="13000.00000" pt_clust_9="46.24381"></scales>
<clustering>
<clus scale="   46.244">  1  9  2 -1</clus>
<clus scale="   81.196">  5  6 -1 -1</clus>
<clus scale="   83.739">  1  5  2 -1</clus>
<clus scale="   92.114">  7  8 -1 -1</clus>
<clus scale="   46.244">  1  5  2 -1</clus>
</clustering>
</event>
<event>
 9    2  0.6190160E-005  0.9319855E+02  0.7546771E-02  0.1300751E+00
         21   -1    0    0  501  502  0.00000000000E+00  0.00000000000E+00  0.42128947950E+03  0.42128947950E+03  0.00000000000E+00 0. -1.
          4   -1    0    0  502    0 -0.00000000000E+00 -0.00000000000E+00 -0.44338041502E+02  0.44338041502E+02  0.00000000000E+00 0. -1.
         24    2    1    2    0    0  0.11561157765E+02  0.22471033629E+02  0.33381044936E+02  0.90587102886E+02  0.80331322204E+02 0.  0.
         23    2    1    2    0    0 -0.37435261885E+02 -0.31746602730E+01  0.14973003039E+03  0.17853111683E+03  0.89681661325E+02 0.  0.
        -13    1    3    3    0    0 -0.24210445791E+01  0.50312448311E+02  0.31427328153E+02  0.59370707143E+02  0.00000000000E+00 0.  1.
         14    1    3    3    0    0  0.13982202344E+02 -0.27841414682E+02  0.19537167837E+01  0.31216395743E+02  0.00000000000E+00 0. -1.
        -13    1    4    4    0    0 -0.56527706959E+02  0.15996706287E+02  0.56700747439E+02  0.81647112786E+02  0.00000000000E+00 0. -1.
         13    1    4    4    0    0  0.19092445074E+02 -0.19171366560E+02  0.93029282947E+02  0.96884004048E+02  0.00000000000E+00 0.  1.
          3    1    1    2  501    0  0.25874104120E+02 -0.19296373356E+02  0.19384036267E+03  0.19650930128E+03  0.00000000000E+00 0. -1.
<scales pt_clust_5="13000.00000" pt_clust_6="13000.00000" pt_clust_7="13000.00000" pt_clust_8="13000.00000" pt_clust_9="32.27723"></scales>
<clustering>
<clus scale="   32.277">  1  9  2 -1</clus>
<clus scale="   80.331">  5  6 -1 -1</clus>
<clus scale="   84.239">  2  5  1 -1</clus>
<clus scale="   89.682">  7  8 -1 -1</clus>
<clus scale="   32.277">  1  5  2 -1</clus>
</clustering>
</event>
<event>
 9    2  0.6190160E-005  0.1649633E+03  0.7546771E-02  0.1184875E+00
         21   -1    0    0  501  502  0.00000000000E+00  0.00000000000E+00  0.54286190322E+03  0.54286190322E+03  0.00000000000E+00 0. -1.
          2   -1    0    0  502    0 -0.00000000000E+00 -0.00000000000E+00 -0.13812777488E+03  0.13812777488E+03  0.00000000000E+00 0. -1.
         24    2    1    2    0    0 -0.11491150859E+03  0.12418906431E+03 -0.24183117512E+02  0.18904371679E+03  0.80778246970E+02 0.  0.
         23    2    1    2    0    0  0.40008068936E+02 -0.68365720691E+02  0.12628975038E+03  0.17522815003E+03  0.92093898647E+02 0.  0.
        -13    1    3    3    0    0 -0.26149251647E+02  0.85913188927E+02 -0.21504399699E+02  0.92343373339E+02  0.00000000000E+00 0.  1.
         14    1    3    3    0    0 -0.88762256944E+02  0.38275875386E+02 -0.26787178132E+01  0.96700343451E+02  0.00000000000E+00 0. -1.
        -11    1    4    4    0    0  0.58238495450E+02 -0.14583174272E+02  0.88765861462E+02  0.10716235106E+03  0.00000000000E+00 0. -1.
         11    1    4    4    0    0 -0.18230426515E+02 -0.53782546419E+02  0.37523888918E+02  0.68065798973E+02  0.00000000000E+00 0.  1.
          1    1    1    2  501    0  0.74903439656E+02 -0.55823343622E+02  0.30262749547E+03  0.31671781127E+03  0.00000000000E+00 0. -1.
<scales pt_clust_5="13000.00000" pt_clust_6="13000.00000" pt_clust_7="13000.00000" pt_clust_8="13000.00000" pt_clust_9="93.41719"></scales>
<clustering>
<clus scale="   80.778">  5  6 -1 -1</clus>
<clus scale="   92.094">  7  8 -1 -1</clus>
<clus scale="   93.417">  1  9  2 -1</clus>
<clus scale="  158.924">  2  5  1 -1</clus>
<clus scale="   93.417">  1  5  2 -1</clus>
</clustering>
</event>
<event>
 9    2  0.6190160E-005  0.1779978E+03  0.7546771E-02  0.1193773E+00
         21   -1    0    0  501  502  0.00000000000E+00  0.00000000000E+00  0.18079875795E+03  0.18079875795E+03  0.00000000000E+00 0. -1.
         -3   -1    0    0    0  501 -0.00000000000E+00 -0.00000000000E+00 -0.29854856706E+03  0.29854856706E+03  0.00000000000E+00 0.  1.
         23    2    1    2    0    0  0.33950657426E+02 -0.81032448346E+01 -0.87446517216E+02  0.13580373157E+03  0.97864449201E+02 0.  0.
         24    2    1    2    0    0 -0.31630505016E+01  0.16079211589E+03 -0.45100018575E+02  0.18708046296E+03  0.84267304005E+02 0.  0.
        -13    1    4    4    0    0 -0.31463740016E+02  0.26864437285E+02  0.42071185207E+01  0.41585631806E+02  0.00000000000E+00 0.  1.
         14    1    4    4    0    0  0.28300689514E+02  0.13392767860E+03 -0.49307137096E+02  0.14549483115E+03  0.00000000000E+00 0. -1.
        -11    1    3    3    0    0 -0.21959980216E+02 -0.29672894515E+02 -0.10705151853E+02  0.38435942504E+02  0.00000000000E+00 0. -1.
         11    1    3    3    0    0  0.55910637643E+02  0.21569649680E+02 -0.76741365363E+02  0.97367789061E+02  0.00000000000E+00 0.  1.
         -4    1    1    2    0  502 -0.30787606924E+02 -0.15268887105E+03  0.14796726683E+02  0.15646313049E+03  0.00000000000E+00 0.  1.
<scales pt_clust_5="13000.00000" pt_clust_6="13000.00000" pt_clust_7="13000.00000" pt_clust_8="13000.00000" pt_clust_9="156.78724"></scales>
<clustering>
<clus scale="   84.267">  5  6 -1 -1</clus>
<clus scale="   97.864">  7  8 -1 -1</clus>
<clus scale="  103.903">  2  7  1 -1</clus>
<clus scale="  156.787">  1  9  2 -1</clus>
<clus scale="  156.787">  1  5  2 -1</clus>
</clustering>
</event>
<event>
 9    2  0.6190160E-005  0.1591879E+03  0.7546771E-02  0.1191625E+00
         21   -1    0    0  501  502  0.00000000000E+00  0.00000000000E+00  0.78014823383E+02  0.78014823383E+02  0.00000000000E+00 0. -1.
         -1   -1    0    0    0  501 -0.00000000000E+00 -0.00000000000E+00 -0.39645827692E+03  0.39645827692E+03  0.00000000000E+00 0.  1.
         24    2    1    2    0    0  0.11982880215E+03  0.36999972535E+02 -0.15212985603E+03  0.21210063625E+03  0.78200044810E+02 0.  0.
         23    2    1    2    0    0 -0.11974824182E+03 -0.70552284602E+02 -0.15441133283E+03  0.22677150846E+03  0.90913096196E+02 0.  0.
        -13    1    3    3    0    0  0.47290793680E+02  0.22318355927E+02 -0.12099059699E+03  0.13180763535E+03  0.00000000000E+00 0.  1.
         14    1    3    3    0    0  0.72538008467E+02  0.14681616608E+02 -0.31139259046E+02  0.80293000894E+02  0.00000000000E+00 0. -1.
        -13    1    4    4    0    0 -0.79293781327E+02 -0.78131824115E+02 -0.14788309071E+03  0.18509860673E+03  0.00000000000E+00 0.  1.
         13    1    4    4    0    0 -0.40454460493E+02  0.75795395126E+01 -0.65282421218E+01  0.41672901725E+02  0.00000000000E+00 0. -1.
         -2    1    1    2    0  502 -0.80560327692E-01  0.33552312067E+02 -0.11902264669E+02  0.35600955595E+02  0.00000000000E+00 0.  1.
<scales pt_clust_5="13000.00000" pt_clust_6="13000.00000" pt_clust_7="13000.00000" pt_clust_8="13000.00000" pt_clust_9="33.55241"></scales>
<clustering>
<clus scale="   33.552">  1  9  2 -1</clus>
<clus scale="   78.200">  5  6 -1 -1</clus>
<clus scale="   90.913">  7  8 -1 -1</clus>
<clus scale="  152.285">  2  5  1 -1</clus>
<clus scale="   33.552">  1  5  2 -1</clus>
</clustering>
</event>
<event>
 9    2  0.6190160E-005  0.1356429E+03  0.7546771E-02  0.1221984E+00
         21   -1    0    0  501  502  0.00000000000E+00  0.00000000000E+00  0.24649868364E+03  0.24649868364E+03  0.00000000000E+00 0. -1.
          2   -1    0    0  502    0 -0.00000000000E+00 -0.00000000000E+00 -0.24147842899E+03  0.24147842899E+03  0.00000000000E+00 0. -1.
         23    2    1    2    0    0 -0.83152215666E+02 -0.59785013074E+02 -0.19069456677E+03  0.23532015832E+03  0.92318039167E+02 0.  0.
         24    2    1    2    0    0  0.60321885518E+02  0.57247567681E+02  0.97054852321E+02  0.15135812853E+03  0.81077893626E+02 0.  0.
        -13    1    4    4    0    0  0.28571254612E+02  0.23566747665E+01  0.81030705649E+02  0.85952578577E+02  0.00000000000E+00 0.  1.
         14    1    4    4    0    0  0.31750630906E+02  0.54890892915E+02  0.16024146672E+02  0.65405549951E+02  0.00000000000E+00 0. -1.
        -13    1    3    3    0    0 -0.10401514143E+02  0.23630669551E+02 -0.24166726500E+02  0.35364257515E+02  0.00000000000E+00 0.  1.
         13    1    3    3    0    0 -0.72750701523E+02 -0.83415682625E+02 -0.16652784027E+03  0.19995590080E+03  0.00000000000E+00 0. -1.
          1    1    1    2  501    0  0.22830330147E+02  0.25374453932E+01  0.98659969102E+02  0.10129882579E+03  0.00000000000E+00 0. -1.
<scales pt_clust_5="13000.00000" pt_clust_6="13000.00000" pt_clust_7="13000.00000" pt_clust_8="13000.00000" pt_clust_9="22.97091"></scales>
<clustering>
<clus scale="   22.971">  1  9  2 -1</clus>
<clus scale="   81.078">  5  6 -1 -1</clus>
<clus scale="   92.318">  7  8 -1 -1</clus>
<clus scale="  128.258">  1  5  2 -1</clus>
<clus scale="   22.971">  1  5  2 -1</clus>
</clustering>
</event>
<event>
 9    2  0.6190160E-005  0.2111685E+03  0.7546771E-02  0.1141899E+00
         21   -1    0    0  501  502  0.00000000000E+00  0.00000000000E+00  0.28427092293E+02  0.28427092293E+02  0.00000000000E+00 0. -1.
         -1   -1    0    0    0  501 -0.00000000000E+00 -0.00000000000E+00 -0.20894864666E+04  0.20894864666E+04  0.00000000000E+00 0.  1.
         23    2    1    2    0    0 -0.94821695195E+02 -0.16098936188E+03 -0.11365792731E+04  0.11560412937E+04  0.98540855320E+02 0.  0.
         24    2    1    2    0    0  0.62969825131E+02  0.17775479672E+03 -0.88353861716E+03  0.90735780338E+03  0.84236148536E+02 0.  0.
        -13    1    4    4    0    0  0.54243543382E+02  0.13957256327E+03 -0.81299758008E+03  0.82667280567E+03  0.00000000000E+00 0.  1.
         14    1    4    4    0    0  0.87262817484E+01  0.38182233452E+02 -0.70541037081E+02  0.80684997719E+02  0.00000000000E+00 0. -1.
        -13    1    3    3    0    0  0.20728328921E+02 -0.30052859376E+02 -0.18390544226E+03  0.18749413236E+03  0.00000000000E+00 0.  1.
         13    1    3    3    0    0 -0.11555002412E+03 -0.13093650251E+03 -0.95267383082E+03  0.96854716131E+03  0.00000000000E+00 0. -1.
         -2    1    1    2    0  502  0.31851870064E+02 -0.16765434836E+02 -0.40941484090E+02  0.54514461855E+02  0.00000000000E+00 0.  1.
<scales pt_clust_5="13000.00000" pt_clust_6="13000.00000" pt_clust_7="13000.00000" pt_clust_8="13000.00000" pt_clust_9="35.99474"></scales>
<clustering>
<clus scale="   35.995">  1  9  2 -1</clus>
<clus scale="   84.236">  5  6 -1 -1</clus>
<clus scale="   98.541">  7  8 -1 -1</clus>
<clus scale="  204.884">  1  5  2 -1</clus>
<clus scale="   35.995">  1  5  2 -1</clus>
</clustering>
</event>
<event>
 9    2  0.6190160E-005  0.9270507E+02  0.7546771E-02  0.1303210E+00
         21   -1    0    0  501  502  0.00000000000E+00  0.00000000000E+00  0.81088509155E+03  0.81088509155E+03  0.00000000000E+00 0.  1.
         -1   -1    0    0    0  501 -0.00000000000E+00 -0.00000000000E+00 -0.52944772698E+02  0.52944772698E+02  0.00000000000E+00 0.  1.
         23    2    1    2    0    0  0.18757328295E+02 -0.17805666573E+02  0.61004852118E+01  0.94662738894E+02  0.90856695340E+02 0.  0.
         24    2    1    2    0    0  0.78042339873E+01 -0.43593979884E+02  0.34417512835E+03  0.35604977505E+03  0.79709360769E+02 0.  0.
        -11    1    4    4    0    0  0.25048718716E+01 -0.56086719745E+02  0.33499285339E+03  0.33966484413E+03  0.00000000000E+00 0.  1.
         12    1    4    4    0    0  0.52993621158E+01  0.12492739861E+02  0.91822749563E+01  0.16384930926E+02  0.00000000000E+00 0. -1.
        -13    1    3    3    0    0  0.25973477582E+02  0.58535776992E+01  0.42800040925E+02  0.50405648619E+02  0.00000000000E+00 0. -1.
         13    1    3    3    0    0 -0.72161492865E+01 -0.23659244272E+02 -0.36699555713E+02  0.44257090275E+02  0.00000000000E+00 0.  1.
         -2    1    1    2    0  502 -0.26561562283E+02  0.61399646457E+02  0.40766470530E+03  0.41311735030E+03  0.00000000000E+00 0.  1.
<scales pt_clust_5="13000.00000" pt_clust_6="13000.00000" pt_clust_7="13000.00000" pt_clust_8="13000.00000" pt_clust_9="66.89868"></scales>
<clustering>
<clus scale="   66.899">  1  9  2 -1</clus>
<clus scale="   79.709">  5  6 -1 -1</clus>
<clus scale="   81.810">  1  5  2 -1</clus>
<clus scale="   90.857">  7  8 -1 -1</clus>
<clus scale="   66.899">  1  5  2 -1</clus>
</clustering>
</event>
<event>
 9    2  0.6190160E-005  0.9665252E+02  0.7546771E-02  0.1288552E+00
          2   -1    0    0  502    0 -0.00000000000E+00  0.00000000000E+00  0.47760503010E+03  0.47760503010E+03  0.00000000000E+00 0. -1.
         21   -1    0    0  501  502  0.00000000000E+00 -0.00000000000E+00 -0.81322887730E+02  0.81322887730E+02  0.00000000000E+00 0.  1.
         24    2    1    2    0    0  0.64208636587E+01  0.56190323755E+01  0.10101172013E+03  0.13694878991E+03  0.92080412892E+02 0.  0.
         23    2    1    2    0    0  0.32502856165E+01 -0.75744501082E+02  0.25442806055E+01  0.12081520830E+03  0.94032161472E+02 0.  0.
        -11    1    3    3    0    0 -0.31847782691E+02  0.70524010749E+01  0.42630882585E+01  0.32896679844E+02  0.00000000000E+00 0.  1.
         12    1    3    3    0    0  0.38268646350E+02 -0.14333686995E+01  0.96748631875E+02  0.10405211006E+03  0.00000000000E+00 0. -1.
        -13    1    4    4    0    0 -0.21983308188E+02 -0.31576250782E+02 -0.39262579806E+02  0.54971589256E+02  0.00000000000E+00 0.  1.
         13    1    4    4    0    0  0.25233593804E+02 -0.44168250300E+02  0.41806860412E+02  0.65843619040E+02  0.00000000000E+00 0. -1.
          1    1    1    2  501    0 -0.96711492752E+01  0.70125468706E+02  0.29272614163E+03  0.30116391962E+03  0.00000000000E+00 0. -1.
<scales pt_clust_5="13000.00000" pt_clust_6="13000.00000" pt_clust_7="13000.00000" pt_clust_8="13000.00000" pt_clust_9="70.78925"></scales>
<clustering>
<clus scale="   70.789">  2  9  1 -1</clus>
<clus scale="   92.080">  5  6 -1 -1</clus>
<clus scale="   94.032">  7  8 -1 -1</clus>
<clus scale="   94.755">  1  5  2 -1</clus>
<clus scale="   70.789">  2  5  1 -1</clus>
</clustering>
</event>
<event>
 9    2  0.6190160E-005  0.9671522E+02  0.7546771E-02  0.1291498E+00
          2   -1    0    0  502    0 -0.00000000000E+00  0.00000000000E+00  0.49216356428E+03  0.49216356428E+03  0.00000000000E+00 0. -1.
         21   -1    0    0  501  502  0.00000000000E+00 -0.00000000000E+00 -0.21010963881E+03  0.21010963881E+03  0.00000000000E+00 0. -1.
         23    2    1    2    0    0  0.76155414189E+01  0.34024114475E+02  0.47187945030E+03  0.48174177619E+03  0.90494676482E+02 0.  0.
         24    2    1    2    0    0 -0.15202861364E+02 -0.73178993525E+01 -0.14570535625E+03  0.16840294499E+03  0.82733441826E+02 0.  0.
        -13    1    4    4    0    0 -0.32181115962E+02 -0.31297694050E+02 -0.45252821145E+02  0.63741569630E+02  0.00000000000E+00 0.  1.
         14    1    4    4    0    0  0.16978254598E+02  0.23979794697E+02 -0.10045253510E+03  0.10466137536E+03  0.00000000000E+00 0. -1.
        -11    1    3    3    0    0  0.25674901957E+02 -0.24522145155E+02  0.15824012360E+03  0.16217420545E+03  0.00000000000E+00 0.  1.
         11    1    3    3    0    0 -0.18059360538E+02  0.58546259630E+02  0.31363932670E+03  0.31956757074E+03  0.00000000000E+00 0. -1.
          1    1    1    2  501    0  0.75873199447E+01 -0.26706215122E+02 -0.44120168588E+02  0.52128481911E+02  0.00000000000E+00 0. -1.
<scales pt_clust_5="13000.00000" pt_clust_6="13000.00000" pt_clust_7="13000.00000" pt_clust_8="13000.00000" pt_clust_9="27.76309"></scales>
<clustering>
<clus scale="   27.763">  2  9  1 -1</clus>
<clus scale="   82.733">  5  6 -1 -1</clus>
<clus scale="   89.495">  2  5  1 -1</clus>
<clus scale="   90.495">  7  8 -1 -1</clus>
<clus scale="   27.763">  2  5  1 -1</clus>
</clustering>
</event>
<event>
 9    2  0.6190160E-005  0.2544549E+03  0.7546771E-02  0.1110893E+00
         -1   -1    0    0    0  501 -0.00000000000E+00  0.00000000000E+00  0.17414752964E+04  0.17414752964E+04  0.00000000000E+00 0.  1.
         21   -1    0    0  501  502  0.00000000000E+00 -0.00000000000E+00 -0.54272087305E+02  0.54272087305E+02  0.00000000000E+00 0.  1.
         24    2    1    2    0    0  0.20366212503E+03 -0.14112951848E+03  0.12691481162E+04  0.12956129073E+04  0.80498836149E+02 0.  0.
         23    2    1    2    0    0 -0.20039199873E+03  0.10383151866E+03  0.36258955367E+03  0.43321466946E+03  0.72566024982E+02 0.  0.
        -11    1    3    3    0    0  0.17059911495E+03 -0.14244942457E+03  0.11746003974E+04  0.11954421735E+04  0.00000000000E+00 0.  1.
         12    1    3    3    0    0  0.33063010078E+02  0.13199060901E+01  0.94547718795E+02  0.10017073383E+03  0.00000000000E+00 0. -1.
        -13    1    4    4    0    0 -0.21391232443E+02 -0.69999242929E+01  0.64176927280E+02  0.68009277019E+02  0.00000000000E+00 0. -1.
         13    1    4    4    0    0 -0.17900076629E+03  0.11083144295E+03  0.29841262639E+03  0.36520539244E+03  0.00000000000E+00 0.  1.
         -2    1    1    2    0  502 -0.32701263037E+01  0.37297999821E+02  0.55465539232E+02  0.66919806926E+02  0.00000000000E+00 0.  1.
<scales pt_clust_5="13000.00000" pt_clust_6="13000.00000" pt_clust_7="13000.00000" pt_clust_8="13000.00000" pt_clust_9="37.44108"></scales>
<clustering>
<clus scale="   37.441">  2  9  1 -1</clus>
<clus scale="   72.566">  7  8 -1 -1</clus>
<clus scale="   80.499">  5  6 -1 -1</clus>
<clus scale="  252.058">  2  7  1 -1</clus>
<clus scale="   37.441">  2  5  1 -1</clus>
</clustering>
</event>
<event>
 9    2  0.6190160E-005  0.9769883E+02  0.7546771E-02  0.1290669E+00
         21   -1    0    0  501  502  0.00000000000E+00  0.00000000000E+00  0.30381742481E+03  0.30381742481E+03  0.00000000000E+00 0. -1.
          2   -1    0    0  502    0 -0.00000000000E+00 -0.00000000000E+00 -0.54318800666E+02  0.54318800666E+02  0.00000000000E+00 0. -1.
         23    2    1    2    0    0 -0.76753486973E+01  0.17100478925E+01  0.10569186905E+03  0.13924913198E+03  0.90320066050E+02 0.  0.
         24    2    1    2    0    0  0.66069714344E+02  0.12146348036E+02  0.10015066962E+03  0.14467283984E+03  0.79920792274E+02 0.  0.
        -13    1    4    4    0    0  0.22544512592E+02 -0.16064916600E+02  0.86809110136E+02  0.91116179661E+02  0.00000000000E+00 0.  1.
         14    1    4    4    0    0  0.43525201753E+02  0.28211264636E+02  0.13341559483E+02  0.53556660178E+02  0.00000000000E+00 0. -1.
        -13    1    3    3    0    0  0.20225922233E+02  0.27296343277E+02  0.93494831060E+02  0.99475935389E+02  0.00000000000E+00 0. -1.
         13    1    3    3    0    0 -0.27901270931E+02 -0.25586295385E+02  0.12197037991E+02  0.39773196588E+02  0.00000000000E+00 0.  1.
          1    1    1    2  501    0 -0.58394365647E+02 -0.13856395929E+02  0.43656085472E+02  0.74214253659E+02  0.00000000000E+00 0. -1.
<scales pt_clust_5="13000.00000" pt_clust_6="13000.00000" pt_clust_7="13000.00000" pt_clust_8="13000.00000" pt_clust_9="60.01587"></scales>
<clustering>
<clus scale="   60.016">  1  9  2 -1</clus>
<clus scale="   79.921">  5  6 -1 -1</clus>
<clus scale="   88.174">  1  5  2 -1</clus>
<clus scale="   90.320">  7  8 -1 -1</clus>
<clus scale="   60.016">  1  5  2 -1</clus>
</clustering>
</event>
<event>
 9    2  0.6190160E-005  0.1545121E+03  0.7546771E-02  0.1214458E+00
          2   -1    0    0  502    0 -0.00000000000E+00  0.00000000000E+00  0.88850770945E+03  0.88850770945E+03  0.00000000000E+00 0. -1.
         21   -1    0    0  501  502  0.00000000000E+00 -0.00000000000E+00 -0.56984996635E+02  0.56984996635E+02  0.00000000000E+00 0. -1.
         23    2    1    2    0    0  0.86428388697E+01 -0.37888241539E+02  0.63425864055E+02  0.11983775836E+03  0.93957599949E+02 0.  0.
         24    2    1    2    0    0 -0.12637955379E+03  0.80572311973E+02  0.53137020653E+03  0.55784276157E+03  0.79815795303E+02 0.  0.
        -11    1    4    4    0    0 -0.22413872598E+02  0.27392481205E+01  0.19759699518E+02  0.30005514329E+02  0.00000000000E+00 0.  1.
         12    1    4    4    0    0 -0.10396568119E+03  0.77833063852E+02  0.51161050701E+03  0.52783724724E+03  0.00000000000E+00 0. -1.
        -11    1    3    3    0    0  0.30809456414E+02 -0.40170046995E+02  0.78160443688E+02  0.93123091860E+02  0.00000000000E+00 0. -1.
         11    1    3    3    0    0 -0.22166617545E+02  0.22818054558E+01 -0.14734579633E+02  0.26714666505E+02  0.00000000000E+00 0.  1.
          1    1    1    2  501    0  0.11773671492E+03 -0.42684070434E+02  0.23672664224E+03  0.26781218616E+03  0.00000000000E+00 0. -1.
<scales pt_clust_5="13000.00000" pt_clust_6="13000.00000" pt_clust_7="13000.00000" pt_clust_8="13000.00000" pt_clust_9="132.30053"></scales>
<clustering>
<clus scale="   79.816">  5  6 -1 -1</clus>
<clus scale="   93.958">  7  8 -1 -1</clus>
<clus scale="  101.677">  1  7  2 -1</clus>
<clus scale="  132.301">  2  9  1 -1</clus>
<clus scale="  132.301">  2  5  1 -1</clus>
</clustering>
</event>
<event>
 9    2  0.6190160E-005  0.1787960E+03  0.7546771E-02  0.1170371E+00
         21   -1    0    0  501  502  0.00000000000E+00  0.00000000000E+00  0.41678861197E+02  0.41678861197E+02  0.00000000000E+00 0. -1.
          2   -1    0    0  502    0 -0.00000000000E+00 -0.00000000000E+00 -0.12322082349E+04  0.12322082349E+04  0.00000000000E+00 0. -1.
         24    2    1    2    0    0  0.45436288585E+02  0.12840391941E+03 -0.53574956922E+03  0.55851668383E+03  0.79757522248E+02 0.  0.
         23    2    1    2    0    0 -0.79678800699E+02 -0.17806997194E+03 -0.40854225492E+03  0.46185079326E+03  0.91333208566E+02 0.  0.
        -11    1    3    3    0    0 -0.23848694073E+01  0.10259728254E+03 -0.32142111781E+03  0.33740691303E+03  0.00000000000E+00 0.  1.
         12    1    3    3    0    0  0.47821157993E+02  0.25806636869E+02 -0.21432845141E+03  0.22110977080E+03  0.00000000000E+00 0. -1.
        -13    1    4    4    0    0 -0.16378942474E+02 -0.19877008142E+02 -0.15011393779E+03  0.15230745066E+03  0.00000000000E+00 0.  1.
         13    1    4    4    0    0 -0.63299858226E+02 -0.15819296380E+03 -0.25842831713E+03  0.30954334260E+03  0.00000000000E+00 0. -1.
          1    1    1    2  501    0  0.34242512114E+02  0.49666052533E+02 -0.24623754959E+03  0.25351961904E+03  0.00000000000E+00 0. -1.
<scales pt_clust_5="13000.00000" pt_clust_6="13000.00000" pt_clust_7="13000.00000" pt_clust_8="13000.00000" pt_clust_9="60.32636"></scales>
<clustering>
<clus scale="   60.326">  1  9  2 -1</clus>
<clus scale="   79.758">  5  6 -1 -1</clus>
<clus scale="   91.333">  7  8 -1 -1</clus>
<clus scale="  173.169">  2  5  1 -1</clus>
<clus scale="   60.326">  1  5  2 -1</clus>
</clustering>
</event>
<event>
 9    2  0.6190160E-005  0.1248531E+03  0.7546771E-02  0.1239704E+00
         21   -1    0    0  501  502  0.00000000000E+00  0.00000000000E+00  0.62751763221E+03  0.62751763221E+03  0.00000000000E+00 0.  1.
         -3   -1    0    0    0  501 -0.00000000000E+00 -0.00000000000E+00 -0.68509649101E+02  0.68509649101E+02  0.00000000000E+00 0.  1.
         24    2    1    2    0    0  0.26725831542E+02  0.78000817240E+02 -0.93032846231E-01  0.11476426848E+03  0.79827508440E+02 0.  0.
         23    2    1    2    0    0  0.50751628965E+01 -0.79205997630E+02  0.48794985185E+03  0.50331916213E+03  0.94529221477E+02 0.  0.
        -13    1    3    3    0    0  0.51182293628E+02  0.74008073900E+02 -0.32555769308E+00  0.89982932666E+02  0.00000000000E+00 0.  1.
         14    1    3    3    0    0 -0.24456462085E+02  0.39927433406E+01  0.23252484685E+00  0.24781335818E+02  0.00000000000E+00 0. -1.
        -11    1    4    4    0    0 -0.40253365603E+01 -0.10028362108E+03  0.38864788347E+03  0.40139778938E+03  0.00000000000E+00 0.  1.
         11    1    4    4    0    0  0.91004994567E+01  0.21077623450E+02  0.99301968377E+02  0.10192137275E+03  0.00000000000E+00 0. -1.
         -4    1    1    2    0  502 -0.31800994439E+02  0.12051803899E+01  0.71151164105E+02  0.77943850691E+02  0.00000000000E+00 0.  1.
<scales pt_clust_5="13000.00000" pt_clust_6="13000.00000" pt_clust_7="13000.00000" pt_clust_8="13000.00000" pt_clust_9="31.82382"></scales>
<clustering>
<clus scale="   31.824">  1  9  2 -1</clus>
<clus scale="   79.828">  5  6 -1 -1</clus>
<clus scale="   94.529">  7  8 -1 -1</clus>
<clus scale="  114.127">  2  5  1 -1</clus>
<clus scale="   31.824">  1  5  2 -1</clus>
</clustering>
</event>
<event>
 9    2  0.6190160E-005  0.8141375E+02  0.7546771E-02  0.1326847E+00
         -1   -1    0    0    0  501 -0.00000000000E+00  0.00000000000E+00  0.41124981118E+02  0.41124981118E+02  0.00000000000E+00 0.  1.
         21   -1    0    0  501  502  0.00000000000E+00 -0.00000000000E+00 -0.33925401450E+03  0.33925401450E+03  0.00000000000E+00 0.  1.
         23    2    1    2    0    0  0.56677423604E+01  0.10592738422E+02 -0.55471025611E+02  0.98912759303E+02  0.81008455483E+02 0.  0.
         24    2    1    2    0    0  0.74276764009E+00  0.34912910724E+02 -0.10130718556E+03  0.13283274856E+03  0.78497963059E+02 0.  0.
        -13    1    4    4    0    0  0.26775743593E+01  0.58729203416E+02 -0.86938821784E+02  0.10495069067E+03  0.00000000000E+00 0.  1.
         14    1    4    4    0    0 -0.19348067192E+01 -0.23816292691E+02 -0.14368363772E+02  0.27882057888E+02  0.00000000000E+00 0. -1.
        -13    1    3    3    0    0 -0.30996969450E+02  0.26472984797E+02 -0.36353308763E+02  0.54618624087E+02  0.00000000000E+00 0.  1.
         13    1    3    3    0    0  0.36664711810E+02 -0.15880246374E+02 -0.19117716848E+02  0.44294135216E+02  0.00000000000E+00 0. -1.
         -2    1    1    2    0  502 -0.64105100005E+01 -0.45505649147E+02 -0.14135082221E+03  0.14863348776E+03  0.00000000000E+00 0.  1.
<scales pt_clust_5="13000.00000" pt_clust_6="13000.00000" pt_clust_7="13000.00000" pt_clust_8="13000.00000" pt_clust_9="45.95496"></scales>
<clustering>
<clus scale="   45.955">  2  9  1 -1</clus>
<clus scale="   78.498">  5  6 -1 -1</clus>
<clus scale="   78.916">  2  5  1 -1</clus>
<clus scale="   81.008">  7  8 -1 -1</clus>
<clus scale="   45.955">  2  5  1 -1</clus>
</clustering>
</event>
<event>
 9    2  0.6190160E-005  0.1075771E+03  0.7546771E-02  0.1271786E+00
         -3   -1    0    0    0  501 -0.00000000000E+00  0.00000000000E+00  0.59611275200E+02  0.59611275200E+02  0.00000000000E+00 0.  1.
         21   -1    0    0  501  502  0.00000000000E+00 -0.00000000000E+00 -0.48182186115E+03  0.48182186115E+03  0.00000000000E+00 0.  1.
         24    2    1    2    0    0 -0.48028316655E+00 -0.42481462362E+02 -0.33812933535E+02  0.97612575843E+02  0.81117169404E+02 0.  0.
         23    2    1    2    0    0  0.60584880200E+02  0.51731343202E+02 -0.13748573881E+03  0.18564443599E+03  0.95994107428E+02 0.  0.
        -13    1    3    3    0    0 -0.10084412667E+02 -0.45985932937E+02  0.13684592813E+02  0.49027232100E+02  0.00000000000E+00 0.  1.
         14    1    3    3    0    0  0.96041295009E+01  0.35044705742E+01 -0.47497526348E+02  0.48585343743E+02  0.00000000000E+00 0. -1.
        -11    1    4    4    0    0  0.34859803992E+02 -0.57874950718E+01 -0.11240177318E+03  0.11782554752E+03  0.00000000000E+00 0.  1.
         11    1    4    4    0    0  0.25725076208E+02  0.57518838274E+02 -0.25083965626E+02  0.67818888474E+02  0.00000000000E+00 0. -1.
         -4    1    1    2    0  502 -0.60104597033E+02 -0.92498808394E+01 -0.25091191361E+03  0.25817612452E+03  0.00000000000E+00 0.  1.
<scales pt_clust_5="13000.00000" pt_clust_6="13000.00000" pt_clust_7="13000.00000" pt_clust_8="13000.00000" pt_clust_9="60.81219"></scales>
<clustering>
<clus scale="   60.812">  2  9  1 -1</clus>
<clus scale="   81.117">  5  6 -1 -1</clus>
<clus scale="   94.541">  1  5  2 -1</clus>
<clus scale="   95.994">  7  8 -1 -1</clus>
<clus scale="   60.812">  2  5  1 -1</clus>
</clustering>
</event>
<event>
 9    2  0.6190160E-005  0.1013521E+03  0.7546771E-02  0.1282409E+00
          2   -1    0    0  502    0 -0.00000000000E+00  0.00000000000E+00  0.24325588021E+03  0.24325588021E+03  0.00000000000E+00 0. -1.
         21   -1    0    0  501  502  0.00000000000E+00 -0.00000000000E+00 -0.33224199995E+03  0.33224199995E+03  0.00000000000E+00 0. -1.
         23    2    1    2    0    0 -0.88471443942E+01  0.45606105545E+02  0.21848172036E+03  0.24074294125E+03  0.89803746048E+02 0.  0.
         24    2    1    2    0    0 -0.97191091675E+01 -0.58966977010E+02 -0.18343659413E+03  0.20863210738E+03  0.79415405952E+02 0.  0.
        -11    1    4    4    0    0  0.12079743759E+02 -0.29209901830E+02 -0.16384239645E+03  0.16686362530E+03  0.00000000000E+00 0.  1.
         12    1    4    4    0    0 -0.21798852926E+02 -0.29757075180E+02 -0.19594197676E+02  0.41768482074E+02  0.00000000000E+00 0. -1.
        -11    1    3    3    0    0 -0.40367720161E+02 -0.31693007820E+01  0.64306995291E+02  0.75993334851E+02  0.00000000000E+00 0. -1.
         11    1    3    3    0    0  0.31520575767E+02  0.48775406327E+02  0.15417472507E+03  0.16474960640E+03  0.00000000000E+00 0.  1.
          1    1    1    2  501    0  0.18566253562E+02  0.13360871465E+02 -0.12403124597E+03  0.12612283154E+03  0.00000000000E+00 0. -1.
<scales pt_clust_5="13000.00000" pt_clust_6="13000.00000" pt_clust_7="13000.00000" pt_clust_8="13000.00000" pt_clust_9="22.87397"></scales>
<clustering>
<clus scale="   22.874">  2  9  1 -1</clus>
<clus scale="   79.415">  5  6 -1 -1</clus>
<clus scale="   89.804">  7  8 -1 -1</clus>
<clus scale="   92.273">  2  5  1 -1</clus>
<clus scale="   22.874">  2  5  1 -1</clus>
</clustering>
</event>
<event>
 9    2  0.6190160E-005  0.1823507E+03  0.7546771E-02  0.1185122E+00
          2   -1    0    0  502    0 -0.00000000000E+00  0.00000000000E+00  0.15226312851E+03  0.15226312851E+03  0.00000000000E+00 0. -1.
         21   -1    0    0  501  502  0.00000000000E+00 -0.00000000000E+00 -0.41670373420E+03  0.41670373420E+03  0.00000000000E+00 0. -1.
         23    2    1    2    0    0 -0.46762899802E+02 -0.56851474995E+02 -0.16284505239E+02  0.11814360627E+03  0.90960802467E+02 0.  0.
         24    2    1    2    0    0  0.17834148422E+03 -0.35087887401E+02 -0.69051379257E+02  0.21031489610E+03  0.80171177537E+02 0.  0.
        -13    1    4    4    0    0  0.13454180054E+03 -0.21136072098E+02 -0.11525526464E+02  0.13667870133E+03  0.00000000000E+00 0.  1.
         14    1    4    4    0    0  0.43799683679E+02 -0.13951815302E+02 -0.57525852794E+02  0.73636194771E+02  0.00000000000E+00 0. -1.
        -11    1    3    3    0    0  0.36943913718E+01  0.21626714328E+02 -0.11379317585E+02  0.24715423705E+02  0.00000000000E+00 0.  1.
         11    1    3    3    0    0 -0.50457291174E+02 -0.78478189323E+02 -0.49051876542E+01  0.93428182568E+02  0.00000000000E+00 0. -1.
          1    1    1    2  501    0 -0.13157858442E+03  0.91939362396E+02 -0.17910472119E+03  0.24050836033E+03  0.00000000000E+00 0. -1.
<scales pt_clust_5="13000.00000" pt_clust_6="13000.00000" pt_clust_7="13000.00000" pt_clust_8="13000.00000" pt_clust_9="163.78149"></scales>
<clustering>
<clus scale="   80.171">  5  6 -1 -1</clus>
<clus scale="   90.961">  7  8 -1 -1</clus>
<clus scale="  117.016">  1  7  2 -1</clus>
<clus scale="  163.781">  2  9  1 -1</clus>
<clus scale="  163.781">  2  5  1 -1</clus>
</clustering>
</event>
<event>
 9    2  0.6190160E-005  0.8937286E+02  0.7546771E-02  0.1309605E+00
         -3   -1    0    0    0  501 -0.00000000000E+00  0.00000000000E+00  0.60606305092E+02  0.60606305092E+02  0.00000000000E+00 0.  1.
         21   -1    0    0  501  502  0.00000000000E+00 -0.00000000000E+00 -0.30236364384E+03  0.30236364384E+03  0.00000000000E+00 0. -1.
         23    2    1    2    0    0  0.28022836785E+02 -0.21127201585E+02 -0.88319503781E+02  0.13045842689E+03  0.89372413924E+02 0.  0.
         24    2    1    2    0    0  0.32901831498E+02 -0.25358453638E+02 -0.11492107393E+03  0.14674280847E+03  0.81246642504E+02 0.  0.
        -11    1    4    4    0    0 -0.16726825902E+02  0.16229846599E+02 -0.15134847162E+02  0.27789534433E+02  0.00000000000E+00 0.  1.
         12    1    4    4    0    0  0.49628657400E+02 -0.41588300237E+02 -0.99786226767E+02  0.11895327404E+03  0.00000000000E+00 0. -1.
        -13    1    3    3    0    0  0.47241449087E+02  0.17596246866E+02 -0.61754687463E+02  0.79718403391E+02  0.00000000000E+00 0. -1.
         13    1    3    3    0    0 -0.19218612302E+02 -0.38723448452E+02 -0.26564816319E+02  0.50740023501E+02  0.00000000000E+00 0.  1.
         -4    1    1    2    0  502 -0.60924668283E+02  0.46485655223E+02 -0.38516761043E+02  0.85768713574E+02  0.00000000000E+00 0.  1.
<scales pt_clust_5="13000.00000" pt_clust_6="13000.00000" pt_clust_7="13000.00000" pt_clust_8="13000.00000" pt_clust_9="76.63379"></scales>
<clustering>
<clus scale="   76.634">  2  9  1 -1</clus>
<clus scale="   81.247">  5  6 -1 -1</clus>
<clus scale="   81.247">  2  5  1 -1</clus>
<clus scale="   89.372">  7  8 -1 -1</clus>
<clus scale="   76.634">  2  5  1 -1</clus>
</clustering>
</event>
<event>
 9    2  0.6190160E-005  0.9834823E+02  0.7546771E-02  0.1289233E+00
          2   -1    0    0  502    0 -0.00000000000E+00  0.00000000000E+00  0.76881411646E+03  0.76881411646E+03  0.00000000000E+00 0. -1.
         21   -1    0    0  501  502  0.00000000000E+00 -0.00000000000E+00 -0.91716338328E+02  0.91716338328E+02  0.00000000000E+00 0. -1.
         24    2    1    2    0    0 -0.19418818711E+02 -0.22060672636E+02  0.50028324907E+03  0.50767206460E+03  0.81140816364E+02 0.  0.
         23    2    1    2    0    0  0.27860680117E+02  0.49531049995E+02  0.25109050469E+03  0.27321664729E+03  0.91495094932E+02 0.  0.
        -11    1    3    3    0    0 -0.50655324277E+02 -0.18134223598E+02  0.27660874930E+03  0.28179285323E+03  0.00000000000E+00 0.  1.
         12    1    3    3    0    0  0.31236505567E+02 -0.39264490381E+01  0.22367449976E+03  0.22587921136E+03  0.00000000000E+00 0. -1.
        -11    1    4    4    0    0 -0.29503193301E+02  0.37432377377E+02  0.90938563726E+02  0.10267153288E+03  0.00000000000E+00 0.  1.
         11    1    4    4    0    0  0.57363873418E+02  0.12098672618E+02  0.16015194097E+03  0.17054511441E+03  0.00000000000E+00 0. -1.
          1    1    1    2  501    0 -0.84418614066E+01 -0.27470377359E+02 -0.74275975631E+02  0.79641742900E+02  0.00000000000E+00 0. -1.
<scales pt_clust_5="13000.00000" pt_clust_6="13000.00000" pt_clust_7="13000.00000" pt_clust_8="13000.00000" pt_clust_9="28.73824"></scales>
<clustering>
<clus scale="   28.738">  2  9  1 -1</clus>
<clus scale="   81.141">  5  6 -1 -1</clus>
<clus scale="   88.797">  1  5  2 -1</clus>
<clus scale="   91.495">  7  8 -1 -1</clus>
<clus scale="   28.738">  2  5  1 -1</clus>
</clustering>
</event>
<event>
 9    2  0.6190160E-005  0.9209725E+02  0.7546771E-02  0.1297865E+00
         -1   -1    0    0    0  501 -0.00000000000E+00  0.00000000000E+00  0.96016778566E+02  0.96016778566E+02  0.00000000000E+00 0.  1.
         21   -1    0    0  501  502  0.00000000000E+00 -0.00000000000E+00 -0.31080319696E+03  0.31080319696E+03  0.00000000000E+00 0.  1.
         23    2    1    2    0    0 -0.20421405416E+01 -0.19765301730E+02 -0.59943177310E+01  0.86198547026E+02  0.83662537458E+02 0.  0.
         24    2    1    2    0    0  0.87734065873E+02  0.20802081385E+02 -0.36709513734E+02  0.12838043989E+03  0.83689641191E+02 0.  0.
        -13    1    4    4    0    0  0.27768283037E+02  0.37106661203E+02  0.13737002694E+02  0.48339291383E+02  0.00000000000E+00 0.  1.
         14    1    4    4    0    0  0.59965782836E+02 -0.16304579818E+02 -0.50446516429E+02  0.80041148505E+02  0.00000000000E+00 0. -1.
        -13    1    3    3    0    0 -0.34887757062E+02  0.15147375333E+02 -0.35995219966E+01  0.38204124528E+02  0.00000000000E+00 0.  1.
         13    1    3    3    0    0  0.32845616521E+02 -0.34912677063E+02 -0.23947957344E+01  0.47994422498E+02  0.00000000000E+00 0. -1.
         -2    1    1    2    0  502 -0.85691925331E+02 -0.10367796546E+01 -0.17208258693E+03  0.19224098862E+03  0.00000000000E+00 0.  1.
<scales pt_clust_5="13000.00000" pt_clust_6="13000.00000" pt_clust_7="13000.00000" pt_clust_8="13000.00000" pt_clust_9="85.69820"></scales>
<clustering>
<clus scale="   83.663">  7  8 -1 -1</clus>
<clus scale="   83.690">  5  6 -1 -1</clus>
<clus scale="   85.698">  2  9  1 -1</clus>
<clus scale="   92.073">  1  7  2 -1</clus>
<clus scale="   85.698">  2  5  1 -1</clus>
</clustering>
</event>
<event>
 9    2  0.6190160E-005  0.2065991E+03  0.7546771E-02  0.1150315E+00
          2   -1    0    0  502    0 -0.00000000000E+00  0.00000000000E+00  0.20727372261E+03  0.20727372261E+03  0.00000000000E+00 0. -1.
         21   -1    0    0  501  502  0.00000000000E+00 -0.00000000000E+00 -0.77875738406E+03  0.77875738406E+03  0.00000000000E+00 0. -1.
         23    2    1    2    0    0 -0.15240277344E+03 -0.20828886692E+02 -0.31249369104E+03  0.36012113487E+03  0.91512168432E+02 0.  0.
         24    2    1    2    0    0 -0.75913488343E+02  0.16382442666E+03 -0.29358406918E+03  0.35429850018E+03  0.82064127814E+02 0.  0.
        -13    1    4    4    0    0  0.12118655169E+02  0.25401429297E+02 -0.81189959118E+02  0.85929644914E+02  0.00000000000E+00 0.  1.
         14    1    4    4    0    0 -0.88032143512E+02  0.13842299736E+03 -0.21239411006E+03  0.26836885527E+03  0.00000000000E+00 0. -1.
        -13    1    3    3    0    0 -0.85413011824E+02 -0.11865411208E+02 -0.78674836793E+02  0.11673003262E+03  0.00000000000E+00 0.  1.
         13    1    3    3    0    0 -0.66989761617E+02 -0.89634754838E+01 -0.23381885424E+03  0.24339110225E+03  0.00000000000E+00 0. -1.
          1    1    1    2  501    0  0.22831626178E+03 -0.14299553997E+03  0.34594098769E+02  0.27161147162E+03  0.00000000000E+00 0. -1.
<scales pt_clust_5="13000.00000" pt_clust_6="13000.00000" pt_clust_7="13000.00000" pt_clust_8="13000.00000" pt_clust_9="189.60144"></scales>
<clustering>
<clus scale="   82.064">  5  6 -1 -1</clus>
<clus scale="   91.512">  7  8 -1 -1</clus>
<clus scale="  178.983">  1  7  2 -1</clus>
<clus scale="  189.601">  2  9  1 -1</clus>
<clus scale="  189.601">  2  5  1 -1</clus>
</clustering>
</event>
<event>
 9    2  0.6190160E-005  0.1926711E+03  0.7546771E-02  0.1194403E+00
          2   -1    0    0  502    0 -0.00000000000E+00  0.00000000000E+00  0.88915153901E+03  0.88915153901E+03  0.00000000000E+00 0. -1.
         21   -1    0    0  501  502  0.00000000000E+00 -0.00000000000E+00 -0.11412715670E+03  0.11412715670E+03  0.00000000000E+00 0. -1.
         24    2    1    2    0    0 -0.15910345218E+01 -0.19961497775E+02 -0.39010205213E+02  0.89726457710E+02  0.78281851780E+02 0.  0.
         23    2    1    2    0    0 -0.15299071633E+03 -0.50839760038E+02  0.65352538234E+03  0.67973277612E+03  0.94606453779E+02 0.  0.
        -13    1    3    3    0    0 -0.74067520815E+01  0.23799610307E+02  0.70735429873E+01  0.25909774942E+02  0.00000000000E+00 0.  1.
         14    1    3    3    0    0  0.58157175597E+01 -0.43761108082E+02 -0.46083748200E+02  0.63816682768E+02  0.00000000000E+00 0. -1.
        -13    1    4    4    0    0 -0.73746387702E+00 -0.23773146823E+02  0.36060481040E+02  0.43197970505E+02  0.00000000000E+00 0.  1.
         13    1    4    4    0    0 -0.15225325245E+03 -0.27066613215E+02  0.61746490130E+03  0.63653480562E+03  0.00000000000E+00 0. -1.
          1    1    1    2  501    0  0.15458175085E+03  0.70801257813E+02  0.16050920519E+03  0.23381946188E+03  0.00000000000E+00 0. -1.
<scales pt_clust_5="13000.00000" pt_clust_6="13000.00000" pt_clust_7="13000.00000" pt_clust_8="13000.00000" pt_clust_9="167.84448"></scales>
<clustering>
<clus scale="   78.282">  5  6 -1 -1</clus>
<clus scale="   80.803">  1  5  2 -1</clus>
<clus scale="   94.606">  7  8 -1 -1</clus>
<clus scale="  167.844">  2  9  1 -1</clus>
<clus scale="  167.844">  2  5  1 -1</clus>
</clustering>
</event>
<event>
 9    2  0.6190160E-005  0.1078661E+03  0.7546771E-02  0.1269366E+00
         21   -1    0    0  501  502  0.00000000000E+00  0.00000000000E+00  0.17659065322E+03  0.17659065322E+03  0.00000000000E+00 0.  1.
          2   -1    0    0  502    0 -0.00000000000E+00 -0.00000000000E+00 -0.17745349538E+03  0.17745349538E+03  0.00000000000E+00 0. -1.
         24    2    1    2    0    0  0.14688717570E+02 -0.44546427765E+02 -0.30889075025E+02  0.97392464254E+02  0.79567672374E+02 0.  0.
         23    2    1    2    0    0 -0.32171910139E+02  0.95839159453E+02  0.99452294127E+02  0.16858021151E+03  0.91150165218E+02 0.  0.
        -11    1    3    3    0    0  0.16114318201E+00 -0.59049141680E+02  0.14745330738E+01  0.59067769113E+02  0.00000000000E+00 0.  1.
         12    1    3    3    0    0  0.14527574388E+02  0.14502713914E+02 -0.32363608099E+02  0.38324695141E+02  0.00000000000E+00 0. -1.
        -13    1    4    4    0    0 -0.54233925420E+02  0.65906246709E+02  0.99895443599E+02  0.13139273828E+03  0.00000000000E+00 0.  1.
         13    1    4    4    0    0  0.22062015281E+02  0.29932912744E+02 -0.44314947264E+00  0.37187473227E+02  0.00000000000E+00 0. -1.
          1    1    1    2  501    0  0.17483192569E+02 -0.51292731688E+02 -0.69426061257E+02  0.88071472840E+02  0.00000000000E+00 0. -1.
<scales pt_clust_5="13000.00000" pt_clust_6="13000.00000" pt_clust_7="13000.00000" pt_clust_8="13000.00000" pt_clust_9="54.19049"></scales>
<clustering>
<clus scale="   54.190">  1  9  2 -1</clus>
<clus scale="   79.568">  5  6 -1 -1</clus>
<clus scale="   91.150">  7  8 -1 -1</clus>
<clus scale="   98.274">  2  5  1 -1</clus>
<clus scale="   54.190">  1  5  2 -1</clus>
</clustering>
</event>
<event>
 9    2  0.6190160E-005  0.1540200E+03  0.7546771E-02  0.1197446E+00
         21   -1    0    0  501  502  0.00000000000E+00  0.00000000000E+00  0.23195603664E+03  0.23195603664E+03  0.00000000000E+00 0. -1.
          2   -1    0    0  502    0 -0.00000000000E+00 -0.00000000000E+00 -0.51550697075E+03  0.51550697075E+03  0.00000000000E+00 0. -1.
         23    2    1    2    0    0  0.11362583393E+03 -0.63196088010E+02 -0.36185676426E+03  0.39511857954E+03  0.90960422067E+02 0.  0.
         24    2    1    2    0    0 -0.89392497259E+02  0.69201950758E+02 -0.10083891481E+03  0.17146832483E+03  0.80330387312E+02 0.  0.
        -11    1    4    4    0    0 -0.72645457921E+02  0.57920358572E+02 -0.29733060458E+02  0.97550937350E+02  0.00000000000E+00 0.  1.
         12    1    4    4    0    0 -0.16747039339E+02  0.11281592186E+02 -0.71105854356E+02  0.73917387485E+02  0.00000000000E+00 0. -1.
        -11    1    3    3    0    0  0.84995061697E+02 -0.23450821896E+01 -0.14519090426E+03  0.16825593185E+03  0.00000000000E+00 0.  1.
         11    1    3    3    0    0  0.28630772237E+02 -0.60851005821E+02 -0.21666586000E+03  0.22686264769E+03  0.00000000000E+00 0. -1.
          1    1    1    2  501    0 -0.24233336675E+02 -0.60058627480E+01  0.17914474496E+03  0.18087610301E+03  0.00000000000E+00 0. -1.
<scales pt_clust_5="13000.00000" pt_clust_6="13000.00000" pt_clust_7="13000.00000" pt_clust_8="13000.00000" pt_clust_9="24.96648"></scales>
<clustering>
<clus scale="   24.966">  1  9  2 -1</clus>
<clus scale="   80.330">  5  6 -1 -1</clus>
<clus scale="   90.960">  7  8 -1 -1</clus>
<clus scale="  147.991">  1  5  2 -1</clus>
<clus scale="   24.966">  1  5  2 -1</clus>
</clustering>
</event>
<event>
 9    2  0.6190160E-005  0.2493476E+03  0.7546771E-02  0.1114596E+00
          2   -1    0    0  502    0 -0.00000000000E+00  0.00000000000E+00  0.25419799263E+04  0.25419799263E+04  0.00000000000E+00 0. -1.
         21   -1    0    0  501  502  0.00000000000E+00 -0.00000000000E+00 -0.46368889995E+02  0.46368889995E+02  0.00000000000E+00 0. -1.
         24    2    1    2    0    0  0.16040344020E+03 -0.74378176896E+02  0.69388448752E+03  0.72053627493E+03  0.80221347809E+02 0.  0.
         23    2    1    2    0    0 -0.28326355108E+03  0.16248357552E+03  0.11909061906E+04  0.12385600657E+04  0.95573688522E+02 0.  0.
        -13    1    3    3    0    0  0.37301534838E+02 -0.57360542733E+02  0.20563547606E+03  0.21672006224E+03  0.00000000000E+00 0.  1.
         14    1    3    3    0    0  0.12310190536E+03 -0.17017634162E+02  0.48824901146E+03  0.50381621269E+03  0.00000000000E+00 0. -1.
        -11    1    4    4    0    0 -0.69793462328E+02  0.34490911434E+01  0.33513209882E+03  0.34233981257E+03  0.00000000000E+00 0.  1.
         11    1    4    4    0    0 -0.21347008875E+03  0.15903448438E+03  0.85577409177E+03  0.89622025315E+03  0.00000000000E+00 0. -1.
          1    1    1    2  501    0  0.12286011088E+03 -0.88105398628E+02  0.61082035819E+03  0.62925247564E+03  0.00000000000E+00 0. -1.
<scales pt_clust_5="13000.00000" pt_clust_6="13000.00000" pt_clust_7="13000.00000" pt_clust_8="13000.00000" pt_clust_9="151.18595"></scales>
<clustering>
<clus scale="   80.221">  5  6 -1 -1</clus>
<clus scale="   95.574">  7  8 -1 -1</clus>
<clus scale="  151.186">  2  9  1 -1</clus>
<clus scale="  243.876">  1  5  2 -1</clus>
<clus scale="  151.186">  2  5  1 -1</clus>
</clustering>
</event>
<event>
 9    2  0.6190160E-005  0.1462500E+03  0.7546771E-02  0.1207315E+00
         21   -1    0    0  501  502  0.00000000000E+00  0.00000000000E+00  0.22050796087E+02  0.22050796087E+02  0.00000000000E+00 0. -1.
          2   -1    0    0  502    0 -0.00000000000E+00 -0.00000000000E+00 -0.16112499591E+04  0.16112499591E+04  0.00000000000E+00 0. -1.
         24    2    1    2    0    0  0.51595590163E+02 -0.90693159733E+02 -0.92770986047E+03  0.93713457390E+03  0.81781845507E+02 0.  0.
         23    2    1    2    0    0 -0.37124698507E+02  0.13640779907E+03 -0.51800816675E+03  0.54488475055E+03  0.92636923947E+02 0.  0.
        -11    1    3    3    0    0  0.54044199745E+02 -0.94856601066E+02 -0.63025209424E+03  0.63963759472E+03  0.00000000000E+00 0.  1.
         12    1    3    3    0    0 -0.24486095818E+01  0.41634413329E+01 -0.29745776623E+03  0.29749697918E+03  0.00000000000E+00 0. -1.
        -11    1    4    4    0    0  0.56506474100E+01  0.64275610946E+02 -0.36257445963E+03  0.36827099092E+03  0.00000000000E+00 0.  1.
         11    1    4    4    0    0 -0.42775345917E+02  0.72132188122E+02 -0.15543370712E+03  0.17661375963E+03  0.00000000000E+00 0. -1.
          1    1    1    2  501    0 -0.14470891656E+02 -0.45714639336E+02 -0.14348113583E+03  0.15128143076E+03  0.00000000000E+00 0. -1.
<scales pt_clust_5="13000.00000" pt_clust_6="13000.00000" pt_clust_7="13000.00000" pt_clust_8="13000.00000" pt_clust_9="47.95034"></scales>
<clustering>
<clus scale="   47.950">  1  9  2 -1</clus>
<clus scale="   81.782">  5  6 -1 -1</clus>
<clus scale="   92.637">  7  8 -1 -1</clus>
<clus scale="  139.627">  2  5  1 -1</clus>
<clus scale="   47.950">  1  5  2 -1</clus>
</clustering>
</event>
<event>
 9    2  0.6190160E-005  0.9725645E+02  0.7546771E-02  0.1293059E+00
         21   -1    0    0  501  502  0.00000000000E+00  0.00000000000E+00  0.95336094926E+02  0.95336094926E+02  0.00000000000E+00 0.  1.
         -3   -1    0    0    0  501 -0.00000000000E+00 -0.00000000000E+00 -0.43686823482E+03  0.43686823482E+03  0.00000000000E+00 0.  1.
         23    2    1    2    0    0  0.40111931549E+02 -0.63063753884E+01 -0.39380488661E+03  0.40593525898E+03  0.89735212385E+02 0.  0.
         24    2    1    2    0    0 -0.12701423545E+02  0.62687730371E+01  0.14255598159E+02  0.79400734464E+02  0.76815564042E+02 0.  0.
        -13    1    4    4    0    0  0.25284619996E+02  0.12593580842E+02 -0.14107165529E+02  0.31574078071E+02  0.00000000000E+00 0.  1.
         14    1    4    4    0    0 -0.37986043541E+02 -0.63248078054E+01  0.28362763688E+02  0.47826656393E+02  0.00000000000E+00 0. -1.
        -13    1    3    3    0    0  0.59883029829E+02 -0.22113307735E+02 -0.34602757445E+03  0.35186653425E+03  0.00000000000E+00 0.  1.
         13    1    3    3    0    0 -0.19771098280E+02  0.15806932346E+02 -0.47777312160E+02  0.54068724736E+02  0.00000000000E+00 0. -1.
         -4    1    1    2    0  502 -0.27410508004E+02  0.37602351309E-01  0.38017148559E+02  0.46868336300E+02  0.00000000000E+00 0.  1.
<scales pt_clust_5="13000.00000" pt_clust_6="13000.00000" pt_clust_7="13000.00000" pt_clust_8="13000.00000" pt_clust_9="27.41053"></scales>
<clustering>
<clus scale="   27.411">  1  9  2 -1</clus>
<clus scale="   76.816">  5  6 -1 -1</clus>
<clus scale="   85.481">  1  5  2 -1</clus>
<clus scale="   89.735">  7  8 -1 -1</clus>
<clus scale="   27.411">  1  5  2 -1</clus>
</clustering>
</event>
<event>
 9    2  0.6190160E-005  0.1575315E+03  0.7546771E-02  0.1203121E+00
         21   -1    0    0  501  502  0.00000000000E+00  0.00000000000E+00  0.83662706083E+02  0.83662706083E+02  0.00000000000E+00 0.  1.
         -3   -1    0    0    0  501 -0.00000000000E+00 -0.00000000000E+00 -0.65242566810E+03  0.65242566810E+03  0.00000000000E+00 0.  1.
         24    2    1    2    0    0 -0.40920025562E+02  0.81868487401E+02 -0.26189434778E+03  0.28903495690E+03  0.81090438308E+02 0.  0.
         23    2    1    2    0    0 -0.67994312385E+02  0.67455779100E+02 -0.91231329393E+02  0.16304724097E+03  0.95329631663E+02 0.  0.
        -13    1    3    3    0    0 -0.51618175637E+02  0.14571664606E+02 -0.12848225043E+03  0.13922807957E+03  0.00000000000E+00 0.  1.
         14    1    3    3    0    0  0.10698150075E+02  0.67296822794E+02 -0.13341209736E+03  0.14980687733E+03  0.00000000000E+00 0. -1.
        -11    1    4    4    0    0 -0.85918341108E+02  0.28791093971E+02 -0.48844827948E+02  0.10294030138E+03  0.00000000000E+00 0. -1.
         11    1    4    4    0    0  0.17924028722E+02  0.38664685129E+02 -0.42386501445E+02  0.60106939587E+02  0.00000000000E+00 0.  1.
         -4    1    1    2    0  502  0.10891433795E+03 -0.14932426650E+03 -0.21563728484E+03  0.28400617633E+03  0.00000000000E+00 0.  1.
<scales pt_clust_5="13000.00000" pt_clust_6="13000.00000" pt_clust_7="13000.00000" pt_clust_8="13000.00000" pt_clust_9="125.41309"></scales>
<clustering>
<clus scale="   81.090">  5  6 -1 -1</clus>
<clus scale="   95.330">  7  8 -1 -1</clus>
<clus scale="  122.281">  2  5  1 -1</clus>
<clus scale="  125.413">  1  9  2 -1</clus>
<clus scale="  125.413">  1  5  2 -1</clus>
</clustering>
</event>
<event>
 9    2  0.6190160E-005  0.9331027E+02  0.7546771E-02  0.1302053E+00
         -3   -1    0    0    0  501 -0.00000000000E+00  0.00000000000E+00  0.47218079076E+03  0.47218079076E+03  0.00000000000E+00 0.  1.
         21   -1    0    0  501  502  0.00000000000E+00 -0.00000000000E+00 -0.26277158404E+02  0.26277158404E+02  0.00000000000E+00 0. -1.
         23    2    1    2    0    0  0.29213146796E+02 -0.30433513741E+01  0.20515458124E+03  0.22671473334E+03  0.91915712362E+02 0.  0.
         24    2    1    2    0    0  0.74662385630E+00 -0.38498922804E+01  0.10349343050E+03  0.13108686134E+03  0.80358546158E+02 0.  0.
        -13    1    4    4    0    0  0.22558568528E+02  0.27828456600E+02  0.75337709463E+02  0.83421115300E+02  0.00000000000E+00 0.  1.
         14    1    4    4    0    0 -0.21811944671E+02 -0.31678348880E+02  0.28155721037E+02  0.47665746037E+02  0.00000000000E+00 0. -1.
        -13    1    3    3    0    0  0.35984974827E+02 -0.35918267038E+02  0.64601690063E+02  0.82209602111E+02  0.00000000000E+00 0.  1.
         13    1    3    3    0    0 -0.67718280317E+01  0.32874915664E+02  0.14055289118E+03  0.14450513123E+03  0.00000000000E+00 0. -1.
         -4    1    1    2    0  502 -0.29959770652E+02  0.68932436545E+01  0.13725562062E+03  0.14065635449E+03  0.00000000000E+00 0.  1.
<scales pt_clust_5="13000.00000" pt_clust_6="13000.00000" pt_clust_7="13000.00000" pt_clust_8="13000.00000" pt_clust_9="30.74257"></scales>
<clustering>
<clus scale="   30.743">  2  9  1 -1</clus>
<clus scale="   80.359">  5  6 -1 -1</clus>
<clus scale="   81.950">  2  5  1 -1</clus>
<clus scale="   91.916">  7  8 -1 -1</clus>
<clus scale="   30.743">  2  5  1 -1</clus>
</clustering>
</event>
<event>
 9    2  0.6190160E-005  0.1765500E+03  0.7546771E-02  0.1183533E+00
         -1   -1    0    0    0  501 -0.00000000000E+00  0.00000000000E+00  0.41407709206E+03  0.41407709206E+03  0.00000000000E+00 0.  1.
         21   -1    0    0  501  502  0.00000000000E+00 -0.00000000000E+00 -0.17531672414E+03  0.17531672414E+03  0.00000000000E+00 0.  1.
         23    2    1    2    0    0 -0.83329454136E+02 -0.52290309553E+02  0.13078011480E+03  0.18694565600E+03  0.90372371169E+02 0.  0.
         24    2    1    2    0    0 -0.13154922131E+03 -0.27291411060E+01 -0.34809379185E+01  0.15420718409E+03  0.80343592508E+02 0.  0.
        -13    1    4    4    0    0 -0.68314173880E+02 -0.28984132240E+02  0.27388116143E+02  0.79101296958E+02  0.00000000000E+00 0.  1.
         14    1    4    4    0    0 -0.63235047427E+02  0.26254991134E+02 -0.30869054061E+02  0.75105887127E+02  0.00000000000E+00 0. -1.
        -11    1    3    3    0    0 -0.42010208901E+02  0.20104982505E+02  0.26998372681E+02  0.53832890512E+02  0.00000000000E+00 0.  1.
         11    1    3    3    0    0 -0.41319245235E+02 -0.72395292057E+02  0.10378174212E+03  0.13311276549E+03  0.00000000000E+00 0. -1.
         -2    1    1    2    0  502  0.21487867544E+03  0.55019450659E+02  0.11146119104E+03  0.24824097611E+03  0.00000000000E+00 0.  1.
<scales pt_clust_5="13000.00000" pt_clust_6="13000.00000" pt_clust_7="13000.00000" pt_clust_8="13000.00000" pt_clust_9="157.20953"></scales>
<clustering>
<clus scale="   80.344">  5  6 -1 -1</clus>
<clus scale="   90.372">  7  8 -1 -1</clus>
<clus scale="  133.586">  1  7  2 -1</clus>
<clus scale="  157.210">  2  9  1 -1</clus>
<clus scale="  157.210">  2  5  1 -1</clus>
</clustering>
</event>
<event>
 9    2  0.6190160E-005  0.9287571E+02  0.7546771E-02  0.1301527E+00
          4   -1    0    0  502    0 -0.00000000000E+00  0.00000000000E+00  0.16394016281E+03  0.16394016281E+03  0.00000000000E+00 0. -1.
         21   -1    0    0  501  502  0.00000000000E+00 -0.00000000000E+00 -0.14507005364E+03  0.14507005364E+03  0.00000000000E+00 0.  1.
         23    2    1    2    0    0  0.28228458123E+02  0.33006323773E+01  0.87535201649E+02  0.12781173332E+03  0.88688711940E+02 0.  0.
         24    2    1    2    0    0 -0.60525821380E+01 -0.58534364815E+02 -0.71063100723E+02  0.12163099939E+03  0.79254211966E+02 0.  0.
        -11    1    4    4    0    0 -0.16111088884E+02 -0.48705072452E+02 -0.86612405379E+02  0.10066508845E+03  0.00000000000E+00 0.  1.
         12    1    4    4    0    0  0.10058506746E+02 -0.98292923631E+01  0.15549304656E+02  0.20965910942E+02  0.00000000000E+00 0. -1.
        -13    1    3    3    0    0  0.39689649757E+02 -0.30603704956E+02  0.25595908995E+02  0.56276154917E+02  0.00000000000E+00 0. -1.
         13    1    3    3    0    0 -0.11461191634E+02  0.33904337334E+02  0.61939292654E+02  0.71535578408E+02  0.00000000000E+00 0.  1.
          3    1    1    2  501    0 -0.22175875985E+02  0.55233732438E+02  0.23980082517E+01  0.59567483733E+02  0.00000000000E+00 0. -1.
<scales pt_clust_5="13000.00000" pt_clust_6="13000.00000" pt_clust_7="13000.00000" pt_clust_8="13000.00000" pt_clust_9="59.51920"></scales>
<clustering>
<clus scale="   59.519">  2  9  1 -1</clus>
<clus scale="   79.254">  5  6 -1 -1</clus>
<clus scale="   83.913">  2  5  1 -1</clus>
<clus scale="   88.689">  7  8 -1 -1</clus>
<clus scale="   59.519">  2  5  1 -1</clus>
</clustering>
</event>
<event>
 9    2  0.6190160E-005  0.1118139E+03  0.7546771E-02  0.1260839E+00
         21   -1    0    0  501  502  0.00000000000E+00  0.00000000000E+00  0.34645406971E+03  0.34645406971E+03  0.00000000000E+00 0. -1.
         -1   -1    0    0    0  501 -0.00000000000E+00 -0.00000000000E+00 -0.84048616235E+02  0.84048616235E+02  0.00000000000E+00 0.  1.
         24    2    1    2    0    0 -0.53876337761E+02 -0.36947326092E+02 -0.25439474058E+02  0.10708161026E+03  0.80941582259E+02 0.  0.
         23    2    1    2    0    0  0.41001550418E+02  0.57158155976E+02  0.18366344762E+03  0.21651916481E+03  0.90554430073E+02 0.  0.
        -13    1    3    3    0    0 -0.39388991755E+02 -0.31036797233E+02 -0.54509667584E+02  0.74068072164E+02  0.00000000000E+00 0.  1.
         14    1    3    3    0    0 -0.14487346006E+02 -0.59105288591E+01  0.29070193526E+02  0.33013538091E+02  0.00000000000E+00 0. -1.
        -13    1    4    4    0    0  0.54526696735E+02  0.28949579262E+02  0.17264691515E+03  0.18335265503E+03  0.00000000000E+00 0. -1.
         13    1    4    4    0    0 -0.13525146317E+02  0.28208576714E+02  0.11016532472E+02  0.33166509778E+02  0.00000000000E+00 0.  1.
         -2    1    1    2    0  502  0.12874787342E+02 -0.20210829884E+02  0.10418147991E+03  0.10690191088E+03  0.00000000000E+00 0.  1.
<scales pt_clust_5="13000.00000" pt_clust_6="13000.00000" pt_clust_7="13000.00000" pt_clust_8="13000.00000" pt_clust_9="23.96326"></scales>
<clustering>
<clus scale="   23.963">  1  9  2 -1</clus>
<clus scale="   80.942">  5  6 -1 -1</clus>
<clus scale="   90.554">  7  8 -1 -1</clus>
<clus scale="  104.181">  2  5  1 -1</clus>
<clus scale="   23.963">  1  5  2 -1</clus>
</clustering>
</event>
<event>
 9    2  0.6190160E-005  0.1210290E+03  0.7546771E-02  0.1245473E+00
         21   -1    0    0  501  502  0.00000000000E+00  0.00000000000E+00  0.13015958403E+03  0.13015958403E+03  0.00000000000E+00 0.  1.
         -1   -1    0    0    0  501 -0.00000000000E+00 -0.00000000000E+00 -0.24416852411E+03  0.24416852411E+03  0.00000000000E+00 0.  1.
         23    2    1    2    0    0  0.35682420007E+02 -0.10928410055E+03 -0.27767209725E+02  0.15086979339E+03  0.93671910898E+02 0.  0.
         24    2    1    2    0    0 -0.21806805260E+02  0.35952442917E+02  0.20205417129E+02  0.93454238268E+02  0.80977286084E+02 0.  0.
        -13    1    4    4    0    0 -0.15749789621E+02  0.61343857519E+02  0.56962520187E+01  0.63589087236E+02  0.00000000000E+00 0.  1.
         14    1    4    4    0    0 -0.60570156391E+01 -0.25391414603E+02  0.14509165110E+02  0.29865151032E+02  0.00000000000E+00 0. -1.
        -13    1    3    3    0    0  0.50862684982E+02 -0.95099154133E+02 -0.51344133937E+02  0.11944489077E+03  0.00000000000E+00 0.  1.
         13    1    3    3    0    0 -0.15180264975E+02 -0.14184946413E+02  0.23576924213E+02  0.31424902622E+02  0.00000000000E+00 0. -1.
         -2    1    1    2    0  502 -0.13875614747E+02  0.73331657629E+02 -0.10644714749E+03  0.13000407649E+03  0.00000000000E+00 0.  1.
<scales pt_clust_5="13000.00000" pt_clust_6="13000.00000" pt_clust_7="13000.00000" pt_clust_8="13000.00000" pt_clust_9="74.63290"></scales>
<clustering>
<clus scale="   74.633">  1  9  2 -1</clus>
<clus scale="   80.977">  5  6 -1 -1</clus>
<clus scale="   93.672">  7  8 -1 -1</clus>
<clus scale="  111.494">  1  5  2 -1</clus>
<clus scale="   74.633">  1  5  2 -1</clus>
</clustering>
</event>
<event>
 9    2  0.6190160E-005  0.1198386E+03  0.7546771E-02  0.1247139E+00
          2   -1    0    0  502    0 -0.00000000000E+00  0.00000000000E+00  0.26716973485E+03  0.26716973485E+03  0.00000000000E+00 0. -1.
         21   -1    0    0  501  502  0.00000000000E+00 -0.00000000000E+00 -0.84939590538E+02  0.84939590538E+02  0.00000000000E+00 0. -1.
         24    2    1    2    0    0 -0.58178432611E+02  0.50281040239E+02  0.71436637184E+02  0.13160637056E+03  0.79398555475E+02 0.  0.
         23    2    1    2    0    0  0.90773982203E+02 -0.58911474319E+00  0.58706765627E+02  0.14147899673E+03  0.91266419265E+02 0.  0.
        -13    1    3    3    0    0  0.16187925956E+02  0.20251047593E+02  0.28580004460E+01  0.26082983762E+02  0.00000000000E+00 0.  1.
         14    1    3    3    0    0 -0.74366358567E+02  0.30029992647E+02  0.68578636738E+02  0.10552338680E+03  0.00000000000E+00 0. -1.
        -11    1    4    4    0    0  0.46119302704E+02  0.43340779525E+02  0.44157851050E+02  0.77170778544E+02  0.00000000000E+00 0.  1.
         11    1    4    4    0    0  0.44654679499E+02 -0.43929894268E+02  0.14548914578E+02  0.64308218191E+02  0.00000000000E+00 0. -1.
          1    1    1    2  501    0 -0.32595549592E+02 -0.49691925496E+02  0.52086741504E+02  0.79023958096E+02  0.00000000000E+00 0. -1.
<scales pt_clust_5="13000.00000" pt_clust_6="13000.00000" pt_clust_7="13000.00000" pt_clust_8="13000.00000" pt_clust_9="59.42862"></scales>
<clustering>
<clus scale="   59.429">  2  9  1 -1</clus>
<clus scale="   79.399">  5  6 -1 -1</clus>
<clus scale="   91.266">  7  8 -1 -1</clus>
<clus scale="  111.067">  1  5  2 -1</clus>
<clus scale="   59.429">  2  5  1 -1</clus>
</clustering>
</event>
<event>
 9    2  0.6190160E-005  0.9670038E+02  0.7546771E-02  0.1293613E+00
         21   -1    0    0  501  502  0.00000000000E+00  0.00000000000E+00  0.10930594054E+03  0.10930594054E+03  0.00000000000E+00 0.  1.
          2   -1    0    0  502    0 -0.00000000000E+00 -0.00000000000E+00 -0.21080571382E+03  0.21080571382E+03  0.00000000000E+00 0. -1.
         23    2    1    2    0    0 -0.28095237459E+02  0.27852045115E+01 -0.14429832618E+03  0.17324352232E+03  0.91619928807E+02 0.  0.
         24    2    1    2    0    0  0.33562695139E+02 -0.44889164196E+02  0.27413090329E+02  0.10170898045E+03  0.80322771463E+02 0.  0.
        -11    1    4    4    0    0  0.35934766633E+02 -0.64021329204E+02  0.71885039893E+01  0.73767964833E+02  0.00000000000E+00 0.  1.
         12    1    4    4    0    0 -0.23720714943E+01  0.19132165008E+02  0.20224586339E+02  0.27941015616E+02  0.00000000000E+00 0. -1.
        -13    1    3    3    0    0  0.26996097446E+02  0.28580427343E+01 -0.11520705673E+02  0.29490411065E+02  0.00000000000E+00 0.  1.
         13    1    3    3    0    0 -0.55091334905E+02 -0.72838222789E-01 -0.13277762051E+03  0.14375311125E+03  0.00000000000E+00 0. -1.
          1    1    1    2  501    0 -0.54674576801E+01  0.42103959684E+02  0.15385462570E+02  0.45159151598E+02  0.00000000000E+00 0. -1.
<scales pt_clust_5="13000.00000" pt_clust_6="13000.00000" pt_clust_7="13000.00000" pt_clust_8="13000.00000" pt_clust_9="42.45747"></scales>
<clustering>
<clus scale="   42.457">  1  9  2 -1</clus>
<clus scale="   80.323">  5  6 -1 -1</clus>
<clus scale="   86.073">  1  5  2 -1</clus>
<clus scale="   91.620">  7  8 -1 -1</clus>
<clus scale="   42.457">  1  5  2 -1</clus>
</clustering>
</event>
<event>
 9    2  0.6190160E-005  0.1324314E+03  0.7546771E-02  0.1224687E+00
          2   -1    0    0  502    0 -0.00000000000E+00  0.00000000000E+00  0.38322687627E+03  0.38322687627E+03  0.00000000000E+00 0. -1.
         21   -1    0    0  501  502  0.00000000000E+00 -0.00000000000E+00 -0.15768765533E+03  0.15768765533E+03  0.00000000000E+00 0.  1.
         23    2    1    2    0    0 -0.56668418305E+02  0.87097941851E+02  0.31629845419E+03  0.34358277153E+03  0.84894332325E+02 0.  0.
         24    2    1    2    0    0  0.24164008716E+02 -0.78659748183E+02 -0.10908127511E+03  0.15907686532E+03  0.81458389370E+02 0.  0.
        -11    1    4    4    0    0  0.50659582340E+02 -0.34074348935E+02 -0.76307055878E+02  0.97725233768E+02  0.00000000000E+00 0.  1.
         12    1    4    4    0    0 -0.26495573625E+02 -0.44585399248E+02 -0.32774219234E+02  0.61351631553E+02  0.00000000000E+00 0. -1.
        -11    1    3    3    0    0 -0.68041561363E+02  0.28254359210E+02  0.19005568117E+03  0.20383602437E+03  0.00000000000E+00 0. -1.
         11    1    3    3    0    0  0.11373143059E+02  0.58843582641E+02  0.12624277302E+03  0.13974674716E+03  0.00000000000E+00 0.  1.
          1    1    1    2  501    0  0.32504409589E+02 -0.84381936676E+01  0.18322041861E+02  0.38254894760E+02  0.00000000000E+00 0. -1.
<scales pt_clust_5="13000.00000" pt_clust_6="13000.00000" pt_clust_7="13000.00000" pt_clust_8="13000.00000" pt_clust_9="33.58185"></scales>
<clustering>
<clus scale="   33.582">  2  9  1 -1</clus>
<clus scale="   81.458">  5  6 -1 -1</clus>
<clus scale="   84.894">  7  8 -1 -1</clus>
<clus scale="  130.255">  2  5  1 -1</clus>
<clus scale="   33.582">  2  5  1 -1</clus>
</clustering>
</event>
<event>
 9    2  0.6190160E-005  0.9457799E+02  0.7546771E-02  0.1298126E+00
         -1   -1    0    0    0  501 -0.00000000000E+00  0.00000000000E+00  0.28407097236E+03  0.28407097236E+03  0.00000000000E+00 0.  1.
         21   -1    0    0  501  502  0.00000000000E+00 -0.00000000000E+00 -0.69805274993E+02  0.69805274993E+02  0.00000000000E+00 0.  1.
         23    2    1    2    0    0  0.66501486214E+01  0.10923788000E+01  0.59112124989E+02  0.10845979460E+03  0.90685533337E+02 0.  0.
         24    2    1    2    0    0  0.68292273622E+02  0.16075216484E+02  0.57412300376E+02  0.12106031405E+03  0.80232039622E+02 0.  0.
        -11    1    4    4    0    0  0.69159293315E+02  0.23266696042E+02  0.73406102951E+02  0.10350267121E+03  0.00000000000E+00 0.  1.
         12    1    4    4    0    0 -0.86701969259E+00 -0.71914795586E+01 -0.15993802575E+02  0.17557642843E+02  0.00000000000E+00 0. -1.
        -13    1    3    3    0    0  0.19571965920E+01 -0.40977960391E+02  0.74936008107E+01  0.41703452008E+02  0.00000000000E+00 0.  1.
         13    1    3    3    0    0  0.46929520294E+01  0.42070339191E+02  0.51618524178E+02  0.66756342595E+02  0.00000000000E+00 0. -1.
         -2    1    1    2    0  502 -0.74942422244E+02 -0.17167595283E+02  0.97741271997E+02  0.12435613870E+03  0.00000000000E+00 0.  1.
<scales pt_clust_5="13000.00000" pt_clust_6="13000.00000" pt_clust_7="13000.00000" pt_clust_8="13000.00000" pt_clust_9="76.88367"></scales>
<clustering>
<clus scale="   76.884">  2  9  1 -1</clus>
<clus scale="   80.232">  5  6 -1 -1</clus>
<clus scale="   84.607">  2  5  1 -1</clus>
<clus scale="   90.686">  7  8 -1 -1</clus>
<clus scale="   76.884">  2  5  1 -1</clus>
</clustering>
</event>
<event>
 9    2  0.6190160E-005  0.4155784E+03  0.7546771E-02  0.1044136E+00
          2   -1    0    0  502    0 -0.00000000000E+00  0.00000000000E+00  0.76031701873E+03  0.76031701873E+03  0.00000000000E+00 0. -1.
         21   -1    0    0  501  502  0.00000000000E+00 -0.00000000000E+00 -0.64487814237E+03  0.64487814237E+03  0.00000000000E+00 0. -1.
         23    2    1    2    0    0 -0.18580601745E+03 -0.28639842456E+03  0.27726196748E+03  0.44889411325E+03  0.89909913720E+02 0.  0.
         24    2    1    2    0    0  0.32520930404E+03 -0.21695282025E+03 -0.17151433844E+03  0.43391261743E+03  0.77674794005E+02 0.  0.
        -11    1    4    4    0    0  0.17956343174E+03 -0.10579764296E+03 -0.13133211374E+03  0.24634181815E+03  0.00000000000E+00 0.  1.
         12    1    4    4    0    0  0.14564587231E+03 -0.11115517729E+03 -0.40182224701E+02  0.18757079928E+03  0.00000000000E+00 0. -1.
        -11    1    3    3    0    0 -0.83201103709E+02 -0.88355232952E+02  0.52459471982E+02  0.13221598636E+03  0.00000000000E+00 0.  1.
         11    1    3    3    0    0 -0.10260491374E+03 -0.19804319161E+03  0.22480249550E+03  0.31667812689E+03  0.00000000000E+00 0. -1.
          1    1    1    2  501    0 -0.13940328660E+03  0.50335124481E+03  0.96912473162E+01  0.52238843042E+03  0.00000000000E+00 0. -1.
<scales pt_clust_5="13000.00000" pt_clust_6="13000.00000" pt_clust_7="13000.00000" pt_clust_8="13000.00000" pt_clust_9="408.25503"></scales>
<clustering>
<clus scale="   77.675">  5  6 -1 -1</clus>
<clus scale="   89.910">  7  8 -1 -1</clus>
<clus scale="  353.032">  1  7  2 -1</clus>
<clus scale="  408.255">  2  9  1 -1</clus>
<clus scale="  408.255">  2  5  1 -1</clus>
</clustering>
</event>
<event>
 9    2  0.6190160E-005  0.1283002E+03  0.7546771E-02  0.1233952E+00
         21   -1    0    0  501  502  0.00000000000E+00  0.00000000000E+00  0.56371692186E+02  0.56371692186E+02  0.00000000000E+00 0.  1.
          2   -1    0    0  502    0 -0.00000000000E+00 -0.00000000000E+00 -0.49952467669E+03  0.49952467669E+03  0.00000000000E+00 0. -1.
         23    2    1    2    0    0  0.39952757339E+02  0.75223520857E+02 -0.33650058296E+03  0.35890921925E+03  0.91259982580E+02 0.  0.
         24    2    1    2    0    0 -0.50237270741E+02 -0.96730759094E+02 -0.63185867673E+02  0.14741223582E+03  0.76532935841E+02 0.  0.
        -13    1    4    4    0    0 -0.26041933164E+02 -0.10425337035E+03 -0.46582503431E+02  0.11711907248E+03  0.00000000000E+00 0.  1.
         14    1    4    4    0    0 -0.24195337577E+02  0.75226112605E+01 -0.16603364242E+02  0.30293163334E+02  0.00000000000E+00 0. -1.
        -11    1    3    3    0    0  0.69239828794E+02  0.50638770468E+02 -0.21300190330E+03  0.22962632640E+03  0.00000000000E+00 0. -1.
         11    1    3    3    0    0 -0.29287071455E+02  0.24584750388E+02 -0.12349867965E+03  0.12928289284E+03  0.00000000000E+00 0.  1.
          1    1    1    2  501    0  0.10284513402E+02  0.21507238237E+02 -0.43466533877E+02  0.49574913815E+02  0.00000000000E+00 0. -1.
<scales pt_clust_5="13000.00000" pt_clust_6="13000.00000" pt_clust_7="13000.00000" pt_clust_8="13000.00000" pt_clust_9="23.83974"></scales>
<clustering>
<clus scale="   23.840">  1  9  2 -1</clus>
<clus scale="   76.533">  5  6 -1 -1</clus>
<clus scale="   91.260">  7  8 -1 -1</clus>
<clus scale="  118.279">  1  5  2 -1</clus>
<clus scale="   23.840">  1  5  2 -1</clus>
</clustering>
</event>
<event>
 9    2  0.6190160E-005  0.1177365E+03  0.7546771E-02  0.1251418E+00
         21   -1    0    0  501  502  0.00000000000E+00  0.00000000000E+00  0.51054095321E+02  0.51054095321E+02  0.00000000000E+00 0. -1.
          2   -1    0    0  502    0 -0.00000000000E+00 -0.00000000000E+00 -0.84960495134E+03  0.84960495134E+03  0.00000000000E+00 0. -1.
         24    2    1    2    0    0  0.67786581107E+02 -0.43639281813E+02 -0.67006929601E+03  0.67952256031E+03  0.79111573245E+02 0.  0.
         23    2    1    2    0    0 -0.33330541258E+02 -0.20050178842E+02 -0.43233397385E+02  0.10928473039E+03  0.92526163837E+02 0.  0.
        -11    1    3    3    0    0  0.14008170722E+02 -0.24075813772E+02 -0.53625343523E+02  0.60428065696E+02  0.00000000000E+00 0.  1.
         12    1    3    3    0    0  0.53778410385E+02 -0.19563468040E+02 -0.61644395249E+03  0.61909449462E+03  0.00000000000E+00 0. -1.
        -11    1    4    4    0    0 -0.62106038931E+02 -0.18987149069E+02 -0.47108281626E+02  0.80230057330E+02  0.00000000000E+00 0. -1.
         11    1    4    4    0    0  0.28775497673E+02 -0.10630297738E+01  0.38748842403E+01  0.29054673058E+02  0.00000000000E+00 0.  1.
          1    1    1    2  501    0 -0.34456039849E+02  0.63689460655E+02 -0.85248162620E+02  0.11185175596E+03  0.00000000000E+00 0. -1.
<scales pt_clust_5="13000.00000" pt_clust_6="13000.00000" pt_clust_7="13000.00000" pt_clust_8="13000.00000" pt_clust_9="72.41247"></scales>
<clustering>
<clus scale="   72.412">  1  9  2 -1</clus>
<clus scale="   79.112">  5  6 -1 -1</clus>
<clus scale="   92.526">  7  8 -1 -1</clus>
<clus scale="  107.515">  2  5  1 -1</clus>
<clus scale="   72.412">  1  5  2 -1</clus>
</clustering>
</event>
<event>
 9    2  0.6190160E-005  0.2847737E+03  0.7546771E-02  0.1131906E+00
          2   -1    0    0  502    0 -0.00000000000E+00  0.00000000000E+00  0.60179006399E+03  0.60179006399E+03  0.00000000000E+00 0. -1.
         21   -1    0    0  501  502  0.00000000000E+00 -0.00000000000E+00 -0.18983737051E+03  0.18983737051E+03  0.00000000000E+00 0. -1.
         24    2    1    2    0    0  0.24809135184E+02 -0.69042264419E+02  0.80473515763E+02  0.13344889589E+03  0.77138146267E+02 0.  0.
         23    2    1    2    0    0 -0.26185139078E+03 -0.67198564603E+02  0.10983895455E+03  0.30621975842E+03  0.92866283292E+02 0.  0.
        -11    1    3    3    0    0  0.22518414573E+02 -0.31256169335E+02 -0.60605530123E+01  0.38996889865E+02  0.00000000000E+00 0.  1.
         12    1    3    3    0    0  0.22907206114E+01 -0.37786095084E+02  0.86534068776E+02  0.94452006022E+02  0.00000000000E+00 0. -1.
        -11    1    4    4    0    0 -0.52189964839E+02  0.12758220906E+02  0.51378367646E+02  0.74339096662E+02  0.00000000000E+00 0.  1.
         11    1    4    4    0    0 -0.20966142594E+03 -0.79956785509E+02  0.58460586907E+02  0.23188066176E+03  0.00000000000E+00 0. -1.
          1    1    1    2  501    0  0.23704225559E+03  0.13624082902E+03  0.22164022317E+03  0.35195878019E+03  0.00000000000E+00 0. -1.
<scales pt_clust_5="13000.00000" pt_clust_6="13000.00000" pt_clust_7="13000.00000" pt_clust_8="13000.00000" pt_clust_9="269.20617"></scales>
<clustering>
<clus scale="   77.138">  5  6 -1 -1</clus>
<clus scale="   92.866">  7  8 -1 -1</clus>
<clus scale="  106.455">  1  5  2 -1</clus>
<clus scale="  269.206">  2  9  1 -1</clus>
<clus scale="  269.206">  2  5  1 -1</clus>
</clustering>
</event>
<event>
 9    2  0.6190160E-005  0.1449566E+03  0.7546771E-02  0.1209255E+00
         21   -1    0    0  501  502  0.00000000000E+00  0.00000000000E+00  0.11222538371E+03  0.11222538371E+03  0.00000000000E+00 0. -1.
          2   -1    0    0  502    0 -0.00000000000E+00 -0.00000000000E+00 -0.49642473565E+03  0.49642473565E+03  0.00000000000E+00 0. -1.
         23    2    1    2    0    0  0.10010723149E+03 -0.45168648392E+02 -0.26570842089E+03  0.30161523378E+03  0.91154373038E+02 0.  0.
         24    2    1    2    0    0 -0.11387389771E+03  0.28987087147E+02 -0.18745315457E+03  0.23487428487E+03  0.78865256814E+02 0.  0.
        -13    1    4    4    0    0 -0.16232481327E+02  0.14189581468E+02 -0.10207885413E+03  0.10433086855E+03  0.00000000000E+00 0.  1.
         14    1    4    4    0    0 -0.97641416380E+02  0.14797505679E+02 -0.85374300441E+02  0.13054341631E+03  0.00000000000E+00 0. -1.
        -11    1    3    3    0    0  0.71277107316E+02 -0.29616760513E+02 -0.25609896834E+03  0.26747758807E+03  0.00000000000E+00 0. -1.
         11    1    3    3    0    0  0.28830124178E+02 -0.15551887879E+02 -0.96094525402E+01  0.34137645714E+02  0.00000000000E+00 0.  1.
          1    1    1    2  501    0  0.13766666213E+02  0.16181561245E+02  0.68962223516E+02  0.72160600712E+02  0.00000000000E+00 0. -1.
<scales pt_clust_5="13000.00000" pt_clust_6="13000.00000" pt_clust_7="13000.00000" pt_clust_8="13000.00000" pt_clust_9="21.24533"></scales>
<clustering>
<clus scale="   21.245">  1  9  2 -1</clus>
<clus scale="   78.865">  5  6 -1 -1</clus>
<clus scale="   91.154">  7  8 -1 -1</clus>
<clus scale="  137.561">  1  5  2 -1</clus>
<clus scale="   21.245">  1  5  2 -1</clus>
</clustering>
</event>
<event>
 9    2  0.6190160E-005  0.1116535E+03  0.7546771E-02  0.1261136E+00
         21   -1    0    0  501  502  0.00000000000E+00  0.00000000000E+00  0.86989936330E+02  0.86989936330E+02  0.00000000000E+00 0.  1.
         -3   -1    0    0    0  501 -0.00000000000E+00 -0.00000000000E+00 -0.18176468207E+03  0.18176468207E+03  0.00000000000E+00 0.  1.
         23    2    1    2    0    0  0.49696071909E+02  0.54520200466E+02 -0.84646144236E+02  0.14384242440E+03  0.89908406175E+02 0.  0.
         24    2    1    2    0    0 -0.28405364304E+02 -0.45565205716E+02  0.60183015656E+01  0.96730486456E+02  0.80234122187E+02 0.  0.
        -11    1    4    4    0    0 -0.26444290058E+02 -0.34823991789E+02  0.41087018377E+02  0.60001282985E+02  0.00000000000E+00 0.  1.
         12    1    4    4    0    0 -0.19610742459E+01 -0.10741213927E+02 -0.35068716811E+02  0.36729203471E+02  0.00000000000E+00 0. -1.
        -11    1    3    3    0    0 -0.15217486792E+02  0.14869841337E+02  0.90809960192E+01  0.23133278504E+02  0.00000000000E+00 0. -1.
         11    1    3    3    0    0  0.64913558701E+02  0.39650359129E+02 -0.93727140255E+02  0.12070914589E+03  0.00000000000E+00 0.  1.
         -4    1    1    2    0  502 -0.21290707605E+02 -0.89549947498E+01 -0.16146903066E+02  0.28181707541E+02  0.00000000000E+00 0.  1.
<scales pt_clust_5="13000.00000" pt_clust_6="13000.00000" pt_clust_7="13000.00000" pt_clust_8="13000.00000" pt_clust_9="23.09733"></scales>
<clustering>
<clus scale="   23.097">  1  9  2 -1</clus>
<clus scale="   80.234">  5  6 -1 -1</clus>
<clus scale="   89.908">  7  8 -1 -1</clus>
<clus scale="  104.022">  1  5  2 -1</clus>
<clus scale="   23.097">  1  5  2 -1</clus>
</clustering>
</event>
<event>
 9    2  0.6190160E-005  0.1098973E+03  0.7546771E-02  0.1263885E+00
         21   -1    0    0  501  502  0.00000000000E+00  0.00000000000E+00  0.14605548927E+03  0.14605548927E+03  0.00000000000E+00 0. -1.
         -1   -1    0    0    0  501 -0.00000000000E+00 -0.00000000000E+00 -0.10388621785E+03  0.10388621785E+03  0.00000000000E+00 0.  1.
         23    2    1    2    0    0  0.34779266464E+02  0.56956342306E+02 -0.12556989192E+02  0.11119063505E+03  0.88045766737E+02 0.  0.
         24    2    1    2    0    0 -0.15661148882E+02 -0.64372608123E+02  0.32837921464E+02  0.10875769266E+03  0.79754638517E+02 0.  0.
        -13    1    4    4    0    0  0.24205997231E+02 -0.37200842958E+02 -0.85413204671E+01  0.45197203166E+02  0.00000000000E+00 0.  1.
         14    1    4    4    0    0 -0.39867146113E+02 -0.27171765165E+02  0.41379241931E+02  0.63560489490E+02  0.00000000000E+00 0. -1.
        -13    1    3    3    0    0 -0.13581277217E+02  0.36038377585E+02  0.25503486039E+02  0.46191379606E+02  0.00000000000E+00 0. -1.
         13    1    3    3    0    0  0.48360543682E+02  0.20917964721E+02 -0.38060475231E+02  0.64999255442E+02  0.00000000000E+00 0.  1.
         -2    1    1    2    0  502 -0.19118117582E+02  0.74162658175E+01  0.21888339149E+02  0.29993379424E+02  0.00000000000E+00 0.  1.
<scales pt_clust_5="13000.00000" pt_clust_6="13000.00000" pt_clust_7="13000.00000" pt_clust_8="13000.00000" pt_clust_9="20.50618"></scales>
<clustering>
<clus scale="   20.506">  1  9  2 -1</clus>
<clus scale="   79.755">  5  6 -1 -1</clus>
<clus scale="   88.046">  7  8 -1 -1</clus>
<clus scale="  103.374">  1  5  2 -1</clus>
<clus scale="   20.506">  1  5  2 -1</clus>
</clustering>
</event>
<event>
 9    2  0.6190160E-005  0.1136732E+03  0.7546771E-02  0.1254582E+00
         21   -1    0    0  501  502  0.00000000000E+00  0.00000000000E+00  0.60738754173E+02  0.60738754173E+02  0.00000000000E+00 0.  1.
          2   -1    0    0  502    0 -0.00000000000E+00 -0.00000000000E+00 -0.34963421253E+03  0.34963421253E+03  0.00000000000E+00 0. -1.
         23    2    1    2    0    0  0.63681886594E+01  0.65941310403E+02 -0.19925401702E+03  0.22959659359E+03  0.92863460241E+02 0.  0.
         24    2    1    2    0    0 -0.43362453459E+02 -0.56810376813E+02 -0.50878955518E+02  0.12642124563E+03  0.91027149514E+02 0.  0.
        -11    1    4    4    0    0 -0.55650308993E+02 -0.40915390794E+02  0.27757923853E+01  0.69128366958E+02  0.00000000000E+00 0.  1.
         12    1    4    4    0    0  0.12287855534E+02 -0.15894986018E+02 -0.53654747903E+02  0.57292878673E+02  0.00000000000E+00 0. -1.
        -11    1    3    3    0    0 -0.84956545287E+01  0.87211038920E+02 -0.14422892644E+03  0.16875996171E+03  0.00000000000E+00 0.  1.
         11    1    3    3    0    0  0.14863843188E+02 -0.21269728518E+02 -0.55025090578E+02  0.60836631881E+02  0.00000000000E+00 0. -1.
          1    1    1    2  501    0  0.36994264799E+02 -0.91309335897E+01 -0.38762485827E+02  0.54355127483E+02  0.00000000000E+00 0. -1.
<scales pt_clust_5="13000.00000" pt_clust_6="13000.00000" pt_clust_7="13000.00000" pt_clust_8="13000.00000" pt_clust_9="38.10448"></scales>
<clustering>
<clus scale="   38.104">  1  9  2 -1</clus>
<clus scale="   91.027">  5  6 -1 -1</clus>
<clus scale="   92.863">  7  8 -1 -1</clus>
<clus scale="  112.178">  1  5  2 -1</clus>
<clus scale="   38.104">  1  5  2 -1</clus>
</clustering>
</event>
<event>
 9    2  0.6190160E-005  0.2168592E+03  0.7546771E-02  0.1136247E+00
         21   -1    0    0  501  502  0.00000000000E+00  0.00000000000E+00  0.29839676211E+03  0.29839676211E+03  0.00000000000E+00 0. -1.
         -3   -1    0    0    0  501 -0.00000000000E+00 -0.00000000000E+00 -0.10587321038E+03  0.10587321038E+03  0.00000000000E+00 0.  1.
         24    2    1    2    0    0 -0.74119927550E+02  0.28830441413E+02  0.25490739702E+02  0.11609746652E+03  0.80646673265E+02 0.  0.
         23    2    1    2    0    0 -0.37808692620E+02  0.30883519694E+02  0.44445754310E+02  0.11176003509E+03  0.90175336659E+02 0.  0.
        -11    1    3    3    0    0 -0.63520964840E+02 -0.50535681365E+00 -0.14720887087E+02  0.65206386775E+02  0.00000000000E+00 0.  1.
         12    1    3    3    0    0 -0.10598962711E+02  0.29335798226E+02  0.40211626789E+02  0.50891079740E+02  0.00000000000E+00 0. -1.
        -11    1    4    4    0    0 -0.65334305759E+02  0.65238396650E+01  0.31138069036E+02  0.72668503055E+02  0.00000000000E+00 0. -1.
         11    1    4    4    0    0  0.27525613138E+02  0.24359680029E+02  0.13307685273E+02  0.39091532038E+02  0.00000000000E+00 0.  1.
         -4    1    1    2    0  502  0.11192862017E+03 -0.59713961106E+02  0.12258705772E+03  0.17641247088E+03  0.00000000000E+00 0.  1.
<scales pt_clust_5="13000.00000" pt_clust_6="13000.00000" pt_clust_7="13000.00000" pt_clust_8="13000.00000" pt_clust_9="126.86124"></scales>
<clustering>
<clus scale="   80.647">  5  6 -1 -1</clus>
<clus scale="   90.175">  7  8 -1 -1</clus>
<clus scale="   92.039">  5  7 -1 -1</clus>
<clus scale="  126.861">  1  9  2 -1</clus>
<clus scale="  126.861">  1  5  2 -1</clus>
</clustering>
</event>
<event>
 9    2  0.6190160E-005  0.1870072E+03  0.7546771E-02  0.1162531E+00
         21   -1    0    0  501  502  0.00000000000E+00  0.00000000000E+00  0.68563078124E+02  0.68563078124E+02  0.00000000000E+00 0.  1.
         -3   -1    0    0    0  501 -0.00000000000E+00 -0.00000000000E+00 -0.10284178394E+04  0.10284178394E+04  0.00000000000E+00 0.  1.
         24    2    1    2    0    0 -0.95200177634E+02  0.17770467198E+03 -0.74183643973E+03  0.77278399096E+03  0.78941555085E+02 0.  0.
         23    2    1    2    0    0  0.53957690459E+02 -0.78008490957E+02 -0.12871108386E+03  0.18413960270E+03  0.91346007860E+02 0.  0.
        -13    1    3    3    0    0 -0.64428837101E+02  0.16117480299E+03 -0.67959195309E+03  0.70140830825E+03  0.00000000000E+00 0.  1.
         14    1    3    3    0    0 -0.30771340534E+02  0.16529868989E+02 -0.62244486632E+02  0.71375682716E+02  0.00000000000E+00 0. -1.
        -11    1    4    4    0    0  0.60549639504E+02 -0.92251071147E+01 -0.47491056562E+02  0.77503302502E+02  0.00000000000E+00 0.  1.
         11    1    4    4    0    0 -0.65919490448E+01 -0.68783383842E+02 -0.81220027297E+02  0.10663630019E+03  0.00000000000E+00 0. -1.
         -4    1    1    2    0  502  0.41242487175E+02 -0.99696181026E+02 -0.89307237650E+02  0.14005732382E+03  0.00000000000E+00 0.  1.
<scales pt_clust_5="13000.00000" pt_clust_6="13000.00000" pt_clust_7="13000.00000" pt_clust_8="13000.00000" pt_clust_9="107.89009"></scales>
<clustering>
<clus scale="   78.942">  5  6 -1 -1</clus>
<clus scale="   91.346">  7  8 -1 -1</clus>
<clus scale="  107.890">  1  9  2 -1</clus>
<clus scale="  181.271">  2  5  1 -1</clus>
<clus scale="  107.890">  1  5  2 -1</clus>
</clustering>
</event>
<event>
 9    2  0.6190160E-005  0.1061444E+03  0.7546771E-02  0.1270490E+00
         -3   -1    0    0    0  501 -0.00000000000E+00  0.00000000000E+00  0.92343279357E+02  0.92343279357E+02  0.00000000000E+00 0.  1.
         21   -1    0    0  501  502  0.00000000000E+00 -0.00000000000E+00 -0.14610214005E+03  0.14610214005E+03  0.00000000000E+00 0. -1.
         23    2    1    2    0    0  0.63404976357E+02 -0.14714707306E+02 -0.98712459640E+01  0.11203296167E+03  0.90648934715E+02 0.  0.
         24    2    1    2    0    0 -0.40942658943E+02  0.15158134511E+02 -0.41749417363E+02  0.10384424515E+03  0.84466224245E+02 0.  0.
        -11    1    4    4    0    0 -0.21282333467E+02 -0.12646700248E+02  0.20991226070E+02  0.32457792853E+02  0.00000000000E+00 0.  1.
         12    1    4    4    0    0 -0.19660325477E+02  0.27804834759E+02 -0.62740643433E+02  0.71386452302E+02  0.00000000000E+00 0. -1.
        -13    1    3    3    0    0  0.59921143289E+02 -0.40158629964E+02  0.17782926867E+02  0.74293280057E+02  0.00000000000E+00 0.  1.
         13    1    3    3    0    0  0.34838330683E+01  0.25443922658E+02 -0.27654172831E+02  0.37739681610E+02  0.00000000000E+00 0. -1.
         -4    1    1    2    0  502 -0.22462317414E+02 -0.44342720465E+00 -0.21381973638E+01  0.22568212585E+02  0.00000000000E+00 0.  1.
<scales pt_clust_5="13000.00000" pt_clust_6="13000.00000" pt_clust_7="13000.00000" pt_clust_8="13000.00000" pt_clust_9="22.46671"></scales>
<clustering>
<clus scale="   22.467">  2  9  1 -1</clus>
<clus scale="   84.466">  5  6 -1 -1</clus>
<clus scale="   90.649">  7  8 -1 -1</clus>
<clus scale="  100.915">  2  5  1 -1</clus>
<clus scale="   22.467">  2  5  1 -1</clus>
</clustering>
</event>
<event>
 9    2  0.6190160E-005  0.9234926E+02  0.7546771E-02  0.1305668E+00
         -3   -1    0    0    0  501 -0.00000000000E+00  0.00000000000E+00  0.24060760874E+03  0.24060760874E+03  0.00000000000E+00 0.  1.
         21   -1    0    0  501  502  0.00000000000E+00 -0.00000000000E+00 -0.59658971815E+02  0.59658971815E+02  0.00000000000E+00 0. -1.
         24    2    1    2    0    0 -0.31981550961E+01 -0.23648657288E+01  0.14971855924E+03  0.16918874840E+03  0.78697934029E+02 0.  0.
         23    2    1    2    0    0  0.23148193157E+02  0.14887793396E+02  0.54741877016E+01  0.96175201809E+02  0.91990311845E+02 0.  0.
        -13    1    3    3    0    0 -0.26959352317E+01  0.35678139985E+02  0.43280129200E+02  0.56154851288E+02  0.00000000000E+00 0.  1.
         14    1    3    3    0    0 -0.50221986437E+00 -0.38043005714E+02  0.10643843004E+03  0.11303389712E+03  0.00000000000E+00 0. -1.
        -11    1    4    4    0    0 -0.21139768190E+02 -0.17895804095E+02  0.25400747035E+02  0.37581212770E+02  0.00000000000E+00 0.  1.
         11    1    4    4    0    0  0.44287961346E+02  0.32783597491E+02 -0.19926559333E+02  0.58593989039E+02  0.00000000000E+00 0. -1.
         -4    1    1    2    0  502 -0.19950038060E+02 -0.12522927667E+02  0.25755889991E+02  0.34902630348E+02  0.00000000000E+00 0.  1.
<scales pt_clust_5="13000.00000" pt_clust_6="13000.00000" pt_clust_7="13000.00000" pt_clust_8="13000.00000" pt_clust_9="23.55479"></scales>
<clustering>
<clus scale="   23.555">  2  9  1 -1</clus>
<clus scale="   78.698">  5  6 -1 -1</clus>
<clus scale="   79.117">  1  5  2 -1</clus>
<clus scale="   91.990">  7  8 -1 -1</clus>
<clus scale="   23.555">  2  5  1 -1</clus>
</clustering>
</event>
<event>
 9    2  0.6190160E-005  0.1034922E+03  0.7546771E-02  0.1277375E+00
         -1   -1    0    0    0  501 -0.00000000000E+00  0.00000000000E+00  0.37255313906E+03  0.37255313906E+03  0.00000000000E+00 0.  1.
         21   -1    0    0  501  502  0.00000000000E+00 -0.00000000000E+00 -0.14274633513E+03  0.14274633513E+03  0.00000000000E+00 0.  1.
         23    2    1    2    0    0  0.21411421193E+02  0.51360579806E+02  0.30464446755E+03  0.32268249702E+03  0.90660819316E+02 0.  0.
         24    2    1    2    0    0  0.11608103015E+02 -0.33259396808E+02  0.19793663659E+02  0.90768904496E+02  0.81278960197E+02 0.  0.
        -11    1    4    4    0    0 -0.18784844305E+02  0.12830366805E+02  0.26760008363E+02  0.35122453438E+02  0.00000000000E+00 0.  1.
         12    1    4    4    0    0  0.30392947321E+02 -0.46089763613E+02 -0.69663447037E+01  0.55646451058E+02  0.00000000000E+00 0. -1.
        -13    1    3    3    0    0 -0.72176067565E+01  0.60964645462E+02  0.26923571237E+03  0.27614606761E+03  0.00000000000E+00 0.  1.
         13    1    3    3    0    0  0.28629027950E+02 -0.96040656561E+01  0.35408755181E+02  0.46536429406E+02  0.00000000000E+00 0. -1.
         -2    1    1    2    0  502 -0.33019524209E+02 -0.18101182998E+02 -0.94631327282E+02  0.10184807268E+03  0.00000000000E+00 0.  1.
<scales pt_clust_5="13000.00000" pt_clust_6="13000.00000" pt_clust_7="13000.00000" pt_clust_8="13000.00000" pt_clust_9="37.65557"></scales>
<clustering>
<clus scale="   37.656">  2  9  1 -1</clus>
<clus scale="   81.279">  5  6 -1 -1</clus>
<clus scale="   90.661">  7  8 -1 -1</clus>
<clus scale="   95.381">  2  5  1 -1</clus>
<clus scale="   37.656">  2  5  1 -1</clus>
</clustering>
</event>
<event>
 9    2  0.6190160E-005  0.1592442E+03  0.7546771E-02  0.1191170E+00
         21   -1    0    0  501  502  0.00000000000E+00  0.00000000000E+00  0.78751226060E+02  0.78751226060E+02  0.00000000000E+00 0.  1.
         -1   -1    0    0    0  501 -0.00000000000E+00 -0.00000000000E+00 -0.49137489084E+03  0.49137489084E+03  0.00000000000E+00 0.  1.
         24    2    1    2    0    0  0.48412406896E+02  0.13087141550E+03 -0.15521276235E+03  0.22380558761E+03  0.80788928146E+02 0.  0.
         23    2    1    2    0    0 -0.11705565980E+01 -0.12440133551E+03 -0.10464850994E+03  0.18628927323E+03  0.90968787016E+02 0.  0.
        -13    1    3    3    0    0  0.65748663322E+02  0.12767404173E+03 -0.13850168935E+03  0.19951507615E+03  0.00000000000E+00 0.  1.
         14    1    3    3    0    0 -0.17336256426E+02  0.31973737752E+01 -0.16711072996E+02  0.24290511452E+02  0.00000000000E+00 0. -1.
        -11    1    4    4    0    0  0.35054151924E+02 -0.10869746273E+03 -0.71572909582E+02  0.13478357970E+03  0.00000000000E+00 0.  1.
         11    1    4    4    0    0 -0.36224708522E+02 -0.15703872783E+02 -0.33075600353E+02  0.51505693536E+02  0.00000000000E+00 0. -1.
         -2    1    1    2    0  502 -0.47241850298E+02 -0.64700799950E+01 -0.15276239250E+03  0.16003125606E+03  0.00000000000E+00 0.  1.
<scales pt_clust_5="13000.00000" pt_clust_6="13000.00000" pt_clust_7="13000.00000" pt_clust_8="13000.00000" pt_clust_9="47.68288"></scales>
<clustering>
<clus scale="   47.683">  1  9  2 -1</clus>
<clus scale="   80.789">  5  6 -1 -1</clus>
<clus scale="   90.969">  7  8 -1 -1</clus>
<clus scale="  153.656">  2  5  1 -1</clus>
<clus scale="   47.683">  1  5  2 -1</clus>
</clustering>
</event>
<event>
 9    2  0.6190160E-005  0.2683662E+03  0.7546771E-02  0.1122799E+00
         21   -1    0    0  501  502  0.00000000000E+00  0.00000000000E+00  0.29607645649E+03  0.29607645649E+03  0.00000000000E+00 0.  1.
          2   -1    0    0  502    0 -0.00000000000E+00 -0.00000000000E+00 -0.41677365668E+03  0.41677365668E+03  0.00000000000E+00 0. -1.
         23    2    1    2    0    0 -0.12996053224E+03 -0.11519818392E+02 -0.11236457666E+02  0.15964720917E+03  0.91315536782E+02 0.  0.
         24    2    1    2    0    0 -0.76666843374E+02  0.21717352488E+03 -0.96633943087E+02  0.26139329804E+03  0.77111558954E+02 0.  0.
        -11    1    4    4    0    0 -0.45248586819E+02  0.18285553014E+03 -0.10257421760E+03  0.21448787758E+03  0.00000000000E+00 0.  1.
         12    1    4    4    0    0 -0.31418256556E+02  0.34317994739E+02  0.59402745100E+01  0.46905420467E+02  0.00000000000E+00 0. -1.
        -13    1    3    3    0    0 -0.16181151366E+02 -0.36802838815E+02  0.93814231680E+01  0.41283043796E+02  0.00000000000E+00 0. -1.
         13    1    3    3    0    0 -0.11377938088E+03  0.25283020423E+02 -0.20617880834E+02  0.11836416537E+03  0.00000000000E+00 0.  1.
          1    1    1    2  501    0  0.20662737562E+03 -0.20565370649E+03 -0.12826799429E+02  0.29180960596E+03  0.00000000000E+00 0. -1.
<scales pt_clust_5="13000.00000" pt_clust_6="13000.00000" pt_clust_7="13000.00000" pt_clust_8="13000.00000" pt_clust_9="257.04902"></scales>
<clustering>
<clus scale="   77.112">  5  6 -1 -1</clus>
<clus scale="   91.316">  7  8 -1 -1</clus>
<clus scale="  159.251">  2  7  1 -1</clus>
<clus scale="  257.049">  1  9  2 -1</clus>
<clus scale="  257.049">  1  5  2 -1</clus>
</clustering>
</event>
<event>
 9    2  0.6190160E-005  0.1385431E+03  0.7546771E-02  0.1217286E+00
          2   -1    0    0  502    0 -0.00000000000E+00  0.00000000000E+00  0.15279724620E+03  0.15279724620E+03  0.00000000000E+00 0. -1.
         21   -1    0    0  501  502  0.00000000000E+00 -0.00000000000E+00 -0.21935776892E+03  0.21935776892E+03  0.00000000000E+00 0.  1.
         24    2    1    2    0    0  0.70827701996E+02 -0.79687514801E+02  0.57832721853E+02  0.14611929072E+03  0.81483495366E+02 0.  0.
         23    2    1    2    0    0 -0.46357382731E+02  0.89824355294E+02 -0.14029005308E+03  0.19514461596E+03  0.90458279923E+02 0.  0.
        -13    1    3    3    0    0 -0.28992945216E+01 -0.40377002383E+02  0.46741161080E+02  0.61834006576E+02  0.00000000000E+00 0.  1.
         14    1    3    3    0    0  0.73726996518E+02 -0.39310512418E+02  0.11091560773E+02  0.84285284139E+02  0.00000000000E+00 0. -1.
        -13    1    4    4    0    0 -0.71453757822E+02  0.81942084939E+02 -0.11997781965E+03  0.16190991940E+03  0.00000000000E+00 0.  1.
         13    1    4    4    0    0  0.25096375091E+02  0.78822703556E+01 -0.20312233434E+02  0.33234696565E+02  0.00000000000E+00 0. -1.
          1    1    1    2  501    0 -0.24470319265E+02 -0.10136840493E+02  0.15896808515E+02  0.30891108447E+02  0.00000000000E+00 0. -1.
<scales pt_clust_5="13000.00000" pt_clust_6="13000.00000" pt_clust_7="13000.00000" pt_clust_8="13000.00000" pt_clust_9="26.48684"></scales>
<clustering>
<clus scale="   26.487">  2  9  1 -1</clus>
<clus scale="   81.483">  5  6 -1 -1</clus>
<clus scale="   90.458">  7  8 -1 -1</clus>
<clus scale="  132.857">  1  5  2 -1</clus>
<clus scale="   26.487">  2  5  1 -1</clus>
</clustering>
</event>
<event>
 9    2  0.6190160E-005  0.9699422E+02  0.7546771E-02  0.1291058E+00
          4   -1    0    0  502    0 -0.00000000000E+00  0.00000000000E+00  0.28613067991E+03  0.28613067991E+03  0.00000000000E+00 0. -1.
         21   -1    0    0  501  502  0.00000000000E+00 -0.00000000000E+00 -0.15438302506E+03  0.15438302506E+03  0.00000000000E+00 0. -1.
         23    2    1    2    0    0  0.30765715356E+02  0.18807892657E+02  0.22748164881E+03  0.24764063622E+03  0.90981965782E+02 0.  0.
         24    2    1    2    0    0 -0.37949853421E+02  0.37455463005E+02 -0.24041776318E+02  0.10145670752E+03  0.82899658677E+02 0.  0.
        -11    1    4    4    0    0  0.14344728492E+02 -0.14067063231E+02 -0.19351760264E+02  0.27895234875E+02  0.00000000000E+00 0.  1.
         12    1    4    4    0    0 -0.52294581912E+02  0.51522526236E+02 -0.46900160543E+01  0.73561472645E+02  0.00000000000E+00 0. -1.
        -13    1    3    3    0    0  0.44831997517E+02  0.43607964200E+02  0.19309670790E+03  0.20297266108E+03  0.00000000000E+00 0. -1.
         13    1    3    3    0    0 -0.14066282161E+02 -0.24800071544E+02  0.34384940903E+02  0.44667975142E+02  0.00000000000E+00 0.  1.
          3    1    1    2  501    0  0.71841380645E+01 -0.56263355662E+02 -0.71692217639E+02  0.91416361227E+02  0.00000000000E+00 0. -1.
<scales pt_clust_5="13000.00000" pt_clust_6="13000.00000" pt_clust_7="13000.00000" pt_clust_8="13000.00000" pt_clust_9="56.72016"></scales>
<clustering>
<clus scale="   56.720">  2  9  1 -1</clus>
<clus scale="   82.900">  5  6 -1 -1</clus>
<clus scale="   89.457">  2  5  1 -1</clus>
<clus scale="   90.982">  7  8 -1 -1</clus>
<clus scale="   56.720">  2  5  1 -1</clus>
</clustering>
</event>
<event>
 9    2  0.6190160E-005  0.1114532E+03  0.7546771E-02  0.1270341E+00
         21   -1    0    0  501  502  0.00000000000E+00  0.00000000000E+00  0.68412245819E+02  0.68412245819E+02  0.00000000000E+00 0.  1.
          2   -1    0    0  502    0 -0.00000000000E+00 -0.00000000000E+00 -0.21725840406E+03  0.21725840406E+03  0.00000000000E+00 0. -1.
         23    2    1    2    0    0  0.11148800864E+01  0.41165448561E+02 -0.13729842027E+03  0.17850982127E+03  0.10639108500E+03 0.  0.
         24    2    1    2    0    0  0.10840395318E+01 -0.18093740874E+02 -0.47691709966E+01  0.83013615248E+02  0.80869998912E+02 0.  0.
        -13    1    4    4    0    0  0.31714040713E+02 -0.12301339125E+02  0.23165879473E+02  0.41155331299E+02  0.00000000000E+00 0.  1.
         14    1    4    4    0    0 -0.30630001181E+02 -0.57924017484E+01 -0.27935050470E+02  0.41858283948E+02  0.00000000000E+00 0. -1.
        -13    1    3    3    0    0  0.20655534235E+02  0.69292304778E+02 -0.12009937998E+03  0.14018536182E+03  0.00000000000E+00 0.  1.
         13    1    3    3    0    0 -0.19540654149E+02 -0.28126856217E+02 -0.17199040287E+02  0.38324459448E+02  0.00000000000E+00 0. -1.
          1    1    1    2  501    0 -0.21989196183E+01 -0.23071707687E+02 -0.67785669769E+01  0.24147213366E+02  0.00000000000E+00 0. -1.
<scales pt_clust_5="13000.00000" pt_clust_6="13000.00000" pt_clust_7="13000.00000" pt_clust_8="13000.00000" pt_clust_9="23.17626"></scales>
<clustering>
<clus scale="   23.176">  1  9  2 -1</clus>
<clus scale="   80.870">  5  6 -1 -1</clus>
<clus scale="   87.423">  1  5  2 -1</clus>
<clus scale="  106.391">  7  8 -1 -1</clus>
<clus scale="   23.176">  1  5  2 -1</clus>
</clustering>
</event>
<event>
 9    2  0.6190160E-005  0.9781771E+02  0.7546771E-02  0.1289816E+00
         -1   -1    0    0    0  501 -0.00000000000E+00  0.00000000000E+00  0.37897240084E+03  0.37897240084E+03  0.00000000000E+00 0.  1.
         21   -1    0    0  501  502  0.00000000000E+00 -0.00000000000E+00 -0.15958577051E+03  0.15958577051E+03  0.00000000000E+00 0.  1.
         23    2    1    2    0    0 -0.12886071983E+02 -0.24723049054E+02  0.33073003684E+03  0.34476687716E+03  0.93298243891E+02 0.  0.
         24    2    1    2    0    0  0.55678932043E+02  0.19691751392E+02 -0.39951396684E+02  0.11040447333E+03  0.84291904043E+02 0.  0.
        -13    1    4    4    0    0  0.52291709835E+02 -0.16023541217E+02  0.25929536121E+01  0.54753083923E+02  0.00000000000E+00 0.  1.
         14    1    4    4    0    0  0.33872222075E+01  0.35715292609E+02 -0.42544350296E+02  0.55651389403E+02  0.00000000000E+00 0. -1.
        -13    1    3    3    0    0 -0.51687929099E+02 -0.26791514354E+02  0.21137432456E+03  0.21924537016E+03  0.00000000000E+00 0.  1.
         13    1    3    3    0    0  0.38801857116E+02  0.20684652997E+01  0.11935571228E+03  0.12552150699E+03  0.00000000000E+00 0. -1.
         -2    1    1    2    0  502 -0.42792860060E+02  0.50312976625E+01 -0.71392009820E+02  0.83386820867E+02  0.00000000000E+00 0.  1.
<scales pt_clust_5="13000.00000" pt_clust_6="13000.00000" pt_clust_7="13000.00000" pt_clust_8="13000.00000" pt_clust_9="43.08762"></scales>
<clustering>
<clus scale="   43.088">  2  9  1 -1</clus>
<clus scale="   84.292">  5  6 -1 -1</clus>
<clus scale="   89.269">  2  5  1 -1</clus>
<clus scale="   93.298">  7  8 -1 -1</clus>
<clus scale="   43.088">  2  5  1 -1</clus>
</clustering>
</event>
<event>
 9    2  0.6190160E-005  0.1150044E+03  0.7546771E-02  0.1256749E+00
         21   -1    0    0  501  502  0.00000000000E+00  0.00000000000E+00  0.90493445408E+02  0.90493445408E+02  0.00000000000E+00 0.  1.
          2   -1    0    0  502    0 -0.00000000000E+00 -0.00000000000E+00 -0.23701209543E+03  0.23701209543E+03  0.00000000000E+00 0. -1.
         24    2    1    2    0    0 -0.43972380196E+02 -0.60159815657E+02 -0.15059067376E+03  0.18608001489E+03  0.79971540427E+02 0.  0.
         23    2    1    2    0    0  0.36554796516E+02  0.23097949688E+02  0.42281743945E+01  0.10362834563E+03  0.94080753247E+02 0.  0.
        -13    1    3    3    0    0 -0.54360048242E+01 -0.23361331968E+02  0.23719098185E+01  0.24102446680E+02  0.00000000000E+00 0.  1.
         14    1    3    3    0    0 -0.38536375372E+02 -0.36798483689E+02 -0.15296258358E+03  0.16197756821E+03  0.00000000000E+00 0. -1.
        -13    1    4    4    0    0 -0.25055072349E+02  0.52795667201E+00  0.24406718601E+02  0.34981756696E+02  0.00000000000E+00 0.  1.
         13    1    4    4    0    0  0.61609868865E+02  0.22569993016E+02 -0.20178544207E+02  0.68646588936E+02  0.00000000000E+00 0. -1.
          1    1    1    2  501    0  0.74175836802E+01  0.37061865968E+02 -0.15615065698E+00  0.37797180315E+02  0.00000000000E+00 0. -1.
<scales pt_clust_5="13000.00000" pt_clust_6="13000.00000" pt_clust_7="13000.00000" pt_clust_8="13000.00000" pt_clust_9="37.79686"></scales>
<clustering>
<clus scale="   37.797">  1  9  2 -1</clus>
<clus scale="   79.972">  5  6 -1 -1</clus>
<clus scale="   94.081">  7  8 -1 -1</clus>
<clus scale="  103.780">  2  5  1 -1</clus>
<clus scale="   37.797">  1  5  2 -1</clus>
</clustering>
</event>
<event>
 9    2  0.6190160E-005  0.1630846E+03  0.7546771E-02  0.1187233E+00
          2   -1    0    0  502    0 -0.00000000000E+00  0.00000000000E+00  0.86686397147E+03  0.86686397147E+03  0.00000000000E+00 0. -1.
         21   -1    0    0  501  502  0.00000000000E+00 -0.00000000000E+00 -0.11572538948E+03  0.11572538948E+03  0.00000000000E+00 0.  1.
         23    2    1    2    0    0  0.54626641508E+02  0.11595496258E+03  0.28068524374E+03  0.32185170792E+03  0.91513346186E+02 0.  0.
         24    2    1    2    0    0 -0.13938044598E+03 -0.11230063160E+03  0.13365148181E+02  0.19584392861E+03  0.78344601651E+02 0.  0.
        -11    1    4    4    0    0 -0.10973095371E+03 -0.11834434294E+03  0.25216436151E+02  0.16334666926E+03  0.00000000000E+00 0.  1.
         12    1    4    4    0    0 -0.29649492270E+02  0.60437113332E+01 -0.11851287970E+02  0.32497259348E+02  0.00000000000E+00 0. -1.
        -13    1    3    3    0    0 -0.13682995187E+02  0.75762589512E+02  0.11811386382E+03  0.14098964201E+03  0.00000000000E+00 0.  1.
         13    1    3    3    0    0  0.68309636695E+02  0.40192373066E+02  0.16257137991E+03  0.18086206591E+03  0.00000000000E+00 0. -1.
          1    1    1    2  501    0  0.84753804471E+02 -0.36543309739E+01  0.45708819007E+03  0.46489372443E+03  0.00000000000E+00 0. -1.
<scales pt_clust_5="13000.00000" pt_clust_6="13000.00000" pt_clust_7="13000.00000" pt_clust_8="13000.00000" pt_clust_9="84.83259"></scales>
<clustering>
<clus scale="   78.345">  5  6 -1 -1</clus>
<clus scale="   84.833">  2  9  1 -1</clus>
<clus scale="   91.513">  7  8 -1 -1</clus>
<clus scale="  156.076">  2  5  1 -1</clus>
<clus scale="   84.833">  2  5  1 -1</clus>
</clustering>
</event>
<event>
 9    2  0.6190160E-005  0.9848429E+02  0.7546771E-02  0.1289347E+00
         21   -1    0    0  501  502  0.00000000000E+00  0.00000000000E+00  0.15005515111E+03  0.15005515111E+03  0.00000000000E+00 0.  1.
         -1   -1    0    0    0  501 -0.00000000000E+00 -0.00000000000E+00 -0.10295900481E+03  0.10295900481E+03  0.00000000000E+00 0.  1.
         23    2    1    2    0    0  0.18482663894E+02 -0.33933072845E+02 -0.39433092756E+02  0.10695576126E+03  0.91605151407E+02 0.  0.
         24    2    1    2    0    0 -0.30627229243E+02  0.16784300985E+02  0.42973030394E+02  0.97698140764E+02  0.80489163474E+02 0.  0.
        -13    1    4    4    0    0 -0.27051156994E+02 -0.22793055079E+02 -0.46446552607E+01  0.35677181461E+02  0.00000000000E+00 0.  1.
         14    1    4    4    0    0 -0.35760722489E+01  0.39577356064E+02  0.47617685654E+02  0.62020959303E+02  0.00000000000E+00 0. -1.
        -13    1    3    3    0    0  0.38532069969E+02 -0.13967056447E+02  0.16571829141E+02  0.44208874709E+02  0.00000000000E+00 0. -1.
         13    1    3    3    0    0 -0.20049406075E+02 -0.19966016397E+02 -0.56004921897E+02  0.62746886548E+02  0.00000000000E+00 0.  1.
         -2    1    1    2    0  502  0.12144565349E+02  0.17148771859E+02  0.43556208660E+02  0.48360253893E+02  0.00000000000E+00 0.  1.
<scales pt_clust_5="13000.00000" pt_clust_6="13000.00000" pt_clust_7="13000.00000" pt_clust_8="13000.00000" pt_clust_9="21.01359"></scales>
<clustering>
<clus scale="   21.014">  1  9  2 -1</clus>
<clus scale="   80.489">  5  6 -1 -1</clus>
<clus scale="   88.239">  1  5  2 -1</clus>
<clus scale="   91.605">  7  8 -1 -1</clus>
<clus scale="   21.014">  1  5  2 -1</clus>
</clustering>
</event>
<event>
 9    2  0.6190160E-005  0.1062589E+03  0.7546771E-02  0.1272006E+00
          2   -1    0    0  502    0 -0.00000000000E+00  0.00000000000E+00  0.70653911311E+03  0.70653911311E+03  0.00000000000E+00 0. -1.
         21   -1    0    0  501  502  0.00000000000E+00 -0.00000000000E+00 -0.48564017418E+02  0.48564017418E+02  0.00000000000E+00 0. -1.
         23    2    1    2    0    0  0.36187225772E+02 -0.60222400399E+02  0.47389801867E+03  0.48640602312E+03  0.84114412610E+02 0.  0.
         24    2    1    2    0    0 -0.70270960739E+02  0.11727071993E+02  0.18289309835E+03  0.20941051810E+03  0.72988680818E+02 0.  0.
        -11    1    4    4    0    0 -0.50148096691E+02  0.37509465238E+02  0.15210854776E+03  0.16449559837E+03  0.00000000000E+00 0.  1.
         12    1    4    4    0    0 -0.20122864048E+02 -0.25782393245E+02  0.30784550591E+02  0.44914919726E+02  0.00000000000E+00 0. -1.
        -11    1    3    3    0    0  0.16705714211E+02  0.15134339727E+02  0.43158561437E+02  0.48690764541E+02  0.00000000000E+00 0.  1.
         11    1    3    3    0    0  0.19481511561E+02 -0.75356740127E+02  0.43073945723E+03  0.43771525858E+03  0.00000000000E+00 0. -1.
          1    1    1    2  501    0  0.34083734968E+02  0.48495328407E+02  0.11839786791E+01  0.59286589311E+02  0.00000000000E+00 0. -1.
<scales pt_clust_5="13000.00000" pt_clust_6="13000.00000" pt_clust_7="13000.00000" pt_clust_8="13000.00000" pt_clust_9="59.27477"></scales>
<clustering>
<clus scale="   59.275">  2  9  1 -1</clus>
<clus scale="   72.989">  5  6 -1 -1</clus>
<clus scale="   84.114">  7  8 -1 -1</clus>
<clus scale="   97.689">  2  5  1 -1</clus>
<clus scale="   59.275">  2  5  1 -1</clus>
</clustering>
</event>
<event>
 9    2  0.6190160E-005  0.9940895E+02  0.7546771E-02  0.1286301E+00
         21   -1    0    0  501  502  0.00000000000E+00  0.00000000000E+00  0.11824669140E+03  0.11824669140E+03  0.00000000000E+00 0.  1.
          2   -1    0    0  502    0 -0.00000000000E+00 -0.00000000000E+00 -0.20683756024E+03  0.20683756024E+03  0.00000000000E+00 0. -1.
         23    2    1    2    0    0  0.25917375127E+02  0.38254951596E+02 -0.13832759636E+03  0.17175703814E+03  0.90723781780E+02 0.  0.
         24    2    1    2    0    0  0.17593358163E+02 -0.25176634966E+02  0.61447800462E+02  0.10640839524E+03  0.81262077233E+02 0.  0.
        -13    1    4    4    0    0 -0.10597860566E+02 -0.26623767172E+02  0.71034487316E+02  0.76596592713E+02  0.00000000000E+00 0.  1.
         14    1    4    4    0    0  0.28191218729E+02  0.14471322066E+01 -0.95866868539E+01  0.29811802527E+02  0.00000000000E+00 0. -1.
        -11    1    3    3    0    0 -0.31952679295E+02  0.79321950991E+01 -0.26582935017E+02  0.42314842164E+02  0.00000000000E+00 0.  1.
         11    1    3    3    0    0  0.57870054421E+02  0.30322756497E+02 -0.11174466134E+03  0.12944219598E+03  0.00000000000E+00 0. -1.
          1    1    1    2  501    0 -0.43510733289E+02 -0.13078316630E+02 -0.11711072945E+02  0.46918818259E+02  0.00000000000E+00 0. -1.
<scales pt_clust_5="13000.00000" pt_clust_6="13000.00000" pt_clust_7="13000.00000" pt_clust_8="13000.00000" pt_clust_9="45.43376"></scales>
<clustering>
<clus scale="   45.434">  1  9  2 -1</clus>
<clus scale="   81.262">  5  6 -1 -1</clus>
<clus scale="   90.724">  7  8 -1 -1</clus>
<clus scale="   90.856">  1  5  2 -1</clus>
<clus scale="   45.434">  1  5  2 -1</clus>
</clustering>
</event>
<event>
 9    2  0.6190160E-005  0.1706691E+03  0.7546771E-02  0.1177995E+00
         21   -1    0    0  501  502  0.00000000000E+00  0.00000000000E+00  0.11254841871E+04  0.11254841871E+04  0.00000000000E+00 0. -1.
         -1   -1    0    0    0  501 -0.00000000000E+00 -0.00000000000E+00 -0.21780544440E+03  0.21780544440E+03  0.00000000000E+00 0.  1.
         23    2    1    2    0    0 -0.67673127047E+02 -0.12951820865E+03 -0.17397523465E+03  0.24411621606E+03  0.89278923462E+02 0.  0.
         24    2    1    2    0    0  0.32814557768E+02  0.12560697112E+03  0.96939361425E+03  0.98156046227E+03  0.82964181112E+02 0.  0.
        -13    1    4    4    0    0  0.36258938609E+02  0.52803051969E+02  0.23546966728E+03  0.24402630419E+03  0.00000000000E+00 0.  1.
         14    1    4    4    0    0 -0.34443808407E+01  0.72803919153E+02  0.73392394697E+03  0.73753415809E+03  0.00000000000E+00 0. -1.
        -11    1    3    3    0    0 -0.10382799053E+02 -0.79676387036E+02 -0.39157850972E+02  0.89383815426E+02  0.00000000000E+00 0. -1.
         11    1    3    3    0    0 -0.57290327995E+02 -0.49841821611E+02 -0.13481738368E+03  0.15473240063E+03  0.00000000000E+00 0.  1.
         -2    1    1    2    0  502  0.34858569279E+02  0.39112375245E+01  0.11226036312E+03  0.11761295320E+03  0.00000000000E+00 0.  1.
<scales pt_clust_5="13000.00000" pt_clust_6="13000.00000" pt_clust_7="13000.00000" pt_clust_8="13000.00000" pt_clust_9="35.07731"></scales>
<clustering>
<clus scale="   35.077">  1  9  2 -1</clus>
<clus scale="   82.964">  5  6 -1 -1</clus>
<clus scale="   89.279">  7  8 -1 -1</clus>
<clus scale="  167.452">  1  5  2 -1</clus>
<clus scale="   35.077">  1  5  2 -1</clus>
</clustering>
</event>
<event>
 9    2  0.6190160E-005  0.1363573E+03  0.7546771E-02  0.1223529E+00
         21   -1    0    0  501  502  0.00000000000E+00  0.00000000000E+00  0.30120230188E+03  0.30120230188E+03  0.00000000000E+00 0. -1.
          2   -1    0    0  502    0 -0.00000000000E+00 -0.00000000000E+00 -0.19970666963E+03  0.19970666963E+03  0.00000000000E+00 0. -1.
         24    2    1    2    0    0 -0.24668630077E+02  0.88416271066E+02 -0.79585680688E+02  0.14521631306E+03  0.79548216256E+02 0.  0.
         23    2    1    2    0    0 -0.49073697879E-01 -0.96779732921E+02 -0.30598332893E+02  0.14241072103E+03  0.99891122603E+02 0.  0.
        -11    1    3    3    0    0 -0.19014334613E+02  0.33821300972E+02  0.10077795445E+02  0.40087245868E+02  0.00000000000E+00 0.  1.
         12    1    3    3    0    0 -0.56542954639E+01  0.54594970094E+02 -0.89663476133E+02  0.10512906719E+03  0.00000000000E+00 0. -1.
        -13    1    4    4    0    0  0.19879918543E+01 -0.20359206473E+02 -0.57764572345E+02  0.61279647666E+02  0.00000000000E+00 0. -1.
         13    1    4    4    0    0 -0.20370655521E+01 -0.76420526448E+02  0.27166239452E+02  0.81131073360E+02  0.00000000000E+00 0.  1.
          1    1    1    2  501    0  0.24717703775E+02  0.83634618550E+01  0.21167964583E+03  0.21328193742E+03  0.00000000000E+00 0. -1.
<scales pt_clust_5="13000.00000" pt_clust_6="13000.00000" pt_clust_7="13000.00000" pt_clust_8="13000.00000" pt_clust_9="26.09430"></scales>
<clustering>
<clus scale="   26.094">  1  9  2 -1</clus>
<clus scale="   79.548">  5  6 -1 -1</clus>
<clus scale="   99.891">  7  8 -1 -1</clus>
<clus scale="  122.242">  2  5  1 -1</clus>
<clus scale="   26.094">  1  5  2 -1</clus>
</clustering>
</event>
<event>
 9    2  0.6190160E-005  0.1085035E+03  0.7546771E-02  0.1268290E+00
         21   -1    0    0  501  502  0.00000000000E+00  0.00000000000E+00  0.19418798022E+03  0.19418798022E+03  0.00000000000E+00 0.  1.
         -1   -1    0    0    0  501 -0.00000000000E+00 -0.00000000000E+00 -0.13173113283E+03  0.13173113283E+03  0.00000000000E+00 0.  1.
         23    2    1    2    0    0  0.47768003953E+02  0.50035710718E+02 -0.48170073160E+02  0.12471447810E+03  0.91912950943E+02 0.  0.
         24    2    1    2    0    0 -0.52454867434E+02  0.31368265859E+01  0.22693954504E+02  0.98338255932E+02  0.79962767649E+02 0.  0.
        -13    1    4    4    0    0 -0.35550160820E+02 -0.24613000314E+02  0.42216993290E+02  0.60430855043E+02  0.00000000000E+00 0.  1.
         14    1    4    4    0    0 -0.16904706614E+02  0.27749826900E+02 -0.19523038786E+02  0.37907400888E+02  0.00000000000E+00 0. -1.
        -13    1    3    3    0    0  0.75561045550E+02  0.37397547227E+02 -0.32113131677E+02  0.90218076732E+02  0.00000000000E+00 0. -1.
         13    1    3    3    0    0 -0.27793041597E+02  0.12638163491E+02 -0.16056941483E+02  0.34496401369E+02  0.00000000000E+00 0.  1.
         -2    1    1    2    0  502  0.46868634812E+01 -0.53172537304E+02  0.87932966052E+02  0.10286637901E+03  0.00000000000E+00 0.  1.
<scales pt_clust_5="13000.00000" pt_clust_6="13000.00000" pt_clust_7="13000.00000" pt_clust_8="13000.00000" pt_clust_9="53.37870"></scales>
<clustering>
<clus scale="   53.379">  1  9  2 -1</clus>
<clus scale="   79.963">  5  6 -1 -1</clus>
<clus scale="   91.913">  7  8 -1 -1</clus>
<clus scale="   98.585">  1  5  2 -1</clus>
<clus scale="   53.379">  1  5  2 -1</clus>
</clustering>
</event>
<event>
 9    2  0.6190160E-005  0.1261195E+03  0.7546771E-02  0.1236588E+00
          4   -1    0    0  502    0 -0.00000000000E+00  0.00000000000E+00  0.16362487352E+04  0.16362487352E+04  0.00000000000E+00 0. -1.
         21   -1    0    0  501  502  0.00000000000E+00 -0.00000000000E+00 -0.36784698285E+02  0.36784698285E+02  0.00000000000E+00 0.  1.
         24    2    1    2    0    0  0.37210850318E+02  0.80524442246E+02  0.14514526891E+04  0.14564469173E+04  0.81571325479E+02 0.  0.
         23    2    1    2    0    0 -0.49152532752E+02 -0.34854281194E+02  0.10788811133E+03  0.15463297313E+03  0.92955470087E+02 0.  0.
        -13    1    3    3    0    0  0.86535239085E+01  0.29993566311E+02  0.12908399841E+03  0.13280503056E+03  0.00000000000E+00 0.  1.
         14    1    3    3    0    0  0.28557326409E+02  0.50530875935E+02  0.13223686906E+04  0.13236418867E+04  0.00000000000E+00 0. -1.
        -13    1    4    4    0    0  0.17188058676E+02  0.11022216498E+02  0.62581021479E+00  0.20428173096E+02  0.00000000000E+00 0.  1.
         13    1    4    4    0    0 -0.66340591428E+02 -0.45876497693E+02  0.10726230112E+03  0.13420480003E+03  0.00000000000E+00 0. -1.
          3    1    1    2  501    0  0.11941682434E+02 -0.45670161052E+02  0.40123236555E+02  0.61953543091E+02  0.00000000000E+00 0. -1.
<scales pt_clust_5="13000.00000" pt_clust_6="13000.00000" pt_clust_7="13000.00000" pt_clust_8="13000.00000" pt_clust_9="47.20559"></scales>
<clustering>
<clus scale="   47.206">  2  9  1 -1</clus>
<clus scale="   81.571">  5  6 -1 -1</clus>
<clus scale="   92.955">  7  8 -1 -1</clus>
<clus scale="  117.980">  1  5  2 -1</clus>
<clus scale="   47.206">  2  5  1 -1</clus>
</clustering>
</event>
<event>
 9    2  0.6190160E-005  0.1055925E+03  0.7546771E-02  0.1275575E+00
         21   -1    0    0  501  502  0.00000000000E+00  0.00000000000E+00  0.46160640596E+03  0.46160640596E+03  0.00000000000E+00 0.  1.
          2   -1    0    0  502    0 -0.00000000000E+00 -0.00000000000E+00 -0.40812115852E+02  0.40812115852E+02  0.00000000000E+00 0. -1.
         24    2    1    2    0    0  0.42767447597E+02 -0.12961415967E+02  0.47346542010E+02  0.10588459791E+03  0.83503294280E+02 0.  0.
         23    2    1    2    0    0 -0.22945110834E+02  0.27956986821E+01  0.35067039590E+03  0.36467368825E+03  0.97380071384E+02 0.  0.
        -13    1    3    3    0    0 -0.10785652013E+01 -0.28854003583E+02  0.51521363068E+02  0.59060711798E+02  0.00000000000E+00 0.  1.
         14    1    3    3    0    0  0.43846012799E+02  0.15892587616E+02 -0.41748210578E+01  0.46823886109E+02  0.00000000000E+00 0. -1.
        -13    1    4    4    0    0  0.34627237817E+02 -0.17568096814E+02  0.12552214084E+03  0.13139060646E+03  0.00000000000E+00 0. -1.
         13    1    4    4    0    0 -0.57572348651E+02  0.20363795496E+02  0.22514825505E+03  0.23328308179E+03  0.00000000000E+00 0.  1.
          1    1    1    2  501    0 -0.19822336763E+02  0.10165717285E+02  0.22777352204E+02  0.31860235656E+02  0.00000000000E+00 0. -1.
<scales pt_clust_5="13000.00000" pt_clust_6="13000.00000" pt_clust_7="13000.00000" pt_clust_8="13000.00000" pt_clust_9="22.27706"></scales>
<clustering>
<clus scale="   22.277">  1  9  2 -1</clus>
<clus scale="   83.503">  5  6 -1 -1</clus>
<clus scale="   92.950">  2  5  1 -1</clus>
<clus scale="   97.380">  7  8 -1 -1</clus>
<clus scale="   22.277">  1  5  2 -1</clus>
</clustering>
</event>
<event>
 9    2  0.6190160E-005  0.2017240E+03  0.7546771E-02  0.1170426E+00
         21   -1    0    0  501  502  0.00000000000E+00  0.00000000000E+00  0.35934574302E+03  0.35934574302E+03  0.00000000000E+00 0.  1.
         -3   -1    0    0    0  501 -0.00000000000E+00 -0.00000000000E+00 -0.27774952719E+03  0.27774952719E+03  0.00000000000E+00 0.  1.
         23    2    1    2    0    0  0.60699812296E+02  0.45788170184E+02  0.17290519343E+03  0.21070963984E+03  0.93388022051E+02 0.  0.
         24    2    1    2    0    0  0.16267894474E+03 -0.13911194406E+01 -0.18410897495E+01  0.18169466167E+03  0.80889963487E+02 0.  0.
        -13    1    4    4    0    0  0.16598047130E+03 -0.15400510143E+02 -0.57079772334E+01  0.16679110759E+03  0.00000000000E+00 0.  1.
         14    1    4    4    0    0 -0.33015265613E+01  0.14009390703E+02  0.38668874840E+01  0.14903554083E+02  0.00000000000E+00 0. -1.
        -11    1    3    3    0    0  0.33620622704E+02  0.22081258638E+02  0.16989731498E+03  0.17459388847E+03  0.00000000000E+00 0. -1.
         11    1    3    3    0    0  0.27079189592E+02  0.23706911546E+02  0.30078784536E+01  0.36115751367E+02  0.00000000000E+00 0.  1.
         -4    1    1    2    0  502 -0.22337875703E+03 -0.44397050743E+02 -0.89467887857E+02  0.24469096871E+03  0.00000000000E+00 0.  1.
<scales pt_clust_5="13000.00000" pt_clust_6="13000.00000" pt_clust_7="13000.00000" pt_clust_8="13000.00000" pt_clust_9="184.79563"></scales>
<clustering>
<clus scale="   80.890">  5  6 -1 -1</clus>
<clus scale="   93.388">  7  8 -1 -1</clus>
<clus scale="  120.426">  2  7  1 -1</clus>
<clus scale="  184.796">  1  9  2 -1</clus>
<clus scale="  184.796">  1  5  2 -1</clus>
</clustering>
</event>
<event>
 9    2  0.6190160E-005  0.9777489E+02  0.7546771E-02  0.1291260E+00
         21   -1    0    0  501  502  0.00000000000E+00  0.00000000000E+00  0.83448984456E+02  0.83448984456E+02  0.00000000000E+00 0.  1.
         -3   -1    0    0    0  501 -0.00000000000E+00 -0.00000000000E+00 -0.17835309487E+03  0.17835309487E+03  0.00000000000E+00 0.  1.
         24    2    1    2    0    0 -0.34088966683E+02 -0.23968699745E+02 -0.98464835829E+02  0.13361519028E+03  0.80132009595E+02 0.  0.
         23    2    1    2    0    0  0.10492054951E+01  0.16448731287E+02  0.99209604324E+01  0.93710399457E+02  0.91714513123E+02 0.  0.
        -13    1    3    3    0    0 -0.40852192327E+02 -0.27588084875E+02 -0.10955276878E+03  0.12013248184E+03  0.00000000000E+00 0.  1.
         14    1    3    3    0    0  0.67632256443E+01  0.36193851294E+01  0.11087932951E+02  0.13482708443E+02  0.00000000000E+00 0. -1.
        -13    1    4    4    0    0  0.12891702083E+02  0.49101455663E+02 -0.12610650907E+02  0.52308483510E+02  0.00000000000E+00 0. -1.
         13    1    4    4    0    0 -0.11842496588E+02 -0.32652724376E+02  0.22531611339E+02  0.41401915948E+02  0.00000000000E+00 0.  1.
         -4    1    1    2    0  502  0.33039761188E+02  0.75199684580E+01 -0.63602350181E+01  0.34476489590E+02  0.00000000000E+00 0.  1.
<scales pt_clust_5="13000.00000" pt_clust_6="13000.00000" pt_clust_7="13000.00000" pt_clust_8="13000.00000" pt_clust_9="33.88474"></scales>
<clustering>
<clus scale="   33.885">  1  9  2 -1</clus>
<clus scale="   80.132">  5  6 -1 -1</clus>
<clus scale="   87.003">  2  5  1 -1</clus>
<clus scale="   91.715">  7  8 -1 -1</clus>
<clus scale="   33.885">  1  5  2 -1</clus>
</clustering>
</event>
<event>
 9    2  0.6190160E-005  0.1065188E+03  0.7546771E-02  0.1269309E+00
         -3   -1    0    0    0  501 -0.00000000000E+00  0.00000000000E+00  0.10176637481E+03  0.10176637481E+03  0.00000000000E+00 0.  1.
         21   -1    0    0  501  502  0.00000000000E+00 -0.00000000000E+00 -0.21918891524E+03  0.21918891524E+03  0.00000000000E+00 0.  1.
         23    2    1    2    0    0  0.41523032333E+02  0.29115707778E+02  0.18430680091E+02  0.10493701864E+03  0.90001118097E+02 0.  0.
         24    2    1    2    0    0 -0.43210991880E+02 -0.55271585625E+02 -0.40736305529E+02  0.11735618816E+03  0.84799117414E+02 0.  0.
        -13    1    4    4    0    0  0.24068563344E+02 -0.72294496451E+01 -0.20015187124E+02  0.32127377721E+02  0.00000000000E+00 0.  1.
         14    1    4    4    0    0 -0.67279555224E+02 -0.48042135980E+02 -0.20721118405E+02  0.85228810438E+02  0.00000000000E+00 0. -1.
        -13    1    3    3    0    0 -0.21671239977E+02 -0.50245165470E+01 -0.13833692615E+02  0.26196554354E+02  0.00000000000E+00 0. -1.
         13    1    3    3    0    0  0.63194272310E+02  0.34140224325E+02  0.32264372706E+02  0.78740464285E+02  0.00000000000E+00 0.  1.
         -4    1    1    2    0  502  0.16879595464E+01  0.26155877848E+02 -0.95116914996E+02  0.98662083253E+02  0.00000000000E+00 0.  1.
<scales pt_clust_5="13000.00000" pt_clust_6="13000.00000" pt_clust_7="13000.00000" pt_clust_8="13000.00000" pt_clust_9="26.21029"></scales>
<clustering>
<clus scale="   26.210">  2  9  1 -1</clus>
<clus scale="   84.799">  5  6 -1 -1</clus>
<clus scale="   90.001">  7  8 -1 -1</clus>
<clus scale="  102.161">  2  5  1 -1</clus>
<clus scale="   26.210">  2  5  1 -1</clus>
</clustering>
</event>
<event>
 9    2  0.6190160E-005  0.1361362E+03  0.7546771E-02  0.1234910E+00
         21   -1    0    0  501  502  0.00000000000E+00  0.00000000000E+00  0.33010479568E+02  0.33010479568E+02  0.00000000000E+00 0. -1.
          2   -1    0    0  502    0 -0.00000000000E+00 -0.00000000000E+00 -0.13074784689E+04  0.13074784689E+04  0.00000000000E+00 0. -1.
         23    2    1    2    0    0 -0.32648600987E+02  0.15858350342E+02 -0.11360386019E+03  0.14943372920E+03  0.90039902002E+02 0.  0.
         24    2    1    2    0    0  0.35136888933E+02  0.97473951138E+02 -0.85159009364E+03  0.86166057575E+03  0.80730961244E+02 0.  0.
        -13    1    4    4    0    0  0.42395912766E+02  0.30117445674E+02 -0.20352226436E+03  0.21006138637E+03  0.00000000000E+00 0.  1.
         14    1    4    4    0    0 -0.72590238328E+01  0.67356505464E+02 -0.64806782927E+03  0.65159918938E+03  0.00000000000E+00 0. -1.
        -11    1    3    3    0    0  0.25694190578E+01 -0.34904416770E+02 -0.35552890172E+02  0.49889159383E+02  0.00000000000E+00 0.  1.
         11    1    3    3    0    0 -0.35218020045E+02  0.50762767112E+02 -0.78050970015E+02  0.99544569822E+02  0.00000000000E+00 0. -1.
          1    1    1    2  501    0 -0.24882879461E+01 -0.11333230148E+03 -0.30927403547E+03  0.32939464348E+03  0.00000000000E+00 0. -1.
<scales pt_clust_5="13000.00000" pt_clust_6="13000.00000" pt_clust_7="13000.00000" pt_clust_8="13000.00000" pt_clust_9="109.61555"></scales>
<clustering>
<clus scale="   80.731">  5  6 -1 -1</clus>
<clus scale="   90.040">  7  8 -1 -1</clus>
<clus scale="   97.080">  2  7  1 -1</clus>
<clus scale="  109.616">  1  9  2 -1</clus>
<clus scale="  109.616">  1  5  2 -1</clus>
</clustering>
</event>
<event>
 9    2  0.6190160E-005  0.1457408E+03  0.7546771E-02  0.1207144E+00
          2   -1    0    0  502    0 -0.00000000000E+00  0.00000000000E+00  0.34028601176E+03  0.34028601176E+03  0.00000000000E+00 0. -1.
         21   -1    0    0  501  502  0.00000000000E+00 -0.00000000000E+00 -0.83686952354E+02  0.83686952354E+02  0.00000000000E+00 0. -1.
         24    2    1    2    0    0  0.10075663865E+03 -0.40581979016E+02  0.13293952369E+03  0.19187854990E+03  0.85706847454E+02 0.  0.
         23    2    1    2    0    0 -0.92132478395E+02  0.79125756994E+02  0.11645569796E+03  0.19194601152E+03  0.92369165606E+02 0.  0.
        -13    1    3    3    0    0  0.73648081351E+02 -0.60364154651E+02  0.62643349978E+02  0.11398271952E+03  0.00000000000E+00 0.  1.
         14    1    3    3    0    0  0.27108557297E+02  0.19782175635E+02  0.70296173713E+02  0.77895830378E+02  0.00000000000E+00 0. -1.
        -13    1    4    4    0    0 -0.87650982123E+02  0.38431267422E+02  0.37087716486E+02  0.10264090655E+03  0.00000000000E+00 0. -1.
         13    1    4    4    0    0 -0.44814962720E+01  0.40694489572E+02  0.79367981472E+02  0.89305104968E+02  0.00000000000E+00 0.  1.
          1    1    1    2  501    0 -0.86241602536E+01 -0.38543777979E+02  0.72038377607E+01  0.40148402701E+02  0.00000000000E+00 0. -1.
<scales pt_clust_5="13000.00000" pt_clust_6="13000.00000" pt_clust_7="13000.00000" pt_clust_8="13000.00000" pt_clust_9="39.49682"></scales>
<clustering>
<clus scale="   39.497">  2  9  1 -1</clus>
<clus scale="   85.707">  5  6 -1 -1</clus>
<clus scale="   92.369">  7  8 -1 -1</clus>
<clus scale="  141.612">  1  5  2 -1</clus>
<clus scale="   39.497">  2  5  1 -1</clus>
</clustering>
</event>
<event>
 9    2  0.8089146E-005  0.9674614E+02  0.7546771E-02  0.1289571E+00
         -1   -1    0    0    0  501 -0.00000000000E+00  0.00000000000E+00  0.40156243182E+03  0.40156243182E+03  0.00000000000E+00 0.  1.
         21   -1    0    0  501  502  0.00000000000E+00 -0.00000000000E+00 -0.87477793643E+02  0.87477793643E+02  0.00000000000E+00 0. -1.
         24    2    1    2    0    0 -0.31184997818E+02 -0.18875681208E+02  0.35208049132E+03  0.36418957888E+03  0.85700534223E+02 0.  0.
         23    2    1    2    0    0  0.25114245538E+02 -0.48555449917E+00 -0.44482767567E+02  0.10354826315E+03  0.90069779050E+02 0.  0.
        -11    1    3    3    0    0 -0.57595530104E+02 -0.68170294258E+01  0.28880884375E+03  0.29457471923E+03  0.00000000000E+00 0.  1.
         12    1    3    3    0    0  0.26410532287E+02 -0.12058651782E+02  0.63271647570E+02  0.69614859654E+02  0.00000000000E+00 0. -1.
        -13    1    4    4    0    0 -0.19627281580E+02 -0.10924133010E+02  0.16011907016E+02  0.27585286487E+02  0.00000000000E+00 0.  1.
         13    1    4    4    0    0  0.44741527118E+02  0.10438578511E+02 -0.60494674583E+02  0.75962976660E+02  0.00000000000E+00 0. -1.
         -2    1    1    2    0  502  0.60707522801E+01  0.19361235707E+02  0.64869144230E+01  0.21302383436E+02  0.00000000000E+00 0.  1.
<scales pt_clust_5="13000.00000" pt_clust_6="13000.00000" pt_clust_7="13000.00000" pt_clust_8="13000.00000" pt_clust_9="20.29067"></scales>
<clustering>
<clus scale="   20.291">  2  9  1 -1</clus>
<clus scale="   85.701">  5  6 -1 -1</clus>
<clus scale="   90.070">  7  8 -1 -1</clus>
<clus scale="   92.692">  1  5  2 -1</clus>
<clus scale="   20.291">  2  5  1 -1</clus>
</clustering>
</event>
<event>
 9    2  0.6190160E-005  0.1591829E+03  0.7546771E-02  0.1207106E+00
         21   -1    0    0  501  502  0.00000000000E+00  0.00000000000E+00  0.12446428782E+03  0.12446428782E+03  0.00000000000E+00 0. -1.
          2   -1    0    0  502    0 -0.00000000000E+00 -0.00000000000E+00 -0.38990337674E+03  0.38990337674E+03  0.00000000000E+00 0. -1.
         23    2    1    2    0    0  0.20462187625E+02 -0.68062971804E+02 -0.15509389373E+03  0.18943428809E+03  0.82340539099E+02 0.  0.
         24    2    1    2    0    0 -0.14260697364E+03 -0.32988920606E+01 -0.68831820785E+02  0.17750466616E+03  0.80140222966E+02 0.  0.
        -11    1    4    4    0    0 -0.84757037959E+01  0.18215472858E+02  0.77804080161E+01  0.21544738457E+02  0.00000000000E+00 0.  1.
         12    1    4    4    0    0 -0.13413126985E+03 -0.21514364918E+02 -0.76612228801E+02  0.15595992771E+03  0.00000000000E+00 0. -1.
        -11    1    3    3    0    0 -0.20846806570E+02 -0.15918574957E+02 -0.99004034049E+02  0.10241967160E+03  0.00000000000E+00 0.  1.
         11    1    3    3    0    0  0.41308994196E+02 -0.52144396847E+02 -0.56089859681E+02  0.87014616491E+02  0.00000000000E+00 0. -1.
          1    1    1    2  501    0  0.12214478602E+03  0.71361863864E+02 -0.41513374404E+02  0.14742871030E+03  0.00000000000E+00 0. -1.
<scales pt_clust_5="13000.00000" pt_clust_6="13000.00000" pt_clust_7="13000.00000" pt_clust_8="13000.00000" pt_clust_9="137.53818"></scales>
<clustering>
<clus scale="   80.140">  5  6 -1 -1</clus>
<clus scale="   82.341">  7  8 -1 -1</clus>
<clus scale="  108.771">  2  7  1 -1</clus>
<clus scale="  137.538">  1  9  2 -1</clus>
<clus scale="  137.538">  1  5  2 -1</clus>
</clustering>
</event>
<event>
 9    2  0.6190160E-005  0.2753628E+03  0.7546771E-02  0.1122180E+00
         21   -1    0    0  501  502  0.00000000000E+00  0.00000000000E+00  0.54137427315E+03  0.54137427315E+03  0.00000000000E+00 0.  1.
          2   -1    0    0  502    0 -0.00000000000E+00 -0.00000000000E+00 -0.24544998063E+03  0.24544998063E+03  0.00000000000E+00 0. -1.
         23    2    1    2    0    0  0.10591379747E+03 -0.53997671192E+02 -0.16129860397E+02  0.15057449174E+03  0.90989143194E+02 0.  0.
         24    2    1    2    0    0  0.55904571176E+02 -0.21694208770E+03  0.11364224756E+03  0.26347527047E+03  0.79469913951E+02 0.  0.
        -13    1    4    4    0    0 -0.17884049212E+02 -0.23657995675E+02  0.23324651890E+02  0.37730350665E+02  0.00000000000E+00 0.  1.
         14    1    4    4    0    0  0.73788620387E+02 -0.19328409202E+03  0.90317595670E+02  0.22574491980E+03  0.00000000000E+00 0. -1.
        -13    1    3    3    0    0  0.43216016319E+02 -0.27730203410E+02 -0.52535923208E+02  0.73461632673E+02  0.00000000000E+00 0. -1.
         13    1    3    3    0    0  0.62697781146E+02 -0.26267467782E+02  0.36406062811E+02  0.77112859068E+02  0.00000000000E+00 0.  1.
          1    1    1    2  501    0 -0.16181836864E+03  0.27093975889E+03  0.19841190536E+03  0.37277449157E+03  0.00000000000E+00 0. -1.
<scales pt_clust_5="13000.00000" pt_clust_6="13000.00000" pt_clust_7="13000.00000" pt_clust_8="13000.00000" pt_clust_9="263.64608"></scales>
<clustering>
<clus scale="   79.470">  5  6 -1 -1</clus>
<clus scale="   90.989">  7  8 -1 -1</clus>
<clus scale="  149.708">  2  7  1 -1</clus>
<clus scale="  263.646">  1  9  2 -1</clus>
<clus scale="  263.646">  1  5  2 -1</clus>
</clustering>
</event>
<event>
 9    2  0.6190160E-005  0.2729647E+03  0.7546771E-02  0.1137186E+00
         21   -1    0    0  501  502  0.00000000000E+00  0.00000000000E+00  0.24460074188E+03  0.24460074188E+03  0.00000000000E+00 0.  1.
         -3   -1    0    0    0  501 -0.00000000000E+00 -0.00000000000E+00 -0.71853573921E+03  0.71853573921E+03  0.00000000000E+00 0.  1.
         23    2    1    2    0    0  0.13893622642E+02  0.45558959299E+02 -0.31410258955E+03  0.33159887227E+03  0.95019596956E+02 0.  0.
         24    2    1    2    0    0  0.15095432327E+03 -0.22272244921E+03  0.79151331151E+02  0.29142736949E+03  0.79198998533E+02 0.  0.
        -13    1    4    4    0    0  0.15506373980E+03 -0.21326220304E+03  0.61141094023E+02  0.27067279883E+03  0.00000000000E+00 0.  1.
         14    1    4    4    0    0 -0.41094165355E+01 -0.94602461680E+01  0.18010237128E+02  0.20754570659E+02  0.00000000000E+00 0. -1.
        -13    1    3    3    0    0 -0.18990822211E+02 -0.21500106945E+02 -0.56180886388E+02  0.63080883969E+02  0.00000000000E+00 0. -1.
         13    1    3    3    0    0  0.32884444853E+02  0.67059066245E+02 -0.25792170317E+03  0.26851798830E+03  0.00000000000E+00 0.  1.
         -4    1    1    2    0  502 -0.16484794591E+03  0.17716348991E+03 -0.23898373893E+03  0.34011023933E+03  0.00000000000E+00 0.  1.
<scales pt_clust_5="13000.00000" pt_clust_6="13000.00000" pt_clust_7="13000.00000" pt_clust_8="13000.00000" pt_clust_9="261.22274"></scales>
<clustering>
<clus scale="   79.199">  5  6 -1 -1</clus>
<clus scale="   95.020">  7  8 -1 -1</clus>
<clus scale="  106.289">  2  7  1 -1</clus>
<clus scale="  261.223">  1  9  2 -1</clus>
<clus scale="  261.223">  1  5  2 -1</clus>
</clustering>
</event>
<event>
 9    2  0.6190160E-005  0.9080542E+02  0.7546771E-02  0.1307275E+00
         21   -1    0    0  501  502  0.00000000000E+00  0.00000000000E+00  0.36663894970E+03  0.36663894970E+03  0.00000000000E+00 0.  1.
         -1   -1    0    0    0  501 -0.00000000000E+00 -0.00000000000E+00 -0.50174229487E+02  0.50174229487E+02  0.00000000000E+00 0.  1.
         23    2    1    2    0    0 -0.16363557393E+01 -0.76836680598E+01  0.20440017026E+02  0.93389025842E+02  0.90785458289E+02 0.  0.
         24    2    1    2    0    0  0.16570635494E+01 -0.34398668482E+02  0.21121831157E+03  0.22875078044E+03  0.80794369590E+02 0.  0.
        -11    1    4    4    0    0  0.43549634628E+00 -0.50430130087E+02  0.20563819434E+03  0.21173203501E+03  0.00000000000E+00 0.  1.
         12    1    4    4    0    0  0.12215672032E+01  0.16031461605E+02  0.55801172212E+01  0.17018745425E+02  0.00000000000E+00 0. -1.
        -13    1    3    3    0    0  0.29242064234E+02 -0.10159279157E+02 -0.24033172261E+02  0.39190593802E+02  0.00000000000E+00 0.  1.
         13    1    3    3    0    0 -0.30878419973E+02  0.24756110969E+01  0.44473189286E+02  0.54198432040E+02  0.00000000000E+00 0. -1.
         -2    1    1    2    0  502 -0.20707810180E-01  0.42082336542E+02  0.84806391627E+02  0.94673372911E+02  0.00000000000E+00 0.  1.
<scales pt_clust_5="13000.00000" pt_clust_6="13000.00000" pt_clust_7="13000.00000" pt_clust_8="13000.00000" pt_clust_9="42.08234"></scales>
<clustering>
<clus scale="   42.082">  1  9  2 -1</clus>
<clus scale="   80.794">  5  6 -1 -1</clus>
<clus scale="   80.817">  1  5  2 -1</clus>
<clus scale="   90.785">  7  8 -1 -1</clus>
<clus scale="   42.082">  1  5  2 -1</clus>
</clustering>
</event>
<event>
 9    2  0.6190160E-005  0.1614690E+03  0.7546771E-02  0.1187843E+00
          2   -1    0    0  502    0 -0.00000000000E+00  0.00000000000E+00  0.96250186058E+03  0.96250186058E+03  0.00000000000E+00 0. -1.
         21   -1    0    0  501  502  0.00000000000E+00 -0.00000000000E+00 -0.64734041188E+02  0.64734041188E+02  0.00000000000E+00 0. -1.
         24    2    1    2    0    0 -0.48772129895E+02  0.13497588104E+03  0.66571434556E+03  0.68862041270E+03  0.10210423005E+03 0.  0.
         23    2    1    2    0    0  0.67838476833E+02 -0.73344683836E+02  0.23573549475E+03  0.27399747817E+03  0.97580187397E+02 0.  0.
        -11    1    3    3    0    0  0.29822875842E+02  0.36395338774E+02  0.24263351049E+03  0.24715388935E+03  0.00000000000E+00 0.  1.
         12    1    3    3    0    0 -0.78595005738E+02  0.98580542266E+02  0.42308083507E+03  0.44146652336E+03  0.00000000000E+00 0. -1.
        -11    1    4    4    0    0 -0.10474885206E+02 -0.55792328536E+02  0.72325537207E+02  0.91942865280E+02  0.00000000000E+00 0.  1.
         11    1    4    4    0    0  0.78313362039E+02 -0.17552355300E+02  0.16340995754E+03  0.18205461289E+03  0.00000000000E+00 0. -1.
          1    1    1    2  501    0 -0.19066346937E+02 -0.61631197204E+02 -0.36820209130E+01  0.64618010897E+02  0.00000000000E+00 0. -1.
<scales pt_clust_5="13000.00000" pt_clust_6="13000.00000" pt_clust_7="13000.00000" pt_clust_8="13000.00000" pt_clust_9="64.51302"></scales>
<clustering>
<clus scale="   64.513">  2  9  1 -1</clus>
<clus scale="   97.580">  7  8 -1 -1</clus>
<clus scale="  102.104">  5  6 -1 -1</clus>
<clus scale="  158.647">  2  7  1 -1</clus>
<clus scale="   64.513">  2  5  1 -1</clus>
</clustering>
</event>
<event>
 9    2  0.6190160E-005  0.2673716E+03  0.7546771E-02  0.1106786E+00
         21   -1    0    0  501  502  0.00000000000E+00  0.00000000000E+00  0.25631023940E+03  0.25631023940E+03  0.00000000000E+00 0.  1.
         -1   -1    0    0    0  501 -0.00000000000E+00 -0.00000000000E+00 -0.65439752036E+03  0.65439752036E+03  0.00000000000E+00 0.  1.
         24    2    1    2    0    0 -0.71919348745E+02  0.21585739175E+03 -0.55139409498E+02  0.24750001435E+03  0.80306265794E+02 0.  0.
         23    2    1    2    0    0  0.23333921967E+03  0.37254153254E+02 -0.22814542054E+03  0.34180234459E+03  0.94569796877E+02 0.  0.
        -13    1    3    3    0    0 -0.50674752204E+02  0.12386010408E+03  0.77576688605E+01  0.13405012987E+03  0.00000000000E+00 0.  1.
         14    1    3    3    0    0 -0.21244596540E+02  0.91997287674E+02 -0.62897078359E+02  0.11344988448E+03  0.00000000000E+00 0. -1.
        -13    1    4    4    0    0  0.54023429074E+02  0.51442461897E+02 -0.69722470938E+02  0.10210818150E+03  0.00000000000E+00 0. -1.
         13    1    4    4    0    0  0.17931579059E+03 -0.14188308643E+02 -0.15842294960E+03  0.23969416309E+03  0.00000000000E+00 0.  1.
         -2    1    1    2    0  502 -0.16141987092E+03 -0.25311154500E+03 -0.11480245092E+03  0.32140540083E+03  0.00000000000E+00 0.  1.
<scales pt_clust_5="13000.00000" pt_clust_6="13000.00000" pt_clust_7="13000.00000" pt_clust_8="13000.00000" pt_clust_9="250.08824"></scales>
<clustering>
<clus scale="   80.306">  5  6 -1 -1</clus>
<clus scale="   94.570">  7  8 -1 -1</clus>
<clus scale="  241.280">  2  5  1 -1</clus>
<clus scale="  250.088">  1  9  2 -1</clus>
<clus scale="  250.088">  1  5  2 -1</clus>
</clustering>
</event>
<event>
 9    2  0.6190160E-005  0.1591741E+03  0.7546771E-02  0.1213389E+00
         -1   -1    0    0    0  501 -0.00000000000E+00  0.00000000000E+00  0.19421276982E+03  0.19421276982E+03  0.00000000000E+00 0.  1.
         21   -1    0    0  501  502  0.00000000000E+00 -0.00000000000E+00 -0.88616623618E+03  0.88616623618E+03  0.00000000000E+00 0.  1.
         24    2    1    2    0    0 -0.35532036337E+02 -0.36358378637E+02 -0.58896577241E+02  0.11189133141E+03  0.80413966012E+02 0.  0.
         23    2    1    2    0    0 -0.28412315288E+02 -0.79035494790E+02  0.13834432703E+03  0.18588658694E+03  0.91437417328E+02 0.  0.
        -13    1    3    3    0    0 -0.40410624746E+02  0.15123184722E+02 -0.31046542302E+02  0.53156533910E+02  0.00000000000E+00 0.  1.
         14    1    3    3    0    0  0.48785884087E+01 -0.51481563359E+02 -0.27850034939E+02  0.58734797496E+02  0.00000000000E+00 0. -1.
        -13    1    4    4    0    0  0.16432983424E+02 -0.77459563845E+02  0.84699957720E+02  0.11594873787E+03  0.00000000000E+00 0. -1.
         13    1    4    4    0    0 -0.44845298711E+02 -0.15759309450E+01  0.53644369308E+02  0.69937849075E+02  0.00000000000E+00 0.  1.
         -2    1    1    2    0  502  0.63944351625E+02  0.11539387343E+03 -0.77140121615E+03  0.78260108766E+03  0.00000000000E+00 0.  1.
<scales pt_clust_5="13000.00000" pt_clust_6="13000.00000" pt_clust_7="13000.00000" pt_clust_8="13000.00000" pt_clust_9="130.29047"></scales>
<clustering>
<clus scale="   80.414">  5  6 -1 -1</clus>
<clus scale="   91.437">  7  8 -1 -1</clus>
<clus scale="   95.136">  1  5  2 -1</clus>
<clus scale="  130.290">  2  9  1 -1</clus>
<clus scale="  130.290">  2  5  1 -1</clus>
</clustering>
</event>
<event>
 9    2  0.6190160E-005  0.4193636E+03  0.7546771E-02  0.1091251E+00
          2   -1    0    0  502    0 -0.00000000000E+00  0.00000000000E+00  0.41906886147E+03  0.41906886147E+03  0.00000000000E+00 0. -1.
         21   -1    0    0  501  502  0.00000000000E+00 -0.00000000000E+00 -0.53163601283E+03  0.53163601283E+03  0.00000000000E+00 0.  1.
         23    2    1    2    0    0 -0.43195034463E+01 -0.26858414488E+02  0.28351665768E+02  0.97842942269E+02  0.89606873962E+02 0.  0.
         24    2    1    2    0    0  0.29359159965E+03  0.30123767378E+03 -0.14980800292E+03  0.45406205591E+03  0.82399935586E+02 0.  0.
        -11    1    4    4    0    0  0.28545685976E+03  0.28144744966E+03 -0.15836244207E+03  0.43101850165E+03  0.00000000000E+00 0.  1.
         12    1    4    4    0    0  0.81347398851E+01  0.19790224123E+02  0.85544391427E+01  0.23043554259E+02  0.00000000000E+00 0. -1.
        -11    1    3    3    0    0 -0.33158026113E+02  0.14133455694E+02 -0.67270123782E+01  0.36666905530E+02  0.00000000000E+00 0. -1.
         11    1    3    3    0    0  0.28838522667E+02 -0.40991870182E+02  0.35078678146E+02  0.61176036739E+02  0.00000000000E+00 0.  1.
          1    1    1    2  501    0 -0.28927209620E+03 -0.27437925929E+03  0.88891858005E+01  0.39879987612E+03  0.00000000000E+00 0. -1.
<scales pt_clust_5="13000.00000" pt_clust_6="13000.00000" pt_clust_7="13000.00000" pt_clust_8="13000.00000" pt_clust_9="411.18885"></scales>
<clustering>
<clus scale="   82.400">  5  6 -1 -1</clus>
<clus scale="   89.607">  7  8 -1 -1</clus>
<clus scale="   93.645">  1  7  2 -1</clus>
<clus scale="  411.189">  2  9  1 -1</clus>
<clus scale="  411.189">  2  5  1 -1</clus>
</clustering>
</event>
<event>
 9    2  0.6190160E-005  0.1173101E+03  0.7546771E-02  0.1251783E+00
          4   -1    0    0  502    0 -0.00000000000E+00  0.00000000000E+00  0.12562329289E+03  0.12562329289E+03  0.00000000000E+00 0. -1.
         21   -1    0    0  501  502  0.00000000000E+00 -0.00000000000E+00 -0.43928341020E+03  0.43928341020E+03  0.00000000000E+00 0.  1.
         23    2    1    2    0    0 -0.67831674428E+01  0.65953189681E+02  0.62009104367E+02  0.12949235682E+03  0.92343418070E+02 0.  0.
         24    2    1    2    0    0  0.56216844407E+02 -0.11462301181E+03 -0.25208524101E+03  0.29369123496E+03  0.80055008121E+02 0.  0.
        -13    1    4    4    0    0  0.45463013261E+02 -0.11373215692E+03 -0.25467220402E+03  0.28259479930E+03  0.00000000000E+00 0.  1.
         14    1    4    4    0    0  0.10753831146E+02 -0.89085489027E+00  0.25869630066E+01  0.11096435660E+02  0.00000000000E+00 0. -1.
        -11    1    3    3    0    0 -0.12102669588E+02  0.35658171203E+02  0.83749921174E+02  0.91826080617E+02  0.00000000000E+00 0. -1.
         11    1    3    3    0    0  0.53195021453E+01  0.30295018477E+02 -0.21740816807E+02  0.37666276204E+02  0.00000000000E+00 0.  1.
          3    1    1    2  501    0 -0.49433676964E+02  0.48669822127E+02 -0.12358398067E+03  0.14172311132E+03  0.00000000000E+00 0. -1.
<scales pt_clust_5="13000.00000" pt_clust_6="13000.00000" pt_clust_7="13000.00000" pt_clust_8="13000.00000" pt_clust_9="69.37175"></scales>
<clustering>
<clus scale="   69.372">  2  9  1 -1</clus>
<clus scale="   80.055">  5  6 -1 -1</clus>
<clus scale="   92.343">  7  8 -1 -1</clus>
<clus scale="  107.903">  2  5  1 -1</clus>
<clus scale="   69.372">  2  5  1 -1</clus>
</clustering>
</event>
<event>
 9    2  0.6190160E-005  0.1022048E+03  0.7546771E-02  0.1282013E+00
          2   -1    0    0  502    0 -0.00000000000E+00  0.00000000000E+00  0.26400322000E+03  0.26400322000E+03  0.00000000000E+00 0. -1.
         21   -1    0    0  501  502  0.00000000000E+00 -0.00000000000E+00 -0.58256012544E+02  0.58256012544E+02  0.00000000000E+00 0.  1.
         23    2    1    2    0    0 -0.46607698206E+00  0.49586445405E+02  0.16429752287E+03  0.19514192573E+03  0.92885210678E+02 0.  0.
         24    2    1    2    0    0 -0.13008934570E+02 -0.25266997436E+02  0.10561166089E+02  0.85558769050E+02  0.80006944661E+02 0.  0.
        -11    1    4    4    0    0 -0.19783514356E+02  0.12821218435E+02 -0.24029949288E+02  0.33663177884E+02  0.00000000000E+00 0.  1.
         12    1    4    4    0    0  0.67745797861E+01 -0.38088215871E+02  0.34591115376E+02  0.51895591166E+02  0.00000000000E+00 0. -1.
        -11    1    3    3    0    0  0.41112321648E+02  0.42452090217E+02  0.68512737961E+02  0.90478716934E+02  0.00000000000E+00 0. -1.
         11    1    3    3    0    0 -0.41578398630E+02  0.71343551885E+01  0.95784784906E+02  0.10466320880E+03  0.00000000000E+00 0.  1.
          1    1    1    2  501    0  0.13475011552E+02 -0.24319447969E+02  0.30888518503E+02  0.41558537765E+02  0.00000000000E+00 0. -1.
<scales pt_clust_5="13000.00000" pt_clust_6="13000.00000" pt_clust_7="13000.00000" pt_clust_8="13000.00000" pt_clust_9="27.80310"></scales>
<clustering>
<clus scale="   27.803">  2  9  1 -1</clus>
<clus scale="   80.007">  5  6 -1 -1</clus>
<clus scale="   90.660">  2  5  1 -1</clus>
<clus scale="   92.885">  7  8 -1 -1</clus>
<clus scale="   27.803">  2  5  1 -1</clus>
</clustering>
</event>
<event>
 9    2  0.6190160E-005  0.1174282E+03  0.7546771E-02  0.1267289E+00
         -3   -1    0    0    0  501 -0.00000000000E+00  0.00000000000E+00  0.12156989380E+03  0.12156989380E+03  0.00000000000E+00 0.  1.
         21   -1    0    0  501  502  0.00000000000E+00 -0.00000000000E+00 -0.17991673352E+03  0.17991673352E+03  0.00000000000E+00 0.  1.
         24    2    1    2    0    0  0.72580660249E+00  0.19706079246E+02 -0.59444525453E+02  0.99105167063E+02  0.76807071145E+02 0.  0.
         23    2    1    2    0    0 -0.73710791298E+02  0.12773843751E+02 -0.23838227830E+02  0.11869422602E+03  0.89014641192E+02 0.  0.
        -13    1    3    3    0    0 -0.77947073538E+00  0.48749160323E+02 -0.46131261126E+02  0.67120648536E+02  0.00000000000E+00 0.  1.
         14    1    3    3    0    0  0.15052773379E+01 -0.29043081078E+02 -0.13313264327E+02  0.31984518527E+02  0.00000000000E+00 0. -1.
        -11    1    4    4    0    0 -0.21976000570E+02 -0.36010864800E+02 -0.21961478934E+02  0.47560840423E+02  0.00000000000E+00 0.  1.
         11    1    4    4    0    0 -0.51734790728E+02  0.48784708552E+02 -0.18767488957E+01  0.71133385598E+02  0.00000000000E+00 0. -1.
         -4    1    1    2    0  502  0.72984984696E+02 -0.32479922997E+02  0.24935913564E+02  0.83687234237E+02  0.00000000000E+00 0.  1.
<scales pt_clust_5="13000.00000" pt_clust_6="13000.00000" pt_clust_7="13000.00000" pt_clust_8="13000.00000" pt_clust_9="76.58834"></scales>
<clustering>
<clus scale="   76.807">  5  6 -1 -1</clus>
<clus scale="   79.298">  1  5  2 -1</clus>
<clus scale="   76.588">  2  9  1 -1</clus>
<clus scale="   89.015">  7  8 -1 -1</clus>
<clus scale="   76.588">  2  5  1 -1</clus>
</clustering>
</event>
<event>
 9    2  0.6190160E-005  0.1090418E+03  0.7546771E-02  0.1267849E+00
          2   -1    0    0  502    0 -0.00000000000E+00  0.00000000000E+00  0.69493764928E+03  0.69493764928E+03  0.00000000000E+00 0. -1.
         21   -1    0    0  501  502  0.00000000000E+00 -0.00000000000E+00 -0.27931153407E+02  0.27931153407E+02  0.00000000000E+00 0.  1.
         24    2    1    2    0    0  0.12977520083E+01 -0.66277875615E+02  0.31968209173E+03  0.33640736187E+03  0.81110001794E+02 0.  0.
         23    2    1    2    0    0 -0.46604717180E+02  0.27850834087E+02  0.20058725794E+03  0.22815430677E+03  0.94188486707E+02 0.  0.
        -11    1    3    3    0    0  0.10771271875E+02 -0.83228873671E+02  0.27862561486E+03  0.29099020425E+03  0.00000000000E+00 0.  1.
         12    1    3    3    0    0 -0.94735198671E+01  0.16950998056E+02  0.41056476872E+02  0.45417157626E+02  0.00000000000E+00 0. -1.
        -11    1    4    4    0    0 -0.42445675917E+02  0.57502637881E+02  0.17401859940E+03  0.18812405934E+03  0.00000000000E+00 0. -1.
         11    1    4    4    0    0 -0.41590412628E+01 -0.29651803794E+02  0.26568658538E+02  0.40030247426E+02  0.00000000000E+00 0.  1.
          1    1    1    2  501    0  0.45306965172E+02  0.38427041528E+02  0.14673714620E+03  0.15830713404E+03  0.00000000000E+00 0. -1.
<scales pt_clust_5="13000.00000" pt_clust_6="13000.00000" pt_clust_7="13000.00000" pt_clust_8="13000.00000" pt_clust_9="59.40843"></scales>
<clustering>
<clus scale="   59.408">  2  9  1 -1</clus>
<clus scale="   81.110">  5  6 -1 -1</clus>
<clus scale="   94.188">  7  8 -1 -1</clus>
<clus scale="   97.967">  1  5  2 -1</clus>
<clus scale="   59.408">  2  5  1 -1</clus>
</clustering>
</event>
<event>
 9    2  0.6190160E-005  0.1485101E+03  0.7546771E-02  0.1204523E+00
          2   -1    0    0  502    0 -0.00000000000E+00  0.00000000000E+00  0.21182148172E+03  0.21182148172E+03  0.00000000000E+00 0. -1.
         21   -1    0    0  501  502  0.00000000000E+00 -0.00000000000E+00 -0.20925881586E+03  0.20925881586E+03  0.00000000000E+00 0.  1.
         24    2    1    2    0    0 -0.11254023078E+03 -0.84922931920E+02  0.91487415873E+02  0.18599970998E+03  0.79678961698E+02 0.  0.
         23    2    1    2    0    0  0.40157817087E+02  0.78955281785E+02 -0.97712466808E+01  0.12765571269E+03  0.91399764369E+02 0.  0.
        -11    1    3    3    0    0 -0.78641819980E+01 -0.39191029572E+02  0.51019475464E+02  0.64813339939E+02  0.00000000000E+00 0.  1.
         12    1    3    3    0    0 -0.10467604879E+03 -0.45731902348E+02  0.40467940409E+02  0.12118637004E+03  0.00000000000E+00 0. -1.
        -11    1    4    4    0    0  0.63689141279E+02  0.75950127674E+02 -0.21141133927E+02  0.10134927802E+03  0.00000000000E+00 0.  1.
         11    1    4    4    0    0 -0.23531324192E+02  0.30051541101E+01  0.11369887247E+02  0.26306434677E+02  0.00000000000E+00 0. -1.
          1    1    1    2  501    0  0.72382413698E+02  0.59676501352E+01 -0.79153503330E+02  0.10742487491E+03  0.00000000000E+00 0. -1.
<scales pt_clust_5="13000.00000" pt_clust_6="13000.00000" pt_clust_7="13000.00000" pt_clust_8="13000.00000" pt_clust_9="72.62800"></scales>
<clustering>
<clus scale="   72.628">  2  9  1 -1</clus>
<clus scale="   79.679">  5  6 -1 -1</clus>
<clus scale="   91.400">  7  8 -1 -1</clus>
<clus scale="  141.598">  1  5  2 -1</clus>
<clus scale="   72.628">  2  5  1 -1</clus>
</clustering>
</event>
<event>
 9    2  0.6190160E-005  0.9520966E+02  0.7546771E-02  0.1294183E+00
         -1   -1    0    0    0  501 -0.00000000000E+00  0.00000000000E+00  0.68586117694E+02  0.68586117694E+02  0.00000000000E+00 0.  1.
         21   -1    0    0  501  502  0.00000000000E+00 -0.00000000000E+00 -0.26024398385E+03  0.26024398385E+03  0.00000000000E+00 0. -1.
         23    2    1    2    0    0 -0.15839196539E+02  0.19534270904E+02 -0.48528906566E+01  0.94529712694E+02  0.90993670920E+02 0.  0.
         24    2    1    2    0    0  0.45112739599E+01 -0.44157926394E+02 -0.18358830435E+03  0.20700582505E+03  0.84714060540E+02 0.  0.
        -11    1    4    4    0    0 -0.28791764903E+02  0.11282205307E+02 -0.56562974259E+02  0.64464129094E+02  0.00000000000E+00 0.  1.
         12    1    4    4    0    0  0.33303038863E+02 -0.55440131701E+02 -0.12702533009E+03  0.14254169596E+03  0.00000000000E+00 0. -1.
        -13    1    3    3    0    0  0.19632219259E+02  0.28753389360E+02  0.28486013292E+02  0.44984823953E+02  0.00000000000E+00 0.  1.
         13    1    3    3    0    0 -0.35471415798E+02 -0.92191184561E+01 -0.33338903949E+02  0.49544888741E+02  0.00000000000E+00 0. -1.
         -2    1    1    2    0  502  0.11327922579E+02  0.24623655489E+02 -0.32166711421E+01  0.27294563797E+02  0.00000000000E+00 0.  1.
<scales pt_clust_5="13000.00000" pt_clust_6="13000.00000" pt_clust_7="13000.00000" pt_clust_8="13000.00000" pt_clust_9="27.10437"></scales>
<clustering>
<clus scale="   27.104">  2  9  1 -1</clus>
<clus scale="   84.714">  5  6 -1 -1</clus>
<clus scale="   89.227">  2  5  1 -1</clus>
<clus scale="   90.994">  7  8 -1 -1</clus>
<clus scale="   27.104">  2  5  1 -1</clus>
</clustering>
</event>
<event>
 9    2  0.6190160E-005  0.1291037E+03  0.7546771E-02  0.1262712E+00
          2   -1    0    0  502    0 -0.00000000000E+00  0.00000000000E+00  0.85297824540E+03  0.85297824540E+03  0.00000000000E+00 0. -1.
         21   -1    0    0  501  502  0.00000000000E+00 -0.00000000000E+00 -0.26970718722E+02  0.26970718722E+02  0.00000000000E+00 0. -1.
         24    2    1    2    0    0 -0.39437526931E+02  0.54205018785E+01  0.24423132075E+03  0.25279507405E+03  0.51688596995E+02 0.  0.
         23    2    1    2    0    0 -0.71858210830E+02  0.21234008276E+02  0.25050657289E+03  0.27667311466E+03  0.90443262578E+02 0.  0.
        -11    1    3    3    0    0 -0.42383895461E+02  0.21819052068E+02  0.19785394582E+03  0.20351572299E+03  0.00000000000E+00 0.  1.
         12    1    3    3    0    0  0.29463685307E+01 -0.16398550189E+02  0.46377374929E+02  0.49279351063E+02  0.00000000000E+00 0. -1.
        -11    1    4    4    0    0 -0.88635395375E+02  0.99553022783E+00  0.16616430771E+03  0.18832897162E+03  0.00000000000E+00 0. -1.
         11    1    4    4    0    0  0.16777184545E+02  0.20238478048E+02  0.84342265179E+02  0.88344143045E+02  0.00000000000E+00 0.  1.
          1    1    1    2  501    0  0.11129573776E+03 -0.26654510155E+02  0.33126963304E+03  0.35048077541E+03  0.00000000000E+00 0. -1.
<scales pt_clust_5="13000.00000" pt_clust_6="13000.00000" pt_clust_7="13000.00000" pt_clust_8="13000.00000" pt_clust_9="92.12922"></scales>
<clustering>
<clus scale="   51.689">  5  6 -1 -1</clus>
<clus scale="   65.241">  1  5  2 -1</clus>
<clus scale="   90.443">  7  8 -1 -1</clus>
<clus scale="   92.129">  2  9  1 -1</clus>
<clus scale="   92.129">  2  5  1 -1</clus>
</clustering>
</event>
<event>
 9    2  0.6190160E-005  0.9598224E+02  0.7546771E-02  0.1290423E+00
         21   -1    0    0  501  502  0.00000000000E+00  0.00000000000E+00  0.26201278866E+02  0.26201278866E+02  0.00000000000E+00 0.  1.
          2   -1    0    0  502    0 -0.00000000000E+00 -0.00000000000E+00 -0.73569021058E+03  0.73569021058E+03  0.00000000000E+00 0. -1.
         24    2    1    2    0    0 -0.17397302502E+02  0.49621762054E+02 -0.23730337697E+03  0.25840161342E+03  0.87712688308E+02 0.  0.
         23    2    1    2    0    0  0.25375567169E+02  0.69342043689E+01 -0.15631523119E+03  0.18249721047E+03  0.90436595061E+02 0.  0.
        -11    1    3    3    0    0 -0.20073272901E+02  0.67755846941E+02 -0.11681365185E+03  0.13652552999E+03  0.00000000000E+00 0.  1.
         12    1    3    3    0    0  0.26759703994E+01 -0.18134084887E+02 -0.12048972512E+03  0.12187608343E+03  0.00000000000E+00 0. -1.
        -11    1    4    4    0    0  0.56230265544E+02  0.21314103592E+02 -0.98565812873E+02  0.11546147947E+03  0.00000000000E+00 0. -1.
         11    1    4    4    0    0 -0.30854698375E+02 -0.14379899223E+02 -0.57749418317E+02  0.67035730991E+02  0.00000000000E+00 0.  1.
          1    1    1    2  501    0 -0.79782646670E+01 -0.56555966423E+02 -0.31587032355E+03  0.32099266557E+03  0.00000000000E+00 0. -1.
<scales pt_clust_5="13000.00000" pt_clust_6="13000.00000" pt_clust_7="13000.00000" pt_clust_8="13000.00000" pt_clust_9="57.11596"></scales>
<clustering>
<clus scale="   57.116">  1  9  2 -1</clus>
<clus scale="   87.713">  5  6 -1 -1</clus>
<clus scale="   90.437">  7  8 -1 -1</clus>
<clus scale="   93.420">  2  5  1 -1</clus>
<clus scale="   57.116">  1  5  2 -1</clus>
</clustering>
</event>
<event>
 9    2  0.6190160E-005  0.9424964E+02  0.7546771E-02  0.1299004E+00
         21   -1    0    0  501  502  0.00000000000E+00  0.00000000000E+00  0.32062156836E+03  0.32062156836E+03  0.00000000000E+00 0.  1.
         -1   -1    0    0    0  501 -0.00000000000E+00 -0.00000000000E+00 -0.17637419574E+03  0.17637419574E+03  0.00000000000E+00 0.  1.
         23    2    1    2    0    0 -0.61378382619E+01 -0.19943730384E+02 -0.10790854571E+03  0.14254263092E+03  0.90767405771E+02 0.  0.
         24    2    1    2    0    0  0.41129453461E+02  0.18266899930E+02 -0.76652574859E+01  0.92280922030E+02  0.80197885404E+02 0.  0.
        -13    1    4    4    0    0  0.26991643179E+02 -0.30399062899E+02  0.19471007253E+01  0.40699422943E+02  0.00000000000E+00 0.  1.
         14    1    4    4    0    0  0.14137810282E+02  0.48665962829E+02 -0.96123582112E+01  0.51581499087E+02  0.00000000000E+00 0. -1.
        -11    1    3    3    0    0 -0.24083289087E+02  0.90338172404E+01  0.35713322608E+01  0.25968617239E+02  0.00000000000E+00 0. -1.
         11    1    3    3    0    0  0.17945450826E+02 -0.28977547625E+02 -0.11147987797E+03  0.11657401368E+03  0.00000000000E+00 0.  1.
         -2    1    1    2    0  502 -0.34991615199E+02  0.16768304545E+01  0.25982117582E+03  0.26217221115E+03  0.00000000000E+00 0.  1.
<scales pt_clust_5="13000.00000" pt_clust_6="13000.00000" pt_clust_7="13000.00000" pt_clust_8="13000.00000" pt_clust_9="35.03177"></scales>
<clustering>
<clus scale="   35.032">  1  9  2 -1</clus>
<clus scale="   80.198">  5  6 -1 -1</clus>
<clus scale="   84.119">  1  5  2 -1</clus>
<clus scale="   90.767">  7  8 -1 -1</clus>
<clus scale="   35.032">  1  5  2 -1</clus>
</clustering>
</event>
<event>
 9    2  0.6190160E-005  0.1271623E+03  0.7546771E-02  0.1235176E+00
         21   -1    0    0  501  502  0.00000000000E+00  0.00000000000E+00  0.34452968060E+03  0.34452968060E+03  0.00000000000E+00 0. -1.
          4   -1    0    0  502    0 -0.00000000000E+00 -0.00000000000E+00 -0.79243157160E+02  0.79243157160E+02  0.00000000000E+00 0. -1.
         24    2    1    2    0    0 -0.55601148319E+02 -0.75508112404E+02  0.29290387409E+02  0.12659319764E+03  0.79843272480E+02 0.  0.
         23    2    1    2    0    0  0.35084391886E+02  0.70132054963E+02  0.93134575568E+02  0.15275227171E+03  0.92248510337E+02 0.  0.
        -13    1    3    3    0    0 -0.42065163424E+01 -0.38818555899E+02 -0.22376164595E+02  0.45002975500E+02  0.00000000000E+00 0.  1.
         14    1    3    3    0    0 -0.51394631976E+02 -0.36689556505E+02  0.51666552004E+02  0.81590222138E+02  0.00000000000E+00 0. -1.
        -13    1    4    4    0    0  0.34626173765E+01  0.81330200828E+02  0.86074956150E+02  0.11847147067E+03  0.00000000000E+00 0.  1.
         13    1    4    4    0    0  0.31621774510E+02 -0.11198145864E+02  0.70596194185E+01  0.34280801045E+02  0.00000000000E+00 0. -1.
          3    1    1    2  501    0  0.20516756433E+02  0.53760574407E+01  0.14286156046E+03  0.14442736841E+03  0.00000000000E+00 0. -1.
<scales pt_clust_5="13000.00000" pt_clust_6="13000.00000" pt_clust_7="13000.00000" pt_clust_8="13000.00000" pt_clust_9="21.20942"></scales>
<clustering>
<clus scale="   21.209">  1  9  2 -1</clus>
<clus scale="   79.843">  5  6 -1 -1</clus>
<clus scale="   92.249">  7  8 -1 -1</clus>
<clus scale="  118.471">  2  5  1 -1</clus>
<clus scale="   21.209">  1  5  2 -1</clus>
</clustering>
</event>
<event>
 9    2  0.6190160E-005  0.1684198E+03  0.7546771E-02  0.1203745E+00
         -3   -1    0    0    0  501 -0.00000000000E+00  0.00000000000E+00  0.36242586535E+03  0.36242586535E+03  0.00000000000E+00 0.  1.
         21   -1    0    0  501  502  0.00000000000E+00 -0.00000000000E+00 -0.26751053580E+03  0.26751053580E+03  0.00000000000E+00 0.  1.
         23    2    1    2    0    0  0.23625674392E+02  0.50226039511E+02  0.19001759086E+03  0.21413492048E+03  0.81647117518E+02 0.  0.
         24    2    1    2    0    0 -0.14605324057E+02  0.10583765352E+03  0.98836939146E+02  0.16670379607E+03  0.81280321669E+02 0.  0.
        -11    1    4    4    0    0 -0.29537361611E+02  0.99377398232E+02  0.10657937295E+03  0.14868586264E+03  0.00000000000E+00 0.  1.
         12    1    4    4    0    0  0.14932037554E+02  0.64602552901E+01 -0.77424338038E+01  0.18017933431E+02  0.00000000000E+00 0. -1.
        -13    1    3    3    0    0  0.47483975298E+02  0.92730966348E+01  0.69950106018E+02  0.85051370143E+02  0.00000000000E+00 0.  1.
         13    1    3    3    0    0 -0.23858300906E+02  0.40952942876E+02  0.12006748484E+03  0.12908355034E+03  0.00000000000E+00 0. -1.
         -4    1    1    2    0  502 -0.90203503349E+01 -0.15606369303E+03 -0.19393920044E+03  0.24909768460E+03  0.00000000000E+00 0.  1.
<scales pt_clust_5="13000.00000" pt_clust_6="13000.00000" pt_clust_7="13000.00000" pt_clust_8="13000.00000" pt_clust_9="147.50840"></scales>
<clustering>
<clus scale="   81.280">  5  6 -1 -1</clus>
<clus scale="   81.647">  7  8 -1 -1</clus>
<clus scale="   98.727">  1  7  2 -1</clus>
<clus scale="  147.508">  2  9  1 -1</clus>
<clus scale="  147.508">  2  5  1 -1</clus>
</clustering>
</event>
<event>
 9    2  0.6190160E-005  0.2598532E+03  0.7546771E-02  0.1107346E+00
         21   -1    0    0  501  502  0.00000000000E+00  0.00000000000E+00  0.13671889841E+03  0.13671889841E+03  0.00000000000E+00 0. -1.
          2   -1    0    0  502    0 -0.00000000000E+00 -0.00000000000E+00 -0.14341358099E+04  0.14341358099E+04  0.00000000000E+00 0. -1.
         23    2    1    2    0    0 -0.55667614047E+02 -0.21596295369E+03 -0.66849739887E+03  0.70893725896E+03  0.77229425825E+02 0.  0.
         24    2    1    2    0    0  0.13654317929E+03  0.34546123135E+03 -0.25376703011E+03  0.45688652942E+03  0.79750191341E+02 0.  0.
        -11    1    4    4    0    0  0.64604396638E+02  0.73501684307E+02 -0.78381445436E+02  0.12537893224E+03  0.00000000000E+00 0.  1.
         12    1    4    4    0    0  0.71938782648E+02  0.27195954704E+03 -0.17538558467E+03  0.33150759718E+03  0.00000000000E+00 0. -1.
        -11    1    3    3    0    0 -0.16403349186E+02 -0.17668640871E+03 -0.55317909999E+03  0.58094257338E+03  0.00000000000E+00 0. -1.
         11    1    3    3    0    0 -0.39264264861E+02 -0.39276544977E+02 -0.11531829888E+03  0.12799468558E+03  0.00000000000E+00 0.  1.
          1    1    1    2  501    0 -0.80875565239E+02 -0.12949827766E+03 -0.37515248251E+03  0.40503091994E+03  0.00000000000E+00 0. -1.
<scales pt_clust_5="13000.00000" pt_clust_6="13000.00000" pt_clust_7="13000.00000" pt_clust_8="13000.00000" pt_clust_9="152.67837"></scales>
<clustering>
<clus scale="   77.229">  7  8 -1 -1</clus>
<clus scale="   79.750">  5  6 -1 -1</clus>
<clus scale="  152.678">  1  9  2 -1</clus>
<clus scale="  259.091">  2  7  1 -1</clus>
<clus scale="  152.678">  1  5  2 -1</clus>
</clustering>
</event>
<event>
 9    2  0.6190160E-005  0.1040747E+03  0.7546771E-02  0.1278000E+00
         -1   -1    0    0    0  501 -0.00000000000E+00  0.00000000000E+00  0.64400463289E+03  0.64400463289E+03  0.00000000000E+00 0.  1.
         21   -1    0    0  501  502  0.00000000000E+00 -0.00000000000E+00 -0.63383738817E+02  0.63383738817E+02  0.00000000000E+00 0.  1.
         23    2    1    2    0    0 -0.25800400369E+02 -0.45889809942E+02  0.57265633130E+03  0.58232357768E+03  0.91618448086E+02 0.  0.
         24    2    1    2    0    0  0.89242003577E+01  0.29282879522E+02  0.33162692401E+02  0.90488183412E+02  0.78429706010E+02 0.  0.
        -13    1    4    4    0    0 -0.33907195333E+02  0.11677140721E+02  0.24353461560E+02  0.43349101499E+02  0.00000000000E+00 0.  1.
         14    1    4    4    0    0  0.42831395691E+02  0.17605738801E+02  0.88092308407E+01  0.47139081913E+02  0.00000000000E+00 0. -1.
        -13    1    3    3    0    0 -0.57164731799E+02 -0.11265045356E+02  0.35029933278E+03  0.35511171532E+03  0.00000000000E+00 0.  1.
         13    1    3    3    0    0  0.31364331430E+02 -0.34624764586E+02  0.22235699851E+03  0.22721186236E+03  0.00000000000E+00 0. -1.
         -2    1    1    2    0  502  0.16876200012E+02  0.16606930420E+02 -0.25198129628E+02  0.34576610614E+02  0.00000000000E+00 0.  1.
<scales pt_clust_5="13000.00000" pt_clust_6="13000.00000" pt_clust_7="13000.00000" pt_clust_8="13000.00000" pt_clust_9="23.67691"></scales>
<clustering>
<clus scale="   23.677">  2  9  1 -1</clus>
<clus scale="   78.430">  5  6 -1 -1</clus>
<clus scale="   91.618">  7  8 -1 -1</clus>
<clus scale="   92.676">  2  5  1 -1</clus>
<clus scale="   23.677">  2  5  1 -1</clus>
</clustering>
</event>
<event>
 9    2  0.6190160E-005  0.1358426E+03  0.7546771E-02  0.1234188E+00
         21   -1    0    0  501  502  0.00000000000E+00  0.00000000000E+00  0.13546240055E+03  0.13546240055E+03  0.00000000000E+00 0. -1.
          2   -1    0    0  502    0 -0.00000000000E+00 -0.00000000000E+00 -0.23418824851E+03  0.23418824851E+03  0.00000000000E+00 0. -1.
         24    2    1    2    0    0  0.52526702064E+02  0.24454454480E+02 -0.64774475104E+02  0.11844951732E+03  0.80482797882E+02 0.  0.
         23    2    1    2    0    0  0.64222502944E+02 -0.64202025180E+02 -0.17585083816E+02  0.12679011268E+03  0.86718323199E+02 0.  0.
        -11    1    3    3    0    0  0.25563651683E+02 -0.29327375281E+02 -0.28077279086E+02  0.47978420452E+02  0.00000000000E+00 0.  1.
         12    1    3    3    0    0  0.26963050382E+02  0.53781829761E+02 -0.36697196018E+02  0.70471096869E+02  0.00000000000E+00 0. -1.
        -11    1    4    4    0    0  0.39527477363E+02 -0.84629543892E+02 -0.15404239737E+02  0.94667163093E+02  0.00000000000E+00 0. -1.
         11    1    4    4    0    0  0.24695025580E+02  0.20427518712E+02 -0.21808440791E+01  0.32122949585E+02  0.00000000000E+00 0.  1.
          1    1    1    2  501    0 -0.11674920501E+03  0.39747570700E+02 -0.16366289050E+02  0.12441101906E+03  0.00000000000E+00 0. -1.
<scales pt_clust_5="13000.00000" pt_clust_6="13000.00000" pt_clust_7="13000.00000" pt_clust_8="13000.00000" pt_clust_9="104.56169"></scales>
<clustering>
<clus scale="   80.483">  5  6 -1 -1</clus>
<clus scale="   86.718">  7  8 -1 -1</clus>
<clus scale="   99.169">  2  5  1 -1</clus>
<clus scale="  104.562">  1  9  2 -1</clus>
<clus scale="  104.562">  1  5  2 -1</clus>
</clustering>
</event>
<event>
 9    2  0.6190160E-005  0.1772964E+03  0.7546771E-02  0.1201477E+00
         21   -1    0    0  501  502  0.00000000000E+00  0.00000000000E+00  0.62924045117E+02  0.62924045117E+02  0.00000000000E+00 0. -1.
          2   -1    0    0  502    0 -0.00000000000E+00 -0.00000000000E+00 -0.76668715909E+03  0.76668715909E+03  0.00000000000E+00 0. -1.
         24    2    1    2    0    0 -0.22211879259E+02  0.55502438986E+02 -0.12495922544E+03  0.15334454560E+03  0.65771219625E+02 0.  0.
         23    2    1    2    0    0  0.18441653842E+02 -0.18990343575E+03 -0.40138057364E+03  0.45365292318E+03  0.91056028398E+02 0.  0.
        -11    1    3    3    0    0  0.22748135964E+02  0.22368376188E+02 -0.57578879951E+02  0.65826661464E+02  0.00000000000E+00 0.  1.
         12    1    3    3    0    0 -0.44960015223E+02  0.33134062799E+02 -0.67380345488E+02  0.87517884141E+02  0.00000000000E+00 0. -1.
        -13    1    4    4    0    0 -0.35361332112E+02 -0.81743122500E+02 -0.14372707322E+03  0.16908528458E+03  0.00000000000E+00 0. -1.
         13    1    4    4    0    0  0.53802985954E+02 -0.10816031325E+03 -0.25765350042E+03  0.28456763860E+03  0.00000000000E+00 0.  1.
          1    1    1    2  501    0  0.37702254171E+01  0.13440099676E+03 -0.17742331489E+03  0.22261373542E+03  0.00000000000E+00 0. -1.
<scales pt_clust_5="13000.00000" pt_clust_6="13000.00000" pt_clust_7="13000.00000" pt_clust_8="13000.00000" pt_clust_9="152.12766"></scales>
<clustering>
<clus scale="   65.771">  5  6 -1 -1</clus>
<clus scale="   88.881">  2  5  1 -1</clus>
<clus scale="   91.056">  7  8 -1 -1</clus>
<clus scale="  152.128">  1  9  2 -1</clus>
<clus scale="  152.128">  1  5  2 -1</clus>
</clustering>
</event>
<event>
 9    2  0.6190160E-005  0.9900012E+02  0.7546771E-02  0.1287925E+00
          2   -1    0    0  502    0 -0.00000000000E+00  0.00000000000E+00  0.10941326523E+04  0.10941326523E+04  0.00000000000E+00 0. -1.
         21   -1    0    0  501  502  0.00000000000E+00 -0.00000000000E+00 -0.12671850529E+02  0.12671850529E+02  0.00000000000E+00 0. -1.
         24    2    1    2    0    0 -0.20240197104E+02  0.38776313873E+02  0.69422588244E+03  0.70018453802E+03  0.79972141040E+02 0.  0.
         23    2    1    2    0    0  0.29313150346E+02 -0.14813978659E+02  0.27336902863E+03  0.28990684192E+03  0.90755916767E+02 0.  0.
        -13    1    3    3    0    0 -0.35367830069E+02  0.38459190222E+02  0.23625080463E+03  0.24195957390E+03  0.00000000000E+00 0.  1.
         14    1    3    3    0    0  0.15127632965E+02  0.31712365075E+00  0.45797507781E+03  0.45822496412E+03  0.00000000000E+00 0. -1.
        -11    1    4    4    0    0  0.20211860472E+02  0.32741352730E+02  0.61258860914E+02  0.72340607703E+02  0.00000000000E+00 0.  1.
         11    1    4    4    0    0  0.91012898740E+01 -0.47555331389E+02  0.21211016772E+03  0.21756623422E+03  0.00000000000E+00 0. -1.
          1    1    1    2  501    0 -0.90729532427E+01 -0.23962335213E+02  0.11386589067E+03  0.11671312286E+03  0.00000000000E+00 0. -1.
<scales pt_clust_5="13000.00000" pt_clust_6="13000.00000" pt_clust_7="13000.00000" pt_clust_8="13000.00000" pt_clust_9="25.62249"></scales>
<clustering>
<clus scale="   25.622">  2  9  1 -1</clus>
<clus scale="   79.972">  5  6 -1 -1</clus>
<clus scale="   89.218">  1  5  2 -1</clus>
<clus scale="   90.756">  7  8 -1 -1</clus>
<clus scale="   25.622">  2  5  1 -1</clus>
</clustering>
</event>
<event>
 9    2  0.6190160E-005  0.1038829E+03  0.7546771E-02  0.1277605E+00
         21   -1    0    0  501  502  0.00000000000E+00  0.00000000000E+00  0.10345928953E+03  0.10345928953E+03  0.00000000000E+00 0. -1.
          2   -1    0    0  502    0 -0.00000000000E+00 -0.00000000000E+00 -0.22997438211E+03  0.22997438211E+03  0.00000000000E+00 0. -1.
         23    2    1    2    0    0 -0.17468767870E+02 -0.19361598789E+02 -0.44505722587E+02  0.10462952484E+03  0.91030482627E+02 0.  0.
         24    2    1    2    0    0 -0.26375411861E+02  0.94720412744E+02 -0.47529302356E+02  0.13504841097E+03  0.79444444619E+02 0.  0.
        -11    1    4    4    0    0 -0.32636208296E+02  0.11868839993E+01 -0.11632835691E+02  0.34667760986E+02  0.00000000000E+00 0.  1.
         12    1    4    4    0    0  0.62607964349E+01  0.93533528745E+02 -0.35896466664E+02  0.10038064998E+03  0.00000000000E+00 0. -1.
        -13    1    3    3    0    0  0.19343146732E+02  0.20586403794E+02 -0.41528542273E+02  0.50225264260E+02  0.00000000000E+00 0.  1.
         13    1    3    3    0    0 -0.36811914602E+02 -0.39948002583E+02 -0.29771803134E+01  0.54404260583E+02  0.00000000000E+00 0. -1.
          1    1    1    2  501    0  0.43844179731E+02 -0.75358813955E+02 -0.34480067633E+02  0.93755735830E+02  0.00000000000E+00 0. -1.
<scales pt_clust_5="13000.00000" pt_clust_6="13000.00000" pt_clust_7="13000.00000" pt_clust_8="13000.00000" pt_clust_9="87.18522"></scales>
<clustering>
<clus scale="   79.444">  5  6 -1 -1</clus>
<clus scale="   87.185">  1  9  2 -1</clus>
<clus scale="   91.030">  7  8 -1 -1</clus>
<clus scale="   93.896">  1  5  2 -1</clus>
<clus scale="   87.185">  1  5  2 -1</clus>
</clustering>
</event>
<event>
 9    2  0.6190160E-005  0.1704986E+03  0.7546771E-02  0.1195872E+00
          2   -1    0    0  502    0 -0.00000000000E+00  0.00000000000E+00  0.86912953147E+03  0.86912953147E+03  0.00000000000E+00 0. -1.
         21   -1    0    0  501  502  0.00000000000E+00 -0.00000000000E+00 -0.59539927557E+02  0.59539927557E+02  0.00000000000E+00 0. -1.
         23    2    1    2    0    0  0.37816488063E+02 -0.41854824951E+02  0.11642921372E+03  0.16218753086E+03  0.97811656853E+02 0.  0.
         24    2    1    2    0    0 -0.16573758217E+03  0.46296806763E+02  0.32367553731E+03  0.37545431530E+03  0.81164949121E+02 0.  0.
        -11    1    4    4    0    0 -0.21024746418E+02  0.82476280200E+01  0.46175609047E+01  0.23051793826E+02  0.00000000000E+00 0.  1.
         12    1    4    4    0    0 -0.14471283575E+03  0.38049178743E+02  0.31905797641E+03  0.35240252148E+03  0.00000000000E+00 0. -1.
        -11    1    3    3    0    0  0.16896978397E+02  0.31884842055E+02  0.41565203747E+02  0.55043775255E+02  0.00000000000E+00 0.  1.
         11    1    3    3    0    0  0.20919509666E+02 -0.73739667006E+02  0.74864009973E+02  0.10714375560E+03  0.00000000000E+00 0. -1.
          1    1    1    2  501    0  0.12792109410E+03 -0.44419818122E+01  0.36948485288E+03  0.39102761287E+03  0.00000000000E+00 0. -1.
<scales pt_clust_5="13000.00000" pt_clust_6="13000.00000" pt_clust_7="13000.00000" pt_clust_8="13000.00000" pt_clust_9="149.94014"></scales>
<clustering>
<clus scale="   81.165">  5  6 -1 -1</clus>
<clus scale="   97.812">  7  8 -1 -1</clus>
<clus scale="  112.912">  1  7  2 -1</clus>
<clus scale="  149.940">  2  9  1 -1</clus>
<clus scale="  149.940">  2  5  1 -1</clus>
</clustering>
</event>
<event>
 9    2  0.6190160E-005  0.1069277E+03  0.7546771E-02  0.1269600E+00
         21   -1    0    0  501  502  0.00000000000E+00  0.00000000000E+00  0.56884879148E+02  0.56884879148E+02  0.00000000000E+00 0. -1.
          2   -1    0    0  502    0 -0.00000000000E+00 -0.00000000000E+00 -0.26129294360E+03  0.26129294360E+03  0.00000000000E+00 0. -1.
         24    2    1    2    0    0 -0.32591388458E+02  0.31308511802E+02 -0.14487158306E+03  0.18132817804E+03  0.99245710525E+02 0.  0.
         23    2    1    2    0    0  0.11041061649E+02 -0.29901205898E+02 -0.33791908061E+02  0.10324636881E+03  0.92205924243E+02 0.  0.
        -11    1    3    3    0    0  0.24617446484E+02 -0.19422217740E+02 -0.55187603472E+02  0.63473717319E+02  0.00000000000E+00 0.  1.
         12    1    3    3    0    0 -0.57208834942E+02  0.50730729543E+02 -0.89683979593E+02  0.11785446072E+03  0.00000000000E+00 0. -1.
        -11    1    4    4    0    0 -0.37185435745E+02 -0.82404936279E+00 -0.28158480942E+02  0.46651213681E+02  0.00000000000E+00 0.  1.
         11    1    4    4    0    0  0.48226497394E+02 -0.29077156535E+02 -0.56334271189E+01  0.56595155129E+02  0.00000000000E+00 0. -1.
          1    1    1    2  501    0  0.21550326810E+02 -0.14073059049E+01 -0.25744573325E+02  0.33603275900E+02  0.00000000000E+00 0. -1.
<scales pt_clust_5="13000.00000" pt_clust_6="13000.00000" pt_clust_7="13000.00000" pt_clust_8="13000.00000" pt_clust_9="21.59624"></scales>
<clustering>
<clus scale="   21.596">  1  9  2 -1</clus>
<clus scale="   92.206">  7  8 -1 -1</clus>
<clus scale="   99.246">  5  6 -1 -1</clus>
<clus scale="  100.428">  1  7  2 -1</clus>
<clus scale="   21.596">  1  5  2 -1</clus>
</clustering>
</event>
<event>
 9    2  0.6190160E-005  0.1237493E+03  0.7546771E-02  0.1240738E+00
         -1   -1    0    0    0  501 -0.00000000000E+00  0.00000000000E+00  0.44035007638E+03  0.44035007638E+03  0.00000000000E+00 0.  1.
         21   -1    0    0  501  502  0.00000000000E+00 -0.00000000000E+00 -0.10366987270E+03  0.10366987270E+03  0.00000000000E+00 0.  1.
         23    2    1    2    0    0 -0.74458867087E+02 -0.48669935220E+01  0.19268567737E+03  0.22590292368E+03  0.91304710451E+02 0.  0.
         24    2    1    2    0    0  0.90861877841E+02  0.16956103667E+02  0.21354538350E+03  0.24564270526E+03  0.78710339446E+02 0.  0.
        -11    1    4    4    0    0  0.76545938924E+02 -0.59093510664E+01  0.86032731162E+02  0.11530755408E+03  0.00000000000E+00 0.  1.
         12    1    4    4    0    0  0.14315938916E+02  0.22865454734E+02  0.12751265234E+03  0.13033515118E+03  0.00000000000E+00 0. -1.
        -13    1    3    3    0    0  0.14109557271E+02  0.19380098214E+02  0.24471902356E+02  0.34256996630E+02  0.00000000000E+00 0. -1.
         13    1    3    3    0    0 -0.88568424359E+02 -0.24247091736E+02  0.16821377501E+03  0.19164592705E+03  0.00000000000E+00 0.  1.
         -2    1    1    2    0  502 -0.16403010753E+02 -0.12089110145E+02 -0.69550857182E+02  0.72474320146E+02  0.00000000000E+00 0.  1.
<scales pt_clust_5="13000.00000" pt_clust_6="13000.00000" pt_clust_7="13000.00000" pt_clust_8="13000.00000" pt_clust_9="20.37659"></scales>
<clustering>
<clus scale="   20.377">  2  9  1 -1</clus>
<clus scale="   78.710">  5  6 -1 -1</clus>
<clus scale="   91.305">  7  8 -1 -1</clus>
<clus scale="  114.772">  2  5  1 -1</clus>
<clus scale="   20.377">  2  5  1 -1</clus>
</clustering>
</event>
<event>
 9    2  0.6190160E-005  0.9497622E+02  0.7546771E-02  0.1296844E+00
         21   -1    0    0  501  502  0.00000000000E+00  0.00000000000E+00  0.25053768878E+03  0.25053768878E+03  0.00000000000E+00 0. -1.
          2   -1    0    0  502    0 -0.00000000000E+00 -0.00000000000E+00 -0.32883106683E+03  0.32883106683E+03  0.00000000000E+00 0. -1.
         23    2    1    2    0    0  0.13317250352E+02  0.39845871617E+02 -0.26233296388E+03  0.28049238025E+03  0.89957483270E+02 0.  0.
         24    2    1    2    0    0  0.11834933292E+02  0.47507616046E+01 -0.24150843146E+02  0.84482469776E+02  0.79946163716E+02 0.  0.
        -13    1    4    4    0    0 -0.27128428535E+02 -0.11710234432E+02  0.88379326123E+01  0.30841372831E+02  0.00000000000E+00 0.  1.
         14    1    4    4    0    0  0.38963361828E+02  0.16460996036E+02 -0.32988775758E+02  0.53641096945E+02  0.00000000000E+00 0. -1.
        -13    1    3    3    0    0  0.17500522375E+02  0.66406260501E+02 -0.14978850831E+03  0.16478063278E+03  0.00000000000E+00 0.  1.
         13    1    3    3    0    0 -0.41832720227E+01 -0.26560388884E+02 -0.11254445557E+03  0.11571174747E+03  0.00000000000E+00 0. -1.
          1    1    1    2  501    0 -0.25152183644E+02 -0.44596633222E+02  0.20819042898E+03  0.21439390559E+03  0.00000000000E+00 0. -1.
<scales pt_clust_5="13000.00000" pt_clust_6="13000.00000" pt_clust_7="13000.00000" pt_clust_8="13000.00000" pt_clust_9="51.20051"></scales>
<clustering>
<clus scale="   51.201">  1  9  2 -1</clus>
<clus scale="   79.946">  5  6 -1 -1</clus>
<clus scale="   85.554">  1  5  2 -1</clus>
<clus scale="   89.957">  7  8 -1 -1</clus>
<clus scale="   51.201">  1  5  2 -1</clus>
</clustering>
</event>
<event>
 9    2  0.6190160E-005  0.2694208E+03  0.7546771E-02  0.1143392E+00
          2   -1    0    0  502    0 -0.00000000000E+00  0.00000000000E+00  0.72982152415E+03  0.72982152415E+03  0.00000000000E+00 0. -1.
         21   -1    0    0  501  502  0.00000000000E+00 -0.00000000000E+00 -0.14645292207E+03  0.14645292207E+03  0.00000000000E+00 0. -1.
         23    2    1    2    0    0  0.47701554152E+02  0.47419549195E+01  0.19223010668E+03  0.21450307063E+03  0.82226692670E+02 0.  0.
         24    2    1    2    0    0  0.17709712844E+03 -0.15834173319E+03  0.25396213623E+03  0.35690305469E+03  0.80296490797E+02 0.  0.
        -11    1    4    4    0    0  0.58204898161E+02 -0.26419375924E+02  0.28734281257E+02  0.70081755925E+02  0.00000000000E+00 0.  1.
         12    1    4    4    0    0  0.11889223028E+03 -0.13192235726E+03  0.22522785497E+03  0.28682129876E+03  0.00000000000E+00 0. -1.
        -13    1    3    3    0    0  0.21437499087E+01 -0.33749967366E+02  0.50973615860E+02  0.61171606769E+02  0.00000000000E+00 0.  1.
         13    1    3    3    0    0  0.45557804243E+02  0.38491922285E+02  0.14125649082E+03  0.15333146386E+03  0.00000000000E+00 0. -1.
          1    1    1    2  501    0 -0.22479868260E+03  0.15359977827E+03  0.13717635916E+03  0.30486832091E+03  0.00000000000E+00 0. -1.
<scales pt_clust_5="13000.00000" pt_clust_6="13000.00000" pt_clust_7="13000.00000" pt_clust_8="13000.00000" pt_clust_9="257.17705"></scales>
<clustering>
<clus scale="   80.296">  5  6 -1 -1</clus>
<clus scale="   82.227">  7  8 -1 -1</clus>
<clus scale="   95.180">  1  7  2 -1</clus>
<clus scale="  257.177">  2  9  1 -1</clus>
<clus scale="  257.177">  2  5  1 -1</clus>
</clustering>
</event>
<event>
 9    2  0.6190160E-005  0.9537003E+02  0.7546771E-02  0.1294648E+00
         -1   -1    0    0    0  501 -0.00000000000E+00  0.00000000000E+00  0.27977690698E+03  0.27977690698E+03  0.00000000000E+00 0.  1.
         21   -1    0    0  501  502  0.00000000000E+00 -0.00000000000E+00 -0.13377749862E+03  0.13377749862E+03  0.00000000000E+00 0.  1.
         23    2    1    2    0    0 -0.19042042449E+02  0.31952245428E+01  0.20195530619E+03  0.22249830556E+03  0.91360502599E+02 0.  0.
         24    2    1    2    0    0  0.69683644249E+02 -0.35647958492E+02 -0.93069764467E+01  0.11493860114E+03  0.83652106968E+02 0.  0.
        -13    1    4    4    0    0  0.60057533383E+02 -0.48125355317E+02  0.21867629820E+02  0.80007189516E+02  0.00000000000E+00 0.  1.
         14    1    4    4    0    0  0.96261108666E+01  0.12477396825E+02 -0.31174606266E+02  0.34931411620E+02  0.00000000000E+00 0. -1.
        -13    1    3    3    0    0 -0.20997489612E+02 -0.41863303092E+02  0.83340598734E+02  0.95598567527E+02  0.00000000000E+00 0. -1.
         13    1    3    3    0    0  0.19554471638E+01  0.45058527635E+02  0.11861470746E+03  0.12689973803E+03  0.00000000000E+00 0.  1.
         -2    1    1    2    0  502 -0.50641601801E+02  0.32452733949E+02 -0.46648921380E+02  0.76117498905E+02  0.00000000000E+00 0.  1.
<scales pt_clust_5="13000.00000" pt_clust_6="13000.00000" pt_clust_7="13000.00000" pt_clust_8="13000.00000" pt_clust_9="60.14775"></scales>
<clustering>
<clus scale="   60.148">  2  9  1 -1</clus>
<clus scale="   83.652">  5  6 -1 -1</clus>
<clus scale="   88.014">  2  5  1 -1</clus>
<clus scale="   91.361">  7  8 -1 -1</clus>
<clus scale="   60.148">  2  5  1 -1</clus>
</clustering>
</event>
<event>
 9    2  0.6190160E-005  0.1776527E+03  0.7546771E-02  0.1174098E+00
         21   -1    0    0  501  502  0.00000000000E+00  0.00000000000E+00  0.72091961778E+02  0.72091961778E+02  0.00000000000E+00 0. -1.
          2   -1    0    0  502    0 -0.00000000000E+00 -0.00000000000E+00 -0.96400698414E+03  0.96400698414E+03  0.00000000000E+00 0. -1.
         24    2    1    2    0    0  0.60434700126E+01  0.14414253173E+03 -0.67165634129E+03  0.69171938133E+03  0.80869454807E+02 0.  0.
         23    2    1    2    0    0 -0.22543861054E+02 -0.12977642016E+03 -0.25286466327E+03  0.30511382709E+03  0.10864513176E+03 0.  0.
        -11    1    3    3    0    0  0.12614030099E+02  0.15263291138E+03 -0.64601649785E+03  0.66392261212E+03  0.00000000000E+00 0.  1.
         12    1    3    3    0    0 -0.65705600867E+01 -0.84903796512E+01 -0.25639843445E+02  0.27796769207E+02  0.00000000000E+00 0. -1.
        -11    1    4    4    0    0  0.25940844614E+02 -0.37546175311E+02 -0.19662224879E+02  0.49691506186E+02  0.00000000000E+00 0.  1.
         11    1    4    4    0    0 -0.48484705668E+02 -0.92230244844E+02 -0.23320243839E+03  0.25542232091E+03  0.00000000000E+00 0. -1.
          1    1    1    2  501    0  0.16500391042E+02 -0.14366111573E+02  0.32605982197E+02  0.39265737499E+02  0.00000000000E+00 0. -1.
<scales pt_clust_5="13000.00000" pt_clust_6="13000.00000" pt_clust_7="13000.00000" pt_clust_8="13000.00000" pt_clust_9="21.87803"></scales>
<clustering>
<clus scale="   21.878">  1  9  2 -1</clus>
<clus scale="   80.869">  5  6 -1 -1</clus>
<clus scale="  108.645">  7  8 -1 -1</clus>
<clus scale="  162.162">  2  5  1 -1</clus>
<clus scale="   21.878">  1  5  2 -1</clus>
</clustering>
</event>
<event>
 9    2  0.6855830E-005  0.1383133E+03  0.7546771E-02  0.1217664E+00
         21   -1    0    0  501  502  0.00000000000E+00  0.00000000000E+00  0.14896036144E+03  0.14896036144E+03  0.00000000000E+00 0. -1.
          2   -1    0    0  502    0 -0.00000000000E+00 -0.00000000000E+00 -0.81759623808E+03  0.81759623808E+03  0.00000000000E+00 0. -1.
         24    2    1    2    0    0 -0.94895221283E+02  0.54751673996E+02 -0.73084379140E+03  0.74339831093E+03  0.80657004889E+02 0.  0.
         23    2    1    2    0    0  0.24067938524E+02 -0.71737585587E+01  0.93624140414E+02  0.13223446742E+03  0.89943016571E+02 0.  0.
        -11    1    3    3    0    0 -0.62527791424E+02 -0.34571066644E+01 -0.23911144744E+03  0.24717597088E+03  0.00000000000E+00 0.  1.
         12    1    3    3    0    0 -0.32367429859E+02  0.58208780661E+02 -0.49173234396E+03  0.49622234005E+03  0.00000000000E+00 0. -1.
        -11    1    4    4    0    0  0.52387504323E+02 -0.19026147093E+02  0.34318146866E+02  0.65453648383E+02  0.00000000000E+00 0.  1.
         11    1    4    4    0    0 -0.28319565799E+02  0.11852388534E+02  0.59305993548E+02  0.66780819040E+02  0.00000000000E+00 0. -1.
          1    1    1    2  501    0  0.70827282760E+02 -0.47577915437E+02 -0.31416225660E+02  0.90923821165E+02  0.00000000000E+00 0. -1.
<scales pt_clust_5="13000.00000" pt_clust_6="13000.00000" pt_clust_7="13000.00000" pt_clust_8="13000.00000" pt_clust_9="85.32387"></scales>
<clustering>
<clus scale="   80.657">  5  6 -1 -1</clus>
<clus scale="   85.324">  1  9  2 -1</clus>
<clus scale="   89.943">  7  8 -1 -1</clus>
<clus scale="  132.463">  2  5  1 -1</clus>
<clus scale="   85.324">  1  5  2 -1</clus>
</clustering>
</event>
<event>
 9    2  0.6190160E-005  0.9523936E+02  0.7546771E-02  0.1295500E+00
         21   -1    0    0  501  502  0.00000000000E+00  0.00000000000E+00  0.70624352943E+03  0.70624352943E+03  0.00000000000E+00 0.  1.
          2   -1    0    0  502    0 -0.00000000000E+00 -0.00000000000E+00 -0.21745950115E+02  0.21745950115E+02  0.00000000000E+00 0. -1.
         23    2    1    2    0    0 -0.10452763122E+02 -0.13802541976E+02  0.17513954076E+03  0.19760487196E+03  0.89855752522E+02 0.  0.
         24    2    1    2    0    0  0.49505954915E+02  0.36792014478E+02  0.37515569849E+03  0.38873738484E+03  0.81058400904E+02 0.  0.
        -11    1    4    4    0    0  0.36168652114E+02  0.49872219620E+02  0.35835776743E+03  0.36361476753E+03  0.00000000000E+00 0.  1.
         12    1    4    4    0    0  0.13337302801E+02 -0.13080205142E+02  0.16797931061E+02  0.25122617310E+02  0.00000000000E+00 0. -1.
        -11    1    3    3    0    0 -0.49755110082E+02 -0.71769501701E+01  0.80391110217E+02  0.94814609607E+02  0.00000000000E+00 0.  1.
         11    1    3    3    0    0  0.39302346960E+02 -0.66255918055E+01  0.94748430546E+02  0.10279026235E+03  0.00000000000E+00 0. -1.
          1    1    1    2  501    0 -0.39053191793E+02 -0.22989472502E+02  0.13420234006E+03  0.14164722275E+03  0.00000000000E+00 0. -1.
<scales pt_clust_5="13000.00000" pt_clust_6="13000.00000" pt_clust_7="13000.00000" pt_clust_8="13000.00000" pt_clust_9="45.31741"></scales>
<clustering>
<clus scale="   45.317">  1  9  2 -1</clus>
<clus scale="   81.058">  5  6 -1 -1</clus>
<clus scale="   86.988">  1  5  2 -1</clus>
<clus scale="   89.856">  7  8 -1 -1</clus>
<clus scale="   45.317">  1  5  2 -1</clus>
</clustering>
</event>
<event>
 9    2  0.6190160E-005  0.9662313E+02  0.7546771E-02  0.1295130E+00
         21   -1    0    0  501  502  0.00000000000E+00  0.00000000000E+00  0.46815736087E+02  0.46815736087E+02  0.00000000000E+00 0. -1.
          4   -1    0    0  502    0 -0.00000000000E+00 -0.00000000000E+00 -0.57564534421E+03  0.57564534421E+03  0.00000000000E+00 0. -1.
         23    2    1    2    0    0 -0.27908893573E+02 -0.12759328026E+02 -0.35491365295E+03  0.36809436500E+03  0.92671752468E+02 0.  0.
         24    2    1    2    0    0  0.66865404612E+01  0.31004036163E+01 -0.75141018754E+00  0.79639377041E+02  0.79294031505E+02 0.  0.
        -11    1    4    4    0    0 -0.46849528143E+01 -0.30101766111E+02 -0.22924639713E+02  0.38126161777E+02  0.00000000000E+00 0.  1.
         12    1    4    4    0    0  0.11371493275E+02  0.33202169727E+02  0.22173229526E+02  0.41513215264E+02  0.00000000000E+00 0. -1.
        -11    1    3    3    0    0 -0.13046130347E+02  0.36290920100E+02 -0.22772758460E+03  0.23096987940E+03  0.00000000000E+00 0. -1.
         11    1    3    3    0    0 -0.14862763226E+02 -0.49050248126E+02 -0.12718606835E+03  0.13712448561E+03  0.00000000000E+00 0.  1.
          3    1    1    2  501    0  0.21222353112E+02  0.96589244099E+01 -0.17316454498E+03  0.17472733825E+03  0.00000000000E+00 0. -1.
<scales pt_clust_5="13000.00000" pt_clust_6="13000.00000" pt_clust_7="13000.00000" pt_clust_8="13000.00000" pt_clust_9="23.31702"></scales>
<clustering>
<clus scale="   23.317">  1  9  2 -1</clus>
<clus scale="   79.294">  5  6 -1 -1</clus>
<clus scale="   83.878">  1  5  2 -1</clus>
<clus scale="   92.672">  7  8 -1 -1</clus>
<clus scale="   23.317">  1  5  2 -1</clus>
</clustering>
</event>
<event>
 9    2  0.6190160E-005  0.2898929E+03  0.7546771E-02  0.1132147E+00
          2   -1    0    0  502    0 -0.00000000000E+00  0.00000000000E+00  0.38409146481E+03  0.38409146481E+03  0.00000000000E+00 0. -1.
         21   -1    0    0  501  502  0.00000000000E+00 -0.00000000000E+00 -0.43347356028E+03  0.43347356028E+03  0.00000000000E+00 0.  1.
         24    2    1    2    0    0  0.54440185321E+02 -0.30337314963E+02  0.51048274550E+02  0.11256235074E+03  0.78614693367E+02 0.  0.
         23    2    1    2    0    0 -0.23907170147E+03  0.16410590027E+03 -0.28180496875E+03  0.41366167787E+03  0.87269229273E+02 0.  0.
        -11    1    3    3    0    0  0.21666372581E+02 -0.52153200380E+02  0.13301584865E+02  0.58019998023E+02  0.00000000000E+00 0.  1.
         12    1    3    3    0    0  0.32773812740E+02  0.21815885417E+02  0.37746689685E+02  0.54542352719E+02  0.00000000000E+00 0. -1.
        -11    1    4    4    0    0 -0.12926261582E+03  0.11969901158E+03 -0.12009673406E+03  0.21321327997E+03  0.00000000000E+00 0.  1.
         11    1    4    4    0    0 -0.10980908565E+03  0.44406888685E+02 -0.16170823470E+03  0.20044839790E+03  0.00000000000E+00 0. -1.
          1    1    1    2  501    0  0.18463151615E+03 -0.13376858530E+03  0.18137459872E+03  0.29134099648E+03  0.00000000000E+00 0. -1.
<scales pt_clust_5="13000.00000" pt_clust_6="13000.00000" pt_clust_7="13000.00000" pt_clust_8="13000.00000" pt_clust_9="276.44540"></scales>
<clustering>
<clus scale="   78.615">  5  6 -1 -1</clus>
<clus scale="   87.269">  7  8 -1 -1</clus>
<clus scale="  100.321">  1  5  2 -1</clus>
<clus scale="  276.445">  2  9  1 -1</clus>
<clus scale="  276.445">  2  5  1 -1</clus>
</clustering>
</event>
<event>
 9    2  0.6190160E-005  0.1247361E+03  0.7546771E-02  0.1238389E+00
         21   -1    0    0  501  502  0.00000000000E+00  0.00000000000E+00  0.56717497799E+03  0.56717497799E+03  0.00000000000E+00 0. -1.
          2   -1    0    0  502    0 -0.00000000000E+00 -0.00000000000E+00 -0.56215366035E+03  0.56215366035E+03  0.00000000000E+00 0. -1.
         23    2    1    2    0    0 -0.88312708598E+02 -0.60442670845E+01 -0.51298020580E+03  0.52848191376E+03  0.91152476427E+02 0.  0.
         24    2    1    2    0    0  0.52057627184E+02 -0.57010663905E+02  0.42359377709E+02  0.11967543902E+03  0.81041233201E+02 0.  0.
        -11    1    4    4    0    0  0.36310832214E+02 -0.14247516501E+01  0.49560290330E+02  0.61455096053E+02  0.00000000000E+00 0.  1.
         12    1    4    4    0    0  0.15746794970E+02 -0.55585912255E+02 -0.72009126207E+01  0.58220342971E+02  0.00000000000E+00 0. -1.
        -11    1    3    3    0    0 -0.52293883779E+02  0.41758448349E+02 -0.28842186886E+03  0.29608375965E+03  0.00000000000E+00 0.  1.
         11    1    3    3    0    0 -0.36018824819E+02 -0.47802715433E+02 -0.22455833695E+03  0.23239815411E+03  0.00000000000E+00 0. -1.
          1    1    1    2  501    0  0.36255081414E+02  0.63054930989E+02  0.47564214573E+03  0.48117128555E+03  0.00000000000E+00 0. -1.
<scales pt_clust_5="13000.00000" pt_clust_6="13000.00000" pt_clust_7="13000.00000" pt_clust_8="13000.00000" pt_clust_9="72.73483"></scales>
<clustering>
<clus scale="   72.735">  1  9  2 -1</clus>
<clus scale="   81.041">  5  6 -1 -1</clus>
<clus scale="   91.152">  7  8 -1 -1</clus>
<clus scale="  117.550">  1  5  2 -1</clus>
<clus scale="   72.735">  1  5  2 -1</clus>
</clustering>
</event>
<event>
 9    2  0.6190160E-005  0.1337547E+03  0.7546771E-02  0.1227828E+00
          2   -1    0    0  502    0 -0.00000000000E+00  0.00000000000E+00  0.10808495619E+03  0.10808495619E+03  0.00000000000E+00 0. -1.
         21   -1    0    0  501  502  0.00000000000E+00 -0.00000000000E+00 -0.23214659501E+03  0.23214659501E+03  0.00000000000E+00 0.  1.
         23    2    1    2    0    0 -0.92260421265E+02  0.38234673368E+02 -0.98425648337E+01  0.14121173707E+03  0.99347888873E+02 0.  0.
         24    2    1    2    0    0  0.68906477715E+02 -0.15120260699E+02 -0.12620019956E+03  0.16404510724E+03  0.77508592332E+02 0.  0.
        -13    1    4    4    0    0  0.48048838792E+02  0.23200405569E+02 -0.99474110508E+02  0.11288068209E+03  0.00000000000E+00 0.  1.
         14    1    4    4    0    0  0.20857638922E+02 -0.38320666268E+02 -0.26726089048E+02  0.51164425145E+02  0.00000000000E+00 0. -1.
        -11    1    3    3    0    0 -0.45957924156E+02  0.59904672948E+02  0.24783513535E+02  0.79466490906E+02  0.00000000000E+00 0. -1.
         11    1    3    3    0    0 -0.46302497109E+02 -0.21669999580E+02 -0.34626078368E+02  0.61745246161E+02  0.00000000000E+00 0.  1.
          1    1    1    2  501    0  0.23353943550E+02 -0.23114412669E+02  0.11981125573E+02  0.34974706895E+02  0.00000000000E+00 0. -1.
<scales pt_clust_5="13000.00000" pt_clust_6="13000.00000" pt_clust_7="13000.00000" pt_clust_8="13000.00000" pt_clust_9="32.85854"></scales>
<clustering>
<clus scale="   32.859">  2  9  1 -1</clus>
<clus scale="   77.509">  5  6 -1 -1</clus>
<clus scale="   99.348">  7  8 -1 -1</clus>
<clus scale="  118.439">  2  5  1 -1</clus>
<clus scale="   32.859">  2  5  1 -1</clus>
</clustering>
</event>
<event>
 9    2  0.6190160E-005  0.1205111E+03  0.7546771E-02  0.1245766E+00
         21   -1    0    0  501  502  0.00000000000E+00  0.00000000000E+00  0.71364671019E+03  0.71364671019E+03  0.00000000000E+00 0.  1.
         -1   -1    0    0    0  501 -0.00000000000E+00 -0.00000000000E+00 -0.37434430664E+02  0.37434430664E+02  0.00000000000E+00 0.  1.
         23    2    1    2    0    0 -0.21068290335E+02 -0.69752249679E+02  0.14995802059E+03  0.19057180981E+03  0.92309032931E+02 0.  0.
         24    2    1    2    0    0 -0.16916379312E+02  0.87599019827E+02  0.21595954414E+03  0.24738930237E+03  0.81260015107E+02 0.  0.
        -13    1    4    4    0    0 -0.81014657828E+01  0.54574367337E+02  0.20375867242E+03  0.21109616743E+03  0.00000000000E+00 0.  1.
         14    1    4    4    0    0 -0.88149135293E+01  0.33024652490E+02  0.12200871724E+02  0.36293134936E+02  0.00000000000E+00 0. -1.
        -11    1    3    3    0    0 -0.10021920100E+02 -0.24399388114E+02 -0.66104453175E+01  0.27193142704E+02  0.00000000000E+00 0.  1.
         11    1    3    3    0    0 -0.11046370235E+02 -0.45352861566E+02  0.15656846591E+03  0.16337866710E+03  0.00000000000E+00 0. -1.
         -2    1    1    2    0  502  0.37984669647E+02 -0.17846770147E+02  0.31029471479E+03  0.31312002868E+03  0.00000000000E+00 0.  1.
<scales pt_clust_5="13000.00000" pt_clust_6="13000.00000" pt_clust_7="13000.00000" pt_clust_8="13000.00000" pt_clust_9="41.96835"></scales>
<clustering>
<clus scale="   41.968">  1  9  2 -1</clus>
<clus scale="   81.260">  5  6 -1 -1</clus>
<clus scale="   92.309">  7  8 -1 -1</clus>
<clus scale="  112.273">  1  5  2 -1</clus>
<clus scale="   41.968">  1  5  2 -1</clus>
</clustering>
</event>
<event>
 9    2  0.6190160E-005  0.1084402E+03  0.7546771E-02  0.1268060E+00
         21   -1    0    0  501  502  0.00000000000E+00  0.00000000000E+00  0.48950020963E+03  0.48950020963E+03  0.00000000000E+00 0. -1.
          2   -1    0    0  502    0 -0.00000000000E+00 -0.00000000000E+00 -0.12509293044E+03  0.12509293044E+03  0.00000000000E+00 0. -1.
         23    2    1    2    0    0  0.66097337900E+02 -0.24597023545E+02 -0.74486844066E+02  0.13709002867E+03  0.90947866259E+02 0.  0.
         24    2    1    2    0    0 -0.12815689552E+02  0.24730486070E+02  0.85670459542E+02  0.12028341923E+03  0.79704670268E+02 0.  0.
        -13    1    4    4    0    0 -0.20837543833E+02  0.42098591874E+02  0.89215961520E+02  0.10082649682E+03  0.00000000000E+00 0.  1.
         14    1    4    4    0    0  0.80218542811E+01 -0.17368105804E+02 -0.35455019772E+01  0.19456922408E+02  0.00000000000E+00 0. -1.
        -13    1    3    3    0    0  0.71671446857E+02  0.16459042304E+00 -0.83604717048E+02  0.11012071602E+03  0.00000000000E+00 0. -1.
         13    1    3    3    0    0 -0.55741089572E+01 -0.24761613968E+02  0.91178729819E+01  0.26969312647E+02  0.00000000000E+00 0.  1.
          1    1    1    2  501    0 -0.53281648347E+02 -0.13346252502E+00  0.35322366372E+03  0.35721969217E+03  0.00000000000E+00 0. -1.
<scales pt_clust_5="13000.00000" pt_clust_6="13000.00000" pt_clust_7="13000.00000" pt_clust_8="13000.00000" pt_clust_9="53.28182"></scales>
<clustering>
<clus scale="   53.282">  1  9  2 -1</clus>
<clus scale="   79.705">  5  6 -1 -1</clus>
<clus scale="   90.948">  7  8 -1 -1</clus>
<clus scale="   99.200">  1  5  2 -1</clus>
<clus scale="   53.282">  1  5  2 -1</clus>
</clustering>
</event>
<event>
 9    2  0.6190160E-005  0.9499106E+02  0.7546771E-02  0.1297834E+00
         21   -1    0    0  501  502  0.00000000000E+00  0.00000000000E+00  0.42895129738E+02  0.42895129738E+02  0.00000000000E+00 0.  1.
         -1   -1    0    0    0  501 -0.00000000000E+00 -0.00000000000E+00 -0.34185424173E+03  0.34185424173E+03  0.00000000000E+00 0.  1.
         24    2    1    2    0    0 -0.14017148676E+02 -0.24848045634E+02 -0.15908358159E+03  0.18013690572E+03  0.79547552091E+02 0.  0.
         23    2    1    2    0    0  0.32031416444E+02  0.34049487056E+01 -0.46725874297E+02  0.10734387533E+03  0.91114186196E+02 0.  0.
        -13    1    3    3    0    0 -0.30411398256E+01 -0.37398358413E+02 -0.15909939415E+03  0.16346407239E+03  0.00000000000E+00 0.  1.
         14    1    3    3    0    0 -0.10976008850E+02  0.12550312779E+02  0.15812567071E-01  0.16672833328E+02  0.00000000000E+00 0. -1.
        -13    1    4    4    0    0  0.48761183943E+02  0.35567599598E+02 -0.27846715576E+02  0.66469141480E+02  0.00000000000E+00 0.  1.
         13    1    4    4    0    0 -0.16729767499E+02 -0.32162650893E+02 -0.18879158721E+02  0.40874733847E+02  0.00000000000E+00 0. -1.
         -2    1    1    2    0  502 -0.18014267768E+02  0.21443096928E+02 -0.93149656104E+02  0.97268590416E+02  0.00000000000E+00 0.  1.
<scales pt_clust_5="13000.00000" pt_clust_6="13000.00000" pt_clust_7="13000.00000" pt_clust_8="13000.00000" pt_clust_9="28.00573"></scales>
<clustering>
<clus scale="   28.006">  1  9  2 -1</clus>
<clus scale="   79.548">  5  6 -1 -1</clus>
<clus scale="   83.960">  2  5  1 -1</clus>
<clus scale="   91.114">  7  8 -1 -1</clus>
<clus scale="   28.006">  1  5  2 -1</clus>
</clustering>
</event>
<event>
 9    2  0.6190160E-005  0.1031731E+03  0.7546771E-02  0.1279116E+00
         21   -1    0    0  501  502  0.00000000000E+00  0.00000000000E+00  0.73342115550E+02  0.73342115550E+02  0.00000000000E+00 0.  1.
          2   -1    0    0  502    0 -0.00000000000E+00 -0.00000000000E+00 -0.47059389181E+03  0.47059389181E+03  0.00000000000E+00 0. -1.
         24    2    1    2    0    0  0.48384616300E+01 -0.42985163186E+02 -0.14696626284E+03  0.17251394481E+03  0.79314839555E+02 0.  0.
         23    2    1    2    0    0 -0.29335100398E+02  0.70809965344E+02 -0.50488887629E+00  0.11890539910E+03  0.90904563772E+02 0.  0.
        -13    1    3    3    0    0  0.38501823051E+02 -0.62052807962E+01 -0.49330208608E+02  0.62883744873E+02  0.00000000000E+00 0.  1.
         14    1    3    3    0    0 -0.33663361421E+02 -0.36779882389E+02 -0.97636054234E+02  0.10963019993E+03  0.00000000000E+00 0. -1.
        -13    1    4    4    0    0  0.21020715282E+02  0.38594615620E+02  0.28582795222E+02  0.52425099032E+02  0.00000000000E+00 0.  1.
         13    1    4    4    0    0 -0.50355815681E+02  0.32215349724E+02 -0.29087684098E+02  0.66480300066E+02  0.00000000000E+00 0. -1.
          1    1    1    2  501    0  0.24496638768E+02 -0.27824802158E+02 -0.24978062454E+03  0.25251666346E+03  0.00000000000E+00 0. -1.
<scales pt_clust_5="13000.00000" pt_clust_6="13000.00000" pt_clust_7="13000.00000" pt_clust_8="13000.00000" pt_clust_9="37.07164"></scales>
<clustering>
<clus scale="   37.072">  1  9  2 -1</clus>
<clus scale="   79.315">  5  6 -1 -1</clus>
<clus scale="   90.905">  7  8 -1 -1</clus>
<clus scale="   93.123">  2  5  1 -1</clus>
<clus scale="   37.072">  1  5  2 -1</clus>
</clustering>
</event>
<event>
 9    2  0.6190160E-005  0.2387733E+03  0.7546771E-02  0.1146158E+00
          2   -1    0    0  502    0 -0.00000000000E+00  0.00000000000E+00  0.61391220180E+03  0.61391220180E+03  0.00000000000E+00 0. -1.
         21   -1    0    0  501  502  0.00000000000E+00 -0.00000000000E+00 -0.25160683873E+03  0.25160683873E+03  0.00000000000E+00 0. -1.
         23    2    1    2    0    0 -0.70534088227E+02  0.54319008628E+02  0.37022673537E+03  0.39172284309E+03  0.91942035643E+02 0.  0.
         24    2    1    2    0    0  0.13716673455E+03  0.17375320663E+03 -0.15946078758E+02  0.23605423471E+03  0.80389268040E+02 0.  0.
        -13    1    4    4    0    0  0.42738608000E+02  0.70113346339E+01 -0.94045864772E+01  0.44319224654E+02  0.00000000000E+00 0.  1.
         14    1    4    4    0    0  0.94428126553E+02  0.16674187200E+03 -0.65414922812E+01  0.19173501006E+03  0.00000000000E+00 0. -1.
        -13    1    3    3    0    0 -0.27917696115E+02  0.59427166437E+02  0.31504323889E+03  0.32181241156E+03  0.00000000000E+00 0.  1.
         13    1    3    3    0    0 -0.42616392112E+02 -0.51081578094E+01  0.55183496485E+02  0.69910431533E+02  0.00000000000E+00 0. -1.
          1    1    1    2  501    0 -0.66632646326E+02 -0.22807221526E+03  0.80247064581E+01  0.23774196273E+03  0.00000000000E+00 0. -1.
<scales pt_clust_5="13000.00000" pt_clust_6="13000.00000" pt_clust_7="13000.00000" pt_clust_8="13000.00000" pt_clust_9="224.83397"></scales>
<clustering>
<clus scale="   80.389">  5  6 -1 -1</clus>
<clus scale="   91.942">  7  8 -1 -1</clus>
<clus scale="  127.980">  1  7  2 -1</clus>
<clus scale="  224.834">  2  9  1 -1</clus>
<clus scale="  224.834">  2  5  1 -1</clus>
</clustering>
</event>
<event>
 9    2  0.6190160E-005  0.1590246E+03  0.7546771E-02  0.1203183E+00
         -1   -1    0    0    0  501 -0.00000000000E+00  0.00000000000E+00  0.24719355624E+03  0.24719355624E+03  0.00000000000E+00 0.  1.
         21   -1    0    0  501  502  0.00000000000E+00 -0.00000000000E+00 -0.47900199191E+03  0.47900199191E+03  0.00000000000E+00 0.  1.
         23    2    1    2    0    0  0.69766373688E+02 -0.25441410723E+02  0.17834299214E+03  0.21423925420E+03  0.92615457232E+02 0.  0.
         24    2    1    2    0    0  0.96994603996E+02  0.28472533439E+02 -0.11379704762E+03  0.17189110895E+03  0.79863301490E+02 0.  0.
        -11    1    4    4    0    0  0.78561818642E+02  0.10099145930E+02 -0.12124083639E+03  0.14482158853E+03  0.00000000000E+00 0.  1.
         12    1    4    4    0    0  0.18432785354E+02  0.18373387509E+02  0.74437887699E+01  0.27069520419E+02  0.00000000000E+00 0. -1.
        -11    1    3    3    0    0  0.20362481093E+02 -0.56484564171E+02  0.98306934500E+02  0.11519283830E+03  0.00000000000E+00 0.  1.
         11    1    3    3    0    0  0.49403892595E+02  0.31043153448E+02  0.80036057643E+02  0.99046415899E+02  0.00000000000E+00 0. -1.
         -2    1    1    2    0  502 -0.16676097768E+03 -0.30311227153E+01 -0.29635438020E+03  0.34006518499E+03  0.00000000000E+00 0.  1.
<scales pt_clust_5="13000.00000" pt_clust_6="13000.00000" pt_clust_7="13000.00000" pt_clust_8="13000.00000" pt_clust_9="137.51604"></scales>
<clustering>
<clus scale="   79.863">  5  6 -1 -1</clus>
<clus scale="   92.615">  7  8 -1 -1</clus>
<clus scale="  118.711">  1  7  2 -1</clus>
<clus scale="  137.516">  2  9  1 -1</clus>
<clus scale="  137.516">  2  5  1 -1</clus>
</clustering>
</event>
<event>
 9    2  0.6190160E-005  0.1220094E+03  0.7546771E-02  0.1244279E+00
          4   -1    0    0  502    0 -0.00000000000E+00  0.00000000000E+00  0.15526831634E+03  0.15526831634E+03  0.00000000000E+00 0. -1.
         21   -1    0    0  501  502  0.00000000000E+00 -0.00000000000E+00 -0.26010586250E+03  0.26010586250E+03  0.00000000000E+00 0. -1.
         24    2    1    2    0    0 -0.77379566817E+02  0.37364875556E+02  0.57163242589E+02  0.12803273530E+03  0.75769477489E+02 0.  0.
         23    2    1    2    0    0  0.54991050618E+02 -0.14678072382E+02 -0.20652930919E+03  0.23258082056E+03  0.90553967765E+02 0.  0.
        -11    1    3    3    0    0 -0.12428549129E+02  0.36176749772E+02 -0.44365329388E+01  0.38508555958E+02  0.00000000000E+00 0.  1.
         12    1    3    3    0    0 -0.64951017688E+02  0.11881257839E+01  0.61599775528E+02  0.89524179341E+02  0.00000000000E+00 0. -1.
        -13    1    4    4    0    0 -0.24991983488E+02 -0.52994516087E+01 -0.63360123300E+02  0.68316825531E+02  0.00000000000E+00 0.  1.
         13    1    4    4    0    0  0.79983034106E+02 -0.93786207729E+01 -0.14316918589E+03  0.16426399503E+03  0.00000000000E+00 0. -1.
          3    1    1    2  501    0  0.22388516199E+02 -0.22686803174E+02  0.44528520445E+02  0.54760622977E+02  0.00000000000E+00 0. -1.
<scales pt_clust_5="13000.00000" pt_clust_6="13000.00000" pt_clust_7="13000.00000" pt_clust_8="13000.00000" pt_clust_9="31.87378"></scales>
<clustering>
<clus scale="   31.874">  2  9  1 -1</clus>
<clus scale="   75.769">  5  6 -1 -1</clus>
<clus scale="   90.554">  7  8 -1 -1</clus>
<clus scale="  111.478">  1  5  2 -1</clus>
<clus scale="   31.874">  2  5  1 -1</clus>
</clustering>
</event>
<event>
 9    2  0.6190160E-005  0.9326638E+02  0.7546771E-02  0.1298302E+00
         21   -1    0    0  501  502  0.00000000000E+00  0.00000000000E+00  0.89584306782E+02  0.89584306782E+02  0.00000000000E+00 0. -1.
          2   -1    0    0  502    0 -0.00000000000E+00 -0.00000000000E+00 -0.14292960770E+03  0.14292960770E+03  0.00000000000E+00 0. -1.
         24    2    1    2    0    0 -0.33029587245E+02  0.24888070300E+02 -0.37362551181E+02  0.10073312918E+03  0.83909674101E+02 0.  0.
         23    2    1    2    0    0  0.46295975230E+00 -0.62745761680E+01  0.29878042038E+01  0.89745927059E+02  0.89475246923E+02 0.  0.
        -13    1    3    3    0    0  0.24778552254E+02  0.16712647673E+02 -0.29195709209E+02  0.41781319752E+02  0.00000000000E+00 0.  1.
         14    1    3    3    0    0 -0.57808139499E+02  0.81754226270E+01 -0.81668419723E+01  0.58951809432E+02  0.00000000000E+00 0. -1.
        -13    1    4    4    0    0 -0.24442111164E+02  0.34266737345E+02  0.24692657937E+01  0.42163056815E+02  0.00000000000E+00 0.  1.
         13    1    4    4    0    0  0.24905070916E+02 -0.40541313513E+02  0.51853841013E+00  0.47582870245E+02  0.00000000000E+00 0. -1.
          1    1    1    2  501    0  0.32566627493E+02 -0.18613494132E+02 -0.18970553937E+02  0.42034858234E+02  0.00000000000E+00 0. -1.
<scales pt_clust_5="13000.00000" pt_clust_6="13000.00000" pt_clust_7="13000.00000" pt_clust_8="13000.00000" pt_clust_9="37.51065"></scales>
<clustering>
<clus scale="   37.511">  1  9  2 -1</clus>
<clus scale="   83.910">  5  6 -1 -1</clus>
<clus scale="   87.941">  2  5  1 -1</clus>
<clus scale="   89.475">  7  8 -1 -1</clus>
<clus scale="   37.511">  1  5  2 -1</clus>
</clustering>
</event>
<event>
 9    2  0.9045006E-005  0.1139280E+03  0.7546771E-02  0.1259468E+00
         21   -1    0    0  501  502  0.00000000000E+00  0.00000000000E+00  0.99207434017E+02  0.99207434017E+02  0.00000000000E+00 0. -1.
          2   -1    0    0  502    0 -0.00000000000E+00 -0.00000000000E+00 -0.11126371218E+04  0.11126371218E+04  0.00000000000E+00 0. -1.
         24    2    1    2    0    0  0.54140681073E+02 -0.75830703565E+02 -0.84608674373E+03  0.85450423856E+03  0.75054692375E+02 0.  0.
         23    2    1    2    0    0  0.17844767162E+02  0.22726561319E+02 -0.22926724470E+03  0.24854429853E+03  0.91519760348E+02 0.  0.
        -11    1    3    3    0    0 -0.18027658500E+02 -0.22019659397E+02 -0.15649568956E+03  0.15906213479E+03  0.00000000000E+00 0.  1.
         12    1    3    3    0    0  0.72168339573E+02 -0.53811044168E+02 -0.68959105417E+03  0.69544210377E+03  0.00000000000E+00 0. -1.
        -13    1    4    4    0    0 -0.31745721304E+02  0.10431412829E+02 -0.15393742507E+03  0.15752249373E+03  0.00000000000E+00 0.  1.
         13    1    4    4    0    0  0.49590488466E+02  0.12295148490E+02 -0.75329819631E+02  0.91021804796E+02  0.00000000000E+00 0. -1.
          1    1    1    2  501    0 -0.71985448235E+02  0.53104142246E+02  0.61924300647E+02  0.10879601873E+03  0.00000000000E+00 0. -1.
<scales pt_clust_5="13000.00000" pt_clust_6="13000.00000" pt_clust_7="13000.00000" pt_clust_8="13000.00000" pt_clust_9="89.45365"></scales>
<clustering>
<clus scale="   75.055">  5  6 -1 -1</clus>
<clus scale="   89.454">  1  9  2 -1</clus>
<clus scale="   91.520">  7  8 -1 -1</clus>
<clus scale="  101.178">  2  5  1 -1</clus>
<clus scale="   89.454">  1  5  2 -1</clus>
</clustering>
</event>
<event>
 9    2  0.6190160E-005  0.1093095E+03  0.7546771E-02  0.1266325E+00
          4   -1    0    0  502    0 -0.00000000000E+00  0.00000000000E+00  0.38068198615E+03  0.38068198615E+03  0.00000000000E+00 0. -1.
         21   -1    0    0  501  502  0.00000000000E+00 -0.00000000000E+00 -0.68088494090E+02  0.68088494090E+02  0.00000000000E+00 0. -1.
         24    2    1    2    0    0  0.65704156968E+02  0.69626123041E+01  0.26446556033E+03  0.28440499819E+03  0.81108915544E+02 0.  0.
         23    2    1    2    0    0 -0.20772227110E+02 -0.28102965690E+02  0.51512857671E+01  0.98693684755E+02  0.92155550922E+02 0.  0.
        -11    1    3    3    0    0  0.20011272842E+02 -0.35946214009E+02  0.88124824556E+02  0.97255159479E+02  0.00000000000E+00 0.  1.
         12    1    3    3    0    0  0.45692884126E+02  0.42908826313E+02  0.17634073578E+03  0.18714983871E+03  0.00000000000E+00 0. -1.
        -13    1    4    4    0    0 -0.34188600075E+02 -0.56528855288E+02 -0.32956695942E+01  0.66145546285E+02  0.00000000000E+00 0.  1.
         13    1    4    4    0    0  0.13416372965E+02  0.28425889598E+02  0.84469553614E+01  0.32548138470E+02  0.00000000000E+00 0. -1.
          3    1    1    2  501    0 -0.44931929858E+02  0.21140353386E+02  0.42976645963E+02  0.65671797297E+02  0.00000000000E+00 0. -1.
<scales pt_clust_5="13000.00000" pt_clust_6="13000.00000" pt_clust_7="13000.00000" pt_clust_8="13000.00000" pt_clust_9="49.65675"></scales>
<clustering>
<clus scale="   49.657">  2  9  1 -1</clus>
<clus scale="   81.109">  5  6 -1 -1</clus>
<clus scale="   92.156">  7  8 -1 -1</clus>
<clus scale="  100.173">  1  5  2 -1</clus>
<clus scale="   49.657">  2  5  1 -1</clus>
</clustering>
</event>
<event>
 9    2  0.6190160E-005  0.1356018E+03  0.7546771E-02  0.1235356E+00
          2   -1    0    0  502    0 -0.00000000000E+00  0.00000000000E+00  0.60577403027E+03  0.60577403027E+03  0.00000000000E+00 0. -1.
         21   -1    0    0  501  502  0.00000000000E+00 -0.00000000000E+00 -0.59096474524E+02  0.59096474524E+02  0.00000000000E+00 0. -1.
         24    2    1    2    0    0  0.68927265339E+01 -0.53682248707E+02  0.19397766690E+03  0.21703125240E+03  0.80906957412E+02 0.  0.
         23    2    1    2    0    0  0.79523066442E+02 -0.81481979057E+01  0.31025518654E+03  0.33341789880E+03  0.92297904842E+02 0.  0.
        -11    1    3    3    0    0  0.20528714806E+02 -0.69544788863E+02  0.17215301649E+03  0.18680087493E+03  0.00000000000E+00 0.  1.
         12    1    3    3    0    0 -0.13635988272E+02  0.15862540155E+02  0.21824650413E+02  0.30230377470E+02  0.00000000000E+00 0. -1.
        -13    1    4    4    0    0  0.71651633862E+00  0.31237683271E+02  0.11569965652E+03  0.11984455253E+03  0.00000000000E+00 0.  1.
         13    1    4    4    0    0  0.78806550104E+02 -0.39385881177E+02  0.19455553002E+03  0.21357334627E+03  0.00000000000E+00 0. -1.
          1    1    1    2  501    0 -0.86415792976E+02  0.61830446613E+02  0.42444702301E+02  0.11442135359E+03  0.00000000000E+00 0. -1.
<scales pt_clust_5="13000.00000" pt_clust_6="13000.00000" pt_clust_7="13000.00000" pt_clust_8="13000.00000" pt_clust_9="99.34254"></scales>
<clustering>
<clus scale="   80.907">  5  6 -1 -1</clus>
<clus scale="   92.298">  7  8 -1 -1</clus>
<clus scale="   97.341">  1  5  2 -1</clus>
<clus scale="   99.343">  2  9  1 -1</clus>
<clus scale="   99.343">  2  5  1 -1</clus>
</clustering>
</event>
<event>
 9    2  0.6190160E-005  0.3206586E+03  0.7546771E-02  0.1118975E+00
         -1   -1    0    0    0  501 -0.00000000000E+00  0.00000000000E+00  0.30366127855E+03  0.30366127855E+03  0.00000000000E+00 0.  1.
         21   -1    0    0  501  502  0.00000000000E+00 -0.00000000000E+00 -0.47674477798E+03  0.47674477798E+03  0.00000000000E+00 0.  1.
         23    2    1    2    0    0  0.43807828280E+02 -0.55841667577E+01 -0.10264581258E+03  0.14520837164E+03  0.92730791098E+02 0.  0.
         24    2    1    2    0    0  0.10764216920E+03 -0.27480316563E+03 -0.24004815277E+00  0.30888209167E+03  0.91128878543E+02 0.  0.
        -13    1    4    4    0    0  0.12308020188E+03 -0.24972313597E+03  0.72230405947E+01  0.27850054408E+03  0.00000000000E+00 0.  1.
         14    1    4    4    0    0 -0.15438032685E+02 -0.25080029654E+02 -0.74630887475E+01  0.30381547595E+02  0.00000000000E+00 0. -1.
        -13    1    3    3    0    0  0.66771563627E+02  0.13340426975E+02 -0.49093207043E+02  0.83943741154E+02  0.00000000000E+00 0.  1.
         13    1    3    3    0    0 -0.22963735347E+02 -0.18924593733E+02 -0.53552605537E+02  0.61264630489E+02  0.00000000000E+00 0. -1.
         -2    1    1    2    0  502 -0.15144999748E+03  0.28038733239E+03 -0.70197638699E+02  0.32631559322E+03  0.00000000000E+00 0.  1.
<scales pt_clust_5="13000.00000" pt_clust_6="13000.00000" pt_clust_7="13000.00000" pt_clust_8="13000.00000" pt_clust_9="307.43698"></scales>
<clustering>
<clus scale="   91.129">  5  6 -1 -1</clus>
<clus scale="   92.731">  7  8 -1 -1</clus>
<clus scale="  102.710">  1  7  2 -1</clus>
<clus scale="  307.437">  2  9  1 -1</clus>
<clus scale="  307.437">  2  5  1 -1</clus>
</clustering>
</event>
<event>
 9    2  0.6190160E-005  0.1492426E+03  0.7546771E-02  0.1208162E+00
         21   -1    0    0  501  502  0.00000000000E+00  0.00000000000E+00  0.14314249433E+03  0.14314249433E+03  0.00000000000E+00 0. -1.
          2   -1    0    0  502    0 -0.00000000000E+00 -0.00000000000E+00 -0.31749653686E+03  0.31749653686E+03  0.00000000000E+00 0. -1.
         23    2    1    2    0    0 -0.77184785234E+02  0.46679844012E+02 -0.52843214762E+02  0.13943059936E+03  0.92260434554E+02 0.  0.
         24    2    1    2    0    0 -0.57992456257E+02 -0.87245052367E+02 -0.12017134989E+03  0.18006943315E+03  0.83719909672E+02 0.  0.
        -13    1    4    4    0    0  0.27725252605E+01 -0.69572356860E+02 -0.50931195723E+02  0.86266948672E+02  0.00000000000E+00 0.  1.
         14    1    4    4    0    0 -0.60764981518E+02 -0.17672695507E+02 -0.69240154167E+02  0.93802484479E+02  0.00000000000E+00 0. -1.
        -11    1    3    3    0    0 -0.25327040121E+02  0.44915410739E+02 -0.68032312239E+02  0.85365382865E+02  0.00000000000E+00 0.  1.
         11    1    3    3    0    0 -0.51857745113E+02  0.17644332727E+01  0.15189097476E+02  0.54065216499E+02  0.00000000000E+00 0. -1.
          1    1    1    2  501    0  0.13517724149E+03  0.40565208355E+02 -0.13394778749E+01  0.14113899868E+03  0.00000000000E+00 0. -1.
<scales pt_clust_5="13000.00000" pt_clust_6="13000.00000" pt_clust_7="13000.00000" pt_clust_8="13000.00000" pt_clust_9="123.54885"></scales>
<clustering>
<clus scale="   83.720">  5  6 -1 -1</clus>
<clus scale="   92.260">  7  8 -1 -1</clus>
<clus scale="  129.029">  2  7  1 -1</clus>
<clus scale="  123.549">  1  9  2 -1</clus>
<clus scale="  123.549">  1  5  2 -1</clus>
</clustering>
</event>
<event>
 9    2  0.6190160E-005  0.9370127E+02  0.7546771E-02  0.1295475E+00
          2   -1    0    0  502    0 -0.00000000000E+00  0.00000000000E+00  0.56637753751E+03  0.56637753751E+03  0.00000000000E+00 0. -1.
         21   -1    0    0  501  502  0.00000000000E+00 -0.00000000000E+00 -0.24528096378E+02  0.24528096378E+02  0.00000000000E+00 0. -1.
         24    2    1    2    0    0 -0.14679377009E+02  0.44725896730E+02  0.21531802984E+03  0.23594120519E+03  0.84205156510E+02 0.  0.
         23    2    1    2    0    0  0.29034705030E+01 -0.20649813580E+02  0.13650858115E+03  0.16306079214E+03  0.86714383243E+02 0.  0.
        -11    1    3    3    0    0 -0.23290227154E+02  0.67387299638E+02  0.17392455281E+03  0.18797136193E+03  0.00000000000E+00 0.  1.
         12    1    3    3    0    0  0.86108501451E+01 -0.22661402908E+02  0.41393477029E+02  0.47969843262E+02  0.00000000000E+00 0. -1.
        -13    1    4    4    0    0 -0.93529699030E+01  0.31992189802E+02  0.36845232697E+02  0.49684498859E+02  0.00000000000E+00 0. -1.
         13    1    4    4    0    0  0.12256440406E+02 -0.52642003382E+02  0.99663348457E+02  0.11337629328E+03  0.00000000000E+00 0.  1.
          1    1    1    2  501    0  0.11775906506E+02 -0.24076083150E+02  0.19002283013E+03  0.19190363656E+03  0.00000000000E+00 0. -1.
<scales pt_clust_5="13000.00000" pt_clust_6="13000.00000" pt_clust_7="13000.00000" pt_clust_8="13000.00000" pt_clust_9="26.80169"></scales>
<clustering>
<clus scale="   26.802">  2  9  1 -1</clus>
<clus scale="   84.205">  5  6 -1 -1</clus>
<clus scale="   86.714">  7  8 -1 -1</clus>
<clus scale="   91.384">  1  5  2 -1</clus>
<clus scale="   26.802">  2  5  1 -1</clus>
</clustering>
</event>
<event>
 9    2  0.6190160E-005  0.1085352E+03  0.7546771E-02  0.1267992E+00
         21   -1    0    0  501  502  0.00000000000E+00  0.00000000000E+00  0.96877900187E+02  0.96877900187E+02  0.00000000000E+00 0.  1.
         -1   -1    0    0    0  501 -0.00000000000E+00 -0.00000000000E+00 -0.23914304107E+03  0.23914304107E+03  0.00000000000E+00 0.  1.
         23    2    1    2    0    0 -0.87202435457E+01 -0.55147160382E+02 -0.13914499548E+03  0.17511214282E+03  0.90474752561E+02 0.  0.
         24    2    1    2    0    0  0.10094980429E+02  0.53303435833E+01 -0.28024073820E+02  0.10519694342E+03  0.10075081637E+03 0.  0.
        -13    1    4    4    0    0  0.36949521920E+02 -0.20423096742E+02  0.18101429650E+02  0.45935082520E+02  0.00000000000E+00 0.  1.
         14    1    4    4    0    0 -0.26854541491E+02  0.25753440326E+02 -0.46125503470E+02  0.59261860903E+02  0.00000000000E+00 0. -1.
        -11    1    3    3    0    0 -0.35393787662E+02 -0.55053547269E+02 -0.13225406655E+03  0.14756270325E+03  0.00000000000E+00 0.  1.
         11    1    3    3    0    0  0.26673544116E+02 -0.93613113359E-01 -0.68909289312E+01  0.27549439571E+02  0.00000000000E+00 0. -1.
         -2    1    1    2    0  502 -0.13747368836E+01  0.49816816799E+02  0.24903928422E+02  0.55711855007E+02  0.00000000000E+00 0.  1.
<scales pt_clust_5="13000.00000" pt_clust_6="13000.00000" pt_clust_7="13000.00000" pt_clust_8="13000.00000" pt_clust_9="49.83578"></scales>
<clustering>
<clus scale="   49.836">  1  9  2 -1</clus>
<clus scale="   90.475">  7  8 -1 -1</clus>
<clus scale="   99.070">  2  7  1 -1</clus>
<clus scale="  100.751">  5  6 -1 -1</clus>
<clus scale="   49.836">  1  5  2 -1</clus>
</clustering>
</event>
<event>
 9    2  0.6190160E-005  0.9346118E+02  0.7546771E-02  0.1300661E+00
         21   -1    0    0  501  502  0.00000000000E+00  0.00000000000E+00  0.14352544099E+03  0.14352544099E+03  0.00000000000E+00 0.  1.
          2   -1    0    0  502    0 -0.00000000000E+00 -0.00000000000E+00 -0.12534731287E+03  0.12534731287E+03  0.00000000000E+00 0. -1.
         24    2    1    2    0    0 -0.15671120345E+02  0.37842144164E+01 -0.34664214956E+02  0.88924389299E+02  0.80287202729E+02 0.  0.
         23    2    1    2    0    0  0.16446580625E+02 -0.37953263968E+02 -0.18205162297E+02  0.10110755466E+03  0.90445394659E+02 0.  0.
        -11    1    3    3    0    0 -0.36642373271E+02 -0.23839488146E+02 -0.63940588569E+01  0.44179958155E+02  0.00000000000E+00 0.  1.
         12    1    3    3    0    0  0.20971252925E+02  0.27623702562E+02 -0.28270156100E+02  0.44744431144E+02  0.00000000000E+00 0. -1.
        -11    1    4    4    0    0 -0.54506681778E+01  0.20322822545E+02 -0.31083253361E+02  0.37535257283E+02  0.00000000000E+00 0. -1.
         11    1    4    4    0    0  0.21897248802E+02 -0.58276086514E+02  0.12878091064E+02  0.63572297378E+02  0.00000000000E+00 0.  1.
          1    1    1    2  501    0 -0.77546027947E+00  0.34169049552E+02  0.71047505377E+02  0.78840809904E+02  0.00000000000E+00 0. -1.
<scales pt_clust_5="13000.00000" pt_clust_6="13000.00000" pt_clust_7="13000.00000" pt_clust_8="13000.00000" pt_clust_9="34.17785"></scales>
<clustering>
<clus scale="   34.178">  1  9  2 -1</clus>
<clus scale="   80.287">  5  6 -1 -1</clus>
<clus scale="   83.670">  2  5  1 -1</clus>
<clus scale="   90.445">  7  8 -1 -1</clus>
<clus scale="   34.178">  1  5  2 -1</clus>
</clustering>
</event>
<event>
 9    2  0.6190160E-005  0.1048642E+03  0.7546771E-02  0.1275195E+00
         -3   -1    0    0    0  501 -0.00000000000E+00  0.00000000000E+00  0.93747730521E+02  0.93747730521E+02  0.00000000000E+00 0.  1.
         21   -1    0    0  501  502  0.00000000000E+00 -0.00000000000E+00 -0.27317551042E+03  0.27317551042E+03  0.00000000000E+00 0.  1.
         23    2    1    2    0    0  0.37898484224E+02 -0.27118961217E+02  0.32987029568E+02  0.10737508075E+03  0.90936959936E+02 0.  0.
         24    2    1    2    0    0 -0.59387102123E+02  0.41041949726E+02 -0.11015584412E+03  0.15413228709E+03  0.80069859459E+02 0.  0.
        -11    1    4    4    0    0 -0.49733135231E+02  0.22249650194E+02 -0.14791121796E+02  0.56455371380E+02  0.00000000000E+00 0.  1.
         12    1    4    4    0    0 -0.96539668921E+01  0.18792299532E+02 -0.95364722327E+02  0.97676915712E+02  0.00000000000E+00 0. -1.
        -13    1    3    3    0    0 -0.94294144135E+01 -0.48167889277E+02  0.24603447914E+02  0.54903452194E+02  0.00000000000E+00 0.  1.
         13    1    3    3    0    0  0.47327898638E+02  0.21048928060E+02  0.83835816543E+01  0.52471628556E+02  0.00000000000E+00 0. -1.
         -4    1    1    2    0  502  0.21488617898E+02 -0.13922988508E+02 -0.10225896535E+03  0.10541587310E+03  0.00000000000E+00 0.  1.
<scales pt_clust_5="13000.00000" pt_clust_6="13000.00000" pt_clust_7="13000.00000" pt_clust_8="13000.00000" pt_clust_9="25.60489"></scales>
<clustering>
<clus scale="   25.605">  2  9  1 -1</clus>
<clus scale="   80.070">  5  6 -1 -1</clus>
<clus scale="   90.937">  7  8 -1 -1</clus>
<clus scale="   95.594">  2  5  1 -1</clus>
<clus scale="   25.605">  2  5  1 -1</clus>
</clustering>
</event>
<event>
 9    2  0.6190160E-005  0.9309083E+02  0.7546771E-02  0.1296580E+00
         -1   -1    0    0    0  501 -0.00000000000E+00  0.00000000000E+00  0.52860019707E+03  0.52860019707E+03  0.00000000000E+00 0.  1.
         21   -1    0    0  501  502  0.00000000000E+00 -0.00000000000E+00 -0.43622648739E+02  0.43622648739E+02  0.00000000000E+00 0.  1.
         23    2    1    2    0    0 -0.41304733907E+02 -0.35338509905E+01  0.39862028687E+03  0.40947003291E+03  0.83958356366E+02 0.  0.
         24    2    1    2    0    0  0.27143750630E+02  0.40662992205E+02  0.45422271578E+02  0.10570213392E+03  0.81972533368E+02 0.  0.
        -13    1    4    4    0    0  0.13812268308E+02  0.65426106324E+02  0.36587987962E+02  0.76223585639E+02  0.00000000000E+00 0.  1.
         14    1    4    4    0    0  0.13331482322E+02 -0.24763114119E+02  0.88342836161E+01  0.29478548282E+02  0.00000000000E+00 0. -1.
        -13    1    3    3    0    0 -0.55665778998E+02  0.25498453903E+02  0.25692303923E+03  0.26411796264E+03  0.00000000000E+00 0.  1.
         13    1    3    3    0    0  0.14361045090E+02 -0.29032304893E+02  0.14169724764E+03  0.14535207027E+03  0.00000000000E+00 0. -1.
         -2    1    1    2    0  502  0.14160983277E+02 -0.37129141215E+02  0.40934989880E+02  0.57050678972E+02  0.00000000000E+00 0.  1.
<scales pt_clust_5="13000.00000" pt_clust_6="13000.00000" pt_clust_7="13000.00000" pt_clust_8="13000.00000" pt_clust_9="39.73797"></scales>
<clustering>
<clus scale="   39.738">  2  9  1 -1</clus>
<clus scale="   81.973">  5  6 -1 -1</clus>
<clus scale="   83.958">  7  8 -1 -1</clus>
<clus scale="   91.304">  2  5  1 -1</clus>
<clus scale="   39.738">  2  5  1 -1</clus>
</clustering>
</event>
<event>
 9    2  0.6190160E-005  0.9086013E+02  0.7546771E-02  0.1307640E+00
          2   -1    0    0  502    0 -0.00000000000E+00  0.00000000000E+00  0.48117707930E+02  0.48117707930E+02  0.00000000000E+00 0. -1.
         21   -1    0    0  501  502  0.00000000000E+00 -0.00000000000E+00 -0.43544024464E+03  0.43544024464E+03  0.00000000000E+00 0. -1.
         23    2    1    2    0    0 -0.13065246413E+02 -0.14205806726E+02 -0.26526281778E+02  0.96309956822E+02  0.90550861672E+02 0.  0.
         24    2    1    2    0    0 -0.26309662556E+02 -0.14302470518E+02 -0.16749904164E+03  0.18793186997E+03  0.79785335710E+02 0.  0.
        -11    1    4    4    0    0 -0.26537187680E+02  0.29609910195E+02 -0.97537908336E+02  0.10533096731E+03  0.00000000000E+00 0.  1.
         12    1    4    4    0    0  0.22752512426E+00 -0.43912380714E+02 -0.69961133304E+02  0.82600902663E+02  0.00000000000E+00 0. -1.
        -11    1    3    3    0    0 -0.48631994811E+02 -0.44684656594E+01 -0.32903492783E+02  0.58886992978E+02  0.00000000000E+00 0. -1.
         11    1    3    3    0    0  0.35566748398E+02 -0.97373410670E+01  0.63772110044E+01  0.37422963844E+02  0.00000000000E+00 0.  1.
          1    1    1    2  501    0  0.39374908969E+02  0.28508277245E+02 -0.19329721330E+03  0.19931612578E+03  0.00000000000E+00 0. -1.
<scales pt_clust_5="13000.00000" pt_clust_6="13000.00000" pt_clust_7="13000.00000" pt_clust_8="13000.00000" pt_clust_9="48.61178"></scales>
<clustering>
<clus scale="   48.612">  2  9  1 -1</clus>
<clus scale="   79.785">  5  6 -1 -1</clus>
<clus scale="   80.136">  2  5  1 -1</clus>
<clus scale="   90.551">  7  8 -1 -1</clus>
<clus scale="   48.612">  2  5  1 -1</clus>
</clustering>
</event>
<event>
 9    2  0.6190160E-005  0.9707155E+02  0.7546771E-02  0.1292223E+00
          2   -1    0    0  502    0 -0.00000000000E+00  0.00000000000E+00  0.49521001819E+03  0.49521001819E+03  0.00000000000E+00 0. -1.
         21   -1    0    0  501  502  0.00000000000E+00 -0.00000000000E+00 -0.39293631831E+02  0.39293631831E+02  0.00000000000E+00 0. -1.
         24    2    1    2    0    0 -0.33932142926E+01  0.29461330406E+02  0.29386602109E+03  0.30589011018E+03  0.79574099180E+02 0.  0.
         23    2    1    2    0    0  0.16882937185E+02 -0.48916321341E+02  0.17354197479E+03  0.20229764378E+03  0.90164735910E+02 0.  0.
        -11    1    3    3    0    0 -0.41171985164E+02  0.10576392412E+02  0.13756277101E+03  0.14398093070E+03  0.00000000000E+00 0.  1.
         12    1    3    3    0    0  0.37778770872E+02  0.18884937995E+02  0.15630325009E+03  0.16190917948E+03  0.00000000000E+00 0. -1.
        -11    1    4    4    0    0  0.26707153393E+02  0.12979700329E+02  0.10633899094E+03  0.11040709061E+03  0.00000000000E+00 0. -1.
         11    1    4    4    0    0 -0.98242162082E+01 -0.61896021669E+02  0.67202983851E+02  0.91890553165E+02  0.00000000000E+00 0.  1.
          1    1    1    2  501    0 -0.13489722892E+02  0.19454990934E+02 -0.11491609528E+02  0.26315896061E+02  0.00000000000E+00 0. -1.
<scales pt_clust_5="13000.00000" pt_clust_6="13000.00000" pt_clust_7="13000.00000" pt_clust_8="13000.00000" pt_clust_9="23.67423"></scales>
<clustering>
<clus scale="   23.674">  2  9  1 -1</clus>
<clus scale="   79.574">  5  6 -1 -1</clus>
<clus scale="   87.323">  1  5  2 -1</clus>
<clus scale="   90.165">  7  8 -1 -1</clus>
<clus scale="   23.674">  2  5  1 -1</clus>
</clustering>
</event>
<event>
 9    2  0.6190160E-005  0.9678428E+02  0.7546771E-02  0.1292535E+00
         -3   -1    0    0    0  501 -0.00000000000E+00  0.00000000000E+00  0.11983694271E+03  0.11983694271E+03  0.00000000000E+00 0.  1.
         21   -1    0    0  501  502  0.00000000000E+00 -0.00000000000E+00 -0.24685320512E+03  0.24685320512E+03  0.00000000000E+00 0.  1.
         24    2    1    2    0    0 -0.15090293810E+01  0.32923320265E+02  0.73949313589E+02  0.11508531574E+03  0.81791850037E+02 0.  0.
         23    2    1    2    0    0 -0.15491476286E+02 -0.14704953985E+02 -0.20576261611E+03  0.22622890537E+03  0.91569874562E+02 0.  0.
        -13    1    3    3    0    0 -0.13953946559E+02  0.49002695902E+02  0.15585579484E+02  0.53281207926E+02  0.00000000000E+00 0.  1.
         14    1    3    3    0    0  0.12444917178E+02 -0.16079375636E+02  0.58363734105E+02  0.61804107817E+02  0.00000000000E+00 0. -1.
        -13    1    4    4    0    0 -0.30895957582E+02 -0.33073903424E+02 -0.19458248354E+03  0.19977684095E+03  0.00000000000E+00 0.  1.
         13    1    4    4    0    0  0.15404481296E+02  0.18368949440E+02 -0.11180132576E+02  0.26452064417E+02  0.00000000000E+00 0. -1.
         -4    1    1    2    0  502  0.17000505667E+02 -0.18218366281E+02  0.47970401172E+01  0.25375926717E+02  0.00000000000E+00 0.  1.
<scales pt_clust_5="13000.00000" pt_clust_6="13000.00000" pt_clust_7="13000.00000" pt_clust_8="13000.00000" pt_clust_9="24.91840"></scales>
<clustering>
<clus scale="   24.918">  2  9  1 -1</clus>
<clus scale="   81.792">  5  6 -1 -1</clus>
<clus scale="   87.590">  1  5  2 -1</clus>
<clus scale="   91.570">  7  8 -1 -1</clus>
<clus scale="   24.918">  2  5  1 -1</clus>
</clustering>
</event>
<event>
 9    2  0.6190160E-005  0.9965011E+02  0.7546771E-02  0.1287863E+00
          2   -1    0    0  502    0 -0.00000000000E+00  0.00000000000E+00  0.55924340457E+02  0.55924340457E+02  0.00000000000E+00 0. -1.
         21   -1    0    0  501  502  0.00000000000E+00 -0.00000000000E+00 -0.43468694673E+03  0.43468694673E+03  0.00000000000E+00 0. -1.
         23    2    1    2    0    0  0.29388236395E+01  0.51909850242E+02 -0.70649888986E+02  0.12779496044E+03  0.92934793612E+02 0.  0.
         24    2    1    2    0    0  0.17970753164E+02  0.10210651531E+02 -0.27928183099E+03  0.29121055081E+03  0.79862622105E+02 0.  0.
        -11    1    4    4    0    0 -0.19798709115E+02  0.57255898241E+01 -0.18579527632E+02  0.27748335238E+02  0.00000000000E+00 0.  1.
         12    1    4    4    0    0  0.37769462279E+02  0.44850617070E+01 -0.26070230335E+03  0.26346221557E+03  0.00000000000E+00 0. -1.
        -13    1    3    3    0    0  0.19712593278E+02 -0.19371053860E+02 -0.39519642702E+02  0.48224746974E+02  0.00000000000E+00 0.  1.
         13    1    3    3    0    0 -0.16773769639E+02  0.71280904102E+02 -0.31130246284E+02  0.79570213467E+02  0.00000000000E+00 0. -1.
          1    1    1    2  501    0 -0.20909576804E+02 -0.62120501773E+02 -0.28830886298E+02  0.71605775936E+02  0.00000000000E+00 0. -1.
<scales pt_clust_5="13000.00000" pt_clust_6="13000.00000" pt_clust_7="13000.00000" pt_clust_8="13000.00000" pt_clust_9="65.54519"></scales>
<clustering>
<clus scale="   65.545">  2  9  1 -1</clus>
<clus scale="   79.863">  5  6 -1 -1</clus>
<clus scale="   87.586">  2  5  1 -1</clus>
<clus scale="   92.935">  7  8 -1 -1</clus>
<clus scale="   65.545">  2  5  1 -1</clus>
</clustering>
</event>
<event>
 9    2  0.6190160E-005  0.1525882E+03  0.7546771E-02  0.1198064E+00
          2   -1    0    0  502    0 -0.00000000000E+00  0.00000000000E+00  0.34580135840E+03  0.34580135840E+03  0.00000000000E+00 0. -1.
         21   -1    0    0  501  502  0.00000000000E+00 -0.00000000000E+00 -0.19728532948E+03  0.19728532948E+03  0.00000000000E+00 0.  1.
         24    2    1    2    0    0 -0.69940442373E+02 -0.11135349844E+03  0.17077721424E+03  0.23123213342E+03  0.83738733748E+02 0.  0.
         23    2    1    2    0    0  0.72455475827E+02  0.91405522574E+02  0.10695367510E+03  0.18108480532E+03  0.88021886867E+02 0.  0.
        -13    1    3    3    0    0 -0.77915357329E+02 -0.57484839146E+02  0.81041144756E+02  0.12626550116E+03  0.00000000000E+00 0.  1.
         14    1    3    3    0    0  0.79749149562E+01 -0.53868659295E+02  0.89736069481E+02  0.10496663226E+03  0.00000000000E+00 0. -1.
        -13    1    4    4    0    0  0.31930211604E+02  0.87410915762E+02  0.37008347052E+02  0.10014901077E+03  0.00000000000E+00 0.  1.
         13    1    4    4    0    0  0.40525264223E+02  0.39946068122E+01  0.69945328045E+02  0.80935794549E+02  0.00000000000E+00 0. -1.
          1    1    1    2  501    0 -0.25150334539E+01  0.19947975868E+02 -0.12921486042E+03  0.13076974913E+03  0.00000000000E+00 0. -1.
<scales pt_clust_5="13000.00000" pt_clust_6="13000.00000" pt_clust_7="13000.00000" pt_clust_8="13000.00000" pt_clust_9="20.10590"></scales>
<clustering>
<clus scale="   20.106">  2  9  1 -1</clus>
<clus scale="   83.739">  5  6 -1 -1</clus>
<clus scale="   88.022">  7  8 -1 -1</clus>
<clus scale="  150.158">  1  5  2 -1</clus>
<clus scale="   20.106">  2  5  1 -1</clus>
</clustering>
</event>
<event>
 9    2  0.6190160E-005  0.1325093E+03  0.7546771E-02  0.1228988E+00
         21   -1    0    0  501  502  0.00000000000E+00  0.00000000000E+00  0.27385800206E+03  0.27385800206E+03  0.00000000000E+00 0.  1.
          2   -1    0    0  502    0 -0.00000000000E+00 -0.00000000000E+00 -0.92660951139E+02  0.92660951139E+02  0.00000000000E+00 0. -1.
         23    2    1    2    0    0  0.59880057293E+02 -0.92092999874E+02  0.31987529174E+02  0.15136221742E+03  0.99098824166E+02 0.  0.
         24    2    1    2    0    0 -0.44339391978E+02  0.39706818815E+02  0.10555326766E+03  0.14521609835E+03  0.80022557844E+02 0.  0.
        -13    1    4    4    0    0 -0.64780817502E+02  0.43040686075E+02  0.91972344685E+02  0.12044902308E+03  0.00000000000E+00 0.  1.
         14    1    4    4    0    0  0.20441425525E+02 -0.33338672603E+01  0.13580922975E+02  0.24767075266E+02  0.00000000000E+00 0. -1.
        -13    1    3    3    0    0  0.33273748700E+02  0.15193651851E+02  0.14970562196E+02  0.39523501130E+02  0.00000000000E+00 0.  1.
         13    1    3    3    0    0  0.26606308593E+02 -0.10728665173E+03  0.17016966978E+02  0.11183871629E+03  0.00000000000E+00 0. -1.
          1    1    1    2  501    0 -0.15540665315E+02  0.52386181060E+02  0.43656254091E+02  0.69940637441E+02  0.00000000000E+00 0. -1.
<scales pt_clust_5="13000.00000" pt_clust_6="13000.00000" pt_clust_7="13000.00000" pt_clust_8="13000.00000" pt_clust_9="54.64270"></scales>
<clustering>
<clus scale="   54.643">  1  9  2 -1</clus>
<clus scale="   80.023">  5  6 -1 -1</clus>
<clus scale="   99.099">  7  8 -1 -1</clus>
<clus scale="  118.919">  1  5  2 -1</clus>
<clus scale="   54.643">  1  5  2 -1</clus>
</clustering>
</event>
<event>
 9    2  0.6190160E-005  0.1183058E+03  0.7546771E-02  0.1248601E+00
          2   -1    0    0  502    0 -0.00000000000E+00  0.00000000000E+00  0.13138356820E+04  0.13138356820E+04  0.00000000000E+00 0. -1.
         21   -1    0    0  501  502  0.00000000000E+00 -0.00000000000E+00 -0.40322553306E+02  0.40322553306E+02  0.00000000000E+00 0.  1.
         23    2    1    2    0    0 -0.59238188094E+02  0.18484847463E+02  0.26069903774E+03  0.28213709510E+03  0.88241144827E+02 0.  0.
         24    2    1    2    0    0  0.68520367605E+02 -0.12252764369E+03  0.22288696917E+03  0.27521757593E+03  0.79737374117E+02 0.  0.
        -13    1    4    4    0    0  0.41995039547E+02 -0.12769521303E+03  0.18616261038E+03  0.22962179400E+03  0.00000000000E+00 0.  1.
         14    1    4    4    0    0  0.26525328058E+02  0.51675693362E+01  0.36724358791E+02  0.45595781933E+02  0.00000000000E+00 0. -1.
        -13    1    3    3    0    0 -0.46727990413E+02 -0.26173676599E+02  0.19138898964E+03  0.19874182195E+03  0.00000000000E+00 0. -1.
         13    1    3    3    0    0 -0.12510197680E+02  0.44658524062E+02  0.69310048100E+02  0.83395273157E+02  0.00000000000E+00 0.  1.
          1    1    1    2  501    0 -0.92821795119E+01  0.10404279623E+03  0.78992712176E+03  0.79680356424E+03  0.00000000000E+00 0. -1.
<scales pt_clust_5="13000.00000" pt_clust_6="13000.00000" pt_clust_7="13000.00000" pt_clust_8="13000.00000" pt_clust_9="104.45608"></scales>
<clustering>
<clus scale="   79.737">  5  6 -1 -1</clus>
<clus scale="   88.241">  7  8 -1 -1</clus>
<clus scale="  104.456">  2  9  1 -1</clus>
<clus scale="  112.106">  2  5  1 -1</clus>
<clus scale="  104.456">  2  5  1 -1</clus>
</clustering>
</event>
<event>
 9    2  0.6190160E-005  0.1138851E+03  0.7546771E-02  0.1259289E+00
          4   -1    0    0  502    0 -0.00000000000E+00  0.00000000000E+00  0.74366508689E+03  0.74366508689E+03  0.00000000000E+00 0. -1.
         21   -1    0    0  501  502  0.00000000000E+00 -0.00000000000E+00 -0.61475978393E+02  0.61475978393E+02  0.00000000000E+00 0. -1.
         23    2    1    2    0    0 -0.47085548385E+02  0.23188025738E+02  0.50504743788E+03  0.51643950599E+03  0.94244975603E+02 0.  0.
         24    2    1    2    0    0  0.87498331395E+02 -0.70088714186E+02  0.18049860967E+03  0.22670045731E+03  0.79025080820E+02 0.  0.
        -11    1    4    4    0    0  0.98029904876E+02 -0.70387637109E+02  0.13991449962E+03  0.18477107163E+03  0.00000000000E+00 0.  1.
         12    1    4    4    0    0 -0.10531573481E+02  0.29892292286E+00  0.40584110049E+02  0.41929385679E+02  0.00000000000E+00 0. -1.
        -11    1    3    3    0    0  0.21029680239E+02 -0.16979838535E+02  0.91895242313E+02  0.95787775459E+02  0.00000000000E+00 0.  1.
         11    1    3    3    0    0 -0.68115228624E+02  0.40167864273E+02  0.41315219557E+03  0.42065173053E+03  0.00000000000E+00 0. -1.
          3    1    1    2  501    0 -0.40412783010E+02  0.46900688448E+02 -0.33569390584E+01  0.62001101985E+02  0.00000000000E+00 0. -1.
<scales pt_clust_5="13000.00000" pt_clust_6="13000.00000" pt_clust_7="13000.00000" pt_clust_8="13000.00000" pt_clust_9="61.91016"></scales>
<clustering>
<clus scale="   61.910">  2  9  1 -1</clus>
<clus scale="   79.025">  5  6 -1 -1</clus>
<clus scale="   94.245">  7  8 -1 -1</clus>
<clus scale="  101.650">  2  5  1 -1</clus>
<clus scale="   61.910">  2  5  1 -1</clus>
</clustering>
</event>
<event>
 9    2  0.6190160E-005  0.2532577E+03  0.7546771E-02  0.1146741E+00
         21   -1    0    0  501  502  0.00000000000E+00  0.00000000000E+00  0.13635877436E+03  0.13635877436E+03  0.00000000000E+00 0. -1.
          2   -1    0    0  502    0 -0.00000000000E+00 -0.00000000000E+00 -0.89317492088E+03  0.89317492088E+03  0.00000000000E+00 0. -1.
         23    2    1    2    0    0 -0.49832330284E+02 -0.25120635615E+02 -0.67820175615E+01  0.10599166294E+03  0.89855046466E+02 0.  0.
         24    2    1    2    0    0  0.26565033448E+03 -0.49446347052E+02 -0.55785540413E+03  0.62509554109E+03  0.80788254910E+02 0.  0.
        -13    1    4    4    0    0  0.64864270934E+02 -0.31143116429E+02 -0.87065345952E+02  0.11294973134E+03  0.00000000000E+00 0.  1.
         14    1    4    4    0    0  0.20078606354E+03 -0.18303230624E+02 -0.47079005818E+03  0.51214580975E+03  0.00000000000E+00 0. -1.
        -11    1    3    3    0    0 -0.12705496862E+02  0.31793483215E+02  0.10616880461E+02  0.35846525301E+02  0.00000000000E+00 0.  1.
         11    1    3    3    0    0 -0.37126833422E+02 -0.56914118830E+02 -0.17398898022E+02  0.70145137640E+02  0.00000000000E+00 0. -1.
          1    1    1    2  501    0 -0.21581800419E+03  0.74566982667E+02 -0.19217872483E+03  0.29844649121E+03  0.00000000000E+00 0. -1.
<scales pt_clust_5="13000.00000" pt_clust_6="13000.00000" pt_clust_7="13000.00000" pt_clust_8="13000.00000" pt_clust_9="240.02650"></scales>
<clustering>
<clus scale="   80.788">  5  6 -1 -1</clus>
<clus scale="   89.855">  7  8 -1 -1</clus>
<clus scale="  105.775">  2  7  1 -1</clus>
<clus scale="  240.026">  1  9  2 -1</clus>
<clus scale="  240.026">  1  5  2 -1</clus>
</clustering>
</event>
<event>
 9    2  0.6190160E-005  0.9684047E+02  0.7546771E-02  0.1320092E+00
         21   -1    0    0  501  502  0.00000000000E+00  0.00000000000E+00  0.23233034505E+02  0.23233034505E+02  0.00000000000E+00 0.  1.
         -1   -1    0    0    0  501 -0.00000000000E+00 -0.00000000000E+00 -0.60786734582E+03  0.60786734582E+03  0.00000000000E+00 0.  1.
         23    2    1    2    0    0 -0.18125724715E+02 -0.19609686760E+01 -0.34429073375E+03  0.35784657876E+03  0.95841939081E+02 0.  0.
         24    2    1    2    0    0 -0.32216656039E+01 -0.29340542878E+02 -0.44700433746E+02  0.73975766094E+02  0.51019982424E+02 0.  0.
        -11    1    4    4    0    0  0.52271113408E+01 -0.26512660654E+02  0.13642036270E+01  0.27057437415E+02  0.00000000000E+00 0.  1.
         12    1    4    4    0    0 -0.84487769447E+01 -0.28278822237E+01 -0.46064637373E+02  0.46918328679E+02  0.00000000000E+00 0. -1.
        -13    1    3    3    0    0 -0.53827194434E+02 -0.13837044171E+02 -0.15042878540E+03  0.16036723521E+03  0.00000000000E+00 0.  1.
         13    1    3    3    0    0  0.35701469719E+02  0.11876075495E+02 -0.19386194835E+03  0.19747934355E+03  0.00000000000E+00 0. -1.
         -2    1    1    2    0  502  0.21347390319E+02  0.31301511554E+02 -0.19564314382E+03  0.19927803548E+03  0.00000000000E+00 0.  1.
<scales pt_clust_5="13000.00000" pt_clust_6="13000.00000" pt_clust_7="13000.00000" pt_clust_8="13000.00000" pt_clust_9="37.88796"></scales>
<clustering>
<clus scale="   37.888">  1  9  2 -1</clus>
<clus scale="   51.020">  5  6 -1 -1</clus>
<clus scale="   52.872">  1  5  2 -1</clus>
<clus scale="   95.842">  7  8 -1 -1</clus>
<clus scale="   37.888">  1  5  2 -1</clus>
</clustering>
</event>
<event>
 9    2  0.6190160E-005  0.1410209E+03  0.7546771E-02  0.1214571E+00
         21   -1    0    0  501  502  0.00000000000E+00  0.00000000000E+00  0.55786797706E+02  0.55786797706E+02  0.00000000000E+00 0.  1.
         -3   -1    0    0    0  501 -0.00000000000E+00 -0.00000000000E+00 -0.90379270681E+03  0.90379270681E+03  0.00000000000E+00 0.  1.
         24    2    1    2    0    0  0.11071290357E+03 -0.43001699731E+02 -0.65307962481E+03  0.66868613739E+03  0.80756800343E+02 0.  0.
         23    2    1    2    0    0 -0.76689877764E+02  0.23275279856E+02 -0.21442265131E+03  0.24699796585E+03  0.92778476693E+02 0.  0.
        -13    1    3    3    0    0  0.11400450956E+03 -0.17870008521E+02 -0.47524774636E+03  0.48905703739E+03  0.00000000000E+00 0.  1.
         14    1    3    3    0    0 -0.32916059876E+01 -0.25131691210E+02 -0.17783187845E+03  0.17962910000E+03  0.00000000000E+00 0. -1.
        -11    1    4    4    0    0 -0.39762125459E+00  0.43416633025E+02 -0.84176248082E+02  0.94714322397E+02  0.00000000000E+00 0.  1.
         11    1    4    4    0    0 -0.76292256509E+02 -0.20141353170E+02 -0.13024640322E+03  0.15228364345E+03  0.00000000000E+00 0. -1.
         -4    1    1    2    0  502 -0.34023025810E+02  0.19726419875E+02  0.19496367011E+02  0.43895401274E+02  0.00000000000E+00 0.  1.
<scales pt_clust_5="13000.00000" pt_clust_6="13000.00000" pt_clust_7="13000.00000" pt_clust_8="13000.00000" pt_clust_9="39.32808"></scales>
<clustering>
<clus scale="   39.328">  1  9  2 -1</clus>
<clus scale="   80.757">  5  6 -1 -1</clus>
<clus scale="   92.778">  7  8 -1 -1</clus>
<clus scale="  133.419">  2  5  1 -1</clus>
<clus scale="   39.328">  1  5  2 -1</clus>
</clustering>
</event>
<event>
 9    2  0.6190160E-005  0.1432832E+03  0.7546771E-02  0.1211875E+00
         21   -1    0    0  501  502  0.00000000000E+00  0.00000000000E+00  0.12079648868E+03  0.12079648868E+03  0.00000000000E+00 0.  1.
          2   -1    0    0  502    0 -0.00000000000E+00 -0.00000000000E+00 -0.21059864840E+03  0.21059864840E+03  0.00000000000E+00 0. -1.
         24    2    1    2    0    0 -0.11120549292E+03  0.36538139007E+02 -0.88053995036E+02  0.16593678372E+03  0.77973154935E+02 0.  0.
         23    2    1    2    0    0  0.88876366323E+02 -0.35341340552E+02  0.20051554447E+02  0.13422936082E+03  0.92018680858E+02 0.  0.
        -11    1    3    3    0    0 -0.48761804080E+02 -0.20531663937E+02 -0.17332383423E+02  0.55674718466E+02  0.00000000000E+00 0.  1.
         12    1    3    3    0    0 -0.62443688842E+02  0.57069802944E+02 -0.70721611613E+02  0.11026206525E+03  0.00000000000E+00 0. -1.
        -11    1    4    4    0    0  0.81460411397E+02 -0.12170816898E+02 -0.22350925188E+02  0.85343372711E+02  0.00000000000E+00 0. -1.
         11    1    4    4    0    0  0.74159549262E+01 -0.23170523654E+02  0.42402479635E+02  0.48885988106E+02  0.00000000000E+00 0.  1.
          1    1    1    2  501    0  0.22329126600E+02 -0.11967984551E+01 -0.21799719134E+02  0.31228992548E+02  0.00000000000E+00 0. -1.
<scales pt_clust_5="13000.00000" pt_clust_6="13000.00000" pt_clust_7="13000.00000" pt_clust_8="13000.00000" pt_clust_9="22.36119"></scales>
<clustering>
<clus scale="   22.361">  1  9  2 -1</clus>
<clus scale="   77.973">  5  6 -1 -1</clus>
<clus scale="   92.019">  7  8 -1 -1</clus>
<clus scale="  134.694">  2  5  1 -1</clus>
<clus scale="   22.361">  1  5  2 -1</clus>
</clustering>
</event>
<event>
 9    2  0.6190160E-005  0.3058574E+03  0.7546771E-02  0.1099939E+00
         21   -1    0    0  501  502  0.00000000000E+00  0.00000000000E+00  0.28934418533E+03  0.28934418533E+03  0.00000000000E+00 0. -1.
          2   -1    0    0  502    0 -0.00000000000E+00 -0.00000000000E+00 -0.14381091286E+04  0.14381091286E+04  0.00000000000E+00 0. -1.
         23    2    1    2    0    0  0.15941687676E+03  0.58118074497E+02  0.11885166141E+03  0.22606816438E+03  0.90496664847E+02 0.  0.
         24    2    1    2    0    0  0.19763591690E+03  0.17622407187E+03 -0.17588783419E+03  0.32909054180E+03  0.85142089098E+02 0.  0.
        -13    1    4    4    0    0  0.45111382518E+02  0.43515459718E+02 -0.24692567295E+01  0.62727420607E+02  0.00000000000E+00 0.  1.
         14    1    4    4    0    0  0.15252453438E+03  0.13270861215E+03 -0.17341857746E+03  0.26636312120E+03  0.00000000000E+00 0. -1.
        -11    1    3    3    0    0  0.21737710041E+02  0.40692776835E+01  0.65003952102E+02  0.68662951055E+02  0.00000000000E+00 0.  1.
         11    1    3    3    0    0  0.13767916671E+03  0.54048796814E+02  0.53847709310E+02  0.15740521333E+03  0.00000000000E+00 0. -1.
          1    1    1    2  501    0 -0.35705279366E+03 -0.23434214636E+03 -0.10917287705E+04  0.11722946078E+04  0.00000000000E+00 0. -1.
<scales pt_clust_5="13000.00000" pt_clust_6="13000.00000" pt_clust_7="13000.00000" pt_clust_8="13000.00000" pt_clust_9="293.76804"></scales>
<clustering>
<clus scale="   85.142">  5  6 -1 -1</clus>
<clus scale="   90.497">  7  8 -1 -1</clus>
<clus scale="  192.305">  2  7  1 -1</clus>
<clus scale="  293.768">  1  9  2 -1</clus>
<clus scale="  293.768">  1  5  2 -1</clus>
</clustering>
</event>
<event>
 9    2  0.6190160E-005  0.1414191E+03  0.7546771E-02  0.1213860E+00
         21   -1    0    0  501  502  0.00000000000E+00  0.00000000000E+00  0.19827870539E+03  0.19827870539E+03  0.00000000000E+00 0. -1.
         -3   -1    0    0    0  501 -0.00000000000E+00 -0.00000000000E+00 -0.35309289454E+03  0.35309289454E+03  0.00000000000E+00 0.  1.
         23    2    1    2    0    0  0.39807539003E+02 -0.99081435477E+02 -0.27417352124E+03  0.30837993467E+03  0.92332515077E+02 0.  0.
         24    2    1    2    0    0  0.18313866936E+02  0.12293725708E+03  0.76410474504E+02  0.16688777297E+03  0.81018524127E+02 0.  0.
        -11    1    4    4    0    0 -0.41029902452E+01  0.47992468601E+02 -0.11183390251E+02  0.49448759225E+02  0.00000000000E+00 0.  1.
         12    1    4    4    0    0  0.22416857181E+02  0.74944788479E+02  0.87593864756E+02  0.11743901374E+03  0.00000000000E+00 0. -1.
        -11    1    3    3    0    0  0.30234692395E+02 -0.11696866914E+03 -0.23788448237E+03  0.26680485966E+03  0.00000000000E+00 0.  1.
         11    1    3    3    0    0  0.95728466075E+01  0.17887233662E+02 -0.36289038872E+02  0.41575075014E+02  0.00000000000E+00 0. -1.
         -4    1    1    2    0  502 -0.58121405939E+02 -0.23855821603E+02  0.42948857589E+02  0.76103892285E+02  0.00000000000E+00 0.  1.
<scales pt_clust_5="13000.00000" pt_clust_6="13000.00000" pt_clust_7="13000.00000" pt_clust_8="13000.00000" pt_clust_9="62.82673"></scales>
<clustering>
<clus scale="   62.827">  1  9  2 -1</clus>
<clus scale="   81.019">  5  6 -1 -1</clus>
<clus scale="   92.333">  7  8 -1 -1</clus>
<clus scale="  134.306">  1  5  2 -1</clus>
<clus scale="   62.827">  1  5  2 -1</clus>
</clustering>
</event>
<event>
 9    2  0.6190160E-005  0.1157208E+03  0.7546771E-02  0.1254345E+00
         21   -1    0    0  501  502  0.00000000000E+00  0.00000000000E+00  0.42449661909E+03  0.42449661909E+03  0.00000000000E+00 0. -1.
         -3   -1    0    0    0  501 -0.00000000000E+00 -0.00000000000E+00 -0.70860183145E+02  0.70860183145E+02  0.00000000000E+00 0.  1.
         23    2    1    2    0    0 -0.43158984355E+02 -0.55563546333E+02  0.25379137212E+01  0.11589440510E+03  0.92060124465E+02 0.  0.
         24    2    1    2    0    0  0.22220356445E+02  0.68963449366E+02  0.32831951110E+03  0.34574494041E+03  0.80598764643E+02 0.  0.
        -11    1    4    4    0    0  0.81945408801E+00  0.30964385917E+02  0.26421219739E+02  0.40712965413E+02  0.00000000000E+00 0.  1.
         12    1    4    4    0    0  0.21400902357E+02  0.37999063449E+02  0.30189829136E+03  0.30503197500E+03  0.00000000000E+00 0. -1.
        -13    1    3    3    0    0  0.37429991190E+01 -0.41566511752E+02  0.37208586995E+02  0.55913002851E+02  0.00000000000E+00 0. -1.
         13    1    3    3    0    0 -0.46901983474E+02 -0.13997034582E+02 -0.34670673274E+02  0.59981402252E+02  0.00000000000E+00 0.  1.
         -4    1    1    2    0  502  0.20938627910E+02 -0.13399903032E+02  0.22779011124E+02  0.33717456722E+02  0.00000000000E+00 0.  1.
<scales pt_clust_5="13000.00000" pt_clust_6="13000.00000" pt_clust_7="13000.00000" pt_clust_8="13000.00000" pt_clust_9="24.85929"></scales>
<clustering>
<clus scale="   24.859">  1  9  2 -1</clus>
<clus scale="   80.599">  5  6 -1 -1</clus>
<clus scale="   92.060">  7  8 -1 -1</clus>
<clus scale="  106.829">  1  5  2 -1</clus>
<clus scale="   24.859">  1  5  2 -1</clus>
</clustering>
</event>
<event>
 9    2  0.6190160E-005  0.2228181E+03  0.7546771E-02  0.1132465E+00
         21   -1    0    0  501  502  0.00000000000E+00  0.00000000000E+00  0.15955599150E+03  0.15955599150E+03  0.00000000000E+00 0.  1.
         -1   -1    0    0    0  501 -0.00000000000E+00 -0.00000000000E+00 -0.36832825848E+03  0.36832825848E+03  0.00000000000E+00 0.  1.
         23    2    1    2    0    0  0.13805401600E+03 -0.13680499404E+03 -0.89225410001E+02  0.23171470909E+03  0.89196495961E+02 0.  0.
         24    2    1    2    0    0 -0.17510497323E+03  0.12708491009E+03 -0.89012857345E+02  0.24718404714E+03  0.79776803415E+02 0.  0.
        -11    1    4    4    0    0 -0.17658008720E+03  0.11988930281E+03 -0.98598520330E+02  0.23510772070E+03  0.00000000000E+00 0.  1.
         12    1    4    4    0    0  0.14751139624E+01  0.71956072823E+01  0.95856629848E+01  0.12076326437E+02  0.00000000000E+00 0. -1.
        -13    1    3    3    0    0  0.96891356926E+02 -0.82618250442E+02 -0.10116287315E+03  0.16262729555E+03  0.00000000000E+00 0.  1.
         13    1    3    3    0    0  0.41162659073E+02 -0.54186743596E+02  0.11937463150E+02  0.69087413542E+02  0.00000000000E+00 0. -1.
         -2    1    1    2    0  502  0.37050957234E+02  0.97200839502E+01 -0.30533999633E+02  0.48985493746E+02  0.00000000000E+00 0.  1.
<scales pt_clust_5="13000.00000" pt_clust_6="13000.00000" pt_clust_7="13000.00000" pt_clust_8="13000.00000" pt_clust_9="38.30476"></scales>
<clustering>
<clus scale="   38.305">  1  9  2 -1</clus>
<clus scale="   79.777">  5  6 -1 -1</clus>
<clus scale="   89.196">  7  8 -1 -1</clus>
<clus scale="  219.217">  1  5  2 -1</clus>
<clus scale="   38.305">  1  5  2 -1</clus>
</clustering>
</event>
<event>
 9    2  0.6190160E-005  0.1260298E+03  0.7546771E-02  0.1244153E+00
          2   -1    0    0  502    0 -0.00000000000E+00  0.00000000000E+00  0.68851334229E+03  0.68851334229E+03  0.00000000000E+00 0. -1.
         21   -1    0    0  501  502  0.00000000000E+00 -0.00000000000E+00 -0.48172664986E+02  0.48172664986E+02  0.00000000000E+00 0.  1.
         24    2    1    2    0    0  0.55386533143E+02  0.29149243531E+02  0.39223335141E+03  0.40512871856E+03  0.79780512596E+02 0.  0.
         23    2    1    2    0    0  0.47236369458E+02 -0.45837983652E+02  0.15097450771E+03  0.18927321177E+03  0.93266560832E+02 0.  0.
        -13    1    3    3    0    0  0.25724592267E+02 -0.12872327134E+02  0.40624117671E+02  0.49777207533E+02  0.00000000000E+00 0.  1.
         14    1    3    3    0    0  0.29661940876E+02  0.42021570665E+02  0.35160923374E+03  0.35535151103E+03  0.00000000000E+00 0. -1.
        -11    1    4    4    0    0  0.26378848244E+02 -0.57589845975E+02  0.15265342321E+03  0.16527401977E+03  0.00000000000E+00 0. -1.
         11    1    4    4    0    0  0.20857521215E+02  0.11751862323E+02 -0.16789154965E+01  0.23999191998E+02  0.00000000000E+00 0.  1.
          1    1    1    2  501    0 -0.10262290260E+03  0.16688740121E+02  0.97132818180E+02  0.14228407695E+03  0.00000000000E+00 0. -1.
<scales pt_clust_5="13000.00000" pt_clust_6="13000.00000" pt_clust_7="13000.00000" pt_clust_8="13000.00000" pt_clust_9="84.76358"></scales>
<clustering>
<clus scale="   79.781">  5  6 -1 -1</clus>
<clus scale="   93.267">  7  8 -1 -1</clus>
<clus scale="  101.402">  1  5  2 -1</clus>
<clus scale="   84.764">  2  9  1 -1</clus>
<clus scale="   84.764">  2  5  1 -1</clus>
</clustering>
</event>
<event>
 9    2  0.6190160E-005  0.1183239E+03  0.7546771E-02  0.1248781E+00
         21   -1    0    0  501  502  0.00000000000E+00  0.00000000000E+00  0.15061694680E+03  0.15061694680E+03  0.00000000000E+00 0. -1.
         -1   -1    0    0    0  501 -0.00000000000E+00 -0.00000000000E+00 -0.28974151883E+03  0.28974151883E+03  0.00000000000E+00 0.  1.
         23    2    1    2    0    0 -0.70135587411E+01 -0.10166847338E+03 -0.37579981055E+02  0.14196628524E+03  0.91413908582E+02 0.  0.
         24    2    1    2    0    0  0.15493761782E+01  0.28445078903E+02  0.69897667007E+02  0.11188756755E+03  0.82593104064E+02 0.  0.
        -11    1    4    4    0    0 -0.17696216560E+02  0.53153572833E+02  0.46150317071E+02  0.72583125802E+02  0.00000000000E+00 0.  1.
         12    1    4    4    0    0  0.19245592739E+02 -0.24708493930E+02  0.23747349936E+02  0.39304441748E+02  0.00000000000E+00 0. -1.
        -11    1    3    3    0    0 -0.45850465042E+02 -0.80505067482E+02 -0.24118193709E+02  0.95734102088E+02  0.00000000000E+00 0. -1.
         11    1    3    3    0    0  0.38836906301E+02 -0.21163405899E+02 -0.13461787347E+02  0.46232183150E+02  0.00000000000E+00 0.  1.
         -2    1    1    2    0  502  0.54641825629E+01  0.73223394478E+02 -0.17144225798E+03  0.18650461284E+03  0.00000000000E+00 0.  1.
<scales pt_clust_5="13000.00000" pt_clust_6="13000.00000" pt_clust_7="13000.00000" pt_clust_8="13000.00000" pt_clust_9="73.42703"></scales>
<clustering>
<clus scale="   73.427">  1  9  2 -1</clus>
<clus scale="   82.593">  5  6 -1 -1</clus>
<clus scale="   91.414">  7  8 -1 -1</clus>
<clus scale="  111.650">  1  5  2 -1</clus>
<clus scale="   73.427">  1  5  2 -1</clus>
</clustering>
</event>
<event>
 9    2  0.6190160E-005  0.1447992E+03  0.7546771E-02  0.1224448E+00
         21   -1    0    0  501  502  0.00000000000E+00  0.00000000000E+00  0.10190543515E+03  0.10190543515E+03  0.00000000000E+00 0.  1.
         -3   -1    0    0    0  501 -0.00000000000E+00 -0.00000000000E+00 -0.70326021144E+03  0.70326021144E+03  0.00000000000E+00 0.  1.
         23    2    1    2    0    0 -0.19553152773E+02 -0.30579774696E+02 -0.51381990169E+03  0.52348815374E+03  0.93335455886E+02 0.  0.
         24    2    1    2    0    0 -0.17099543464E+02 -0.99454531499E+02 -0.65155754738E+02  0.14473529360E+03  0.80743015892E+02 0.  0.
        -13    1    4    4    0    0  0.38831327370E+01 -0.89768765787E+02 -0.17175726933E+02  0.91479591312E+02  0.00000000000E+00 0.  1.
         14    1    4    4    0    0 -0.20982676201E+02 -0.96857657115E+01 -0.47980027805E+02  0.53255702288E+02  0.00000000000E+00 0. -1.
        -11    1    3    3    0    0  0.16311191614E+02  0.27336267454E+02 -0.14895153401E+03  0.15231508781E+03  0.00000000000E+00 0. -1.
         11    1    3    3    0    0 -0.35864344386E+02 -0.57916042150E+02 -0.36486836768E+03  0.37117306593E+03  0.00000000000E+00 0.  1.
         -4    1    1    2    0  502  0.36652696236E+02  0.13003430620E+03 -0.22379119859E+02  0.13694219925E+03  0.00000000000E+00 0.  1.
<scales pt_clust_5="13000.00000" pt_clust_6="13000.00000" pt_clust_7="13000.00000" pt_clust_8="13000.00000" pt_clust_9="120.19717"></scales>
<clustering>
<clus scale="   80.743">  5  6 -1 -1</clus>
<clus scale="   93.335">  7  8 -1 -1</clus>
<clus scale="  100.145">  2  7  1 -1</clus>
<clus scale="  120.197">  1  9  2 -1</clus>
<clus scale="  120.197">  1  5  2 -1</clus>
</clustering>
</event>
<event>
 9    2  0.6190160E-005  0.1106732E+03  0.7546771E-02  0.1263754E+00
         21   -1    0    0  501  502  0.00000000000E+00  0.00000000000E+00  0.78782699014E+02  0.78782699014E+02  0.00000000000E+00 0. -1.
         -1   -1    0    0    0  501 -0.00000000000E+00 -0.00000000000E+00 -0.35214119552E+03  0.35214119552E+03  0.00000000000E+00 0.  1.
         23    2    1    2    0    0  0.10227241486E+02 -0.54298670295E+02 -0.23693003313E+03  0.26009507311E+03  0.91981869894E+02 0.  0.
         24    2    1    2    0    0  0.17342858954E+02  0.88269787302E+02 -0.39075721937E+02  0.12699783688E+03  0.80679665466E+02 0.  0.
        -11    1    4    4    0    0 -0.11729053906E+02  0.41600151169E+02 -0.54814928668E+02  0.69805584932E+02  0.00000000000E+00 0.  1.
         12    1    4    4    0    0  0.29071912860E+02  0.46669636133E+02  0.15739206731E+02  0.57192251946E+02  0.00000000000E+00 0. -1.
        -11    1    3    3    0    0  0.35357464712E+02 -0.21029591468E+02 -0.20065855539E+03  0.20483224814E+03  0.00000000000E+00 0.  1.
         11    1    3    3    0    0 -0.25130223226E+02 -0.33269078827E+02 -0.36271477749E+02  0.55262824968E+02  0.00000000000E+00 0. -1.
         -2    1    1    2    0  502 -0.27570100440E+02 -0.33971117007E+02  0.26472585615E+01  0.43830984553E+02  0.00000000000E+00 0.  1.
<scales pt_clust_5="13000.00000" pt_clust_6="13000.00000" pt_clust_7="13000.00000" pt_clust_8="13000.00000" pt_clust_9="43.75097"></scales>
<clustering>
<clus scale="   43.751">  1  9  2 -1</clus>
<clus scale="   80.680">  5  6 -1 -1</clus>
<clus scale="   91.982">  7  8 -1 -1</clus>
<clus scale="  101.475">  1  5  2 -1</clus>
<clus scale="   43.751">  1  5  2 -1</clus>
</clustering>
</event>
<event>
 9    2  0.6190160E-005  0.9264825E+02  0.7546771E-02  0.1303484E+00
          2   -1    0    0  502    0 -0.00000000000E+00  0.00000000000E+00  0.18904142851E+03  0.18904142851E+03  0.00000000000E+00 0. -1.
         21   -1    0    0  501  502  0.00000000000E+00 -0.00000000000E+00 -0.29769961421E+03  0.29769961421E+03  0.00000000000E+00 0. -1.
         24    2    1    2    0    0 -0.13993204098E+02  0.38635684347E+01  0.12484078821E+03  0.14899658108E+03  0.80025132608E+02 0.  0.
         23    2    1    2    0    0  0.16099073690E+02  0.66594005441E+02 -0.23926278318E+02  0.11663494321E+03  0.91308824599E+02 0.  0.
        -13    1    3    3    0    0 -0.43241668877E+02 -0.12913250331E+02  0.89000817138E+02  0.99788473345E+02  0.00000000000E+00 0.  1.
         14    1    3    3    0    0  0.29248464779E+02  0.16776818766E+02  0.35839971076E+02  0.49208107733E+02  0.00000000000E+00 0. -1.
        -11    1    4    4    0    0 -0.28876792181E+02  0.61260977725E+02 -0.22343834441E+02  0.71316361769E+02  0.00000000000E+00 0. -1.
         11    1    4    4    0    0  0.44975865870E+02  0.53330277167E+01 -0.15824438771E+01  0.45318581443E+02  0.00000000000E+00 0.  1.
          1    1    1    2  501    0 -0.21058695919E+01 -0.70457573876E+02 -0.20957269560E+03  0.22110951843E+03  0.00000000000E+00 0. -1.
<scales pt_clust_5="13000.00000" pt_clust_6="13000.00000" pt_clust_7="13000.00000" pt_clust_8="13000.00000" pt_clust_9="70.48904"></scales>
<clustering>
<clus scale="   70.489">  2  9  1 -1</clus>
<clus scale="   80.025">  5  6 -1 -1</clus>
<clus scale="   81.550">  1  5  2 -1</clus>
<clus scale="   91.309">  7  8 -1 -1</clus>
<clus scale="   70.489">  2  5  1 -1</clus>
</clustering>
</event>
<event>
 9    2  0.6190160E-005  0.1018232E+03  0.7546771E-02  0.1279883E+00
          2   -1    0    0  502    0 -0.00000000000E+00  0.00000000000E+00  0.11734920483E+03  0.11734920483E+03  0.00000000000E+00 0. -1.
         21   -1    0    0  501  502  0.00000000000E+00 -0.00000000000E+00 -0.18367268748E+03  0.18367268748E+03  0.00000000000E+00 0.  1.
         23    2    1    2    0    0  0.59932115000E+02 -0.17360602496E+02  0.21948224011E+02  0.11051700453E+03  0.88538324049E+02 0.  0.
         24    2    1    2    0    0 -0.40631011863E+02 -0.10167204441E+02  0.48973417205E+01  0.91455484384E+02  0.81153376374E+02 0.  0.
        -11    1    4    4    0    0 -0.16745543692E+01 -0.41117867399E+02  0.65667402506E+01  0.41672595663E+02  0.00000000000E+00 0.  1.
         12    1    4    4    0    0 -0.38956457493E+02  0.30950662958E+02 -0.16693985301E+01  0.49782888721E+02  0.00000000000E+00 0. -1.
        -13    1    3    3    0    0  0.66986320540E+02 -0.43826861764E+02  0.10138345777E+02  0.80689200062E+02  0.00000000000E+00 0.  1.
         13    1    3    3    0    0 -0.70542055404E+01  0.26466259268E+02  0.11809878233E+02  0.29827804467E+02  0.00000000000E+00 0. -1.
          1    1    1    2  501    0 -0.19301103137E+02  0.27527806937E+02 -0.93169048385E+02  0.99049403401E+02  0.00000000000E+00 0. -1.
<scales pt_clust_5="13000.00000" pt_clust_6="13000.00000" pt_clust_7="13000.00000" pt_clust_8="13000.00000" pt_clust_9="33.62012"></scales>
<clustering>
<clus scale="   33.620">  2  9  1 -1</clus>
<clus scale="   81.153">  5  6 -1 -1</clus>
<clus scale="   88.538">  7  8 -1 -1</clus>
<clus scale="   95.471">  2  5  1 -1</clus>
<clus scale="   33.620">  2  5  1 -1</clus>
</clustering>
</event>
<event>
 9    2  0.6190160E-005  0.1000925E+03  0.7546771E-02  0.1284909E+00
         -1   -1    0    0    0  501 -0.00000000000E+00  0.00000000000E+00  0.21084523019E+03  0.21084523019E+03  0.00000000000E+00 0.  1.
         21   -1    0    0  501  502  0.00000000000E+00 -0.00000000000E+00 -0.92959249489E+02  0.92959249489E+02  0.00000000000E+00 0.  1.
         23    2    1    2    0    0  0.21015625025E+02 -0.21446692361E+02  0.91592759723E+02  0.13245496078E+03  0.90848587740E+02 0.  0.
         24    2    1    2    0    0 -0.54977147991E+02  0.54619840745E+02 -0.84440861776E+01  0.11252330599E+03  0.81144180296E+02 0.  0.
        -13    1    4    4    0    0  0.86615314677E+01  0.31280607433E+02 -0.27028968926E+02  0.42238178109E+02  0.00000000000E+00 0.  1.
         14    1    4    4    0    0 -0.63638679459E+02  0.23339233312E+02  0.18584882748E+02  0.70285127884E+02  0.00000000000E+00 0. -1.
        -11    1    3    3    0    0  0.53416925247E+02 -0.27205853574E+02  0.43026169758E+02  0.73788736645E+02  0.00000000000E+00 0. -1.
         11    1    3    3    0    0 -0.32401300223E+02  0.57591612131E+01  0.48566589965E+02  0.58666224140E+02  0.00000000000E+00 0.  1.
         -2    1    1    2    0  502  0.33961522966E+02 -0.33173148384E+02  0.34737307154E+02  0.58826212901E+02  0.00000000000E+00 0.  1.
<scales pt_clust_5="13000.00000" pt_clust_6="13000.00000" pt_clust_7="13000.00000" pt_clust_8="13000.00000" pt_clust_9="47.47468"></scales>
<clustering>
<clus scale="   47.475">  2  9  1 -1</clus>
<clus scale="   81.144">  5  6 -1 -1</clus>
<clus scale="   90.849">  7  8 -1 -1</clus>
<clus scale="   91.375">  2  5  1 -1</clus>
<clus scale="   47.475">  2  5  1 -1</clus>
</clustering>
</event>
<event>
 9    2  0.6190160E-005  0.1177609E+03  0.7546771E-02  0.1249902E+00
         21   -1    0    0  501  502  0.00000000000E+00  0.00000000000E+00  0.76714430922E+02  0.76714430922E+02  0.00000000000E+00 0.  1.
          2   -1    0    0  502    0 -0.00000000000E+00 -0.00000000000E+00 -0.73099122386E+03  0.73099122386E+03  0.00000000000E+00 0. -1.
         23    2    1    2    0    0 -0.27956421082E+02  0.65644044255E+02 -0.61951720324E+03  0.63023549844E+03  0.91129119122E+02 0.  0.
         24    2    1    2    0    0  0.27151133917E+02 -0.10386060006E+03 -0.34077713364E+02  0.13923903578E+03  0.81865806157E+02 0.  0.
        -13    1    4    4    0    0  0.29254674099E+02 -0.72287334734E+02  0.16375862526E+02  0.79683521465E+02  0.00000000000E+00 0.  1.
         14    1    4    4    0    0 -0.21035401824E+01 -0.31573265326E+02 -0.50453575890E+02  0.59555514310E+02  0.00000000000E+00 0. -1.
        -13    1    3    3    0    0  0.31383080222E+02  0.10835386228E+02 -0.13447565108E+03  0.13851355187E+03  0.00000000000E+00 0.  1.
         13    1    3    3    0    0 -0.59339501304E+02  0.54808658027E+02 -0.48504155216E+03  0.49172194656E+03  0.00000000000E+00 0. -1.
          1    1    1    2  501    0  0.80528716528E+00  0.38216555805E+02 -0.68187633586E+00  0.38231120574E+02  0.00000000000E+00 0. -1.
<scales pt_clust_5="13000.00000" pt_clust_6="13000.00000" pt_clust_7="13000.00000" pt_clust_8="13000.00000" pt_clust_9="38.22504"></scales>
<clustering>
<clus scale="   38.225">  1  9  2 -1</clus>
<clus scale="   81.866">  5  6 -1 -1</clus>
<clus scale="   91.129">  7  8 -1 -1</clus>
<clus scale="  110.748">  1  5  2 -1</clus>
<clus scale="   38.225">  1  5  2 -1</clus>
</clustering>
</event>
<event>
 9    2  0.6190160E-005  0.9406740E+02  0.7546771E-02  0.1295390E+00
         21   -1    0    0  501  502  0.00000000000E+00  0.00000000000E+00  0.39343454591E+03  0.39343454591E+03  0.00000000000E+00 0. -1.
         -3   -1    0    0    0  501 -0.00000000000E+00 -0.00000000000E+00 -0.30398341379E+03  0.30398341379E+03  0.00000000000E+00 0.  1.
         23    2    1    2    0    0 -0.10264478343E+02 -0.18814002810E+02 -0.28489925499E+03  0.29888343734E+03  0.87774696825E+02 0.  0.
         24    2    1    2    0    0  0.29217327288E+02  0.35508380312E+02  0.34469681417E+03  0.35958266603E+03  0.91483893273E+02 0.  0.
        -11    1    4    4    0    0  0.50227905190E+02  0.40841632067E+01  0.99965709592E+02  0.11194939010E+03  0.00000000000E+00 0.  1.
         12    1    4    4    0    0 -0.21010577902E+02  0.31424217105E+02  0.24473110457E+03  0.24763327594E+03  0.00000000000E+00 0. -1.
        -11    1    3    3    0    0  0.38384846704E+02 -0.12808365875E+01 -0.11087769689E+03  0.11734095903E+03  0.00000000000E+00 0. -1.
         11    1    3    3    0    0 -0.48649325047E+02 -0.17533166222E+02 -0.17402155810E+03  0.18154247831E+03  0.00000000000E+00 0.  1.
         -4    1    1    2    0  502 -0.18952848945E+02 -0.16694377502E+02  0.29653572949E+02  0.38951856335E+02  0.00000000000E+00 0.  1.
<scales pt_clust_5="13000.00000" pt_clust_6="13000.00000" pt_clust_7="13000.00000" pt_clust_8="13000.00000" pt_clust_9="25.25693"></scales>
<clustering>
<clus scale="   25.257">  1  9  2 -1</clus>
<clus scale="   87.775">  7  8 -1 -1</clus>
<clus scale="   90.464">  2  7  1 -1</clus>
<clus scale="   91.484">  5  6 -1 -1</clus>
<clus scale="   25.257">  1  5  2 -1</clus>
</clustering>
</event>
<event>
 9    2  0.6190160E-005  0.1182972E+03  0.7546771E-02  0.1248694E+00
         21   -1    0    0  501  502  0.00000000000E+00  0.00000000000E+00  0.15480825323E+02  0.15480825323E+02  0.00000000000E+00 0. -1.
          2   -1    0    0  502    0 -0.00000000000E+00 -0.00000000000E+00 -0.13938700372E+04  0.13938700372E+04  0.00000000000E+00 0. -1.
         24    2    1    2    0    0  0.74883397501E+02 -0.26427073112E+02 -0.86573847835E+03  0.87320637198E+03  0.81733357665E+02 0.  0.
         23    2    1    2    0    0 -0.72815459263E+02 -0.60156033963E+01 -0.31270530372E+03  0.33357356833E+03  0.90268709522E+02 0.  0.
        -11    1    3    3    0    0  0.14181299842E+02  0.21998481922E+02 -0.94149470841E+02  0.97719830801E+02  0.00000000000E+00 0.  1.
         12    1    3    3    0    0  0.60702097659E+02 -0.48425555034E+02 -0.77158900751E+03  0.77548654118E+03  0.00000000000E+00 0. -1.
        -11    1    4    4    0    0 -0.87421385798E+02  0.13528288061E+02 -0.27296115941E+03  0.28693781177E+03  0.00000000000E+00 0.  1.
         11    1    4    4    0    0  0.14605926535E+02 -0.19543891457E+02 -0.39744144310E+02  0.46635756562E+02  0.00000000000E+00 0. -1.
          1    1    1    2  501    0 -0.20679382375E+01  0.32442676508E+02 -0.19994542981E+03  0.20257092222E+03  0.00000000000E+00 0. -1.
<scales pt_clust_5="13000.00000" pt_clust_6="13000.00000" pt_clust_7="13000.00000" pt_clust_8="13000.00000" pt_clust_9="32.50853"></scales>
<clustering>
<clus scale="   32.509">  1  9  2 -1</clus>
<clus scale="   81.733">  5  6 -1 -1</clus>
<clus scale="   90.269">  7  8 -1 -1</clus>
<clus scale="  111.920">  2  5  1 -1</clus>
<clus scale="   32.509">  1  5  2 -1</clus>
</clustering>
</event>
<event>
 9    2  0.6190160E-005  0.1559043E+03  0.7546771E-02  0.1206818E+00
         21   -1    0    0  501  502  0.00000000000E+00  0.00000000000E+00  0.19978372194E+03  0.19978372194E+03  0.00000000000E+00 0.  1.
          2   -1    0    0  502    0 -0.00000000000E+00 -0.00000000000E+00 -0.54292329425E+03  0.54292329425E+03  0.00000000000E+00 0. -1.
         23    2    1    2    0    0  0.19518812813E+02  0.15575130722E+02 -0.34697572733E+03  0.36601005647E+03  0.11378768531E+03 0.  0.
         24    2    1    2    0    0  0.23875199712E+02 -0.14107990392E+03 -0.11378487162E+03  0.19930137261E+03  0.79375535668E+02 0.  0.
        -11    1    4    4    0    0  0.23316739874E+02 -0.14103042658E+03 -0.76719435408E+02  0.16223169650E+03  0.00000000000E+00 0.  1.
         12    1    4    4    0    0  0.55845983774E+00 -0.49477342770E-01 -0.37065436214E+02  0.37069676113E+02  0.00000000000E+00 0. -1.
        -13    1    3    3    0    0  0.46881914580E+02  0.27092380933E+02 -0.32393688501E+03  0.32843114422E+03  0.00000000000E+00 0. -1.
         13    1    3    3    0    0 -0.27363101767E+02 -0.11517250211E+02 -0.23038842320E+02  0.37578912254E+02  0.00000000000E+00 0.  1.
          1    1    1    2  501    0 -0.43394012525E+02  0.12550477320E+03  0.11762102664E+03  0.17739558711E+03  0.00000000000E+00 0. -1.
<scales pt_clust_5="13000.00000" pt_clust_6="13000.00000" pt_clust_7="13000.00000" pt_clust_8="13000.00000" pt_clust_9="134.18528"></scales>
<clustering>
<clus scale="   79.376">  5  6 -1 -1</clus>
<clus scale="  113.788">  7  8 -1 -1</clus>
<clus scale="  116.496">  2  7  1 -1</clus>
<clus scale="  134.185">  1  9  2 -1</clus>
<clus scale="  134.185">  1  5  2 -1</clus>
</clustering>
</event>
<event>
 9    2  0.6190160E-005  0.1482743E+03  0.7546771E-02  0.1204969E+00
         21   -1    0    0  501  502  0.00000000000E+00  0.00000000000E+00  0.29425723638E+03  0.29425723638E+03  0.00000000000E+00 0. -1.
         -3   -1    0    0    0  501 -0.00000000000E+00 -0.00000000000E+00 -0.13481449709E+03  0.13481449709E+03  0.00000000000E+00 0.  1.
         24    2    1    2    0    0  0.10789146539E+02 -0.12640531276E+03  0.24574009702E+02  0.15209755005E+03  0.80218913006E+02 0.  0.
         23    2    1    2    0    0 -0.58758364898E+02  0.84578683799E+02  0.15724347273E+03  0.20951203158E+03  0.92540166743E+02 0.  0.
        -13    1    3    3    0    0 -0.21759758943E+02 -0.14554343057E+02  0.24134551072E+02  0.35606074854E+02  0.00000000000E+00 0.  1.
         14    1    3    3    0    0  0.32548905482E+02 -0.11185096970E+03  0.43945863069E+00  0.11649147520E+03  0.00000000000E+00 0. -1.
        -13    1    4    4    0    0 -0.15908799463E+02  0.59743734678E+02  0.22228766625E+02  0.65700242003E+02  0.00000000000E+00 0.  1.
         13    1    4    4    0    0 -0.42849565435E+02  0.24834949121E+02  0.13501470611E+03  0.14381178958E+03  0.00000000000E+00 0. -1.
         -4    1    1    2    0  502  0.47969218359E+02  0.41826628957E+02 -0.22374743150E+02  0.67462151840E+02  0.00000000000E+00 0.  1.
<scales pt_clust_5="13000.00000" pt_clust_6="13000.00000" pt_clust_7="13000.00000" pt_clust_8="13000.00000" pt_clust_9="63.64367"></scales>
<clustering>
<clus scale="   63.644">  1  9  2 -1</clus>
<clus scale="   80.219">  5  6 -1 -1</clus>
<clus scale="   92.540">  7  8 -1 -1</clus>
<clus scale="  140.914">  2  5  1 -1</clus>
<clus scale="   63.644">  1  5  2 -1</clus>
</clustering>
</event>
<event>
 9    2  0.6190160E-005  0.1179892E+03  0.7546771E-02  0.1249844E+00
         21   -1    0    0  501  502  0.00000000000E+00  0.00000000000E+00  0.12595143574E+03  0.12595143574E+03  0.00000000000E+00 0.  1.
         -1   -1    0    0    0  501 -0.00000000000E+00 -0.00000000000E+00 -0.28108914897E+03  0.28108914897E+03  0.00000000000E+00 0.  1.
         23    2    1    2    0    0 -0.15943742703E+02 -0.72615831765E+02 -0.12587528017E+03  0.17127241436E+03  0.89232235259E+02 0.  0.
         24    2    1    2    0    0  0.83464704169E+02  0.66073897001E+02  0.40522833668E+02  0.13844468603E+03  0.78693801125E+02 0.  0.
        -13    1    4    4    0    0  0.63389152219E+02  0.11983747706E+02  0.47801541194E+02  0.80291856179E+02  0.00000000000E+00 0.  1.
         14    1    4    4    0    0  0.20075551950E+02  0.54090149295E+02 -0.72787075261E+01  0.58152829854E+02  0.00000000000E+00 0. -1.
        -11    1    3    3    0    0 -0.52143327804E+02 -0.38113997786E+02 -0.56903202506E+02  0.86078905181E+02  0.00000000000E+00 0.  1.
         11    1    3    3    0    0  0.36199585100E+02 -0.34501833979E+02 -0.68972077664E+02  0.85193509181E+02  0.00000000000E+00 0. -1.
         -2    1    1    2    0  502 -0.67520961466E+02  0.65419347641E+01 -0.69785266731E+02  0.97323484321E+02  0.00000000000E+00 0.  1.
<scales pt_clust_5="13000.00000" pt_clust_6="13000.00000" pt_clust_7="13000.00000" pt_clust_8="13000.00000" pt_clust_9="67.83717"></scales>
<clustering>
<clus scale="   67.837">  1  9  2 -1</clus>
<clus scale="   78.694">  5  6 -1 -1</clus>
<clus scale="   89.232">  7  8 -1 -1</clus>
<clus scale="  110.235">  1  5  2 -1</clus>
<clus scale="   67.837">  1  5  2 -1</clus>
</clustering>
</event>
<event>
 9    2  0.7491757E-005  0.1183638E+03  0.7546771E-02  0.1263101E+00
         21   -1    0    0  501  502  0.00000000000E+00  0.00000000000E+00  0.11871169248E+03  0.11871169248E+03  0.00000000000E+00 0. -1.
          2   -1    0    0  502    0 -0.00000000000E+00 -0.00000000000E+00 -0.32533985338E+03  0.32533985338E+03  0.00000000000E+00 0. -1.
         24    2    1    2    0    0  0.29606927203E+02  0.12993500703E+01 -0.15478912260E+03  0.17612102011E+03  0.78617318708E+02 0.  0.
         23    2    1    2    0    0  0.54587668953E+02  0.20850359747E+02  0.57140290361E+02  0.12844635552E+03  0.99090374712E+02 0.  0.
        -13    1    3    3    0    0 -0.11285042814E+02 -0.22517122652E+02 -0.16883439726E+02  0.30321997639E+02  0.00000000000E+00 0.  1.
         14    1    3    3    0    0  0.40891970018E+02  0.23816472723E+02 -0.13790568288E+03  0.14579902247E+03  0.00000000000E+00 0. -1.
        -11    1    4    4    0    0  0.63425884274E+01  0.55110658789E+02  0.22373363469E+02  0.59816222992E+02  0.00000000000E+00 0.  1.
         11    1    4    4    0    0  0.48245080525E+02 -0.34260299041E+02  0.34766926892E+02  0.68630132528E+02  0.00000000000E+00 0. -1.
          1    1    1    2  501    0 -0.84194596156E+02 -0.22149709818E+02 -0.10897932867E+03  0.13948417023E+03  0.00000000000E+00 0. -1.
<scales pt_clust_5="13000.00000" pt_clust_6="13000.00000" pt_clust_7="13000.00000" pt_clust_8="13000.00000" pt_clust_9="64.73868"></scales>
<clustering>
<clus scale="   78.617">  5  6 -1 -1</clus>
<clus scale="   84.018">  2  5  1 -1</clus>
<clus scale="   64.739">  1  9  2 -1</clus>
<clus scale="   99.090">  7  8 -1 -1</clus>
<clus scale="   64.739">  1  5  2 -1</clus>
</clustering>
</event>
<event>
 9    2  0.6190160E-005  0.9704851E+02  0.7546771E-02  0.1291460E+00
         21   -1    0    0  501  502  0.00000000000E+00  0.00000000000E+00  0.56308543519E+03  0.56308543519E+03  0.00000000000E+00 0. -1.
         -1   -1    0    0    0  501 -0.00000000000E+00 -0.00000000000E+00 -0.31862459894E+02  0.31862459894E+02  0.00000000000E+00 0.  1.
         23    2    1    2    0    0 -0.31713213819E+02  0.27316523766E+02  0.77049332959E+02  0.12599946871E+03  0.90483954400E+02 0.  0.
         24    2    1    2    0    0  0.18057056653E+02 -0.50117157275E+01  0.26172175978E+03  0.27472761856E+03  0.81399080253E+02 0.  0.
        -11    1    4    4    0    0  0.41814115758E+01  0.27700752856E+02  0.33113150393E+02  0.43373916591E+02  0.00000000000E+00 0.  1.
         12    1    4    4    0    0  0.13875645078E+02 -0.32712468583E+02  0.22860860939E+03  0.23135370197E+03  0.00000000000E+00 0. -1.
        -11    1    3    3    0    0 -0.23091349681E+02  0.50007129024E+02  0.11730588340E+02  0.56316339424E+02  0.00000000000E+00 0.  1.
         11    1    3    3    0    0 -0.86218641381E+01 -0.22690605258E+02  0.65318744620E+02  0.69683129284E+02  0.00000000000E+00 0. -1.
         -2    1    1    2    0  502  0.13656157165E+02 -0.22304808038E+02  0.19245188255E+03  0.19422080782E+03  0.00000000000E+00 0.  1.
<scales pt_clust_5="13000.00000" pt_clust_6="13000.00000" pt_clust_7="13000.00000" pt_clust_8="13000.00000" pt_clust_9="26.15330"></scales>
<clustering>
<clus scale="   26.153">  1  9  2 -1</clus>
<clus scale="   81.399">  5  6 -1 -1</clus>
<clus scale="   88.639">  1  5  2 -1</clus>
<clus scale="   90.484">  7  8 -1 -1</clus>
<clus scale="   26.153">  1  5  2 -1</clus>
</clustering>
</event>
<event>
 9    2  0.6190160E-005  0.1037591E+03  0.7546771E-02  0.1277972E+00
         -3   -1    0    0    0  501 -0.00000000000E+00  0.00000000000E+00  0.33198767471E+02  0.33198767471E+02  0.00000000000E+00 0.  1.
         21   -1    0    0  501  502  0.00000000000E+00 -0.00000000000E+00 -0.37982056735E+03  0.37982056735E+03  0.00000000000E+00 0.  1.
         23    2    1    2    0    0  0.13635112799E+02 -0.43885282634E+02 -0.13059271028E+03  0.16702671322E+03  0.93443205303E+02 0.  0.
         24    2    1    2    0    0  0.73829585574E+01  0.46145420949E+02 -0.15569396914E+03  0.18206145307E+03  0.81986905764E+02 0.  0.
        -11    1    4    4    0    0  0.43816551582E+02  0.33889774765E+02 -0.10129625301E+03  0.11545275181E+03  0.00000000000E+00 0.  1.
         12    1    4    4    0    0 -0.36433593024E+02  0.12255646184E+02 -0.54397716128E+02  0.66608701263E+02  0.00000000000E+00 0. -1.
        -11    1    3    3    0    0 -0.35728488318E+02 -0.40046579918E+02 -0.79132198373E+02  0.95614634131E+02  0.00000000000E+00 0. -1.
         11    1    3    3    0    0  0.49363601118E+02 -0.38387027161E+01 -0.51460511908E+02  0.71412079088E+02  0.00000000000E+00 0.  1.
         -4    1    1    2    0  502 -0.21018071357E+02 -0.22601383145E+01 -0.60335120465E+02  0.63931168535E+02  0.00000000000E+00 0.  1.
<scales pt_clust_5="13000.00000" pt_clust_6="13000.00000" pt_clust_7="13000.00000" pt_clust_8="13000.00000" pt_clust_9="21.13924"></scales>
<clustering>
<clus scale="   21.139">  2  9  1 -1</clus>
<clus scale="   81.987">  5  6 -1 -1</clus>
<clus scale="   93.443">  7  8 -1 -1</clus>
<clus scale="   93.574">  2  5  1 -1</clus>
<clus scale="   21.139">  2  5  1 -1</clus>
</clustering>
</event>
<event>
 9    2  0.6190160E-005  0.1368587E+03  0.7546771E-02  0.1251662E+00
         21   -1    0    0  501  502  0.00000000000E+00  0.00000000000E+00  0.26330023334E+02  0.26330023334E+02  0.00000000000E+00 0. -1.
          2   -1    0    0  502    0 -0.00000000000E+00 -0.00000000000E+00 -0.10725658366E+04  0.10725658366E+04  0.00000000000E+00 0. -1.
         24    2    1    2    0    0  0.76915193883E+00 -0.40877715350E+02 -0.20214341819E+03  0.21331272414E+03  0.54486489633E+02 0.  0.
         23    2    1    2    0    0  0.99054723198E+02  0.23172815895E+02 -0.27824101423E+03  0.31072136570E+03  0.93706389971E+02 0.  0.
        -13    1    3    3    0    0 -0.24247491183E+02 -0.18606156504E+02 -0.60734697225E+02  0.67991421044E+02  0.00000000000E+00 0.  1.
         14    1    3    3    0    0  0.25016643122E+02 -0.22271558846E+02 -0.14140872097E+03  0.14532130309E+03  0.00000000000E+00 0. -1.
        -13    1    4    4    0    0  0.62900179686E+02 -0.13447028410E+02 -0.23456765849E+03  0.24322672877E+03  0.00000000000E+00 0.  1.
         13    1    4    4    0    0  0.36154543512E+02  0.36619844305E+02 -0.43673355735E+02  0.67494636933E+02  0.00000000000E+00 0. -1.
          1    1    1    2  501    0 -0.99823875137E+02  0.17704899455E+02 -0.56585138083E+03  0.57486177008E+03  0.00000000000E+00 0. -1.
<scales pt_clust_5="13000.00000" pt_clust_6="13000.00000" pt_clust_7="13000.00000" pt_clust_8="13000.00000" pt_clust_9="99.74685"></scales>
<clustering>
<clus scale="   54.486">  5  6 -1 -1</clus>
<clus scale="   68.120">  2  5  1 -1</clus>
<clus scale="   93.706">  7  8 -1 -1</clus>
<clus scale="   99.747">  1  9  2 -1</clus>
<clus scale="   99.747">  1  5  2 -1</clus>
</clustering>
</event>
<event>
 9    2  0.6190160E-005  0.1053895E+03  0.7546771E-02  0.1276037E+00
         21   -1    0    0  501  502  0.00000000000E+00  0.00000000000E+00  0.14924808789E+03  0.14924808789E+03  0.00000000000E+00 0.  1.
         -1   -1    0    0    0  501 -0.00000000000E+00 -0.00000000000E+00 -0.15513348101E+03  0.15513348101E+03  0.00000000000E+00 0.  1.
         24    2    1    2    0    0  0.73034231562E+02  0.18759089666E+01  0.21941573337E+01  0.10365352245E+03  0.73496397030E+02 0.  0.
         23    2    1    2    0    0 -0.21548829401E+02  0.58836565078E+02  0.29388763806E+02  0.11274722062E+03  0.89006420444E+02 0.  0.
        -11    1    3    3    0    0  0.88046031453E+02  0.32933967555E+01 -0.15337483794E+01  0.88120953812E+02  0.00000000000E+00 0.  1.
         12    1    3    3    0    0 -0.15011799891E+02 -0.14174877889E+01  0.37279057131E+01  0.15532568641E+02  0.00000000000E+00 0. -1.
        -13    1    4    4    0    0 -0.55389881976E+02  0.30140800277E+02  0.82418725681E+01  0.63595875102E+02  0.00000000000E+00 0.  1.
         13    1    4    4    0    0  0.33841052575E+02  0.28695764801E+02  0.21146891238E+02  0.49151345515E+02  0.00000000000E+00 0. -1.
         -2    1    1    2    0  502 -0.51485402161E+02 -0.60712474045E+02 -0.37468314258E+02  0.87980825829E+02  0.00000000000E+00 0.  1.
<scales pt_clust_5="13000.00000" pt_clust_6="13000.00000" pt_clust_7="13000.00000" pt_clust_8="13000.00000" pt_clust_9="79.60375"></scales>
<clustering>
<clus scale="   73.496">  5  6 -1 -1</clus>
<clus scale="   79.604">  1  9  2 -1</clus>
<clus scale="   89.006">  7  8 -1 -1</clus>
<clus scale="   92.664">  2  5  1 -1</clus>
<clus scale="   79.604">  1  5  2 -1</clus>
</clustering>
</event>
<event>
 9    2  0.6190160E-005  0.2824688E+03  0.7546771E-02  0.1094860E+00
         21   -1    0    0  501  502  0.00000000000E+00  0.00000000000E+00  0.73035478296E+03  0.73035478296E+03  0.00000000000E+00 0.  1.
          2   -1    0    0  502    0 -0.00000000000E+00 -0.00000000000E+00 -0.13390153562E+03  0.13390153562E+03  0.00000000000E+00 0. -1.
         24    2    1    2    0    0 -0.23194038969E+03 -0.14353055910E+03  0.17037720151E+03  0.33127847644E+03  0.79496367158E+02 0.  0.
         23    2    1    2    0    0  0.19813644529E+03  0.16688320906E+03  0.39611636089E+03  0.48212869624E+03  0.91825116144E+02 0.  0.
        -13    1    3    3    0    0 -0.55501108726E+02 -0.76689419344E+02  0.45607920731E+02  0.10507960098E+03  0.00000000000E+00 0.  1.
         14    1    3    3    0    0 -0.17643928097E+03 -0.66841139754E+02  0.12476928078E+03  0.22619887546E+03  0.00000000000E+00 0. -1.
        -13    1    4    4    0    0  0.19678912073E+03  0.12964224601E+03  0.35973240845E+03  0.43004706216E+03  0.00000000000E+00 0. -1.
         13    1    4    4    0    0  0.13473245527E+01  0.37240963051E+02  0.36383952445E+02  0.52081634075E+02  0.00000000000E+00 0.  1.
          1    1    1    2  501    0  0.33803944409E+02 -0.23352649959E+02  0.29959684934E+02  0.50849145903E+02  0.00000000000E+00 0. -1.
<scales pt_clust_5="13000.00000" pt_clust_6="13000.00000" pt_clust_7="13000.00000" pt_clust_8="13000.00000" pt_clust_9="41.08594"></scales>
<clustering>
<clus scale="   41.086">  1  9  2 -1</clus>
<clus scale="   79.496">  5  6 -1 -1</clus>
<clus scale="   91.825">  7  8 -1 -1</clus>
<clus scale="  278.705">  2  5  1 -1</clus>
<clus scale="   41.086">  1  5  2 -1</clus>
</clustering>
</event>
<event>
 9    2  0.6190160E-005  0.1037254E+03  0.7546771E-02  0.1274353E+00
         21   -1    0    0  501  502  0.00000000000E+00  0.00000000000E+00  0.64532712833E+02  0.64532712833E+02  0.00000000000E+00 0.  1.
          2   -1    0    0  502    0 -0.00000000000E+00 -0.00000000000E+00 -0.30054118124E+03  0.30054118124E+03  0.00000000000E+00 0. -1.
         23    2    1    2    0    0 -0.30184800721E+02 -0.33535766575E+02 -0.12206734747E+03  0.15890617783E+03  0.91186436484E+02 0.  0.
         24    2    1    2    0    0  0.43473800965E+01  0.67774838635E+02 -0.34546993012E+02  0.11592740425E+03  0.87368986858E+02 0.  0.
        -11    1    4    4    0    0  0.21165766612E+02  0.81749700399E+02 -0.13388854006E+02  0.85500085399E+02  0.00000000000E+00 0.  1.
         12    1    4    4    0    0 -0.16818386515E+02 -0.13974861765E+02 -0.21158139006E+02  0.30427318852E+02  0.00000000000E+00 0. -1.
        -13    1    3    3    0    0  0.17170596822E+02 -0.21186322854E+02  0.13240195781E+00  0.27270995610E+02  0.00000000000E+00 0.  1.
         13    1    3    3    0    0 -0.47355397543E+02 -0.12349443721E+02 -0.12219974943E+03  0.13163518222E+03  0.00000000000E+00 0. -1.
          1    1    1    2  501    0  0.25837420625E+02 -0.34239072059E+02 -0.79394127924E+02  0.90240311995E+02  0.00000000000E+00 0. -1.
<scales pt_clust_5="13000.00000" pt_clust_6="13000.00000" pt_clust_7="13000.00000" pt_clust_8="13000.00000" pt_clust_9="42.89392"></scales>
<clustering>
<clus scale="   42.894">  1  9  2 -1</clus>
<clus scale="   87.369">  5  6 -1 -1</clus>
<clus scale="   91.186">  7  8 -1 -1</clus>
<clus scale="  100.386">  1  5  2 -1</clus>
<clus scale="   42.894">  1  5  2 -1</clus>
</clustering>
</event>
<event>
 9    2  0.9391655E-005  0.8996650E+02  0.7546771E-02  0.1309277E+00
          4   -1    0    0  502    0 -0.00000000000E+00  0.00000000000E+00  0.15019081597E+03  0.15019081597E+03  0.00000000000E+00 0. -1.
         21   -1    0    0  501  502  0.00000000000E+00 -0.00000000000E+00 -0.28922629652E+03  0.28922629652E+03  0.00000000000E+00 0. -1.
         24    2    1    2    0    0  0.81066379602E+01 -0.50399527864E+00  0.10458027068E+03  0.13192911036E+03  0.80014283448E+02 0.  0.
         23    2    1    2    0    0  0.17261958354E+02  0.78275724078E+01 -0.36717920450E+02  0.98912085872E+02  0.89867396499E+02 0.  0.
        -11    1    3    3    0    0  0.12356905769E+02  0.18598374364E+02 -0.30479430583E+01  0.22536250931E+02  0.00000000000E+00 0.  1.
         12    1    3    3    0    0 -0.42502678091E+01 -0.19102369642E+02  0.10762821374E+03  0.10939285943E+03  0.00000000000E+00 0. -1.
        -11    1    4    4    0    0  0.45977970727E+02 -0.52876863356E+01  0.50501004211E+01  0.46555740068E+02  0.00000000000E+00 0. -1.
         11    1    4    4    0    0 -0.28716012373E+02  0.13115258743E+02 -0.41768020871E+02  0.52356345804E+02  0.00000000000E+00 0.  1.
          3    1    1    2  501    0 -0.25368596314E+02 -0.73235771291E+01 -0.20689783078E+03  0.20857591626E+03  0.00000000000E+00 0. -1.
<scales pt_clust_5="13000.00000" pt_clust_6="13000.00000" pt_clust_7="13000.00000" pt_clust_8="13000.00000" pt_clust_9="26.40455"></scales>
<clustering>
<clus scale="   26.405">  2  9  1 -1</clus>
<clus scale="   80.014">  5  6 -1 -1</clus>
<clus scale="   80.126">  1  5  2 -1</clus>
<clus scale="   89.867">  7  8 -1 -1</clus>
<clus scale="   26.405">  2  5  1 -1</clus>
</clustering>
</event>
<event>
 9    2  0.6190160E-005  0.2023054E+03  0.7546771E-02  0.1179662E+00
         21   -1    0    0  501  502  0.00000000000E+00  0.00000000000E+00  0.66378781221E+02  0.66378781221E+02  0.00000000000E+00 0.  1.
         -3   -1    0    0    0  501 -0.00000000000E+00 -0.00000000000E+00 -0.12845106560E+04  0.12845106560E+04  0.00000000000E+00 0.  1.
         24    2    1    2    0    0  0.48326265760E+02  0.25436336597E+02 -0.26393656656E+03  0.28113938407E+03  0.79965035659E+02 0.  0.
         23    2    1    2    0    0 -0.94836398359E+02  0.15340903842E+03 -0.17141685851E+03  0.26545473306E+03  0.92488920387E+02 0.  0.
        -13    1    3    3    0    0  0.13467383791E+02  0.46695496208E+02 -0.19548571677E+03  0.20143610712E+03  0.00000000000E+00 0.  1.
         14    1    3    3    0    0  0.34858881969E+02 -0.21259159611E+02 -0.68450849791E+02  0.79703276950E+02  0.00000000000E+00 0. -1.
        -11    1    4    4    0    0 -0.44020342358E+02  0.95527809845E+01 -0.66401082367E+02  0.80238082637E+02  0.00000000000E+00 0. -1.
         11    1    4    4    0    0 -0.50816056001E+02  0.14385625744E+03 -0.10501577615E+03  0.18521665042E+03  0.00000000000E+00 0.  1.
         -4    1    1    2    0  502  0.46510132599E+02 -0.17884537502E+03 -0.78277844974E+03  0.80429532013E+03  0.00000000000E+00 0.  1.
<scales pt_clust_5="13000.00000" pt_clust_6="13000.00000" pt_clust_7="13000.00000" pt_clust_8="13000.00000" pt_clust_9="179.92584"></scales>
<clustering>
<clus scale="   79.965">  5  6 -1 -1</clus>
<clus scale="   92.489">  7  8 -1 -1</clus>
<clus scale="   96.834">  2  5  1 -1</clus>
<clus scale="  179.926">  1  9  2 -1</clus>
<clus scale="  179.926">  1  5  2 -1</clus>
</clustering>
</event>
<event>
 9    2  0.6190160E-005  0.9096663E+02  0.7546771E-02  0.1306488E+00
          2   -1    0    0  502    0 -0.00000000000E+00  0.00000000000E+00  0.29006146195E+02  0.29006146195E+02  0.00000000000E+00 0. -1.
         21   -1    0    0  501  502  0.00000000000E+00 -0.00000000000E+00 -0.40134504519E+03  0.40134504519E+03  0.00000000000E+00 0.  1.
         24    2    1    2    0    0  0.13794566580E+02  0.12311957129E+02 -0.10711320919E+03  0.13565832867E+03  0.81166915670E+02 0.  0.
         23    2    1    2    0    0  0.38836616211E+01  0.16755926152E+02 -0.21582881803E+03  0.23471359519E+03  0.90623116194E+02 0.  0.
        -11    1    3    3    0    0  0.37302585007E+02 -0.17995776587E+01 -0.16213706283E+02  0.40713702846E+02  0.00000000000E+00 0.  1.
         12    1    3    3    0    0 -0.23508018427E+02  0.14111534788E+02 -0.90899502906E+02  0.94944625825E+02  0.00000000000E+00 0. -1.
        -13    1    4    4    0    0 -0.18027022447E+02 -0.28165059195E+02 -0.41144491449E+02  0.53019932802E+02  0.00000000000E+00 0. -1.
         13    1    4    4    0    0  0.21910684068E+02  0.44920985347E+02 -0.17468432658E+03  0.18169366239E+03  0.00000000000E+00 0.  1.
          1    1    1    2  501    0 -0.17678228201E+02 -0.29067883281E+02 -0.49396871776E+02  0.59979267519E+02  0.00000000000E+00 0. -1.
<scales pt_clust_5="13000.00000" pt_clust_6="13000.00000" pt_clust_7="13000.00000" pt_clust_8="13000.00000" pt_clust_9="34.02150"></scales>
<clustering>
<clus scale="   34.022">  2  9  1 -1</clus>
<clus scale="   81.167">  5  6 -1 -1</clus>
<clus scale="   81.550">  1  5  2 -1</clus>
<clus scale="   90.623">  7  8 -1 -1</clus>
<clus scale="   34.022">  2  5  1 -1</clus>
</clustering>
</event>
<event>
 9    2  0.6190160E-005  0.7969843E+02  0.7546771E-02  0.1338267E+00
         21   -1    0    0  501  502  0.00000000000E+00  0.00000000000E+00  0.12145721021E+03  0.12145721021E+03  0.00000000000E+00 0. -1.
          2   -1    0    0  502    0 -0.00000000000E+00 -0.00000000000E+00 -0.22029204143E+03  0.22029204143E+03  0.00000000000E+00 0. -1.
         24    2    1    2    0    0 -0.46437272164E+01 -0.12254904805E+01 -0.17147123523E+03  0.18914642156E+03  0.79692648631E+02 0.  0.
         23    2    1    2    0    0 -0.22467763757E+02 -0.79209757268E+01 -0.17705774975E+01  0.72884013704E+02  0.68857840833E+02 0.  0.
        -13    1    3    3    0    0 -0.22926119774E+02  0.10422560229E+02 -0.11452110556E+02  0.27665638720E+02  0.00000000000E+00 0.  1.
         14    1    3    3    0    0  0.18282392557E+02 -0.11648050709E+02 -0.16001912468E+03  0.16148078284E+03  0.00000000000E+00 0. -1.
        -13    1    4    4    0    0 -0.17155089929E+01  0.28198893242E+02 -0.10825806210E+02  0.30254233278E+02  0.00000000000E+00 0.  1.
         13    1    4    4    0    0 -0.20752254764E+02 -0.36119868968E+02  0.90552287124E+01  0.42629780425E+02  0.00000000000E+00 0. -1.
          1    1    1    2  501    0  0.27111490973E+02  0.91464662073E+01  0.74406981514E+02  0.79718816379E+02  0.00000000000E+00 0. -1.
<scales pt_clust_5="13000.00000" pt_clust_6="13000.00000" pt_clust_7="13000.00000" pt_clust_8="13000.00000" pt_clust_9="28.61277"></scales>
<clustering>
<clus scale="   28.613">  1  9  2 -1</clus>
<clus scale="   68.858">  7  8 -1 -1</clus>
<clus scale="   68.865">  1  7  2 -1</clus>
<clus scale="   79.693">  5  6 -1 -1</clus>
<clus scale="   28.613">  1  5  2 -1</clus>
</clustering>
</event>
<event>
 9    2  0.6190160E-005  0.1211416E+03  0.7546771E-02  0.1244179E+00
         21   -1    0    0  501  502  0.00000000000E+00  0.00000000000E+00  0.88924814633E+02  0.88924814633E+02  0.00000000000E+00 0. -1.
         -3   -1    0    0    0  501 -0.00000000000E+00 -0.00000000000E+00 -0.22547338113E+03  0.22547338113E+03  0.00000000000E+00 0.  1.
         23    2    1    2    0    0  0.74036409008E+02 -0.32467306774E+02 -0.11832262767E+03  0.16914039031E+03  0.89848269579E+02 0.  0.
         24    2    1    2    0    0 -0.64021072850E+02  0.54930544582E+02 -0.26467375481E+02  0.11931892943E+03  0.80127538702E+02 0.  0.
        -11    1    4    4    0    0 -0.32743353312E+02 -0.15605339443E+02 -0.21123527718E+02  0.41974483064E+02  0.00000000000E+00 0.  1.
         12    1    4    4    0    0 -0.31277719538E+02  0.70535884025E+02 -0.53438477629E+01  0.77344446366E+02  0.00000000000E+00 0. -1.
        -11    1    3    3    0    0  0.29082270098E+02 -0.24844672610E+02 -0.11746588918E+03  0.12353651813E+03  0.00000000000E+00 0.  1.
         11    1    3    3    0    0  0.44954138911E+02 -0.76226341647E+01 -0.85673849361E+00  0.45603872178E+02  0.00000000000E+00 0. -1.
         -4    1    1    2    0  502 -0.10015336158E+02 -0.22463237808E+02  0.82414366568E+01  0.25938876023E+02  0.00000000000E+00 0.  1.
<scales pt_clust_5="13000.00000" pt_clust_6="13000.00000" pt_clust_7="13000.00000" pt_clust_8="13000.00000" pt_clust_9="24.59480"></scales>
<clustering>
<clus scale="   24.595">  1  9  2 -1</clus>
<clus scale="   80.128">  5  6 -1 -1</clus>
<clus scale="   89.848">  7  8 -1 -1</clus>
<clus scale="  114.118">  1  5  2 -1</clus>
<clus scale="   24.595">  1  5  2 -1</clus>
</clustering>
</event>
<event>
 9    2  0.6190160E-005  0.2320052E+03  0.7546771E-02  0.1126186E+00
          2   -1    0    0  502    0 -0.00000000000E+00  0.00000000000E+00  0.17779516505E+03  0.17779516505E+03  0.00000000000E+00 0. -1.
         21   -1    0    0  501  502  0.00000000000E+00 -0.00000000000E+00 -0.34552289641E+03  0.34552289641E+03  0.00000000000E+00 0. -1.
         24    2    1    2    0    0 -0.13567326781E+03  0.15968552065E+03 -0.25437610065E+02  0.22629433292E+03  0.81580340797E+02 0.  0.
         23    2    1    2    0    0  0.15737237845E+03 -0.14685253789E+03 -0.12755829904E+03  0.26782503959E+03  0.95537420923E+02 0.  0.
        -11    1    3    3    0    0  0.50703233726E+01  0.34633035311E+02 -0.13921184090E+02  0.37669014859E+02  0.00000000000E+00 0.  1.
         12    1    3    3    0    0 -0.14074359118E+03  0.12505248534E+03 -0.11516425975E+02  0.18862531806E+03  0.00000000000E+00 0. -1.
        -11    1    4    4    0    0  0.10639214711E+01 -0.44275907853E+02 -0.56915522639E+01  0.44652902619E+02  0.00000000000E+00 0.  1.
         11    1    4    4    0    0  0.15630845698E+03 -0.10257663003E+03 -0.12186674678E+03  0.22317213697E+03  0.00000000000E+00 0. -1.
          1    1    1    2  501    0 -0.21699110641E+02 -0.12832982761E+02 -0.14731822263E+02  0.29198688949E+02  0.00000000000E+00 0. -1.
<scales pt_clust_5="13000.00000" pt_clust_6="13000.00000" pt_clust_7="13000.00000" pt_clust_8="13000.00000" pt_clust_9="25.20986"></scales>
<clustering>
<clus scale="   25.210">  2  9  1 -1</clus>
<clus scale="   81.580">  5  6 -1 -1</clus>
<clus scale="   95.537">  7  8 -1 -1</clus>
<clus scale="  226.615">  1  5  2 -1</clus>
<clus scale="   25.210">  2  5  1 -1</clus>
</clustering>
</event>
<event>
 9    2  0.6190160E-005  0.8722059E+02  0.7546771E-02  0.1315215E+00
         -3   -1    0    0    0  501 -0.00000000000E+00  0.00000000000E+00  0.18108398316E+03  0.18108398316E+03  0.00000000000E+00 0.  1.
         21   -1    0    0  501  502  0.00000000000E+00 -0.00000000000E+00 -0.10561924977E+03  0.10561924977E+03  0.00000000000E+00 0. -1.
         24    2    1    2    0    0 -0.71388464713E+01  0.49017904775E+01  0.11027225411E+03  0.13583962469E+03  0.78850763665E+02 0.  0.
         23    2    1    2    0    0 -0.11823759255E+02  0.30138288134E+02 -0.53096233985E+02  0.10702453255E+03  0.87102943746E+02 0.  0.
        -11    1    3    3    0    0 -0.20938960933E+02  0.25017424717E+02  0.10621240983E+03  0.11110979987E+03  0.00000000000E+00 0.  1.
         12    1    3    3    0    0  0.13800114462E+02 -0.20115634240E+02  0.40598442754E+01  0.24729824819E+02  0.00000000000E+00 0. -1.
        -11    1    4    4    0    0 -0.35201717105E+02  0.55895780468E+01  0.85666665244E+01  0.36657769234E+02  0.00000000000E+00 0.  1.
         11    1    4    4    0    0  0.23377957849E+02  0.24548710087E+02 -0.61662900509E+02  0.70366763314E+02  0.00000000000E+00 0. -1.
         -4    1    1    2    0  502  0.18962605727E+02 -0.35040078612E+02  0.18288713256E+02  0.43839075693E+02  0.00000000000E+00 0.  1.
<scales pt_clust_5="13000.00000" pt_clust_6="13000.00000" pt_clust_7="13000.00000" pt_clust_8="13000.00000" pt_clust_9="39.84205"></scales>
<clustering>
<clus scale="   39.842">  2  9  1 -1</clus>
<clus scale="   78.851">  5  6 -1 -1</clus>
<clus scale="   78.981">  1  5  2 -1</clus>
<clus scale="   87.103">  7  8 -1 -1</clus>
<clus scale="   39.842">  2  5  1 -1</clus>
</clustering>
</event>
<event>
 9    2  0.6190160E-005  0.1356764E+03  0.7546771E-02  0.1226278E+00
         21   -1    0    0  501  502  0.00000000000E+00  0.00000000000E+00  0.20822527209E+03  0.20822527209E+03  0.00000000000E+00 0. -1.
          2   -1    0    0  502    0 -0.00000000000E+00 -0.00000000000E+00 -0.22722545992E+03  0.22722545992E+03  0.00000000000E+00 0. -1.
         23    2    1    2    0    0 -0.84544287064E+02  0.65159321632E+01 -0.14157905466E+03  0.19638336323E+03  0.10645000135E+03 0.  0.
         24    2    1    2    0    0  0.83007892190E+02  0.23924779081E+02  0.64424409414E+01  0.11899794374E+03  0.81586152927E+02 0.  0.
        -11    1    4    4    0    0  0.95237218421E+02  0.40153136595E+01  0.29035486747E+01  0.95366037515E+02  0.00000000000E+00 0.  1.
         12    1    4    4    0    0 -0.12229326231E+02  0.19909465421E+02  0.35388922667E+01  0.23631906226E+02  0.00000000000E+00 0. -1.
        -11    1    3    3    0    0 -0.80673915403E+02  0.48348427152E+02 -0.95907818473E+02  0.13432855496E+03  0.00000000000E+00 0.  1.
         11    1    3    3    0    0 -0.38703716610E+01 -0.41832494989E+02 -0.45671236189E+02  0.62054808266E+02  0.00000000000E+00 0. -1.
          1    1    1    2  501    0  0.15363948744E+01 -0.30440711244E+02  0.11613642589E+03  0.12006942503E+03  0.00000000000E+00 0. -1.
<scales pt_clust_5="13000.00000" pt_clust_6="13000.00000" pt_clust_7="13000.00000" pt_clust_8="13000.00000" pt_clust_9="30.47946"></scales>
<clustering>
<clus scale="   30.479">  1  9  2 -1</clus>
<clus scale="   81.586">  5  6 -1 -1</clus>
<clus scale="  106.450">  7  8 -1 -1</clus>
<clus scale="  117.187">  1  5  2 -1</clus>
<clus scale="   30.479">  1  5  2 -1</clus>
</clustering>
</event>
<event>
 9    2  0.6190160E-005  0.2688582E+03  0.7546771E-02  0.1102551E+00
         21   -1    0    0  501  502  0.00000000000E+00  0.00000000000E+00  0.15949163414E+03  0.15949163414E+03  0.00000000000E+00 0. -1.
          2   -1    0    0  502    0 -0.00000000000E+00 -0.00000000000E+00 -0.84656580040E+03  0.84656580040E+03  0.00000000000E+00 0. -1.
         23    2    1    2    0    0  0.16526113163E+03  0.56820466087E+02 -0.11612136438E+03  0.22836723162E+03  0.90153281781E+02 0.  0.
         24    2    1    2    0    0 -0.33350487043E+03 -0.93469955975E+02 -0.40774714079E+03  0.54044512171E+03  0.76557608923E+02 0.  0.
        -11    1    4    4    0    0 -0.38894090113E+02  0.11170522671E+02 -0.64625244218E+02  0.76249282047E+02  0.00000000000E+00 0.  1.
         12    1    4    4    0    0 -0.29461078032E+03 -0.10464047865E+03 -0.34312189657E+03  0.46419583966E+03  0.00000000000E+00 0. -1.
        -11    1    3    3    0    0  0.11250528035E+03 -0.82908254998E+01 -0.64696398813E+02  0.13004537637E+03  0.00000000000E+00 0.  1.
         11    1    3    3    0    0  0.52755851281E+02  0.65111291587E+02 -0.51424965568E+02  0.98321855252E+02  0.00000000000E+00 0. -1.
          1    1    1    2  501    0  0.16824373880E+03  0.36649489888E+02 -0.16320566109E+03  0.23724508122E+03  0.00000000000E+00 0. -1.
<scales pt_clust_5="13000.00000" pt_clust_6="13000.00000" pt_clust_7="13000.00000" pt_clust_8="13000.00000" pt_clust_9="172.18934"></scales>
<clustering>
<clus scale="   76.558">  5  6 -1 -1</clus>
<clus scale="   90.153">  7  8 -1 -1</clus>
<clus scale="  172.189">  1  9  2 -1</clus>
<clus scale="  264.609">  1  5  2 -1</clus>
<clus scale="  172.189">  1  5  2 -1</clus>
</clustering>
</event>
<event>
 9    2  0.6190160E-005  0.9465958E+02  0.7546771E-02  0.1298373E+00
         21   -1    0    0  501  502  0.00000000000E+00  0.00000000000E+00  0.11887767438E+03  0.11887767438E+03  0.00000000000E+00 0. -1.
          2   -1    0    0  502    0 -0.00000000000E+00 -0.00000000000E+00 -0.25737963948E+03  0.25737963948E+03  0.00000000000E+00 0. -1.
         23    2    1    2    0    0  0.12695878534E+02  0.24163388761E+02 -0.18434155364E+03  0.20716834023E+03  0.90508884123E+02 0.  0.
         24    2    1    2    0    0 -0.50318032581E+02  0.30145983144E+01 -0.12224818759E+02  0.94754964912E+02  0.79297320105E+02 0.  0.
        -11    1    4    4    0    0 -0.19548574745E+02 -0.30631587740E+02 -0.28669509319E+02  0.46285869405E+02  0.00000000000E+00 0.  1.
         12    1    4    4    0    0 -0.30769457837E+02  0.33646186054E+02  0.16444690561E+02  0.48469095506E+02  0.00000000000E+00 0. -1.
        -11    1    3    3    0    0 -0.23879238466E+02 -0.60757853968E+01 -0.10185704435E+02  0.26662366225E+02  0.00000000000E+00 0.  1.
         11    1    3    3    0    0  0.36575117000E+02  0.30239174158E+02 -0.17415584921E+03  0.18050597400E+03  0.00000000000E+00 0. -1.
          1    1    1    2  501    0  0.37622154047E+02 -0.27177987076E+02  0.58064407309E+02  0.74334008722E+02  0.00000000000E+00 0. -1.
<scales pt_clust_5="13000.00000" pt_clust_6="13000.00000" pt_clust_7="13000.00000" pt_clust_8="13000.00000" pt_clust_9="46.41195"></scales>
<clustering>
<clus scale="   46.412">  1  9  2 -1</clus>
<clus scale="   79.297">  5  6 -1 -1</clus>
<clus scale="   84.004">  1  5  2 -1</clus>
<clus scale="   90.509">  7  8 -1 -1</clus>
<clus scale="   46.412">  1  5  2 -1</clus>
</clustering>
</event>
<event>
 9    2  0.6190160E-005  0.1020098E+03  0.7546771E-02  0.1282050E+00
         -1   -1    0    0    0  501 -0.00000000000E+00  0.00000000000E+00  0.92188576783E+03  0.92188576783E+03  0.00000000000E+00 0.  1.
         21   -1    0    0  501  502  0.00000000000E+00 -0.00000000000E+00 -0.21766646373E+02  0.21766646373E+02  0.00000000000E+00 0. -1.
         23    2    1    2    0    0 -0.36765074149E+02  0.37053146689E+02  0.47932037994E+03  0.49057673740E+03  0.90514652369E+02 0.  0.
         24    2    1    2    0    0  0.56675566353E+02  0.20299147890E+02  0.18533509115E+03  0.20991144416E+03  0.78035524932E+02 0.  0.
        -13    1    4    4    0    0  0.27327163044E+02  0.17035992285E+02  0.17602929615E+03  0.17895058529E+03  0.00000000000E+00 0.  1.
         14    1    4    4    0    0  0.29348403309E+02  0.32631556049E+01  0.93057949990E+01  0.30960858868E+02  0.00000000000E+00 0. -1.
        -11    1    3    3    0    0  0.27781407361E+02  0.35958893746E+01  0.81825267161E+02  0.86487637043E+02  0.00000000000E+00 0. -1.
         11    1    3    3    0    0 -0.64546481510E+02  0.33457257314E+02  0.39749511278E+03  0.40408910035E+03  0.00000000000E+00 0.  1.
         -2    1    1    2    0  502 -0.19910492203E+02 -0.57352294579E+02  0.23546365038E+03  0.24316423265E+03  0.00000000000E+00 0.  1.
<scales pt_clust_5="13000.00000" pt_clust_6="13000.00000" pt_clust_7="13000.00000" pt_clust_8="13000.00000" pt_clust_9="60.71011"></scales>
<clustering>
<clus scale="   60.710">  2  9  1 -1</clus>
<clus scale="   78.036">  5  6 -1 -1</clus>
<clus scale="   90.515">  7  8 -1 -1</clus>
<clus scale="   91.119">  2  5  1 -1</clus>
<clus scale="   60.710">  2  5  1 -1</clus>
</clustering>
</event>
<event>
 9    2  0.6190160E-005  0.1115209E+03  0.7546771E-02  0.1264618E+00
          2   -1    0    0  502    0 -0.00000000000E+00  0.00000000000E+00  0.61802649990E+03  0.61802649990E+03  0.00000000000E+00 0. -1.
         21   -1    0    0  501  502  0.00000000000E+00 -0.00000000000E+00 -0.22229481443E+02  0.22229481443E+02  0.00000000000E+00 0.  1.
         24    2    1    2    0    0 -0.13324919735E+02  0.58039657626E+02  0.28619569609E+03  0.30159146525E+03  0.74184096059E+02 0.  0.
         23    2    1    2    0    0 -0.36728731285E+01 -0.70789710832E+02  0.25966875532E+03  0.28439896467E+03  0.91816313698E+02 0.  0.
        -13    1    3    3    0    0 -0.36506603312E+02  0.45072692964E+01  0.11265193937E+03  0.11850530370E+03  0.00000000000E+00 0.  1.
         14    1    3    3    0    0  0.23181683577E+02  0.53532388329E+02  0.17354375672E+03  0.18308616155E+03  0.00000000000E+00 0. -1.
        -13    1    4    4    0    0 -0.41827184536E+02 -0.27438452922E+02  0.69335005420E+02  0.85496930013E+02  0.00000000000E+00 0.  1.
         13    1    4    4    0    0  0.38154311407E+02 -0.43351257910E+02  0.19033374990E+03  0.19890203466E+03  0.00000000000E+00 0. -1.
          1    1    1    2  501    0  0.16997792864E+02  0.12750053207E+02  0.49932567053E+02  0.54265551425E+02  0.00000000000E+00 0. -1.
<scales pt_clust_5="13000.00000" pt_clust_6="13000.00000" pt_clust_7="13000.00000" pt_clust_8="13000.00000" pt_clust_9="21.24827"></scales>
<clustering>
<clus scale="   21.248">  2  9  1 -1</clus>
<clus scale="   74.184">  5  6 -1 -1</clus>
<clus scale="   91.816">  7  8 -1 -1</clus>
<clus scale="   97.519">  1  5  2 -1</clus>
<clus scale="   21.248">  2  5  1 -1</clus>
</clustering>
</event>
<event>
 9    2  0.6190160E-005  0.9818455E+02  0.7546771E-02  0.1285852E+00
         21   -1    0    0  501  502  0.00000000000E+00  0.00000000000E+00  0.17072279253E+02  0.17072279253E+02  0.00000000000E+00 0.  1.
          2   -1    0    0  502    0 -0.00000000000E+00 -0.00000000000E+00 -0.13162660046E+04  0.13162660046E+04  0.00000000000E+00 0. -1.
         24    2    1    2    0    0  0.51277296691E+02 -0.34546647220E+02 -0.78670264947E+03  0.79403837202E+03  0.88164877206E+02 0.  0.
         23    2    1    2    0    0  0.13002676127E+02  0.53395357181E+01 -0.35198018162E+03  0.36394678969E+03  0.91485721530E+02 0.  0.
        -11    1    3    3    0    0  0.35340319293E+02 -0.18126625595E+02 -0.11003305002E+03  0.11698198503E+03  0.00000000000E+00 0.  1.
         12    1    3    3    0    0  0.15936977397E+02 -0.16420021625E+02 -0.67666959945E+03  0.67705638700E+03  0.00000000000E+00 0. -1.
        -13    1    4    4    0    0 -0.38967454823E+01  0.47039343089E+02 -0.16403426894E+03  0.17069014561E+03  0.00000000000E+00 0.  1.
         13    1    4    4    0    0  0.16899421609E+02 -0.41699807371E+02 -0.18794591269E+03  0.19325664408E+03  0.00000000000E+00 0. -1.
          1    1    1    2  501    0 -0.64279972817E+02  0.29207111502E+02 -0.16051089421E+03  0.17535312209E+03  0.00000000000E+00 0. -1.
<scales pt_clust_5="13000.00000" pt_clust_6="13000.00000" pt_clust_7="13000.00000" pt_clust_8="13000.00000" pt_clust_9="70.60432"></scales>
<clustering>
<clus scale="   70.604">  1  9  2 -1</clus>
<clus scale="   88.165">  5  6 -1 -1</clus>
<clus scale="   91.486">  7  8 -1 -1</clus>
<clus scale="   95.098">  2  5  1 -1</clus>
<clus scale="   70.604">  1  5  2 -1</clus>
</clustering>
</event>
<event>
 9    2  0.6190160E-005  0.1420114E+03  0.7546771E-02  0.1212731E+00
         21   -1    0    0  501  502  0.00000000000E+00  0.00000000000E+00  0.12051215088E+03  0.12051215088E+03  0.00000000000E+00 0.  1.
         -1   -1    0    0    0  501 -0.00000000000E+00 -0.00000000000E+00 -0.32260177304E+03  0.32260177304E+03  0.00000000000E+00 0.  1.
         23    2    1    2    0    0  0.10087310799E+03 -0.22218467363E+02 -0.14635113251E+03  0.20000103895E+03  0.88953456291E+02 0.  0.
         24    2    1    2    0    0 -0.13060644944E+03  0.37248405242E+02  0.22010391468E+02  0.15852648451E+03  0.78744527630E+02 0.  0.
        -11    1    4    4    0    0 -0.74508488292E+02  0.59812885880E+02  0.48354438935E+01  0.95668582421E+02  0.00000000000E+00 0.  1.
         12    1    4    4    0    0 -0.56097961146E+02 -0.22564480638E+02  0.17174947575E+02  0.62857902091E+02  0.00000000000E+00 0. -1.
        -11    1    3    3    0    0  0.19307727605E+01 -0.27902339547E+02 -0.68449663189E+02  0.73943389335E+02  0.00000000000E+00 0. -1.
         11    1    3    3    0    0  0.98942335231E+02  0.56838721832E+01 -0.77901469317E+02  0.12605764961E+03  0.00000000000E+00 0.  1.
         -2    1    1    2    0  502  0.29733341445E+02 -0.15029937879E+02 -0.77748881127E+02  0.84586400460E+02  0.00000000000E+00 0.  1.
<scales pt_clust_5="13000.00000" pt_clust_6="13000.00000" pt_clust_7="13000.00000" pt_clust_8="13000.00000" pt_clust_9="33.31624"></scales>
<clustering>
<clus scale="   33.316">  1  9  2 -1</clus>
<clus scale="   78.745">  5  6 -1 -1</clus>
<clus scale="   88.953">  7  8 -1 -1</clus>
<clus scale="  135.850">  1  5  2 -1</clus>
<clus scale="   33.316">  1  5  2 -1</clus>
</clustering>
</event>
<event>
 9    2  0.6190160E-005  0.9789158E+02  0.7546771E-02  0.1287548E+00
          4   -1    0    0  502    0 -0.00000000000E+00  0.00000000000E+00  0.37291678580E+02  0.37291678580E+02  0.00000000000E+00 0. -1.
         21   -1    0    0  501  502  0.00000000000E+00 -0.00000000000E+00 -0.55661113424E+03  0.55661113424E+03  0.00000000000E+00 0. -1.
         23    2    1    2    0    0  0.22786092322E+02  0.16902311632E+02 -0.70930598275E+02  0.11963099034E+03  0.92062641370E+02 0.  0.
         24    2    1    2    0    0 -0.54419140827E+02  0.83622387423E+01 -0.22657223658E+03  0.24879109043E+03  0.86779365985E+02 0.  0.
        -13    1    4    4    0    0  0.10921105565E+02  0.18561869911E+02 -0.12983920084E+03  0.13161318945E+03  0.00000000000E+00 0.  1.
         14    1    4    4    0    0 -0.65340246392E+02 -0.10199631168E+02 -0.96733035745E+02  0.11717790098E+03  0.00000000000E+00 0. -1.
        -13    1    3    3    0    0 -0.27146582627E+02  0.29945148667E+02 -0.13961418966E+02  0.42761783132E+02  0.00000000000E+00 0.  1.
         13    1    3    3    0    0  0.49932674950E+02 -0.13042837035E+02 -0.56969179308E+02  0.76869207207E+02  0.00000000000E+00 0. -1.
          3    1    1    2  501    0  0.31633048505E+02 -0.25264550375E+02 -0.22181662080E+03  0.22548073205E+03  0.00000000000E+00 0. -1.
<scales pt_clust_5="13000.00000" pt_clust_6="13000.00000" pt_clust_7="13000.00000" pt_clust_8="13000.00000" pt_clust_9="40.48391"></scales>
<clustering>
<clus scale="   40.484">  2  9  1 -1</clus>
<clus scale="   86.779">  5  6 -1 -1</clus>
<clus scale="   92.063">  7  8 -1 -1</clus>
<clus scale="   92.940">  2  5  1 -1</clus>
<clus scale="   40.484">  2  5  1 -1</clus>
</clustering>
</event>
<event>
 9    2  0.6190160E-005  0.9049775E+02  0.7546771E-02  0.1306771E+00
         -3   -1    0    0    0  501 -0.00000000000E+00  0.00000000000E+00  0.37280787629E+03  0.37280787629E+03  0.00000000000E+00 0.  1.
         21   -1    0    0  501  502  0.00000000000E+00 -0.00000000000E+00 -0.41212066891E+02  0.41212066891E+02  0.00000000000E+00 0. -1.
         23    2    1    2    0    0 -0.13420018184E+02 -0.78360726440E+01  0.24435453211E+03  0.26020706470E+03  0.88074276811E+02 0.  0.
         24    2    1    2    0    0  0.43430579870E+02 -0.29688171069E+01  0.46431943176E+02  0.10201730718E+03  0.79728141047E+02 0.  0.
        -13    1    4    4    0    0  0.11717117152E+02 -0.37346248074E+02  0.37882158682E+02  0.54471010877E+02  0.00000000000E+00 0.  1.
         14    1    4    4    0    0  0.31713462717E+02  0.34377430967E+02  0.85497844938E+01  0.47546296305E+02  0.00000000000E+00 0. -1.
        -13    1    3    3    0    0  0.20121056834E+02 -0.38513698613E+02  0.13356114612E+03  0.14045191939E+03  0.00000000000E+00 0. -1.
         13    1    3    3    0    0 -0.33541075018E+02  0.30677625969E+02  0.11079338599E+03  0.11975514531E+03  0.00000000000E+00 0.  1.
         -4    1    1    2    0  502 -0.30010561686E+02  0.10804889751E+02  0.40809334112E+02  0.51795571296E+02  0.00000000000E+00 0.  1.
<scales pt_clust_5="13000.00000" pt_clust_6="13000.00000" pt_clust_7="13000.00000" pt_clust_8="13000.00000" pt_clust_9="31.89639"></scales>
<clustering>
<clus scale="   31.896">  2  9  1 -1</clus>
<clus scale="   79.728">  5  6 -1 -1</clus>
<clus scale="   82.397">  2  5  1 -1</clus>
<clus scale="   88.074">  7  8 -1 -1</clus>
<clus scale="   31.896">  2  5  1 -1</clus>
</clustering>
</event>
<event>
 9    2  0.6190160E-005  0.9253505E+02  0.7546771E-02  0.1302877E+00
         21   -1    0    0  501  502  0.00000000000E+00  0.00000000000E+00  0.42156803726E+03  0.42156803726E+03  0.00000000000E+00 0. -1.
         -1   -1    0    0    0  501 -0.00000000000E+00 -0.00000000000E+00 -0.42908015169E+02  0.42908015169E+02  0.00000000000E+00 0.  1.
         24    2    1    2    0    0  0.12013186378E+02  0.18105045891E+00  0.34022669028E+02  0.88646053016E+02  0.80970558114E+02 0.  0.
         23    2    1    2    0    0 -0.22710235505E+02  0.41476782052E+02  0.19716448707E+03  0.22221343757E+03  0.90933484634E+02 0.  0.
        -13    1    3    3    0    0 -0.33597299788E+02 -0.49228421642E+01  0.49433373037E+01  0.34313984200E+02  0.00000000000E+00 0.  1.
         14    1    3    3    0    0  0.45610486166E+02  0.51038926232E+01  0.29079331724E+02  0.54332068816E+02  0.00000000000E+00 0. -1.
        -13    1    4    4    0    0 -0.39445809893E+02 -0.11670912954E+02  0.49355783024E+02  0.64250878945E+02  0.00000000000E+00 0.  1.
         13    1    4    4    0    0  0.16735574388E+02  0.53147695007E+02  0.14780870405E+03  0.15796255862E+03  0.00000000000E+00 0. -1.
         -2    1    1    2    0  502  0.10697049126E+02 -0.41657832511E+02  0.14747286599E+03  0.15361656185E+03  0.00000000000E+00 0.  1.
<scales pt_clust_5="13000.00000" pt_clust_6="13000.00000" pt_clust_7="13000.00000" pt_clust_8="13000.00000" pt_clust_9="43.00932"></scales>
<clustering>
<clus scale="   43.009">  1  9  2 -1</clus>
<clus scale="   80.971">  5  6 -1 -1</clus>
<clus scale="   82.765">  2  5  1 -1</clus>
<clus scale="   90.933">  7  8 -1 -1</clus>
<clus scale="   43.009">  1  5  2 -1</clus>
</clustering>
</event>
<event>
 9    2  0.6190160E-005  0.9560923E+02  0.7546771E-02  0.1294635E+00
         21   -1    0    0  501  502  0.00000000000E+00  0.00000000000E+00  0.45425565727E+02  0.45425565727E+02  0.00000000000E+00 0.  1.
          2   -1    0    0  502    0 -0.00000000000E+00 -0.00000000000E+00 -0.29358100282E+03  0.29358100282E+03  0.00000000000E+00 0. -1.
         23    2    1    2    0    0 -0.29976629197E+02 -0.29036339408E+02 -0.10275683075E+03  0.14337993322E+03  0.90868760745E+02 0.  0.
         24    2    1    2    0    0  0.27470440723E+02 -0.12089393434E+02 -0.81241178892E+02  0.11937847221E+03  0.82160281961E+02 0.  0.
        -13    1    4    4    0    0 -0.24511207684E+02  0.11277990594E+02 -0.11546735582E+02  0.29348244863E+02  0.00000000000E+00 0.  1.
         14    1    4    4    0    0  0.51981648407E+02 -0.23367384028E+02 -0.69694443311E+02  0.90030227345E+02  0.00000000000E+00 0. -1.
        -13    1    3    3    0    0 -0.47211847824E+02 -0.48462175891E+02 -0.94315264633E+02  0.11607286595E+03  0.00000000000E+00 0.  1.
         13    1    3    3    0    0  0.17235218627E+02  0.19425836484E+02 -0.84415661185E+01  0.27307067268E+02  0.00000000000E+00 0. -1.
          1    1    1    2  501    0  0.25061884743E+01  0.41125732841E+02 -0.64157427452E+02  0.76248163123E+02  0.00000000000E+00 0. -1.
<scales pt_clust_5="13000.00000" pt_clust_6="13000.00000" pt_clust_7="13000.00000" pt_clust_8="13000.00000" pt_clust_9="41.20205"></scales>
<clustering>
<clus scale="   41.202">  1  9  2 -1</clus>
<clus scale="   82.160">  5  6 -1 -1</clus>
<clus scale="   87.375">  1  5  2 -1</clus>
<clus scale="   90.869">  7  8 -1 -1</clus>
<clus scale="   41.202">  1  5  2 -1</clus>
</clustering>
</event>
<event>
 9    2  0.6190160E-005  0.1006697E+03  0.7546771E-02  0.1283580E+00
          4   -1    0    0  502    0 -0.00000000000E+00  0.00000000000E+00  0.30012882537E+03  0.30012882537E+03  0.00000000000E+00 0. -1.
         21   -1    0    0  501  502  0.00000000000E+00 -0.00000000000E+00 -0.17452861702E+03  0.17452861702E+03  0.00000000000E+00 0. -1.
         24    2    1    2    0    0 -0.19057259768E+02 -0.56243884405E+02  0.41645262213E+02  0.10805166671E+03  0.80089207327E+02 0.  0.
         23    2    1    2    0    0  0.32101203891E+02 -0.25218875968E+02 -0.11482404601E+03  0.15138632135E+03  0.89815242323E+02 0.  0.
        -13    1    3    3    0    0  0.60385076114E+01 -0.59166369273E+02  0.15478955135E+00  0.59473916862E+02  0.00000000000E+00 0.  1.
         14    1    3    3    0    0 -0.25095767380E+02  0.29224848680E+01  0.41490472661E+02  0.48577749843E+02  0.00000000000E+00 0. -1.
        -13    1    4    4    0    0 -0.28351092796E+02 -0.18007552749E+02 -0.63175719045E+02  0.71548779833E+02  0.00000000000E+00 0.  1.
         13    1    4    4    0    0  0.60452296687E+02 -0.72113232193E+01 -0.51648326968E+02  0.79837541519E+02  0.00000000000E+00 0. -1.
          3    1    1    2  501    0 -0.13043944122E+02  0.81462760374E+02  0.19877899215E+03  0.21521945434E+03  0.00000000000E+00 0. -1.
<scales pt_clust_5="13000.00000" pt_clust_6="13000.00000" pt_clust_7="13000.00000" pt_clust_8="13000.00000" pt_clust_9="82.50050"></scales>
<clustering>
<clus scale="   80.089">  5  6 -1 -1</clus>
<clus scale="   82.501">  2  9  1 -1</clus>
<clus scale="   89.815">  7  8 -1 -1</clus>
<clus scale="   92.097">  1  5  2 -1</clus>
<clus scale="   82.501">  2  5  1 -1</clus>
</clustering>
</event>
<event>
 9    2  0.6190160E-005  0.9327037E+02  0.7546771E-02  0.1301899E+00
         21   -1    0    0  501  502  0.00000000000E+00  0.00000000000E+00  0.26251228038E+03  0.26251228038E+03  0.00000000000E+00 0.  1.
         -3   -1    0    0    0  501 -0.00000000000E+00 -0.00000000000E+00 -0.23111727215E+03  0.23111727215E+03  0.00000000000E+00 0.  1.
         23    2    1    2    0    0  0.12574577122E+02 -0.77913766664E+01 -0.20816976277E+03  0.22805582652E+03  0.91956426287E+02 0.  0.
         24    2    1    2    0    0 -0.32844308885E+02  0.63877625914E+00  0.15044776054E+03  0.17390113866E+03  0.80795548872E+02 0.  0.
        -11    1    4    4    0    0 -0.16401392033E+02 -0.20719793097E+02  0.61823687383E+01  0.27139218298E+02  0.00000000000E+00 0.  1.
         12    1    4    4    0    0 -0.16442916851E+02  0.21358569356E+02  0.14426539180E+03  0.14676192037E+03  0.00000000000E+00 0. -1.
        -11    1    3    3    0    0  0.76836973709E+01 -0.37236936099E+02 -0.18852861117E+03  0.19232437663E+03  0.00000000000E+00 0.  1.
         11    1    3    3    0    0  0.48908797506E+01  0.29445559432E+02 -0.19641151603E+02  0.35731449891E+02  0.00000000000E+00 0. -1.
         -4    1    1    2    0  502  0.20269731763E+02  0.71526004072E+01  0.89117010460E+02  0.91672587351E+02  0.00000000000E+00 0.  1.
<scales pt_clust_5="13000.00000" pt_clust_6="13000.00000" pt_clust_7="13000.00000" pt_clust_8="13000.00000" pt_clust_9="21.49469"></scales>
<clustering>
<clus scale="   21.495">  1  9  2 -1</clus>
<clus scale="   80.796">  5  6 -1 -1</clus>
<clus scale="   82.288">  1  5  2 -1</clus>
<clus scale="   91.956">  7  8 -1 -1</clus>
<clus scale="   21.495">  1  5  2 -1</clus>
</clustering>
</event>
<event>
 9    2  0.6190160E-005  0.2693824E+03  0.7546771E-02  0.1136383E+00
          2   -1    0    0  502    0 -0.00000000000E+00  0.00000000000E+00  0.10911092769E+04  0.10911092769E+04  0.00000000000E+00 0. -1.
         21   -1    0    0  501  502  0.00000000000E+00 -0.00000000000E+00 -0.10878630360E+03  0.10878630360E+03  0.00000000000E+00 0.  1.
         23    2    1    2    0    0  0.61179297740E+02 -0.19023106084E+02  0.25658777870E+03  0.28027282182E+03  0.92794296348E+02 0.  0.
         24    2    1    2    0    0 -0.10053694952E+03 -0.23678318452E+03  0.20970285665E+03  0.34232278737E+03  0.83878769504E+02 0.  0.
        -11    1    4    4    0    0 -0.91311320153E+02 -0.24156156219E+03  0.19200514646E+03  0.32180074857E+03  0.00000000000E+00 0.  1.
         12    1    4    4    0    0 -0.92256293710E+01  0.47783776667E+01  0.17697710190E+02  0.20522038797E+02  0.00000000000E+00 0. -1.
        -13    1    3    3    0    0  0.81060136134E+02 -0.29425674055E+02  0.22908300688E+03  0.24477671458E+03  0.00000000000E+00 0.  1.
         13    1    3    3    0    0 -0.19880838394E+02  0.10402567971E+02  0.27504771823E+02  0.35496107233E+02  0.00000000000E+00 0. -1.
          1    1    1    2  501    0  0.39357651784E+02  0.25580629060E+03  0.51603233790E+03  0.57729997126E+03  0.00000000000E+00 0. -1.
<scales pt_clust_5="13000.00000" pt_clust_6="13000.00000" pt_clust_7="13000.00000" pt_clust_8="13000.00000" pt_clust_9="255.99082"></scales>
<clustering>
<clus scale="   83.879">  5  6 -1 -1</clus>
<clus scale="   92.794">  7  8 -1 -1</clus>
<clus scale="  112.763">  1  7  2 -1</clus>
<clus scale="  255.991">  2  9  1 -1</clus>
<clus scale="  255.991">  2  5  1 -1</clus>
</clustering>
</event>
<event>
 9    2  0.6190160E-005  0.1997523E+03  0.7546771E-02  0.1150335E+00
         -1   -1    0    0    0  501 -0.00000000000E+00  0.00000000000E+00  0.59632402865E+03  0.59632402865E+03  0.00000000000E+00 0.  1.
         21   -1    0    0  501  502  0.00000000000E+00 -0.00000000000E+00 -0.13721154156E+03  0.13721154156E+03  0.00000000000E+00 0.  1.
         24    2    1    2    0    0  0.11924080976E+03 -0.62283761830E+02  0.65215073044E+02  0.17062404370E+03  0.82230899528E+02 0.  0.
         23    2    1    2    0    0 -0.13231950248E+03  0.20365608642E+03  0.22431840240E+03  0.34174591536E+03  0.86529028292E+02 0.  0.
        -11    1    3    3    0    0  0.69077116682E+02 -0.28588279804E+02  0.78869358238E+02  0.10867066513E+03  0.00000000000E+00 0.  1.
         12    1    3    3    0    0  0.50163693079E+02 -0.33695482026E+02 -0.13654285194E+02  0.61953378572E+02  0.00000000000E+00 0. -1.
        -11    1    4    4    0    0 -0.10912120007E+03  0.19532289424E+03  0.16649876615E+03  0.27889121257E+03  0.00000000000E+00 0.  1.
         11    1    4    4    0    0 -0.23198302409E+02  0.83331921770E+01  0.57819636246E+02  0.62854702785E+02  0.00000000000E+00 0. -1.
         -2    1    1    2    0  502  0.13078692719E+02 -0.14137232459E+03  0.16957901165E+03  0.22116561115E+03  0.00000000000E+00 0.  1.
<scales pt_clust_5="13000.00000" pt_clust_6="13000.00000" pt_clust_7="13000.00000" pt_clust_8="13000.00000" pt_clust_9="141.97608"></scales>
<clustering>
<clus scale="   82.231">  5  6 -1 -1</clus>
<clus scale="   86.529">  7  8 -1 -1</clus>
<clus scale="  141.976">  2  9  1 -1</clus>
<clus scale="  197.928">  1  5  2 -1</clus>
<clus scale="  141.976">  2  5  1 -1</clus>
</clustering>
</event>
<event>
 9    2  0.6190160E-005  0.1119554E+03  0.7546771E-02  0.1260798E+00
         -1   -1    0    0    0  501 -0.00000000000E+00  0.00000000000E+00  0.83221097125E+03  0.83221097125E+03  0.00000000000E+00 0.  1.
         21   -1    0    0  501  502  0.00000000000E+00 -0.00000000000E+00 -0.20056936029E+02  0.20056936029E+02  0.00000000000E+00 0.  1.
         24    2    1    2    0    0 -0.51587105246E+02  0.31076383390E+02  0.41286860484E+03  0.42487717998E+03  0.80206995807E+02 0.  0.
         23    2    1    2    0    0  0.75097926680E+02 -0.17671880949E+02  0.36402310030E+03  0.38293995303E+03  0.90433379377E+02 0.  0.
        -13    1    3    3    0    0 -0.42534681369E+02  0.41764904302E+02  0.14682042906E+03  0.15846054632E+03  0.00000000000E+00 0.  1.
         14    1    3    3    0    0 -0.90524238765E+01 -0.10688520912E+02  0.26604817578E+03  0.26641663366E+03  0.00000000000E+00 0. -1.
        -11    1    4    4    0    0  0.17494545987E+02 -0.39906023514E+02  0.69615440060E+02  0.82127092647E+02  0.00000000000E+00 0. -1.
         11    1    4    4    0    0  0.57603380692E+02  0.22234142564E+02  0.29440766024E+03  0.30081286038E+03  0.00000000000E+00 0.  1.
         -2    1    1    2    0  502 -0.23510821434E+02 -0.13404502441E+02  0.35262330082E+02  0.44450774268E+02  0.00000000000E+00 0.  1.
<scales pt_clust_5="13000.00000" pt_clust_6="13000.00000" pt_clust_7="13000.00000" pt_clust_8="13000.00000" pt_clust_9="27.06362"></scales>
<clustering>
<clus scale="   27.064">  2  9  1 -1</clus>
<clus scale="   80.207">  5  6 -1 -1</clus>
<clus scale="   90.433">  7  8 -1 -1</clus>
<clus scale="  103.870">  1  5  2 -1</clus>
<clus scale="   27.064">  2  5  1 -1</clus>
</clustering>
</event>
<event>
 9    2  0.6190160E-005  0.5025616E+03  0.7546771E-02  0.1066673E+00
          2   -1    0    0  502    0 -0.00000000000E+00  0.00000000000E+00  0.34447259917E+04  0.34447259917E+04  0.00000000000E+00 0. -1.
         21   -1    0    0  501  502  0.00000000000E+00 -0.00000000000E+00 -0.10286684660E+03  0.10286684660E+03  0.00000000000E+00 0. -1.
         23    2    1    2    0    0  0.43926937442E+02  0.20979964935E+02  0.20930895048E+03  0.23445684763E+03  0.93755223254E+02 0.  0.
         24    2    1    2    0    0 -0.28074570705E+03 -0.44084687176E+03  0.22038084097E+04  0.22667456944E+04  0.90556170618E+02 0.  0.
        -13    1    4    4    0    0 -0.14637828955E+03 -0.26874271198E+03  0.11133143924E+04  0.11546073727E+04  0.00000000000E+00 0.  1.
         14    1    4    4    0    0 -0.13436741750E+03 -0.17210415979E+03  0.10904940173E+04  0.11121383217E+04  0.00000000000E+00 0. -1.
        -11    1    3    3    0    0  0.68215973011E+02  0.25822351783E+02  0.18846032433E+03  0.20208292029E+03  0.00000000000E+00 0. -1.
         11    1    3    3    0    0 -0.24289035568E+02 -0.48423868476E+01  0.20848626153E+02  0.32373927344E+02  0.00000000000E+00 0.  1.
          1    1    1    2  501    0  0.23681876961E+03  0.41986690683E+03  0.92874178492E+03  0.10463902963E+04  0.00000000000E+00 0. -1.
<scales pt_clust_5="13000.00000" pt_clust_6="13000.00000" pt_clust_7="13000.00000" pt_clust_8="13000.00000" pt_clust_9="494.33563"></scales>
<clustering>
<clus scale="   90.556">  5  6 -1 -1</clus>
<clus scale="   93.755">  7  8 -1 -1</clus>
<clus scale="  105.640">  1  7  2 -1</clus>
<clus scale="  494.336">  2  9  1 -1</clus>
<clus scale="  494.336">  2  5  1 -1</clus>
</clustering>
</event>
<event>
 9    2  0.6190160E-005  0.1882965E+03  0.7546771E-02  0.1176431E+00
         -3   -1    0    0    0  501 -0.00000000000E+00  0.00000000000E+00  0.59297826288E+02  0.59297826288E+02  0.00000000000E+00 0.  1.
         21   -1    0    0  501  502  0.00000000000E+00 -0.00000000000E+00 -0.12968759709E+04  0.12968759709E+04  0.00000000000E+00 0. -1.
         23    2    1    2    0    0 -0.89630584824E+02  0.33891258032E+02 -0.14418016185E+03  0.19357994861E+03  0.86619964945E+02 0.  0.
         24    2    1    2    0    0 -0.11235746303E+03  0.80394053592E+02 -0.52117409030E+03  0.54509851497E+03  0.80140846425E+02 0.  0.
        -11    1    4    4    0    0  0.44762292487E+01  0.33313990780E+02 -0.10066983539E+03  0.10613328586E+03  0.00000000000E+00 0.  1.
         12    1    4    4    0    0 -0.11683369228E+03  0.47080062811E+02 -0.42050425492E+03  0.43896522911E+03  0.00000000000E+00 0. -1.
        -11    1    3    3    0    0 -0.12590163525E+02  0.48200894854E+02 -0.44588579417E+02  0.66857908259E+02  0.00000000000E+00 0.  1.
         11    1    3    3    0    0 -0.77040421299E+02 -0.14309636823E+02 -0.99591582430E+02  0.12672204035E+03  0.00000000000E+00 0. -1.
         -4    1    1    2    0  502  0.20198804785E+03 -0.11428531162E+03 -0.57222389250E+03  0.61749533364E+03  0.00000000000E+00 0.  1.
<scales pt_clust_5="13000.00000" pt_clust_6="13000.00000" pt_clust_7="13000.00000" pt_clust_8="13000.00000" pt_clust_9="170.39088"></scales>
<clustering>
<clus scale="   80.141">  5  6 -1 -1</clus>
<clus scale="   86.620">  7  8 -1 -1</clus>
<clus scale="  129.172">  1  7  2 -1</clus>
<clus scale="  170.391">  2  9  1 -1</clus>
<clus scale="  170.391">  2  5  1 -1</clus>
</clustering>
</event>
<event>
 9    2  0.6190160E-005  0.2092686E+03  0.7546771E-02  0.1143149E+00
          2   -1    0    0  502    0 -0.00000000000E+00  0.00000000000E+00  0.11101531263E+04  0.11101531263E+04  0.00000000000E+00 0. -1.
         21   -1    0    0  501  502  0.00000000000E+00 -0.00000000000E+00 -0.16963142351E+03  0.16963142351E+03  0.00000000000E+00 0. -1.
         24    2    1    2    0    0  0.91050716816E+02  0.16673617243E+03  0.69763446100E+03  0.72757617351E+03  0.81129913421E+02 0.  0.
         23    2    1    2    0    0 -0.40414849601E+02 -0.18334873670E+03  0.36394731755E+03  0.41993778130E+03  0.92951443719E+02 0.  0.
        -13    1    3    3    0    0  0.14679679871E+02  0.10395742857E+03  0.41788592489E+03  0.43087270298E+03  0.00000000000E+00 0.  1.
         14    1    3    3    0    0  0.76371036944E+02  0.62778743856E+02  0.27974853611E+03  0.29670347053E+03  0.00000000000E+00 0. -1.
        -13    1    4    4    0    0  0.88191052127E+01 -0.97258016513E+02  0.10883097263E+03  0.14622270342E+03  0.00000000000E+00 0.  1.
         13    1    4    4    0    0 -0.49233954814E+02 -0.86090720188E+02  0.25511634492E+03  0.27371507787E+03  0.00000000000E+00 0. -1.
          1    1    1    2  501    0 -0.50635867214E+02  0.16612564274E+02 -0.12106007580E+03  0.13227059496E+03  0.00000000000E+00 0. -1.
<scales pt_clust_5="13000.00000" pt_clust_6="13000.00000" pt_clust_7="13000.00000" pt_clust_8="13000.00000" pt_clust_9="53.29135"></scales>
<clustering>
<clus scale="   53.291">  2  9  1 -1</clus>
<clus scale="   81.130">  5  6 -1 -1</clus>
<clus scale="   92.951">  7  8 -1 -1</clus>
<clus scale="  204.293">  1  5  2 -1</clus>
<clus scale="   53.291">  2  5  1 -1</clus>
</clustering>
</event>
<event>
 9    2  0.6190160E-005  0.1646781E+03  0.7546771E-02  0.1185204E+00
          2   -1    0    0  502    0 -0.00000000000E+00  0.00000000000E+00  0.20925239561E+03  0.20925239561E+03  0.00000000000E+00 0. -1.
         21   -1    0    0  501  502  0.00000000000E+00 -0.00000000000E+00 -0.19120021044E+03  0.19120021044E+03  0.00000000000E+00 0. -1.
         24    2    1    2    0    0 -0.80084083667E+02 -0.10733467755E+03  0.59665865937E+02  0.16627659958E+03  0.78445513260E+02 0.  0.
         23    2    1    2    0    0  0.10045262084E+03  0.10334217024E+03  0.18114156165E+02  0.17094443267E+03  0.90130700774E+02 0.  0.
        -11    1    3    3    0    0  0.50507759328E+01 -0.38874198653E+02 -0.46949874377E+01  0.39481091239E+02  0.00000000000E+00 0.  1.
         12    1    3    3    0    0 -0.85134859600E+02 -0.68460478895E+02  0.64360853375E+02  0.12679550835E+03  0.00000000000E+00 0. -1.
        -11    1    4    4    0    0  0.67914396057E+02  0.29177182876E+02  0.43874849446E+02  0.85957405768E+02  0.00000000000E+00 0. -1.
         11    1    4    4    0    0  0.32538224787E+02  0.74164987365E+02 -0.25760693281E+02  0.84987026900E+02  0.00000000000E+00 0.  1.
          1    1    1    2  501    0 -0.20368537177E+02  0.39925073059E+01 -0.59727836925E+02  0.63231573799E+02  0.00000000000E+00 0. -1.
<scales pt_clust_5="13000.00000" pt_clust_6="13000.00000" pt_clust_7="13000.00000" pt_clust_8="13000.00000" pt_clust_9="20.75614"></scales>
<clustering>
<clus scale="   20.756">  2  9  1 -1</clus>
<clus scale="   78.446">  5  6 -1 -1</clus>
<clus scale="   90.131">  7  8 -1 -1</clus>
<clus scale="  158.585">  1  5  2 -1</clus>
<clus scale="   20.756">  2  5  1 -1</clus>
</clustering>
</event>
<event>
 9    2  0.6190160E-005  0.1113559E+03  0.7546771E-02  0.1265947E+00
         21   -1    0    0  501  502  0.00000000000E+00  0.00000000000E+00  0.11920087897E+03  0.11920087897E+03  0.00000000000E+00 0.  1.
          2   -1    0    0  502    0 -0.00000000000E+00 -0.00000000000E+00 -0.27089922819E+03  0.27089922819E+03  0.00000000000E+00 0. -1.
         24    2    1    2    0    0 -0.29273611680E+02  0.42525141404E+02 -0.19191990813E+03  0.21387069541E+03  0.79006906212E+02 0.  0.
         23    2    1    2    0    0  0.32622560713E+00 -0.78484721550E+02  0.26118725392E+02  0.12796003763E+03  0.97630043914E+02 0.  0.
        -13    1    3    3    0    0 -0.56502020356E+02  0.33529071601E+02 -0.13301806479E+03  0.14835930206E+03  0.00000000000E+00 0.  1.
         14    1    3    3    0    0  0.27228408676E+02  0.89960698034E+01 -0.58901843336E+02  0.65511393355E+02  0.00000000000E+00 0. -1.
        -13    1    4    4    0    0  0.46322680861E+02 -0.58323141136E+02  0.21527681863E+02  0.77529482396E+02  0.00000000000E+00 0. -1.
         13    1    4    4    0    0 -0.45996455254E+02 -0.20161580414E+02  0.45910435290E+01  0.50430555236E+02  0.00000000000E+00 0.  1.
          1    1    1    2  501    0  0.28947386073E+02  0.35959580146E+02  0.14102833514E+02  0.48269374119E+02  0.00000000000E+00 0. -1.
<scales pt_clust_5="13000.00000" pt_clust_6="13000.00000" pt_clust_7="13000.00000" pt_clust_8="13000.00000" pt_clust_9="46.16322"></scales>
<clustering>
<clus scale="   46.163">  1  9  2 -1</clus>
<clus scale="   79.007">  5  6 -1 -1</clus>
<clus scale="   95.449">  2  5  1 -1</clus>
<clus scale="   97.630">  7  8 -1 -1</clus>
<clus scale="   46.163">  1  5  2 -1</clus>
</clustering>
</event>
<event>
 9    2  0.6190160E-005  0.1114860E+04  0.7546771E-02  0.9549532E-01
          2   -1    0    0  502    0 -0.00000000000E+00  0.00000000000E+00  0.30150291681E+04  0.30150291681E+04  0.00000000000E+00 0. -1.
         21   -1    0    0  501  502  0.00000000000E+00 -0.00000000000E+00 -0.57769202348E+03  0.57769202348E+03  0.00000000000E+00 0.  1.
         23    2    1    2    0    0  0.49475174774E+02 -0.28577370983E+03  0.50278419709E+02  0.31060712847E+03  0.99168859127E+02 0.  0.
         24    2    1    2    0    0  0.10870092730E+04  0.63504425400E+02  0.10781597912E+04  0.15344822502E+04  0.81149670807E+02 0.  0.
        -11    1    4    4    0    0  0.76693541860E+03  0.85843479638E+01  0.74585552908E+03  0.10698430247E+04  0.00000000000E+00 0.  1.
         12    1    4    4    0    0  0.32007385442E+03  0.54920077436E+02  0.33230426209E+03  0.46463922541E+03  0.00000000000E+00 0. -1.
        -11    1    3    3    0    0  0.54979295748E+02 -0.16117738990E+03 -0.12929598445E+02  0.17078655829E+03  0.00000000000E+00 0. -1.
         11    1    3    3    0    0 -0.55041209735E+01 -0.12459631993E+03  0.63208018154E+02  0.13982057018E+03  0.00000000000E+00 0.  1.
          1    1    1    2  501    0 -0.11364844478E+04  0.22226928443E+03  0.13088989337E+04  0.17476318130E+04  0.00000000000E+00 0. -1.
<scales pt_clust_5="13000.00000" pt_clust_6="13000.00000" pt_clust_7="13000.00000" pt_clust_8="13000.00000" pt_clust_9="1111.90370"></scales>
<clustering>
<clus scale="   81.150">  5  6 -1 -1</clus>
<clus scale="   99.169">  7  8 -1 -1</clus>
<clus scale="  306.511">  1  7  2 -1</clus>
<clus scale=" 1111.904">  2  9  1 -1</clus>
<clus scale=" 1111.904">  2  5  1 -1</clus>
</clustering>
</event>
<event>
 9    2  0.6190160E-005  0.9544490E+02  0.7546771E-02  0.1298273E+00
         21   -1    0    0  501  502  0.00000000000E+00  0.00000000000E+00  0.45008788864E+03  0.45008788864E+03  0.00000000000E+00 0. -1.
          2   -1    0    0  502    0 -0.00000000000E+00 -0.00000000000E+00 -0.10651264339E+03  0.10651264339E+03  0.00000000000E+00 0. -1.
         23    2    1    2    0    0  0.28804490731E+02  0.26276644026E+01 -0.56504645202E+02  0.11314400209E+03  0.93659953943E+02 0.  0.
         24    2    1    2    0    0  0.11629942764E+02  0.96600684764E+01  0.60983622461E+02  0.10173703862E+03  0.80017812560E+02 0.  0.
        -11    1    4    4    0    0 -0.25961541229E+02  0.24244410885E+02  0.10327798014E+02  0.36992654595E+02  0.00000000000E+00 0.  1.
         12    1    4    4    0    0  0.37591483993E+02 -0.14584342408E+02  0.50655824447E+02  0.64744384025E+02  0.00000000000E+00 0. -1.
        -13    1    3    3    0    0  0.28113898143E+02 -0.40069597857E+02 -0.49959932593E+02  0.69942539315E+02  0.00000000000E+00 0.  1.
         13    1    3    3    0    0  0.69059258747E+00  0.42697262259E+02 -0.65447126095E+01  0.43201462773E+02  0.00000000000E+00 0. -1.
          1    1    1    2  501    0 -0.40434433495E+02 -0.12287732879E+02  0.33909626798E+03  0.34171949132E+03  0.00000000000E+00 0. -1.
<scales pt_clust_5="13000.00000" pt_clust_6="13000.00000" pt_clust_7="13000.00000" pt_clust_8="13000.00000" pt_clust_9="42.26029"></scales>
<clustering>
<clus scale="   42.260">  1  9  2 -1</clus>
<clus scale="   80.018">  5  6 -1 -1</clus>
<clus scale="   82.100">  1  5  2 -1</clus>
<clus scale="   93.660">  7  8 -1 -1</clus>
<clus scale="   42.260">  1  5  2 -1</clus>
</clustering>
</event>
<event>
 9    2  0.6190160E-005  0.2335930E+03  0.7546771E-02  0.1124136E+00
         -3   -1    0    0    0  501 -0.00000000000E+00  0.00000000000E+00  0.67122537675E+02  0.67122537675E+02  0.00000000000E+00 0.  1.
         21   -1    0    0  501  502  0.00000000000E+00 -0.00000000000E+00 -0.77949139500E+03  0.77949139500E+03  0.00000000000E+00 0. -1.
         24    2    1    2    0    0  0.93364621462E+02  0.87575789376E+01 -0.10433434645E+03  0.16077826614E+03  0.78551558130E+02 0.  0.
         23    2    1    2    0    0  0.59283195558E+02  0.23741918550E+02 -0.84686467480E+02  0.13971228496E+03  0.90937059675E+02 0.  0.
        -11    1    3    3    0    0  0.77746414428E+02 -0.68859020320E+01 -0.30656027850E+02  0.83855307803E+02  0.00000000000E+00 0.  1.
         12    1    3    3    0    0  0.15618207033E+02  0.15643480970E+02 -0.73678318599E+02  0.76922958338E+02  0.00000000000E+00 0. -1.
        -13    1    4    4    0    0  0.11198829718E+02 -0.28091276808E+02 -0.55537303004E+02  0.63237059109E+02  0.00000000000E+00 0.  1.
         13    1    4    4    0    0  0.48084365840E+02  0.51833195358E+02 -0.29149164476E+02  0.76475225851E+02  0.00000000000E+00 0. -1.
         -4    1    1    2    0  502 -0.15264781702E+03 -0.32499497488E+02 -0.52334804340E+03  0.54612338158E+03  0.00000000000E+00 0.  1.
<scales pt_clust_5="13000.00000" pt_clust_6="13000.00000" pt_clust_7="13000.00000" pt_clust_8="13000.00000" pt_clust_9="156.06913"></scales>
<clustering>
<clus scale="   78.552">  5  6 -1 -1</clus>
<clus scale="   90.937">  7  8 -1 -1</clus>
<clus scale="   94.350">  5  7 -1 -1</clus>
<clus scale="  156.069">  2  9  1 -1</clus>
<clus scale="  156.069">  2  5  1 -1</clus>
</clustering>
</event>
<event>
 9    2  0.6190160E-005  0.8810386E+02  0.7546771E-02  0.1312414E+00
         -1   -1    0    0    0  501 -0.00000000000E+00  0.00000000000E+00  0.32889426060E+02  0.32889426060E+02  0.00000000000E+00 0.  1.
         21   -1    0    0  501  502  0.00000000000E+00 -0.00000000000E+00 -0.37159609836E+03  0.37159609836E+03  0.00000000000E+00 0. -1.
         23    2    1    2    0    0  0.15486863534E+02 -0.87232736131E+01 -0.59406788347E+02  0.10694947131E+03  0.87138306545E+02 0.  0.
         24    2    1    2    0    0  0.59065509767E+01  0.70291601118E+01 -0.23592259052E+03  0.24914041497E+03  0.79543580622E+02 0.  0.
        -11    1    4    4    0    0 -0.74527610134E+01 -0.34255014407E+02 -0.13075214729E+03  0.13537013585E+03  0.00000000000E+00 0.  1.
         12    1    4    4    0    0  0.13359311990E+02  0.41284174518E+02 -0.10517044323E+03  0.11377027912E+03  0.00000000000E+00 0. -1.
        -11    1    3    3    0    0 -0.80368169164E+01 -0.44914506505E+02 -0.27522746656E+02  0.53286066699E+02  0.00000000000E+00 0.  1.
         11    1    3    3    0    0  0.23523680450E+02  0.36191232892E+02 -0.31884041690E+02  0.53663404613E+02  0.00000000000E+00 0. -1.
         -2    1    1    2    0  502 -0.21393414511E+02  0.16941135013E+01 -0.43377293429E+02  0.48395638132E+02  0.00000000000E+00 0.  1.
<scales pt_clust_5="13000.00000" pt_clust_6="13000.00000" pt_clust_7="13000.00000" pt_clust_8="13000.00000" pt_clust_9="21.46039"></scales>
<clustering>
<clus scale="   21.460">  2  9  1 -1</clus>
<clus scale="   79.544">  5  6 -1 -1</clus>
<clus scale="   80.600">  2  5  1 -1</clus>
<clus scale="   87.138">  7  8 -1 -1</clus>
<clus scale="   21.460">  2  5  1 -1</clus>
</clustering>
</event>
<event>
 9    2  0.6190160E-005  0.1116353E+03  0.7546771E-02  0.1262276E+00
         21   -1    0    0  501  502  0.00000000000E+00  0.00000000000E+00  0.13029042871E+03  0.13029042871E+03  0.00000000000E+00 0.  1.
          2   -1    0    0  502    0 -0.00000000000E+00 -0.00000000000E+00 -0.17343332443E+03  0.17343332443E+03  0.00000000000E+00 0. -1.
         24    2    1    2    0    0 -0.51397792014E+02  0.29849061060E+01 -0.50535967124E+02  0.10708598466E+03  0.79138369001E+02 0.  0.
         23    2    1    2    0    0  0.99045780616E+02 -0.25614745847E+02  0.27900278653E+02  0.14004283926E+03  0.91473435578E+02 0.  0.
        -13    1    3    3    0    0  0.20678255449E+02 -0.34502493253E+01 -0.18458047276E+02  0.27931952636E+02  0.00000000000E+00 0.  1.
         14    1    3    3    0    0 -0.72076047463E+02  0.64351554313E+01 -0.32077919848E+02  0.79154032020E+02  0.00000000000E+00 0. -1.
        -13    1    4    4    0    0  0.11462889700E+03 -0.98598464412E+01  0.24347743989E+02  0.11760022635E+03  0.00000000000E+00 0.  1.
         13    1    4    4    0    0 -0.15583116388E+02 -0.15754899406E+02  0.35525346640E+01  0.22442612909E+02  0.00000000000E+00 0. -1.
          1    1    1    2  501    0 -0.47647988602E+02  0.22629839741E+02 -0.20507207250E+02  0.56594929222E+02  0.00000000000E+00 0. -1.
<scales pt_clust_5="13000.00000" pt_clust_6="13000.00000" pt_clust_7="13000.00000" pt_clust_8="13000.00000" pt_clust_9="52.74887"></scales>
<clustering>
<clus scale="   52.749">  1  9  2 -1</clus>
<clus scale="   79.138">  5  6 -1 -1</clus>
<clus scale="   91.473">  7  8 -1 -1</clus>
<clus scale="  101.774">  2  5  1 -1</clus>
<clus scale="   52.749">  1  5  2 -1</clus>
</clustering>
</event>
<event>
 9    2  0.6190160E-005  0.1627840E+03  0.7546771E-02  0.1204282E+00
         21   -1    0    0  501  502  0.00000000000E+00  0.00000000000E+00  0.22346724820E+03  0.22346724820E+03  0.00000000000E+00 0. -1.
          2   -1    0    0  502    0 -0.00000000000E+00 -0.00000000000E+00 -0.25551834992E+03  0.25551834992E+03  0.00000000000E+00 0. -1.
         23    2    1    2    0    0 -0.56756668175E+01 -0.56839346112E+02 -0.66880675728E+02  0.12710064988E+03  0.91753070546E+02 0.  0.
         24    2    1    2    0    0  0.13859045368E+03 -0.13866439938E+02  0.97258834197E+02  0.18890316620E+03  0.82616786224E+02 0.  0.
        -11    1    4    4    0    0  0.31965609978E+02 -0.28793752205E+02  0.62288330950E+02  0.75701496417E+02  0.00000000000E+00 0.  1.
         12    1    4    4    0    0  0.10662484370E+03  0.14927312267E+02  0.34970503247E+02  0.11320166979E+03  0.00000000000E+00 0. -1.
        -13    1    3    3    0    0  0.35232328571E+02  0.26958071085E+01 -0.16276644820E+02  0.38903901078E+02  0.00000000000E+00 0.  1.
         13    1    3    3    0    0 -0.40907995388E+02 -0.59535153221E+02 -0.50604030908E+02  0.88196748805E+02  0.00000000000E+00 0. -1.
          1    1    1    2  501    0 -0.13291478686E+03  0.70705786050E+02 -0.62429260190E+02  0.16298178203E+03  0.00000000000E+00 0. -1.
<scales pt_clust_5="13000.00000" pt_clust_6="13000.00000" pt_clust_7="13000.00000" pt_clust_8="13000.00000" pt_clust_9="140.26094"></scales>
<clustering>
<clus scale="   82.617">  5  6 -1 -1</clus>
<clus scale="   91.753">  7  8 -1 -1</clus>
<clus scale="  108.081">  2  7  1 -1</clus>
<clus scale="  140.261">  1  9  2 -1</clus>
<clus scale="  140.261">  1  5  2 -1</clus>
</clustering>
</event>
<event>
 9    2  0.6190160E-005  0.9255766E+02  0.7546771E-02  0.1303174E+00
         21   -1    0    0  501  502  0.00000000000E+00  0.00000000000E+00  0.32232261914E+02  0.32232261914E+02  0.00000000000E+00 0. -1.
          2   -1    0    0  502    0 -0.00000000000E+00 -0.00000000000E+00 -0.68541001138E+03  0.68541001138E+03  0.00000000000E+00 0. -1.
         23    2    1    2    0    0  0.22138575602E+02 -0.11953114335E+02 -0.35665660364E+03  0.36880999618E+03  0.90464837851E+02 0.  0.
         24    2    1    2    0    0  0.53828891856E+02  0.35722434854E+02 -0.18805599389E+03  0.21429333891E+03  0.79893280773E+02 0.  0.
        -13    1    4    4    0    0  0.29343897430E+02 -0.23380964017E+02 -0.54005351923E+02  0.65759499930E+02  0.00000000000E+00 0.  1.
         14    1    4    4    0    0  0.24484994426E+02  0.59103398871E+02 -0.13405064196E+03  0.14853383898E+03  0.00000000000E+00 0. -1.
        -11    1    3    3    0    0 -0.27505991031E+02 -0.19974929794E+02 -0.70493620965E+02  0.78261918962E+02  0.00000000000E+00 0. -1.
         11    1    3    3    0    0  0.49644566632E+02  0.80218154590E+01 -0.28616298267E+03  0.29054807721E+03  0.00000000000E+00 0.  1.
          1    1    1    2  501    0 -0.75967467458E+02 -0.23769320518E+02 -0.10846515194E+03  0.13453893821E+03  0.00000000000E+00 0. -1.
<scales pt_clust_5="13000.00000" pt_clust_6="13000.00000" pt_clust_7="13000.00000" pt_clust_8="13000.00000" pt_clust_9="79.59923"></scales>
<clustering>
<clus scale="   79.599">  1  9  2 -1</clus>
<clus scale="   79.893">  5  6 -1 -1</clus>
<clus scale="   82.256">  1  5  2 -1</clus>
<clus scale="   90.465">  7  8 -1 -1</clus>
<clus scale="   79.599">  1  5  2 -1</clus>
</clustering>
</event>
<event>
 9    2  0.6190160E-005  0.1226710E+03  0.7546771E-02  0.1243243E+00
          2   -1    0    0  502    0 -0.00000000000E+00  0.00000000000E+00  0.18827854681E+03  0.18827854681E+03  0.00000000000E+00 0. -1.
         21   -1    0    0  501  502  0.00000000000E+00 -0.00000000000E+00 -0.31331130477E+03  0.31331130477E+03  0.00000000000E+00 0. -1.
         23    2    1    2    0    0 -0.24654527719E+02  0.77780208333E+02  0.15236020184E+03  0.19669579649E+03  0.93904199625E+02 0.  0.
         24    2    1    2    0    0  0.11799938252E+02 -0.53962806043E+02 -0.18729263846E+03  0.21081654965E+03  0.79459815034E+02 0.  0.
        -11    1    4    4    0    0  0.38464594576E+02 -0.40004685209E+02 -0.16284329571E+03  0.17204022446E+03  0.00000000000E+00 0.  1.
         12    1    4    4    0    0 -0.26664656324E+02 -0.13958120834E+02 -0.24449342748E+02  0.38776325186E+02  0.00000000000E+00 0. -1.
        -13    1    3    3    0    0 -0.42420974881E+02  0.87164843152E+02  0.94228984486E+02  0.13519005329E+03  0.00000000000E+00 0.  1.
         13    1    3    3    0    0  0.17766447162E+02 -0.93846348193E+01  0.58131217358E+02  0.61505743203E+02  0.00000000000E+00 0. -1.
          1    1    1    2  501    0  0.12854589467E+02 -0.23817402290E+02 -0.90100321347E+02  0.94077505436E+02  0.00000000000E+00 0. -1.
<scales pt_clust_5="13000.00000" pt_clust_6="13000.00000" pt_clust_7="13000.00000" pt_clust_8="13000.00000" pt_clust_9="27.06491"></scales>
<clustering>
<clus scale="   27.065">  2  9  1 -1</clus>
<clus scale="   79.460">  5  6 -1 -1</clus>
<clus scale="   93.904">  7  8 -1 -1</clus>
<clus scale="  112.000">  2  5  1 -1</clus>
<clus scale="   27.065">  2  5  1 -1</clus>
</clustering>
</event>
<event>
 9    2  0.6190160E-005  0.1677219E+03  0.7546771E-02  0.1204638E+00
         -1   -1    0    0    0  501 -0.00000000000E+00  0.00000000000E+00  0.28727336737E+03  0.28727336737E+03  0.00000000000E+00 0.  1.
         21   -1    0    0  501  502  0.00000000000E+00 -0.00000000000E+00 -0.22998966885E+03  0.22998966885E+03  0.00000000000E+00 0.  1.
         23    2    1    2    0    0 -0.10371547525E+02 -0.35315104015E+02  0.65254252765E+02  0.11778525941E+03  0.90887426308E+02 0.  0.
         24    2    1    2    0    0  0.12467994526E+03  0.88075487280E+02 -0.13583964464E+03  0.22003259822E+03  0.81606096672E+02 0.  0.
        -13    1    4    4    0    0  0.12981973563E+03  0.67027915658E+02 -0.96418233647E+02  0.17504965300E+03  0.00000000000E+00 0.  1.
         14    1    4    4    0    0 -0.51397903633E+01  0.21047571622E+02 -0.39421410995E+02  0.44982945224E+02  0.00000000000E+00 0. -1.
        -13    1    3    3    0    0  0.27779382472E+02  0.17425358072E+02  0.25194678125E+02  0.41353464187E+02  0.00000000000E+00 0.  1.
         13    1    3    3    0    0 -0.38150929996E+02 -0.52740462087E+02  0.40059574641E+02  0.76431795224E+02  0.00000000000E+00 0. -1.
         -2    1    1    2    0  502 -0.11430839774E+03 -0.52760383265E+02  0.12786909041E+03  0.17944517858E+03  0.00000000000E+00 0.  1.
<scales pt_clust_5="13000.00000" pt_clust_6="13000.00000" pt_clust_7="13000.00000" pt_clust_8="13000.00000" pt_clust_9="146.53025"></scales>
<clustering>
<clus scale="   81.606">  5  6 -1 -1</clus>
<clus scale="   90.887">  7  8 -1 -1</clus>
<clus scale="   98.057">  1  7  2 -1</clus>
<clus scale="  146.530">  2  9  1 -1</clus>
<clus scale="  146.530">  2  5  1 -1</clus>
</clustering>
</event>
<event>
 9    2  0.6190160E-005  0.1082689E+03  0.7546771E-02  0.1264112E+00
         21   -1    0    0  501  502  0.00000000000E+00  0.00000000000E+00  0.29990424951E+02  0.29990424951E+02  0.00000000000E+00 0. -1.
         -1   -1    0    0    0  501 -0.00000000000E+00 -0.00000000000E+00 -0.84969409768E+03  0.84969409768E+03  0.00000000000E+00 0.  1.
         23    2    1    2    0    0 -0.50113608898E+02 -0.42427664214E+02 -0.28347074433E+03  0.30224862807E+03  0.81774628027E+02 0.  0.
         24    2    1    2    0    0  0.97536403259E+02 -0.26318174985E+02 -0.29481463356E+03  0.32198001792E+03  0.80928780294E+02 0.  0.
        -13    1    4    4    0    0  0.14424383711E+02 -0.26536761293E+02 -0.16568368525E+03  0.16841420992E+03  0.00000000000E+00 0.  1.
         14    1    4    4    0    0  0.83112019548E+02  0.21858630831E+00 -0.12913094831E+03  0.15356580800E+03  0.00000000000E+00 0. -1.
        -11    1    3    3    0    0  0.15969869194E+02 -0.22157040229E+02 -0.35306524100E+02  0.44637672405E+02  0.00000000000E+00 0.  1.
         11    1    3    3    0    0 -0.66083478092E+02 -0.20270623986E+02 -0.24816422023E+03  0.25761095566E+03  0.00000000000E+00 0. -1.
         -2    1    1    2    0  502 -0.47422794362E+02  0.68745839199E+02 -0.24141829483E+03  0.25545587664E+03  0.00000000000E+00 0.  1.
<scales pt_clust_5="13000.00000" pt_clust_6="13000.00000" pt_clust_7="13000.00000" pt_clust_8="13000.00000" pt_clust_9="83.51598"></scales>
<clustering>
<clus scale="   80.929">  5  6 -1 -1</clus>
<clus scale="   81.775">  7  8 -1 -1</clus>
<clus scale="   83.516">  1  9  2 -1</clus>
<clus scale="  107.631">  1  5  2 -1</clus>
<clus scale="   83.516">  1  5  2 -1</clus>
</clustering>
</event>
<event>
 9    2  0.6190160E-005  0.1290549E+03  0.7546771E-02  0.1232601E+00
          2   -1    0    0  502    0 -0.00000000000E+00  0.00000000000E+00  0.49007739528E+03  0.49007739528E+03  0.00000000000E+00 0. -1.
         21   -1    0    0  501  502  0.00000000000E+00 -0.00000000000E+00 -0.88694170232E+02  0.88694170232E+02  0.00000000000E+00 0.  1.
         24    2    1    2    0    0  0.41236419119E+01 -0.89561238993E+02  0.38008370464E+03  0.39874808973E+03  0.80611392361E+02 0.  0.
         23    2    1    2    0    0  0.24730148593E+02  0.81893755619E+02  0.51749853658E+02  0.13737896473E+03  0.94216586322E+02 0.  0.
        -11    1    3    3    0    0  0.42417455527E+02 -0.47540183383E+02  0.19969731856E+03  0.20961471468E+03  0.00000000000E+00 0.  1.
         12    1    3    3    0    0 -0.38293813615E+02 -0.42021055610E+02  0.18038638608E+03  0.18913337505E+03  0.00000000000E+00 0. -1.
        -13    1    4    4    0    0 -0.12909870774E+02  0.35063592790E+02 -0.21130635338E+02  0.42925797052E+02  0.00000000000E+00 0.  1.
         13    1    4    4    0    0  0.37640019367E+02  0.46830162829E+02  0.72880488995E+02  0.94453167680E+02  0.00000000000E+00 0. -1.
          1    1    1    2  501    0 -0.28853790505E+02  0.76674833734E+01 -0.30450333249E+02  0.42644511050E+02  0.00000000000E+00 0. -1.
<scales pt_clust_5="13000.00000" pt_clust_6="13000.00000" pt_clust_7="13000.00000" pt_clust_8="13000.00000" pt_clust_9="29.85518"></scales>
<clustering>
<clus scale="   29.855">  2  9  1 -1</clus>
<clus scale="   80.611">  5  6 -1 -1</clus>
<clus scale="   94.217">  7  8 -1 -1</clus>
<clus scale="  119.485">  1  5  2 -1</clus>
<clus scale="   29.855">  2  5  1 -1</clus>
</clustering>
</event>
<event>
 9    2  0.6190160E-005  0.1293461E+03  0.7546771E-02  0.1245096E+00
          2   -1    0    0  502    0 -0.00000000000E+00  0.00000000000E+00  0.72110949210E+03  0.72110949210E+03  0.00000000000E+00 0. -1.
         21   -1    0    0  501  502  0.00000000000E+00 -0.00000000000E+00 -0.40298596066E+02  0.40298596066E+02  0.00000000000E+00 0. -1.
         23    2    1    2    0    0 -0.60508440240E+00 -0.10138487805E+02  0.21209977308E+03  0.23120702368E+03  0.91472504061E+02 0.  0.
         24    2    1    2    0    0  0.71382652037E+02 -0.65631818029E+02  0.35382452713E+03  0.37544469716E+03  0.79774094019E+02 0.  0.
        -11    1    4    4    0    0  0.54179694494E+02 -0.11971252209E+02  0.90478647776E+02  0.10613734441E+03  0.00000000000E+00 0.  1.
         12    1    4    4    0    0  0.17202957543E+02 -0.53660565820E+02  0.26334587936E+03  0.26930735275E+03  0.00000000000E+00 0. -1.
        -11    1    3    3    0    0  0.41451956631E+02 -0.86829624720E+01  0.15233714819E+03  0.15811472185E+03  0.00000000000E+00 0. -1.
         11    1    3    3    0    0 -0.42057041033E+02 -0.14555253327E+01  0.59762624885E+02  0.73092301835E+02  0.00000000000E+00 0.  1.
          1    1    1    2  501    0 -0.70777567635E+02  0.75770305834E+02  0.11488659582E+03  0.15475636732E+03  0.00000000000E+00 0. -1.
<scales pt_clust_5="13000.00000" pt_clust_6="13000.00000" pt_clust_7="13000.00000" pt_clust_8="13000.00000" pt_clust_9="101.81607"></scales>
<clustering>
<clus scale="   79.774">  5  6 -1 -1</clus>
<clus scale="   91.473">  7  8 -1 -1</clus>
<clus scale="   92.035">  1  7  2 -1</clus>
<clus scale="  101.816">  2  9  1 -1</clus>
<clus scale="  101.816">  2  5  1 -1</clus>
</clustering>
</event>
<event>
 9    2  0.6698180E-005  0.1248410E+03  0.7546771E-02  0.1256516E+00
          4   -1    0    0  502    0 -0.00000000000E+00  0.00000000000E+00  0.62915809202E+02  0.62915809202E+02  0.00000000000E+00 0. -1.
         21   -1    0    0  501  502  0.00000000000E+00 -0.00000000000E+00 -0.63062451544E+03  0.63062451544E+03  0.00000000000E+00 0. -1.
         24    2    1    2    0    0  0.33706223832E+01 -0.10241393073E+02  0.50953268789E+01  0.81663884523E+02  0.80788492077E+02 0.  0.
         23    2    1    2    0    0  0.35606002729E+02 -0.70029153951E+02 -0.25520986231E+03  0.28198464671E+03  0.90616760752E+02 0.  0.
        -11    1    3    3    0    0 -0.36165124142E+02 -0.15724370010E+02 -0.67939910231E+01  0.40016625675E+02  0.00000000000E+00 0.  1.
         12    1    3    3    0    0  0.39535746525E+02  0.54829769371E+01  0.11889317902E+02  0.41647258848E+02  0.00000000000E+00 0. -1.
        -11    1    4    4    0    0  0.38749025733E+02 -0.90826430660E+02 -0.20481795940E+03  0.22737925146E+03  0.00000000000E+00 0. -1.
         11    1    4    4    0    0 -0.31430230040E+01  0.20797276708E+02 -0.50391902905E+02  0.54605395251E+02  0.00000000000E+00 0.  1.
          3    1    1    2  501    0 -0.38976625112E+02  0.80270547024E+02 -0.31759417081E+03  0.32989179341E+03  0.00000000000E+00 0. -1.
<scales pt_clust_5="13000.00000" pt_clust_6="13000.00000" pt_clust_7="13000.00000" pt_clust_8="13000.00000" pt_clust_9="85.87125"></scales>
<clustering>
<clus scale="   80.788">  5  6 -1 -1</clus>
<clus scale="   81.505">  1  5  2 -1</clus>
<clus scale="   85.871">  2  9  1 -1</clus>
<clus scale="   90.617">  7  8 -1 -1</clus>
<clus scale="   85.871">  2  5  1 -1</clus>
</clustering>
</event>
<event>
 9    2  0.6190160E-005  0.9584596E+02  0.7546771E-02  0.1296746E+00
         21   -1    0    0  501  502  0.00000000000E+00  0.00000000000E+00  0.93694039911E+02  0.93694039911E+02  0.00000000000E+00 0. -1.
         -1   -1    0    0    0  501 -0.00000000000E+00 -0.00000000000E+00 -0.15428289339E+03  0.15428289339E+03  0.00000000000E+00 0.  1.
         23    2    1    2    0    0  0.23850463940E+02 -0.21839178754E+01 -0.49778686068E+02  0.10680063080E+03  0.91404830421E+02 0.  0.
         24    2    1    2    0    0 -0.36999441564E+02 -0.24759907735E+02  0.25992921149E+02  0.93707021085E+02  0.78251914633E+02 0.  0.
        -13    1    4    4    0    0 -0.36909715662E+02 -0.46086189566E+02 -0.13137213648E+01  0.59059206249E+02  0.00000000000E+00 0.  1.
         14    1    4    4    0    0 -0.89725902420E-01  0.21326281832E+02  0.27306642514E+02  0.34647814836E+02  0.00000000000E+00 0. -1.
        -13    1    3    3    0    0  0.58824949941E+02  0.37745075249E+01 -0.33002189024E+02  0.67555652043E+02  0.00000000000E+00 0.  1.
         13    1    3    3    0    0 -0.34974486001E+02 -0.59584254002E+01 -0.16776497044E+02  0.39244978753E+02  0.00000000000E+00 0. -1.
         -2    1    1    2    0  502  0.13148977624E+02  0.26943825610E+02 -0.36803088560E+02  0.47469281421E+02  0.00000000000E+00 0.  1.
<scales pt_clust_5="13000.00000" pt_clust_6="13000.00000" pt_clust_7="13000.00000" pt_clust_8="13000.00000" pt_clust_9="29.98110"></scales>
<clustering>
<clus scale="   29.981">  1  9  2 -1</clus>
<clus scale="   78.252">  5  6 -1 -1</clus>
<clus scale="   83.396">  1  5  2 -1</clus>
<clus scale="   91.405">  7  8 -1 -1</clus>
<clus scale="   29.981">  1  5  2 -1</clus>
</clustering>
</event>
<event>
 9    2  0.6190160E-005  0.1527938E+03  0.7546771E-02  0.1198361E+00
         -1   -1    0    0    0  501 -0.00000000000E+00  0.00000000000E+00  0.30994780085E+03  0.30994780085E+03  0.00000000000E+00 0.  1.
         21   -1    0    0  501  502  0.00000000000E+00 -0.00000000000E+00 -0.13849112466E+03  0.13849112466E+03  0.00000000000E+00 0.  1.
         24    2    1    2    0    0  0.13022748456E+03  0.90866603430E+01  0.20485833679E+03  0.25664868732E+03  0.82824183798E+02 0.  0.
         23    2    1    2    0    0 -0.10519059390E+03  0.18445959761E+02  0.29188866793E+01  0.13978953417E+03  0.90151425321E+02 0.  0.
        -11    1    3    3    0    0  0.10488710296E+03 -0.26840170376E+02  0.12402256353E+03  0.16463078503E+03  0.00000000000E+00 0.  1.
         12    1    3    3    0    0  0.25340381600E+02  0.35926830719E+02  0.80835773257E+02  0.92017902297E+02  0.00000000000E+00 0. -1.
        -13    1    4    4    0    0 -0.23856135021E+02 -0.10464900355E+02 -0.36542391457E+02  0.44877340507E+02  0.00000000000E+00 0.  1.
         13    1    4    4    0    0 -0.81334458875E+02  0.28910860117E+02  0.39461278136E+02  0.94912193660E+02  0.00000000000E+00 0. -1.
         -2    1    1    2    0  502 -0.25036890666E+02 -0.27532620104E+02 -0.36320547276E+02  0.52000704019E+02  0.00000000000E+00 0.  1.
<scales pt_clust_5="13000.00000" pt_clust_6="13000.00000" pt_clust_7="13000.00000" pt_clust_8="13000.00000" pt_clust_9="37.21412"></scales>
<clustering>
<clus scale="   37.214">  2  9  1 -1</clus>
<clus scale="   82.824">  5  6 -1 -1</clus>
<clus scale="   90.151">  7  8 -1 -1</clus>
<clus scale="  148.588">  1  5  2 -1</clus>
<clus scale="   37.214">  2  5  1 -1</clus>
</clustering>
</event>
<event>
 9    2  0.6455649E-005  0.9855003E+02  0.7546771E-02  0.1292969E+00
          4   -1    0    0  502    0 -0.00000000000E+00  0.00000000000E+00  0.49448345544E+03  0.49448345544E+03  0.00000000000E+00 0. -1.
         21   -1    0    0  501  502  0.00000000000E+00 -0.00000000000E+00 -0.65913409225E+02  0.65913409225E+02  0.00000000000E+00 0.  1.
         24    2    1    2    0    0  0.95071006409E+00 -0.27354800530E+02  0.43363303662E+03  0.44146491147E+03  0.78131099098E+02 0.  0.
         23    2    1    2    0    0  0.93584980945E+01  0.67738585875E+01 -0.35454673990E+01  0.95863407076E+02  0.95098663662E+02 0.  0.
        -13    1    3    3    0    0 -0.35526139526E+02 -0.11312487493E+02  0.13041968357E+03  0.13564428785E+03  0.00000000000E+00 0.  1.
         14    1    3    3    0    0  0.36476849590E+02 -0.16042313037E+02  0.30321335305E+03  0.30582062362E+03  0.00000000000E+00 0. -1.
        -11    1    4    4    0    0 -0.31739095731E+02  0.19765025010E+02 -0.27627708404E+02  0.46489963251E+02  0.00000000000E+00 0.  1.
         11    1    4    4    0    0  0.41097593825E+02 -0.12991166423E+02  0.24082241005E+02  0.49373443824E+02  0.00000000000E+00 0. -1.
          3    1    1    2  501    0 -0.10309208159E+02  0.20580941942E+02 -0.15175230079E+01  0.23068546122E+02  0.00000000000E+00 0. -1.
<scales pt_clust_5="13000.00000" pt_clust_6="13000.00000" pt_clust_7="13000.00000" pt_clust_8="13000.00000" pt_clust_9="23.01858"></scales>
<clustering>
<clus scale="   23.019">  2  9  1 -1</clus>
<clus scale="   78.131">  5  6 -1 -1</clus>
<clus scale="   82.297">  1  5  2 -1</clus>
<clus scale="   95.099">  7  8 -1 -1</clus>
<clus scale="   23.019">  2  5  1 -1</clus>
</clustering>
</event>
<event>
 9    2  0.6190160E-005  0.3565281E+03  0.7546771E-02  0.1073228E+00
         21   -1    0    0  501  502  0.00000000000E+00  0.00000000000E+00  0.24029414597E+03  0.24029414597E+03  0.00000000000E+00 0. -1.
          2   -1    0    0  502    0 -0.00000000000E+00 -0.00000000000E+00 -0.11245869757E+04  0.11245869757E+04  0.00000000000E+00 0. -1.
         24    2    1    2    0    0 -0.23352924350E+03 -0.12278960748E+02 -0.43465996868E+03  0.50000657077E+03  0.79941240846E+02 0.  0.
         23    2    1    2    0    0  0.33081948002E+03  0.27829808968E+03 -0.19214699415E+03  0.48208147530E+03  0.92686171493E+02 0.  0.
        -13    1    3    3    0    0 -0.73869719084E+02 -0.38511194596E+02 -0.11853202797E+03  0.14487818732E+03  0.00000000000E+00 0.  1.
         14    1    3    3    0    0 -0.15965952442E+03  0.26232233848E+02 -0.31612794071E+03  0.35512838345E+03  0.00000000000E+00 0. -1.
        -13    1    4    4    0    0  0.28903191542E+03  0.19540310309E+03 -0.14314851188E+03  0.37711181005E+03  0.00000000000E+00 0. -1.
         13    1    4    4    0    0  0.41787564602E+02  0.82894986594E+02 -0.48998482275E+02  0.10496966525E+03  0.00000000000E+00 0.  1.
          1    1    1    2  501    0 -0.97290236518E+02 -0.26601912894E+03 -0.25748586691E+03  0.38279307562E+03  0.00000000000E+00 0. -1.
<scales pt_clust_5="13000.00000" pt_clust_6="13000.00000" pt_clust_7="13000.00000" pt_clust_8="13000.00000" pt_clust_9="344.26962"></scales>
<clustering>
<clus scale="   79.941">  5  6 -1 -1</clus>
<clus scale="   92.686">  7  8 -1 -1</clus>
<clus scale="  247.138">  2  5  1 -1</clus>
<clus scale="  344.270">  1  9  2 -1</clus>
<clus scale="  344.270">  1  5  2 -1</clus>
</clustering>
</event>
<event>
 9    2  0.6190160E-005  0.1082517E+03  0.7546771E-02  0.1267706E+00
         21   -1    0    0  501  502  0.00000000000E+00  0.00000000000E+00  0.18727504740E+03  0.18727504740E+03  0.00000000000E+00 0.  1.
         -1   -1    0    0    0  501 -0.00000000000E+00 -0.00000000000E+00 -0.37427484780E+03  0.37427484780E+03  0.00000000000E+00 0.  1.
         23    2    1    2    0    0  0.63240558234E+02 -0.42168302305E+01 -0.26084227102E+03  0.28260940669E+03  0.88386857259E+02 0.  0.
         24    2    1    2    0    0 -0.41224374827E+02  0.82226408965E+02  0.13209549810E+03  0.17912254465E+03  0.78581384377E+02 0.  0.
        -13    1    4    4    0    0 -0.64491758000E+02  0.55053053791E+02  0.99456293327E+02  0.13069651818E+03  0.00000000000E+00 0.  1.
         14    1    4    4    0    0  0.23267383173E+02  0.27173355174E+02  0.32639204775E+02  0.48426026468E+02  0.00000000000E+00 0. -1.
        -11    1    3    3    0    0  0.70935477782E+02 -0.26162129528E+02 -0.23911595383E+03  0.25078424672E+03  0.00000000000E+00 0.  1.
         11    1    3    3    0    0 -0.76949195482E+01  0.21945299298E+02 -0.21726317188E+02  0.31825159963E+02  0.00000000000E+00 0. -1.
         -2    1    1    2    0  502 -0.22016183407E+02 -0.78009578734E+02 -0.58253027487E+02  0.99817943865E+02  0.00000000000E+00 0.  1.
<scales pt_clust_5="13000.00000" pt_clust_6="13000.00000" pt_clust_7="13000.00000" pt_clust_8="13000.00000" pt_clust_9="81.05685"></scales>
<clustering>
<clus scale="   78.581">  5  6 -1 -1</clus>
<clus scale="   81.057">  1  9  2 -1</clus>
<clus scale="   88.387">  7  8 -1 -1</clus>
<clus scale="  100.405">  1  5  2 -1</clus>
<clus scale="   81.057">  1  5  2 -1</clus>
</clustering>
</event>
<event>
 9    2  0.6190160E-005  0.1293131E+03  0.7546771E-02  0.1231459E+00
         21   -1    0    0  501  502  0.00000000000E+00  0.00000000000E+00  0.11814837768E+03  0.11814837768E+03  0.00000000000E+00 0.  1.
         -1   -1    0    0    0  501 -0.00000000000E+00 -0.00000000000E+00 -0.36868277845E+03  0.36868277845E+03  0.00000000000E+00 0.  1.
         23    2    1    2    0    0  0.10840362689E+03  0.15798610164E+02 -0.26588070322E+03  0.30161392734E+03  0.90980604600E+02 0.  0.
         24    2    1    2    0    0 -0.53595489207E+02 -0.28512495539E+02 -0.38557756242E+02  0.10729917966E+03  0.79630236247E+02 0.  0.
        -13    1    4    4    0    0  0.20408405290E+02 -0.11125222116E+02 -0.15200226098E+02  0.27772656464E+02  0.00000000000E+00 0.  1.
         14    1    4    4    0    0 -0.74003894497E+02 -0.17387273424E+02 -0.23357530144E+02  0.79526523200E+02  0.00000000000E+00 0. -1.
        -11    1    3    3    0    0  0.33256147877E+02  0.49523904290E+02 -0.12266168991E+03  0.13639823547E+03  0.00000000000E+00 0. -1.
         11    1    3    3    0    0  0.75147479010E+02 -0.33725294126E+02 -0.14321901331E+03  0.16521569187E+03  0.00000000000E+00 0.  1.
         -2    1    1    2    0  502 -0.54808137680E+02  0.12713885375E+02  0.53904058692E+02  0.77918049134E+02  0.00000000000E+00 0.  1.
<scales pt_clust_5="13000.00000" pt_clust_6="13000.00000" pt_clust_7="13000.00000" pt_clust_8="13000.00000" pt_clust_9="56.26344"></scales>
<clustering>
<clus scale="   56.263">  1  9  2 -1</clus>
<clus scale="   79.630">  5  6 -1 -1</clus>
<clus scale="   90.981">  7  8 -1 -1</clus>
<clus scale="  121.595">  1  5  2 -1</clus>
<clus scale="   56.263">  1  5  2 -1</clus>
</clustering>
</event>
<event>
 9    2  0.6190160E-005  0.1147440E+03  0.7546771E-02  0.1254330E+00
         -3   -1    0    0    0  501 -0.00000000000E+00  0.00000000000E+00  0.78486193523E+03  0.78486193523E+03  0.00000000000E+00 0.  1.
         21   -1    0    0  501  502  0.00000000000E+00 -0.00000000000E+00 -0.69183929607E+02  0.69183929607E+02  0.00000000000E+00 0. -1.
         23    2    1    2    0    0  0.20762268251E+02 -0.60393014372E+02  0.48224275042E+03  0.49512719741E+03  0.92273957947E+02 0.  0.
         24    2    1    2    0    0  0.74080162957E+02  0.11534813964E+03  0.11025037599E+03  0.19402577184E+03  0.81840032183E+02 0.  0.
        -11    1    4    4    0    0 -0.20164852845E+01  0.69799965166E+02  0.60165991760E+02  0.92174008888E+02  0.00000000000E+00 0.  1.
         12    1    4    4    0    0  0.76096648242E+02  0.45548174474E+02  0.50084384234E+02  0.10185176295E+03  0.00000000000E+00 0. -1.
        -11    1    3    3    0    0  0.57377398728E+01 -0.77389248807E+02  0.44344791685E+03  0.45018670843E+03  0.00000000000E+00 0.  1.
         11    1    3    3    0    0  0.15024528378E+02  0.16996234435E+02  0.38794833569E+02  0.44940488978E+02  0.00000000000E+00 0. -1.
         -4    1    1    2    0  502 -0.94842431208E+02 -0.54955125268E+02  0.12318487921E+03  0.16489289559E+03  0.00000000000E+00 0.  1.
<scales pt_clust_5="13000.00000" pt_clust_6="13000.00000" pt_clust_7="13000.00000" pt_clust_8="13000.00000" pt_clust_9="109.61365"></scales>
<clustering>
<clus scale="   81.840">  5  6 -1 -1</clus>
<clus scale="   92.274">  7  8 -1 -1</clus>
<clus scale="  109.614">  2  9  1 -1</clus>
<clus scale="  109.614">  2  5  1 -1</clus>
<clus scale="  109.614">  2  5  1 -1</clus>
</clustering>
</event>
<event>
 9    2  0.6190160E-005  0.2699570E+03  0.7546771E-02  0.1102005E+00
          2   -1    0    0  502    0 -0.00000000000E+00  0.00000000000E+00  0.62706671090E+03  0.62706671090E+03  0.00000000000E+00 0. -1.
         21   -1    0    0  501  502  0.00000000000E+00 -0.00000000000E+00 -0.16867382798E+03  0.16867382798E+03  0.00000000000E+00 0. -1.
         23    2    1    2    0    0  0.19213333333E+03 -0.20795063502E+03  0.19752366553E+03  0.35719229081E+03  0.91717227311E+02 0.  0.
         24    2    1    2    0    0 -0.13414579753E+03  0.17961306289E+03  0.85629792297E+02  0.25180128448E+03  0.76259282595E+02 0.  0.
        -13    1    4    4    0    0 -0.59433755750E+02  0.24682203142E+02  0.30178107667E+02  0.71079537540E+02  0.00000000000E+00 0.  1.
         14    1    4    4    0    0 -0.74712041775E+02  0.15493085975E+03  0.55451684630E+02  0.18072174694E+03  0.00000000000E+00 0. -1.
        -11    1    3    3    0    0  0.59776779881E+02 -0.14850964757E+02  0.25427017942E+02  0.66635934814E+02  0.00000000000E+00 0.  1.
         11    1    3    3    0    0  0.13235655345E+03 -0.19309967027E+03  0.17209664758E+03  0.29055635599E+03  0.00000000000E+00 0. -1.
          1    1    1    2  501    0 -0.57987535807E+02  0.28337572133E+02  0.17523942509E+03  0.18674696359E+03  0.00000000000E+00 0. -1.
<scales pt_clust_5="13000.00000" pt_clust_6="13000.00000" pt_clust_7="13000.00000" pt_clust_8="13000.00000" pt_clust_9="64.54128"></scales>
<clustering>
<clus scale="   64.541">  2  9  1 -1</clus>
<clus scale="   76.259">  5  6 -1 -1</clus>
<clus scale="   91.717">  7  8 -1 -1</clus>
<clus scale="  265.104">  2  5  1 -1</clus>
<clus scale="   64.541">  2  5  1 -1</clus>
</clustering>
</event>
<event>
 9    2  0.6190160E-005  0.1006233E+03  0.7546771E-02  0.1284767E+00
         -1   -1    0    0    0  501 -0.00000000000E+00  0.00000000000E+00  0.55866044945E+03  0.55866044945E+03  0.00000000000E+00 0.  1.
         21   -1    0    0  501  502  0.00000000000E+00 -0.00000000000E+00 -0.43592597831E+02  0.43592597831E+02  0.00000000000E+00 0. -1.
         23    2    1    2    0    0 -0.23989649379E+02 -0.42091154549E+02  0.44894290260E+03  0.46077209210E+03  0.91727980975E+02 0.  0.
         24    2    1    2    0    0  0.11900216122E+02  0.15540383702E+02  0.74477119462E+02  0.11113533639E+03  0.80131785210E+02 0.  0.
        -11    1    4    4    0    0 -0.21238769611E+02  0.22299188185E+02  0.70685336362E+02  0.77102243190E+02  0.00000000000E+00 0.  1.
         12    1    4    4    0    0  0.33138985732E+02 -0.67588044832E+01  0.37917830993E+01  0.34033093196E+02  0.00000000000E+00 0. -1.
        -13    1    3    3    0    0 -0.13020928763E+02 -0.70687465709E+02  0.28019137782E+03  0.28926366968E+03  0.00000000000E+00 0.  1.
         13    1    3    3    0    0 -0.10968720615E+02  0.28596311159E+02  0.16875152478E+03  0.17150842242E+03  0.00000000000E+00 0. -1.
         -2    1    1    2    0  502  0.12089433257E+02  0.26550770847E+02 -0.83521704414E+01  0.30345618796E+02  0.00000000000E+00 0.  1.
<scales pt_clust_5="13000.00000" pt_clust_6="13000.00000" pt_clust_7="13000.00000" pt_clust_8="13000.00000" pt_clust_9="29.17358"></scales>
<clustering>
<clus scale="   29.174">  2  9  1 -1</clus>
<clus scale="   80.132">  5  6 -1 -1</clus>
<clus scale="   90.178">  2  5  1 -1</clus>
<clus scale="   91.728">  7  8 -1 -1</clus>
<clus scale="   29.174">  2  5  1 -1</clus>
</clustering>
</event>
<event>
 9    2  0.6190160E-005  0.2449760E+03  0.7546771E-02  0.1116522E+00
         21   -1    0    0  501  502  0.00000000000E+00  0.00000000000E+00  0.44437336794E+02  0.44437336794E+02  0.00000000000E+00 0. -1.
          2   -1    0    0  502    0 -0.00000000000E+00 -0.00000000000E+00 -0.11364537139E+04  0.11364537139E+04  0.00000000000E+00 0. -1.
         24    2    1    2    0    0 -0.41786550719E+02  0.71199531006E+02 -0.44719432512E+03  0.46186864208E+03  0.80773690514E+02 0.  0.
         23    2    1    2    0    0 -0.87779288400E+02  0.29685317227E+02 -0.42842546367E+03  0.44737458016E+03  0.89494220594E+02 0.  0.
        -11    1    3    3    0    0  0.27990159578E+01  0.65326330098E+02 -0.19429912736E+03  0.20500613354E+03  0.00000000000E+00 0.  1.
         12    1    3    3    0    0 -0.44585566677E+02  0.58732009082E+01 -0.25289519776E+03  0.25686250854E+03  0.00000000000E+00 0. -1.
        -11    1    4    4    0    0  0.27158733054E+01 -0.22744352388E+02 -0.10460762826E+03  0.10708612153E+03  0.00000000000E+00 0.  1.
         11    1    4    4    0    0 -0.90495161706E+02  0.52429669615E+02 -0.32381783541E+03  0.34028845863E+03  0.00000000000E+00 0. -1.
          1    1    1    2  501    0  0.12956583912E+03 -0.10088484823E+03 -0.21639658830E+03  0.27164782844E+03  0.00000000000E+00 0. -1.
<scales pt_clust_5="13000.00000" pt_clust_6="13000.00000" pt_clust_7="13000.00000" pt_clust_8="13000.00000" pt_clust_9="164.21041"></scales>
<clustering>
<clus scale="   80.774">  5  6 -1 -1</clus>
<clus scale="   89.494">  7  8 -1 -1</clus>
<clus scale="  107.708">  5  7 -1 -1</clus>
<clus scale="  164.210">  1  9  2 -1</clus>
<clus scale="  164.210">  1  5  2 -1</clus>
</clustering>
</event>
<event>
 9    2  0.6190160E-005  0.1328043E+03  0.7546771E-02  0.1226092E+00
         -1   -1    0    0    0  501 -0.00000000000E+00  0.00000000000E+00  0.26844253782E+03  0.26844253782E+03  0.00000000000E+00 0.  1.
         21   -1    0    0  501  502  0.00000000000E+00 -0.00000000000E+00 -0.13650061145E+03  0.13650061145E+03  0.00000000000E+00 0.  1.
         23    2    1    2    0    0  0.83325539621E+02 -0.77649400744E+02  0.14040797198E+03  0.20282740449E+03  0.91934663907E+02 0.  0.
         24    2    1    2    0    0 -0.76058836819E+02 -0.82893726996E+01 -0.25383967377E+02  0.11422664519E+03  0.80930342352E+02 0.  0.
        -11    1    4    4    0    0 -0.82700590782E+02  0.11261701903E+02 -0.36131185889E+02  0.90948756117E+02  0.00000000000E+00 0.  1.
         12    1    4    4    0    0  0.66417539639E+01 -0.19551074603E+02  0.10747218512E+02  0.23277889071E+02  0.00000000000E+00 0. -1.
        -13    1    3    3    0    0  0.65438133041E+02 -0.86214982568E+01  0.32715429159E+02  0.73666673558E+02  0.00000000000E+00 0. -1.
         13    1    3    3    0    0  0.17887406581E+02 -0.69027902487E+02  0.10769254282E+03  0.12916073093E+03  0.00000000000E+00 0.  1.
         -2    1    1    2    0  502 -0.72667028029E+01  0.85938773444E+02  0.16917921770E+02  0.87889099595E+02  0.00000000000E+00 0.  1.
<scales pt_clust_5="13000.00000" pt_clust_6="13000.00000" pt_clust_7="13000.00000" pt_clust_8="13000.00000" pt_clust_9="86.24545"></scales>
<clustering>
<clus scale="   80.930">  5  6 -1 -1</clus>
<clus scale="   86.245">  2  9  1 -1</clus>
<clus scale="   91.935">  7  8 -1 -1</clus>
<clus scale="  125.438">  2  5  1 -1</clus>
<clus scale="   86.245">  2  5  1 -1</clus>
</clustering>
</event>
<event>
 9    2  0.6190160E-005  0.9774988E+02  0.7546771E-02  0.1293389E+00
         21   -1    0    0  501  502  0.00000000000E+00  0.00000000000E+00  0.11464912852E+03  0.11464912852E+03  0.00000000000E+00 0.  1.
          4   -1    0    0  502    0 -0.00000000000E+00 -0.00000000000E+00 -0.99138557966E+02  0.99138557966E+02  0.00000000000E+00 0. -1.
         24    2    1    2    0    0  0.34666438034E+02 -0.63699485011E+01 -0.75690913622E+01  0.84936868529E+02  0.76906711811E+02 0.  0.
         23    2    1    2    0    0 -0.29860047763E+02 -0.15794122681E+02  0.33902962753E+02  0.10372132772E+03  0.92019705371E+02 0.  0.
        -11    1    3    3    0    0  0.37293350438E+02  0.23283998610E+02 -0.24862662259E+02  0.50508321618E+02  0.00000000000E+00 0.  1.
         12    1    3    3    0    0 -0.26269124035E+01 -0.29653947111E+02  0.17293570896E+02  0.34428546911E+02  0.00000000000E+00 0. -1.
        -11    1    4    4    0    0 -0.89641961400E+01 -0.33003365725E+02 -0.22652652843E+02  0.41020990266E+02  0.00000000000E+00 0. -1.
         11    1    4    4    0    0 -0.20895851623E+02  0.17209243044E+02  0.56555615596E+02  0.62700337452E+02  0.00000000000E+00 0.  1.
          3    1    1    2  501    0 -0.48063902712E+01  0.22164071182E+02 -0.10823300835E+02  0.25129490241E+02  0.00000000000E+00 0. -1.
<scales pt_clust_5="13000.00000" pt_clust_6="13000.00000" pt_clust_7="13000.00000" pt_clust_8="13000.00000" pt_clust_9="22.67924"></scales>
<clustering>
<clus scale="   22.679">  1  9  2 -1</clus>
<clus scale="   76.907">  5  6 -1 -1</clus>
<clus scale="   83.678">  2  5  1 -1</clus>
<clus scale="   92.020">  7  8 -1 -1</clus>
<clus scale="   22.679">  1  5  2 -1</clus>
</clustering>
</event>
<event>
 9    2  0.6190160E-005  0.1016950E+03  0.7546771E-02  0.1282950E+00
         21   -1    0    0  501  502  0.00000000000E+00  0.00000000000E+00  0.12612099033E+03  0.12612099033E+03  0.00000000000E+00 0. -1.
          4   -1    0    0  502    0 -0.00000000000E+00 -0.00000000000E+00 -0.12983953229E+03  0.12983953229E+03  0.00000000000E+00 0. -1.
         23    2    1    2    0    0 -0.44348777206E+02  0.73757734395E+00 -0.66310347043E+02  0.12137749492E+03  0.91477188889E+02 0.  0.
         24    2    1    2    0    0  0.42249315230E+02 -0.26497631813E+02  0.51141492305E+02  0.10631470957E+03  0.78741578009E+02 0.  0.
        -11    1    4    4    0    0 -0.68126689959E+00  0.24162873038E+02  0.25487701323E+02  0.35127360799E+02  0.00000000000E+00 0.  1.
         12    1    4    4    0    0  0.42930582129E+02 -0.50660504851E+02  0.25653790983E+02  0.71187348774E+02  0.00000000000E+00 0. -1.
        -11    1    3    3    0    0 -0.41299110020E+02  0.28095879775E+02 -0.40215802422E+00  0.49951543318E+02  0.00000000000E+00 0.  1.
         11    1    3    3    0    0 -0.30496671864E+01 -0.27358302431E+02 -0.65908189019E+02  0.71425951598E+02  0.00000000000E+00 0. -1.
          3    1    1    2  501    0  0.20994619767E+01  0.25760054469E+02  0.11450312776E+02  0.28268318123E+02  0.00000000000E+00 0. -1.
<scales pt_clust_5="13000.00000" pt_clust_6="13000.00000" pt_clust_7="13000.00000" pt_clust_8="13000.00000" pt_clust_9="25.84547"></scales>
<clustering>
<clus scale="   25.845">  1  9  2 -1</clus>
<clus scale="   78.742">  5  6 -1 -1</clus>
<clus scale="   90.410">  1  5  2 -1</clus>
<clus scale="   91.477">  7  8 -1 -1</clus>
<clus scale="   25.845">  1  5  2 -1</clus>
</clustering>
</event>
<event>
 9    2  0.6190160E-005  0.9363228E+02  0.7546771E-02  0.1301987E+00
         21   -1    0    0  501  502  0.00000000000E+00  0.00000000000E+00  0.31107954274E+02  0.31107954274E+02  0.00000000000E+00 0. -1.
          4   -1    0    0  502    0 -0.00000000000E+00 -0.00000000000E+00 -0.35063721223E+03  0.35063721223E+03  0.00000000000E+00 0. -1.
         24    2    1    2    0    0  0.12937017799E+01 -0.44091485439E+01 -0.15774778106E+03  0.17710700340E+03  0.80382920887E+02 0.  0.
         23    2    1    2    0    0  0.15022785781E+02  0.22995835911E+02 -0.10595750238E+03  0.14358074058E+03  0.92919019548E+02 0.  0.
        -13    1    3    3    0    0 -0.32733652553E+01  0.36542356158E+02 -0.96964730866E+02  0.10367361162E+03  0.00000000000E+00 0.  1.
         14    1    3    3    0    0  0.45670670352E+01 -0.40951504702E+02 -0.60783050194E+02  0.73433391788E+02  0.00000000000E+00 0. -1.
        -11    1    4    4    0    0  0.36206430876E+02  0.47696200661E+02 -0.46556119023E+02  0.75850546555E+02  0.00000000000E+00 0. -1.
         11    1    4    4    0    0 -0.21183645095E+02 -0.24700364750E+02 -0.59401383357E+02  0.67730194028E+02  0.00000000000E+00 0.  1.
          3    1    1    2  501    0 -0.16316487561E+02 -0.18586687367E+02 -0.55823974519E+02  0.61057422520E+02  0.00000000000E+00 0. -1.
<scales pt_clust_5="13000.00000" pt_clust_6="13000.00000" pt_clust_7="13000.00000" pt_clust_8="13000.00000" pt_clust_9="24.73243"></scales>
<clustering>
<clus scale="   24.732">  1  9  2 -1</clus>
<clus scale="   80.383">  5  6 -1 -1</clus>
<clus scale="   81.206">  2  5  1 -1</clus>
<clus scale="   92.919">  7  8 -1 -1</clus>
<clus scale="   24.732">  1  5  2 -1</clus>
</clustering>
</event>
<event>
 9    2  0.6190160E-005  0.1209600E+03  0.7546771E-02  0.1244680E+00
          2   -1    0    0  502    0 -0.00000000000E+00  0.00000000000E+00  0.32566178780E+03  0.32566178780E+03  0.00000000000E+00 0. -1.
         21   -1    0    0  501  502  0.00000000000E+00 -0.00000000000E+00 -0.12635535137E+03  0.12635535137E+03  0.00000000000E+00 0. -1.
         23    2    1    2    0    0 -0.74244525806E+02 -0.19761082389E+02  0.20230688745E+03  0.23419456393E+03  0.89533608624E+02 0.  0.
         24    2    1    2    0    0  0.79686764722E+02  0.50955246078E+02  0.67461072660E+02  0.14057284946E+03  0.79141089873E+02 0.  0.
        -11    1    4    4    0    0  0.60932650798E+02  0.59620102057E+02  0.18220613057E+02  0.87174166143E+02  0.00000000000E+00 0.  1.
         12    1    4    4    0    0  0.18754113925E+02 -0.86648559787E+01  0.49240459603E+02  0.53398683318E+02  0.00000000000E+00 0. -1.
        -11    1    3    3    0    0 -0.32021594402E+02  0.20055380072E+02  0.15435368708E+03  0.15891086021E+03  0.00000000000E+00 0.  1.
         11    1    3    3    0    0 -0.42222931404E+02 -0.39816462461E+02  0.47953200372E+02  0.75283703717E+02  0.00000000000E+00 0. -1.
          1    1    1    2  501    0 -0.54422389160E+01 -0.31194163689E+02 -0.70461523689E+02  0.77249725781E+02  0.00000000000E+00 0. -1.
<scales pt_clust_5="13000.00000" pt_clust_6="13000.00000" pt_clust_7="13000.00000" pt_clust_8="13000.00000" pt_clust_9="31.66534"></scales>
<clustering>
<clus scale="   31.665">  2  9  1 -1</clus>
<clus scale="   79.141">  5  6 -1 -1</clus>
<clus scale="   89.534">  7  8 -1 -1</clus>
<clus scale="  113.483">  2  5  1 -1</clus>
<clus scale="   31.665">  2  5  1 -1</clus>
</clustering>
</event>
<event>
 9    2  0.6190160E-005  0.2106095E+03  0.7546771E-02  0.1168473E+00
          2   -1    0    0  502    0 -0.00000000000E+00  0.00000000000E+00  0.34714124962E+03  0.34714124962E+03  0.00000000000E+00 0. -1.
         21   -1    0    0  501  502  0.00000000000E+00 -0.00000000000E+00 -0.13848001019E+04  0.13848001019E+04  0.00000000000E+00 0.  1.
         23    2    1    2    0    0  0.38539443875E+02 -0.23695388019E+02  0.30694393808E+03  0.32628114897E+03  0.10098537965E+03 0.  0.
         24    2    1    2    0    0  0.14954789169E+03  0.11199133959E+03 -0.66484967941E+03  0.69485972934E+03  0.76800489590E+02 0.  0.
        -11    1    4    4    0    0  0.10614743021E+03  0.11587768723E+03 -0.48581880648E+03  0.51060241682E+03  0.00000000000E+00 0.  1.
         12    1    4    4    0    0  0.43400461485E+02 -0.38863476412E+01 -0.17903087293E+03  0.18425731252E+03  0.00000000000E+00 0. -1.
        -11    1    3    3    0    0  0.47970361267E+02  0.81452974493E+01  0.27801159981E+03  0.28223740195E+03  0.00000000000E+00 0. -1.
         11    1    3    3    0    0 -0.94309173920E+01 -0.31840685468E+02  0.28932338270E+02  0.44043747021E+02  0.00000000000E+00 0.  1.
          1    1    1    2  501    0 -0.18808733557E+03 -0.88295951574E+02 -0.67975311099E+03  0.71080047324E+03  0.00000000000E+00 0. -1.
<scales pt_clust_5="13000.00000" pt_clust_6="13000.00000" pt_clust_7="13000.00000" pt_clust_8="13000.00000" pt_clust_9="196.10738"></scales>
<clustering>
<clus scale="   76.800">  5  6 -1 -1</clus>
<clus scale="  100.985">  7  8 -1 -1</clus>
<clus scale="  110.656">  1  7  2 -1</clus>
<clus scale="  196.107">  2  9  1 -1</clus>
<clus scale="  196.107">  2  5  1 -1</clus>
</clustering>
</event>
<event>
 9    2  0.6190160E-005  0.1304328E+03  0.7546771E-02  0.1230374E+00
          2   -1    0    0  502    0 -0.00000000000E+00  0.00000000000E+00  0.80848067087E+03  0.80848067087E+03  0.00000000000E+00 0. -1.
         21   -1    0    0  501  502  0.00000000000E+00 -0.00000000000E+00 -0.27645558562E+02  0.27645558562E+02  0.00000000000E+00 0. -1.
         24    2    1    2    0    0  0.30838507894E+02 -0.10669606886E+03  0.40064141668E+03  0.42273917013E+03  0.76549307817E+02 0.  0.
         23    2    1    2    0    0 -0.21788067258E+02  0.68512155691E+02  0.22065833885E+03  0.24909630556E+03  0.90499898277E+02 0.  0.
        -13    1    3    3    0    0  0.28041429413E+02 -0.48266973348E+02  0.30912757820E+03  0.31412717501E+03  0.00000000000E+00 0.  1.
         14    1    3    3    0    0  0.27970784808E+01 -0.58429095511E+02  0.91513838483E+02  0.10861199512E+03  0.00000000000E+00 0. -1.
        -11    1    4    4    0    0 -0.32302924122E+02  0.11382175377E+02  0.18850556808E+02  0.39094453764E+02  0.00000000000E+00 0.  1.
         11    1    4    4    0    0  0.10514856864E+02  0.57129980314E+02  0.20180778204E+03  0.21000185180E+03  0.00000000000E+00 0. -1.
          1    1    1    2  501    0 -0.90504406363E+01  0.38183913169E+02  0.15953535678E+03  0.16429075374E+03  0.00000000000E+00 0. -1.
<scales pt_clust_5="13000.00000" pt_clust_6="13000.00000" pt_clust_7="13000.00000" pt_clust_8="13000.00000" pt_clust_9="39.24186"></scales>
<clustering>
<clus scale="   39.242">  2  9  1 -1</clus>
<clus scale="   76.549">  5  6 -1 -1</clus>
<clus scale="   90.500">  7  8 -1 -1</clus>
<clus scale="  121.170">  1  5  2 -1</clus>
<clus scale="   39.242">  2  5  1 -1</clus>
</clustering>
</event>
<event>
 9    2  0.6190160E-005  0.9307380E+02  0.7546771E-02  0.1301711E+00
         21   -1    0    0  501  502  0.00000000000E+00  0.00000000000E+00  0.11097899417E+03  0.11097899417E+03  0.00000000000E+00 0. -1.
          2   -1    0    0  502    0 -0.00000000000E+00 -0.00000000000E+00 -0.28145528348E+03  0.28145528348E+03  0.00000000000E+00 0. -1.
         24    2    1    2    0    0  0.53568889853E+01 -0.80561401402E+01 -0.15984489975E+03  0.18036890713E+03  0.82999717031E+02 0.  0.
         23    2    1    2    0    0  0.30697966851E+02 -0.35485805806E+02  0.61085621113E+02  0.12074624161E+03  0.92987064551E+02 0.  0.
        -11    1    3    3    0    0 -0.34646651038E+02 -0.14341777538E+02 -0.10960045798E+03  0.11583754745E+03  0.00000000000E+00 0.  1.
         12    1    3    3    0    0  0.40003540023E+02  0.62856373978E+01 -0.50244441774E+02  0.64531359672E+02  0.00000000000E+00 0. -1.
        -11    1    4    4    0    0  0.59505467501E+01 -0.25412528317E+02 -0.21582448348E+02  0.33867501809E+02  0.00000000000E+00 0.  1.
         11    1    4    4    0    0  0.24747420101E+02 -0.10073277489E+02  0.82668069461E+02  0.86878739801E+02  0.00000000000E+00 0. -1.
          1    1    1    2  501    0 -0.36054855836E+02  0.43541945946E+02 -0.71717010668E+02  0.91319128913E+02  0.00000000000E+00 0. -1.
<scales pt_clust_5="13000.00000" pt_clust_6="13000.00000" pt_clust_7="13000.00000" pt_clust_8="13000.00000" pt_clust_9="56.53191"></scales>
<clustering>
<clus scale="   56.532">  1  9  2 -1</clus>
<clus scale="   83.000">  5  6 -1 -1</clus>
<clus scale="   83.097">  2  5  1 -1</clus>
<clus scale="   92.987">  7  8 -1 -1</clus>
<clus scale="   56.532">  1  5  2 -1</clus>
</clustering>
</event>
<event>
 9    2  0.6190160E-005  0.1172221E+03  0.7546771E-02  0.1248795E+00
         21   -1    0    0  501  502  0.00000000000E+00  0.00000000000E+00  0.15074968426E+03  0.15074968426E+03  0.00000000000E+00 0. -1.
         -1   -1    0    0    0  501 -0.00000000000E+00 -0.00000000000E+00 -0.38407811160E+03  0.38407811160E+03  0.00000000000E+00 0.  1.
         23    2    1    2    0    0  0.71528601116E+02  0.18366927528E+02 -0.18352498917E+03  0.21473358647E+03  0.83518900288E+02 0.  0.
         24    2    1    2    0    0 -0.12157970294E+03 -0.97792287048E+02  0.50704382479E+02  0.18256122229E+03  0.80079397532E+02 0.  0.
        -11    1    4    4    0    0 -0.82096358638E+02 -0.25935697958E+02 -0.12152863186E+00  0.86095803030E+02  0.00000000000E+00 0.  1.
         12    1    4    4    0    0 -0.39483344299E+02 -0.71856589090E+02  0.50825911111E+02  0.96465419260E+02  0.00000000000E+00 0. -1.
        -11    1    3    3    0    0  0.42395262321E+02 -0.31972918142E+02 -0.94390863832E+02  0.10830171253E+03  0.00000000000E+00 0.  1.
         11    1    3    3    0    0  0.29133338795E+02  0.50339845670E+02 -0.89134125335E+02  0.10643187394E+03  0.00000000000E+00 0. -1.
         -2    1    1    2    0  502  0.50051101821E+02  0.79425359520E+02 -0.10050782065E+03  0.13753298710E+03  0.00000000000E+00 0.  1.
<scales pt_clust_5="13000.00000" pt_clust_6="13000.00000" pt_clust_7="13000.00000" pt_clust_8="13000.00000" pt_clust_9="93.88029"></scales>
<clustering>
<clus scale="   80.079">  5  6 -1 -1</clus>
<clus scale="   83.519">  7  8 -1 -1</clus>
<clus scale="   93.880">  1  9  2 -1</clus>
<clus scale="  114.797">  1  5  2 -1</clus>
<clus scale="   93.880">  1  5  2 -1</clus>
</clustering>
</event>
<event>
 9    2  0.6190160E-005  0.1256681E+03  0.7546771E-02  0.1238522E+00
         21   -1    0    0  501  502  0.00000000000E+00  0.00000000000E+00  0.82787925912E+02  0.82787925912E+02  0.00000000000E+00 0. -1.
          2   -1    0    0  502    0 -0.00000000000E+00 -0.00000000000E+00 -0.80901707316E+03  0.80901707316E+03  0.00000000000E+00 0. -1.
         23    2    1    2    0    0 -0.31503989634E+01  0.69452242756E+02 -0.29946962312E+03  0.32066401988E+03  0.91158211021E+02 0.  0.
         24    2    1    2    0    0  0.42111612112E+02  0.77994555570E+02 -0.23038511793E+01  0.12011863743E+03  0.81034811999E+02 0.  0.
        -11    1    4    4    0    0  0.30804889952E+02  0.73189208177E+02 -0.33806948398E+02  0.86304757682E+02  0.00000000000E+00 0.  1.
         12    1    4    4    0    0  0.11306722160E+02  0.48053473922E+01  0.31503097218E+02  0.33813879752E+02  0.00000000000E+00 0. -1.
        -11    1    3    3    0    0  0.21789396921E+02  0.79890850476E+02 -0.25963513643E+03  0.27252106318E+03  0.00000000000E+00 0. -1.
         11    1    3    3    0    0 -0.24939795885E+02 -0.10438607720E+02 -0.39834486689E+02  0.48142956699E+02  0.00000000000E+00 0.  1.
          1    1    1    2  501    0 -0.38961213149E+02 -0.14744679833E+03 -0.42445567295E+03  0.45102234176E+03  0.00000000000E+00 0. -1.
<scales pt_clust_5="13000.00000" pt_clust_6="13000.00000" pt_clust_7="13000.00000" pt_clust_8="13000.00000" pt_clust_9="96.05120"></scales>
<clustering>
<clus scale="   81.035">  5  6 -1 -1</clus>
<clus scale="   91.158">  7  8 -1 -1</clus>
<clus scale="  114.644">  2  7  1 -1</clus>
<clus scale="   96.051">  1  9  2 -1</clus>
<clus scale="   96.051">  1  5  2 -1</clus>
</clustering>
</event>
<event>
 9    2  0.6190160E-005  0.1913805E+03  0.7546771E-02  0.1183275E+00
         21   -1    0    0  501  502  0.00000000000E+00  0.00000000000E+00  0.11359531304E+03  0.11359531304E+03  0.00000000000E+00 0.  1.
          2   -1    0    0  502    0 -0.00000000000E+00 -0.00000000000E+00 -0.80371915541E+03  0.80371915541E+03  0.00000000000E+00 0. -1.
         23    2    1    2    0    0 -0.33182529728E+02 -0.41888598892E+02 -0.24656692278E+03  0.26818158745E+03  0.90941637544E+02 0.  0.
         24    2    1    2    0    0  0.91066587852E+02  0.16075503281E+03 -0.16036693853E+02  0.20163613608E+03  0.79149553542E+02 0.  0.
        -11    1    4    4    0    0  0.89426748842E+02  0.82679498312E+02 -0.20096673829E+02  0.12343791617E+03  0.00000000000E+00 0.  1.
         12    1    4    4    0    0  0.16398390103E+01  0.78075534500E+02  0.40599799763E+01  0.78198219909E+02  0.00000000000E+00 0. -1.
        -11    1    3    3    0    0 -0.19771364131E+02  0.23911853518E+02 -0.37930055562E+02  0.49003802844E+02  0.00000000000E+00 0.  1.
         11    1    3    3    0    0 -0.13411165596E+02 -0.65800452410E+02 -0.20863686722E+03  0.21917778460E+03  0.00000000000E+00 0. -1.
          1    1    1    2  501    0 -0.57884058125E+02 -0.11886643392E+03 -0.42752022574E+03  0.44749674492E+03  0.00000000000E+00 0. -1.
<scales pt_clust_5="13000.00000" pt_clust_6="13000.00000" pt_clust_7="13000.00000" pt_clust_8="13000.00000" pt_clust_9="174.24655"></scales>
<clustering>
<clus scale="   79.150">  5  6 -1 -1</clus>
<clus scale="   90.942">  7  8 -1 -1</clus>
<clus scale="  105.480">  2  7  1 -1</clus>
<clus scale="  174.247">  1  9  2 -1</clus>
<clus scale="  174.247">  1  5  2 -1</clus>
</clustering>
</event>
<event>
 9    2  0.6190160E-005  0.1184665E+03  0.7546771E-02  0.1249699E+00
         21   -1    0    0  501  502  0.00000000000E+00  0.00000000000E+00  0.54556249373E+03  0.54556249373E+03  0.00000000000E+00 0. -1.
         -1   -1    0    0    0  501 -0.00000000000E+00 -0.00000000000E+00 -0.15397204172E+03  0.15397204172E+03  0.00000000000E+00 0.  1.
         23    2    1    2    0    0  0.79720478290E+02 -0.26541502350E+02  0.18109894637E+03  0.22031107090E+03  0.93168307817E+02 0.  0.
         24    2    1    2    0    0 -0.57295036681E+02 -0.23432975521E+01  0.33502283345E+03  0.34943408245E+03  0.81090485095E+02 0.  0.
        -11    1    4    4    0    0 -0.10897019614E+02 -0.24847693321E+02  0.31553758422E+02  0.41614811911E+02  0.00000000000E+00 0.  1.
         12    1    4    4    0    0 -0.46398017068E+02  0.22504395769E+02  0.30346907503E+03  0.30781927054E+03  0.00000000000E+00 0. -1.
        -13    1    3    3    0    0  0.54006367428E+02  0.27871343004E+02  0.61714747769E+02  0.86615296431E+02  0.00000000000E+00 0.  1.
         13    1    3    3    0    0  0.25714110862E+02 -0.54412845353E+02  0.11938419860E+03  0.13369577447E+03  0.00000000000E+00 0. -1.
         -2    1    1    2    0  502 -0.22425441609E+02  0.28884799902E+02 -0.12453132781E+03  0.12978938209E+03  0.00000000000E+00 0.  1.
<scales pt_clust_5="13000.00000" pt_clust_6="13000.00000" pt_clust_7="13000.00000" pt_clust_8="13000.00000" pt_clust_9="36.56820"></scales>
<clustering>
<clus scale="   36.568">  1  9  2 -1</clus>
<clus scale="   81.090">  5  6 -1 -1</clus>
<clus scale="   93.168">  7  8 -1 -1</clus>
<clus scale="  109.223">  1  5  2 -1</clus>
<clus scale="   36.568">  1  5  2 -1</clus>
</clustering>
</event>
<event>
 9    2  0.1279843E-004  0.1046460E+03  0.7546771E-02  0.1275421E+00
         -1   -1    0    0    0  501 -0.00000000000E+00  0.00000000000E+00  0.29592907711E+03  0.29592907711E+03  0.00000000000E+00 0.  1.
         21   -1    0    0  501  502  0.00000000000E+00 -0.00000000000E+00 -0.22108801278E+03  0.22108801278E+03  0.00000000000E+00 0.  1.
         24    2    1    2    0    0  0.34851367997E+02 -0.35838707648E+02  0.72062649936E+02  0.11872045690E+03  0.80015564448E+02 0.  0.
         23    2    1    2    0    0 -0.11975093770E+02  0.88340546364E+02 -0.17232607496E+03  0.21406485184E+03  0.90443516515E+02 0.  0.
        -13    1    3    3    0    0  0.50573103083E+02 -0.21271234633E+02  0.79008668110E+02  0.96189780199E+02  0.00000000000E+00 0.  1.
         14    1    3    3    0    0 -0.15721735086E+02 -0.14567473015E+02 -0.69460181742E+01  0.22530676702E+02  0.00000000000E+00 0. -1.
        -11    1    4    4    0    0 -0.86898783716E+01 -0.18129840295E+02 -0.33668696521E+02  0.39214617436E+02  0.00000000000E+00 0. -1.
         11    1    4    4    0    0 -0.32852153982E+01  0.10647038666E+03 -0.13865737844E+03  0.17485023440E+03  0.00000000000E+00 0.  1.
         -2    1    1    2    0  502 -0.22876274227E+02 -0.52501838716E+02  0.17510448936E+03  0.18423178114E+03  0.00000000000E+00 0.  1.
<scales pt_clust_5="13000.00000" pt_clust_6="13000.00000" pt_clust_7="13000.00000" pt_clust_8="13000.00000" pt_clust_9="57.26928"></scales>
<clustering>
<clus scale="   57.269">  2  9  1 -1</clus>
<clus scale="   80.016">  5  6 -1 -1</clus>
<clus scale="   90.444">  7  8 -1 -1</clus>
<clus scale="   95.777">  1  5  2 -1</clus>
<clus scale="   57.269">  2  5  1 -1</clus>
</clustering>
</event>
<event>
 9    2  0.6190160E-005  0.9143114E+02  0.7546771E-02  0.1305471E+00
          2   -1    0    0  502    0 -0.00000000000E+00  0.00000000000E+00  0.66583705379E+03  0.66583705379E+03  0.00000000000E+00 0. -1.
         21   -1    0    0  501  502  0.00000000000E+00 -0.00000000000E+00 -0.62862785215E+02  0.62862785215E+02  0.00000000000E+00 0.  1.
         23    2    1    2    0    0 -0.83797331422E+00 -0.15147262656E+02  0.47254506983E+03  0.48140517838E+03  0.90675029572E+02 0.  0.
         24    2    1    2    0    0 -0.62022327720E+01 -0.30662940278E+02 -0.20682090549E+02  0.89235301689E+02  0.80972258213E+02 0.  0.
        -13    1    4    4    0    0 -0.66171793630E+01 -0.23020245836E+02 -0.51863940961E+02  0.57127814180E+02  0.00000000000E+00 0.  1.
         14    1    4    4    0    0  0.41494659098E+00 -0.76426944418E+01  0.31181850411E+02  0.32107487508E+02  0.00000000000E+00 0. -1.
        -11    1    3    3    0    0 -0.32626601354E+02 -0.39740004184E+02  0.28514561853E+03  0.28974434734E+03  0.00000000000E+00 0.  1.
         11    1    3    3    0    0  0.31788628040E+02  0.24592741528E+02  0.18739945129E+03  0.19166083104E+03  0.00000000000E+00 0. -1.
          1    1    1    2  501    0  0.70402060863E+01  0.45810202934E+02  0.15111128930E+03  0.15805935894E+03  0.00000000000E+00 0. -1.
<scales pt_clust_5="13000.00000" pt_clust_6="13000.00000" pt_clust_7="13000.00000" pt_clust_8="13000.00000" pt_clust_9="46.34805"></scales>
<clustering>
<clus scale="   46.348">  2  9  1 -1</clus>
<clus scale="   80.972">  5  6 -1 -1</clus>
<clus scale="   81.818">  2  5  1 -1</clus>
<clus scale="   90.675">  7  8 -1 -1</clus>
<clus scale="   46.348">  2  5  1 -1</clus>
</clustering>
</event>
<event>
 9    2  0.6190160E-005  0.1010272E+03  0.7546771E-02  0.1283778E+00
          2   -1    0    0  502    0 -0.00000000000E+00  0.00000000000E+00  0.11584698894E+03  0.11584698894E+03  0.00000000000E+00 0. -1.
         21   -1    0    0  501  502  0.00000000000E+00 -0.00000000000E+00 -0.20751631536E+03  0.20751631536E+03  0.00000000000E+00 0.  1.
         24    2    1    2    0    0  0.94695164282E+01 -0.43807042076E+02  0.64490294824E+02  0.11258530229E+03  0.80670462306E+02 0.  0.
         23    2    1    2    0    0 -0.36802615015E+02  0.16766502416E+02 -0.93704732744E+02  0.13743700282E+03  0.92047839361E+02 0.  0.
        -13    1    3    3    0    0 -0.21934457983E+02 -0.17188629303E+02 -0.81988881009E+01  0.29048084109E+02  0.00000000000E+00 0.  1.
         14    1    3    3    0    0  0.31403974411E+02 -0.26618412774E+02  0.72689182925E+02  0.83537218183E+02  0.00000000000E+00 0. -1.
        -11    1    4    4    0    0 -0.51849437752E+02 -0.23505517734E+02 -0.60856152827E+02  0.83332736041E+02  0.00000000000E+00 0.  1.
         11    1    4    4    0    0  0.15046822737E+02  0.40272020150E+02 -0.32848579917E+02  0.54104266782E+02  0.00000000000E+00 0. -1.
          1    1    1    2  501    0  0.27333098587E+02  0.27040539660E+02 -0.62454888500E+02  0.73340999182E+02  0.00000000000E+00 0. -1.
<scales pt_clust_5="13000.00000" pt_clust_6="13000.00000" pt_clust_7="13000.00000" pt_clust_8="13000.00000" pt_clust_9="38.44852"></scales>
<clustering>
<clus scale="   38.449">  2  9  1 -1</clus>
<clus scale="   80.670">  5  6 -1 -1</clus>
<clus scale="   90.782">  1  5  2 -1</clus>
<clus scale="   92.048">  7  8 -1 -1</clus>
<clus scale="   38.449">  2  5  1 -1</clus>
</clustering>
</event>
<event>
 9    2  0.6190160E-005  0.9813464E+02  0.7546771E-02  0.1291425E+00
         -1   -1    0    0    0  501 -0.00000000000E+00  0.00000000000E+00  0.96752348451E+02  0.96752348451E+02  0.00000000000E+00 0.  1.
         21   -1    0    0  501  502  0.00000000000E+00 -0.00000000000E+00 -0.26480445509E+03  0.26480445509E+03  0.00000000000E+00 0. -1.
         23    2    1    2    0    0 -0.67587370347E+01 -0.32381279025E+02  0.24148677616E+02  0.10140491667E+03  0.92766215488E+02 0.  0.
         24    2    1    2    0    0  0.32427228481E+02  0.17895469590E+02 -0.20867436761E+03  0.22638668175E+03  0.79587467585E+02 0.  0.
        -13    1    4    4    0    0  0.18704326637E+02  0.20938129768E+02 -0.14305792626E+02  0.31510519129E+02  0.00000000000E+00 0.  1.
         14    1    4    4    0    0  0.13722901844E+02 -0.30426601772E+01 -0.19436857498E+03  0.19487616262E+03  0.00000000000E+00 0. -1.
        -11    1    3    3    0    0 -0.35496362703E+02  0.13288062240E+02 -0.78012509407E+01  0.38696561598E+02  0.00000000000E+00 0.  1.
         11    1    3    3    0    0  0.28737625668E+02 -0.45669341265E+02  0.31949928556E+02  0.62708355068E+02  0.00000000000E+00 0. -1.
         -2    1    1    2    0  502 -0.25668491446E+02  0.14485809434E+02  0.16473583361E+02  0.33765205121E+02  0.00000000000E+00 0.  1.
<scales pt_clust_5="13000.00000" pt_clust_6="13000.00000" pt_clust_7="13000.00000" pt_clust_8="13000.00000" pt_clust_9="29.47390"></scales>
<clustering>
<clus scale="   29.474">  2  9  1 -1</clus>
<clus scale="   79.587">  5  6 -1 -1</clus>
<clus scale="   85.785">  2  5  1 -1</clus>
<clus scale="   92.766">  7  8 -1 -1</clus>
<clus scale="   29.474">  2  5  1 -1</clus>
</clustering>
</event>
<event>
 9    2  0.6190160E-005  0.1110293E+03  0.7546771E-02  0.1264924E+00
          2   -1    0    0  502    0 -0.00000000000E+00  0.00000000000E+00  0.13078969997E+03  0.13078969997E+03  0.00000000000E+00 0. -1.
         21   -1    0    0  501  502  0.00000000000E+00 -0.00000000000E+00 -0.19768304341E+03  0.19768304341E+03  0.00000000000E+00 0. -1.
         23    2    1    2    0    0 -0.32118835201E+02  0.68324736289E+02 -0.11670161946E+02  0.12374148624E+03  0.97344098814E+02 0.  0.
         24    2    1    2    0    0  0.74893928053E+01 -0.14006281261E+02 -0.99689069204E+02  0.13033825236E+03  0.82449272827E+02 0.  0.
        -13    1    4    4    0    0 -0.25724078154E+02  0.22708483686E+02 -0.37098010967E+02  0.50533808939E+02  0.00000000000E+00 0.  1.
         14    1    4    4    0    0  0.33213470959E+02 -0.36714764947E+02 -0.62591058237E+02  0.79804443419E+02  0.00000000000E+00 0. -1.
        -13    1    3    3    0    0  0.22210555147E+02 -0.11682130214E+02 -0.10008012298E+02  0.27017424682E+02  0.00000000000E+00 0.  1.
         13    1    3    3    0    0 -0.54329390348E+02  0.80006866503E+02 -0.16621496479E+01  0.96724061560E+02  0.00000000000E+00 0. -1.
          1    1    1    2  501    0  0.24629442396E+02 -0.54318455028E+02  0.44465887715E+02  0.74393004776E+02  0.00000000000E+00 0. -1.
<scales pt_clust_5="13000.00000" pt_clust_6="13000.00000" pt_clust_7="13000.00000" pt_clust_8="13000.00000" pt_clust_9="59.64149"></scales>
<clustering>
<clus scale="   59.641">  2  9  1 -1</clus>
<clus scale="   82.449">  5  6 -1 -1</clus>
<clus scale="   97.344">  7  8 -1 -1</clus>
<clus scale="   98.232">  2  5  1 -1</clus>
<clus scale="   59.641">  2  5  1 -1</clus>
</clustering>
</event>
<event>
 9    2  0.6190160E-005  0.1206497E+03  0.7546771E-02  0.1246104E+00
         21   -1    0    0  501  502  0.00000000000E+00  0.00000000000E+00  0.80228850998E+02  0.80228850998E+02  0.00000000000E+00 0. -1.
          2   -1    0    0  502    0 -0.00000000000E+00 -0.00000000000E+00 -0.35913392774E+03  0.35913392774E+03  0.00000000000E+00 0. -1.
         24    2    1    2    0    0  0.56612446715E+02  0.80624286366E+02 -0.11857369393E+03  0.17396996464E+03  0.80626193205E+02 0.  0.
         23    2    1    2    0    0  0.30256931533E+02 -0.65878636687E+02 -0.62296619771E+02  0.13358030397E+03  0.93313193575E+02 0.  0.
        -13    1    3    3    0    0  0.55226056853E+02  0.56922301137E+02 -0.34288694064E+02  0.86404746761E+02  0.00000000000E+00 0.  1.
         14    1    3    3    0    0  0.13863898629E+01  0.23701985229E+02 -0.84284999862E+02  0.87565217880E+02  0.00000000000E+00 0. -1.
        -11    1    4    4    0    0  0.62433395219E+02 -0.47237507141E+02 -0.55017762206E+02  0.95688374830E+02  0.00000000000E+00 0.  1.
         11    1    4    4    0    0 -0.32176463687E+02 -0.18641129547E+02 -0.72788575645E+01  0.37891929135E+02  0.00000000000E+00 0. -1.
          1    1    1    2  501    0 -0.86869378248E+02 -0.14745649679E+02 -0.98034763043E+02  0.13181251013E+03  0.00000000000E+00 0. -1.
<scales pt_clust_5="13000.00000" pt_clust_6="13000.00000" pt_clust_7="13000.00000" pt_clust_8="13000.00000" pt_clust_9="88.11204"></scales>
<clustering>
<clus scale="   80.626">  5  6 -1 -1</clus>
<clus scale="   88.112">  1  9  2 -1</clus>
<clus scale="   93.313">  7  8 -1 -1</clus>
<clus scale="  111.129">  2  5  1 -1</clus>
<clus scale="   88.112">  1  5  2 -1</clus>
</clustering>
</event>
<event>
 9    2  0.6190160E-005  0.3043572E+03  0.7546771E-02  0.1104482E+00
         21   -1    0    0  501  502  0.00000000000E+00  0.00000000000E+00  0.28423731619E+03  0.28423731619E+03  0.00000000000E+00 0. -1.
          2   -1    0    0  502    0 -0.00000000000E+00 -0.00000000000E+00 -0.55269111773E+03  0.55269111773E+03  0.00000000000E+00 0. -1.
         23    2    1    2    0    0 -0.10314500713E+03 -0.10639475645E+03 -0.54661715658E+02  0.18195058229E+03  0.90329256303E+02 0.  0.
         24    2    1    2    0    0  0.33724435138E+02  0.35219966751E+03 -0.10789044374E+03  0.37847391327E+03  0.80126224485E+02 0.  0.
        -11    1    4    4    0    0 -0.24264289505E+02  0.12831243799E+03 -0.26151713928E+02  0.13317938891E+03  0.00000000000E+00 0.  1.
         12    1    4    4    0    0  0.57988724643E+02  0.22388722952E+03 -0.81738729810E+02  0.24529452436E+03  0.00000000000E+00 0. -1.
        -13    1    3    3    0    0 -0.57762970788E+02 -0.30396492297E+01 -0.34303683721E+02  0.67249854859E+02  0.00000000000E+00 0.  1.
         13    1    3    3    0    0 -0.45382036338E+02 -0.10335510722E+03 -0.20358031937E+02  0.11470072744E+03  0.00000000000E+00 0. -1.
          1    1    1    2  501    0  0.69420571988E+02 -0.24580491107E+03 -0.10590164214E+03  0.27650393836E+03  0.00000000000E+00 0. -1.
<scales pt_clust_5="13000.00000" pt_clust_6="13000.00000" pt_clust_7="13000.00000" pt_clust_8="13000.00000" pt_clust_9="293.62067"></scales>
<clustering>
<clus scale="   80.126">  5  6 -1 -1</clus>
<clus scale="   90.329">  7  8 -1 -1</clus>
<clus scale="  173.546">  2  7  1 -1</clus>
<clus scale="  293.621">  1  9  2 -1</clus>
<clus scale="  293.621">  1  5  2 -1</clus>
</clustering>
</event>
<event>
 9    2  0.6190160E-005  0.9591446E+02  0.7546771E-02  0.1293676E+00
         -1   -1    0    0    0  501 -0.00000000000E+00  0.00000000000E+00  0.36475282708E+03  0.36475282708E+03  0.00000000000E+00 0.  1.
         21   -1    0    0  501  502  0.00000000000E+00 -0.00000000000E+00 -0.10063331778E+03  0.10063331778E+03  0.00000000000E+00 0.  1.
         23    2    1    2    0    0 -0.23223613898E+02 -0.11009825188E+02  0.19655111924E+03  0.21722151753E+03  0.88838576686E+02 0.  0.
         24    2    1    2    0    0  0.11040276555E+03  0.83756254335E+01 -0.16646179462E+01  0.13680775558E+03  0.80340956504E+02 0.  0.
        -13    1    4    4    0    0  0.11928769679E+03  0.11040454092E+02  0.11886674450E+02  0.12038579344E+03  0.00000000000E+00 0.  1.
         14    1    4    4    0    0 -0.88849312435E+01 -0.26648286587E+01 -0.13551292396E+02  0.16421962142E+02  0.00000000000E+00 0. -1.
        -13    1    3    3    0    0 -0.77697009980E+01  0.33407025680E+02  0.35161654343E+02  0.49119645301E+02  0.00000000000E+00 0.  1.
         13    1    3    3    0    0 -0.15453912900E+02 -0.44416850867E+02  0.16138946490E+03  0.16810187223E+03  0.00000000000E+00 0. -1.
         -2    1    1    2    0  502 -0.87179151647E+02  0.26341997543E+01  0.69233007999E+02  0.11135687175E+03  0.00000000000E+00 0.  1.
<scales pt_clust_5="13000.00000" pt_clust_6="13000.00000" pt_clust_7="13000.00000" pt_clust_8="13000.00000" pt_clust_9="87.21898"></scales>
<clustering>
<clus scale="   80.341">  5  6 -1 -1</clus>
<clus scale="   87.219">  2  9  1 -1</clus>
<clus scale="   88.102">  2  5  1 -1</clus>
<clus scale="   88.839">  7  8 -1 -1</clus>
<clus scale="   87.219">  2  5  1 -1</clus>
</clustering>
</event>
<event>
 9    2  0.6190160E-005  0.1123440E+03  0.7546771E-02  0.1260525E+00
         21   -1    0    0  501  502  0.00000000000E+00  0.00000000000E+00  0.21499072969E+03  0.21499072969E+03  0.00000000000E+00 0. -1.
         -3   -1    0    0    0  501 -0.00000000000E+00 -0.00000000000E+00 -0.93739721678E+02  0.93739721678E+02  0.00000000000E+00 0.  1.
         23    2    1    2    0    0 -0.60289091253E+02 -0.37265024943E+02 -0.12591654128E+02  0.11638653655E+03  0.91453920252E+02 0.  0.
         24    2    1    2    0    0  0.58773328295E+02 -0.90344822166E+00  0.10412253248E+03  0.14394540257E+03  0.80147718692E+02 0.  0.
        -13    1    4    4    0    0  0.16571950502E+02 -0.38733728450E+02  0.52212848697E+02  0.67090333373E+02  0.00000000000E+00 0.  1.
         14    1    4    4    0    0  0.42201377793E+02  0.37830280229E+02  0.51909683788E+02  0.76855069194E+02  0.00000000000E+00 0. -1.
        -11    1    3    3    0    0 -0.76138320777E+02 -0.52913615090E+02 -0.49950056458E+01  0.92853888632E+02  0.00000000000E+00 0.  1.
         11    1    3    3    0    0  0.15849229524E+02  0.15648590147E+02 -0.75966484819E+01  0.23532647923E+02  0.00000000000E+00 0. -1.
         -4    1    1    2    0  502  0.15157629586E+01  0.38168473165E+02  0.29720129657E+02  0.48398512249E+02  0.00000000000E+00 0.  1.
<scales pt_clust_5="13000.00000" pt_clust_6="13000.00000" pt_clust_7="13000.00000" pt_clust_8="13000.00000" pt_clust_9="38.19856"></scales>
<clustering>
<clus scale="   38.199">  1  9  2 -1</clus>
<clus scale="   80.148">  5  6 -1 -1</clus>
<clus scale="   91.454">  7  8 -1 -1</clus>
<clus scale="  103.349">  1  5  2 -1</clus>
<clus scale="   38.199">  1  5  2 -1</clus>
</clustering>
</event>
<event>
 9    2  0.6190160E-005  0.9906075E+02  0.7546771E-02  0.1283319E+00
         21   -1    0    0  501  502  0.00000000000E+00  0.00000000000E+00  0.32960809122E+03  0.32960809122E+03  0.00000000000E+00 0.  1.
         -3   -1    0    0    0  501 -0.00000000000E+00 -0.00000000000E+00 -0.23533494088E+03  0.23533494088E+03  0.00000000000E+00 0.  1.
         23    2    1    2    0    0 -0.58775869291E+02 -0.48435731127E+01 -0.19656477546E+03  0.22025372272E+03  0.79974548524E+02 0.  0.
         24    2    1    2    0    0  0.28776115697E+02  0.17069893700E+02  0.50529854795E+02  0.10220748095E+03  0.82302228586E+02 0.  0.
        -11    1    4    4    0    0 -0.22226785621E+02 -0.57497478734E+01 -0.49293527235E+01  0.23481654923E+02  0.00000000000E+00 0.  1.
         12    1    4    4    0    0  0.51002901318E+02  0.22819641573E+02  0.55459207518E+02  0.78725826023E+02  0.00000000000E+00 0. -1.
        -11    1    3    3    0    0 -0.75123195839E+02 -0.19159085026E+02 -0.15770938934E+03  0.17573507498E+03  0.00000000000E+00 0.  1.
         11    1    3    3    0    0  0.16347326549E+02  0.14315511913E+02 -0.38855386115E+02  0.44518647742E+02  0.00000000000E+00 0. -1.
         -4    1    1    2    0  502  0.29999753593E+02 -0.12226320587E+02  0.24030807100E+03  0.24248182843E+03  0.00000000000E+00 0.  1.
<scales pt_clust_5="13000.00000" pt_clust_6="13000.00000" pt_clust_7="13000.00000" pt_clust_8="13000.00000" pt_clust_9="32.39550"></scales>
<clustering>
<clus scale="   32.395">  1  9  2 -1</clus>
<clus scale="   79.975">  7  8 -1 -1</clus>
<clus scale="   82.302">  5  6 -1 -1</clus>
<clus scale="   97.135">  2  7  1 -1</clus>
<clus scale="   32.395">  1  5  2 -1</clus>
</clustering>
</event>
<event>
 9    2  0.6190160E-005  0.8678665E+02  0.7546771E-02  0.1313989E+00
          4   -1    0    0  502    0 -0.00000000000E+00  0.00000000000E+00  0.49307636104E+02  0.49307636104E+02  0.00000000000E+00 0. -1.
         21   -1    0    0  501  502  0.00000000000E+00 -0.00000000000E+00 -0.47827333873E+03  0.47827333873E+03  0.00000000000E+00 0.  1.
         23    2    1    2    0    0  0.21539062565E+02  0.70235732382E+01 -0.59355815227E+01  0.86863103225E+02  0.83646313586E+02 0.  0.
         24    2    1    2    0    0 -0.30987048666E+02  0.22216970448E+02 -0.24644918185E+03  0.26148310393E+03  0.78628388305E+02 0.  0.
        -13    1    4    4    0    0 -0.51081775734E+02 -0.64803939458E+01 -0.16418253835E+03  0.17206757166E+03  0.00000000000E+00 0.  1.
         14    1    4    4    0    0  0.20094727068E+02  0.28697364394E+02 -0.82266643492E+02  0.89415532267E+02  0.00000000000E+00 0. -1.
        -13    1    3    3    0    0 -0.33728480061E+00  0.22837274901E+02 -0.38377520151E+02  0.44659701509E+02  0.00000000000E+00 0.  1.
         13    1    3    3    0    0  0.21876347365E+02 -0.15813701663E+02  0.32441938629E+02  0.42203401715E+02  0.00000000000E+00 0. -1.
          3    1    1    2  501    0  0.94479861016E+01 -0.29240543686E+02 -0.17658093925E+03  0.17923476768E+03  0.00000000000E+00 0. -1.
<scales pt_clust_5="13000.00000" pt_clust_6="13000.00000" pt_clust_7="13000.00000" pt_clust_8="13000.00000" pt_clust_9="30.72904"></scales>
<clustering>
<clus scale="   30.729">  2  9  1 -1</clus>
<clus scale="   78.628">  5  6 -1 -1</clus>
<clus scale="   81.961">  2  5  1 -1</clus>
<clus scale="   83.646">  7  8 -1 -1</clus>
<clus scale="   30.729">  2  5  1 -1</clus>
</clustering>
</event>
<event>
 9    2  0.6190160E-005  0.1318637E+03  0.7546771E-02  0.1226618E+00
         21   -1    0    0  501  502  0.00000000000E+00  0.00000000000E+00  0.13630392692E+03  0.13630392692E+03  0.00000000000E+00 0.  1.
          2   -1    0    0  502    0 -0.00000000000E+00 -0.00000000000E+00 -0.60911171323E+03  0.60911171323E+03  0.00000000000E+00 0. -1.
         23    2    1    2    0    0 -0.66837039873E+02  0.69797075754E+02 -0.47525470801E+03  0.49275526445E+03  0.87188826531E+02 0.  0.
         24    2    1    2    0    0  0.93283148973E+02 -0.60506705181E+02 -0.84998528213E+02  0.16083219711E+03  0.79242908671E+02 0.  0.
        -13    1    4    4    0    0 -0.84914079239E+00 -0.30805989010E+02 -0.38092075593E+00  0.30820043796E+02  0.00000000000E+00 0.  1.
         14    1    4    4    0    0  0.94132289766E+02 -0.29700716172E+02 -0.84617607458E+02  0.13001215331E+03  0.00000000000E+00 0. -1.
        -11    1    3    3    0    0 -0.79427174343E+02  0.29624790704E+02 -0.36553633023E+03  0.37523740881E+03  0.00000000000E+00 0. -1.
         11    1    3    3    0    0  0.12590134471E+02  0.40172285050E+02 -0.10971837778E+03  0.11751785564E+03  0.00000000000E+00 0.  1.
          1    1    1    2  501    0 -0.26446109100E+02 -0.92903705726E+01  0.87445449917E+02  0.91828178590E+02  0.00000000000E+00 0. -1.
<scales pt_clust_5="13000.00000" pt_clust_6="13000.00000" pt_clust_7="13000.00000" pt_clust_8="13000.00000" pt_clust_9="28.03048"></scales>
<clustering>
<clus scale="   28.030">  1  9  2 -1</clus>
<clus scale="   79.243">  5  6 -1 -1</clus>
<clus scale="   87.189">  7  8 -1 -1</clus>
<clus scale="  126.750">  1  5  2 -1</clus>
<clus scale="   28.030">  1  5  2 -1</clus>
</clustering>
</event>
<event>
 9    2  0.6190160E-005  0.1412453E+03  0.7546771E-02  0.1214425E+00
          2   -1    0    0  502    0 -0.00000000000E+00  0.00000000000E+00  0.13592921207E+03  0.13592921207E+03  0.00000000000E+00 0. -1.
         21   -1    0    0  501  502  0.00000000000E+00 -0.00000000000E+00 -0.32981837259E+03  0.32981837259E+03  0.00000000000E+00 0.  1.
         24    2    1    2    0    0  0.10930081092E+03 -0.64503996259E+02  0.21853221805E+02  0.15255356472E+03  0.81777710930E+02 0.  0.
         23    2    1    2    0    0 -0.51589082179E+02  0.60238933962E+02 -0.42203404934E+02  0.13026066851E+03  0.94321534173E+02 0.  0.
        -11    1    3    3    0    0  0.41087899624E+02  0.14318139460E+02 -0.77405227978E+01  0.44194346995E+02  0.00000000000E+00 0.  1.
         12    1    3    3    0    0  0.68212911297E+02 -0.78822135719E+02  0.29593744603E+02  0.10835921773E+03  0.00000000000E+00 0. -1.
        -13    1    4    4    0    0 -0.16121181217E+02  0.80537193188E+02 -0.24374646519E+02  0.85675290273E+02  0.00000000000E+00 0.  1.
         13    1    4    4    0    0 -0.35467900962E+02 -0.20298259226E+02 -0.17828758415E+02  0.44585378241E+02  0.00000000000E+00 0. -1.
          1    1    1    2  501    0 -0.57711728742E+02  0.42650622968E+01 -0.17353897739E+03  0.18293335142E+03  0.00000000000E+00 0. -1.
<scales pt_clust_5="13000.00000" pt_clust_6="13000.00000" pt_clust_7="13000.00000" pt_clust_8="13000.00000" pt_clust_9="57.86911"></scales>
<clustering>
<clus scale="   57.869">  2  9  1 -1</clus>
<clus scale="   81.778">  5  6 -1 -1</clus>
<clus scale="   94.322">  7  8 -1 -1</clus>
<clus scale="  133.196">  1  5  2 -1</clus>
<clus scale="   57.869">  2  5  1 -1</clus>
</clustering>
</event>
<event>
 9    2  0.6190160E-005  0.3024186E+03  0.7546771E-02  0.1085199E+00
         21   -1    0    0  501  502  0.00000000000E+00  0.00000000000E+00  0.30861814488E+03  0.30861814488E+03  0.00000000000E+00 0.  1.
          2   -1    0    0  502    0 -0.00000000000E+00 -0.00000000000E+00 -0.91576089423E+03  0.91576089423E+03  0.00000000000E+00 0. -1.
         23    2    1    2    0    0 -0.56334915110E+02  0.27250977095E+03 -0.45734372130E+03  0.54324909828E+03  0.92309833958E+02 0.  0.
         24    2    1    2    0    0  0.31539595314E+03 -0.12241219237E+03 -0.27860921656E+01  0.34758128196E+03  0.79659482564E+02 0.  0.
        -13    1    4    4    0    0  0.31270510850E+03 -0.12929414441E+03 -0.81034249865E+01  0.33847765977E+03  0.00000000000E+00 0.  1.
         14    1    4    4    0    0  0.26908446379E+01  0.68819520426E+01  0.53173328209E+01  0.91036221972E+01  0.00000000000E+00 0. -1.
        -13    1    3    3    0    0 -0.70696165436E+02  0.11748249026E+03 -0.20042874264E+03  0.24284102660E+03  0.00000000000E+00 0. -1.
         13    1    3    3    0    0  0.14361250326E+02  0.15502728069E+03 -0.25691497866E+03  0.30040807167E+03  0.00000000000E+00 0.  1.
          1    1    1    2  501    0 -0.25906103803E+03 -0.15009757858E+03 -0.14701293588E+03  0.33354865887E+03  0.00000000000E+00 0. -1.
<scales pt_clust_5="13000.00000" pt_clust_6="13000.00000" pt_clust_7="13000.00000" pt_clust_8="13000.00000" pt_clust_9="291.73865"></scales>
<clustering>
<clus scale="   79.659">  5  6 -1 -1</clus>
<clus scale="   92.310">  7  8 -1 -1</clus>
<clus scale="  293.183">  2  7  1 -1</clus>
<clus scale="  291.739">  1  9  2 -1</clus>
<clus scale="  291.739">  1  5  2 -1</clus>
</clustering>
</event>
<event>
 9    2  0.6190160E-005  0.1234959E+03  0.7546771E-02  0.1241541E+00
         21   -1    0    0  501  502  0.00000000000E+00  0.00000000000E+00  0.31650267034E+03  0.31650267034E+03  0.00000000000E+00 0. -1.
         -3   -1    0    0    0  501 -0.00000000000E+00 -0.00000000000E+00 -0.12719886249E+03  0.12719886249E+03  0.00000000000E+00 0.  1.
         24    2    1    2    0    0  0.69223351722E+02  0.51819512087E+02 -0.59234402852E+02  0.12906795825E+03  0.75317256389E+02 0.  0.
         23    2    1    2    0    0 -0.87474223204E+02 -0.12516453763E+02  0.10238674137E+03  0.16219317083E+03  0.89527529382E+02 0.  0.
        -11    1    3    3    0    0  0.42193541584E+02 -0.64049201001E+01 -0.47421464578E+02  0.63797439256E+02  0.00000000000E+00 0.  1.
         12    1    3    3    0    0  0.27029810138E+02  0.58224432187E+02 -0.11812938275E+02  0.65270518998E+02  0.00000000000E+00 0. -1.
        -13    1    4    4    0    0 -0.49096441086E+02 -0.37827285134E+02  0.15490446642E+02  0.63885193630E+02  0.00000000000E+00 0.  1.
         13    1    4    4    0    0 -0.38377782117E+02  0.25310831371E+02  0.86896294725E+02  0.98307977203E+02  0.00000000000E+00 0. -1.
         -4    1    1    2    0  502  0.18250871481E+02 -0.39303058324E+02  0.14615146934E+03  0.15244040374E+03  0.00000000000E+00 0.  1.
<scales pt_clust_5="13000.00000" pt_clust_6="13000.00000" pt_clust_7="13000.00000" pt_clust_8="13000.00000" pt_clust_9="43.33387"></scales>
<clustering>
<clus scale="   43.334">  1  9  2 -1</clus>
<clus scale="   75.317">  5  6 -1 -1</clus>
<clus scale="   89.528">  7  8 -1 -1</clus>
<clus scale="  113.617">  2  5  1 -1</clus>
<clus scale="   43.334">  1  5  2 -1</clus>
</clustering>
</event>
<event>
 9    2  0.6190160E-005  0.2570197E+03  0.7546771E-02  0.1108947E+00
         21   -1    0    0  501  502  0.00000000000E+00  0.00000000000E+00  0.11264365281E+03  0.11264365281E+03  0.00000000000E+00 0.  1.
         -1   -1    0    0    0  501 -0.00000000000E+00 -0.00000000000E+00 -0.43227922344E+03  0.43227922344E+03  0.00000000000E+00 0.  1.
         24    2    1    2    0    0  0.24395968709E+02 -0.11273985300E+03 -0.15085087104E+03  0.20612217998E+03  0.80155661319E+02 0.  0.
         23    2    1    2    0    0  0.21283583618E+02 -0.65811417951E+02 -0.33443967775E+02  0.11014311047E+03  0.78923204054E+02 0.  0.
        -11    1    3    3    0    0  0.15426354022E+02 -0.10337141717E+03 -0.15938452534E+03  0.19059656136E+03  0.00000000000E+00 0.  1.
         12    1    3    3    0    0  0.89696146879E+01 -0.93684358357E+01  0.85336543010E+01  0.15525618615E+02  0.00000000000E+00 0. -1.
        -13    1    4    4    0    0 -0.28310857695E+02 -0.32307885144E+02 -0.31762617420E+01  0.43074270099E+02  0.00000000000E+00 0.  1.
         13    1    4    4    0    0  0.49594441313E+02 -0.33503532807E+02 -0.30267706033E+02  0.67068840367E+02  0.00000000000E+00 0. -1.
         -2    1    1    2    0  502 -0.45679552327E+02  0.17855127095E+03 -0.13534073182E+03  0.22865758581E+03  0.00000000000E+00 0.  1.
<scales pt_clust_5="13000.00000" pt_clust_6="13000.00000" pt_clust_7="13000.00000" pt_clust_8="13000.00000" pt_clust_9="184.30196"></scales>
<clustering>
<clus scale="   78.923">  7  8 -1 -1</clus>
<clus scale="   80.156">  5  6 -1 -1</clus>
<clus scale="  100.540">  5  7 -1 -1</clus>
<clus scale="  184.302">  1  9  2 -1</clus>
<clus scale="  184.302">  1  5  2 -1</clus>
</clustering>
</event>
<event>
 9    2  0.6190160E-005  0.1399931E+03  0.7546771E-02  0.1213749E+00
         21   -1    0    0  501  502  0.00000000000E+00  0.00000000000E+00  0.58405206726E+02  0.58405206726E+02  0.00000000000E+00 0. -1.
          2   -1    0    0  502    0 -0.00000000000E+00 -0.00000000000E+00 -0.14436061843E+04  0.14436061843E+04  0.00000000000E+00 0. -1.
         24    2    1    2    0    0  0.71611973718E+02 -0.90979552934E+02 -0.11518960415E+04  0.11604135996E+04  0.79307489498E+02 0.  0.
         23    2    1    2    0    0 -0.95719683646E+02  0.68076465184E+02 -0.26223957285E+03  0.29751892671E+03  0.77144379147E+02 0.  0.
        -13    1    3    3    0    0  0.39880401479E+02 -0.54058723517E+02 -0.31405423648E+03  0.32115861418E+03  0.00000000000E+00 0.  1.
         14    1    3    3    0    0  0.31731572239E+02 -0.36920829417E+02 -0.83784180499E+03  0.83925498540E+03  0.00000000000E+00 0. -1.
        -13    1    4    4    0    0  0.98654215928E+01  0.22108260508E+02 -0.61501995814E+02  0.66095364550E+02  0.00000000000E+00 0.  1.
         13    1    4    4    0    0 -0.10558510524E+03  0.45968204676E+02 -0.20073757704E+03  0.23142356216E+03  0.00000000000E+00 0. -1.
          1    1    1    2  501    0  0.24107709928E+02  0.22903087750E+02  0.28934636792E+02  0.44078864694E+02  0.00000000000E+00 0. -1.
<scales pt_clust_5="13000.00000" pt_clust_6="13000.00000" pt_clust_7="13000.00000" pt_clust_8="13000.00000" pt_clust_9="33.25257"></scales>
<clustering>
<clus scale="   33.253">  1  9  2 -1</clus>
<clus scale="   77.144">  7  8 -1 -1</clus>
<clus scale="   79.307">  5  6 -1 -1</clus>
<clus scale="  138.779">  1  7  2 -1</clus>
<clus scale="   33.253">  1  5  2 -1</clus>
</clustering>
</event>
<event>
 9    2  0.6190160E-005  0.1404684E+03  0.7546771E-02  0.1214820E+00
         -3   -1    0    0    0  501 -0.00000000000E+00  0.00000000000E+00  0.45151433676E+03  0.45151433676E+03  0.00000000000E+00 0.  1.
         21   -1    0    0  501  502  0.00000000000E+00 -0.00000000000E+00 -0.29310217307E+03  0.29310217307E+03  0.00000000000E+00 0. -1.
         23    2    1    2    0    0  0.10791090902E+03  0.16394584908E+02  0.39401390194E+03  0.41883159720E+03  0.90881269766E+02 0.  0.
         24    2    1    2    0    0 -0.59549497815E+02 -0.85913882993E+02 -0.18407006113E+03  0.22665231130E+03  0.81007066566E+02 0.  0.
        -13    1    4    4    0    0 -0.50872613577E+02 -0.57826385706E+01 -0.62558119568E+02  0.80839223431E+02  0.00000000000E+00 0.  1.
         14    1    4    4    0    0 -0.86768842381E+01 -0.80131244422E+02 -0.12151194156E+03  0.14581308787E+03  0.00000000000E+00 0. -1.
        -11    1    3    3    0    0  0.73961029736E+02  0.11712672726E+02  0.36869401544E+03  0.37622160709E+03  0.00000000000E+00 0.  1.
         11    1    3    3    0    0  0.33949879281E+02  0.46819121813E+01  0.25319886501E+02  0.42609990112E+02  0.00000000000E+00 0. -1.
         -4    1    1    2    0  502 -0.48361411203E+02  0.69519298085E+02 -0.51531677109E+02  0.99132601325E+02  0.00000000000E+00 0.  1.
<scales pt_clust_5="13000.00000" pt_clust_6="13000.00000" pt_clust_7="13000.00000" pt_clust_8="13000.00000" pt_clust_9="84.68624"></scales>
<clustering>
<clus scale="   81.007">  5  6 -1 -1</clus>
<clus scale="   84.686">  2  9  1 -1</clus>
<clus scale="   90.881">  7  8 -1 -1</clus>
<clus scale="  134.291">  2  5  1 -1</clus>
<clus scale="   84.686">  2  5  1 -1</clus>
</clustering>
</event>
<event>
 9    2  0.6190160E-005  0.9412118E+02  0.7546771E-02  0.1296666E+00
         21   -1    0    0  501  502  0.00000000000E+00  0.00000000000E+00  0.40593987876E+02  0.40593987876E+02  0.00000000000E+00 0.  1.
         -1   -1    0    0    0  501 -0.00000000000E+00 -0.00000000000E+00 -0.65665151153E+03  0.65665151153E+03  0.00000000000E+00 0.  1.
         24    2    1    2    0    0 -0.29855474666E+02  0.70100700198E+01 -0.28264937738E+03  0.29529834251E+03  0.79811967190E+02 0.  0.
         23    2    1    2    0    0  0.71696356123E+02  0.50988306433E+02 -0.10276384624E+03  0.16046990295E+03  0.86313421821E+02 0.  0.
        -11    1    3    3    0    0 -0.34820158903E+02  0.32583193974E+02 -0.24447364285E+03  0.24908125189E+03  0.00000000000E+00 0.  1.
         12    1    3    3    0    0  0.49646842371E+01 -0.25573123954E+02 -0.38175734530E+02  0.46217090619E+02  0.00000000000E+00 0. -1.
        -13    1    4    4    0    0 -0.12701940443E+02  0.20202023422E+02 -0.52161301800E+02  0.57360809328E+02  0.00000000000E+00 0. -1.
         13    1    4    4    0    0  0.84398296566E+02  0.30786283010E+02 -0.50602544438E+02  0.10310909363E+03  0.00000000000E+00 0.  1.
         -2    1    1    2    0  502 -0.41840881457E+02 -0.57998376452E+02 -0.23064430004E+03  0.24147725394E+03  0.00000000000E+00 0.  1.
<scales pt_clust_5="13000.00000" pt_clust_6="13000.00000" pt_clust_7="13000.00000" pt_clust_8="13000.00000" pt_clust_9="71.51557"></scales>
<clustering>
<clus scale="   71.516">  1  9  2 -1</clus>
<clus scale="   79.812">  5  6 -1 -1</clus>
<clus scale="   86.313">  7  8 -1 -1</clus>
<clus scale="   88.197">  2  5  1 -1</clus>
<clus scale="   71.516">  1  5  2 -1</clus>
</clustering>
</event>
<event>
 9    2  0.6190160E-005  0.1396177E+03  0.7546771E-02  0.1228858E+00
         21   -1    0    0  501  502  0.00000000000E+00  0.00000000000E+00  0.72490546703E+03  0.72490546703E+03  0.00000000000E+00 0.  1.
          2   -1    0    0  502    0 -0.00000000000E+00 -0.00000000000E+00 -0.94080788603E+02  0.94080788603E+02  0.00000000000E+00 0. -1.
         24    2    1    2    0    0  0.18619086058E+02 -0.55907958304E+02  0.38734422886E+03  0.40053323994E+03  0.83180253059E+02 0.  0.
         23    2    1    2    0    0  0.95276412606E+01 -0.92435925368E+02  0.23254280846E+03  0.26706682717E+03  0.92808168629E+02 0.  0.
        -11    1    3    3    0    0  0.72323438340E+01 -0.72512485615E+02  0.21493656884E+03  0.22695395126E+03  0.00000000000E+00 0.  1.
         12    1    3    3    0    0  0.11386742224E+02  0.16604527311E+02  0.17240766002E+03  0.17357928868E+03  0.00000000000E+00 0. -1.
        -11    1    4    4    0    0  0.15730003910E+02 -0.44991807926E+02  0.20780802306E+03  0.21320382326E+03  0.00000000000E+00 0.  1.
         11    1    4    4    0    0 -0.62023626492E+01 -0.47444117442E+02  0.24734785400E+02  0.53863003918E+02  0.00000000000E+00 0. -1.
          1    1    1    2  501    0 -0.28146727319E+02  0.14834388367E+03  0.10937641111E+02  0.15138618852E+03  0.00000000000E+00 0. -1.
<scales pt_clust_5="13000.00000" pt_clust_6="13000.00000" pt_clust_7="13000.00000" pt_clust_8="13000.00000" pt_clust_9="104.30602"></scales>
<clustering>
<clus scale="   83.180">  5  6 -1 -1</clus>
<clus scale="   92.808">  7  8 -1 -1</clus>
<clus scale="  101.938">  2  5  1 -1</clus>
<clus scale="  104.306">  1  9  2 -1</clus>
<clus scale="  104.306">  1  5  2 -1</clus>
</clustering>
</event>
<event>
 9    2  0.6190160E-005  0.1694864E+03  0.7546771E-02  0.1189906E+00
          2   -1    0    0  502    0 -0.00000000000E+00  0.00000000000E+00  0.10982226772E+03  0.10982226772E+03  0.00000000000E+00 0. -1.
         21   -1    0    0  501  502  0.00000000000E+00 -0.00000000000E+00 -0.60287330201E+03  0.60287330201E+03  0.00000000000E+00 0. -1.
         23    2    1    2    0    0 -0.93692675113E+02 -0.11768305420E+02 -0.44468831697E+02  0.13839429123E+03  0.90877348501E+02 0.  0.
         24    2    1    2    0    0  0.14802529923E+03 -0.11525473953E+03 -0.18419326497E+03  0.27599204576E+03  0.83960146910E+02 0.  0.
        -13    1    4    4    0    0 -0.30012944555E+01 -0.20918085207E+02 -0.45894062742E+02  0.50525627676E+02  0.00000000000E+00 0.  1.
         14    1    4    4    0    0  0.15102659368E+03 -0.94336654327E+02 -0.13829920223E+03  0.22546641809E+03  0.00000000000E+00 0. -1.
        -13    1    3    3    0    0 -0.45541765804E+02  0.31763709155E+02  0.64447188619E+01  0.55897406497E+02  0.00000000000E+00 0. -1.
         13    1    3    3    0    0 -0.48150909308E+02 -0.43532014576E+02 -0.50913550559E+02  0.82496884733E+02  0.00000000000E+00 0.  1.
          1    1    1    2  501    0 -0.54332624114E+02  0.12702304495E+03 -0.26438893763E+03  0.29830923273E+03  0.00000000000E+00 0. -1.
<scales pt_clust_5="13000.00000" pt_clust_6="13000.00000" pt_clust_7="13000.00000" pt_clust_8="13000.00000" pt_clust_9="147.22886"></scales>
<clustering>
<clus scale="   83.960">  5  6 -1 -1</clus>
<clus scale="   90.877">  7  8 -1 -1</clus>
<clus scale="  131.055">  1  7  2 -1</clus>
<clus scale="  147.229">  2  9  1 -1</clus>
<clus scale="  147.229">  2  5  1 -1</clus>
</clustering>
</event>
<event>
 9    2  0.6190160E-005  0.3056568E+03  0.7546771E-02  0.1083548E+00
         21   -1    0    0  501  502  0.00000000000E+00  0.00000000000E+00  0.17028350369E+03  0.17028350369E+03  0.00000000000E+00 0. -1.
          2   -1    0    0  502    0 -0.00000000000E+00 -0.00000000000E+00 -0.10664856204E+04  0.10664856204E+04  0.00000000000E+00 0. -1.
         24    2    1    2    0    0 -0.28643054614E+03 -0.22368228569E+02 -0.27071444262E+03  0.40251484393E+03  0.78670799728E+02 0.  0.
         23    2    1    2    0    0  0.27570017365E+03 -0.14524099564E+03 -0.22254599249E+03  0.39771105011E+03  0.10743290019E+03 0.  0.
        -13    1    3    3    0    0 -0.16572297813E+03  0.15165576247E+02 -0.11664266971E+03  0.20322306114E+03  0.00000000000E+00 0.  1.
         14    1    3    3    0    0 -0.12070756801E+03 -0.37533804816E+02 -0.15407177291E+03  0.19929178279E+03  0.00000000000E+00 0. -1.
        -11    1    4    4    0    0  0.95595717240E+02 -0.47245434323E+02 -0.18094507389E+02  0.10815767849E+03  0.00000000000E+00 0.  1.
         11    1    4    4    0    0  0.18010445641E+03 -0.97995561321E+02 -0.20445148510E+03  0.28955337162E+03  0.00000000000E+00 0. -1.
          1    1    1    2  501    0  0.10730372489E+02  0.16760922421E+03 -0.40294168159E+03  0.43654323005E+03  0.00000000000E+00 0. -1.
<scales pt_clust_5="13000.00000" pt_clust_6="13000.00000" pt_clust_7="13000.00000" pt_clust_8="13000.00000" pt_clust_9="167.95244"></scales>
<clustering>
<clus scale="   78.671">  5  6 -1 -1</clus>
<clus scale="  107.433">  7  8 -1 -1</clus>
<clus scale="  167.952">  1  9  2 -1</clus>
<clus scale="  296.772">  2  5  1 -1</clus>
<clus scale="  167.952">  1  5  2 -1</clus>
</clustering>
</event>
<event>
 9    2  0.6190160E-005  0.1387271E+03  0.7546771E-02  0.1218232E+00
         21   -1    0    0  501  502  0.00000000000E+00  0.00000000000E+00  0.13815957910E+03  0.13815957910E+03  0.00000000000E+00 0.  1.
          2   -1    0    0  502    0 -0.00000000000E+00 -0.00000000000E+00 -0.64940191616E+03  0.64940191616E+03  0.00000000000E+00 0. -1.
         24    2    1    2    0    0 -0.44116728825E+02  0.87890044358E+02 -0.49531255099E+03  0.51159079919E+03  0.81973635950E+02 0.  0.
         23    2    1    2    0    0  0.64182171060E+02 -0.91235276012E+02 -0.10758361565E+03  0.18208652796E+03  0.95593109788E+02 0.  0.
        -11    1    3    3    0    0  0.22875831688E+02  0.22636826049E+02 -0.88578358568E+02  0.94243594879E+02  0.00000000000E+00 0.  1.
         12    1    3    3    0    0 -0.66992560513E+02  0.65253218309E+02 -0.40673419242E+03  0.41734720431E+03  0.00000000000E+00 0. -1.
        -13    1    4    4    0    0  0.86391270992E+02 -0.89055021172E+02 -0.85420984814E+02  0.15063529847E+03  0.00000000000E+00 0.  1.
         13    1    4    4    0    0 -0.22209099932E+02 -0.21802548396E+01 -0.22162630831E+02  0.31451229488E+02  0.00000000000E+00 0. -1.
          1    1    1    2  501    0 -0.20065442235E+02  0.33452316537E+01  0.91653829572E+02  0.93884168112E+02  0.00000000000E+00 0. -1.
<scales pt_clust_5="13000.00000" pt_clust_6="13000.00000" pt_clust_7="13000.00000" pt_clust_8="13000.00000" pt_clust_9="20.34238"></scales>
<clustering>
<clus scale="   20.342">  1  9  2 -1</clus>
<clus scale="   81.974">  5  6 -1 -1</clus>
<clus scale="   95.593">  7  8 -1 -1</clus>
<clus scale="  129.718">  2  5  1 -1</clus>
<clus scale="   20.342">  1  5  2 -1</clus>
</clustering>
</event>
<event>
 9    2  0.6190160E-005  0.1122511E+03  0.7546771E-02  0.1262678E+00
         21   -1    0    0  501  502  0.00000000000E+00  0.00000000000E+00  0.63842783442E+02  0.63842783442E+02  0.00000000000E+00 0.  1.
         -3   -1    0    0    0  501 -0.00000000000E+00 -0.00000000000E+00 -0.32795336595E+03  0.32795336595E+03  0.00000000000E+00 0.  1.
         23    2    1    2    0    0 -0.60196009734E+02 -0.38693960868E+02 -0.23208645304E+03  0.26081560859E+03  0.95078271971E+02 0.  0.
         24    2    1    2    0    0  0.22965832799E+02  0.20664858486E+02 -0.16416555345E+02  0.86768201154E+02  0.79402465892E+02 0.  0.
        -13    1    4    4    0    0  0.45522202822E+02 -0.10510933631E+02 -0.92114355674E+01  0.47619336627E+02  0.00000000000E+00 0.  1.
         14    1    4    4    0    0 -0.22556370023E+02  0.31175792117E+02 -0.72051197774E+01  0.39148864527E+02  0.00000000000E+00 0. -1.
        -13    1    3    3    0    0 -0.78278619528E+02 -0.23136498297E+02 -0.21875751467E+03  0.23349023546E+03  0.00000000000E+00 0.  1.
         13    1    3    3    0    0  0.18082609794E+02 -0.15557462571E+02 -0.13328938373E+02  0.27325373131E+02  0.00000000000E+00 0. -1.
         -4    1    1    2    0  502  0.37230176936E+02  0.18029102382E+02 -0.15607574117E+02  0.44212339648E+02  0.00000000000E+00 0.  1.
<scales pt_clust_5="13000.00000" pt_clust_6="13000.00000" pt_clust_7="13000.00000" pt_clust_8="13000.00000" pt_clust_9="41.36586"></scales>
<clustering>
<clus scale="   41.366">  1  9  2 -1</clus>
<clus scale="   79.402">  5  6 -1 -1</clus>
<clus scale="   95.078">  7  8 -1 -1</clus>
<clus scale="   99.324">  1  5  2 -1</clus>
<clus scale="   41.366">  1  5  2 -1</clus>
</clustering>
</event>
<event>
 9    2  0.6190160E-005  0.1267190E+03  0.7546771E-02  0.1234589E+00
         -3   -1    0    0    0  501 -0.00000000000E+00  0.00000000000E+00  0.11701779591E+03  0.11701779591E+03  0.00000000000E+00 0.  1.
         21   -1    0    0  501  502  0.00000000000E+00 -0.00000000000E+00 -0.22655228050E+03  0.22655228050E+03  0.00000000000E+00 0.  1.
         24    2    1    2    0    0  0.88668546556E+02 -0.62961711683E+02  0.79054868379E+01  0.13522199334E+03  0.79976261939E+02 0.  0.
         23    2    1    2    0    0 -0.57521872368E+02  0.13876519634E+02 -0.10411644973E+03  0.14870759664E+03  0.88161162625E+02 0.  0.
        -11    1    3    3    0    0  0.36738551387E+02 -0.73156012623E+02  0.11455603663E+01  0.81870847373E+02  0.00000000000E+00 0.  1.
         12    1    3    3    0    0  0.51929995169E+02  0.10194300940E+02  0.67599264716E+01  0.53351145965E+02  0.00000000000E+00 0. -1.
        -11    1    4    4    0    0 -0.55076579826E+02 -0.28920521715E+02 -0.50931942445E+02  0.80398314552E+02  0.00000000000E+00 0. -1.
         11    1    4    4    0    0 -0.24452925419E+01  0.42797041349E+02 -0.53184507284E+02  0.68309282084E+02  0.00000000000E+00 0.  1.
         -4    1    1    2    0  502 -0.31146674188E+02  0.49085192049E+02 -0.13323521703E+02  0.59640486434E+02  0.00000000000E+00 0.  1.
<scales pt_clust_5="13000.00000" pt_clust_6="13000.00000" pt_clust_7="13000.00000" pt_clust_8="13000.00000" pt_clust_9="58.13325"></scales>
<clustering>
<clus scale="   58.133">  2  9  1 -1</clus>
<clus scale="   79.976">  5  6 -1 -1</clus>
<clus scale="   88.161">  7  8 -1 -1</clus>
<clus scale="  121.167">  1  5  2 -1</clus>
<clus scale="   58.133">  2  5  1 -1</clus>
</clustering>
</event>
<event>
 9    2  0.6190160E-005  0.9849631E+02  0.7546771E-02  0.1285952E+00
          2   -1    0    0  502    0 -0.00000000000E+00  0.00000000000E+00  0.64198435476E+03  0.64198435476E+03  0.00000000000E+00 0. -1.
         21   -1    0    0  501  502  0.00000000000E+00 -0.00000000000E+00 -0.24835585290E+02  0.24835585290E+02  0.00000000000E+00 0.  1.
         24    2    1    2    0    0 -0.83282061488E+01 -0.22926077446E+02  0.44968412338E+03  0.45948775439E+03  0.91204284798E+02 0.  0.
         23    2    1    2    0    0  0.24568685155E+02  0.74423123739E+01  0.12800080436E+03  0.16193510488E+03  0.95811084815E+02 0.  0.
        -13    1    3    3    0    0  0.40377963706E+02 -0.14801090909E+02  0.16276502814E+03  0.16835054686E+03  0.00000000000E+00 0.  1.
         14    1    3    3    0    0 -0.48706169855E+02 -0.81249865377E+01  0.28691909524E+03  0.29113720752E+03  0.00000000000E+00 0. -1.
        -13    1    4    4    0    0 -0.57398332961E+00 -0.34096155217E+02  0.11946758514E+02  0.36133119107E+02  0.00000000000E+00 0. -1.
         13    1    4    4    0    0  0.25142668484E+02  0.41538467591E+02  0.11605404584E+03  0.12580198577E+03  0.00000000000E+00 0.  1.
          1    1    1    2  501    0 -0.16240479006E+02  0.15483765073E+02  0.39463841734E+02  0.45397080782E+02  0.00000000000E+00 0. -1.
<scales pt_clust_5="13000.00000" pt_clust_6="13000.00000" pt_clust_7="13000.00000" pt_clust_8="13000.00000" pt_clust_9="22.43881"></scales>
<clustering>
<clus scale="   22.439">  2  9  1 -1</clus>
<clus scale="   91.204">  5  6 -1 -1</clus>
<clus scale="   94.021">  1  5  2 -1</clus>
<clus scale="   95.811">  7  8 -1 -1</clus>
<clus scale="   22.439">  2  5  1 -1</clus>
</clustering>
</event>
<event>
 9    2  0.6190160E-005  0.9103735E+02  0.7546771E-02  0.1307934E+00
         21   -1    0    0  501  502  0.00000000000E+00  0.00000000000E+00  0.62986708497E+02  0.62986708497E+02  0.00000000000E+00 0. -1.
         -1   -1    0    0    0  501 -0.00000000000E+00 -0.00000000000E+00 -0.23945744506E+03  0.23945744506E+03  0.00000000000E+00 0.  1.
         24    2    1    2    0    0  0.73541694918E+01  0.15918643422E+02 -0.13020614376E+03  0.15322860950E+03  0.78853534364E+02 0.  0.
         23    2    1    2    0    0  0.62256369356E+01  0.99942711099E+01 -0.66985170984E+02  0.11336540261E+03  0.90697614996E+02 0.  0.
        -13    1    3    3    0    0 -0.67556548454E+01 -0.30984825212E+02 -0.54678214344E+02  0.63209219182E+02  0.00000000000E+00 0.  1.
         14    1    3    3    0    0  0.14109824337E+02  0.46903468634E+02 -0.75527929411E+02  0.90019390322E+02  0.00000000000E+00 0. -1.
        -13    1    4    4    0    0  0.36230068559E+01  0.34767106608E+02  0.66930930117E+01  0.35590383176E+02  0.00000000000E+00 0. -1.
         13    1    4    4    0    0  0.26026300797E+01 -0.24772835498E+02 -0.73678263995E+02  0.77775019430E+02  0.00000000000E+00 0.  1.
         -2    1    1    2    0  502 -0.13579806427E+02 -0.25912914532E+02  0.20720578173E+02  0.35850141450E+02  0.00000000000E+00 0.  1.
<scales pt_clust_5="13000.00000" pt_clust_6="13000.00000" pt_clust_7="13000.00000" pt_clust_8="13000.00000" pt_clust_9="29.25560"></scales>
<clustering>
<clus scale="   29.256">  1  9  2 -1</clus>
<clus scale="   78.854">  5  6 -1 -1</clus>
<clus scale="   79.244">  2  5  1 -1</clus>
<clus scale="   90.698">  7  8 -1 -1</clus>
<clus scale="   29.256">  1  5  2 -1</clus>
</clustering>
</event>
<event>
 9    2  0.6190160E-005  0.1287809E+03  0.7546771E-02  0.1251981E+00
         21   -1    0    0  501  502  0.00000000000E+00  0.00000000000E+00  0.28643000333E+02  0.28643000333E+02  0.00000000000E+00 0.  1.
         -1   -1    0    0    0  501 -0.00000000000E+00 -0.00000000000E+00 -0.11920255150E+04  0.11920255150E+04  0.00000000000E+00 0.  1.
         24    2    1    2    0    0  0.82437770883E+01  0.11456706205E+02 -0.50754945563E+03  0.51401024487E+03  0.80005411934E+02 0.  0.
         23    2    1    2    0    0  0.78444937187E+02  0.25688637488E+02 -0.55634315315E+03  0.56957088550E+03  0.89887570256E+02 0.  0.
        -11    1    3    3    0    0  0.92375289792E+01 -0.31563968640E+02 -0.13339781573E+03  0.13739211513E+03  0.00000000000E+00 0.  1.
         12    1    3    3    0    0 -0.99375189089E+00  0.43020674844E+02 -0.37415163990E+03  0.37661812974E+03  0.00000000000E+00 0. -1.
        -11    1    4    4    0    0 -0.16235281652E+02  0.17445542953E+02 -0.67718411897E+02  0.71789376994E+02  0.00000000000E+00 0. -1.
         11    1    4    4    0    0  0.94680218839E+02  0.82430945348E+01 -0.48862474126E+03  0.49778150851E+03  0.00000000000E+00 0.  1.
         -2    1    1    2    0  502 -0.86688714276E+02 -0.37145343693E+02 -0.99489905850E+02  0.13708738493E+03  0.00000000000E+00 0.  1.
<scales pt_clust_5="13000.00000" pt_clust_6="13000.00000" pt_clust_7="13000.00000" pt_clust_8="13000.00000" pt_clust_9="92.22123"></scales>
<clustering>
<clus scale="   80.005">  5  6 -1 -1</clus>
<clus scale="   81.241">  2  5  1 -1</clus>
<clus scale="   89.888">  7  8 -1 -1</clus>
<clus scale="   92.221">  1  9  2 -1</clus>
<clus scale="   92.221">  1  5  2 -1</clus>
</clustering>
</event>
<event>
 9    2  0.6190160E-005  0.1097102E+03  0.7546771E-02  0.1265589E+00
         -3   -1    0    0    0  501 -0.00000000000E+00  0.00000000000E+00  0.95656888646E+03  0.95656888646E+03  0.00000000000E+00 0.  1.
         21   -1    0    0  501  502  0.00000000000E+00 -0.00000000000E+00 -0.17963571474E+02  0.17963571474E+02  0.00000000000E+00 0.  1.
         24    2    1    2    0    0 -0.41782124034E+02  0.22632723603E+02  0.38468722734E+03  0.39606694386E+03  0.81405006471E+02 0.  0.
         23    2    1    2    0    0  0.64417150364E+02 -0.49562715601E+02  0.33879821668E+03  0.36048815797E+03  0.92528095052E+02 0.  0.
        -13    1    3    3    0    0 -0.53474991559E+02  0.35528694888E+02  0.36103698054E+03  0.36670091928E+03  0.00000000000E+00 0.  1.
         14    1    3    3    0    0  0.11692867525E+02 -0.12895971284E+02  0.23650246796E+02  0.29366024584E+02  0.00000000000E+00 0. -1.
        -13    1    4    4    0    0  0.16993748012E+02  0.23626640016E+02  0.14614909603E+03  0.14901866951E+03  0.00000000000E+00 0. -1.
         13    1    4    4    0    0  0.47423402352E+02 -0.73189355617E+02  0.19264912065E+03  0.21146948846E+03  0.00000000000E+00 0.  1.
         -4    1    1    2    0  502 -0.22635026330E+02  0.26929991998E+02  0.21511987097E+03  0.21797735610E+03  0.00000000000E+00 0.  1.
<scales pt_clust_5="13000.00000" pt_clust_6="13000.00000" pt_clust_7="13000.00000" pt_clust_8="13000.00000" pt_clust_9="35.17911"></scales>
<clustering>
<clus scale="   35.179">  2  9  1 -1</clus>
<clus scale="   81.405">  5  6 -1 -1</clus>
<clus scale="   92.528">  7  8 -1 -1</clus>
<clus scale="  100.507">  1  5  2 -1</clus>
<clus scale="   35.179">  2  5  1 -1</clus>
</clustering>
</event>
<event>
 9    2  0.6190160E-005  0.9232614E+02  0.7546771E-02  0.1305121E+00
         21   -1    0    0  501  502  0.00000000000E+00  0.00000000000E+00  0.61631154769E+03  0.61631154769E+03  0.00000000000E+00 0. -1.
          2   -1    0    0  502    0 -0.00000000000E+00 -0.00000000000E+00 -0.23189390932E+02  0.23189390932E+02  0.00000000000E+00 0. -1.
         24    2    1    2    0    0  0.11423701528E+02  0.20167147406E+02  0.10652406914E+03  0.13429655352E+03  0.78428133912E+02 0.  0.
         23    2    1    2    0    0  0.19286322730E+02 -0.50319732530E+01  0.26318160937E+03  0.27917982485E+03  0.90991934222E+02 0.  0.
        -11    1    3    3    0    0 -0.21606417042E+02 -0.60412458488E+01  0.31515179561E+01  0.22655374070E+02  0.00000000000E+00 0.  1.
         12    1    3    3    0    0  0.33030118570E+02  0.26208393254E+02  0.10337255118E+03  0.11164117945E+03  0.00000000000E+00 0. -1.
        -11    1    4    4    0    0  0.62029599140E+01  0.35564439368E+02  0.19812849654E+03  0.20139068300E+03  0.00000000000E+00 0.  1.
         11    1    4    4    0    0  0.13083362816E+02 -0.40596412621E+02  0.65053112826E+02  0.77789141843E+02  0.00000000000E+00 0. -1.
          1    1    1    2  501    0 -0.30710024258E+02 -0.15135174153E+02  0.22341647825E+03  0.22602456026E+03  0.00000000000E+00 0. -1.
<scales pt_clust_5="13000.00000" pt_clust_6="13000.00000" pt_clust_7="13000.00000" pt_clust_8="13000.00000" pt_clust_9="34.23710"></scales>
<clustering>
<clus scale="   34.237">  1  9  2 -1</clus>
<clus scale="   78.428">  5  6 -1 -1</clus>
<clus scale="   79.972">  2  5  1 -1</clus>
<clus scale="   90.992">  7  8 -1 -1</clus>
<clus scale="   34.237">  1  5  2 -1</clus>
</clustering>
</event>
<event>
 9    2  0.6190160E-005  0.9560844E+02  0.7546771E-02  0.1295969E+00
          2   -1    0    0  502    0 -0.00000000000E+00  0.00000000000E+00  0.25867826003E+03  0.25867826003E+03  0.00000000000E+00 0. -1.
         21   -1    0    0  501  502  0.00000000000E+00 -0.00000000000E+00 -0.57802023047E+02  0.57802023047E+02  0.00000000000E+00 0. -1.
         23    2    1    2    0    0  0.41262452049E+01  0.26112585788E+02  0.15910356374E+03  0.18532450075E+03  0.91281616714E+02 0.  0.
         24    2    1    2    0    0 -0.35252763797E+02 -0.24228907109E+02  0.20223769252E+02  0.93251116801E+02  0.80355290099E+02 0.  0.
        -13    1    4    4    0    0  0.70645042696E+01 -0.40438348133E+02  0.24381224636E+02  0.47745275526E+02  0.00000000000E+00 0.  1.
         14    1    4    4    0    0 -0.42317268066E+02  0.16209441024E+02 -0.41574553841E+01  0.45505841275E+02  0.00000000000E+00 0. -1.
        -13    1    3    3    0    0  0.35643843864E+02  0.41738539776E+02  0.66264720801E+02  0.86044189408E+02  0.00000000000E+00 0.  1.
         13    1    3    3    0    0 -0.31517598660E+02 -0.15625953988E+02  0.92838842936E+02  0.99280311346E+02  0.00000000000E+00 0. -1.
          1    1    1    2  501    0  0.31126518592E+02 -0.18836786795E+01  0.21548903994E+02  0.37904665522E+02  0.00000000000E+00 0. -1.
<scales pt_clust_5="13000.00000" pt_clust_6="13000.00000" pt_clust_7="13000.00000" pt_clust_8="13000.00000" pt_clust_9="31.18346"></scales>
<clustering>
<clus scale="   31.183">  2  9  1 -1</clus>
<clus scale="   80.355">  5  6 -1 -1</clus>
<clus scale="   85.239">  2  5  1 -1</clus>
<clus scale="   91.282">  7  8 -1 -1</clus>
<clus scale="   31.183">  2  5  1 -1</clus>
</clustering>
</event>
<event>
 9    2  0.6190160E-005  0.1113585E+03  0.7546771E-02  0.1259961E+00
         -1   -1    0    0    0  501 -0.00000000000E+00  0.00000000000E+00  0.64402549999E+02  0.64402549999E+02  0.00000000000E+00 0.  1.
         21   -1    0    0  501  502  0.00000000000E+00 -0.00000000000E+00 -0.41488706831E+03  0.41488706831E+03  0.00000000000E+00 0. -1.
         23    2    1    2    0    0  0.30632753612E+02  0.38883887048E+02 -0.11061946747E+03  0.15193255310E+03  0.91632482456E+02 0.  0.
         24    2    1    2    0    0 -0.69616441913E+02 -0.27404489727E+02 -0.25604146568E+03  0.28361714165E+03  0.96353494236E+02 0.  0.
        -11    1    4    4    0    0  0.19683137600E+02 -0.18310015597E+02 -0.29347282196E+02  0.39798813415E+02  0.00000000000E+00 0.  1.
         12    1    4    4    0    0 -0.89299579513E+02 -0.90944741298E+01 -0.22669418348E+03  0.24381832824E+03  0.00000000000E+00 0. -1.
        -13    1    3    3    0    0 -0.32768870988E+02  0.88083117242E+01 -0.38109357482E+02  0.51026545924E+02  0.00000000000E+00 0.  1.
         13    1    3    3    0    0  0.63401624600E+02  0.30075575324E+02 -0.72510109991E+02  0.10090600717E+03  0.00000000000E+00 0. -1.
         -2    1    1    2    0  502  0.38983688301E+02 -0.11479397322E+02  0.16176414834E+02  0.43739923563E+02  0.00000000000E+00 0.  1.
<scales pt_clust_5="13000.00000" pt_clust_6="13000.00000" pt_clust_7="13000.00000" pt_clust_8="13000.00000" pt_clust_9="40.63873"></scales>
<clustering>
<clus scale="   40.639">  2  9  1 -1</clus>
<clus scale="   91.632">  7  8 -1 -1</clus>
<clus scale="   96.353">  5  6 -1 -1</clus>
<clus scale="  107.300">  1  7  2 -1</clus>
<clus scale="   40.639">  2  5  1 -1</clus>
</clustering>
</event>
<event>
 9    2  0.6190160E-005  0.9798799E+02  0.7546771E-02  0.1286516E+00
         -1   -1    0    0    0  501 -0.00000000000E+00  0.00000000000E+00  0.54947546701E+03  0.54947546701E+03  0.00000000000E+00 0.  1.
         21   -1    0    0  501  502  0.00000000000E+00 -0.00000000000E+00 -0.39403434917E+02  0.39403434917E+02  0.00000000000E+00 0.  1.
         24    2    1    2    0    0 -0.20399627480E+02  0.69027448808E+02  0.25364112606E+03  0.27786812965E+03  0.87726524814E+02 0.  0.
         23    2    1    2    0    0 -0.20145198482E+02  0.18147613454E+00  0.16175255715E+03  0.18692310991E+03  0.91490422007E+02 0.  0.
        -11    1    3    3    0    0 -0.24330120269E+02  0.66951074260E+02  0.26029476033E+03  0.26986619527E+03  0.00000000000E+00 0.  1.
         12    1    3    3    0    0  0.39304927898E+01  0.20763745481E+01 -0.66536342667E+01  0.80019343780E+01  0.00000000000E+00 0. -1.
        -11    1    4    4    0    0 -0.13648834967E+02 -0.35715588227E+02  0.13845720032E+03  0.14363944534E+03  0.00000000000E+00 0. -1.
         11    1    4    4    0    0 -0.64963635148E+01  0.35897064362E+02  0.23295356835E+02  0.43283664572E+02  0.00000000000E+00 0.  1.
         -2    1    1    2    0  502  0.40544825962E+02 -0.69208924943E+02  0.94678348878E+02  0.12408766236E+03  0.00000000000E+00 0.  1.
<scales pt_clust_5="13000.00000" pt_clust_6="13000.00000" pt_clust_7="13000.00000" pt_clust_8="13000.00000" pt_clust_9="80.21071"></scales>
<clustering>
<clus scale="   80.211">  2  9  1 -1</clus>
<clus scale="   87.727">  5  6 -1 -1</clus>
<clus scale="   91.490">  7  8 -1 -1</clus>
<clus scale="   94.483">  1  5  2 -1</clus>
<clus scale="   80.211">  2  5  1 -1</clus>
</clustering>
</event>
<event>
 9    2  0.6190160E-005  0.1196249E+03  0.7546771E-02  0.1243982E+00
         21   -1    0    0  501  502  0.00000000000E+00  0.00000000000E+00  0.15301178141E+03  0.15301178141E+03  0.00000000000E+00 0.  1.
          2   -1    0    0  502    0 -0.00000000000E+00 -0.00000000000E+00 -0.40126078888E+03  0.40126078888E+03  0.00000000000E+00 0. -1.
         23    2    1    2    0    0 -0.54932656675E+02 -0.53204547080E+02 -0.20008563340E+03  0.23303054077E+03  0.91764108656E+02 0.  0.
         24    2    1    2    0    0  0.75604290645E+02  0.24207778301E+02 -0.16153668554E+03  0.20240753619E+03  0.92588793250E+02 0.  0.
        -13    1    4    4    0    0  0.28454047033E+02  0.29843079924E+02 -0.84046091424E+01  0.42081821096E+02  0.00000000000E+00 0.  1.
         14    1    4    4    0    0  0.47150243611E+02 -0.56353016235E+01 -0.15313207640E+03  0.16032571509E+03  0.00000000000E+00 0. -1.
        -13    1    3    3    0    0 -0.36552326372E+02 -0.68536390949E+02 -0.83615950794E+02  0.11412684467E+03  0.00000000000E+00 0.  1.
         13    1    3    3    0    0 -0.18380330303E+02  0.15331843869E+02 -0.11646968261E+03  0.11890369610E+03  0.00000000000E+00 0. -1.
          1    1    1    2  501    0 -0.20671633970E+02  0.28996768779E+02  0.11337331147E+03  0.11883449333E+03  0.00000000000E+00 0. -1.
<scales pt_clust_5="13000.00000" pt_clust_6="13000.00000" pt_clust_7="13000.00000" pt_clust_8="13000.00000" pt_clust_9="35.61080"></scales>
<clustering>
<clus scale="   35.611">  1  9  2 -1</clus>
<clus scale="   91.764">  7  8 -1 -1</clus>
<clus scale="   92.589">  5  6 -1 -1</clus>
<clus scale="  118.988">  2  7  1 -1</clus>
<clus scale="   35.611">  1  5  2 -1</clus>
</clustering>
</event>
<event>
 9    2  0.6190160E-005  0.1542568E+03  0.7546771E-02  0.1219550E+00
          2   -1    0    0  502    0 -0.00000000000E+00  0.00000000000E+00  0.62807924013E+02  0.62807924013E+02  0.00000000000E+00 0. -1.
         21   -1    0    0  501  502  0.00000000000E+00 -0.00000000000E+00 -0.10469103365E+04  0.10469103365E+04  0.00000000000E+00 0. -1.
         24    2    1    2    0    0 -0.18185503739E+02  0.30086468049E+02 -0.62529939232E+01  0.91985699340E+02  0.84772406148E+02 0.  0.
         23    2    1    2    0    0  0.82562805111E+02  0.86123019577E+02 -0.50302298033E+03  0.52467148140E+03  0.89522362351E+02 0.  0.
        -13    1    3    3    0    0 -0.39088032032E+02  0.47460729391E+02 -0.15262461538E+02  0.63350910133E+02  0.00000000000E+00 0.  1.
         14    1    3    3    0    0  0.20902528293E+02 -0.17374261342E+02  0.90094676144E+01  0.28634789207E+02  0.00000000000E+00 0. -1.
        -13    1    4    4    0    0  0.88958356956E+02  0.45547707383E+02 -0.26680953180E+03  0.28491316077E+03  0.00000000000E+00 0.  1.
         13    1    4    4    0    0 -0.63955518458E+01  0.40575312194E+02 -0.23621344853E+03  0.23975832063E+03  0.00000000000E+00 0. -1.
          1    1    1    2  501    0 -0.64377301372E+02 -0.11620948763E+03 -0.47482643825E+03  0.49306107979E+03  0.00000000000E+00 0. -1.
<scales pt_clust_5="13000.00000" pt_clust_6="13000.00000" pt_clust_7="13000.00000" pt_clust_8="13000.00000" pt_clust_9="125.62208"></scales>
<clustering>
<clus scale="   84.772">  5  6 -1 -1</clus>
<clus scale="   89.522">  7  8 -1 -1</clus>
<clus scale="   91.773">  1  5  2 -1</clus>
<clus scale="  125.622">  2  9  1 -1</clus>
<clus scale="  125.622">  2  5  1 -1</clus>
</clustering>
</event>
<event>
 9    2  0.6190160E-005  0.2450353E+03  0.7546771E-02  0.1116483E+00
         21   -1    0    0  501  502  0.00000000000E+00  0.00000000000E+00  0.14070011513E+04  0.14070011513E+04  0.00000000000E+00 0. -1.
          4   -1    0    0  502    0 -0.00000000000E+00 -0.00000000000E+00 -0.34244250120E+02  0.34244250120E+02  0.00000000000E+00 0. -1.
         24    2    1    2    0    0 -0.54976180083E+02  0.10988745846E+03  0.29801888775E+03  0.33104487033E+03  0.75351276114E+02 0.  0.
         23    2    1    2    0    0 -0.47454543558E+02  0.50541566363E+01  0.22374163378E+03  0.24538929954E+03  0.88758726003E+02 0.  0.
        -13    1    3    3    0    0 -0.61419162735E+02  0.88247911045E+02  0.17069418888E+03  0.20173376880E+03  0.00000000000E+00 0.  1.
         14    1    3    3    0    0  0.64429826527E+01  0.21639547420E+02  0.12732469887E+03  0.12931110153E+03  0.00000000000E+00 0. -1.
        -13    1    4    4    0    0 -0.56639811763E+02 -0.30297619088E+02  0.14468235778E+03  0.15830034319E+03  0.00000000000E+00 0. -1.
         13    1    4    4    0    0  0.91852682044E+01  0.35351775725E+02  0.79059275994E+02  0.87088956358E+02  0.00000000000E+00 0.  1.
          3    1    1    2  501    0  0.10243072364E+03 -0.11494161510E+03  0.85099637967E+03  0.86481123156E+03  0.00000000000E+00 0. -1.
<scales pt_clust_5="13000.00000" pt_clust_6="13000.00000" pt_clust_7="13000.00000" pt_clust_8="13000.00000" pt_clust_9="153.95983"></scales>
<clustering>
<clus scale="   75.351">  5  6 -1 -1</clus>
<clus scale="   88.759">  7  8 -1 -1</clus>
<clus scale="  100.309">  5  7 -1 -1</clus>
<clus scale="  153.960">  1  9  2 -1</clus>
<clus scale="  153.960">  1  5  2 -1</clus>
</clustering>
</event>
<event>
 9    2  0.6190160E-005  0.1304945E+03  0.7546771E-02  0.1228520E+00
         21   -1    0    0  501  502  0.00000000000E+00  0.00000000000E+00  0.12140004117E+04  0.12140004117E+04  0.00000000000E+00 0.  1.
         -1   -1    0    0    0  501 -0.00000000000E+00 -0.00000000000E+00 -0.39647586118E+02  0.39647586118E+02  0.00000000000E+00 0.  1.
         24    2    1    2    0    0  0.84555368499E+02 -0.80307447456E+01  0.17613399075E+03  0.21327722046E+03  0.85146267493E+02 0.  0.
         23    2    1    2    0    0 -0.11808619754E+03 -0.94701120759E+02  0.73025902408E+03  0.75144065974E+03  0.92044394384E+02 0.  0.
        -11    1    3    3    0    0  0.79798623324E+00  0.28590531669E+02  0.36293258843E+02  0.46208829466E+02  0.00000000000E+00 0.  1.
         12    1    3    3    0    0  0.83757382266E+02 -0.36621276415E+02  0.13984073191E+03  0.16706839100E+03  0.00000000000E+00 0. -1.
        -11    1    4    4    0    0 -0.12342201345E+02 -0.60790963852E+02  0.18940465670E+03  0.19930377618E+03  0.00000000000E+00 0. -1.
         11    1    4    4    0    0 -0.10574399619E+03 -0.33910156906E+02  0.54085436738E+03  0.55213688356E+03  0.00000000000E+00 0.  1.
         -2    1    1    2    0  502  0.33530829040E+02  0.10273186550E+03  0.26795981073E+03  0.28893011759E+03  0.00000000000E+00 0.  1.
<scales pt_clust_5="13000.00000" pt_clust_6="13000.00000" pt_clust_7="13000.00000" pt_clust_8="13000.00000" pt_clust_9="108.06556"></scales>
<clustering>
<clus scale="   85.146">  5  6 -1 -1</clus>
<clus scale="   92.044">  7  8 -1 -1</clus>
<clus scale="  108.066">  1  9  2 -1</clus>
<clus scale="  125.724">  2  5  1 -1</clus>
<clus scale="  108.066">  1  5  2 -1</clus>
</clustering>
</event>
<event>
 9    2  0.6190160E-005  0.1183000E+03  0.7546771E-02  0.1260124E+00
          4   -1    0    0  502    0 -0.00000000000E+00  0.00000000000E+00  0.20347802712E+03  0.20347802712E+03  0.00000000000E+00 0. -1.
         21   -1    0    0  501  502  0.00000000000E+00 -0.00000000000E+00 -0.12746171073E+03  0.12746171073E+03  0.00000000000E+00 0.  1.
         24    2    1    2    0    0 -0.18847031208E+02  0.30675474506E+02  0.49744640258E+01  0.89349865033E+02  0.81623879886E+02 0.  0.
         23    2    1    2    0    0  0.17052300753E+00  0.63689153624E+02 -0.13951181051E+02  0.11322589527E+03  0.92569598358E+02 0.  0.
        -11    1    3    3    0    0 -0.44789219427E+02  0.18394514883E+02 -0.18938642046E+02  0.51991388875E+02  0.00000000000E+00 0.  1.
         12    1    3    3    0    0  0.25942188219E+02  0.12280959623E+02  0.23913106072E+02  0.37358476158E+02  0.00000000000E+00 0. -1.
        -13    1    4    4    0    0  0.39510167571E+01 -0.20478970349E+02 -0.19815650023E+02  0.28769058827E+02  0.00000000000E+00 0. -1.
         13    1    4    4    0    0 -0.37804937496E+01  0.84168123972E+02  0.58644689729E+01  0.84456836445E+02  0.00000000000E+00 0.  1.
          3    1    1    2  501    0  0.18676508200E+02 -0.94364628130E+02  0.84993033414E+02  0.12836397754E+03  0.00000000000E+00 0. -1.
<scales pt_clust_5="13000.00000" pt_clust_6="13000.00000" pt_clust_7="13000.00000" pt_clust_8="13000.00000" pt_clust_9="73.65987"></scales>
<clustering>
<clus scale="   81.624">  5  6 -1 -1</clus>
<clus scale="   89.211">  1  5  2 -1</clus>
<clus scale="   73.660">  2  9  1 -1</clus>
<clus scale="   92.570">  7  8 -1 -1</clus>
<clus scale="   73.660">  2  5  1 -1</clus>
</clustering>
</event>
<event>
 9    2  0.6190160E-005  0.1091766E+03  0.7546771E-02  0.1267567E+00
         21   -1    0    0  501  502  0.00000000000E+00  0.00000000000E+00  0.40560666375E+02  0.40560666375E+02  0.00000000000E+00 0. -1.
         -3   -1    0    0    0  501 -0.00000000000E+00 -0.00000000000E+00 -0.79855014829E+03  0.79855014829E+03  0.00000000000E+00 0.  1.
         23    2    1    2    0    0 -0.27048989958E+02  0.58719508709E+02 -0.62529438187E+03  0.63540645110E+03  0.92567086717E+02 0.  0.
         24    2    1    2    0    0  0.11760713405E+02 -0.39979088837E+02 -0.14949371209E+03  0.17425732460E+03  0.79250257406E+02 0.  0.
        -13    1    4    4    0    0 -0.11096386495E+02 -0.58344382579E+02 -0.88483253954E+02  0.10656680066E+03  0.00000000000E+00 0.  1.
         14    1    4    4    0    0  0.22857099900E+02  0.18365293742E+02 -0.61010458131E+02  0.67690523941E+02  0.00000000000E+00 0. -1.
        -13    1    3    3    0    0  0.17534581454E+02  0.65504908506E+02 -0.37614027238E+03  0.38220394960E+03  0.00000000000E+00 0. -1.
         13    1    3    3    0    0 -0.44583571412E+02 -0.67853997969E+01 -0.24915410949E+03  0.25320250150E+03  0.00000000000E+00 0.  1.
         -4    1    1    2    0  502  0.15288276553E+02 -0.18740419872E+02  0.16798612045E+02  0.29447038961E+02  0.00000000000E+00 0.  1.
<scales pt_clust_5="13000.00000" pt_clust_6="13000.00000" pt_clust_7="13000.00000" pt_clust_8="13000.00000" pt_clust_9="24.18542"></scales>
<clustering>
<clus scale="   24.185">  1  9  2 -1</clus>
<clus scale="   79.250">  5  6 -1 -1</clus>
<clus scale="   92.567">  7  8 -1 -1</clus>
<clus scale="   98.140">  1  5  2 -1</clus>
<clus scale="   24.185">  1  5  2 -1</clus>
</clustering>
</event>
<event>
 9    2  0.6190160E-005  0.1053752E+03  0.7546771E-02  0.1273681E+00
         21   -1    0    0  501  502  0.00000000000E+00  0.00000000000E+00  0.42762958531E+03  0.42762958531E+03  0.00000000000E+00 0.  1.
          4   -1    0    0  502    0 -0.00000000000E+00 -0.00000000000E+00 -0.50743584557E+02  0.50743584557E+02  0.00000000000E+00 0. -1.
         24    2    1    2    0    0  0.58326433193E+02  0.28496501932E+02  0.36871255051E+02  0.10948406353E+03  0.80082752744E+02 0.  0.
         23    2    1    2    0    0 -0.30997804291E+02  0.77255497999E+01  0.19897944242E+03  0.22073429622E+03  0.90056998782E+02 0.  0.
        -11    1    3    3    0    0 -0.62876100295E+01  0.36550394267E+02  0.65696076693E+01  0.37664639994E+02  0.00000000000E+00 0.  1.
         12    1    3    3    0    0  0.64614043223E+02 -0.80538923349E+01  0.30301647381E+02  0.71819423538E+02  0.00000000000E+00 0. -1.
        -13    1    4    4    0    0  0.71107821513E+00 -0.35678513626E+02  0.43730295063E+02  0.56442897455E+02  0.00000000000E+00 0. -1.
         13    1    4    4    0    0 -0.31708882507E+02  0.43404063426E+02  0.15524914736E+03  0.16429139876E+03  0.00000000000E+00 0.  1.
          3    1    1    2  501    0 -0.27328628902E+02 -0.36222051732E+02  0.14103530328E+03  0.14815481012E+03  0.00000000000E+00 0. -1.
<scales pt_clust_5="13000.00000" pt_clust_6="13000.00000" pt_clust_7="13000.00000" pt_clust_8="13000.00000" pt_clust_9="45.37500"></scales>
<clustering>
<clus scale="   45.375">  1  9  2 -1</clus>
<clus scale="   80.083">  5  6 -1 -1</clus>
<clus scale="   90.057">  7  8 -1 -1</clus>
<clus scale="   96.989">  2  5  1 -1</clus>
<clus scale="   45.375">  1  5  2 -1</clus>
</clustering>
</event>
<event>
 9    2  0.6190160E-005  0.1572915E+03  0.7546771E-02  0.1193510E+00
         -1   -1    0    0    0  501 -0.00000000000E+00  0.00000000000E+00  0.58604392006E+03  0.58604392006E+03  0.00000000000E+00 0.  1.
         21   -1    0    0  501  502  0.00000000000E+00 -0.00000000000E+00 -0.68517976986E+02  0.68517976986E+02  0.00000000000E+00 0. -1.
         24    2    1    2    0    0 -0.57870361344E+02  0.98866077878E+02  0.27185313755E+03  0.30926911831E+03  0.92842765292E+02 0.  0.
         23    2    1    2    0    0  0.41336585623E+02 -0.12035019704E+03  0.26555975122E+03  0.31167100417E+03  0.10209774795E+03 0.  0.
        -13    1    3    3    0    0 -0.91472585624E+01  0.59611582801E+02  0.21966124404E+03  0.22778998063E+03  0.00000000000E+00 0.  1.
         14    1    3    3    0    0 -0.48723102781E+02  0.39254495077E+02  0.52191893508E+02  0.81479137676E+02  0.00000000000E+00 0. -1.
        -13    1    4    4    0    0 -0.26838561534E+02 -0.59548406014E+02  0.69507573578E+02  0.95381464807E+02  0.00000000000E+00 0.  1.
         13    1    4    4    0    0  0.68175147157E+02 -0.60801791026E+02  0.19605217764E+03  0.21628953937E+03  0.00000000000E+00 0. -1.
         -2    1    1    2    0  502  0.16533775721E+02  0.21484119161E+02 -0.19886945695E+02  0.33621774563E+02  0.00000000000E+00 0.  1.
<scales pt_clust_5="13000.00000" pt_clust_6="13000.00000" pt_clust_7="13000.00000" pt_clust_8="13000.00000" pt_clust_9="27.10965"></scales>
<clustering>
<clus scale="   27.110">  2  9  1 -1</clus>
<clus scale="   92.843">  5  6 -1 -1</clus>
<clus scale="  102.098">  7  8 -1 -1</clus>
<clus scale="  151.448">  1  5  2 -1</clus>
<clus scale="   27.110">  2  5  1 -1</clus>
</clustering>
</event>
<event>
 9    2  0.6190160E-005  0.1480141E+03  0.7546771E-02  0.1217439E+00
          2   -1    0    0  502    0 -0.00000000000E+00  0.00000000000E+00  0.24221102526E+03  0.24221102526E+03  0.00000000000E+00 0. -1.
         21   -1    0    0  501  502  0.00000000000E+00 -0.00000000000E+00 -0.25835876912E+03  0.25835876912E+03  0.00000000000E+00 0.  1.
         24    2    1    2    0    0 -0.23202490614E+02  0.68894402962E+02 -0.15756723090E+03  0.19136758813E+03  0.80680401604E+02 0.  0.
         23    2    1    2    0    0 -0.21813153589E+01  0.78780131025E+02  0.92418169629E+02  0.15155311903E+03  0.90643050638E+02 0.  0.
        -11    1    3    3    0    0  0.85507380263E+01  0.48252920090E+02 -0.14235555971E+03  0.15055419223E+03  0.00000000000E+00 0.  1.
         12    1    3    3    0    0 -0.31753228641E+02  0.20641482872E+02 -0.15211671187E+02  0.40813395896E+02  0.00000000000E+00 0. -1.
        -11    1    4    4    0    0  0.34722664267E+02  0.22740031936E+02  0.68928274425E+02  0.80460421832E+02  0.00000000000E+00 0.  1.
         11    1    4    4    0    0 -0.36903979626E+02  0.56040099089E+02  0.23489895204E+02  0.71092697197E+02  0.00000000000E+00 0. -1.
          1    1    1    2  501    0  0.25383805973E+02 -0.14767453399E+03  0.49001317407E+02  0.15764908722E+03  0.00000000000E+00 0. -1.
<scales pt_clust_5="13000.00000" pt_clust_6="13000.00000" pt_clust_7="13000.00000" pt_clust_8="13000.00000" pt_clust_9="117.01287"></scales>
<clustering>
<clus scale="   80.680">  5  6 -1 -1</clus>
<clus scale="   90.643">  7  8 -1 -1</clus>
<clus scale="  108.601">  1  5  2 -1</clus>
<clus scale="  117.013">  2  9  1 -1</clus>
<clus scale="  117.013">  2  5  1 -1</clus>
</clustering>
</event>
<event>
 9    2  0.6190160E-005  0.1173060E+03  0.7546771E-02  0.1251670E+00
         21   -1    0    0  501  502  0.00000000000E+00  0.00000000000E+00  0.31532276661E+03  0.31532276661E+03  0.00000000000E+00 0.  1.
          2   -1    0    0  502    0 -0.00000000000E+00 -0.00000000000E+00 -0.68113662704E+02  0.68113662704E+02  0.00000000000E+00 0. -1.
         24    2    1    2    0    0  0.67770636229E+02 -0.15212870502E+02  0.21071794949E+02  0.10791401084E+03  0.79856888421E+02 0.  0.
         23    2    1    2    0    0 -0.73817432666E+02  0.44294956796E+02  0.16495876155E+03  0.20751399140E+03  0.91867333983E+02 0.  0.
        -11    1    3    3    0    0 -0.17615631765E+01  0.21485280876E+02 -0.94988616210E+01  0.23557350684E+02  0.00000000000E+00 0.  1.
         12    1    3    3    0    0  0.69532199406E+02 -0.36698151378E+02  0.30570656570E+02  0.84356660151E+02  0.00000000000E+00 0. -1.
        -11    1    4    4    0    0 -0.57242025234E+02  0.72572289902E+02  0.13090924780E+03  0.16025173283E+03  0.00000000000E+00 0. -1.
         11    1    4    4    0    0 -0.16575407431E+02 -0.28277333106E+02  0.34049513746E+02  0.47262258573E+02  0.00000000000E+00 0.  1.
          1    1    1    2  501    0  0.60467964364E+01 -0.29082086294E+02  0.61178547407E+02  0.68008427075E+02  0.00000000000E+00 0. -1.
<scales pt_clust_5="13000.00000" pt_clust_6="13000.00000" pt_clust_7="13000.00000" pt_clust_8="13000.00000" pt_clust_9="29.70407"></scales>
<clustering>
<clus scale="   29.704">  1  9  2 -1</clus>
<clus scale="   79.857">  5  6 -1 -1</clus>
<clus scale="   91.867">  7  8 -1 -1</clus>
<clus scale="  108.158">  2  5  1 -1</clus>
<clus scale="   29.704">  1  5  2 -1</clus>
</clustering>
</event>
<event>
 9    2  0.6190160E-005  0.9684237E+02  0.7546771E-02  0.1292529E+00
         -3   -1    0    0    0  501 -0.00000000000E+00  0.00000000000E+00  0.25692647747E+03  0.25692647747E+03  0.00000000000E+00 0.  1.
         21   -1    0    0  501  502  0.00000000000E+00 -0.00000000000E+00 -0.71376115999E+02  0.71376115999E+02  0.00000000000E+00 0.  1.
         24    2    1    2    0    0  0.11102553306E+02  0.12578877967E+02  0.10278885721E+03  0.13169591480E+03  0.80602543068E+02 0.  0.
         23    2    1    2    0    0 -0.53031239959E+02 -0.54516897269E+02  0.62995943981E+02  0.13409676264E+03  0.90714101959E+02 0.  0.
        -11    1    3    3    0    0  0.26750028334E+02  0.28653499851E+02  0.10197338992E+03  0.10924815477E+03  0.00000000000E+00 0.  1.
         12    1    3    3    0    0 -0.15647475028E+02 -0.16074621885E+02  0.81546728777E+00  0.22447760030E+02  0.00000000000E+00 0. -1.
        -11    1    4    4    0    0 -0.61362780082E+00 -0.20974362833E+02 -0.20915801740E+02  0.29627203678E+02  0.00000000000E+00 0.  1.
         11    1    4    4    0    0 -0.52417612158E+02 -0.33542534436E+02  0.83911745721E+02  0.10446955897E+03  0.00000000000E+00 0. -1.
         -4    1    1    2    0  502  0.41928686653E+02  0.41938019303E+02  0.19765560280E+02  0.62509916018E+02  0.00000000000E+00 0.  1.
<scales pt_clust_5="13000.00000" pt_clust_6="13000.00000" pt_clust_7="13000.00000" pt_clust_8="13000.00000" pt_clust_9="59.30272"></scales>
<clustering>
<clus scale="   59.303">  2  9  1 -1</clus>
<clus scale="   80.603">  5  6 -1 -1</clus>
<clus scale="   87.442">  1  5  2 -1</clus>
<clus scale="   90.714">  7  8 -1 -1</clus>
<clus scale="   59.303">  2  5  1 -1</clus>
</clustering>
</event>
<event>
 9    2  0.6190160E-005  0.9696850E+02  0.7546771E-02  0.1292515E+00
          2   -1    0    0  502    0 -0.00000000000E+00  0.00000000000E+00  0.48222877974E+03  0.48222877974E+03  0.00000000000E+00 0. -1.
         21   -1    0    0  501  502  0.00000000000E+00 -0.00000000000E+00 -0.72352711155E+02  0.72352711155E+02  0.00000000000E+00 0. -1.
         24    2    1    2    0    0  0.29041601174E+02  0.86651583030E+01  0.30595375983E+03  0.31779254928E+03  0.80410830482E+02 0.  0.
         23    2    1    2    0    0 -0.46441588823E+02  0.25273686786E+02  0.14601771232E+03  0.17998552818E+03  0.90983721771E+02 0.  0.
        -11    1    3    3    0    0 -0.14184654313E+02 -0.17675366833E+02  0.32066323819E+02  0.39266679690E+02  0.00000000000E+00 0.  1.
         12    1    3    3    0    0  0.43226255487E+02  0.26340525136E+02  0.27388743601E+03  0.27852586959E+03  0.00000000000E+00 0. -1.
        -11    1    4    4    0    0 -0.39988674590E+02 -0.27235635445E+02  0.45603981852E+02  0.66487570976E+02  0.00000000000E+00 0.  1.
         11    1    4    4    0    0 -0.64529142324E+01  0.52509322230E+02  0.10041373047E+03  0.11349795720E+03  0.00000000000E+00 0. -1.
          1    1    1    2  501    0  0.17399987649E+02 -0.33938845089E+02 -0.42095403565E+02  0.56803413431E+02  0.00000000000E+00 0. -1.
<scales pt_clust_5="13000.00000" pt_clust_6="13000.00000" pt_clust_7="13000.00000" pt_clust_8="13000.00000" pt_clust_9="38.13928"></scales>
<clustering>
<clus scale="   38.139">  2  9  1 -1</clus>
<clus scale="   80.411">  5  6 -1 -1</clus>
<clus scale="   87.125">  1  5  2 -1</clus>
<clus scale="   90.984">  7  8 -1 -1</clus>
<clus scale="   38.139">  2  5  1 -1</clus>
</clustering>
</event>
<event>
 9    2  0.6190160E-005  0.2913606E+03  0.7546771E-02  0.1134101E+00
         21   -1    0    0  501  502  0.00000000000E+00  0.00000000000E+00  0.24171539259E+03  0.24171539259E+03  0.00000000000E+00 0.  1.
          2   -1    0    0  502    0 -0.00000000000E+00 -0.00000000000E+00 -0.53080559704E+03  0.53080559704E+03  0.00000000000E+00 0. -1.
         23    2    1    2    0    0  0.64525601064E+01  0.93725008873E+01 -0.12212196833E+03  0.15423653461E+03  0.93518202265E+02 0.  0.
         24    2    1    2    0    0  0.24495478988E+02 -0.28196171657E+03  0.50013647744E+01  0.29450025951E+03  0.81258544776E+02 0.  0.
        -11    1    4    4    0    0  0.32056768044E+02 -0.28454733881E+03  0.62303348504E+01  0.28641515580E+03  0.00000000000E+00 0.  1.
         12    1    4    4    0    0 -0.75612890561E+01  0.25856222366E+01 -0.12289700760E+01  0.80851037092E+01  0.00000000000E+00 0. -1.
        -13    1    3    3    0    0  0.25417164813E+02 -0.36551413729E+02 -0.57185964056E+02  0.72472564449E+02  0.00000000000E+00 0.  1.
         13    1    3    3    0    0 -0.18964604707E+02  0.45923914617E+02 -0.64936004271E+02  0.81763970159E+02  0.00000000000E+00 0. -1.
          1    1    1    2  501    0 -0.30948039094E+02  0.27258921568E+03 -0.17196960090E+03  0.32378419551E+03  0.00000000000E+00 0. -1.
<scales pt_clust_5="13000.00000" pt_clust_6="13000.00000" pt_clust_7="13000.00000" pt_clust_8="13000.00000" pt_clust_9="279.80011"></scales>
<clustering>
<clus scale="   81.259">  5  6 -1 -1</clus>
<clus scale="   93.518">  7  8 -1 -1</clus>
<clus scale="   94.208">  2  7  1 -1</clus>
<clus scale="  279.800">  1  9  2 -1</clus>
<clus scale="  279.800">  1  5  2 -1</clus>
</clustering>
</event>
<event>
 9    2  0.6190160E-005  0.1156382E+03  0.7546771E-02  0.1254763E+00
         -3   -1    0    0    0  501 -0.00000000000E+00  0.00000000000E+00  0.12745499001E+03  0.12745499001E+03  0.00000000000E+00 0.  1.
         21   -1    0    0  501  502  0.00000000000E+00 -0.00000000000E+00 -0.71476017157E+03  0.71476017157E+03  0.00000000000E+00 0.  1.
         24    2    1    2    0    0 -0.48482156152E+02  0.52873237435E+02 -0.19270973040E+03  0.22067822449E+03  0.80098313770E+02 0.  0.
         23    2    1    2    0    0  0.21709575902E+01 -0.78287404596E+02 -0.49419271874E+03  0.50879731355E+03  0.92274764972E+02 0.  0.
        -13    1    3    3    0    0  0.19212437041E+02  0.26805553738E+02 -0.41839137278E+02  0.53274467209E+02  0.00000000000E+00 0.  1.
         14    1    3    3    0    0 -0.67694593193E+02  0.26067683697E+02 -0.15087059313E+03  0.16740375728E+03  0.00000000000E+00 0. -1.
        -13    1    4    4    0    0  0.46487799520E+02 -0.30970628369E+02 -0.20980583171E+03  0.21711467556E+03  0.00000000000E+00 0. -1.
         13    1    4    4    0    0 -0.44316841930E+02 -0.47316776227E+02 -0.28438688703E+03  0.29168263799E+03  0.00000000000E+00 0.  1.
         -4    1    1    2    0  502  0.46311198562E+02  0.25414167161E+02  0.99597267587E+02  0.11273962354E+03  0.00000000000E+00 0.  1.
<scales pt_clust_5="13000.00000" pt_clust_6="13000.00000" pt_clust_7="13000.00000" pt_clust_8="13000.00000" pt_clust_9="52.82622"></scales>
<clustering>
<clus scale="   52.826">  2  9  1 -1</clus>
<clus scale="   80.098">  5  6 -1 -1</clus>
<clus scale="   92.275">  7  8 -1 -1</clus>
<clus scale="  106.176">  1  5  2 -1</clus>
<clus scale="   52.826">  2  5  1 -1</clus>
</clustering>
</event>
<event>
 9    2  0.6190160E-005  0.1024212E+03  0.7546771E-02  0.1277171E+00
         -1   -1    0    0    0  501 -0.00000000000E+00  0.00000000000E+00  0.96791180382E+02  0.96791180382E+02  0.00000000000E+00 0.  1.
         21   -1    0    0  501  502  0.00000000000E+00 -0.00000000000E+00 -0.83846837806E+03  0.83846837806E+03  0.00000000000E+00 0.  1.
         23    2    1    2    0    0 -0.26319010146E+02  0.40418088742E+02  0.57610505634E+02  0.11776451109E+03  0.90681847800E+02 0.  0.
         24    2    1    2    0    0  0.64277213003E+02 -0.28361418825E+01 -0.38651303176E+03  0.40127856838E+03  0.86559585874E+02 0.  0.
        -11    1    4    4    0    0  0.29312565616E+02  0.17828677416E+02 -0.41331076684E+02  0.53715418096E+02  0.00000000000E+00 0.  1.
         12    1    4    4    0    0  0.34964647388E+02 -0.20664819298E+02 -0.34518195508E+03  0.34756315028E+03  0.00000000000E+00 0. -1.
        -13    1    3    3    0    0 -0.45995251059E+02 -0.25091428928E+01  0.38718201077E+01  0.46226073909E+02  0.00000000000E+00 0. -1.
         13    1    3    3    0    0  0.19676240913E+02  0.42927231635E+02  0.53738685527E+02  0.71538437182E+02  0.00000000000E+00 0.  1.
         -2    1    1    2    0  502 -0.37958202857E+02 -0.37581946859E+02 -0.41277467155E+03  0.41621647897E+03  0.00000000000E+00 0.  1.
<scales pt_clust_5="13000.00000" pt_clust_6="13000.00000" pt_clust_7="13000.00000" pt_clust_8="13000.00000" pt_clust_9="53.41561"></scales>
<clustering>
<clus scale="   53.416">  2  9  1 -1</clus>
<clus scale="   86.560">  5  6 -1 -1</clus>
<clus scale="   90.682">  7  8 -1 -1</clus>
<clus scale="   98.790">  2  5  1 -1</clus>
<clus scale="   53.416">  2  5  1 -1</clus>
</clustering>
</event>
<event>
 9    2  0.6190160E-005  0.1165984E+03  0.7546771E-02  0.1254709E+00
         21   -1    0    0  501  502  0.00000000000E+00  0.00000000000E+00  0.49872097133E+02  0.49872097133E+02  0.00000000000E+00 0. -1.
          2   -1    0    0  502    0 -0.00000000000E+00 -0.00000000000E+00 -0.13363993743E+04  0.13363993743E+04  0.00000000000E+00 0. -1.
         24    2    1    2    0    0 -0.56142592880E+02 -0.12429356300E+02 -0.86958947832E+03  0.87533052087E+03  0.81921794033E+02 0.  0.
         23    2    1    2    0    0  0.85690918936E+02 -0.82307190051E+01 -0.44599989210E+03  0.46463169077E+03  0.97754928250E+02 0.  0.
        -13    1    3    3    0    0 -0.44817076684E+01  0.19628413190E+02 -0.56663767254E+02  0.60134373094E+02  0.00000000000E+00 0.  1.
         14    1    3    3    0    0 -0.51660885211E+02 -0.32057769490E+02 -0.81292571106E+03  0.81519614778E+03  0.00000000000E+00 0. -1.
        -11    1    4    4    0    0 -0.14169078811E+02  0.18690391729E+02 -0.48152788144E+02  0.53561035682E+02  0.00000000000E+00 0.  1.
         11    1    4    4    0    0  0.99859997747E+02 -0.26921110734E+02 -0.39784710395E+03  0.41107065509E+03  0.00000000000E+00 0. -1.
          1    1    1    2  501    0 -0.29548326056E+02  0.20660075305E+02  0.29062093206E+02  0.46309259828E+02  0.00000000000E+00 0. -1.
<scales pt_clust_5="13000.00000" pt_clust_6="13000.00000" pt_clust_7="13000.00000" pt_clust_8="13000.00000" pt_clust_9="36.05471"></scales>
<clustering>
<clus scale="   36.055">  1  9  2 -1</clus>
<clus scale="   81.922">  5  6 -1 -1</clus>
<clus scale="   97.755">  7  8 -1 -1</clus>
<clus scale="  103.684">  2  5  1 -1</clus>
<clus scale="   36.055">  1  5  2 -1</clus>
</clustering>
</event>
<event>
 9    2  0.6190160E-005  0.1149644E+03  0.7546771E-02  0.1256760E+00
         -1   -1    0    0    0  501 -0.00000000000E+00  0.00000000000E+00  0.28055299108E+03  0.28055299108E+03  0.00000000000E+00 0.  1.
         21   -1    0    0  501  502  0.00000000000E+00 -0.00000000000E+00 -0.16740421644E+03  0.16740421644E+03  0.00000000000E+00 0.  1.
         23    2    1    2    0    0  0.16124979659E+02 -0.64264666448E+02  0.23369871011E+03  0.26028523108E+03  0.93505893334E+02 0.  0.
         24    2    1    2    0    0  0.42973705895E+01  0.74144328609E+02 -0.62730846354E+02  0.12556137204E+03  0.79464773356E+02 0.  0.
        -13    1    4    4    0    0  0.28313843491E+02  0.68475270641E+02 -0.20891257019E+02  0.76986888769E+02  0.00000000000E+00 0.  1.
         14    1    4    4    0    0 -0.24016472902E+02  0.56690579684E+01 -0.41839589336E+02  0.48574483267E+02  0.00000000000E+00 0. -1.
        -13    1    3    3    0    0  0.15959984731E+02 -0.88596649984E+02  0.17670964873E+03  0.19831890342E+03  0.00000000000E+00 0.  1.
         13    1    3    3    0    0  0.16499492796E+00  0.24331983535E+02  0.56989061384E+02  0.61966327659E+02  0.00000000000E+00 0. -1.
         -2    1    1    2    0  502 -0.20422350248E+02 -0.98796621605E+01 -0.57819089112E+02  0.62110604407E+02  0.00000000000E+00 0.  1.
<scales pt_clust_5="13000.00000" pt_clust_6="13000.00000" pt_clust_7="13000.00000" pt_clust_8="13000.00000" pt_clust_9="22.68656"></scales>
<clustering>
<clus scale="   22.687">  2  9  1 -1</clus>
<clus scale="   79.465">  5  6 -1 -1</clus>
<clus scale="   93.506">  7  8 -1 -1</clus>
<clus scale="  103.866">  2  5  1 -1</clus>
<clus scale="   22.687">  2  5  1 -1</clus>
</clustering>
</event>
<event>
 9    2  0.6190160E-005  0.9443091E+02  0.7546771E-02  0.1296423E+00
         -1   -1    0    0    0  501 -0.00000000000E+00  0.00000000000E+00  0.14563767060E+03  0.14563767060E+03  0.00000000000E+00 0.  1.
         21   -1    0    0  501  502  0.00000000000E+00 -0.00000000000E+00 -0.37922937904E+03  0.37922937904E+03  0.00000000000E+00 0.  1.
         24    2    1    2    0    0  0.30183707132E+02  0.46401081678E+01  0.10516870227E+03  0.13604527888E+03  0.80717254586E+02 0.  0.
         23    2    1    2    0    0 -0.82954235777E+02 -0.37626302875E+02 -0.19955048407E+03  0.23633497984E+03  0.87958416890E+02 0.  0.
        -11    1    3    3    0    0  0.44421754081E+02 -0.42478124002E+01  0.10989371726E+03  0.11860845349E+03  0.00000000000E+00 0.  1.
         12    1    3    3    0    0 -0.14238046949E+02  0.88879205680E+01 -0.47250149915E+01  0.17436825388E+02  0.00000000000E+00 0. -1.
        -13    1    4    4    0    0 -0.34678818058E+02 -0.57984522742E+02 -0.73529732802E+02  0.99857132471E+02  0.00000000000E+00 0.  1.
         13    1    4    4    0    0 -0.48275417719E+02  0.20358219867E+02 -0.12602075127E+03  0.13647784737E+03  0.00000000000E+00 0. -1.
         -2    1    1    2    0  502  0.52770528645E+02  0.32986194707E+02 -0.13920992663E+03  0.15248679093E+03  0.00000000000E+00 0.  1.
<scales pt_clust_5="13000.00000" pt_clust_6="13000.00000" pt_clust_7="13000.00000" pt_clust_8="13000.00000" pt_clust_9="62.23197"></scales>
<clustering>
<clus scale="   62.232">  2  9  1 -1</clus>
<clus scale="   80.717">  5  6 -1 -1</clus>
<clus scale="   87.726">  1  5  2 -1</clus>
<clus scale="   87.958">  7  8 -1 -1</clus>
<clus scale="   62.232">  2  5  1 -1</clus>
</clustering>
</event>
<event>
 9    2  0.6190160E-005  0.1279937E+03  0.7546771E-02  0.1234121E+00
          4   -1    0    0  502    0 -0.00000000000E+00  0.00000000000E+00  0.17514016682E+03  0.17514016682E+03  0.00000000000E+00 0. -1.
         21   -1    0    0  501  502  0.00000000000E+00 -0.00000000000E+00 -0.60595122536E+03  0.60595122536E+03  0.00000000000E+00 0.  1.
         23    2    1    2    0    0  0.48923896091E+01 -0.84115964713E+02  0.10725236952E+03  0.16561912471E+03  0.93953141012E+02 0.  0.
         24    2    1    2    0    0  0.59030571698E+02  0.98681982012E+02 -0.99963967087E+02  0.17249433174E+03  0.80862585888E+02 0.  0.
        -13    1    4    4    0    0  0.43693905786E+02  0.30165076652E+02 -0.85750840662E+02  0.10085780052E+03  0.00000000000E+00 0.  1.
         14    1    4    4    0    0  0.15336665912E+02  0.68516905359E+02 -0.14213126425E+02  0.71636531212E+02  0.00000000000E+00 0. -1.
        -11    1    3    3    0    0  0.66270439645E+01 -0.38706983142E+02 -0.94417803715E+01  0.40389298982E+02  0.00000000000E+00 0.  1.
         11    1    3    3    0    0 -0.17346543555E+01 -0.45408981571E+02  0.11669414989E+03  0.12522982572E+03  0.00000000000E+00 0. -1.
          3    1    1    2  501    0 -0.63922961307E+02 -0.14566017298E+02 -0.43809946097E+03  0.44297793573E+03  0.00000000000E+00 0. -1.
<scales pt_clust_5="13000.00000" pt_clust_6="13000.00000" pt_clust_7="13000.00000" pt_clust_8="13000.00000" pt_clust_9="65.56153"></scales>
<clustering>
<clus scale="   65.562">  2  9  1 -1</clus>
<clus scale="   80.863">  5  6 -1 -1</clus>
<clus scale="   93.953">  7  8 -1 -1</clus>
<clus scale="  118.718">  2  5  1 -1</clus>
<clus scale="   65.562">  2  5  1 -1</clus>
</clustering>
</event>
<event>
 9    2  0.6190160E-005  0.9484733E+02  0.7546771E-02  0.1298210E+00
          2   -1    0    0  502    0 -0.00000000000E+00  0.00000000000E+00  0.27176543647E+03  0.27176543647E+03  0.00000000000E+00 0. -1.
         21   -1    0    0  501  502  0.00000000000E+00 -0.00000000000E+00 -0.84349829814E+02  0.84349829814E+02  0.00000000000E+00 0. -1.
         24    2    1    2    0    0 -0.13929987872E+02 -0.16250434399E+02  0.17498975885E+03  0.19370817797E+03  0.80270301667E+02 0.  0.
         23    2    1    2    0    0  0.36513530259E+02  0.25351717865E+02 -0.36047031544E+02  0.10816255145E+03  0.91781270211E+02 0.  0.
        -13    1    3    3    0    0  0.33623657602E+02 -0.53061406036E+01  0.79212488932E+02  0.86216726228E+02  0.00000000000E+00 0.  1.
         14    1    3    3    0    0 -0.47553645475E+02 -0.10944293795E+02  0.95777269921E+02  0.10749145174E+03  0.00000000000E+00 0. -1.
        -11    1    4    4    0    0 -0.30429064586E+02  0.13077186142E+01 -0.15209121585E+02  0.34043435181E+02  0.00000000000E+00 0. -1.
         11    1    4    4    0    0  0.66942594845E+02  0.24043999250E+02 -0.20837909959E+02  0.74119116265E+02  0.00000000000E+00 0.  1.
          1    1    1    2  501    0 -0.22583542387E+02 -0.91012834661E+01  0.48472879343E+02  0.54244536861E+02  0.00000000000E+00 0. -1.
<scales pt_clust_5="13000.00000" pt_clust_6="13000.00000" pt_clust_7="13000.00000" pt_clust_8="13000.00000" pt_clust_9="24.34852"></scales>
<clustering>
<clus scale="   24.349">  2  9  1 -1</clus>
<clus scale="   80.270">  5  6 -1 -1</clus>
<clus scale="   83.759">  1  5  2 -1</clus>
<clus scale="   91.781">  7  8 -1 -1</clus>
<clus scale="   24.349">  2  5  1 -1</clus>
</clustering>
</event>
<event>
 9    2  0.6190160E-005  0.9970302E+02  0.7546771E-02  0.1287661E+00
          2   -1    0    0  502    0 -0.00000000000E+00  0.00000000000E+00  0.30427432102E+03  0.30427432102E+03  0.00000000000E+00 0. -1.
         21   -1    0    0  501  502  0.00000000000E+00 -0.00000000000E+00 -0.60797478963E+02  0.60797478963E+02  0.00000000000E+00 0. -1.
         23    2    1    2    0    0 -0.44879269618E+02 -0.12118960203E+02  0.19925816663E+03  0.22488204292E+03  0.93311833238E+02 0.  0.
         24    2    1    2    0    0 -0.39507291131E+00  0.27002963974E+02  0.34194837580E+02  0.91488864002E+02  0.80446312366E+02 0.  0.
        -11    1    4    4    0    0 -0.83613821236E+01 -0.20247870799E+02 -0.11959401177E+02  0.24958290395E+02  0.00000000000E+00 0.  1.
         12    1    4    4    0    0  0.79663092123E+01  0.47250834773E+02  0.46154238757E+02  0.66530573607E+02  0.00000000000E+00 0. -1.
        -13    1    3    3    0    0 -0.39573963166E+02  0.19276681579E+02  0.18469630843E+03  0.18986946927E+03  0.00000000000E+00 0.  1.
         13    1    3    3    0    0 -0.53053064514E+01 -0.31395641782E+02  0.14561858199E+02  0.35012573651E+02  0.00000000000E+00 0. -1.
          1    1    1    2  501    0  0.45274342529E+02 -0.14884003771E+02  0.10023837850E+02  0.48700893061E+02  0.00000000000E+00 0. -1.
<scales pt_clust_5="13000.00000" pt_clust_6="13000.00000" pt_clust_7="13000.00000" pt_clust_8="13000.00000" pt_clust_9="47.65815"></scales>
<clustering>
<clus scale="   47.658">  2  9  1 -1</clus>
<clus scale="   80.446">  5  6 -1 -1</clus>
<clus scale="   87.779">  2  5  1 -1</clus>
<clus scale="   93.312">  7  8 -1 -1</clus>
<clus scale="   47.658">  2  5  1 -1</clus>
</clustering>
</event>
<event>
 9    2  0.6190160E-005  0.1565272E+03  0.7546771E-02  0.1201618E+00
         21   -1    0    0  501  502  0.00000000000E+00  0.00000000000E+00  0.87664942902E+02  0.87664942902E+02  0.00000000000E+00 0. -1.
         -1   -1    0    0    0  501 -0.00000000000E+00 -0.00000000000E+00 -0.86698615035E+03  0.86698615035E+03  0.00000000000E+00 0.  1.
         24    2    1    2    0    0  0.15862241604E+02 -0.98448945238E+02 -0.10654340911E+02  0.12921010767E+03  0.81473501308E+02 0.  0.
         23    2    1    2    0    0 -0.76235000745E+02 -0.56150590051E+02 -0.39138245384E+03  0.41326454955E+03  0.92966115550E+02 0.  0.
        -13    1    3    3    0    0  0.83233516341E+01 -0.30827193033E+02 -0.43253638819E+02  0.53763103368E+02  0.00000000000E+00 0.  1.
         14    1    3    3    0    0  0.75388899701E+01 -0.67621752205E+02  0.32599297908E+02  0.75447004297E+02  0.00000000000E+00 0. -1.
        -11    1    4    4    0    0 -0.40157477588E+02 -0.79681417260E+02 -0.24869746052E+03  0.26421994272E+03  0.00000000000E+00 0. -1.
         11    1    4    4    0    0 -0.36077523157E+02  0.23530827209E+02 -0.14268499332E+03  0.14904460683E+03  0.00000000000E+00 0.  1.
         -2    1    1    2    0  502  0.60372759140E+02  0.15459953529E+03 -0.37728441270E+03  0.41217643604E+03  0.00000000000E+00 0.  1.
<scales pt_clust_5="13000.00000" pt_clust_6="13000.00000" pt_clust_7="13000.00000" pt_clust_8="13000.00000" pt_clust_9="125.92884"></scales>
<clustering>
<clus scale="   81.474">  5  6 -1 -1</clus>
<clus scale="   92.966">  7  8 -1 -1</clus>
<clus scale="  128.770">  2  5  1 -1</clus>
<clus scale="  125.929">  1  9  2 -1</clus>
<clus scale="  125.929">  1  5  2 -1</clus>
</clustering>
</event>
<event>
 9    2  0.6190160E-005  0.1100427E+03  0.7546771E-02  0.1265504E+00
          4   -1    0    0  502    0 -0.00000000000E+00  0.00000000000E+00  0.45041852540E+02  0.45041852540E+02  0.00000000000E+00 0. -1.
         21   -1    0    0  501  502  0.00000000000E+00 -0.00000000000E+00 -0.54044839937E+03  0.54044839937E+03  0.00000000000E+00 0.  1.
         24    2    1    2    0    0  0.10477414942E+02  0.57573347631E+02 -0.20842998014E+03  0.23122679092E+03  0.81229955294E+02 0.  0.
         23    2    1    2    0    0 -0.33444452384E+02 -0.49822956088E+02 -0.30463053978E+03  0.32427652810E+03  0.93566246902E+02 0.  0.
        -13    1    3    3    0    0  0.37052111743E+02  0.56311053198E+02 -0.18039428988E+03  0.19257698076E+03  0.00000000000E+00 0.  1.
         14    1    3    3    0    0 -0.26574696800E+02  0.12622944327E+01 -0.28035690263E+02  0.38649810165E+02  0.00000000000E+00 0. -1.
        -13    1    4    4    0    0  0.19807444039E+02 -0.21770672003E+02 -0.26168291813E+02  0.39383708500E+02  0.00000000000E+00 0. -1.
         13    1    4    4    0    0 -0.53251896423E+02 -0.28052284085E+02 -0.27846224797E+03  0.28489281960E+03  0.00000000000E+00 0.  1.
          3    1    1    2  501    0  0.22967037442E+02 -0.77503915430E+01  0.17653973095E+02  0.29986932887E+02  0.00000000000E+00 0. -1.
<scales pt_clust_5="13000.00000" pt_clust_6="13000.00000" pt_clust_7="13000.00000" pt_clust_8="13000.00000" pt_clust_9="24.23951"></scales>
<clustering>
<clus scale="   24.240">  2  9  1 -1</clus>
<clus scale="   81.230">  5  6 -1 -1</clus>
<clus scale="   93.566">  7  8 -1 -1</clus>
<clus scale="   99.765">  1  5  2 -1</clus>
<clus scale="   24.240">  2  5  1 -1</clus>
</clustering>
</event>
<event>
 9    2  0.6190160E-005  0.1716251E+03  0.7546771E-02  0.1177538E+00
          2   -1    0    0  502    0 -0.00000000000E+00  0.00000000000E+00  0.84099777431E+03  0.84099777431E+03  0.00000000000E+00 0. -1.
         21   -1    0    0  501  502  0.00000000000E+00 -0.00000000000E+00 -0.78353232629E+02  0.78353232629E+02  0.00000000000E+00 0.  1.
         23    2    1    2    0    0 -0.60099343602E+02  0.13869125657E+03  0.67747177876E+03  0.70003909388E+03  0.90771835913E+02 0.  0.
         24    2    1    2    0    0  0.50278634805E+02 -0.11658315938E+03  0.10877209642E+03  0.18551630943E+03  0.80407449512E+02 0.  0.
        -11    1    4    4    0    0  0.48677421427E+02 -0.12862917076E+03  0.10414120482E+03  0.17251187052E+03  0.00000000000E+00 0.  1.
         12    1    4    4    0    0  0.16012133783E+01  0.12046011383E+02  0.46308916040E+01  0.13004438918E+02  0.00000000000E+00 0. -1.
        -13    1    3    3    0    0 -0.38926267916E+00  0.73362337184E+02  0.17378584625E+03  0.18863643445E+03  0.00000000000E+00 0.  1.
         13    1    3    3    0    0 -0.59710080923E+02  0.65328919385E+02  0.50368593251E+03  0.51140265943E+03  0.00000000000E+00 0. -1.
          1    1    1    2  501    0  0.98207087963E+01 -0.22108097191E+02 -0.23599333502E+02  0.33795603625E+02  0.00000000000E+00 0. -1.
<scales pt_clust_5="13000.00000" pt_clust_6="13000.00000" pt_clust_7="13000.00000" pt_clust_8="13000.00000" pt_clust_9="24.19120"></scales>
<clustering>
<clus scale="   24.191">  2  9  1 -1</clus>
<clus scale="   80.407">  5  6 -1 -1</clus>
<clus scale="   90.772">  7  8 -1 -1</clus>
<clus scale="  166.376">  2  5  1 -1</clus>
<clus scale="   24.191">  2  5  1 -1</clus>
</clustering>
</event>
<event>
 9    2  0.6190160E-005  0.3299706E+03  0.7546771E-02  0.1071150E+00
         21   -1    0    0  501  502  0.00000000000E+00  0.00000000000E+00  0.11179195499E+03  0.11179195499E+03  0.00000000000E+00 0. -1.
          2   -1    0    0  502    0 -0.00000000000E+00 -0.00000000000E+00 -0.83679613990E+03  0.83679613990E+03  0.00000000000E+00 0. -1.
         24    2    1    2    0    0 -0.14949133823E+03  0.58718151023E+02 -0.11663218728E+03  0.21229715485E+03  0.75309583576E+02 0.  0.
         23    2    1    2    0    0 -0.11289642474E+03 -0.29797269245E+02 -0.17104043628E+03  0.22546548051E+03  0.89142425849E+02 0.  0.
        -11    1    3    3    0    0 -0.74599557318E+02 -0.47255507818E+01 -0.27298200278E+02  0.79577738851E+02  0.00000000000E+00 0.  1.
         12    1    3    3    0    0 -0.74891780915E+02  0.63443701805E+02 -0.89333987006E+02  0.13271941599E+03  0.00000000000E+00 0. -1.
        -13    1    4    4    0    0  0.58407914861E+01 -0.19833369578E+02 -0.53092573283E+01  0.21346325384E+02  0.00000000000E+00 0.  1.
         13    1    4    4    0    0 -0.11873721623E+03 -0.99638996665E+01 -0.16573117895E+03  0.20411915512E+03  0.00000000000E+00 0. -1.
          1    1    1    2  501    0  0.26238776297E+03 -0.28920881778E+02 -0.43733156134E+03  0.51082545953E+03  0.00000000000E+00 0. -1.
<scales pt_clust_5="13000.00000" pt_clust_6="13000.00000" pt_clust_7="13000.00000" pt_clust_8="13000.00000" pt_clust_9="263.97694"></scales>
<clustering>
<clus scale="   75.310">  5  6 -1 -1</clus>
<clus scale="   89.142">  7  8 -1 -1</clus>
<clus scale="  124.686">  5  7 -1 -1</clus>
<clus scale="  263.977">  1  9  2 -1</clus>
<clus scale="  263.977">  1  5  2 -1</clus>
</clustering>
</event>
<event>
 9    2  0.6190160E-005  0.1347934E+03  0.7546771E-02  0.1222713E+00
         21   -1    0    0  501  502  0.00000000000E+00  0.00000000000E+00  0.31721322412E+03  0.31721322412E+03  0.00000000000E+00 0. -1.
         -3   -1    0    0    0  501 -0.00000000000E+00 -0.00000000000E+00 -0.99040437436E+02  0.99040437436E+02  0.00000000000E+00 0.  1.
         24    2    1    2    0    0  0.59062591683E+02  0.80362524193E+02 -0.12581358853E+02  0.13108745091E+03  0.84137412388E+02 0.  0.
         23    2    1    2    0    0 -0.72511350833E+02 -0.58352686666E+02  0.14620100916E+03  0.19676635239E+03  0.93162923472E+02 0.  0.
        -13    1    3    3    0    0  0.25112957970E+02 -0.56494503192E+01 -0.27223255166E+02  0.37465751945E+02  0.00000000000E+00 0.  1.
         14    1    3    3    0    0  0.33949633713E+02  0.86011974512E+02  0.14641896314E+02  0.93621698961E+02  0.00000000000E+00 0. -1.
        -11    1    4    4    0    0 -0.21902902598E+02 -0.37177938434E+02  0.28126386994E+01  0.43241729670E+02  0.00000000000E+00 0.  1.
         11    1    4    4    0    0 -0.50608448235E+02 -0.21174748232E+02  0.14338837046E+03  0.15352462271E+03  0.00000000000E+00 0. -1.
         -4    1    1    2    0  502  0.13448759149E+02 -0.22009837527E+02  0.84553136374E+02  0.88399858265E+02  0.00000000000E+00 0.  1.
<scales pt_clust_5="13000.00000" pt_clust_6="13000.00000" pt_clust_7="13000.00000" pt_clust_8="13000.00000" pt_clust_9="25.79345"></scales>
<clustering>
<clus scale="   25.793">  1  9  2 -1</clus>
<clus scale="   84.137">  5  6 -1 -1</clus>
<clus scale="   93.163">  7  8 -1 -1</clus>
<clus scale="  128.721">  2  5  1 -1</clus>
<clus scale="   25.793">  1  5  2 -1</clus>
</clustering>
</event>
<event>
 9    2  0.6190160E-005  0.1318432E+03  0.7546771E-02  0.1243132E+00
         -1   -1    0    0    0  501 -0.00000000000E+00  0.00000000000E+00  0.21089595078E+03  0.21089595078E+03  0.00000000000E+00 0.  1.
         21   -1    0    0  501  502  0.00000000000E+00 -0.00000000000E+00 -0.20490958270E+03  0.20490958270E+03  0.00000000000E+00 0.  1.
         24    2    1    2    0    0  0.41737914081E+02 -0.10281717957E+02  0.96631045615E+02  0.13233570101E+03  0.79545028688E+02 0.  0.
         23    2    1    2    0    0  0.59147969217E+02 -0.11197139167E+02  0.40560651255E+02  0.11657423320E+03  0.91216924021E+02 0.  0.
        -11    1    3    3    0    0  0.18810547821E+02 -0.39268226372E+02  0.81497298395E+02  0.92399350417E+02  0.00000000000E+00 0.  1.
         12    1    3    3    0    0  0.22927366261E+02  0.28986508415E+02  0.15133747220E+02  0.39936350593E+02  0.00000000000E+00 0. -1.
        -11    1    4    4    0    0  0.76113501853E+02  0.68798136059E+01  0.97732961910E+01  0.77046183020E+02  0.00000000000E+00 0.  1.
         11    1    4    4    0    0 -0.16965532636E+02 -0.18076952772E+02  0.30787355064E+02  0.39528050180E+02  0.00000000000E+00 0. -1.
         -2    1    1    2    0  502 -0.10088588330E+03  0.21478857123E+02 -0.13120532879E+03  0.16689559927E+03  0.00000000000E+00 0.  1.
<scales pt_clust_5="13000.00000" pt_clust_6="13000.00000" pt_clust_7="13000.00000" pt_clust_8="13000.00000" pt_clust_9="95.19507"></scales>
<clustering>
<clus scale="   79.545">  5  6 -1 -1</clus>
<clus scale="   90.417">  1  5  2 -1</clus>
<clus scale="   91.217">  7  8 -1 -1</clus>
<clus scale="   95.195">  2  9  1 -1</clus>
<clus scale="   95.195">  2  5  1 -1</clus>
</clustering>
</event>
<event>
 9    2  0.6190160E-005  0.9257477E+02  0.7546771E-02  0.1310098E+00
         -1   -1    0    0    0  501 -0.00000000000E+00  0.00000000000E+00  0.15745100168E+03  0.15745100168E+03  0.00000000000E+00 0.  1.
         21   -1    0    0  501  502  0.00000000000E+00 -0.00000000000E+00 -0.30642226356E+03  0.30642226356E+03  0.00000000000E+00 0.  1.
         23    2    1    2    0    0  0.16768259050E+02 -0.11643850258E+02  0.13007965467E+03  0.16004850947E+03  0.90983817591E+02 0.  0.
         24    2    1    2    0    0  0.47573201593E+01 -0.65215913560E+01 -0.99970602727E+02  0.12254295131E+03  0.70409447224E+02 0.  0.
        -13    1    4    4    0    0 -0.91075679060E+01 -0.20400757366E+02 -0.17805274865E+01  0.22412250499E+02  0.00000000000E+00 0.  1.
         14    1    4    4    0    0  0.13864888065E+02  0.13879166010E+02 -0.98190075240E+02  0.10013070082E+03  0.00000000000E+00 0. -1.
        -11    1    3    3    0    0 -0.22529661061E+02 -0.87288971956E+01  0.11555035712E+03  0.11804941467E+03  0.00000000000E+00 0.  1.
         11    1    3    3    0    0  0.39297920111E+02 -0.29149530621E+01  0.14529297550E+02  0.41999094796E+02  0.00000000000E+00 0. -1.
         -2    1    1    2    0  502 -0.21525579209E+02  0.18165441614E+02 -0.17908031382E+03  0.18128180446E+03  0.00000000000E+00 0.  1.
<scales pt_clust_5="13000.00000" pt_clust_6="13000.00000" pt_clust_7="13000.00000" pt_clust_8="13000.00000" pt_clust_9="28.16618"></scales>
<clustering>
<clus scale="   28.166">  2  9  1 -1</clus>
<clus scale="   70.409">  5  6 -1 -1</clus>
<clus scale="   72.454">  2  5  1 -1</clus>
<clus scale="   90.984">  7  8 -1 -1</clus>
<clus scale="   28.166">  2  5  1 -1</clus>
</clustering>
</event>
<event>
 9    2  0.6190160E-005  0.9778004E+02  0.7546771E-02  0.1290423E+00
         -1   -1    0    0    0  501 -0.00000000000E+00  0.00000000000E+00  0.61011652314E+03  0.61011652314E+03  0.00000000000E+00 0.  1.
         21   -1    0    0  501  502  0.00000000000E+00 -0.00000000000E+00 -0.40559095005E+02  0.40559095005E+02  0.00000000000E+00 0. -1.
         23    2    1    2    0    0  0.41145575561E+02  0.37333788989E+02  0.40991635197E+03  0.42336102706E+03  0.90090917596E+02 0.  0.
         24    2    1    2    0    0  0.17341568488E+02 -0.23553775837E+02  0.14060696351E+03  0.16428339067E+03  0.79769692922E+02 0.  0.
        -11    1    4    4    0    0  0.24031607494E+02 -0.50466365577E+02  0.79556651150E+02  0.97229794588E+02  0.00000000000E+00 0.  1.
         12    1    4    4    0    0 -0.66900390056E+01  0.26912589740E+02  0.61050312356E+02  0.67053596079E+02  0.00000000000E+00 0. -1.
        -13    1    3    3    0    0 -0.35500890047E+01  0.50480868129E+02  0.12834664080E+03  0.13796297106E+03  0.00000000000E+00 0. -1.
         13    1    3    3    0    0  0.44695664566E+02 -0.13147079141E+02  0.28156971116E+03  0.28539805600E+03  0.00000000000E+00 0.  1.
         -2    1    1    2    0  502 -0.58487144049E+02 -0.13780013151E+02  0.19034112660E+02  0.63031200419E+02  0.00000000000E+00 0.  1.
<scales pt_clust_5="13000.00000" pt_clust_6="13000.00000" pt_clust_7="13000.00000" pt_clust_8="13000.00000" pt_clust_9="60.08856"></scales>
<clustering>
<clus scale="   60.089">  2  9  1 -1</clus>
<clus scale="   79.770">  5  6 -1 -1</clus>
<clus scale="   88.362">  2  5  1 -1</clus>
<clus scale="   90.091">  7  8 -1 -1</clus>
<clus scale="   60.089">  2  5  1 -1</clus>
</clustering>
</event>
<event>
 9    2  0.6190160E-005  0.1706687E+03  0.7546771E-02  0.1190974E+00
         21   -1    0    0  501  502  0.00000000000E+00  0.00000000000E+00  0.13847762974E+03  0.13847762974E+03  0.00000000000E+00 0. -1.
          4   -1    0    0  502    0 -0.00000000000E+00 -0.00000000000E+00 -0.56095642232E+03  0.56095642232E+03  0.00000000000E+00 0. -1.
         24    2    1    2    0    0 -0.47339165956E+02 -0.84433808654E+02  0.38322453913E+02  0.13108648437E+03  0.79655453257E+02 0.  0.
         23    2    1    2    0    0  0.10016765540E+03 -0.82100306783E+02 -0.21792647340E+03  0.26916097656E+03  0.90452550721E+02 0.  0.
        -13    1    3    3    0    0 -0.30830225842E+02 -0.38267809837E+02  0.59934639892E+02  0.77505413709E+02  0.00000000000E+00 0.  1.
         14    1    3    3    0    0 -0.16508940114E+02 -0.46165998818E+02 -0.21612185979E+02  0.53581070662E+02  0.00000000000E+00 0. -1.
        -13    1    4    4    0    0  0.77639097037E+02 -0.27429433544E+02 -0.64066829290E+02  0.10433006196E+03  0.00000000000E+00 0. -1.
         13    1    4    4    0    0  0.22528558367E+02 -0.54670873239E+02 -0.15385964411E+03  0.16483091460E+03  0.00000000000E+00 0.  1.
          3    1    1    2  501    0 -0.52828489447E+02  0.16653411544E+03 -0.24287477310E+03  0.29918659113E+03  0.00000000000E+00 0. -1.
<scales pt_clust_5="13000.00000" pt_clust_6="13000.00000" pt_clust_7="13000.00000" pt_clust_8="13000.00000" pt_clust_9="144.72794"></scales>
<clustering>
<clus scale="   79.655">  5  6 -1 -1</clus>
<clus scale="   90.453">  7  8 -1 -1</clus>
<clus scale="  125.360">  2  5  1 -1</clus>
<clus scale="  144.728">  1  9  2 -1</clus>
<clus scale="  144.728">  1  5  2 -1</clus>
</clustering>
</event>
<event>
 9    2  0.6190160E-005  0.4018131E+03  0.7546771E-02  0.1043154E+00
         21   -1    0    0  501  502  0.00000000000E+00  0.00000000000E+00  0.33250166268E+03  0.33250166268E+03  0.00000000000E+00 0.  1.
         -3   -1    0    0    0  501 -0.00000000000E+00 -0.00000000000E+00 -0.47358513186E+03  0.47358513186E+03  0.00000000000E+00 0.  1.
         24    2    1    2    0    0 -0.27045129788E+02 -0.19565231729E+03 -0.43163810584E+02  0.21573907451E+03  0.75292532308E+02 0.  0.
         23    2    1    2    0    0 -0.90336463369E+01 -0.14737757027E+03 -0.16829598571E+03  0.23831929893E+03  0.81674931595E+02 0.  0.
        -13    1    3    3    0    0 -0.43035639427E+02 -0.16733685899E+03 -0.16281537595E+02  0.17354762777E+03  0.00000000000E+00 0.  1.
         14    1    3    3    0    0  0.15990509639E+02 -0.28315458295E+02 -0.26882272988E+02  0.42191446740E+02  0.00000000000E+00 0. -1.
        -13    1    4    4    0    0 -0.41720587023E+02 -0.11601935702E+03 -0.11857204429E+03  0.17105679839E+03  0.00000000000E+00 0. -1.
         13    1    4    4    0    0  0.32686940686E+02 -0.31358213242E+02 -0.49723941418E+02  0.67262500543E+02  0.00000000000E+00 0.  1.
         -4    1    1    2    0  502  0.36078776125E+02  0.34302988756E+03  0.70376327120E+02  0.35202842110E+03  0.00000000000E+00 0.  1.
<scales pt_clust_5="13000.00000" pt_clust_6="13000.00000" pt_clust_7="13000.00000" pt_clust_8="13000.00000" pt_clust_9="344.92199"></scales>
<clustering>
<clus scale="   75.293">  5  6 -1 -1</clus>
<clus scale="   81.675">  7  8 -1 -1</clus>
<clus scale="  141.343">  5  7 -1 -1</clus>
<clus scale="  344.922">  1  9  2 -1</clus>
<clus scale="  344.922">  1  5  2 -1</clus>
</clustering>
</event>
<event>
 9    2  0.6190160E-005  0.1085103E+03  0.7546771E-02  0.1267262E+00
         -1   -1    0    0    0  501 -0.00000000000E+00  0.00000000000E+00  0.35346654972E+03  0.35346654972E+03  0.00000000000E+00 0.  1.
         21   -1    0    0  501  502  0.00000000000E+00 -0.00000000000E+00 -0.72217505882E+02  0.72217505882E+02  0.00000000000E+00 0. -1.
         24    2    1    2    0    0  0.37594813369E+01  0.39051768263E+02  0.87454138015E+02  0.12508330576E+03  0.80364375312E+02 0.  0.
         23    2    1    2    0    0  0.74756153923E+02 -0.73459910220E+02  0.15125519502E+03  0.20490199223E+03  0.90121315130E+02 0.  0.
        -11    1    3    3    0    0  0.65822927972E+01  0.20135150898E+02  0.99993772131E+02  0.10221303902E+03  0.00000000000E+00 0.  1.
         12    1    3    3    0    0 -0.28228114603E+01  0.18916617364E+02 -0.12539634116E+02  0.22870266741E+02  0.00000000000E+00 0. -1.
        -13    1    4    4    0    0  0.32082958641E+02 -0.70983308223E+01 -0.15872343852E+01  0.32897140432E+02  0.00000000000E+00 0.  1.
         13    1    4    4    0    0  0.42673195282E+02 -0.66361579398E+02  0.15284242941E+03  0.17200485180E+03  0.00000000000E+00 0. -1.
         -2    1    1    2    0  502 -0.78515635260E+02  0.34408141958E+02  0.42539710801E+02  0.95698757611E+02  0.00000000000E+00 0.  1.
<scales pt_clust_5="13000.00000" pt_clust_6="13000.00000" pt_clust_7="13000.00000" pt_clust_8="13000.00000" pt_clust_9="85.72412"></scales>
<clustering>
<clus scale="   80.364">  5  6 -1 -1</clus>
<clus scale="   85.724">  2  9  1 -1</clus>
<clus scale="   90.121">  7  8 -1 -1</clus>
<clus scale="  100.554">  1  5  2 -1</clus>
<clus scale="   85.724">  2  5  1 -1</clus>
</clustering>
</event>
<event>
 9    2  0.6190160E-005  0.9528097E+02  0.7546771E-02  0.1295331E+00
          2   -1    0    0  502    0 -0.00000000000E+00  0.00000000000E+00  0.67246666060E+03  0.67246666060E+03  0.00000000000E+00 0. -1.
         21   -1    0    0  501  502  0.00000000000E+00 -0.00000000000E+00 -0.51503883840E+02  0.51503883840E+02  0.00000000000E+00 0.  1.
         24    2    1    2    0    0  0.22454706008E+02 -0.22678751973E+02  0.40680659886E+03  0.41632490603E+03  0.82560758774E+02 0.  0.
         23    2    1    2    0    0  0.55955678047E+00  0.26233667082E+02  0.24860185201E+03  0.26606681954E+03  0.91105176822E+02 0.  0.
        -11    1    3    3    0    0  0.10473760666E+02 -0.52802960964E+02  0.20596499918E+03  0.21288361430E+03  0.00000000000E+00 0.  1.
         12    1    3    3    0    0  0.11980945341E+02  0.30124208991E+02  0.20084159969E+03  0.20344129173E+03  0.00000000000E+00 0. -1.
        -13    1    4    4    0    0  0.70736007076E+01  0.59016105138E+02  0.13191743192E+03  0.14468982458E+03  0.00000000000E+00 0. -1.
         13    1    4    4    0    0 -0.65140439272E+01 -0.32782438056E+02  0.11668442010E+03  0.12137699496E+03  0.00000000000E+00 0.  1.
          1    1    1    2  501    0 -0.23014262788E+02 -0.35549151091E+01 -0.34445674117E+02  0.41578818868E+02  0.00000000000E+00 0. -1.
<scales pt_clust_5="13000.00000" pt_clust_6="13000.00000" pt_clust_7="13000.00000" pt_clust_8="13000.00000" pt_clust_9="23.28720"></scales>
<clustering>
<clus scale="   23.287">  2  9  1 -1</clus>
<clus scale="   82.561">  5  6 -1 -1</clus>
<clus scale="   87.147">  1  5  2 -1</clus>
<clus scale="   91.105">  7  8 -1 -1</clus>
<clus scale="   23.287">  2  5  1 -1</clus>
</clustering>
</event>
<event>
 9    2  0.6190160E-005  0.1085343E+03  0.7546771E-02  0.1269626E+00
         21   -1    0    0  501  502  0.00000000000E+00  0.00000000000E+00  0.98494606618E+03  0.98494606618E+03  0.00000000000E+00 0. -1.
          2   -1    0    0  502    0 -0.00000000000E+00 -0.00000000000E+00 -0.53518008192E+02  0.53518008192E+02  0.00000000000E+00 0. -1.
         23    2    1    2    0    0 -0.33137185095E+02 -0.49918541343E+02  0.51207033319E+02  0.12346995121E+03  0.95040700680E+02 0.  0.
         24    2    1    2    0    0 -0.16785694784E+02 -0.86167648921E+01  0.79848967611E+03  0.80275023981E+03  0.80412539303E+02 0.  0.
        -13    1    4    4    0    0 -0.20265012458E+02 -0.35950945659E+01  0.47885124494E+02  0.52120826765E+02  0.00000000000E+00 0.  1.
         14    1    4    4    0    0  0.34793176742E+01 -0.50216703262E+01  0.75060455162E+03  0.75062941305E+03  0.00000000000E+00 0. -1.
        -11    1    3    3    0    0 -0.45073203710E+02 -0.73233983341E+02  0.36384435063E+02  0.93373642553E+02  0.00000000000E+00 0. -1.
         11    1    3    3    0    0  0.11936018615E+02  0.23315441999E+02  0.14822598256E+02  0.30096308661E+02  0.00000000000E+00 0.  1.
          1    1    1    2  501    0  0.49922879879E+02  0.58535306235E+02  0.81731348561E+02  0.11224388335E+03  0.00000000000E+00 0. -1.
<scales pt_clust_5="13000.00000" pt_clust_6="13000.00000" pt_clust_7="13000.00000" pt_clust_8="13000.00000" pt_clust_9="76.93297"></scales>
<clustering>
<clus scale="   76.933">  1  9  2 -1</clus>
<clus scale="   80.413">  5  6 -1 -1</clus>
<clus scale="   95.041">  7  8 -1 -1</clus>
<clus scale="   95.985">  1  5  2 -1</clus>
<clus scale="   76.933">  1  5  2 -1</clus>
</clustering>
</event>
<event>
 9    2  0.6190160E-005  0.9609987E+02  0.7546771E-02  0.1296218E+00
         21   -1    0    0  501  502  0.00000000000E+00  0.00000000000E+00  0.44184802611E+02  0.44184802611E+02  0.00000000000E+00 0. -1.
          2   -1    0    0  502    0 -0.00000000000E+00 -0.00000000000E+00 -0.57077120969E+03  0.57077120969E+03  0.00000000000E+00 0. -1.
         24    2    1    2    0    0  0.26877025167E+02  0.26586319509E+02 -0.25515708125E+03  0.26978171994E+03  0.79043237753E+02 0.  0.
         23    2    1    2    0    0 -0.27263921409E+02  0.30667215497E+02 -0.26962030061E+03  0.28789087825E+03  0.92207655655E+02 0.  0.
        -13    1    3    3    0    0  0.24754011294E+02 -0.21698721092E+02 -0.15646817119E+03  0.15989335249E+03  0.00000000000E+00 0.  1.
         14    1    3    3    0    0  0.21230138732E+01  0.48285040600E+02 -0.98688910055E+02  0.10988836745E+03  0.00000000000E+00 0. -1.
        -11    1    4    4    0    0 -0.12835908745E+01  0.60157010168E+02 -0.13846815964E+03  0.15097663631E+03  0.00000000000E+00 0.  1.
         11    1    4    4    0    0 -0.25980330535E+02 -0.29489794671E+02 -0.13115214098E+03  0.13691424194E+03  0.00000000000E+00 0. -1.
          1    1    1    2  501    0  0.38689624159E+00 -0.57253535006E+02 -0.18090252133E+01  0.57283414105E+02  0.00000000000E+00 0. -1.
<scales pt_clust_5="13000.00000" pt_clust_6="13000.00000" pt_clust_7="13000.00000" pt_clust_8="13000.00000" pt_clust_9="57.25484"></scales>
<clustering>
<clus scale="   57.255">  1  9  2 -1</clus>
<clus scale="   79.043">  5  6 -1 -1</clus>
<clus scale="   83.551">  2  5  1 -1</clus>
<clus scale="   92.208">  7  8 -1 -1</clus>
<clus scale="   57.255">  1  5  2 -1</clus>
</clustering>
</event>
<event>
 9    2  0.6190160E-005  0.9408195E+02  0.7546771E-02  0.1297647E+00
         21   -1    0    0  501  502  0.00000000000E+00  0.00000000000E+00  0.33134510513E+03  0.33134510513E+03  0.00000000000E+00 0. -1.
         -1   -1    0    0    0  501 -0.00000000000E+00 -0.00000000000E+00 -0.78557746004E+02  0.78557746004E+02  0.00000000000E+00 0.  1.
         24    2    1    2    0    0 -0.95847784674E+01  0.95985949592E+01 -0.33507426701E+02  0.92303494753E+02  0.84930480371E+02 0.  0.
         23    2    1    2    0    0  0.25886022524E+02 -0.35769350338E+02  0.18208124362E+03  0.20892046527E+03  0.92437270310E+02 0.  0.
        -11    1    3    3    0    0 -0.71112307543E+01  0.46649846415E+02 -0.27700902861E+02  0.54718532443E+02  0.00000000000E+00 0.  1.
         12    1    3    3    0    0 -0.24735477132E+01 -0.37051251456E+02 -0.58065238402E+01  0.37584962310E+02  0.00000000000E+00 0. -1.
        -13    1    4    4    0    0 -0.32852271532E+02 -0.13431642386E+02  0.39490543123E+02  0.53095986271E+02  0.00000000000E+00 0.  1.
         13    1    4    4    0    0  0.58738294056E+02 -0.22337707952E+02  0.14259070050E+03  0.15582447899E+03  0.00000000000E+00 0. -1.
         -2    1    1    2    0  502 -0.16301244056E+02  0.26170755379E+02  0.10421354220E+03  0.10867889111E+03  0.00000000000E+00 0.  1.
<scales pt_clust_5="13000.00000" pt_clust_6="13000.00000" pt_clust_7="13000.00000" pt_clust_8="13000.00000" pt_clust_9="30.83243"></scales>
<clustering>
<clus scale="   30.832">  1  9  2 -1</clus>
<clus scale="   84.930">  5  6 -1 -1</clus>
<clus scale="   86.718">  2  5  1 -1</clus>
<clus scale="   92.437">  7  8 -1 -1</clus>
<clus scale="   30.832">  1  5  2 -1</clus>
</clustering>
</event>
<event>
 9    2  0.6190160E-005  0.2486419E+03  0.7546771E-02  0.1114166E+00
         -3   -1    0    0    0  501 -0.00000000000E+00  0.00000000000E+00  0.37932766311E+03  0.37932766311E+03  0.00000000000E+00 0.  1.
         21   -1    0    0  501  502  0.00000000000E+00 -0.00000000000E+00 -0.41798209409E+03  0.41798209409E+03  0.00000000000E+00 0.  1.
         24    2    1    2    0    0  0.10259692913E+03  0.36961096973E+02  0.25983080327E+03  0.29388271501E+03  0.83443102177E+02 0.  0.
         23    2    1    2    0    0  0.71382347645E+01  0.27069528165E+02  0.66834562819E+02  0.11664508646E+03  0.91408444125E+02 0.  0.
        -11    1    3    3    0    0  0.46450199830E+02  0.59521907259E+02  0.12389728501E+03  0.14508968172E+03  0.00000000000E+00 0.  1.
         12    1    3    3    0    0  0.56146729295E+02 -0.22560810285E+02  0.13593351826E+03  0.14879303329E+03  0.00000000000E+00 0. -1.
        -11    1    4    4    0    0  0.42437809198E+02  0.35682208892E+02  0.23840410794E+02  0.60353565493E+02  0.00000000000E+00 0.  1.
         11    1    4    4    0    0 -0.35299574433E+02 -0.86126807263E+01  0.42994152025E+02  0.56291520968E+02  0.00000000000E+00 0. -1.
         -4    1    1    2    0  502 -0.10973516389E+03 -0.64030625139E+02 -0.36531979707E+03  0.38678195573E+03  0.00000000000E+00 0.  1.
<scales pt_clust_5="13000.00000" pt_clust_6="13000.00000" pt_clust_7="13000.00000" pt_clust_8="13000.00000" pt_clust_9="127.05010"></scales>
<clustering>
<clus scale="   83.443">  5  6 -1 -1</clus>
<clus scale="   91.408">  7  8 -1 -1</clus>
<clus scale="   95.046">  5  7 -1 -1</clus>
<clus scale="  127.050">  2  9  1 -1</clus>
<clus scale="  127.050">  2  5  1 -1</clus>
</clustering>
</event>
<event>
 9    2  0.6190160E-005  0.2393751E+03  0.7546771E-02  0.1156114E+00
         21   -1    0    0  501  502  0.00000000000E+00  0.00000000000E+00  0.10837742269E+04  0.10837742269E+04  0.00000000000E+00 0. -1.
         -3   -1    0    0    0  501 -0.00000000000E+00 -0.00000000000E+00 -0.10205976760E+03  0.10205976760E+03  0.00000000000E+00 0.  1.
         23    2    1    2    0    0 -0.17862092931E+02 -0.31794014773E+02  0.66309458376E+02  0.12030003487E+03  0.93515989971E+02 0.  0.
         24    2    1    2    0    0 -0.36153910824E+02 -0.21576684045E+03  0.68540884484E+03  0.72333177158E+03  0.74573001033E+02 0.  0.
        -13    1    4    4    0    0  0.17707220707E+02 -0.83019256784E+02  0.20116699659E+03  0.21834354394E+03  0.00000000000E+00 0.  1.
         14    1    4    4    0    0 -0.53861131531E+02 -0.13274758367E+03  0.48424184824E+03  0.50498822763E+03  0.00000000000E+00 0. -1.
        -13    1    3    3    0    0 -0.28358682336E+02  0.27576790903E+02  0.32366221372E+02  0.51110336980E+02  0.00000000000E+00 0. -1.
         13    1    3    3    0    0  0.10496589405E+02 -0.59370805675E+02  0.33943237004E+02  0.69189697889E+02  0.00000000000E+00 0.  1.
         -4    1    1    2    0  502  0.54016003755E+02  0.24756085523E+03  0.22999615614E+03  0.34220218810E+03  0.00000000000E+00 0.  1.
<scales pt_clust_5="13000.00000" pt_clust_6="13000.00000" pt_clust_7="13000.00000" pt_clust_8="13000.00000" pt_clust_9="227.46286"></scales>
<clustering>
<clus scale="   74.573">  5  6 -1 -1</clus>
<clus scale="   93.516">  7  8 -1 -1</clus>
<clus scale="  100.375">  2  7  1 -1</clus>
<clus scale="  227.463">  1  9  2 -1</clus>
<clus scale="  227.463">  1  5  2 -1</clus>
</clustering>
</event>
<event>
 9    2  0.6190160E-005  0.1372119E+03  0.7546771E-02  0.1235358E+00
         21   -1    0    0  501  502  0.00000000000E+00  0.00000000000E+00  0.93195867372E+02  0.93195867372E+02  0.00000000000E+00 0.  1.
         -3   -1    0    0    0  501 -0.00000000000E+00 -0.00000000000E+00 -0.38318799591E+03  0.38318799591E+03  0.00000000000E+00 0.  1.
         24    2    1    2    0    0 -0.40733642409E+02 -0.21562080457E+02 -0.18812185639E+03  0.21027753791E+03  0.81869757305E+02 0.  0.
         23    2    1    2    0    0 -0.10127123868E+02  0.11001003502E+03 -0.70111998468E+02  0.15924919571E+03  0.90773606089E+02 0.  0.
        -13    1    3    3    0    0 -0.61127224659E+02  0.39783213296E+01 -0.12420152245E+03  0.13848603833E+03  0.00000000000E+00 0.  1.
         14    1    3    3    0    0  0.20393582249E+02 -0.25540401787E+02 -0.63920333938E+02  0.71791499574E+02  0.00000000000E+00 0. -1.
        -13    1    4    4    0    0  0.17674280365E+02 -0.95499185441E+01 -0.74116122297E+01  0.21412919615E+02  0.00000000000E+00 0. -1.
         13    1    4    4    0    0 -0.27801404233E+02  0.11955995356E+03 -0.62700386239E+02  0.13783627609E+03  0.00000000000E+00 0.  1.
         -4    1    1    2    0  502  0.50860766277E+02 -0.88447954561E+02 -0.31758273682E+02  0.10685712966E+03  0.00000000000E+00 0.  1.
<scales pt_clust_5="13000.00000" pt_clust_6="13000.00000" pt_clust_7="13000.00000" pt_clust_8="13000.00000" pt_clust_9="102.89437"></scales>
<clustering>
<clus scale="   81.870">  5  6 -1 -1</clus>
<clus scale="   90.774">  7  8 -1 -1</clus>
<clus scale="   93.951">  2  5  1 -1</clus>
<clus scale="  102.894">  1  9  2 -1</clus>
<clus scale="  102.894">  1  5  2 -1</clus>
</clustering>
</event>
<event>
 9    2  0.6190160E-005  0.1995605E+03  0.7546771E-02  0.1150503E+00
         21   -1    0    0  501  502  0.00000000000E+00  0.00000000000E+00  0.40862590545E+02  0.40862590545E+02  0.00000000000E+00 0.  1.
          2   -1    0    0  502    0 -0.00000000000E+00 -0.00000000000E+00 -0.16212204794E+04  0.16212204794E+04  0.00000000000E+00 0. -1.
         23    2    1    2    0    0  0.15967657912E+03 -0.39703857500E+02 -0.54100893257E+03  0.57174487482E+03  0.84430625566E+02 0.  0.
         24    2    1    2    0    0 -0.20332389017E+03 -0.54026700980E+02 -0.75175854958E+03  0.78472610869E+03  0.79966618358E+02 0.  0.
        -13    1    4    4    0    0 -0.20116968589E+03 -0.32922426221E+02 -0.68241123884E+03  0.71220659051E+03  0.00000000000E+00 0.  1.
         14    1    4    4    0    0 -0.21542042713E+01 -0.21104274760E+02 -0.69347310742E+02  0.72519518175E+02  0.00000000000E+00 0. -1.
        -13    1    3    3    0    0  0.12597799048E+03 -0.65410894287E+02 -0.43512414592E+03  0.45769210343E+03  0.00000000000E+00 0. -1.
         13    1    3    3    0    0  0.33698588647E+02  0.25707036787E+02 -0.10588478665E+03  0.11405277139E+03  0.00000000000E+00 0.  1.
          1    1    1    2  501    0  0.43647311043E+02  0.93730558480E+02 -0.28759040667E+03  0.30561208641E+03  0.00000000000E+00 0. -1.
<scales pt_clust_5="13000.00000" pt_clust_6="13000.00000" pt_clust_7="13000.00000" pt_clust_8="13000.00000" pt_clust_9="103.39490"></scales>
<clustering>
<clus scale="   79.967">  5  6 -1 -1</clus>
<clus scale="   84.431">  7  8 -1 -1</clus>
<clus scale="  103.395">  1  9  2 -1</clus>
<clus scale="  197.713">  1  5  2 -1</clus>
<clus scale="  103.395">  1  5  2 -1</clus>
</clustering>
</event>
<event>
 9    2  0.6190160E-005  0.1323505E+03  0.7546771E-02  0.1227046E+00
         21   -1    0    0  501  502  0.00000000000E+00  0.00000000000E+00  0.56537908759E+02  0.56537908759E+02  0.00000000000E+00 0. -1.
          2   -1    0    0  502    0 -0.00000000000E+00 -0.00000000000E+00 -0.13943218253E+04  0.13943218253E+04  0.00000000000E+00 0. -1.
         24    2    1    2    0    0  0.87586929113E+02 -0.64497424040E+02 -0.11176428264E+04  0.11256980147E+04  0.78988258144E+02 0.  0.
         23    2    1    2    0    0 -0.36399277084E+02  0.48364227312E+02 -0.24323744126E+03  0.26673315457E+03  0.91203711883E+02 0.  0.
        -13    1    3    3    0    0 -0.11785584609E+02 -0.20373656013E+02 -0.13260380899E+03  0.13467648652E+03  0.00000000000E+00 0.  1.
         14    1    3    3    0    0  0.99372513723E+02 -0.44123768027E+02 -0.98503901744E+03  0.99102152816E+03  0.00000000000E+00 0. -1.
        -11    1    4    4    0    0 -0.45974413601E+02 -0.12663959773E+02 -0.10529852125E+03  0.11559325742E+03  0.00000000000E+00 0.  1.
         11    1    4    4    0    0  0.95751365161E+01  0.61028187085E+02 -0.13793892001E+03  0.15113989715E+03  0.00000000000E+00 0. -1.
          1    1    1    2  501    0 -0.51187652029E+02  0.16133196728E+02  0.23096351101E+02  0.58428564856E+02  0.00000000000E+00 0. -1.
<scales pt_clust_5="13000.00000" pt_clust_6="13000.00000" pt_clust_7="13000.00000" pt_clust_8="13000.00000" pt_clust_9="53.66988"></scales>
<clustering>
<clus scale="   53.670">  1  9  2 -1</clus>
<clus scale="   78.988">  5  6 -1 -1</clus>
<clus scale="   91.204">  7  8 -1 -1</clus>
<clus scale="  124.248">  2  5  1 -1</clus>
<clus scale="   53.670">  1  5  2 -1</clus>
</clustering>
</event>
<event>
 9    2  0.6190160E-005  0.1104504E+03  0.7546771E-02  0.1263350E+00
          4   -1    0    0  502    0 -0.00000000000E+00  0.00000000000E+00  0.51662050932E+02  0.51662050932E+02  0.00000000000E+00 0. -1.
         21   -1    0    0  501  502  0.00000000000E+00 -0.00000000000E+00 -0.58621296361E+03  0.58621296361E+03  0.00000000000E+00 0. -1.
         23    2    1    2    0    0 -0.21575504030E+02 -0.31006066112E+02 -0.97290928088E+02  0.13785887325E+03  0.90070337715E+02 0.  0.
         24    2    1    2    0    0  0.76508554113E+01  0.10609203046E+03 -0.14134816678E+03  0.19440920125E+03  0.80632367962E+02 0.  0.
        -13    1    4    4    0    0  0.41789256508E+02  0.41116181215E+02 -0.48725326158E+02  0.76230175956E+02  0.00000000000E+00 0.  1.
         14    1    4    4    0    0 -0.34138401096E+02  0.64975849246E+02 -0.92622840625E+02  0.11817902530E+03  0.00000000000E+00 0. -1.
        -13    1    3    3    0    0 -0.32189161697E+02  0.12861890390E+02 -0.48672579701E+01  0.35003722020E+02  0.00000000000E+00 0. -1.
         13    1    3    3    0    0  0.10613657667E+02 -0.43867956502E+02 -0.92423670118E+02  0.10285515123E+03  0.00000000000E+00 0.  1.
          3    1    1    2  501    0  0.13924648619E+02 -0.75085964349E+02 -0.29591181781E+03  0.30560694004E+03  0.00000000000E+00 0. -1.
<scales pt_clust_5="13000.00000" pt_clust_6="13000.00000" pt_clust_7="13000.00000" pt_clust_8="13000.00000" pt_clust_9="76.36621"></scales>
<clustering>
<clus scale="   76.366">  2  9  1 -1</clus>
<clus scale="   80.632">  5  6 -1 -1</clus>
<clus scale="   90.070">  7  8 -1 -1</clus>
<clus scale="  102.899">  2  5  1 -1</clus>
<clus scale="   76.366">  2  5  1 -1</clus>
</clustering>
</event>
<event>
 9    2  0.6190160E-005  0.1379080E+03  0.7546771E-02  0.1218673E+00
         21   -1    0    0  501  502  0.00000000000E+00  0.00000000000E+00  0.55437421582E+02  0.55437421582E+02  0.00000000000E+00 0.  1.
         -3   -1    0    0    0  501 -0.00000000000E+00 -0.00000000000E+00 -0.88031311188E+03  0.88031311188E+03  0.00000000000E+00 0.  1.
         23    2    1    2    0    0  0.65150100097E+02  0.95562020036E+02 -0.39398074093E+03  0.42060040667E+03  0.91144076342E+02 0.  0.
         24    2    1    2    0    0 -0.53563383111E+01 -0.75642114248E+02 -0.37063637181E+02  0.11630780324E+03  0.80021072760E+02 0.  0.
        -11    1    4    4    0    0 -0.14452281762E+02 -0.69413190910E+02 -0.58685075277E+02  0.92038022472E+02  0.00000000000E+00 0.  1.
         12    1    4    4    0    0  0.90959434510E+01 -0.62289233388E+01  0.21621438096E+02  0.24269780769E+02  0.00000000000E+00 0. -1.
        -11    1    3    3    0    0 -0.95637518516E+01  0.64831539309E+02 -0.15318748040E+03  0.16661631970E+03  0.00000000000E+00 0. -1.
         11    1    3    3    0    0  0.74713851948E+02  0.30730480727E+02 -0.24079326052E+03  0.25398408697E+03  0.00000000000E+00 0.  1.
         -4    1    1    2    0  502 -0.59793761786E+02 -0.19919905788E+02 -0.39383131219E+03  0.39884232355E+03  0.00000000000E+00 0.  1.
<scales pt_clust_5="13000.00000" pt_clust_6="13000.00000" pt_clust_7="13000.00000" pt_clust_8="13000.00000" pt_clust_9="63.02460"></scales>
<clustering>
<clus scale="   63.025">  1  9  2 -1</clus>
<clus scale="   80.021">  5  6 -1 -1</clus>
<clus scale="   91.144">  7  8 -1 -1</clus>
<clus scale="  130.823">  1  5  2 -1</clus>
<clus scale="   63.025">  1  5  2 -1</clus>
</clustering>
</event>
<event>
 9    2  0.6190160E-005  0.1029596E+03  0.7546771E-02  0.1280350E+00
         21   -1    0    0  501  502  0.00000000000E+00  0.00000000000E+00  0.28804494455E+03  0.28804494455E+03  0.00000000000E+00 0.  1.
         -3   -1    0    0    0  501 -0.00000000000E+00 -0.00000000000E+00 -0.79435008385E+02  0.79435008385E+02  0.00000000000E+00 0.  1.
         23    2    1    2    0    0 -0.29147915334E+02 -0.64571392275E+02  0.35647795927E+02  0.12162590687E+03  0.92211876672E+02 0.  0.
         24    2    1    2    0    0 -0.40428427439E+02  0.22669496712E+02  0.74602212547E+02  0.11829499424E+03  0.79245515458E+02 0.  0.
        -11    1    4    4    0    0 -0.27446248000E+02  0.18049485340E+02 -0.86023932198E+01  0.33957055517E+02  0.00000000000E+00 0.  1.
         12    1    4    4    0    0 -0.12982179439E+02  0.46200113726E+01  0.83204605766E+02  0.84337938727E+02  0.00000000000E+00 0. -1.
        -11    1    3    3    0    0 -0.17316972469E+01 -0.32159757416E+02 -0.29627052079E+02  0.43760838512E+02  0.00000000000E+00 0. -1.
         11    1    3    3    0    0 -0.27416218087E+02 -0.32411634860E+02  0.65274848006E+02  0.77865068360E+02  0.00000000000E+00 0.  1.
         -4    1    1    2    0  502  0.69576342772E+02  0.41901895563E+02  0.98359927689E+02  0.12755905182E+03  0.00000000000E+00 0.  1.
<scales pt_clust_5="13000.00000" pt_clust_6="13000.00000" pt_clust_7="13000.00000" pt_clust_8="13000.00000" pt_clust_9="81.21968"></scales>
<clustering>
<clus scale="   79.246">  5  6 -1 -1</clus>
<clus scale="   81.220">  1  9  2 -1</clus>
<clus scale="   91.529">  1  5  2 -1</clus>
<clus scale="   92.212">  7  8 -1 -1</clus>
<clus scale="   81.220">  1  5  2 -1</clus>
</clustering>
</event>
<event>
 9    2  0.6190160E-005  0.1064564E+03  0.7546771E-02  0.1273580E+00
         21   -1    0    0  501  502  0.00000000000E+00  0.00000000000E+00  0.32849266743E+03  0.32849266743E+03  0.00000000000E+00 0. -1.
          2   -1    0    0  502    0 -0.00000000000E+00 -0.00000000000E+00 -0.48800467449E+03  0.48800467449E+03  0.00000000000E+00 0. -1.
         23    2    1    2    0    0  0.20800168994E+02  0.44855460098E+02 -0.47164905919E+03  0.48357374250E+03  0.94583667036E+02 0.  0.
         24    2    1    2    0    0 -0.25800731904E+02 -0.18407554803E+02  0.20678933384E+03  0.22419163967E+03  0.80594955575E+02 0.  0.
        -13    1    4    4    0    0  0.82777727864E+01 -0.27915361590E+02  0.17243739631E+03  0.17487837082E+03  0.00000000000E+00 0.  1.
         14    1    4    4    0    0 -0.34078504691E+02  0.95078067869E+01  0.34351937534E+02  0.49313268845E+02  0.00000000000E+00 0. -1.
        -11    1    3    3    0    0  0.90111291246E+01 -0.26240281578E+02 -0.66345230735E+02  0.71912742033E+02  0.00000000000E+00 0.  1.
         11    1    3    3    0    0  0.11789039870E+02  0.71095741676E+02 -0.40530382845E+03  0.41166100046E+03  0.00000000000E+00 0. -1.
          1    1    1    2  501    0  0.50005629100E+01 -0.26447905295E+02  0.10534771829E+03  0.10873195976E+03  0.00000000000E+00 0. -1.
<scales pt_clust_5="13000.00000" pt_clust_6="13000.00000" pt_clust_7="13000.00000" pt_clust_8="13000.00000" pt_clust_9="26.91649"></scales>
<clustering>
<clus scale="   26.916">  1  9  2 -1</clus>
<clus scale="   80.595">  5  6 -1 -1</clus>
<clus scale="   94.247">  1  5  2 -1</clus>
<clus scale="   94.584">  7  8 -1 -1</clus>
<clus scale="   26.916">  1  5  2 -1</clus>
</clustering>
</event>
<event>
 9    2  0.6190160E-005  0.1223796E+03  0.7546771E-02  0.1242662E+00
         -3   -1    0    0    0  501 -0.00000000000E+00  0.00000000000E+00  0.12064266703E+03  0.12064266703E+03  0.00000000000E+00 0.  1.
         21   -1    0    0  501  502  0.00000000000E+00 -0.00000000000E+00 -0.22099624622E+03  0.22099624622E+03  0.00000000000E+00 0.  1.
         24    2    1    2    0    0 -0.61066660095E+02 -0.91955582003E+02 -0.28109038537E+02  0.13871795832E+03  0.79168098855E+02 0.  0.
         23    2    1    2    0    0  0.11138914048E+02  0.45938899743E+02 -0.86053864349E+02  0.13363161742E+03  0.90651440636E+02 0.  0.
        -11    1    3    3    0    0 -0.19593325596E+02 -0.73645495536E+02  0.13250792413E+02  0.77350765479E+02  0.00000000000E+00 0.  1.
         12    1    3    3    0    0 -0.41473334500E+02 -0.18310086467E+02 -0.41359830950E+02  0.61367192841E+02  0.00000000000E+00 0. -1.
        -11    1    4    4    0    0  0.25892855841E+02 -0.22020791669E+01  0.77937807590E+01  0.27129912547E+02  0.00000000000E+00 0. -1.
         11    1    4    4    0    0 -0.14753941793E+02  0.48140978910E+02 -0.93847645108E+02  0.10650170487E+03  0.00000000000E+00 0.  1.
         -4    1    1    2    0  502  0.49927746047E+02  0.46016682260E+02  0.13809323692E+02  0.69289337509E+02  0.00000000000E+00 0.  1.
<scales pt_clust_5="13000.00000" pt_clust_6="13000.00000" pt_clust_7="13000.00000" pt_clust_8="13000.00000" pt_clust_9="67.89933"></scales>
<clustering>
<clus scale="   67.899">  2  9  1 -1</clus>
<clus scale="   79.168">  5  6 -1 -1</clus>
<clus scale="   90.651">  7  8 -1 -1</clus>
<clus scale="  114.134">  1  5  2 -1</clus>
<clus scale="   67.899">  2  5  1 -1</clus>
</clustering>
</event>
<event>
 9    2  0.6190160E-005  0.1514638E+03  0.7546771E-02  0.1200951E+00
         21   -1    0    0  501  502  0.00000000000E+00  0.00000000000E+00  0.10866392530E+03  0.10866392530E+03  0.00000000000E+00 0. -1.
          2   -1    0    0  502    0 -0.00000000000E+00 -0.00000000000E+00 -0.61887325023E+03  0.61887325023E+03  0.00000000000E+00 0. -1.
         24    2    1    2    0    0 -0.11114593347E+03 -0.80670108137E+02 -0.49368245154E+03  0.51870386495E+03  0.80437874654E+02 0.  0.
         23    2    1    2    0    0  0.68072807036E+02  0.10049788748E+02 -0.40910475260E+02  0.12259478224E+03  0.92848846711E+02 0.  0.
        -13    1    3    3    0    0 -0.31753796824E+02 -0.72408448889E+02 -0.23050701759E+03  0.24368991001E+03  0.00000000000E+00 0.  1.
         14    1    3    3    0    0 -0.79392136641E+02 -0.82616592481E+01 -0.26317543395E+03  0.27501395493E+03  0.00000000000E+00 0. -1.
        -13    1    4    4    0    0 -0.11207638495E+02  0.31305357105E+02 -0.82824663175E+01  0.34267124075E+02  0.00000000000E+00 0.  1.
         13    1    4    4    0    0  0.79280445531E+02 -0.21255568357E+02 -0.32628008942E+02  0.88327658167E+02  0.00000000000E+00 0. -1.
          1    1    1    2  501    0  0.43073126429E+02  0.70620319389E+02  0.24383601866E+02  0.86238528344E+02  0.00000000000E+00 0. -1.
<scales pt_clust_5="13000.00000" pt_clust_6="13000.00000" pt_clust_7="13000.00000" pt_clust_8="13000.00000" pt_clust_9="82.71955"></scales>
<clustering>
<clus scale="   80.438">  5  6 -1 -1</clus>
<clus scale="   82.720">  1  9  2 -1</clus>
<clus scale="   92.849">  7  8 -1 -1</clus>
<clus scale="  144.190">  2  5  1 -1</clus>
<clus scale="   82.720">  1  5  2 -1</clus>
</clustering>
</event>
<event>
 9    2  0.6190160E-005  0.2111332E+03  0.7546771E-02  0.1141478E+00
          2   -1    0    0  502    0 -0.00000000000E+00  0.00000000000E+00  0.16709621734E+04  0.16709621734E+04  0.00000000000E+00 0. -1.
         21   -1    0    0  501  502  0.00000000000E+00 -0.00000000000E+00 -0.49172734313E+02  0.49172734313E+02  0.00000000000E+00 0. -1.
         23    2    1    2    0    0  0.71488246533E+02 -0.21060037804E+03  0.74111586650E+03  0.77893729386E+03  0.89596269887E+02 0.  0.
         24    2    1    2    0    0  0.28014099857E+02  0.16060906035E+03  0.30517167738E+03  0.35502163330E+03  0.79564737024E+02 0.  0.
        -11    1    4    4    0    0  0.39345525424E+02  0.39035418918E+02  0.63710900132E+02  0.84444733978E+02  0.00000000000E+00 0.  1.
         12    1    4    4    0    0 -0.11331425568E+02  0.12157364144E+03  0.24146077725E+03  0.27057689933E+03  0.00000000000E+00 0. -1.
        -11    1    3    3    0    0 -0.16032882623E+02 -0.69065082617E+02  0.27551665748E+03  0.28449335232E+03  0.00000000000E+00 0.  1.
         11    1    3    3    0    0  0.87521129156E+02 -0.14153529542E+03  0.46559920902E+03  0.49444394155E+03  0.00000000000E+00 0. -1.
          1    1    1    2  501    0 -0.99502346390E+02  0.49991317682E+02  0.57550189516E+03  0.58617598050E+03  0.00000000000E+00 0. -1.
<scales pt_clust_5="13000.00000" pt_clust_6="13000.00000" pt_clust_7="13000.00000" pt_clust_8="13000.00000" pt_clust_9="111.35466"></scales>
<clustering>
<clus scale="   79.565">  5  6 -1 -1</clus>
<clus scale="   89.596">  7  8 -1 -1</clus>
<clus scale="  111.355">  2  9  1 -1</clus>
<clus scale="  207.076">  2  5  1 -1</clus>
<clus scale="  111.355">  2  5  1 -1</clus>
</clustering>
</event>
<event>
 9    2  0.6190160E-005  0.1111249E+03  0.7546771E-02  0.1262593E+00
         21   -1    0    0  501  502  0.00000000000E+00  0.00000000000E+00  0.13824061156E+03  0.13824061156E+03  0.00000000000E+00 0. -1.
          2   -1    0    0  502    0 -0.00000000000E+00 -0.00000000000E+00 -0.29575505657E+03  0.29575505657E+03  0.00000000000E+00 0. -1.
         23    2    1    2    0    0  0.60836537531E+02  0.44867688667E+02 -0.21779540698E+03  0.24788344238E+03  0.91088791415E+02 0.  0.
         24    2    1    2    0    0  0.85331288314E+01 -0.35803032011E+01  0.67058510576E+02  0.10510152291E+03  0.80398093374E+02 0.  0.
        -11    1    4    4    0    0 -0.31303877796E+02 -0.16509690267E+01  0.56117694498E+01  0.31845728444E+02  0.00000000000E+00 0.  1.
         12    1    4    4    0    0  0.39837006627E+02 -0.19293341744E+01  0.61446741126E+02  0.73255794463E+02  0.00000000000E+00 0. -1.
        -11    1    3    3    0    0 -0.10738436743E+02  0.38614508891E+02 -0.12011375388E+03  0.12662427963E+03  0.00000000000E+00 0.  1.
         11    1    3    3    0    0  0.71574974274E+02  0.62531797763E+01 -0.97681653101E+02  0.12125916276E+03  0.00000000000E+00 0. -1.
          1    1    1    2  501    0 -0.69369666362E+02 -0.41287385466E+02 -0.67775486137E+01  0.81010702843E+02  0.00000000000E+00 0. -1.
<scales pt_clust_5="13000.00000" pt_clust_6="13000.00000" pt_clust_7="13000.00000" pt_clust_8="13000.00000" pt_clust_9="80.72669"></scales>
<clustering>
<clus scale="   80.398">  5  6 -1 -1</clus>
<clus scale="   80.727">  1  9  2 -1</clus>
<clus scale="   91.089">  7  8 -1 -1</clus>
<clus scale="  102.545">  1  5  2 -1</clus>
<clus scale="   80.727">  1  5  2 -1</clus>
</clustering>
</event>
<event>
 9    2  0.6190160E-005  0.1070358E+03  0.7546771E-02  0.1269777E+00
         21   -1    0    0  501  502  0.00000000000E+00  0.00000000000E+00  0.17281538235E+03  0.17281538235E+03  0.00000000000E+00 0.  1.
         -1   -1    0    0    0  501 -0.00000000000E+00 -0.00000000000E+00 -0.16590050446E+03  0.16590050446E+03  0.00000000000E+00 0.  1.
         23    2    1    2    0    0  0.45737259544E+01 -0.32839070436E+02 -0.97169758909E+01  0.98138938002E+02  0.91855908985E+02 0.  0.
         24    2    1    2    0    0  0.70544777787E+02  0.88594854978E+02  0.35839373209E+02  0.14507602777E+03  0.83288529591E+02 0.  0.
        -11    1    4    4    0    0  0.43531632919E+02  0.91706975877E+02  0.18277974168E+01  0.10153084917E+03  0.00000000000E+00 0.  1.
         12    1    4    4    0    0  0.27013144868E+02 -0.31121208995E+01  0.34011575792E+02  0.43545178608E+02  0.00000000000E+00 0. -1.
        -13    1    3    3    0    0 -0.35417009638E+02 -0.21276765491E+01  0.18859258405E+02  0.40181627727E+02  0.00000000000E+00 0.  1.
         13    1    3    3    0    0  0.39990735593E+02 -0.30711393887E+02 -0.28576234296E+02  0.57957310274E+02  0.00000000000E+00 0. -1.
         -2    1    1    2    0  502 -0.75118503741E+02 -0.55755784542E+02 -0.19207519431E+02  0.95500921027E+02  0.00000000000E+00 0.  1.
<scales pt_clust_5="13000.00000" pt_clust_6="13000.00000" pt_clust_7="13000.00000" pt_clust_8="13000.00000" pt_clust_9="93.54948"></scales>
<clustering>
<clus scale="   83.289">  5  6 -1 -1</clus>
<clus scale="   91.856">  7  8 -1 -1</clus>
<clus scale="   93.549">  1  9  2 -1</clus>
<clus scale="   99.780">  1  5  2 -1</clus>
<clus scale="   93.549">  1  5  2 -1</clus>
</clustering>
</event>
<event>
 9    2  0.6190160E-005  0.1697465E+03  0.7546771E-02  0.1202055E+00
         21   -1    0    0  501  502  0.00000000000E+00  0.00000000000E+00  0.42380614212E+02  0.42380614212E+02  0.00000000000E+00 0. -1.
          2   -1    0    0  502    0 -0.00000000000E+00 -0.00000000000E+00 -0.13300957810E+04  0.13300957810E+04  0.00000000000E+00 0. -1.
         23    2    1    2    0    0 -0.41701973931E+02 -0.93180324278E+01 -0.49621003225E+03  0.50618953870E+03  0.90429932159E+02 0.  0.
         24    2    1    2    0    0 -0.10257968748E+03 -0.92103073995E+02 -0.24548439006E+03  0.29249064526E+03  0.79263000675E+02 0.  0.
        -11    1    4    4    0    0 -0.35418833204E+02 -0.48103177497E+02 -0.17750547827E+03  0.18728749090E+03  0.00000000000E+00 0.  1.
         12    1    4    4    0    0 -0.67160854276E+02 -0.43999896498E+02 -0.67978911794E+02  0.10520315436E+03  0.00000000000E+00 0. -1.
        -11    1    3    3    0    0 -0.69782187462E+02 -0.13509442878E+02 -0.32948403106E+03  0.33706347393E+03  0.00000000000E+00 0. -1.
         11    1    3    3    0    0  0.28080213531E+02  0.41914104502E+01 -0.16672600119E+03  0.16912606477E+03  0.00000000000E+00 0.  1.
          1    1    1    2  501    0  0.14428166141E+03  0.10142110642E+03 -0.54602074446E+03  0.57379621124E+03  0.00000000000E+00 0. -1.
<scales pt_clust_5="13000.00000" pt_clust_6="13000.00000" pt_clust_7="13000.00000" pt_clust_8="13000.00000" pt_clust_9="150.10418"></scales>
<clustering>
<clus scale="   79.263">  5  6 -1 -1</clus>
<clus scale="   90.430">  7  8 -1 -1</clus>
<clus scale="  100.017">  2  7  1 -1</clus>
<clus scale="  150.104">  1  9  2 -1</clus>
<clus scale="  150.104">  1  5  2 -1</clus>
</clustering>
</event>
<event>
 9    2  0.6190160E-005  0.1444457E+03  0.7546771E-02  0.1211513E+00
         21   -1    0    0  501  502  0.00000000000E+00  0.00000000000E+00  0.12384575156E+03  0.12384575156E+03  0.00000000000E+00 0. -1.
         -3   -1    0    0    0  501 -0.00000000000E+00 -0.00000000000E+00 -0.23052086186E+03  0.23052086186E+03  0.00000000000E+00 0.  1.
         24    2    1    2    0    0 -0.62061392279E+02 -0.82136869968E+02 -0.29591733029E+02  0.13278911580E+03  0.78480550395E+02 0.  0.
         23    2    1    2    0    0  0.25108541682E+02  0.11404917937E+03 -0.32480558498E+02  0.15544641491E+03  0.97318790831E+02 0.  0.
        -13    1    3    3    0    0 -0.38925822752E+02 -0.77814037456E+02 -0.51102192766E+02  0.10090430223E+03  0.00000000000E+00 0.  1.
         14    1    3    3    0    0 -0.23135569527E+02 -0.43228325122E+01  0.21510459738E+02  0.31884813570E+02  0.00000000000E+00 0. -1.
        -13    1    4    4    0    0 -0.15685697217E+02  0.10729122936E+03 -0.35212637223E+02  0.11400604728E+03  0.00000000000E+00 0.  1.
         13    1    4    4    0    0  0.40794238899E+02  0.67579500044E+01  0.27320787251E+01  0.41440367635E+02  0.00000000000E+00 0. -1.
         -4    1    1    2    0  502  0.36952850597E+02 -0.31912309400E+02 -0.44602818776E+02  0.66131082716E+02  0.00000000000E+00 0.  1.
<scales pt_clust_5="13000.00000" pt_clust_6="13000.00000" pt_clust_7="13000.00000" pt_clust_8="13000.00000" pt_clust_9="48.82531"></scales>
<clustering>
<clus scale="   48.825">  1  9  2 -1</clus>
<clus scale="   78.481">  5  6 -1 -1</clus>
<clus scale="   97.319">  7  8 -1 -1</clus>
<clus scale="  132.487">  2  5  1 -1</clus>
<clus scale="   48.825">  1  5  2 -1</clus>
</clustering>
</event>
<event>
 9    2  0.6190160E-005  0.9431451E+02  0.7546771E-02  0.1297642E+00
         21   -1    0    0  501  502  0.00000000000E+00  0.00000000000E+00  0.16533577216E+03  0.16533577216E+03  0.00000000000E+00 0. -1.
          2   -1    0    0  502    0 -0.00000000000E+00 -0.00000000000E+00 -0.92192845445E+02  0.92192845445E+02  0.00000000000E+00 0. -1.
         24    2    1    2    0    0  0.27374687435E+02  0.74225542892E+01 -0.21274166421E+02  0.88876099252E+02  0.81497871365E+02 0.  0.
         23    2    1    2    0    0 -0.13874896220E+02 -0.32230169855E+02  0.35013837513E+02  0.10287707513E+03  0.90146698083E+02 0.  0.
        -13    1    3    3    0    0  0.24406190727E+02  0.18608358896E+02  0.25989141401E+02  0.40216521946E+02  0.00000000000E+00 0.  1.
         14    1    3    3    0    0  0.29684967077E+01 -0.11185804607E+02 -0.47263307821E+02  0.48659577306E+02  0.00000000000E+00 0. -1.
        -13    1    4    4    0    0  0.19708590505E+01  0.31190329994E+02  0.13662453208E+02  0.34108409494E+02  0.00000000000E+00 0.  1.
         13    1    4    4    0    0 -0.15845755270E+02 -0.63420499849E+02  0.21351384305E+02  0.68768665633E+02  0.00000000000E+00 0. -1.
          1    1    1    2  501    0 -0.13499791216E+02  0.24807615566E+02  0.59403255620E+02  0.65775443223E+02  0.00000000000E+00 0. -1.
<scales pt_clust_5="13000.00000" pt_clust_6="13000.00000" pt_clust_7="13000.00000" pt_clust_8="13000.00000" pt_clust_9="28.24291"></scales>
<clustering>
<clus scale="   28.243">  1  9  2 -1</clus>
<clus scale="   81.498">  5  6 -1 -1</clus>
<clus scale="   86.085">  2  5  1 -1</clus>
<clus scale="   90.147">  7  8 -1 -1</clus>
<clus scale="   28.243">  1  5  2 -1</clus>
</clustering>
</event>
<event>
 9    2  0.6190160E-005  0.1640958E+03  0.7546771E-02  0.1207700E+00
         -3   -1    0    0    0  501 -0.00000000000E+00  0.00000000000E+00  0.63284875258E+02  0.63284875258E+02  0.00000000000E+00 0.  1.
         21   -1    0    0  501  502  0.00000000000E+00 -0.00000000000E+00 -0.68013338384E+03  0.68013338384E+03  0.00000000000E+00 0.  1.
         23    2    1    2    0    0  0.20839381990E+01 -0.19832277928E+02 -0.20732036006E+03  0.22933054029E+03  0.95984910107E+02 0.  0.
         24    2    1    2    0    0  0.91459171437E+02  0.11993848974E+03 -0.26555741520E+03  0.31534381561E+03  0.78555457577E+02 0.  0.
        -13    1    4    4    0    0  0.10069480686E+02  0.60391836305E+02 -0.56851844697E+02  0.83550586946E+02  0.00000000000E+00 0.  1.
         14    1    4    4    0    0  0.81389690751E+02  0.59546653438E+02 -0.20870557050E+03  0.23179322867E+03  0.00000000000E+00 0. -1.
        -13    1    3    3    0    0 -0.28838118868E+02 -0.29426053266E+02 -0.35195438911E+02  0.54187162970E+02  0.00000000000E+00 0. -1.
         13    1    3    3    0    0  0.30922057067E+02  0.95937753376E+01 -0.17212492115E+03  0.17514337732E+03  0.00000000000E+00 0.  1.
         -4    1    1    2    0  502 -0.93543109636E+02 -0.10010621181E+03 -0.14397073332E+03  0.19874390319E+03  0.00000000000E+00 0.  1.
<scales pt_clust_5="13000.00000" pt_clust_6="13000.00000" pt_clust_7="13000.00000" pt_clust_8="13000.00000" pt_clust_9="144.07116"></scales>
<clustering>
<clus scale="   78.555">  5  6 -1 -1</clus>
<clus scale="   95.985">  7  8 -1 -1</clus>
<clus scale="   98.035">  1  7  2 -1</clus>
<clus scale="  144.071">  2  9  1 -1</clus>
<clus scale="  144.071">  2  5  1 -1</clus>
</clustering>
</event>
<event>
 9    2  0.6190160E-005  0.1526930E+03  0.7546771E-02  0.1224482E+00
         21   -1    0    0  501  502  0.00000000000E+00  0.00000000000E+00  0.27637076397E+03  0.27637076397E+03  0.00000000000E+00 0. -1.
          4   -1    0    0  502    0 -0.00000000000E+00 -0.00000000000E+00 -0.14115854378E+03  0.14115854378E+03  0.00000000000E+00 0. -1.
         23    2    1    2    0    0  0.10259530998E+02  0.66234429246E+01  0.13090526884E+02  0.86340709102E+02  0.84464360423E+02 0.  0.
         24    2    1    2    0    0 -0.10535272306E+03  0.69696940078E+02  0.13982699006E+03  0.20797742395E+03  0.88012283288E+02 0.  0.
        -11    1    4    4    0    0 -0.64284661946E+02 -0.71486096826E+01  0.42744239719E+02  0.77528642520E+02  0.00000000000E+00 0.  1.
         12    1    4    4    0    0 -0.41068061116E+02  0.76845549760E+02  0.97082750342E+02  0.13044878143E+03  0.00000000000E+00 0. -1.
        -13    1    3    3    0    0  0.45972333243E+02  0.92432378271E+01  0.17936186666E+02  0.50205574008E+02  0.00000000000E+00 0.  1.
         13    1    3    3    0    0 -0.35712802245E+02 -0.26197949024E+01 -0.48456597826E+01  0.36135135094E+02  0.00000000000E+00 0. -1.
          3    1    1    2  501    0  0.95093192063E+02 -0.76320383002E+02 -0.17705296746E+02  0.12321117470E+03  0.00000000000E+00 0. -1.
<scales pt_clust_5="13000.00000" pt_clust_6="13000.00000" pt_clust_7="13000.00000" pt_clust_8="13000.00000" pt_clust_9="124.77585"></scales>
<clustering>
<clus scale="   84.464">  7  8 -1 -1</clus>
<clus scale="   85.343">  2  7  1 -1</clus>
<clus scale="   88.012">  5  6 -1 -1</clus>
<clus scale="  124.776">  1  9  2 -1</clus>
<clus scale="  124.776">  1  5  2 -1</clus>
</clustering>
</event>
<event>
 9    2  0.6190160E-005  0.9983057E+02  0.7546771E-02  0.1284214E+00
         21   -1    0    0  501  502  0.00000000000E+00  0.00000000000E+00  0.81085105066E+03  0.81085105066E+03  0.00000000000E+00 0. -1.
         -3   -1    0    0    0  501 -0.00000000000E+00 -0.00000000000E+00 -0.23540502320E+02  0.23540502320E+02  0.00000000000E+00 0.  1.
         23    2    1    2    0    0  0.34600589723E+02 -0.37372585928E+02  0.13977321943E+03  0.17295078872E+03  0.88212875839E+02 0.  0.
         24    2    1    2    0    0 -0.83884517106E+01  0.32941589270E+02  0.60476540148E+03  0.61108058468E+03  0.80763702971E+02 0.  0.
        -13    1    4    4    0    0 -0.19602156645E+02  0.12159890850E+02  0.42809935025E+02  0.48629189048E+02  0.00000000000E+00 0.  1.
         14    1    4    4    0    0  0.11213704934E+02  0.20781698420E+02  0.56195546645E+03  0.56245139563E+03  0.00000000000E+00 0. -1.
        -13    1    3    3    0    0 -0.28061383784E+02  0.15011933882E+01  0.40015330911E+02  0.48897050519E+02  0.00000000000E+00 0.  1.
         13    1    3    3    0    0  0.62661973507E+02 -0.38873779316E+02  0.99757888514E+02  0.12405373821E+03  0.00000000000E+00 0. -1.
         -4    1    1    2    0  502 -0.26212138012E+02  0.44309966578E+01  0.42771927434E+02  0.50360179576E+02  0.00000000000E+00 0.  1.
<scales pt_clust_5="13000.00000" pt_clust_6="13000.00000" pt_clust_7="13000.00000" pt_clust_8="13000.00000" pt_clust_9="26.58403"></scales>
<clustering>
<clus scale="   26.584">  1  9  2 -1</clus>
<clus scale="   80.764">  5  6 -1 -1</clus>
<clus scale="   88.213">  7  8 -1 -1</clus>
<clus scale="   93.313">  1  5  2 -1</clus>
<clus scale="   26.584">  1  5  2 -1</clus>
</clustering>
</event>
<event>
 9    2  0.6190160E-005  0.1499493E+03  0.7546771E-02  0.1203137E+00
         21   -1    0    0  501  502  0.00000000000E+00  0.00000000000E+00  0.33672172679E+02  0.33672172679E+02  0.00000000000E+00 0. -1.
         -1   -1    0    0    0  501 -0.00000000000E+00 -0.00000000000E+00 -0.83840031619E+03  0.83840031619E+03  0.00000000000E+00 0.  1.
         23    2    1    2    0    0 -0.40007329729E+01 -0.11026237860E+03 -0.45228630036E+03  0.47478006693E+03  0.93163385826E+02 0.  0.
         24    2    1    2    0    0  0.20063159080E+02  0.12966671517E+03 -0.26345169783E+03  0.30480579710E+03  0.79270356906E+02 0.  0.
        -11    1    4    4    0    0 -0.11132387146E+02  0.79103162831E+02 -0.21077135769E+03  0.22540143219E+03  0.00000000000E+00 0.  1.
         12    1    4    4    0    0  0.31195546227E+02  0.50563552335E+02 -0.52680340139E+02  0.79404364907E+02  0.00000000000E+00 0. -1.
        -11    1    3    3    0    0 -0.46988860939E+02 -0.64797686854E+02 -0.29019815578E+03  0.30103432178E+03  0.00000000000E+00 0. -1.
         11    1    3    3    0    0  0.42988127967E+02 -0.45464691749E+02 -0.16208814458E+03  0.17374574514E+03  0.00000000000E+00 0.  1.
         -2    1    1    2    0  502 -0.16062426107E+02 -0.19404336562E+02 -0.88990145328E+02  0.92486624846E+02  0.00000000000E+00 0.  1.
<scales pt_clust_5="13000.00000" pt_clust_6="13000.00000" pt_clust_7="13000.00000" pt_clust_8="13000.00000" pt_clust_9="25.18989"></scales>
<clustering>
<clus scale="   25.190">  1  9  2 -1</clus>
<clus scale="   79.270">  5  6 -1 -1</clus>
<clus scale="   93.163">  7  8 -1 -1</clus>
<clus scale="  141.736">  1  5  2 -1</clus>
<clus scale="   25.190">  1  5  2 -1</clus>
</clustering>
</event>
<event>
 9    2  0.6190160E-005  0.9438223E+02  0.7546771E-02  0.1296089E+00
          2   -1    0    0  502    0 -0.00000000000E+00  0.00000000000E+00  0.28779562077E+02  0.28779562077E+02  0.00000000000E+00 0. -1.
         21   -1    0    0  501  502  0.00000000000E+00 -0.00000000000E+00 -0.77018330791E+03  0.77018330791E+03  0.00000000000E+00 0.  1.
         23    2    1    2    0    0  0.17374115815E+02 -0.54627277746E+02 -0.20697581135E+03  0.23280488192E+03  0.89850582564E+02 0.  0.
         24    2    1    2    0    0 -0.45610140162E+01 -0.26200641313E+02 -0.39386754930E+03  0.40350944070E+03  0.83552054986E+02 0.  0.
        -11    1    4    4    0    0  0.17677511975E+02 -0.48950501941E+02 -0.18304686029E+03  0.19030186318E+03  0.00000000000E+00 0.  1.
         12    1    4    4    0    0 -0.22238525992E+02  0.22749860629E+02 -0.21082068901E+03  0.21320757752E+03  0.00000000000E+00 0. -1.
        -11    1    3    3    0    0 -0.13348681708E+02  0.20561802253E+02 -0.36503430426E+02  0.43971302552E+02  0.00000000000E+00 0.  1.
         11    1    3    3    0    0  0.30722797523E+02 -0.75189079999E+02 -0.17047238092E+03  0.18883357937E+03  0.00000000000E+00 0. -1.
          1    1    1    2  501    0 -0.12813101798E+02  0.80827919058E+02 -0.14056038519E+03  0.16264854737E+03  0.00000000000E+00 0. -1.
<scales pt_clust_5="13000.00000" pt_clust_6="13000.00000" pt_clust_7="13000.00000" pt_clust_8="13000.00000" pt_clust_9="81.83725"></scales>
<clustering>
<clus scale="   81.837">  2  9  1 -1</clus>
<clus scale="   83.552">  5  6 -1 -1</clus>
<clus scale="   88.407">  2  5  1 -1</clus>
<clus scale="   89.851">  7  8 -1 -1</clus>
<clus scale="   81.837">  2  5  1 -1</clus>
</clustering>
</event>
<event>
 9    2  0.6190160E-005  0.1998527E+03  0.7546771E-02  0.1158078E+00
         21   -1    0    0  501  502  0.00000000000E+00  0.00000000000E+00  0.11629069152E+03  0.11629069152E+03  0.00000000000E+00 0.  1.
         -1   -1    0    0    0  501 -0.00000000000E+00 -0.00000000000E+00 -0.74890073664E+03  0.74890073664E+03  0.00000000000E+00 0.  1.
         23    2    1    2    0    0 -0.75396413394E+02 -0.11476225500E+03 -0.15150803575E+03  0.22380895907E+03  0.90998741389E+02 0.  0.
         24    2    1    2    0    0 -0.15184950672E+03  0.76085789214E+02 -0.16498321119E+03  0.25014383121E+03  0.80654549185E+02 0.  0.
        -13    1    4    4    0    0 -0.15590120523E+03  0.82043124695E+02 -0.14266839026E+03  0.22669479412E+03  0.00000000000E+00 0.  1.
         14    1    4    4    0    0  0.40516985140E+01 -0.59573354805E+01 -0.22314820937E+02  0.23449037087E+02  0.00000000000E+00 0. -1.
        -11    1    3    3    0    0  0.14245685322E+01 -0.76905782062E+02 -0.89866573839E+02  0.11829002411E+03  0.00000000000E+00 0.  1.
         11    1    3    3    0    0 -0.76820981926E+02 -0.37856472942E+02 -0.61641461912E+02  0.10551893496E+03  0.00000000000E+00 0. -1.
         -2    1    1    2    0  502  0.22724592011E+03  0.38676465790E+02 -0.31611879817E+03  0.39123863788E+03  0.00000000000E+00 0.  1.
<scales pt_clust_5="13000.00000" pt_clust_6="13000.00000" pt_clust_7="13000.00000" pt_clust_8="13000.00000" pt_clust_9="182.85502"></scales>
<clustering>
<clus scale="   80.655">  5  6 -1 -1</clus>
<clus scale="   90.999">  7  8 -1 -1</clus>
<clus scale="  164.729">  2  7  1 -1</clus>
<clus scale="  182.855">  1  9  2 -1</clus>
<clus scale="  182.855">  1  5  2 -1</clus>
</clustering>
</event>
<event>
 9    2  0.6190160E-005  0.1055831E+03  0.7546771E-02  0.1271822E+00
         21   -1    0    0  501  502  0.00000000000E+00  0.00000000000E+00  0.80496772170E+03  0.80496772170E+03  0.00000000000E+00 0.  1.
         -1   -1    0    0    0  501 -0.00000000000E+00 -0.00000000000E+00 -0.18619075499E+02  0.18619075499E+02  0.00000000000E+00 0.  1.
         24    2    1    2    0    0  0.28626446881E+02 -0.67972391888E+02  0.25155667382E+03  0.27323783210E+03  0.77061230370E+02 0.  0.
         23    2    1    2    0    0 -0.29031060177E+01  0.50504282703E+02  0.38334411107E+03  0.39574210950E+03  0.84261492639E+02 0.  0.
        -11    1    3    3    0    0  0.53111303337E+02 -0.45951236608E+02  0.13576364672E+03  0.15285317942E+03  0.00000000000E+00 0.  1.
         12    1    3    3    0    0 -0.24484856456E+02 -0.22021155279E+02  0.11579302709E+03  0.12038465267E+03  0.00000000000E+00 0. -1.
        -13    1    4    4    0    0 -0.21280765648E+02  0.58556499228E+02  0.35817906040E+03  0.36355738735E+03  0.00000000000E+00 0.  1.
         13    1    4    4    0    0  0.18377659630E+02 -0.80522165257E+01  0.25165050672E+02  0.32184722149E+02  0.00000000000E+00 0. -1.
         -2    1    1    2    0  502 -0.25723340863E+02  0.17468109185E+02  0.15144786131E+03  0.15460685560E+03  0.00000000000E+00 0.  1.
<scales pt_clust_5="13000.00000" pt_clust_6="13000.00000" pt_clust_7="13000.00000" pt_clust_8="13000.00000" pt_clust_9="31.09381"></scales>
<clustering>
<clus scale="   31.094">  1  9  2 -1</clus>
<clus scale="   77.061">  5  6 -1 -1</clus>
<clus scale="   84.261">  7  8 -1 -1</clus>
<clus scale="   99.931">  2  5  1 -1</clus>
<clus scale="   31.094">  1  5  2 -1</clus>
</clustering>
</event>
<event>
 9    2  0.6190160E-005  0.1373858E+03  0.7546771E-02  0.1218810E+00
         21   -1    0    0  501  502  0.00000000000E+00  0.00000000000E+00  0.56644154186E+02  0.56644154186E+02  0.00000000000E+00 0.  1.
         -1   -1    0    0    0  501 -0.00000000000E+00 -0.00000000000E+00 -0.68060388231E+03  0.68060388231E+03  0.00000000000E+00 0.  1.
         23    2    1    2    0    0  0.27932831842E+02 -0.70205477150E+02 -0.24206161222E+03  0.26948040410E+03  0.91196556771E+02 0.  0.
         24    2    1    2    0    0 -0.99556167052E+02  0.10809975076E+03 -0.33259732793E+03  0.37291803665E+03  0.82764080379E+02 0.  0.
        -11    1    4    4    0    0 -0.58513385762E+02  0.11300495260E+03 -0.24629891942E+03  0.27723111898E+03  0.00000000000E+00 0.  1.
         12    1    4    4    0    0 -0.41042781290E+02 -0.49052018434E+01 -0.86298408505E+02  0.95686917662E+02  0.00000000000E+00 0. -1.
        -11    1    3    3    0    0  0.45210921639E+02 -0.59669500613E+01 -0.58091695239E+02  0.73853077012E+02  0.00000000000E+00 0.  1.
         11    1    3    3    0    0 -0.17278089797E+02 -0.64238527088E+02 -0.18396991698E+03  0.19562732709E+03  0.00000000000E+00 0. -1.
         -2    1    1    2    0  502  0.71623335210E+02 -0.37894273607E+02 -0.49300787978E+02  0.94849595750E+02  0.00000000000E+00 0.  1.
<scales pt_clust_5="13000.00000" pt_clust_6="13000.00000" pt_clust_7="13000.00000" pt_clust_8="13000.00000" pt_clust_9="81.03011"></scales>
<clustering>
<clus scale="   81.030">  1  9  2 -1</clus>
<clus scale="   82.764">  5  6 -1 -1</clus>
<clus scale="   91.197">  7  8 -1 -1</clus>
<clus scale="  131.939">  1  5  2 -1</clus>
<clus scale="   81.030">  1  5  2 -1</clus>
</clustering>
</event>
<event>
 9    2  0.6190160E-005  0.1199219E+03  0.7546771E-02  0.1243568E+00
         21   -1    0    0  501  502  0.00000000000E+00  0.00000000000E+00  0.27795748808E+03  0.27795748808E+03  0.00000000000E+00 0. -1.
         -1   -1    0    0    0  501 -0.00000000000E+00 -0.00000000000E+00 -0.32726201278E+03  0.32726201278E+03  0.00000000000E+00 0.  1.
         24    2    1    2    0    0 -0.36201438734E+02 -0.81342963753E+02 -0.26760853647E+03  0.29330531015E+03  0.80538526507E+02 0.  0.
         23    2    1    2    0    0 -0.47360337557E+02  0.93551923603E+02  0.16558320473E+03  0.21235961948E+03  0.81754793833E+02 0.  0.
        -11    1    3    3    0    0 -0.41714263520E+02 -0.80503314875E+02 -0.14798839975E+03  0.17355526483E+03  0.00000000000E+00 0.  1.
         12    1    3    3    0    0  0.55128247860E+01 -0.83964887836E+00 -0.11962013671E+03  0.11975004532E+03  0.00000000000E+00 0. -1.
        -11    1    4    4    0    0 -0.48595096280E+02  0.21623078333E+02  0.10735208395E+03  0.11980613852E+03  0.00000000000E+00 0. -1.
         11    1    4    4    0    0  0.12347587228E+01  0.71928845270E+02  0.58231120788E+02  0.92553480967E+02  0.00000000000E+00 0.  1.
         -2    1    1    2    0  502  0.83561776291E+02 -0.12208959850E+02  0.52720807038E+02  0.99554571227E+02  0.00000000000E+00 0.  1.
<scales pt_clust_5="13000.00000" pt_clust_6="13000.00000" pt_clust_7="13000.00000" pt_clust_8="13000.00000" pt_clust_9="84.44897"></scales>
<clustering>
<clus scale="   80.539">  5  6 -1 -1</clus>
<clus scale="   81.755">  7  8 -1 -1</clus>
<clus scale="   84.449">  1  9  2 -1</clus>
<clus scale="  119.096">  2  5  1 -1</clus>
<clus scale="   84.449">  1  5  2 -1</clus>
</clustering>
</event>
<event>
 9    2  0.6190160E-005  0.1552870E+03  0.7546771E-02  0.1223542E+00
         21   -1    0    0  501  502  0.00000000000E+00  0.00000000000E+00  0.16186873397E+03  0.16186873397E+03  0.00000000000E+00 0.  1.
          2   -1    0    0  502    0 -0.00000000000E+00 -0.00000000000E+00 -0.34043695794E+03  0.34043695794E+03  0.00000000000E+00 0. -1.
         24    2    1    2    0    0  0.77727878793E+01 -0.17319734371E+02 -0.10668591044E+03  0.13501187884E+03  0.80535299794E+02 0.  0.
         23    2    1    2    0    0  0.80251056302E+02 -0.92973635913E+02  0.69856372135E+02  0.16728711396E+03  0.89558566075E+02 0.  0.
        -11    1    3    3    0    0  0.14781343926E+02  0.28896719054E+02 -0.63766945138E+02  0.71552301099E+02  0.00000000000E+00 0.  1.
         12    1    3    3    0    0 -0.70085560469E+01 -0.46216453425E+02 -0.42918965297E+02  0.63459577742E+02  0.00000000000E+00 0. -1.
        -11    1    4    4    0    0  0.90526090497E+02 -0.42156471135E+02  0.50901317678E+02  0.11208516967E+03  0.00000000000E+00 0.  1.
         11    1    4    4    0    0 -0.10275034196E+02 -0.50817164778E+02  0.18955054457E+02  0.55201944289E+02  0.00000000000E+00 0. -1.
          1    1    1    2  501    0 -0.88023844181E+02  0.11029337028E+03 -0.14173868567E+03  0.20000669911E+03  0.00000000000E+00 0. -1.
<scales pt_clust_5="13000.00000" pt_clust_6="13000.00000" pt_clust_7="13000.00000" pt_clust_8="13000.00000" pt_clust_9="126.85948"></scales>
<clustering>
<clus scale="   80.535">  5  6 -1 -1</clus>
<clus scale="   82.743">  2  5  1 -1</clus>
<clus scale="   89.559">  7  8 -1 -1</clus>
<clus scale="  126.859">  1  9  2 -1</clus>
<clus scale="  126.859">  1  5  2 -1</clus>
</clustering>
</event>
<event>
 9    2  0.6190160E-005  0.1368158E+03  0.7546771E-02  0.1220110E+00
          2   -1    0    0  502    0 -0.00000000000E+00  0.00000000000E+00  0.10221519841E+04  0.10221519841E+04  0.00000000000E+00 0. -1.
         21   -1    0    0  501  502  0.00000000000E+00 -0.00000000000E+00 -0.26503964997E+02  0.26503964997E+02  0.00000000000E+00 0.  1.
         24    2    1    2    0    0 -0.11643159269E+03  0.25069493502E+01  0.67632117997E+03  0.69098688372E+03  0.80560129255E+02 0.  0.
         23    2    1    2    0    0  0.76677966971E+02 -0.19870884328E+01  0.26299509086E+03  0.28872062901E+03  0.91157691185E+02 0.  0.
        -13    1    3    3    0    0 -0.23563526387E+02  0.35364764818E+02  0.23418466307E+03  0.23800916533E+03  0.00000000000E+00 0.  1.
         14    1    3    3    0    0 -0.92868066308E+02 -0.32857815468E+02  0.44213651690E+03  0.45297771838E+03  0.00000000000E+00 0. -1.
        -11    1    4    4    0    0  0.44256451846E+02  0.22662954831E+02  0.23272069692E+03  0.23797303593E+03  0.00000000000E+00 0. -1.
         11    1    4    4    0    0  0.32421515125E+02 -0.24650043264E+02  0.30274393937E+02  0.50747593087E+02  0.00000000000E+00 0.  1.
          1    1    1    2  501    0  0.39753625724E+02 -0.51986091737E+00  0.56331748278E+02  0.68948436368E+02  0.00000000000E+00 0. -1.
<scales pt_clust_5="13000.00000" pt_clust_6="13000.00000" pt_clust_7="13000.00000" pt_clust_8="13000.00000" pt_clust_9="39.75702"></scales>
<clustering>
<clus scale="   39.757">  2  9  1 -1</clus>
<clus scale="   80.560">  5  6 -1 -1</clus>
<clus scale="   91.158">  7  8 -1 -1</clus>
<clus scale="  129.995">  1  5  2 -1</clus>
<clus scale="   39.757">  2  5  1 -1</clus>
</clustering>
</event>
<event>
 9    2  0.6190160E-005  0.1499261E+03  0.7546771E-02  0.1202583E+00
         21   -1    0    0  501  502  0.00000000000E+00  0.00000000000E+00  0.12133935565E+03  0.12133935565E+03  0.00000000000E+00 0. -1.
         -1   -1    0    0    0  501 -0.00000000000E+00 -0.00000000000E+00 -0.59513676285E+03  0.59513676285E+03  0.00000000000E+00 0.  1.
         24    2    1    2    0    0  0.72386815898E+02  0.95152471848E+02 -0.52424116403E+03  0.54383702748E+03  0.81462079391E+02 0.  0.
         23    2    1    2    0    0 -0.48211971275E+02 -0.93798162583E+02  0.48680127465E+02  0.14836219553E+03  0.92298953271E+02 0.  0.
        -11    1    3    3    0    0  0.55753028103E+02  0.10083349759E+03 -0.34490764044E+03  0.36364415961E+03  0.00000000000E+00 0.  1.
         12    1    3    3    0    0  0.16633787795E+02 -0.56810257469E+01 -0.17933352359E+03  0.18019286787E+03  0.00000000000E+00 0. -1.
        -13    1    4    4    0    0 -0.34014711270E+02 -0.62147855720E+02 -0.18088604291E+02  0.73120135111E+02  0.00000000000E+00 0.  1.
         13    1    4    4    0    0 -0.14197260006E+02 -0.31650306863E+02  0.66768731756E+02  0.75242060422E+02  0.00000000000E+00 0. -1.
         -2    1    1    2    0  502 -0.24174844623E+02 -0.13543092645E+01  0.17636293573E+01  0.24276895490E+02  0.00000000000E+00 0.  1.
<scales pt_clust_5="13000.00000" pt_clust_6="13000.00000" pt_clust_7="13000.00000" pt_clust_8="13000.00000" pt_clust_9="24.21275"></scales>
<clustering>
<clus scale="   24.213">  1  9  2 -1</clus>
<clus scale="   81.462">  5  6 -1 -1</clus>
<clus scale="   92.299">  7  8 -1 -1</clus>
<clus scale="  143.509">  2  5  1 -1</clus>
<clus scale="   24.213">  1  5  2 -1</clus>
</clustering>
</event>
<event>
 9    2  0.6190160E-005  0.3551889E+03  0.7546771E-02  0.1087264E+00
          2   -1    0    0  502    0 -0.00000000000E+00  0.00000000000E+00  0.12442724587E+04  0.12442724587E+04  0.00000000000E+00 0. -1.
         21   -1    0    0  501  502  0.00000000000E+00 -0.00000000000E+00 -0.17841290452E+03  0.17841290452E+03  0.00000000000E+00 0. -1.
         24    2    1    2    0    0  0.66212987975E+02  0.13042538338E+03  0.32893139635E+03  0.37085603233E+03  0.89125713477E+02 0.  0.
         23    2    1    2    0    0  0.32020275100E+03 -0.52375169861E+02  0.22246341798E+03  0.40369128410E+03  0.90574391267E+02 0.  0.
        -13    1    3    3    0    0  0.24595027529E+02  0.87905294921E+02  0.10488287654E+03  0.13904198663E+03  0.00000000000E+00 0.  1.
         14    1    3    3    0    0  0.41617960447E+02  0.42520088460E+02  0.22404851981E+03  0.23181404570E+03  0.00000000000E+00 0. -1.
        -11    1    4    4    0    0  0.98323877211E+02 -0.43518601707E+02  0.11348988704E+03  0.15633748106E+03  0.00000000000E+00 0.  1.
         11    1    4    4    0    0  0.22187887378E+03 -0.88565681541E+01  0.10897353095E+03  0.24735380304E+03  0.00000000000E+00 0. -1.
          1    1    1    2  501    0 -0.38641573897E+03 -0.78050213520E+02  0.51446473982E+03  0.64813804677E+03  0.00000000000E+00 0. -1.
<scales pt_clust_5="13000.00000" pt_clust_6="13000.00000" pt_clust_7="13000.00000" pt_clust_8="13000.00000" pt_clust_9="343.44653"></scales>
<clustering>
<clus scale="   89.126">  5  6 -1 -1</clus>
<clus scale="   90.574">  7  8 -1 -1</clus>
<clus scale="  171.284">  1  5  2 -1</clus>
<clus scale="  343.447">  2  9  1 -1</clus>
<clus scale="  343.447">  2  5  1 -1</clus>
</clustering>
</event>
<event>
 9    2  0.6190160E-005  0.1040143E+03  0.7546771E-02  0.1277476E+00
         21   -1    0    0  501  502  0.00000000000E+00  0.00000000000E+00  0.48291431712E+03  0.48291431712E+03  0.00000000000E+00 0. -1.
         -1   -1    0    0    0  501 -0.00000000000E+00 -0.00000000000E+00 -0.42742235307E+02  0.42742235307E+02  0.00000000000E+00 0.  1.
         23    2    1    2    0    0  0.44559106275E+02  0.38786369057E+02  0.13883641711E+03  0.17699780695E+03  0.92535272047E+02 0.  0.
         24    2    1    2    0    0 -0.20811921600E+02 -0.13944143712E+02  0.30265375517E+03  0.31426685250E+03  0.80850379314E+02 0.  0.
        -11    1    4    4    0    0  0.22216142626E+02 -0.38949739663E+01  0.27400713667E+02  0.35489814382E+02  0.00000000000E+00 0.  1.
         12    1    4    4    0    0 -0.43028064226E+02 -0.10049169745E+02  0.27525304151E+03  0.27877703812E+03  0.00000000000E+00 0. -1.
        -11    1    3    3    0    0  0.37692349217E+02 -0.23349572148E+02  0.78267755843E+02  0.89954195642E+02  0.00000000000E+00 0.  1.
         11    1    3    3    0    0  0.68667570584E+01  0.62135941206E+02  0.60568661271E+02  0.87043611312E+02  0.00000000000E+00 0. -1.
         -2    1    1    2    0  502 -0.23747184675E+02 -0.24842225346E+02 -0.13180904699E+01  0.34391892978E+02  0.00000000000E+00 0.  1.
<scales pt_clust_5="13000.00000" pt_clust_6="13000.00000" pt_clust_7="13000.00000" pt_clust_8="13000.00000" pt_clust_9="34.36664"></scales>
<clustering>
<clus scale="   34.367">  1  9  2 -1</clus>
<clus scale="   80.850">  5  6 -1 -1</clus>
<clus scale="   92.535">  7  8 -1 -1</clus>
<clus scale="   93.771">  1  5  2 -1</clus>
<clus scale="   34.367">  1  5  2 -1</clus>
</clustering>
</event>
<event>
 9    2  0.6190160E-005  0.2317243E+03  0.7546771E-02  0.1154239E+00
         21   -1    0    0  501  502  0.00000000000E+00  0.00000000000E+00  0.74847304610E+03  0.74847304610E+03  0.00000000000E+00 0.  1.
          2   -1    0    0  502    0 -0.00000000000E+00 -0.00000000000E+00 -0.24969998027E+03  0.24969998027E+03  0.00000000000E+00 0. -1.
         23    2    1    2    0    0 -0.23661079512E+02 -0.10966165670E+02 -0.11261855683E+03  0.16140878313E+03  0.11264880140E+03 0.  0.
         24    2    1    2    0    0  0.23347525956E+03 -0.27046214674E+02  0.75188479645E+02  0.25971940808E+03  0.80985609240E+02 0.  0.
        -13    1    4    4    0    0  0.16986359450E+03 -0.49848968779E+02  0.33059723338E+02  0.18008749466E+03  0.00000000000E+00 0.  1.
         14    1    4    4    0    0  0.63611665066E+02  0.22802754105E+02  0.42128756307E+02  0.79631913422E+02  0.00000000000E+00 0. -1.
        -13    1    3    3    0    0 -0.70238361023E+01  0.49991013737E+02 -0.35522969243E+02  0.61727765810E+02  0.00000000000E+00 0. -1.
         13    1    3    3    0    0 -0.16637243410E+02 -0.60957179407E+02 -0.77095587583E+02  0.99681017322E+02  0.00000000000E+00 0.  1.
          1    1    1    2  501    0 -0.20981418005E+03  0.38012380344E+02  0.53620314301E+03  0.57704483516E+03  0.00000000000E+00 0. -1.
<scales pt_clust_5="13000.00000" pt_clust_6="13000.00000" pt_clust_7="13000.00000" pt_clust_8="13000.00000" pt_clust_9="217.11167"></scales>
<clustering>
<clus scale="   80.986">  5  6 -1 -1</clus>
<clus scale="  112.649">  7  8 -1 -1</clus>
<clus scale="  115.628">  2  7  1 -1</clus>
<clus scale="  217.112">  1  9  2 -1</clus>
<clus scale="  217.112">  1  5  2 -1</clus>
</clustering>
</event>
<event>
 9    2  0.6190160E-005  0.1923925E+03  0.7546771E-02  0.1159636E+00
         21   -1    0    0  501  502  0.00000000000E+00  0.00000000000E+00  0.17483272793E+03  0.17483272793E+03  0.00000000000E+00 0. -1.
          2   -1    0    0  502    0 -0.00000000000E+00 -0.00000000000E+00 -0.10772795025E+04  0.10772795025E+04  0.00000000000E+00 0. -1.
         24    2    1    2    0    0  0.15493850648E+03 -0.62678395689E+02 -0.80594098895E+03  0.82702125295E+03  0.80552796831E+02 0.  0.
         23    2    1    2    0    0 -0.12147666675E+03  0.61098393083E+02 -0.22945242577E+03  0.28798882496E+03  0.10862574929E+03 0.  0.
        -11    1    3    3    0    0  0.37653325008E+02 -0.40857802800E+02 -0.14267585893E+03  0.15311281349E+03  0.00000000000E+00 0.  1.
         12    1    3    3    0    0  0.11728518147E+03 -0.21820592889E+02 -0.66326513002E+03  0.67390843946E+03  0.00000000000E+00 0. -1.
        -11    1    4    4    0    0 -0.18941526518E+02  0.81336089161E+01  0.94462107513E+01  0.22675271077E+02  0.00000000000E+00 0.  1.
         11    1    4    4    0    0 -0.10253514023E+03  0.52964784167E+02 -0.23889863652E+03  0.26531355388E+03  0.00000000000E+00 0. -1.
          1    1    1    2  501    0 -0.33461839733E+02  0.15800026058E+01  0.13294664010E+03  0.13710215258E+03  0.00000000000E+00 0. -1.
<scales pt_clust_5="13000.00000" pt_clust_6="13000.00000" pt_clust_7="13000.00000" pt_clust_8="13000.00000" pt_clust_9="33.49912"></scales>
<clustering>
<clus scale="   33.499">  1  9  2 -1</clus>
<clus scale="   80.553">  5  6 -1 -1</clus>
<clus scale="  108.626">  7  8 -1 -1</clus>
<clus scale="  178.056">  2  5  1 -1</clus>
<clus scale="   33.499">  1  5  2 -1</clus>
</clustering>
</event>
<event>
 9    2  0.6190160E-005  0.1391628E+03  0.7546771E-02  0.1215696E+00
          2   -1    0    0  502    0 -0.00000000000E+00  0.00000000000E+00  0.41305191392E+02  0.41305191392E+02  0.00000000000E+00 0. -1.
         21   -1    0    0  501  502  0.00000000000E+00 -0.00000000000E+00 -0.10528007064E+04  0.10528007064E+04  0.00000000000E+00 0. -1.
         24    2    1    2    0    0  0.89877664781E+02 -0.90796151760E+02 -0.21799023947E+03  0.26528734996E+03  0.80843662372E+02 0.  0.
         23    2    1    2    0    0 -0.10045070388E+03  0.60069436562E+01 -0.30182732964E+03  0.32977125402E+03  0.86734743801E+02 0.  0.
        -13    1    3    3    0    0  0.70039116861E+02 -0.17109769588E+02 -0.80711550036E+02  0.10822465715E+03  0.00000000000E+00 0.  1.
         14    1    3    3    0    0  0.19838547920E+02 -0.73686382173E+02 -0.13727868943E+03  0.15706269281E+03  0.00000000000E+00 0. -1.
        -13    1    4    4    0    0 -0.21188886830E+02 -0.37011674257E+02 -0.99574416688E+02  0.10832311579E+03  0.00000000000E+00 0.  1.
         13    1    4    4    0    0 -0.79261817052E+02  0.43018617913E+02 -0.20225291295E+03  0.22144813823E+03  0.00000000000E+00 0. -1.
          1    1    1    2  501    0  0.10573039101E+02  0.84789208104E+02 -0.49167794590E+03  0.49904729381E+03  0.00000000000E+00 0. -1.
<scales pt_clust_5="13000.00000" pt_clust_6="13000.00000" pt_clust_7="13000.00000" pt_clust_8="13000.00000" pt_clust_9="85.44588"></scales>
<clustering>
<clus scale="   80.844">  5  6 -1 -1</clus>
<clus scale="   85.446">  2  9  1 -1</clus>
<clus scale="   86.735">  7  8 -1 -1</clus>
<clus scale="  135.569">  1  5  2 -1</clus>
<clus scale="   85.446">  2  5  1 -1</clus>
</clustering>
</event>
<event>
 9    2  0.6190160E-005  0.1221226E+03  0.7546771E-02  0.1249913E+00
         -1   -1    0    0    0  501 -0.00000000000E+00  0.00000000000E+00  0.16321361977E+03  0.16321361977E+03  0.00000000000E+00 0.  1.
         21   -1    0    0  501  502  0.00000000000E+00 -0.00000000000E+00 -0.15646444359E+03  0.15646444359E+03  0.00000000000E+00 0. -1.
         24    2    1    2    0    0  0.23585718083E+02 -0.83006505289E+02  0.23054109168E+02  0.11907876323E+03  0.78752104007E+02 0.  0.
         23    2    1    2    0    0 -0.12368329383E+02  0.11073499258E+02 -0.52216285009E+02  0.11942164083E+03  0.10611027246E+03 0.  0.
        -13    1    3    3    0    0  0.41951539177E+02 -0.66888368888E+02  0.40804753777E+02  0.88876394293E+02  0.00000000000E+00 0.  1.
         14    1    3    3    0    0 -0.18365821094E+02 -0.16118136401E+02 -0.17750644608E+02  0.30202368939E+02  0.00000000000E+00 0. -1.
        -13    1    4    4    0    0  0.33651557568E+02  0.36186434136E+02 -0.64593440186E+01  0.49835815107E+02  0.00000000000E+00 0.  1.
         13    1    4    4    0    0 -0.46019886950E+02 -0.25112934878E+02 -0.45756940990E+02  0.69585825725E+02  0.00000000000E+00 0. -1.
         -2    1    1    2    0  502 -0.11217388700E+02  0.71933006031E+02  0.35911352020E+02  0.81177659302E+02  0.00000000000E+00 0.  1.
<scales pt_clust_5="13000.00000" pt_clust_6="13000.00000" pt_clust_7="13000.00000" pt_clust_8="13000.00000" pt_clust_9="72.80242"></scales>
<clustering>
<clus scale="   72.802">  2  9  1 -1</clus>
<clus scale="   78.752">  5  6 -1 -1</clus>
<clus scale="   99.280">  1  5  2 -1</clus>
<clus scale="  106.110">  7  8 -1 -1</clus>
<clus scale="   72.802">  2  5  1 -1</clus>
</clustering>
</event>
<event>
 9    2  0.6190160E-005  0.9756916E+02  0.7546771E-02  0.1291096E+00
         21   -1    0    0  501  502  0.00000000000E+00  0.00000000000E+00  0.71397214087E+02  0.71397214087E+02  0.00000000000E+00 0.  1.
         -1   -1    0    0    0  501 -0.00000000000E+00 -0.00000000000E+00 -0.22508395958E+03  0.22508395958E+03  0.00000000000E+00 0.  1.
         23    2    1    2    0    0  0.23235082697E+02  0.36268890217E+02 -0.15794944530E+03  0.18712567929E+03  0.90623899243E+02 0.  0.
         24    2    1    2    0    0 -0.49946509139E+01 -0.15592136780E+02  0.36748633818E+01  0.81776751907E+02  0.80036686990E+02 0.  0.
        -11    1    4    4    0    0  0.24706195187E+02  0.22458406454E+02  0.30996715111E+00  0.33389701716E+02  0.00000000000E+00 0.  1.
         12    1    4    4    0    0 -0.29700846101E+02 -0.38050543234E+02  0.33648962307E+01  0.48387050191E+02  0.00000000000E+00 0. -1.
        -11    1    3    3    0    0  0.39520713033E+02  0.59804242735E+02 -0.11059274746E+03  0.13179222283E+03  0.00000000000E+00 0.  1.
         11    1    3    3    0    0 -0.16285630337E+02 -0.23535352517E+02 -0.47356697841E+02  0.55333456462E+02  0.00000000000E+00 0. -1.
         -2    1    1    2    0  502 -0.18240431783E+02 -0.20676753437E+02  0.58783643062E+00  0.27578742465E+02  0.00000000000E+00 0.  1.
<scales pt_clust_5="13000.00000" pt_clust_6="13000.00000" pt_clust_7="13000.00000" pt_clust_8="13000.00000" pt_clust_9="27.57248"></scales>
<clustering>
<clus scale="   27.572">  1  9  2 -1</clus>
<clus scale="   80.037">  5  6 -1 -1</clus>
<clus scale="   87.823">  1  5  2 -1</clus>
<clus scale="   90.624">  7  8 -1 -1</clus>
<clus scale="   27.572">  1  5  2 -1</clus>
</clustering>
</event>
<event>
 9    2  0.6190160E-005  0.1753020E+03  0.7546771E-02  0.1177297E+00
         21   -1    0    0  501  502  0.00000000000E+00  0.00000000000E+00  0.38774156097E+03  0.38774156097E+03  0.00000000000E+00 0. -1.
          4   -1    0    0  502    0 -0.00000000000E+00 -0.00000000000E+00 -0.21514136216E+03  0.21514136216E+03  0.00000000000E+00 0. -1.
         23    2    1    2    0    0  0.72891268755E+02 -0.10536383225E+03  0.49178883779E+02  0.16450009259E+03  0.90703052020E+02 0.  0.
         24    2    1    2    0    0 -0.14801457106E+03 -0.61488890319E+02  0.17324921109E+03  0.24873536600E+03  0.78516216652E+02 0.  0.
        -11    1    4    4    0    0 -0.16212754706E+02 -0.31298133633E+02  0.70808652559E+02  0.79096724719E+02  0.00000000000E+00 0.  1.
         12    1    4    4    0    0 -0.13180181636E+03 -0.30190756686E+02  0.10244055853E+03  0.16963864128E+03  0.00000000000E+00 0. -1.
        -13    1    3    3    0    0  0.31696136641E+02 -0.25377064980E+01  0.43102739765E+02  0.53562404795E+02  0.00000000000E+00 0.  1.
         13    1    3    3    0    0  0.41195132114E+02 -0.10282612576E+03  0.60761440136E+01  0.11093768780E+03  0.00000000000E+00 0. -1.
          3    1    1    2  501    0  0.75123302309E+02  0.16685272257E+03 -0.49827896050E+02  0.18964746454E+03  0.00000000000E+00 0. -1.
<scales pt_clust_5="13000.00000" pt_clust_6="13000.00000" pt_clust_7="13000.00000" pt_clust_8="13000.00000" pt_clust_9="156.73553"></scales>
<clustering>
<clus scale="   78.516">  5  6 -1 -1</clus>
<clus scale="   90.703">  7  8 -1 -1</clus>
<clus scale="  156.977">  2  7  1 -1</clus>
<clus scale="  156.736">  1  9  2 -1</clus>
<clus scale="  156.736">  1  5  2 -1</clus>
</clustering>
</event>
<event>
 9    2  0.6190160E-005  0.1045177E+03  0.7546771E-02  0.1277652E+00
         -1   -1    0    0    0  501 -0.00000000000E+00  0.00000000000E+00  0.49611748628E+03  0.49611748628E+03  0.00000000000E+00 0.  1.
         21   -1    0    0  501  502  0.00000000000E+00 -0.00000000000E+00 -0.84346966770E+02  0.84346966770E+02  0.00000000000E+00 0.  1.
         24    2    1    2    0    0 -0.64219559230E+02 -0.27702978953E+02  0.31385376458E+03  0.33051004009E+03  0.76427051671E+02 0.  0.
         23    2    1    2    0    0 -0.73848446949E+01  0.40752266300E+02  0.13522076120E+03  0.16816771816E+03  0.90996945173E+02 0.  0.
        -13    1    3    3    0    0 -0.50701077151E+02 -0.36994002792E+01  0.28890469506E+03  0.29334315675E+03  0.00000000000E+00 0.  1.
         14    1    3    3    0    0 -0.13518482079E+02 -0.24003578674E+02  0.24949069523E+02  0.37166883336E+02  0.00000000000E+00 0. -1.
        -11    1    4    4    0    0 -0.34251181851E+02  0.37462471595E+02  0.28804902195E+02  0.58363538504E+02  0.00000000000E+00 0.  1.
         11    1    4    4    0    0  0.26866337156E+02  0.32897947044E+01  0.10641585901E+03  0.10980417965E+03  0.00000000000E+00 0. -1.
         -2    1    1    2    0  502  0.71604403925E+02 -0.13049287347E+02 -0.37304006278E+02  0.81786694799E+02  0.00000000000E+00 0.  1.
<scales pt_clust_5="13000.00000" pt_clust_6="13000.00000" pt_clust_7="13000.00000" pt_clust_8="13000.00000" pt_clust_9="72.78375"></scales>
<clustering>
<clus scale="   72.784">  2  9  1 -1</clus>
<clus scale="   76.427">  5  6 -1 -1</clus>
<clus scale="   90.997">  7  8 -1 -1</clus>
<clus scale="   92.112">  1  5  2 -1</clus>
<clus scale="   72.784">  2  5  1 -1</clus>
</clustering>
</event>
<event>
 9    2  0.6190160E-005  0.9098709E+02  0.7546771E-02  0.1307134E+00
         21   -1    0    0  501  502  0.00000000000E+00  0.00000000000E+00  0.11705898326E+03  0.11705898326E+03  0.00000000000E+00 0.  1.
          2   -1    0    0  502    0 -0.00000000000E+00 -0.00000000000E+00 -0.22417533724E+03  0.22417533724E+03  0.00000000000E+00 0. -1.
         23    2    1    2    0    0 -0.86916053816E+01 -0.83962342446E+01 -0.11291010560E+03  0.14547388131E+03  0.90928089409E+02 0.  0.
         24    2    1    2    0    0 -0.51692325087E+02 -0.24225077080E+02  0.53442134007E+02  0.11220963216E+03  0.80473529993E+02 0.  0.
        -13    1    4    4    0    0 -0.19100118130E+02 -0.51729653333E+02  0.37473891305E+02  0.66671313742E+02  0.00000000000E+00 0.  1.
         14    1    4    4    0    0 -0.32592206957E+02  0.27504576254E+02  0.15968242702E+02  0.45538318417E+02  0.00000000000E+00 0. -1.
        -13    1    3    3    0    0  0.18138132909E+02  0.32193581541E+02 -0.23821574359E+02  0.43964598972E+02  0.00000000000E+00 0. -1.
         13    1    3    3    0    0 -0.26829738290E+02 -0.40589815786E+02 -0.89088531243E+02  0.10150928234E+03  0.00000000000E+00 0.  1.
          1    1    1    2  501    0  0.60383930468E+02  0.32621311324E+02 -0.47648382379E+02  0.83550807026E+02  0.00000000000E+00 0. -1.
<scales pt_clust_5="13000.00000" pt_clust_6="13000.00000" pt_clust_7="13000.00000" pt_clust_8="13000.00000" pt_clust_9="68.63216"></scales>
<clustering>
<clus scale="   68.632">  1  9  2 -1</clus>
<clus scale="   80.474">  5  6 -1 -1</clus>
<clus scale="   80.540">  1  5  2 -1</clus>
<clus scale="   90.928">  7  8 -1 -1</clus>
<clus scale="   68.632">  1  5  2 -1</clus>
</clustering>
</event>
<event>
 9    2  0.6190160E-005  0.1166195E+03  0.7546771E-02  0.1257453E+00
          2   -1    0    0  502    0 -0.00000000000E+00  0.00000000000E+00  0.38972195393E+03  0.38972195393E+03  0.00000000000E+00 0. -1.
         21   -1    0    0  501  502  0.00000000000E+00 -0.00000000000E+00 -0.56521334420E+02  0.56521334420E+02  0.00000000000E+00 0. -1.
         23    2    1    2    0    0 -0.42068218011E+02  0.50574731265E+01  0.11209986643E+03  0.15007531373E+03  0.90337737063E+02 0.  0.
         24    2    1    2    0    0  0.25570355692E+02 -0.25650888574E+02  0.55587302427E+02  0.12856436318E+03  0.11012282285E+03 0.  0.
        -13    1    4    4    0    0  0.14224520559E+01  0.35704088990E+02 -0.83761214433E+01  0.36701018391E+02  0.00000000000E+00 0.  1.
         14    1    4    4    0    0  0.24147903636E+02 -0.61354977564E+02  0.63963423870E+02  0.91863344785E+02  0.00000000000E+00 0. -1.
        -13    1    3    3    0    0 -0.95446003678E+01  0.46285282074E+02  0.54141074180E+02  0.71865726506E+02  0.00000000000E+00 0.  1.
         13    1    3    3    0    0 -0.32523617643E+02 -0.41227808948E+02  0.57958792250E+02  0.78209587228E+02  0.00000000000E+00 0. -1.
          1    1    1    2  501    0  0.16497862319E+02  0.20593415448E+02  0.16551345065E+03  0.16760361144E+03  0.00000000000E+00 0. -1.
<scales pt_clust_5="13000.00000" pt_clust_6="13000.00000" pt_clust_7="13000.00000" pt_clust_8="13000.00000" pt_clust_9="26.38691"></scales>
<clustering>
<clus scale="   26.387">  2  9  1 -1</clus>
<clus scale="   90.338">  7  8 -1 -1</clus>
<clus scale="   98.153">  1  7  2 -1</clus>
<clus scale="  110.123">  5  6 -1 -1</clus>
<clus scale="   26.387">  2  5  1 -1</clus>
</clustering>
</event>
<event>
 9    2  0.6190160E-005  0.1246899E+03  0.7546771E-02  0.1240337E+00
          2   -1    0    0  502    0 -0.00000000000E+00  0.00000000000E+00  0.74231783188E+03  0.74231783188E+03  0.00000000000E+00 0. -1.
         21   -1    0    0  501  502  0.00000000000E+00 -0.00000000000E+00 -0.29182960207E+02  0.29182960207E+02  0.00000000000E+00 0. -1.
         24    2    1    2    0    0 -0.12751387330E+02 -0.64617487279E+02  0.21494775640E+03  0.23754444424E+03  0.76725533322E+02 0.  0.
         23    2    1    2    0    0 -0.73504077895E+01  0.10699271317E+03  0.32719225613E+03  0.35664593138E+03  0.92952023822E+02 0.  0.
        -11    1    3    3    0    0 -0.31160606832E+02 -0.13264505253E+02  0.14465432856E+03  0.14856582813E+03  0.00000000000E+00 0.  1.
         12    1    3    3    0    0  0.18409219502E+02 -0.51352982025E+02  0.70293427841E+02  0.88978616101E+02  0.00000000000E+00 0. -1.
        -13    1    4    4    0    0  0.35254995985E+02  0.46642740578E+02  0.83011870436E+02  0.10153536637E+03  0.00000000000E+00 0. -1.
         13    1    4    4    0    0 -0.42605403774E+02  0.60349972596E+02  0.24418038569E+03  0.25511056501E+03  0.00000000000E+00 0.  1.
          1    1    1    2  501    0  0.20101795120E+02 -0.42375225895E+02  0.17099485914E+03  0.17731041647E+03  0.00000000000E+00 0. -1.
<scales pt_clust_5="13000.00000" pt_clust_6="13000.00000" pt_clust_7="13000.00000" pt_clust_8="13000.00000" pt_clust_9="46.90143"></scales>
<clustering>
<clus scale="   46.901">  2  9  1 -1</clus>
<clus scale="   76.726">  5  6 -1 -1</clus>
<clus scale="   92.952">  7  8 -1 -1</clus>
<clus scale="  113.112">  1  5  2 -1</clus>
<clus scale="   46.901">  2  5  1 -1</clus>
</clustering>
</event>
<event>
 9    2  0.6190160E-005  0.9548709E+02  0.7546771E-02  0.1297861E+00
         21   -1    0    0  501  502  0.00000000000E+00  0.00000000000E+00  0.42173437935E+02  0.42173437935E+02  0.00000000000E+00 0. -1.
          2   -1    0    0  502    0 -0.00000000000E+00 -0.00000000000E+00 -0.35417101765E+03  0.35417101765E+03  0.00000000000E+00 0. -1.
         24    2    1    2    0    0 -0.10462163939E+02 -0.21456502696E+02 -0.20967170461E+03  0.22494547624E+03  0.77899969093E+02 0.  0.
         23    2    1    2    0    0 -0.13685208347E+02  0.45040553547E+02 -0.85196122401E+02  0.13354753987E+03  0.91436479267E+02 0.  0.
        -13    1    3    3    0    0 -0.26607564808E+02  0.21639362942E+02 -0.71262428366E+02  0.79085765029E+02  0.00000000000E+00 0.  1.
         14    1    3    3    0    0  0.16145400869E+02 -0.43095865638E+02 -0.13840927624E+03  0.14585971121E+03  0.00000000000E+00 0. -1.
        -13    1    4    4    0    0 -0.35721406486E+02 -0.35040646100E+01 -0.35916844587E+01  0.36072115926E+02  0.00000000000E+00 0.  1.
         13    1    4    4    0    0  0.22036198139E+02  0.48544618157E+02 -0.81604437942E+02  0.97475423940E+02  0.00000000000E+00 0. -1.
          1    1    1    2  501    0  0.24147372286E+02 -0.23584050851E+02 -0.17129752703E+02  0.37851439478E+02  0.00000000000E+00 0. -1.
<scales pt_clust_5="13000.00000" pt_clust_6="13000.00000" pt_clust_7="13000.00000" pt_clust_8="13000.00000" pt_clust_9="33.75356"></scales>
<clustering>
<clus scale="   33.754">  1  9  2 -1</clus>
<clus scale="   77.900">  5  6 -1 -1</clus>
<clus scale="   82.617">  2  5  1 -1</clus>
<clus scale="   91.436">  7  8 -1 -1</clus>
<clus scale="   33.754">  1  5  2 -1</clus>
</clustering>
</event>
<event>
 9    2  0.6190160E-005  0.1186446E+03  0.7546771E-02  0.1253947E+00
         21   -1    0    0  501  502  0.00000000000E+00  0.00000000000E+00  0.98932636839E+02  0.98932636839E+02  0.00000000000E+00 0. -1.
          2   -1    0    0  502    0 -0.00000000000E+00 -0.00000000000E+00 -0.20968658729E+03  0.20968658729E+03  0.00000000000E+00 0. -1.
         24    2    1    2    0    0  0.67856013438E+02 -0.20061245366E+02 -0.57806127210E+02  0.11167700319E+03  0.64213024947E+02 0.  0.
         23    2    1    2    0    0 -0.73357626270E+02  0.61066617200E+02 -0.24485783357E+01  0.13165912972E+03  0.90651298032E+02 0.  0.
        -13    1    3    3    0    0 -0.18833225910E+01 -0.23926080340E+02 -0.24498236112E+02  0.34295302842E+02  0.00000000000E+00 0.  1.
         14    1    3    3    0    0  0.69739336029E+02  0.38648349744E+01 -0.33307891099E+02  0.77381700347E+02  0.00000000000E+00 0. -1.
        -11    1    4    4    0    0 -0.88839269784E+02  0.41266518157E+02 -0.21295204717E+02  0.10024383832E+03  0.00000000000E+00 0. -1.
         11    1    4    4    0    0  0.15481643515E+02  0.19800099044E+02  0.18846626382E+02  0.31415291404E+02  0.00000000000E+00 0.  1.
          1    1    1    2  501    0  0.55016128314E+01 -0.41005371835E+02 -0.50499244904E+02  0.65283091218E+02  0.00000000000E+00 0. -1.
<scales pt_clust_5="13000.00000" pt_clust_6="13000.00000" pt_clust_7="13000.00000" pt_clust_8="13000.00000" pt_clust_9="41.37282"></scales>
<clustering>
<clus scale="   41.373">  1  9  2 -1</clus>
<clus scale="   64.213">  5  6 -1 -1</clus>
<clus scale="   90.651">  7  8 -1 -1</clus>
<clus scale="   99.911">  2  5  1 -1</clus>
<clus scale="   41.373">  1  5  2 -1</clus>
</clustering>
</event>
<event>
 9    2  0.6190160E-005  0.1373297E+03  0.7546771E-02  0.1220725E+00
         21   -1    0    0  501  502  0.00000000000E+00  0.00000000000E+00  0.53568836598E+02  0.53568836598E+02  0.00000000000E+00 0. -1.
         -1   -1    0    0    0  501 -0.00000000000E+00 -0.00000000000E+00 -0.75866811997E+03  0.75866811997E+03  0.00000000000E+00 0.  1.
         23    2    1    2    0    0  0.67824226279E+02 -0.60817209172E+02 -0.34931686420E+03  0.37240998461E+03  0.91477136068E+02 0.  0.
         24    2    1    2    0    0 -0.65415111321E+02  0.12935091970E+03 -0.14538417644E+03  0.21853509714E+03  0.74901486674E+02 0.  0.
        -13    1    4    4    0    0 -0.55561474872E+02  0.47922654025E+02 -0.10228024750E+03  0.12587655575E+03  0.00000000000E+00 0.  1.
         14    1    4    4    0    0 -0.98536364498E+01  0.81428265678E+02 -0.43103928937E+02  0.92658541389E+02  0.00000000000E+00 0. -1.
        -13    1    3    3    0    0  0.13312364640E+02  0.24457784327E+02 -0.79479913904E+02  0.84216738126E+02  0.00000000000E+00 0.  1.
         13    1    3    3    0    0  0.54511861639E+02 -0.85274993498E+02 -0.26983695029E+03  0.28819324648E+03  0.00000000000E+00 0. -1.
         -2    1    1    2    0  502 -0.24091149574E+01 -0.68533710531E+02 -0.21039824274E+03  0.22129187482E+03  0.00000000000E+00 0.  1.
<scales pt_clust_5="13000.00000" pt_clust_6="13000.00000" pt_clust_7="13000.00000" pt_clust_8="13000.00000" pt_clust_9="68.57607"></scales>
<clustering>
<clus scale="   68.576">  1  9  2 -1</clus>
<clus scale="   74.901">  5  6 -1 -1</clus>
<clus scale="   91.477">  7  8 -1 -1</clus>
<clus scale="  126.892">  1  5  2 -1</clus>
<clus scale="   68.576">  1  5  2 -1</clus>
</clustering>
</event>
<event>
 9    2  0.6190160E-005  0.1136556E+03  0.7546771E-02  0.1255770E+00
         21   -1    0    0  501  502  0.00000000000E+00  0.00000000000E+00  0.31119842526E+03  0.31119842526E+03  0.00000000000E+00 0. -1.
          2   -1    0    0  502    0 -0.00000000000E+00 -0.00000000000E+00 -0.76328694702E+02  0.76328694702E+02  0.00000000000E+00 0. -1.
         24    2    1    2    0    0 -0.61911867832E+02 -0.32486949652E+02  0.26865781036E+02  0.11392623731E+03  0.85842507424E+02 0.  0.
         23    2    1    2    0    0  0.39160580487E+02  0.56281874643E+02  0.21178204153E+03  0.24046338862E+03  0.90938482927E+02 0.  0.
        -13    1    3    3    0    0 -0.23892734308E+02  0.29295299996E+02  0.13631975698E+02  0.40185919375E+02  0.00000000000E+00 0.  1.
         14    1    3    3    0    0 -0.38019133524E+02 -0.61782249648E+02  0.13233805338E+02  0.73740317935E+02  0.00000000000E+00 0. -1.
        -11    1    4    4    0    0  0.50973072273E+02 -0.49617889613E+01  0.86808864695E+02  0.10079014057E+03  0.00000000000E+00 0.  1.
         11    1    4    4    0    0 -0.11812491786E+02  0.61243663604E+02  0.12497317683E+03  0.13967324805E+03  0.00000000000E+00 0. -1.
          1    1    1    2  501    0  0.22751287345E+02 -0.23794924990E+02 -0.37780920072E+01  0.33137494027E+02  0.00000000000E+00 0. -1.
<scales pt_clust_5="13000.00000" pt_clust_6="13000.00000" pt_clust_7="13000.00000" pt_clust_8="13000.00000" pt_clust_9="32.92143"></scales>
<clustering>
<clus scale="   32.921">  1  9  2 -1</clus>
<clus scale="   85.843">  5  6 -1 -1</clus>
<clus scale="   90.938">  7  8 -1 -1</clus>
<clus scale="  109.621">  2  5  1 -1</clus>
<clus scale="   32.921">  1  5  2 -1</clus>
</clustering>
</event>
<event>
 9    2  0.6190160E-005  0.9793147E+02  0.7546771E-02  0.1288998E+00
         21   -1    0    0  501  502  0.00000000000E+00  0.00000000000E+00  0.85827053395E+02  0.85827053395E+02  0.00000000000E+00 0. -1.
          2   -1    0    0  502    0 -0.00000000000E+00 -0.00000000000E+00 -0.27870690042E+03  0.27870690042E+03  0.00000000000E+00 0. -1.
         23    2    1    2    0    0 -0.31059702797E+02  0.65479892721E+02 -0.17129345054E+03  0.20541624291E+03  0.87189822598E+02 0.  0.
         24    2    1    2    0    0  0.75763433690E+01  0.63104402786E+01 -0.26323143184E+02  0.83435765557E+02  0.78558236179E+02 0.  0.
        -11    1    4    4    0    0  0.48672993523E+01 -0.27345903373E+02 -0.38559429213E+02  0.47521769911E+02  0.00000000000E+00 0.  1.
         12    1    4    4    0    0  0.27090440167E+01  0.33656343651E+02  0.12236286029E+02  0.35913995646E+02  0.00000000000E+00 0. -1.
        -13    1    3    3    0    0 -0.58018401727E+02  0.44278376016E+02 -0.82069772754E+02  0.10982785221E+03  0.00000000000E+00 0. -1.
         13    1    3    3    0    0  0.26958698930E+02  0.21201516705E+02 -0.89223677785E+02  0.95588390697E+02  0.00000000000E+00 0.  1.
          1    1    1    2  501    0  0.23483359428E+02 -0.71790333000E+02  0.47367466998E+01  0.75681945347E+02  0.00000000000E+00 0. -1.
<scales pt_clust_5="13000.00000" pt_clust_6="13000.00000" pt_clust_7="13000.00000" pt_clust_8="13000.00000" pt_clust_9="75.53357"></scales>
<clustering>
<clus scale="   75.534">  1  9  2 -1</clus>
<clus scale="   78.558">  5  6 -1 -1</clus>
<clus scale="   87.190">  7  8 -1 -1</clus>
<clus scale="   90.332">  1  5  2 -1</clus>
<clus scale="   75.534">  1  5  2 -1</clus>
</clustering>
</event>
<event>
 9    2  0.6190160E-005  0.1673903E+03  0.7546771E-02  0.1184627E+00
         21   -1    0    0  501  502  0.00000000000E+00  0.00000000000E+00  0.11302909691E+03  0.11302909691E+03  0.00000000000E+00 0.  1.
         -1   -1    0    0    0  501 -0.00000000000E+00 -0.00000000000E+00 -0.70264062559E+03  0.70264062559E+03  0.00000000000E+00 0.  1.
         24    2    1    2    0    0  0.12265596093E+03  0.64656002632E+02 -0.21536867809E+03  0.26327510502E+03  0.60870600384E+02 0.  0.
         23    2    1    2    0    0 -0.89692655163E+02 -0.13364470431E+03 -0.15588929263E+02  0.18568130198E+03  0.91262543291E+02 0.  0.
        -11    1    3    3    0    0  0.96112002624E+02  0.33546199119E+02 -0.18883533480E+03  0.21452656757E+03  0.00000000000E+00 0.  1.
         12    1    3    3    0    0  0.26543958308E+02  0.31109803513E+02 -0.26533343292E+02  0.48748537450E+02  0.00000000000E+00 0. -1.
        -13    1    4    4    0    0 -0.25753430653E+02 -0.97824342276E+02  0.21688506084E+02  0.10345642768E+03  0.00000000000E+00 0.  1.
         13    1    4    4    0    0 -0.63939224510E+02 -0.35820362037E+02 -0.37277435347E+02  0.82224874299E+02  0.00000000000E+00 0. -1.
         -2    1    1    2    0  502 -0.32963305770E+02  0.68988701681E+02 -0.35865392132E+03  0.36671331550E+03  0.00000000000E+00 0.  1.
<scales pt_clust_5="13000.00000" pt_clust_6="13000.00000" pt_clust_7="13000.00000" pt_clust_8="13000.00000" pt_clust_9="76.45931"></scales>
<clustering>
<clus scale="   60.871">  5  6 -1 -1</clus>
<clus scale="   76.459">  1  9  2 -1</clus>
<clus scale="   91.263">  7  8 -1 -1</clus>
<clus scale="  152.957">  2  5  1 -1</clus>
<clus scale="   76.459">  1  5  2 -1</clus>
</clustering>
</event>
<event>
 9    2  0.6190160E-005  0.9583748E+02  0.7546771E-02  0.1296938E+00
         21   -1    0    0  501  502  0.00000000000E+00  0.00000000000E+00  0.28125621840E+02  0.28125621840E+02  0.00000000000E+00 0. -1.
          2   -1    0    0  502    0 -0.00000000000E+00 -0.00000000000E+00 -0.59967277701E+03  0.59967277701E+03  0.00000000000E+00 0. -1.
         23    2    1    2    0    0  0.24828935451E+02 -0.67203165575E+01 -0.33997808500E+03  0.35326308763E+03  0.92455784622E+02 0.  0.
         24    2    1    2    0    0 -0.94967369316E+00  0.39025592919E+02 -0.21240227084E+03  0.23002445615E+03  0.79199917837E+02 0.  0.
        -13    1    4    4    0    0 -0.35158635783E+02 -0.14430569684E+01 -0.90676613653E+02  0.97264897816E+02  0.00000000000E+00 0.  1.
         14    1    4    4    0    0  0.34208962090E+02  0.40468649887E+02 -0.12172565718E+03  0.13275955833E+03  0.00000000000E+00 0. -1.
        -11    1    3    3    0    0  0.59116229767E+02 -0.61139677730E+01 -0.17683780834E+03  0.18655755059E+03  0.00000000000E+00 0.  1.
         11    1    3    3    0    0 -0.34287294316E+02 -0.60634878460E+00 -0.16314027666E+03  0.16670553704E+03  0.00000000000E+00 0. -1.
          1    1    1    2  501    0 -0.23879261758E+02 -0.32305276361E+02 -0.19166799330E+02  0.44510855074E+02  0.00000000000E+00 0. -1.
<scales pt_clust_5="13000.00000" pt_clust_6="13000.00000" pt_clust_7="13000.00000" pt_clust_8="13000.00000" pt_clust_9="40.17275"></scales>
<clustering>
<clus scale="   40.173">  1  9  2 -1</clus>
<clus scale="   79.200">  5  6 -1 -1</clus>
<clus scale="   83.123">  1  5  2 -1</clus>
<clus scale="   92.456">  7  8 -1 -1</clus>
<clus scale="   40.173">  1  5  2 -1</clus>
</clustering>
</event>
<event>
 9    2  0.6190160E-005  0.9093576E+02  0.7546771E-02  0.1307539E+00
         21   -1    0    0  501  502  0.00000000000E+00  0.00000000000E+00  0.13081466636E+03  0.13081466636E+03  0.00000000000E+00 0.  1.
         -1   -1    0    0    0  501 -0.00000000000E+00 -0.00000000000E+00 -0.14157051825E+03  0.14157051825E+03  0.00000000000E+00 0.  1.
         24    2    1    2    0    0  0.19088469910E+02 -0.83161213170E+01 -0.71590412070E+02  0.10894165322E+03  0.79432796424E+02 0.  0.
         23    2    1    2    0    0  0.27748685949E+02  0.49053754907E+01  0.11533323904E+02  0.95355615759E+02  0.90363840201E+02 0.  0.
        -13    1    3    3    0    0  0.41983246736E+02 -0.27387259160E+02 -0.32305903518E+02  0.59634942549E+02  0.00000000000E+00 0.  1.
         14    1    3    3    0    0 -0.22894776826E+02  0.19071137843E+02 -0.39284508552E+02  0.49306710666E+02  0.00000000000E+00 0. -1.
        -11    1    4    4    0    0  0.57986374922E+02  0.19368495829E+02  0.76921989091E+01  0.61617596766E+02  0.00000000000E+00 0.  1.
         11    1    4    4    0    0 -0.30237688972E+02 -0.14463120338E+02  0.38411249947E+01  0.33738018992E+02  0.00000000000E+00 0. -1.
         -2    1    1    2    0  502 -0.46837155859E+02  0.34107458264E+01  0.49301236278E+02  0.68087915628E+02  0.00000000000E+00 0.  1.
<scales pt_clust_5="13000.00000" pt_clust_6="13000.00000" pt_clust_7="13000.00000" pt_clust_8="13000.00000" pt_clust_9="46.96118"></scales>
<clustering>
<clus scale="   46.961">  1  9  2 -1</clus>
<clus scale="   79.433">  5  6 -1 -1</clus>
<clus scale="   80.083">  2  5  1 -1</clus>
<clus scale="   90.364">  7  8 -1 -1</clus>
<clus scale="   46.961">  1  5  2 -1</clus>
</clustering>
</event>
<event>
 9    2  0.6190160E-005  0.1129098E+03  0.7546771E-02  0.1257815E+00
         21   -1    0    0  501  502  0.00000000000E+00  0.00000000000E+00  0.29895763833E+02  0.29895763833E+02  0.00000000000E+00 0. -1.
         -1   -1    0    0    0  501 -0.00000000000E+00 -0.00000000000E+00 -0.79113051518E+03  0.79113051518E+03  0.00000000000E+00 0.  1.
         23    2    1    2    0    0  0.10900643962E+02  0.68360671581E+02 -0.49704993660E+03  0.51004993943E+03  0.91105959118E+02 0.  0.
         24    2    1    2    0    0 -0.54198084141E+02 -0.47336337163E+02 -0.14502556049E+03  0.18246323193E+03  0.84156144567E+02 0.  0.
        -11    1    4    4    0    0 -0.11881614600E+02 -0.35946351064E+02 -0.13113688296E+03  0.13649247229E+03  0.00000000000E+00 0.  1.
         12    1    4    4    0    0 -0.42316469541E+02 -0.11389986099E+02 -0.13888677535E+02  0.45970759635E+02  0.00000000000E+00 0. -1.
        -11    1    3    3    0    0  0.43651210352E+01  0.90795760612E+02 -0.38435660806E+03  0.39495939865E+03  0.00000000000E+00 0.  1.
         11    1    3    3    0    0  0.65355229273E+01 -0.22435089031E+02 -0.11269332854E+03  0.11509054078E+03  0.00000000000E+00 0. -1.
         -2    1    1    2    0  502  0.43297440179E+02 -0.21024334418E+02 -0.11915925426E+03  0.12851310766E+03  0.00000000000E+00 0.  1.
<scales pt_clust_5="13000.00000" pt_clust_6="13000.00000" pt_clust_7="13000.00000" pt_clust_8="13000.00000" pt_clust_9="48.13204"></scales>
<clustering>
<clus scale="   48.132">  1  9  2 -1</clus>
<clus scale="   84.156">  5  6 -1 -1</clus>
<clus scale="   91.106">  7  8 -1 -1</clus>
<clus scale="  107.381">  1  5  2 -1</clus>
<clus scale="   48.132">  1  5  2 -1</clus>
</clustering>
</event>
<event>
 9    2  0.6190160E-005  0.1152406E+03  0.7546771E-02  0.1255455E+00
         21   -1    0    0  501  502  0.00000000000E+00  0.00000000000E+00  0.29638841926E+02  0.29638841926E+02  0.00000000000E+00 0.  1.
          2   -1    0    0  502    0 -0.00000000000E+00 -0.00000000000E+00 -0.51780063157E+03  0.51780063157E+03  0.00000000000E+00 0. -1.
         23    2    1    2    0    0 -0.36469984797E+02 -0.36152534016E+02 -0.20107567963E+03  0.22735210618E+03  0.92846570963E+02 0.  0.
         24    2    1    2    0    0  0.17266702909E+02  0.50077452974E+02 -0.21810790481E+03  0.24714449791E+03  0.10345750037E+03 0.  0.
        -13    1    4    4    0    0 -0.32578521331E+02 -0.12948945211E+02 -0.53379219471E+02  0.63862166465E+02  0.00000000000E+00 0.  1.
         14    1    4    4    0    0  0.49845224240E+02  0.63026398185E+02 -0.16472868533E+03  0.18328233144E+03  0.00000000000E+00 0. -1.
        -11    1    3    3    0    0 -0.35952954139E+02  0.25337818276E+02 -0.71896231094E+02  0.84283379096E+02  0.00000000000E+00 0.  1.
         11    1    3    3    0    0 -0.51703065836E+00 -0.61490352293E+02 -0.12917944853E+03  0.14306872708E+03  0.00000000000E+00 0. -1.
          1    1    1    2  501    0  0.19203281888E+02 -0.13924918957E+02 -0.68978205210E+02  0.72942869406E+02  0.00000000000E+00 0. -1.
<scales pt_clust_5="13000.00000" pt_clust_6="13000.00000" pt_clust_7="13000.00000" pt_clust_8="13000.00000" pt_clust_9="23.72067"></scales>
<clustering>
<clus scale="   23.721">  1  9  2 -1</clus>
<clus scale="   92.847">  7  8 -1 -1</clus>
<clus scale="  103.458">  5  6 -1 -1</clus>
<clus scale="  105.818">  2  7  1 -1</clus>
<clus scale="   23.721">  1  5  2 -1</clus>
</clustering>
</event>
<event>
 9    2  0.6190160E-005  0.1016944E+03  0.7546771E-02  0.1283848E+00
         -1   -1    0    0    0  501 -0.00000000000E+00  0.00000000000E+00  0.37642136510E+03  0.37642136510E+03  0.00000000000E+00 0.  1.
         21   -1    0    0  501  502  0.00000000000E+00 -0.00000000000E+00 -0.99544318642E+02  0.99544318642E+02  0.00000000000E+00 0. -1.
         23    2    1    2    0    0  0.40703902576E+01 -0.39248356336E+02  0.30419180234E+03  0.32045381595E+03  0.92741544038E+02 0.  0.
         24    2    1    2    0    0  0.12047065533E+02  0.52775692245E+02  0.25468970051E+02  0.98688607398E+02  0.78488007459E+02 0.  0.
        -11    1    4    4    0    0  0.67984907974E+01  0.48787850571E+02  0.51837036153E+02  0.71509105418E+02  0.00000000000E+00 0.  1.
         12    1    4    4    0    0  0.52485747355E+01  0.39878416736E+01 -0.26368066102E+02  0.27179501980E+02  0.00000000000E+00 0. -1.
        -13    1    3    3    0    0 -0.34459828948E+02 -0.43728644485E+02  0.12091195853E+03  0.13311414604E+03  0.00000000000E+00 0.  1.
         13    1    3    3    0    0  0.38530219206E+02  0.44802881484E+01  0.18327984381E+03  0.18733966991E+03  0.00000000000E+00 0. -1.
         -2    1    1    2    0  502 -0.16117455791E+02 -0.13527335909E+02 -0.52783725938E+02  0.56823260394E+02  0.00000000000E+00 0.  1.
<scales pt_clust_5="13000.00000" pt_clust_6="13000.00000" pt_clust_7="13000.00000" pt_clust_8="13000.00000" pt_clust_9="21.04189"></scales>
<clustering>
<clus scale="   21.042">  2  9  1 -1</clus>
<clus scale="   78.488">  5  6 -1 -1</clus>
<clus scale="   88.888">  2  5  1 -1</clus>
<clus scale="   92.742">  7  8 -1 -1</clus>
<clus scale="   21.042">  2  5  1 -1</clus>
</clustering>
</event>
<event>
 9    2  0.6190160E-005  0.1883037E+03  0.7546771E-02  0.1197722E+00
         21   -1    0    0  501  502  0.00000000000E+00  0.00000000000E+00  0.52181111303E+02  0.52181111303E+02  0.00000000000E+00 0.  1.
          2   -1    0    0  502    0 -0.00000000000E+00 -0.00000000000E+00 -0.14331762520E+04  0.14331762520E+04  0.00000000000E+00 0. -1.
         24    2    1    2    0    0  0.33252864110E+01 -0.36047118232E+01 -0.89586229487E+02  0.12043853629E+03  0.80347352372E+02 0.  0.
         23    2    1    2    0    0 -0.16139490385E+03  0.83237574739E+01 -0.25974378076E+03  0.32120372473E+03  0.97915275663E+02 0.  0.
        -11    1    3    3    0    0 -0.18071027377E+02  0.32495030127E+02 -0.31210105699E+02  0.48544409680E+02  0.00000000000E+00 0.  1.
         12    1    3    3    0    0  0.21396313788E+02 -0.36099741951E+02 -0.58376123788E+02  0.71894126611E+02  0.00000000000E+00 0. -1.
        -13    1    4    4    0    0 -0.25586843868E+01  0.27837906519E+02 -0.51197180909E+02  0.58332214411E+02  0.00000000000E+00 0. -1.
         13    1    4    4    0    0 -0.15883621946E+03 -0.19514149045E+02 -0.20854659986E+03  0.26287151032E+03  0.00000000000E+00 0.  1.
          1    1    1    2  501    0  0.15806961744E+03 -0.47190456507E+01 -0.10316651304E+04  0.10437151023E+04  0.00000000000E+00 0. -1.
<scales pt_clust_5="13000.00000" pt_clust_6="13000.00000" pt_clust_7="13000.00000" pt_clust_8="13000.00000" pt_clust_9="160.84434"></scales>
<clustering>
<clus scale="   80.347">  5  6 -1 -1</clus>
<clus scale="   80.497">  2  5  1 -1</clus>
<clus scale="   97.915">  7  8 -1 -1</clus>
<clus scale="  160.844">  1  9  2 -1</clus>
<clus scale="  160.844">  1  5  2 -1</clus>
</clustering>
</event>
<event>
 9    2  0.1111737E-004  0.1487093E+03  0.7546771E-02  0.1203541E+00
         -3   -1    0    0    0  501 -0.00000000000E+00  0.00000000000E+00  0.18240395663E+03  0.18240395663E+03  0.00000000000E+00 0.  1.
         21   -1    0    0  501  502  0.00000000000E+00 -0.00000000000E+00 -0.49526781391E+03  0.49526781391E+03  0.00000000000E+00 0. -1.
         24    2    1    2    0    0 -0.84943692739E+02 -0.84991723863E+02  0.68584212658E+02  0.16150181116E+03  0.83306762761E+02 0.  0.
         23    2    1    2    0    0  0.65855472141E+02  0.64464704478E+02 -0.43599079016E+03  0.45484600795E+03  0.91127825121E+02 0.  0.
        -11    1    3    3    0    0 -0.76954096481E+02 -0.83692923803E+02  0.85827736887E+02  0.14245293566E+03  0.00000000000E+00 0.  1.
         12    1    3    3    0    0 -0.79895962581E+01 -0.12988000596E+01 -0.17243524229E+02  0.19048875500E+02  0.00000000000E+00 0. -1.
        -11    1    4    4    0    0  0.82975613366E+02  0.28173604451E+02 -0.33236151360E+03  0.34371918789E+03  0.00000000000E+00 0. -1.
         11    1    4    4    0    0 -0.17120141226E+02  0.36291100026E+02 -0.10362927655E+03  0.11112682006E+03  0.00000000000E+00 0.  1.
         -4    1    1    2    0  502  0.19088220599E+02  0.20527019385E+02  0.54542720217E+02  0.61323951431E+02  0.00000000000E+00 0.  1.
<scales pt_clust_5="13000.00000" pt_clust_6="13000.00000" pt_clust_7="13000.00000" pt_clust_8="13000.00000" pt_clust_9="28.03069"></scales>
<clustering>
<clus scale="   28.031">  2  9  1 -1</clus>
<clus scale="   83.307">  5  6 -1 -1</clus>
<clus scale="   91.128">  7  8 -1 -1</clus>
<clus scale="  144.049">  1  5  2 -1</clus>
<clus scale="   28.031">  2  5  1 -1</clus>
</clustering>
</event>
<event>
 9    2  0.6190160E-005  0.1235300E+03  0.7546771E-02  0.1240285E+00
         21   -1    0    0  501  502  0.00000000000E+00  0.00000000000E+00  0.90932815177E+02  0.90932815177E+02  0.00000000000E+00 0. -1.
          2   -1    0    0  502    0 -0.00000000000E+00 -0.00000000000E+00 -0.23973509164E+03  0.23973509164E+03  0.00000000000E+00 0. -1.
         23    2    1    2    0    0 -0.38799058031E+02 -0.75050820131E+02 -0.14788423960E+03  0.19424865645E+03  0.93406636286E+02 0.  0.
         24    2    1    2    0    0  0.18879950653E+02  0.69762638172E+02  0.13166462293E+02  0.11145710256E+03  0.83821547106E+02 0.  0.
        -13    1    4    4    0    0 -0.29067658063E+02  0.12508896187E+02  0.18381455341E+02  0.36596162771E+02  0.00000000000E+00 0.  1.
         14    1    4    4    0    0  0.47947608716E+02  0.57253741985E+02 -0.52149930479E+01  0.74860939785E+02  0.00000000000E+00 0. -1.
        -13    1    3    3    0    0 -0.37650272254E+02 -0.15785725355E+02 -0.70255171208E+01  0.41425716851E+02  0.00000000000E+00 0.  1.
         13    1    3    3    0    0 -0.11487857768E+01 -0.59265094776E+02 -0.14085872248E+03  0.15282293960E+03  0.00000000000E+00 0. -1.
          1    1    1    2  501    0  0.19919107378E+02  0.52881819591E+01 -0.14084499156E+02  0.24962147817E+02  0.00000000000E+00 0. -1.
<scales pt_clust_5="13000.00000" pt_clust_6="13000.00000" pt_clust_7="13000.00000" pt_clust_8="13000.00000" pt_clust_9="20.60913"></scales>
<clustering>
<clus scale="   20.609">  1  9  2 -1</clus>
<clus scale="   83.822">  5  6 -1 -1</clus>
<clus scale="   93.407">  7  8 -1 -1</clus>
<clus scale="  116.451">  1  5  2 -1</clus>
<clus scale="   20.609">  1  5  2 -1</clus>
</clustering>
</event>
<event>
 9    2  0.6190160E-005  0.1557539E+03  0.7546771E-02  0.1209788E+00
         21   -1    0    0  501  502  0.00000000000E+00  0.00000000000E+00  0.85012028057E+02  0.85012028057E+02  0.00000000000E+00 0. -1.
          2   -1    0    0  502    0 -0.00000000000E+00 -0.00000000000E+00 -0.91575113118E+03  0.91575113118E+03  0.00000000000E+00 0. -1.
         23    2    1    2    0    0 -0.76532656837E+01 -0.60530746837E+02 -0.17946093916E+03  0.21029908537E+03  0.91087500974E+02 0.  0.
         24    2    1    2    0    0  0.44860468123E+02 -0.73294939681E+02 -0.64033913814E+03  0.65113226641E+03  0.80959290618E+02 0.  0.
        -11    1    4    4    0    0 -0.17024001040E+02 -0.15237250062E+02 -0.53276088306E+02  0.57968370566E+02  0.00000000000E+00 0.  1.
         12    1    4    4    0    0  0.61884469163E+02 -0.58057689619E+02 -0.58706304984E+03  0.59316389584E+03  0.00000000000E+00 0. -1.
        -13    1    3    3    0    0 -0.28277271397E+02 -0.53016403300E+01 -0.13059275172E+03  0.13372426209E+03  0.00000000000E+00 0.  1.
         13    1    3    3    0    0  0.20624005713E+02 -0.55229106507E+02 -0.48868187440E+02  0.76574823283E+02  0.00000000000E+00 0. -1.
          1    1    1    2  501    0 -0.37207202440E+02  0.13382568652E+03 -0.10939025823E+02  0.13933180747E+03  0.00000000000E+00 0. -1.
<scales pt_clust_5="13000.00000" pt_clust_6="13000.00000" pt_clust_7="13000.00000" pt_clust_8="13000.00000" pt_clust_9="133.05964"></scales>
<clustering>
<clus scale="   80.959">  5  6 -1 -1</clus>
<clus scale="   91.088">  7  8 -1 -1</clus>
<clus scale="  109.633">  2  7  1 -1</clus>
<clus scale="  133.060">  1  9  2 -1</clus>
<clus scale="  133.060">  1  5  2 -1</clus>
</clustering>
</event>
<event>
 9    2  0.6190160E-005  0.1062109E+03  0.7546771E-02  0.1282531E+00
          2   -1    0    0  502    0 -0.00000000000E+00  0.00000000000E+00  0.56461523170E+02  0.56461523170E+02  0.00000000000E+00 0. -1.
         21   -1    0    0  501  502  0.00000000000E+00 -0.00000000000E+00 -0.29906824766E+03  0.29906824766E+03  0.00000000000E+00 0. -1.
         23    2    1    2    0    0 -0.22065476140E+02 -0.80260032796E+01 -0.44687667745E+02  0.11378682542E+03  0.10197623264E+03 0.  0.
         24    2    1    2    0    0  0.72514635363E+01  0.51138301772E+02 -0.10767868579E+03  0.14064175947E+03  0.74281192100E+02 0.  0.
        -13    1    4    4    0    0  0.38675841468E+02  0.16941827179E+02 -0.37409542500E+02  0.56412056259E+02  0.00000000000E+00 0.  1.
         14    1    4    4    0    0 -0.31424377931E+02  0.34196474593E+02 -0.70269143293E+02  0.84229703206E+02  0.00000000000E+00 0. -1.
        -11    1    3    3    0    0  0.92960850408E+00 -0.35410694859E+02  0.19407812151E+02  0.40391145749E+02  0.00000000000E+00 0.  1.
         11    1    3    3    0    0 -0.22995084644E+02  0.27384691580E+02 -0.64095479896E+02  0.73395679667E+02  0.00000000000E+00 0. -1.
          1    1    1    2  501    0  0.14814012603E+02 -0.43112298492E+02 -0.90240370954E+02  0.10110118595E+03  0.00000000000E+00 0. -1.
<scales pt_clust_5="13000.00000" pt_clust_6="13000.00000" pt_clust_7="13000.00000" pt_clust_8="13000.00000" pt_clust_9="45.58646"></scales>
<clustering>
<clus scale="   45.586">  2  9  1 -1</clus>
<clus scale="   74.281">  5  6 -1 -1</clus>
<clus scale="   79.996">  2  5  1 -1</clus>
<clus scale="  101.976">  7  8 -1 -1</clus>
<clus scale="   45.586">  2  5  1 -1</clus>
</clustering>
</event>
<event>
 9    2  0.6190160E-005  0.4161703E+03  0.7546771E-02  0.1038502E+00
         21   -1    0    0  501  502  0.00000000000E+00  0.00000000000E+00  0.56301887014E+03  0.56301887014E+03  0.00000000000E+00 0.  1.
         -1   -1    0    0    0  501 -0.00000000000E+00 -0.00000000000E+00 -0.44894424725E+03  0.44894424725E+03  0.00000000000E+00 0.  1.
         23    2    1    2    0    0 -0.14955711962E+03 -0.39786862039E+03 -0.72474812273E+02  0.44064895739E+03  0.90841257792E+02 0.  0.
         24    2    1    2    0    0  0.10064198775E+03  0.35525093209E+03  0.27089070072E+03  0.46490736248E+03  0.80156406456E+02 0.  0.
        -11    1    4    4    0    0  0.62028157543E+02  0.28600779113E+03  0.24449339209E+03  0.38134625695E+03  0.00000000000E+00 0.  1.
         12    1    4    4    0    0  0.38613830206E+02  0.69243140960E+02  0.26397308633E+02  0.83561105523E+02  0.00000000000E+00 0. -1.
        -13    1    3    3    0    0 -0.95508008280E+02 -0.34688352605E+03 -0.51619891989E+02  0.36347568493E+03  0.00000000000E+00 0.  1.
         13    1    3    3    0    0 -0.54049111341E+02 -0.50985094337E+02 -0.20854920284E+02  0.77173272455E+02  0.00000000000E+00 0. -1.
         -2    1    1    2    0  502  0.48915131874E+02  0.42617688294E+02 -0.84341265565E+02  0.10640679752E+03  0.00000000000E+00 0.  1.
<scales pt_clust_5="13000.00000" pt_clust_6="13000.00000" pt_clust_7="13000.00000" pt_clust_8="13000.00000" pt_clust_9="64.87651"></scales>
<clustering>
<clus scale="   64.877">  1  9  2 -1</clus>
<clus scale="   80.156">  5  6 -1 -1</clus>
<clus scale="   90.841">  7  8 -1 -1</clus>
<clus scale="  413.969">  1  5  2 -1</clus>
<clus scale="   64.877">  1  5  2 -1</clus>
</clustering>
</event>
<event>
 9    2  0.6190160E-005  0.1297737E+03  0.7546771E-02  0.1230952E+00
         21   -1    0    0  501  502  0.00000000000E+00  0.00000000000E+00  0.42908631780E+02  0.42908631780E+02  0.00000000000E+00 0. -1.
          2   -1    0    0  502    0 -0.00000000000E+00 -0.00000000000E+00 -0.73615861549E+03  0.73615861549E+03  0.00000000000E+00 0. -1.
         24    2    1    2    0    0  0.36603163455E+02  0.48866223954E+02 -0.18131648343E+03  0.20758908079E+03  0.80559666588E+02 0.  0.
         23    2    1    2    0    0 -0.60433896604E+02 -0.12816115243E+03 -0.30879513273E+03  0.35211366184E+03  0.92477348625E+02 0.  0.
        -13    1    3    3    0    0  0.34731030544E+02  0.45092046359E+02 -0.18978201087E+03  0.19813315920E+03  0.00000000000E+00 0.  1.
         14    1    3    3    0    0  0.18721329118E+01  0.37741775954E+01  0.84655274389E+01  0.94559215828E+01  0.00000000000E+00 0. -1.
        -13    1    4    4    0    0 -0.37840185964E+01 -0.10779926465E+03 -0.21716928307E+03  0.24248195348E+03  0.00000000000E+00 0. -1.
         13    1    4    4    0    0 -0.56649878007E+02 -0.20361887778E+02 -0.91625849664E+02  0.10963170836E+03  0.00000000000E+00 0.  1.
          1    1    1    2  501    0  0.23830733148E+02  0.79294928475E+02 -0.20313836755E+03  0.21936450464E+03  0.00000000000E+00 0. -1.
<scales pt_clust_5="13000.00000" pt_clust_6="13000.00000" pt_clust_7="13000.00000" pt_clust_8="13000.00000" pt_clust_9="82.79853"></scales>
<clustering>
<clus scale="   80.560">  5  6 -1 -1</clus>
<clus scale="   82.799">  1  9  2 -1</clus>
<clus scale="   92.477">  7  8 -1 -1</clus>
<clus scale="  121.569">  2  5  1 -1</clus>
<clus scale="   82.799">  1  5  2 -1</clus>
</clustering>
</event>
<event>
 9    2  0.6190160E-005  0.1016652E+03  0.7546771E-02  0.1278715E+00
          2   -1    0    0  502    0 -0.00000000000E+00  0.00000000000E+00  0.45514638920E+03  0.45514638920E+03  0.00000000000E+00 0. -1.
         21   -1    0    0  501  502  0.00000000000E+00 -0.00000000000E+00 -0.85746766361E+02  0.85746766361E+02  0.00000000000E+00 0. -1.
         24    2    1    2    0    0  0.16803981695E+02  0.30832545498E+02  0.29156099900E+03  0.30661641302E+03  0.88163421731E+02 0.  0.
         23    2    1    2    0    0 -0.48445327907E+02 -0.46850954016E+02  0.12885180302E+03  0.17214696987E+03  0.92140275697E+02 0.  0.
        -13    1    3    3    0    0  0.21353727210E+02 -0.28309819229E+02  0.10166985817E+03  0.10767630933E+03  0.00000000000E+00 0.  1.
         14    1    3    3    0    0 -0.45497455145E+01  0.59142364727E+02  0.18989114083E+03  0.19894010369E+03  0.00000000000E+00 0. -1.
        -13    1    4    4    0    0  0.15279677095E+02 -0.46212513793E+02  0.41153909225E+02  0.63739385059E+02  0.00000000000E+00 0.  1.
         13    1    4    4    0    0 -0.63725005002E+02 -0.63844022337E+00  0.87697893796E+02  0.10840758481E+03  0.00000000000E+00 0. -1.
          1    1    1    2  501    0  0.31641346211E+02  0.16018408518E+02 -0.51013179185E+02  0.62129772670E+02  0.00000000000E+00 0. -1.
<scales pt_clust_5="13000.00000" pt_clust_6="13000.00000" pt_clust_7="13000.00000" pt_clust_8="13000.00000" pt_clust_9="35.46497"></scales>
<clustering>
<clus scale="   35.465">  2  9  1 -1</clus>
<clus scale="   88.163">  5  6 -1 -1</clus>
<clus scale="   92.140">  7  8 -1 -1</clus>
<clus scale="   98.075">  1  5  2 -1</clus>
<clus scale="   35.465">  2  5  1 -1</clus>
</clustering>
</event>
<event>
 9    2  0.6190160E-005  0.9723524E+02  0.7546771E-02  0.1294764E+00
         21   -1    0    0  501  502  0.00000000000E+00  0.00000000000E+00  0.40030323575E+02  0.40030323575E+02  0.00000000000E+00 0. -1.
          2   -1    0    0  502    0 -0.00000000000E+00 -0.00000000000E+00 -0.46260738446E+03  0.46260738446E+03  0.00000000000E+00 0. -1.
         23    2    1    2    0    0  0.30120041452E+01  0.83846144498E+01 -0.13469644647E+03  0.16416315767E+03  0.93418604760E+02 0.  0.
         24    2    1    2    0    0  0.15378958564E+02 -0.54331269380E+02 -0.81894401559E+02  0.12662639131E+03  0.78352733015E+02 0.  0.
        -11    1    4    4    0    0 -0.30542578886E+02 -0.88237419992E+01 -0.23867321432E+02  0.39753698950E+02  0.00000000000E+00 0.  1.
         12    1    4    4    0    0  0.45921537450E+02 -0.45507527381E+02 -0.58027080127E+02  0.86872692361E+02  0.00000000000E+00 0. -1.
        -11    1    3    3    0    0  0.12890707970E+02 -0.27442469665E+02 -0.12070168324E+03  0.12445141956E+03  0.00000000000E+00 0.  1.
         11    1    3    3    0    0 -0.98787038252E+01  0.35827084114E+02 -0.13994763223E+02  0.39711738102E+02  0.00000000000E+00 0. -1.
          1    1    1    2  501    0 -0.18390962709E+02  0.45946654930E+02 -0.20598621286E+03  0.21184815906E+03  0.00000000000E+00 0. -1.
<scales pt_clust_5="13000.00000" pt_clust_6="13000.00000" pt_clust_7="13000.00000" pt_clust_8="13000.00000" pt_clust_9="49.49066"></scales>
<clustering>
<clus scale="   49.491">  1  9  2 -1</clus>
<clus scale="   78.353">  5  6 -1 -1</clus>
<clus scale="   82.866">  1  5  2 -1</clus>
<clus scale="   93.419">  7  8 -1 -1</clus>
<clus scale="   49.491">  1  5  2 -1</clus>
</clustering>
</event>
<event>
 9    2  0.6190160E-005  0.1084998E+03  0.7546771E-02  0.1268791E+00
         -3   -1    0    0    0  501 -0.00000000000E+00  0.00000000000E+00  0.14018597322E+03  0.14018597322E+03  0.00000000000E+00 0.  1.
         21   -1    0    0  501  502  0.00000000000E+00 -0.00000000000E+00 -0.13141168940E+03  0.13141168940E+03  0.00000000000E+00 0. -1.
         24    2    1    2    0    0 -0.15937195763E+02  0.63560824473E+02  0.29368697354E+01  0.10350910187E+03  0.80072069722E+02 0.  0.
         23    2    1    2    0    0 -0.22362095613E+02 -0.44926643502E+02 -0.32727162673E+02  0.11063166386E+03  0.93004469002E+02 0.  0.
        -11    1    3    3    0    0  0.31755008678E+02  0.31193934496E+02  0.94457572290E+01  0.45504554223E+02  0.00000000000E+00 0.  1.
         12    1    3    3    0    0 -0.47692204441E+02  0.32366889977E+02 -0.65088874936E+01  0.58004547646E+02  0.00000000000E+00 0. -1.
        -11    1    4    4    0    0  0.53981789976E+01 -0.55369687457E+02 -0.51268784291E+02  0.75653359927E+02  0.00000000000E+00 0. -1.
         11    1    4    4    0    0 -0.27760274611E+02  0.10443043955E+02  0.18541621618E+02  0.34978303929E+02  0.00000000000E+00 0.  1.
         -4    1    1    2    0  502  0.38299291376E+02 -0.18634180971E+02  0.38564576755E+02  0.57456896894E+02  0.00000000000E+00 0.  1.
<scales pt_clust_5="13000.00000" pt_clust_6="13000.00000" pt_clust_7="13000.00000" pt_clust_8="13000.00000" pt_clust_9="42.59190"></scales>
<clustering>
<clus scale="   42.592">  2  9  1 -1</clus>
<clus scale="   80.072">  5  6 -1 -1</clus>
<clus scale="   93.004">  7  8 -1 -1</clus>
<clus scale="   97.642">  1  5  2 -1</clus>
<clus scale="   42.592">  2  5  1 -1</clus>
</clustering>
</event>
<event>
 9    2  0.6190160E-005  0.9493956E+02  0.7546771E-02  0.1297022E+00
         -1   -1    0    0    0  501 -0.00000000000E+00  0.00000000000E+00  0.67666430824E+02  0.67666430824E+02  0.00000000000E+00 0.  1.
         21   -1    0    0  501  502  0.00000000000E+00 -0.00000000000E+00 -0.26897015856E+03  0.26897015856E+03  0.00000000000E+00 0. -1.
         23    2    1    2    0    0 -0.14113947618E+02  0.52110112932E+01 -0.17126079120E+02  0.94109695341E+02  0.91307031575E+02 0.  0.
         24    2    1    2    0    0  0.36168110055E+02 -0.51360069757E+02 -0.14675901408E+03  0.17915279927E+03  0.81311305001E+02 0.  0.
        -13    1    4    4    0    0  0.11527305178E+02 -0.61860084046E+02 -0.55030432979E+02  0.83593643997E+02  0.00000000000E+00 0.  1.
         14    1    4    4    0    0  0.24640804877E+02  0.10500014289E+02 -0.91728581101E+02  0.95559155269E+02  0.00000000000E+00 0. -1.
        -11    1    3    3    0    0 -0.32468504097E+02  0.40971162066E+02 -0.79157882566E+01  0.52872484177E+02  0.00000000000E+00 0.  1.
         11    1    3    3    0    0  0.18354556479E+02 -0.35760150773E+02 -0.92102908635E+01  0.41237211164E+02  0.00000000000E+00 0. -1.
         -2    1    1    2    0  502 -0.22054162437E+02  0.46149058464E+02 -0.37418634532E+02  0.63374094772E+02  0.00000000000E+00 0.  1.
<scales pt_clust_5="13000.00000" pt_clust_6="13000.00000" pt_clust_7="13000.00000" pt_clust_8="13000.00000" pt_clust_9="51.14806"></scales>
<clustering>
<clus scale="   51.148">  2  9  1 -1</clus>
<clus scale="   81.311">  5  6 -1 -1</clus>
<clus scale="   85.370">  2  5  1 -1</clus>
<clus scale="   91.307">  7  8 -1 -1</clus>
<clus scale="   51.148">  2  5  1 -1</clus>
</clustering>
</event>
<event>
 9    2  0.6190160E-005  0.1038509E+03  0.7546771E-02  0.1275248E+00
         21   -1    0    0  501  502  0.00000000000E+00  0.00000000000E+00  0.76633332946E+02  0.76633332946E+02  0.00000000000E+00 0.  1.
          2   -1    0    0  502    0 -0.00000000000E+00 -0.00000000000E+00 -0.38954548180E+03  0.38954548180E+03  0.00000000000E+00 0. -1.
         23    2    1    2    0    0  0.18729304175E+01  0.26494640001E+02 -0.24521634388E+02  0.98660042500E+02  0.91798799643E+02 0.  0.
         24    2    1    2    0    0  0.47239935507E+02 -0.58486277776E+02 -0.54171291238E+02  0.12607688894E+03  0.85490332404E+02 0.  0.
        -11    1    4    4    0    0  0.10887345388E+02 -0.16794551404E+02  0.23407272769E+02  0.30797591869E+02  0.00000000000E+00 0.  1.
         12    1    4    4    0    0  0.36352590119E+02 -0.41691726373E+02 -0.77578564006E+02  0.95279297067E+02  0.00000000000E+00 0. -1.
        -11    1    3    3    0    0 -0.29979061153E+02  0.11728067546E+02  0.23008933298E+02  0.39568961163E+02  0.00000000000E+00 0. -1.
         11    1    3    3    0    0  0.31851991570E+02  0.14766572455E+02 -0.47530567686E+02  0.59091081337E+02  0.00000000000E+00 0.  1.
          1    1    1    2  501    0 -0.49112865924E+02  0.31991637775E+02 -0.23421922323E+03  0.24144188331E+03  0.00000000000E+00 0. -1.
<scales pt_clust_5="13000.00000" pt_clust_6="13000.00000" pt_clust_7="13000.00000" pt_clust_8="13000.00000" pt_clust_9="58.61350"></scales>
<clustering>
<clus scale="   58.613">  1  9  2 -1</clus>
<clus scale="   85.490">  5  6 -1 -1</clus>
<clus scale="   91.799">  7  8 -1 -1</clus>
<clus scale="   98.319">  1  5  2 -1</clus>
<clus scale="   58.613">  1  5  2 -1</clus>
</clustering>
</event>
<event>
 9    2  0.6190160E-005  0.1126497E+03  0.7546771E-02  0.1260521E+00
         21   -1    0    0  501  502  0.00000000000E+00  0.00000000000E+00  0.88223138917E+02  0.88223138917E+02  0.00000000000E+00 0.  1.
         -1   -1    0    0    0  501 -0.00000000000E+00 -0.00000000000E+00 -0.36306784831E+03  0.36306784831E+03  0.00000000000E+00 0.  1.
         24    2    1    2    0    0  0.68385076495E+02  0.73931962179E+01 -0.23215182187E+03  0.25449475809E+03  0.78370501199E+02 0.  0.
         23    2    1    2    0    0 -0.48567663759E+02 -0.52907868091E+02 -0.74395871941E+02  0.13789466359E+03  0.91225720151E+02 0.  0.
        -11    1    3    3    0    0  0.76880079934E+02 -0.64392706596E+01 -0.13084846404E+03  0.15189908308E+03  0.00000000000E+00 0.  1.
         12    1    3    3    0    0 -0.84950034398E+01  0.13832466877E+02 -0.10130335783E+03  0.10259567501E+03  0.00000000000E+00 0. -1.
        -13    1    4    4    0    0 -0.21075653076E+02  0.14160171676E+02  0.94217680180E+01  0.27082528077E+02  0.00000000000E+00 0. -1.
         13    1    4    4    0    0 -0.27492010683E+02 -0.67068039767E+02 -0.83817639959E+02  0.11081213552E+03  0.00000000000E+00 0.  1.
         -2    1    1    2    0  502 -0.19817412735E+02  0.45514671873E+02  0.31702984416E+02  0.58901565549E+02  0.00000000000E+00 0.  1.
<scales pt_clust_5="13000.00000" pt_clust_6="13000.00000" pt_clust_7="13000.00000" pt_clust_8="13000.00000" pt_clust_9="49.64187"></scales>
<clustering>
<clus scale="   49.642">  1  9  2 -1</clus>
<clus scale="   78.371">  5  6 -1 -1</clus>
<clus scale="   91.226">  7  8 -1 -1</clus>
<clus scale="  102.517">  2  5  1 -1</clus>
<clus scale="   49.642">  1  5  2 -1</clus>
</clustering>
</event>
<event>
 9    2  0.6190160E-005  0.1092508E+03  0.7546771E-02  0.1266561E+00
         21   -1    0    0  501  502  0.00000000000E+00  0.00000000000E+00  0.34241125803E+03  0.34241125803E+03  0.00000000000E+00 0. -1.
          2   -1    0    0  502    0 -0.00000000000E+00 -0.00000000000E+00 -0.11957252851E+03  0.11957252851E+03  0.00000000000E+00 0. -1.
         23    2    1    2    0    0 -0.13971540162E+02  0.67886176588E+02 -0.75621746539E+01  0.11506248864E+03  0.91533889351E+02 0.  0.
         24    2    1    2    0    0  0.63512439242E+02 -0.22858641428E+02 -0.23011695161E+01  0.10478077114E+03  0.80108471420E+02 0.  0.
        -13    1    4    4    0    0  0.66314110965E+02  0.13975322596E+02 -0.31184945295E-01  0.67770730609E+02  0.00000000000E+00 0.  1.
         14    1    4    4    0    0 -0.28016717226E+01 -0.36833964025E+02 -0.22699845708E+01  0.37010040532E+02  0.00000000000E+00 0. -1.
        -13    1    3    3    0    0 -0.16217524695E+02  0.14246929715E+02 -0.44797557553E+02  0.49727299105E+02  0.00000000000E+00 0.  1.
         13    1    3    3    0    0  0.22459845325E+01  0.53639246873E+02  0.37235382900E+02  0.65335189533E+02  0.00000000000E+00 0. -1.
          1    1    1    2  501    0 -0.49540899080E+02 -0.45027535159E+02  0.23270207369E+03  0.24214052677E+03  0.00000000000E+00 0. -1.
<scales pt_clust_5="13000.00000" pt_clust_6="13000.00000" pt_clust_7="13000.00000" pt_clust_8="13000.00000" pt_clust_9="66.94609"></scales>
<clustering>
<clus scale="   66.946">  1  9  2 -1</clus>
<clus scale="   80.108">  5  6 -1 -1</clus>
<clus scale="   91.534">  7  8 -1 -1</clus>
<clus scale="   99.873">  1  5  2 -1</clus>
<clus scale="   66.946">  1  5  2 -1</clus>
</clustering>
</event>
<event>
 9    2  0.6190160E-005  0.2005245E+03  0.7546771E-02  0.1177025E+00
         21   -1    0    0  501  502  0.00000000000E+00  0.00000000000E+00  0.94782666733E+02  0.94782666733E+02  0.00000000000E+00 0. -1.
          2   -1    0    0  502    0 -0.00000000000E+00 -0.00000000000E+00 -0.92507951216E+03  0.92507951216E+03  0.00000000000E+00 0. -1.
         23    2    1    2    0    0  0.49721887663E+02  0.38558410690E+02 -0.64191010583E+02  0.12351741434E+03  0.84717463714E+02 0.  0.
         24    2    1    2    0    0  0.13018400978E+03 -0.10143347502E+03 -0.64487093576E+03  0.67047465497E+03  0.80256544357E+02 0.  0.
        -11    1    4    4    0    0  0.11525760613E+02 -0.46241294376E+02 -0.24943544396E+03  0.25394712278E+03  0.00000000000E+00 0.  1.
         12    1    4    4    0    0  0.11865824916E+03 -0.55192180640E+02 -0.39543549180E+03  0.41652753219E+03  0.00000000000E+00 0. -1.
        -11    1    3    3    0    0 -0.15957352809E+02  0.16801454425E+02 -0.46729245002E+02  0.52158875734E+02  0.00000000000E+00 0.  1.
         11    1    3    3    0    0  0.65679240472E+02  0.21756956265E+02 -0.17461765581E+02  0.71358538606E+02  0.00000000000E+00 0. -1.
          1    1    1    2  501    0 -0.17990589744E+03  0.62875064327E+02 -0.12123489908E+03  0.22587010958E+03  0.00000000000E+00 0. -1.
<scales pt_clust_5="13000.00000" pt_clust_6="13000.00000" pt_clust_7="13000.00000" pt_clust_8="13000.00000" pt_clust_9="183.76339"></scales>
<clustering>
<clus scale="   80.257">  5  6 -1 -1</clus>
<clus scale="   84.717">  7  8 -1 -1</clus>
<clus scale="  105.528">  2  7  1 -1</clus>
<clus scale="  183.763">  1  9  2 -1</clus>
<clus scale="  183.763">  1  5  2 -1</clus>
</clustering>
</event>
<event>
 9    2  0.6190160E-005  0.3281100E+03  0.7546771E-02  0.1072324E+00
         -1   -1    0    0    0  501 -0.00000000000E+00  0.00000000000E+00  0.12375648525E+04  0.12375648525E+04  0.00000000000E+00 0.  1.
         21   -1    0    0  501  502  0.00000000000E+00 -0.00000000000E+00 -0.17505012075E+03  0.17505012075E+03  0.00000000000E+00 0. -1.
         23    2    1    2    0    0  0.29402192812E+03 -0.18384689266E+03  0.77021439023E+03  0.84954889496E+03  0.90854520233E+02 0.  0.
         24    2    1    2    0    0 -0.21631780959E+03  0.67423302129E+02  0.10555238862E+01  0.23993154553E+03  0.78909669824E+02 0.  0.
        -11    1    4    4    0    0 -0.75808482656E+02  0.60980153396E+02 -0.14699248690E+02  0.98394984948E+02  0.00000000000E+00 0.  1.
         12    1    4    4    0    0 -0.14050932694E+03  0.64431487327E+01  0.15754772577E+02  0.14153656058E+03  0.00000000000E+00 0. -1.
        -11    1    3    3    0    0  0.10809659939E+03 -0.10731939326E+03  0.26281984630E+03  0.30377063482E+03  0.00000000000E+00 0.  1.
         11    1    3    3    0    0  0.18592532874E+03 -0.76527499405E+02  0.50739454393E+03  0.54577826014E+03  0.00000000000E+00 0. -1.
         -2    1    1    2    0  502 -0.77704118530E+02  0.11642359054E+03  0.29124481765E+03  0.32313453278E+03  0.00000000000E+00 0.  1.
<scales pt_clust_5="13000.00000" pt_clust_6="13000.00000" pt_clust_7="13000.00000" pt_clust_8="13000.00000" pt_clust_9="139.97286"></scales>
<clustering>
<clus scale="   78.910">  5  6 -1 -1</clus>
<clus scale="   90.855">  7  8 -1 -1</clus>
<clus scale="  139.973">  2  9  1 -1</clus>
<clus scale="  325.005">  2  5  1 -1</clus>
<clus scale="  139.973">  2  5  1 -1</clus>
</clustering>
</event>
<event>
 9    2  0.6190160E-005  0.9521707E+02  0.7546771E-02  0.1298533E+00
         -1   -1    0    0    0  501 -0.00000000000E+00  0.00000000000E+00  0.36860706977E+02  0.36860706977E+02  0.00000000000E+00 0.  1.
         21   -1    0    0  501  502  0.00000000000E+00 -0.00000000000E+00 -0.29961931343E+03  0.29961931343E+03  0.00000000000E+00 0. -1.
         24    2    1    2    0    0  0.20322341351E+01  0.82593768811E+00 -0.88851275413E+02  0.12031087149E+03  0.81088497991E+02 0.  0.
         23    2    1    2    0    0 -0.27249156741E+02 -0.10450614413E+02 -0.11572574462E+03  0.15203160464E+03  0.94177645743E+02 0.  0.
        -13    1    3    3    0    0  0.30827945453E+02  0.22682254071E+02 -0.21571477993E+02  0.43933763023E+02  0.00000000000E+00 0.  1.
         14    1    3    3    0    0 -0.28795711318E+02 -0.21856316383E+02 -0.67279797420E+02  0.76377108462E+02  0.00000000000E+00 0. -1.
        -11    1    4    4    0    0  0.13831796053E+01 -0.28964954697E+02 -0.11428271564E+03  0.11790428694E+03  0.00000000000E+00 0. -1.
         11    1    4    4    0    0 -0.28632336346E+02  0.18514340284E+02 -0.14430289849E+01  0.34127317701E+02  0.00000000000E+00 0.  1.
         -2    1    1    2    0  502  0.25216922605E+02  0.96246767251E+01 -0.58181586420E+02  0.64137544279E+02  0.00000000000E+00 0.  1.
<scales pt_clust_5="13000.00000" pt_clust_6="13000.00000" pt_clust_7="13000.00000" pt_clust_8="13000.00000" pt_clust_9="26.99125"></scales>
<clustering>
<clus scale="   26.991">  2  9  1 -1</clus>
<clus scale="   81.088">  5  6 -1 -1</clus>
<clus scale="   82.293">  1  5  2 -1</clus>
<clus scale="   94.178">  7  8 -1 -1</clus>
<clus scale="   26.991">  2  5  1 -1</clus>
</clustering>
</event>
<event>
 9    2  0.6190160E-005  0.1102405E+03  0.7546771E-02  0.1263543E+00
         21   -1    0    0  501  502  0.00000000000E+00  0.00000000000E+00  0.34397636697E+03  0.34397636697E+03  0.00000000000E+00 0.  1.
          2   -1    0    0  502    0 -0.00000000000E+00 -0.00000000000E+00 -0.86977931264E+02  0.86977931264E+02  0.00000000000E+00 0. -1.
         23    2    1    2    0    0 -0.59749226959E+01 -0.68841727471E+02  0.72765549290E+02  0.13416281486E+03  0.89050281223E+02 0.  0.
         24    2    1    2    0    0  0.50863785989E+02  0.46437055761E+02  0.21387357531E+03  0.23852013707E+03  0.80040144278E+02 0.  0.
        -13    1    4    4    0    0  0.27159749278E+02  0.21756359989E+02  0.19757605800E+03  0.20061727212E+03  0.00000000000E+00 0.  1.
         14    1    4    4    0    0  0.23704036711E+02  0.24680695772E+02  0.16297517317E+02  0.37902864943E+02  0.00000000000E+00 0. -1.
        -13    1    3    3    0    0 -0.11782132653E+02  0.19099051646E+02  0.26159626289E+02  0.34466193164E+02  0.00000000000E+00 0. -1.
         13    1    3    3    0    0  0.58072099570E+01 -0.87940779117E+02  0.46605923001E+02  0.99696621698E+02  0.00000000000E+00 0.  1.
          1    1    1    2  501    0 -0.44888863293E+02  0.22404671710E+02 -0.29640688896E+02  0.58271346307E+02  0.00000000000E+00 0. -1.
<scales pt_clust_5="13000.00000" pt_clust_6="13000.00000" pt_clust_7="13000.00000" pt_clust_8="13000.00000" pt_clust_9="50.16953"></scales>
<clustering>
<clus scale="   50.170">  1  9  2 -1</clus>
<clus scale="   80.040">  5  6 -1 -1</clus>
<clus scale="   89.050">  7  8 -1 -1</clus>
<clus scale="  103.099">  1  5  2 -1</clus>
<clus scale="   50.170">  1  5  2 -1</clus>
</clustering>
</event>
<event>
 9    2  0.6190160E-005  0.9088608E+02  0.7546771E-02  0.1304504E+00
          2   -1    0    0  502    0 -0.00000000000E+00  0.00000000000E+00  0.62800101014E+03  0.62800101014E+03  0.00000000000E+00 0. -1.
         21   -1    0    0  501  502  0.00000000000E+00 -0.00000000000E+00 -0.22655973244E+02  0.22655973244E+02  0.00000000000E+00 0.  1.
         23    2    1    2    0    0 -0.20110481230E+02  0.17821832949E+02  0.45999210851E+03  0.46901146924E+03  0.87504109662E+02 0.  0.
         24    2    1    2    0    0  0.55578649056E+00 -0.24253613829E+02  0.13287274443E+03  0.15757252340E+03  0.81150398857E+02 0.  0.
        -11    1    4    4    0    0  0.12564732182E+02 -0.29238222634E+02  0.90728928169E+01  0.33091744313E+02  0.00000000000E+00 0.  1.
         12    1    4    4    0    0 -0.12008945691E+02  0.49846088049E+01  0.12379985162E+03  0.12448077909E+03  0.00000000000E+00 0. -1.
        -13    1    3    3    0    0 -0.54295098556E+02  0.40857134121E+01  0.29101954884E+03  0.29606929694E+03  0.00000000000E+00 0. -1.
         13    1    3    3    0    0  0.34184617326E+02  0.13736119537E+02  0.16897255967E+03  0.17294217231E+03  0.00000000000E+00 0.  1.
          1    1    1    2  501    0  0.19554694739E+02  0.64317808799E+01  0.12480183950E+02  0.24072990738E+02  0.00000000000E+00 0. -1.
<scales pt_clust_5="13000.00000" pt_clust_6="13000.00000" pt_clust_7="13000.00000" pt_clust_8="13000.00000" pt_clust_9="20.58528"></scales>
<clustering>
<clus scale="   20.585">  2  9  1 -1</clus>
<clus scale="   81.150">  5  6 -1 -1</clus>
<clus scale="   84.786">  2  5  1 -1</clus>
<clus scale="   87.504">  7  8 -1 -1</clus>
<clus scale="   20.585">  2  5  1 -1</clus>
</clustering>
</event>
<event>
 9    2  0.6190160E-005  0.2184798E+03  0.7546771E-02  0.1136012E+00
         21   -1    0    0  501  502  0.00000000000E+00  0.00000000000E+00  0.60048245129E+03  0.60048245129E+03  0.00000000000E+00 0. -1.
         -3   -1    0    0    0  501 -0.00000000000E+00 -0.00000000000E+00 -0.17455054406E+03  0.17455054406E+03  0.00000000000E+00 0.  1.
         24    2    1    2    0    0  0.12293151552E+03 -0.12846317322E+03 -0.20500565099E+01  0.19450909489E+03  0.78832993596E+02 0.  0.
         23    2    1    2    0    0 -0.14815103173E+03  0.22313997311E+03  0.25188497645E+03  0.37900499473E+03  0.91970478271E+02 0.  0.
        -11    1    3    3    0    0  0.83791227987E+02 -0.13069543991E+03  0.48825075576E-01  0.15524905889E+03  0.00000000000E+00 0.  1.
         12    1    3    3    0    0  0.39140287536E+02  0.22322666888E+01 -0.20988815855E+01  0.39260036002E+02  0.00000000000E+00 0. -1.
        -13    1    4    4    0    0 -0.63430307307E+02  0.15492350022E+03  0.19238827044E+03  0.25502537405E+03  0.00000000000E+00 0. -1.
         13    1    4    4    0    0 -0.84720724419E+02  0.68216472882E+02  0.59496706003E+02  0.12397962068E+03  0.00000000000E+00 0.  1.
         -4    1    1    2    0  502  0.25219516204E+02 -0.94676799883E+02  0.17609698729E+03  0.20151890573E+03  0.00000000000E+00 0.  1.
<scales pt_clust_5="13000.00000" pt_clust_6="13000.00000" pt_clust_7="13000.00000" pt_clust_8="13000.00000" pt_clust_9="97.97816"></scales>
<clustering>
<clus scale="   78.833">  5  6 -1 -1</clus>
<clus scale="   91.970">  7  8 -1 -1</clus>
<clus scale="   97.978">  1  9  2 -1</clus>
<clus scale="  213.283">  2  5  1 -1</clus>
<clus scale="   97.978">  1  5  2 -1</clus>
</clustering>
</event>
<event>
 9    2  0.6190160E-005  0.1407376E+03  0.7546771E-02  0.1226228E+00
         21   -1    0    0  501  502  0.00000000000E+00  0.00000000000E+00  0.12760479957E+03  0.12760479957E+03  0.00000000000E+00 0.  1.
          2   -1    0    0  502    0 -0.00000000000E+00 -0.00000000000E+00 -0.31440767576E+03  0.31440767576E+03  0.00000000000E+00 0. -1.
         24    2    1    2    0    0  0.26285827751E+02  0.59154192143E+02  0.35573124034E+02  0.11095992120E+03  0.82803947800E+02 0.  0.
         23    2    1    2    0    0  0.33311783804E+02  0.41403857101E+02 -0.16083502295E+03  0.19894998619E+03  0.10435151207E+03 0.  0.
        -13    1    3    3    0    0 -0.14619285737E+02  0.38568236687E+02  0.48218627442E+02  0.63452883536E+02  0.00000000000E+00 0.  1.
         14    1    3    3    0    0  0.40905113488E+02  0.20585955456E+02 -0.12645503408E+02  0.47507037668E+02  0.00000000000E+00 0. -1.
        -11    1    4    4    0    0  0.24830267309E+02 -0.12071712062E+02  0.16726540750E+01  0.27659829689E+02  0.00000000000E+00 0.  1.
         11    1    4    4    0    0  0.84815164953E+01  0.53475569164E+02 -0.16250767703E+03  0.17129015650E+03  0.00000000000E+00 0. -1.
          1    1    1    2  501    0 -0.59597611555E+02 -0.10055804924E+03 -0.61540977272E+02  0.13210256793E+03  0.00000000000E+00 0. -1.
<scales pt_clust_5="13000.00000" pt_clust_6="13000.00000" pt_clust_7="13000.00000" pt_clust_8="13000.00000" pt_clust_9="94.43423"></scales>
<clustering>
<clus scale="   82.804">  5  6 -1 -1</clus>
<clus scale="  104.352">  7  8 -1 -1</clus>
<clus scale="  105.103">  2  5  1 -1</clus>
<clus scale="   94.434">  1  9  2 -1</clus>
<clus scale="   94.434">  1  5  2 -1</clus>
</clustering>
</event>
<event>
 9    2  0.6190160E-005  0.8647846E+02  0.7546771E-02  0.1312025E+00
          2   -1    0    0  502    0 -0.00000000000E+00  0.00000000000E+00  0.53305150210E+03  0.53305150210E+03  0.00000000000E+00 0. -1.
         21   -1    0    0  501  502  0.00000000000E+00 -0.00000000000E+00 -0.50183714712E+02  0.50183714712E+02  0.00000000000E+00 0. -1.
         24    2    1    2    0    0 -0.62179512169E+01  0.33741409823E+02  0.27990330058E+03  0.29283059810E+03  0.78909795670E+02 0.  0.
         23    2    1    2    0    0 -0.56618403573E+02 -0.44127983766E+02  0.36632538953E+02  0.11229620993E+03  0.78202130921E+02 0.  0.
        -11    1    3    3    0    0  0.16958226233E+02  0.38420206790E+02  0.70232542969E+02  0.81830946583E+02  0.00000000000E+00 0.  1.
         12    1    3    3    0    0 -0.23176177450E+02 -0.46787969672E+01  0.20967075762E+03  0.21099965152E+03  0.00000000000E+00 0. -1.
        -11    1    4    4    0    0 -0.14768245627E+02 -0.23857570584E+02 -0.23277586255E+02  0.36457245849E+02  0.00000000000E+00 0. -1.
         11    1    4    4    0    0 -0.41850157946E+02 -0.20270413182E+02  0.59910125208E+02  0.75838964083E+02  0.00000000000E+00 0.  1.
          1    1    1    2  501    0  0.62836354790E+02  0.10386573943E+02  0.16633194785E+03  0.17810840878E+03  0.00000000000E+00 0. -1.
<scales pt_clust_5="13000.00000" pt_clust_6="13000.00000" pt_clust_7="13000.00000" pt_clust_8="13000.00000" pt_clust_9="63.68903"></scales>
<clustering>
<clus scale="   63.689">  2  9  1 -1</clus>
<clus scale="   78.202">  7  8 -1 -1</clus>
<clus scale="   78.910">  5  6 -1 -1</clus>
<clus scale="   85.833">  2  7  1 -1</clus>
<clus scale="   63.689">  2  5  1 -1</clus>
</clustering>
</event>
<event>
 9    2  0.6190160E-005  0.1928090E+03  0.7546771E-02  0.1157915E+00
         21   -1    0    0  501  502  0.00000000000E+00  0.00000000000E+00  0.13607171595E+03  0.13607171595E+03  0.00000000000E+00 0. -1.
          2   -1    0    0  502    0 -0.00000000000E+00 -0.00000000000E+00 -0.73406573389E+03  0.73406573389E+03  0.00000000000E+00 0. -1.
         23    2    1    2    0    0 -0.17900941539E+03  0.55813425325E+02 -0.55830024570E+03  0.59627470561E+03  0.93192547749E+02 0.  0.
         24    2    1    2    0    0  0.12294892967E+03  0.49136786149E+02 -0.30378889580E+02  0.15451412888E+03  0.73626598669E+02 0.  0.
        -13    1    4    4    0    0  0.12651623364E+03  0.59793985024E+02 -0.25394983139E+02  0.14222019262E+03  0.00000000000E+00 0.  1.
         14    1    4    4    0    0 -0.35673039670E+01 -0.10657198876E+02 -0.49839064414E+01  0.12293936265E+02  0.00000000000E+00 0. -1.
        -11    1    3    3    0    0 -0.66212638250E+02  0.27429821052E+02 -0.97413194762E+02  0.12093733526E+03  0.00000000000E+00 0.  1.
         11    1    3    3    0    0 -0.11279677714E+03  0.28383604273E+02 -0.46088705093E+03  0.47533737034E+03  0.00000000000E+00 0. -1.
          1    1    1    2  501    0  0.56060485717E+02 -0.10495021147E+03 -0.93148826706E+01  0.11934861535E+03  0.00000000000E+00 0. -1.
<scales pt_clust_5="13000.00000" pt_clust_6="13000.00000" pt_clust_7="13000.00000" pt_clust_8="13000.00000" pt_clust_9="118.98456"></scales>
<clustering>
<clus scale="   73.627">  5  6 -1 -1</clus>
<clus scale="   93.193">  7  8 -1 -1</clus>
<clus scale="  118.985">  1  9  2 -1</clus>
<clus scale="  184.150">  1  5  2 -1</clus>
<clus scale="  118.985">  1  5  2 -1</clus>
</clustering>
</event>
<event>
 9    2  0.6190160E-005  0.2558261E+03  0.7546771E-02  0.1133912E+00
         21   -1    0    0  501  502  0.00000000000E+00  0.00000000000E+00  0.12633761666E+03  0.12633761666E+03  0.00000000000E+00 0. -1.
          2   -1    0    0  502    0 -0.00000000000E+00 -0.00000000000E+00 -0.83744371520E+03  0.83744371520E+03  0.00000000000E+00 0. -1.
         23    2    1    2    0    0 -0.98601039595E+02 -0.36822939243E+02 -0.16785165081E+03  0.21845315252E+03  0.92029936992E+02 0.  0.
         24    2    1    2    0    0  0.10816141004E+01 -0.21644305731E+03 -0.31409643359E+03  0.39012809656E+03  0.81820505870E+02 0.  0.
        -13    1    4    4    0    0  0.22847664327E+02 -0.12670932730E+03 -0.12381498225E+03  0.17862647961E+03  0.00000000000E+00 0.  1.
         14    1    4    4    0    0 -0.21766050227E+02 -0.89733730013E+02 -0.19028145134E+03  0.21150161695E+03  0.00000000000E+00 0. -1.
        -11    1    3    3    0    0 -0.79126220399E+02  0.35253892475E+01 -0.15113868914E+03  0.17063496265E+03  0.00000000000E+00 0.  1.
         11    1    3    3    0    0 -0.19474819196E+02 -0.40348328491E+02 -0.16712961673E+02  0.47818189871E+02  0.00000000000E+00 0. -1.
          1    1    1    2  501    0  0.97519425494E+02  0.25326599656E+03 -0.22915801413E+03  0.35520008277E+03  0.00000000000E+00 0. -1.
<scales pt_clust_5="13000.00000" pt_clust_6="13000.00000" pt_clust_7="13000.00000" pt_clust_8="13000.00000" pt_clust_9="242.38894"></scales>
<clustering>
<clus scale="   81.821">  5  6 -1 -1</clus>
<clus scale="   92.030">  7  8 -1 -1</clus>
<clus scale="  139.813">  2  7  1 -1</clus>
<clus scale="  242.389">  1  9  2 -1</clus>
<clus scale="  242.389">  1  5  2 -1</clus>
</clustering>
</event>
<event>
 9    2  0.6190160E-005  0.1223891E+03  0.7546771E-02  0.1250798E+00
         21   -1    0    0  501  502  0.00000000000E+00  0.00000000000E+00  0.29212776388E+03  0.29212776388E+03  0.00000000000E+00 0. -1.
          2   -1    0    0  502    0 -0.00000000000E+00 -0.00000000000E+00 -0.14396230879E+03  0.14396230879E+03  0.00000000000E+00 0. -1.
         23    2    1    2    0    0 -0.16673379421E+02  0.58329722582E+02 -0.99425519588E+02  0.15932387280E+03  0.10871202500E+03 0.  0.
         24    2    1    2    0    0  0.27156027760E+02 -0.22966488858E+02  0.16569316583E+03  0.18694584967E+03  0.78927916822E+02 0.  0.
        -11    1    4    4    0    0  0.91018756402E+01 -0.21741757017E+02  0.35972378535E+01  0.23842991812E+02  0.00000000000E+00 0.  1.
         12    1    4    4    0    0  0.18054152120E+02 -0.12247318412E+01  0.16209592797E+03  0.16310285786E+03  0.00000000000E+00 0. -1.
        -13    1    3    3    0    0 -0.41187749689E+02  0.77438863072E+02 -0.92511691221E+02  0.12748184675E+03  0.00000000000E+00 0. -1.
         13    1    3    3    0    0  0.24514370268E+02 -0.19109140490E+02 -0.69138283665E+01  0.31842026044E+02  0.00000000000E+00 0.  1.
          1    1    1    2  501    0 -0.10482648340E+02 -0.35363233724E+02  0.81897808847E+02  0.89820350198E+02  0.00000000000E+00 0. -1.
<scales pt_clust_5="13000.00000" pt_clust_6="13000.00000" pt_clust_7="13000.00000" pt_clust_8="13000.00000" pt_clust_9="36.88420"></scales>
<clustering>
<clus scale="   36.884">  1  9  2 -1</clus>
<clus scale="   78.928">  5  6 -1 -1</clus>
<clus scale="   96.904">  1  5  2 -1</clus>
<clus scale="  108.712">  7  8 -1 -1</clus>
<clus scale="   36.884">  1  5  2 -1</clus>
</clustering>
</event>
<event>
 9    2  0.6190160E-005  0.9674727E+02  0.7546771E-02  0.1293901E+00
         -1   -1    0    0    0  501 -0.00000000000E+00  0.00000000000E+00  0.63162838428E+03  0.63162838428E+03  0.00000000000E+00 0.  1.
         21   -1    0    0  501  502  0.00000000000E+00 -0.00000000000E+00 -0.24222485519E+02  0.24222485519E+02  0.00000000000E+00 0.  1.
         23    2    1    2    0    0 -0.30996385886E+02  0.20938477317E+02  0.29130746058E+03  0.30766673289E+03  0.91649256205E+02 0.  0.
         24    2    1    2    0    0  0.28613471822E+02  0.16634359361E+02  0.11594733139E+03  0.14452299215E+03  0.79672322194E+02 0.  0.
        -11    1    4    4    0    0 -0.87897572159E+01 -0.27228439638E+02  0.39796405673E+02  0.49014300581E+02  0.00000000000E+00 0.  1.
         12    1    4    4    0    0  0.37403229038E+02  0.43862798999E+02  0.76150925717E+02  0.95508691573E+02  0.00000000000E+00 0. -1.
        -11    1    3    3    0    0 -0.34733699120E+02 -0.27456404926E+02  0.19320267745E+03  0.19821089425E+03  0.00000000000E+00 0.  1.
         11    1    3    3    0    0  0.37373132339E+01  0.48394882243E+02  0.98104783131E+02  0.10945583863E+03  0.00000000000E+00 0. -1.
         -2    1    1    2    0  502  0.23829140641E+01 -0.37572836678E+02  0.20015110679E+03  0.20366114476E+03  0.00000000000E+00 0.  1.
<scales pt_clust_5="13000.00000" pt_clust_6="13000.00000" pt_clust_7="13000.00000" pt_clust_8="13000.00000" pt_clust_9="37.64834"></scales>
<clustering>
<clus scale="   37.648">  2  9  1 -1</clus>
<clus scale="   79.672">  5  6 -1 -1</clus>
<clus scale="   85.488">  2  5  1 -1</clus>
<clus scale="   91.649">  7  8 -1 -1</clus>
<clus scale="   37.648">  2  5  1 -1</clus>
</clustering>
</event>
<event>
 9    2  0.6190160E-005  0.1057045E+03  0.7546771E-02  0.1274383E+00
         21   -1    0    0  501  502  0.00000000000E+00  0.00000000000E+00  0.72824911947E+02  0.72824911947E+02  0.00000000000E+00 0. -1.
          2   -1    0    0  502    0 -0.00000000000E+00 -0.00000000000E+00 -0.49264332880E+03  0.49264332880E+03  0.00000000000E+00 0. -1.
         24    2    1    2    0    0 -0.63901372050E+02  0.60834399219E+01 -0.24061440045E+03  0.26119360072E+03  0.78780795660E+02 0.  0.
         23    2    1    2    0    0 -0.42684131927E+01  0.52336688775E+02 -0.19867303253E+01  0.10561413176E+03  0.91613587352E+02 0.  0.
        -13    1    3    3    0    0  0.31207464401E+01  0.29794652396E+02 -0.84517070141E+02  0.89669367763E+02  0.00000000000E+00 0.  1.
         14    1    3    3    0    0 -0.67022118490E+02 -0.23711212474E+02 -0.15609733030E+03  0.17152423296E+03  0.00000000000E+00 0. -1.
        -11    1    4    4    0    0 -0.44021717379E+02  0.98684287694E+01 -0.11774117058E+02  0.46625393509E+02  0.00000000000E+00 0.  1.
         11    1    4    4    0    0  0.39753304187E+02  0.42468260005E+02  0.97873867329E+01  0.58988738253E+02  0.00000000000E+00 0. -1.
          1    1    1    2  501    0  0.68169785242E+02 -0.58420128697E+02 -0.17721728609E+03  0.19866050827E+03  0.00000000000E+00 0. -1.
<scales pt_clust_5="13000.00000" pt_clust_6="13000.00000" pt_clust_7="13000.00000" pt_clust_8="13000.00000" pt_clust_9="89.77772"></scales>
<clustering>
<clus scale="   78.781">  5  6 -1 -1</clus>
<clus scale="   89.778">  1  9  2 -1</clus>
<clus scale="   91.614">  7  8 -1 -1</clus>
<clus scale="   94.799">  2  5  1 -1</clus>
<clus scale="   89.778">  1  5  2 -1</clus>
</clustering>
</event>
<event>
 9    2  0.6190160E-005  0.1008856E+03  0.7546771E-02  0.1284663E+00
          2   -1    0    0  502    0 -0.00000000000E+00  0.00000000000E+00  0.46517623295E+03  0.46517623295E+03  0.00000000000E+00 0. -1.
         21   -1    0    0  501  502  0.00000000000E+00 -0.00000000000E+00 -0.62325458448E+02  0.62325458448E+02  0.00000000000E+00 0. -1.
         23    2    1    2    0    0  0.42251026827E+01 -0.34845665827E+02  0.20841429004E+03  0.23112515046E+03  0.93542754732E+02 0.  0.
         24    2    1    2    0    0 -0.77157818038E+02 -0.10089649354E+02  0.17575629828E+03  0.20869921847E+03  0.81301645110E+02 0.  0.
        -11    1    4    4    0    0 -0.17219476044E+01 -0.21241554550E+02  0.52955952620E+01  0.21959327686E+02  0.00000000000E+00 0.  1.
         12    1    4    4    0    0 -0.75435870433E+02  0.11151905196E+02  0.17046070302E+03  0.18673989079E+03  0.00000000000E+00 0. -1.
        -13    1    3    3    0    0  0.26555877649E+02  0.23479025388E+02  0.98818373054E+02  0.10498357073E+03  0.00000000000E+00 0.  1.
         13    1    3    3    0    0 -0.22330774966E+02 -0.58324691216E+02  0.10959591698E+03  0.12614157973E+03  0.00000000000E+00 0. -1.
          1    1    1    2  501    0  0.72932715355E+02  0.44935315181E+02  0.18680186187E+02  0.87677322470E+02  0.00000000000E+00 0. -1.
<scales pt_clust_5="13000.00000" pt_clust_6="13000.00000" pt_clust_7="13000.00000" pt_clust_8="13000.00000" pt_clust_9="85.66425"></scales>
<clustering>
<clus scale="   81.302">  5  6 -1 -1</clus>
<clus scale="   85.664">  2  9  1 -1</clus>
<clus scale="   89.653">  2  5  1 -1</clus>
<clus scale="   93.543">  7  8 -1 -1</clus>
<clus scale="   85.664">  2  5  1 -1</clus>
</clustering>
</event>
<event>
 9    2  0.6190160E-005  0.9222061E+02  0.7546771E-02  0.1306910E+00
          2   -1    0    0  502    0 -0.00000000000E+00  0.00000000000E+00  0.60552560287E+03  0.60552560287E+03  0.00000000000E+00 0. -1.
         21   -1    0    0  501  502  0.00000000000E+00 -0.00000000000E+00 -0.75130656645E+02  0.75130656645E+02  0.00000000000E+00 0. -1.
         24    2    1    2    0    0 -0.20699708125E+01 -0.22920711967E+02  0.27788372854E+03  0.28936972511E+03  0.77368129109E+02 0.  0.
         23    2    1    2    0    0 -0.52456667779E+01 -0.12574170249E+02  0.30982620889E+03  0.32347493190E+03  0.91968065521E+02 0.  0.
        -13    1    3    3    0    0  0.28986799223E+02  0.83569252018E+01  0.17284228247E+03  0.17545520038E+03  0.00000000000E+00 0.  1.
         14    1    3    3    0    0 -0.31056770036E+02 -0.31277637169E+02  0.10504144607E+03  0.11391452473E+03  0.00000000000E+00 0. -1.
        -11    1    4    4    0    0 -0.70691624081E+01  0.39855961733E+02  0.13074964459E+03  0.13687198509E+03  0.00000000000E+00 0.  1.
         11    1    4    4    0    0  0.18234956302E+01 -0.52430131982E+02  0.17907656430E+03  0.18660294681E+03  0.00000000000E+00 0. -1.
          1    1    1    2  501    0  0.73156375904E+01  0.35494882217E+02 -0.57314991212E+02  0.67811602507E+02  0.00000000000E+00 0. -1.
<scales pt_clust_5="13000.00000" pt_clust_6="13000.00000" pt_clust_7="13000.00000" pt_clust_8="13000.00000" pt_clust_9="36.24093"></scales>
<clustering>
<clus scale="   36.241">  2  9  1 -1</clus>
<clus scale="   77.368">  5  6 -1 -1</clus>
<clus scale="   77.668">  1  5  2 -1</clus>
<clus scale="   91.968">  7  8 -1 -1</clus>
<clus scale="   36.241">  2  5  1 -1</clus>
</clustering>
</event>
<event>
 9    2  0.6190160E-005  0.9566630E+02  0.7546771E-02  0.1299183E+00
         21   -1    0    0  501  502  0.00000000000E+00  0.00000000000E+00  0.13765940052E+02  0.13765940052E+02  0.00000000000E+00 0. -1.
          2   -1    0    0  502    0 -0.00000000000E+00 -0.00000000000E+00 -0.11574442329E+04  0.11574442329E+04  0.00000000000E+00 0. -1.
         24    2    1    2    0    0  0.16566395911E+01 -0.37001399535E+01 -0.47231933145E+03  0.47900869202E+03  0.79670199437E+02 0.  0.
         23    2    1    2    0    0  0.44093898852E+01 -0.42830256556E+02 -0.29585675380E+03  0.31377872472E+03  0.95247024721E+02 0.  0.
        -11    1    3    3    0    0 -0.52206797645E+01  0.25245825903E+02 -0.56241549838E+02  0.61868563511E+02  0.00000000000E+00 0.  1.
         12    1    3    3    0    0  0.68773193556E+01 -0.28945965856E+02 -0.41607778161E+03  0.41714012851E+03  0.00000000000E+00 0. -1.
        -13    1    4    4    0    0  0.37976999444E+02 -0.10126985839E+02 -0.50532549415E+02  0.64018332369E+02  0.00000000000E+00 0. -1.
         13    1    4    4    0    0 -0.33567609559E+02 -0.32703270717E+02 -0.24532420439E+03  0.24976039235E+03  0.00000000000E+00 0.  1.
          1    1    1    2  501    0 -0.60660294764E+01  0.46530396509E+02 -0.37550220764E+03  0.37842275626E+03  0.00000000000E+00 0. -1.
<scales pt_clust_5="13000.00000" pt_clust_6="13000.00000" pt_clust_7="13000.00000" pt_clust_8="13000.00000" pt_clust_9="46.92416"></scales>
<clustering>
<clus scale="   46.924">  1  9  2 -1</clus>
<clus scale="   79.670">  5  6 -1 -1</clus>
<clus scale="   80.171">  2  5  1 -1</clus>
<clus scale="   95.247">  7  8 -1 -1</clus>
<clus scale="   46.924">  1  5  2 -1</clus>
</clustering>
</event>
<event>
 9    2  0.6190160E-005  0.1585495E+03  0.7546771E-02  0.1213353E+00
         -1   -1    0    0    0  501 -0.00000000000E+00  0.00000000000E+00  0.73902128296E+03  0.73902128296E+03  0.00000000000E+00 0.  1.
         21   -1    0    0  501  502  0.00000000000E+00 -0.00000000000E+00 -0.80940529289E+02  0.80940529289E+02  0.00000000000E+00 0. -1.
         24    2    1    2    0    0  0.37693581112E+02 -0.33361414257E+02  0.77888333171E+00  0.96340858968E+02  0.82141125079E+02 0.  0.
         23    2    1    2    0    0 -0.11916056857E+03  0.11411360191E+03  0.32659770724E+03  0.37358805576E+03  0.75371199996E+02 0.  0.
        -11    1    3    3    0    0  0.35469347917E+01 -0.42134217641E+02 -0.28098672497E+02  0.50768183331E+02  0.00000000000E+00 0.  1.
         12    1    3    3    0    0  0.34146646320E+02  0.87728033846E+01  0.28877555828E+02  0.45572675637E+02  0.00000000000E+00 0. -1.
        -13    1    4    4    0    0 -0.69247871483E+02  0.84136103053E+02  0.13585563241E+03  0.17415769980E+03  0.00000000000E+00 0.  1.
         13    1    4    4    0    0 -0.49912697084E+02  0.29977498859E+02  0.19074207482E+03  0.19943035595E+03  0.00000000000E+00 0. -1.
         -2    1    1    2    0  502  0.81466987456E+02 -0.80752187656E+02  0.33070416310E+03  0.35003289752E+03  0.00000000000E+00 0.  1.
<scales pt_clust_5="13000.00000" pt_clust_6="13000.00000" pt_clust_7="13000.00000" pt_clust_8="13000.00000" pt_clust_9="139.48883"></scales>
<clustering>
<clus scale="   75.371">  7  8 -1 -1</clus>
<clus scale="   82.141">  5  6 -1 -1</clus>
<clus scale="   96.338">  1  5  2 -1</clus>
<clus scale="  139.489">  2  9  1 -1</clus>
<clus scale="  139.489">  2  5  1 -1</clus>
</clustering>
</event>
<event>
 9    2  0.6190160E-005  0.1055193E+03  0.7546771E-02  0.1271966E+00
         21   -1    0    0  501  502  0.00000000000E+00  0.00000000000E+00  0.29338749986E+02  0.29338749986E+02  0.00000000000E+00 0. -1.
         -3   -1    0    0    0  501 -0.00000000000E+00 -0.00000000000E+00 -0.53585018893E+03  0.53585018893E+03  0.00000000000E+00 0.  1.
         24    2    1    2    0    0 -0.29428066302E+02 -0.42740612317E+02 -0.21742996583E+03  0.23772457521E+03  0.80897543798E+02 0.  0.
         23    2    1    2    0    0  0.21390369077E+02  0.68612044273E+02 -0.16367357343E+03  0.19916363545E+03  0.87817734744E+02 0.  0.
        -11    1    3    3    0    0 -0.43428830907E+02 -0.56429375142E+01 -0.17170356472E+03  0.17720050857E+03  0.00000000000E+00 0.  1.
         12    1    3    3    0    0  0.14000764605E+02 -0.37097674803E+02 -0.45726401105E+02  0.60524066646E+02  0.00000000000E+00 0. -1.
        -13    1    4    4    0    0  0.28844303372E+02  0.88005208265E+02 -0.13054163638E+03  0.16005633180E+03  0.00000000000E+00 0. -1.
         13    1    4    4    0    0 -0.74539342943E+01 -0.19393163992E+02 -0.33131937049E+02  0.39107303649E+02  0.00000000000E+00 0.  1.
         -4    1    1    2    0  502  0.80376972243E+01 -0.25871431956E+02 -0.12540789968E+03  0.12830072826E+03  0.00000000000E+00 0.  1.
<scales pt_clust_5="13000.00000" pt_clust_6="13000.00000" pt_clust_7="13000.00000" pt_clust_8="13000.00000" pt_clust_9="27.09126"></scales>
<clustering>
<clus scale="   27.091">  1  9  2 -1</clus>
<clus scale="   80.898">  5  6 -1 -1</clus>
<clus scale="   87.818">  7  8 -1 -1</clus>
<clus scale="   99.834">  2  5  1 -1</clus>
<clus scale="   27.091">  1  5  2 -1</clus>
</clustering>
</event>
<event>
 9    2  0.6190160E-005  0.1989196E+03  0.7546771E-02  0.1183329E+00
         21   -1    0    0  501  502  0.00000000000E+00  0.00000000000E+00  0.76598822506E+03  0.76598822506E+03  0.00000000000E+00 0.  1.
         -3   -1    0    0    0  501 -0.00000000000E+00 -0.00000000000E+00 -0.87310345700E+02  0.87310345700E+02  0.00000000000E+00 0.  1.
         23    2    1    2    0    0  0.27414711394E+01 -0.15758081745E+02  0.25803258187E+03  0.27456052009E+03  0.92449083702E+02 0.  0.
         24    2    1    2    0    0  0.51902118941E+02 -0.16355680982E+03  0.11919639413E+03  0.22375749682E+03  0.80093551694E+02 0.  0.
        -11    1    4    4    0    0  0.44414681065E+02 -0.16359172925E+03  0.12784445452E+03  0.21231844556E+03  0.00000000000E+00 0.  1.
         12    1    4    4    0    0  0.74874378767E+01  0.34919431591E-01 -0.86480603907E+01  0.11439051265E+02  0.00000000000E+00 0. -1.
        -11    1    3    3    0    0 -0.43333702261E+02 -0.33679668775E+01  0.90999714151E+02  0.10084691829E+03  0.00000000000E+00 0. -1.
         11    1    3    3    0    0  0.46075173400E+02 -0.12390114867E+02  0.16703286772E+03  0.17371360180E+03  0.00000000000E+00 0.  1.
         -4    1    1    2    0  502 -0.54643590081E+02  0.17931489157E+03  0.30144890336E+03  0.35498055385E+03  0.00000000000E+00 0.  1.
<scales pt_clust_5="13000.00000" pt_clust_6="13000.00000" pt_clust_7="13000.00000" pt_clust_8="13000.00000" pt_clust_9="182.08253"></scales>
<clustering>
<clus scale="   80.094">  5  6 -1 -1</clus>
<clus scale="   92.449">  7  8 -1 -1</clus>
<clus scale="   93.823">  2  7  1 -1</clus>
<clus scale="  182.083">  1  9  2 -1</clus>
<clus scale="  182.083">  1  5  2 -1</clus>
</clustering>
</event>
<event>
 9    2  0.6190160E-005  0.9409407E+02  0.7546771E-02  0.1296859E+00
          2   -1    0    0  502    0 -0.00000000000E+00  0.00000000000E+00  0.96350568134E+03  0.96350568134E+03  0.00000000000E+00 0. -1.
         21   -1    0    0  501  502  0.00000000000E+00 -0.00000000000E+00 -0.24389924339E+02  0.24389924339E+02  0.00000000000E+00 0.  1.
         24    2    1    2    0    0  0.46288287837E+01 -0.32422585201E+02  0.47098270359E+03  0.47940976893E+03  0.83284868872E+02 0.  0.
         23    2    1    2    0    0  0.15828469614E+02  0.22784039374E+02  0.47550994835E+03  0.48469884025E+03  0.89741862355E+02 0.  0.
        -11    1    3    3    0    0  0.22274857903E+02  0.72280456872E+01  0.40798036146E+02  0.47041404023E+02  0.00000000000E+00 0.  1.
         12    1    3    3    0    0 -0.17646029120E+02 -0.39650630888E+02  0.43018466744E+03  0.43236836491E+03  0.00000000000E+00 0. -1.
        -11    1    4    4    0    0  0.11537765470E+02 -0.34377787806E+02  0.20493554897E+03  0.20811903218E+03  0.00000000000E+00 0.  1.
         11    1    4    4    0    0  0.42907041443E+01  0.57161827180E+02  0.27057439939E+03  0.27657980807E+03  0.00000000000E+00 0. -1.
          1    1    1    2  501    0 -0.20457298398E+02  0.96385458274E+01 -0.73768949361E+01  0.23786996496E+02  0.00000000000E+00 0. -1.
<scales pt_clust_5="13000.00000" pt_clust_6="13000.00000" pt_clust_7="13000.00000" pt_clust_8="13000.00000" pt_clust_9="22.61421"></scales>
<clustering>
<clus scale="   22.614">  2  9  1 -1</clus>
<clus scale="   83.285">  5  6 -1 -1</clus>
<clus scale="   87.957">  1  5  2 -1</clus>
<clus scale="   89.742">  7  8 -1 -1</clus>
<clus scale="   22.614">  2  5  1 -1</clus>
</clustering>
</event>
<event>
 9    2  0.6190160E-005  0.1166339E+03  0.7546771E-02  0.1252635E+00
         21   -1    0    0  501  502  0.00000000000E+00  0.00000000000E+00  0.23336286337E+02  0.23336286337E+02  0.00000000000E+00 0. -1.
          2   -1    0    0  502    0 -0.00000000000E+00 -0.00000000000E+00 -0.76764899659E+03  0.76764899659E+03  0.00000000000E+00 0. -1.
         24    2    1    2    0    0  0.78623186930E+02  0.20272287550E+02 -0.48205893302E+03  0.49549869277E+03  0.80904687582E+02 0.  0.
         23    2    1    2    0    0 -0.50997140290E+02 -0.93428719376E+01 -0.19179886702E+03  0.21902388714E+03  0.92177330042E+02 0.  0.
        -11    1    3    3    0    0  0.47330730985E+02 -0.28692682110E+02 -0.27047415024E+03  0.27607921699E+03  0.00000000000E+00 0.  1.
         12    1    3    3    0    0  0.31292455945E+02  0.48964969660E+02 -0.21158478277E+03  0.21941947578E+03  0.00000000000E+00 0. -1.
        -13    1    4    4    0    0 -0.26986976109E+02  0.20172381843E+02 -0.17361490495E+03  0.17685405591E+03  0.00000000000E+00 0.  1.
         13    1    4    4    0    0 -0.24010164181E+02 -0.29515253781E+02 -0.18183962066E+02  0.42169831233E+02  0.00000000000E+00 0. -1.
          1    1    1    2  501    0 -0.27626046640E+02 -0.10929415612E+02 -0.70454910217E+02  0.76462703014E+02  0.00000000000E+00 0. -1.
<scales pt_clust_5="13000.00000" pt_clust_6="13000.00000" pt_clust_7="13000.00000" pt_clust_8="13000.00000" pt_clust_9="29.70944"></scales>
<clustering>
<clus scale="   29.709">  1  9  2 -1</clus>
<clus scale="   80.905">  5  6 -1 -1</clus>
<clus scale="   92.177">  7  8 -1 -1</clus>
<clus scale="  107.946">  2  5  1 -1</clus>
<clus scale="   29.709">  1  5  2 -1</clus>
</clustering>
</event>
<event>
 9    2  0.6190160E-005  0.9307973E+02  0.7546771E-02  0.1305292E+00
          2   -1    0    0  502    0 -0.00000000000E+00  0.00000000000E+00  0.68010331679E+03  0.68010331679E+03  0.00000000000E+00 0. -1.
         21   -1    0    0  501  502  0.00000000000E+00 -0.00000000000E+00 -0.23753589750E+02  0.23753589750E+02  0.00000000000E+00 0. -1.
         23    2    1    2    0    0 -0.23293879494E+02  0.16379856126E+02  0.27033238503E+03  0.28724649838E+03  0.92844213217E+02 0.  0.
         24    2    1    2    0    0 -0.27982469801E+02  0.29809648715E+02  0.21092157897E+03  0.22840504004E+03  0.77519778556E+02 0.  0.
        -13    1    4    4    0    0  0.35707118774E+01 -0.24530655415E+02  0.61587448048E+02  0.66389131606E+02  0.00000000000E+00 0.  1.
         14    1    4    4    0    0 -0.31553181678E+02  0.54340304130E+02  0.14933413092E+03  0.16201590843E+03  0.00000000000E+00 0. -1.
        -11    1    3    3    0    0  0.27519514496E+02  0.32429252586E+02  0.97178228963E+02  0.10607821777E+03  0.00000000000E+00 0.  1.
         11    1    3    3    0    0 -0.50813393990E+02 -0.16049396460E+02  0.17315415606E+03  0.18116828060E+03  0.00000000000E+00 0. -1.
          1    1    1    2  501    0  0.51276349295E+02 -0.46189504842E+02  0.17509576304E+03  0.18820536812E+03  0.00000000000E+00 0. -1.
<scales pt_clust_5="13000.00000" pt_clust_6="13000.00000" pt_clust_7="13000.00000" pt_clust_8="13000.00000" pt_clust_9="69.01257"></scales>
<clustering>
<clus scale="   69.013">  2  9  1 -1</clus>
<clus scale="   77.520">  5  6 -1 -1</clus>
<clus scale="   77.802">  2  5  1 -1</clus>
<clus scale="   92.844">  7  8 -1 -1</clus>
<clus scale="   69.013">  2  5  1 -1</clus>
</clustering>
</event>
<event>
 9    2  0.6190160E-005  0.9490735E+02  0.7546771E-02  0.1297322E+00
         21   -1    0    0  501  502  0.00000000000E+00  0.00000000000E+00  0.20716274647E+03  0.20716274647E+03  0.00000000000E+00 0.  1.
          2   -1    0    0  502    0 -0.00000000000E+00 -0.00000000000E+00 -0.19799597337E+03  0.19799597337E+03  0.00000000000E+00 0. -1.
         24    2    1    2    0    0  0.22497073707E+02 -0.13764624311E+02 -0.16233545205E+03  0.18308437695E+03  0.80445676607E+02 0.  0.
         23    2    1    2    0    0 -0.37022734307E+02  0.27671300474E+02  0.17414656557E+03  0.20179176431E+03  0.90865318546E+02 0.  0.
        -11    1    3    3    0    0  0.28418789825E+02 -0.30289579231E+02 -0.34342675635E+02  0.53893465233E+02  0.00000000000E+00 0.  1.
         12    1    3    3    0    0 -0.59217161174E+01  0.16524954920E+02 -0.12799277642E+03  0.12919091172E+03  0.00000000000E+00 0. -1.
        -11    1    4    4    0    0 -0.64574968249E+02  0.34906166355E+02  0.12835962304E+03  0.14786669605E+03  0.00000000000E+00 0.  1.
         11    1    4    4    0    0  0.27552233943E+02 -0.72348658809E+01  0.45786942539E+02  0.53925068258E+02  0.00000000000E+00 0. -1.
          1    1    1    2  501    0  0.14525660599E+02 -0.13906676163E+02 -0.26443404215E+01  0.20282578584E+02  0.00000000000E+00 0. -1.
<scales pt_clust_5="13000.00000" pt_clust_6="13000.00000" pt_clust_7="13000.00000" pt_clust_8="13000.00000" pt_clust_9="20.10947"></scales>
<clustering>
<clus scale="   20.109">  1  9  2 -1</clus>
<clus scale="   80.446">  5  6 -1 -1</clus>
<clus scale="   84.985">  2  5  1 -1</clus>
<clus scale="   90.865">  7  8 -1 -1</clus>
<clus scale="   20.109">  1  5  2 -1</clus>
</clustering>
</event>
<event>
 9    2  0.6190160E-005  0.9837609E+02  0.7546771E-02  0.1291387E+00
          2   -1    0    0  502    0 -0.00000000000E+00  0.00000000000E+00  0.46796942876E+03  0.46796942876E+03  0.00000000000E+00 0. -1.
         21   -1    0    0  501  502  0.00000000000E+00 -0.00000000000E+00 -0.26854192491E+02  0.26854192491E+02  0.00000000000E+00 0. -1.
         23    2    1    2    0    0  0.14254805829E+02 -0.20039427042E+02  0.24321382926E+03  0.26228425476E+03  0.95054118392E+02 0.  0.
         24    2    1    2    0    0 -0.30421148082E+02  0.39151667447E+01  0.18898630517E+03  0.20802770738E+03  0.81356798824E+02 0.  0.
        -11    1    4    4    0    0 -0.35490371544E+02 -0.24548070322E+02  0.49912166373E+02  0.65980289337E+02  0.00000000000E+00 0.  1.
         12    1    4    4    0    0  0.50692234623E+01  0.28463237067E+02  0.13907413879E+03  0.14204741804E+03  0.00000000000E+00 0. -1.
        -13    1    3    3    0    0 -0.29341254364E+02 -0.38224619096E+02  0.15362307543E+03  0.16100335406E+03  0.00000000000E+00 0.  1.
         13    1    3    3    0    0  0.43596060193E+02  0.18185192054E+02  0.89590753831E+02  0.10128090070E+03  0.00000000000E+00 0. -1.
          1    1    1    2  501    0  0.16166342253E+02  0.16124260298E+02  0.89151018451E+01  0.24511659122E+02  0.00000000000E+00 0. -1.
<scales pt_clust_5="13000.00000" pt_clust_6="13000.00000" pt_clust_7="13000.00000" pt_clust_8="13000.00000" pt_clust_9="22.83292"></scales>
<clustering>
<clus scale="   22.833">  2  9  1 -1</clus>
<clus scale="   81.357">  5  6 -1 -1</clus>
<clus scale="   85.214">  2  5  1 -1</clus>
<clus scale="   95.054">  7  8 -1 -1</clus>
<clus scale="   22.833">  2  5  1 -1</clus>
</clustering>
</event>
<event>
 9    2  0.6190160E-005  0.1063846E+03  0.7546771E-02  0.1274926E+00
         -1   -1    0    0    0  501 -0.00000000000E+00  0.00000000000E+00  0.59433056642E+02  0.59433056642E+02  0.00000000000E+00 0.  1.
         21   -1    0    0  501  502  0.00000000000E+00 -0.00000000000E+00 -0.46117647915E+03  0.46117647915E+03  0.00000000000E+00 0. -1.
         23    2    1    2    0    0 -0.16372966357E+02 -0.21000915085E+02 -0.31812311370E+02  0.99659620043E+02  0.90614040030E+02 0.  0.
         24    2    1    2    0    0  0.10296038203E+02 -0.57586008350E+02 -0.24968734546E+03  0.27717440749E+03  0.10516522679E+03 0.  0.
        -11    1    4    4    0    0 -0.10687311280E+01 -0.61174490910E+02 -0.55451181445E+02  0.82572961967E+02  0.00000000000E+00 0.  1.
         12    1    4    4    0    0  0.11364769331E+02  0.35884825600E+01 -0.19423616402E+03  0.19460144553E+03  0.00000000000E+00 0. -1.
        -11    1    3    3    0    0 -0.35901855196E+02  0.19642576000E+02 -0.35825326982E+02  0.54389595069E+02  0.00000000000E+00 0. -1.
         11    1    3    3    0    0  0.19528888839E+02 -0.40643491084E+02  0.40130156124E+01  0.45270024974E+02  0.00000000000E+00 0.  1.
         -2    1    1    2    0  502  0.60769281535E+01  0.78586923434E+02 -0.12024376568E+03  0.14377550826E+03  0.00000000000E+00 0.  1.
<scales pt_clust_5="13000.00000" pt_clust_6="13000.00000" pt_clust_7="13000.00000" pt_clust_8="13000.00000" pt_clust_9="78.82153"></scales>
<clustering>
<clus scale="   78.822">  2  9  1 -1</clus>
<clus scale="   90.614">  7  8 -1 -1</clus>
<clus scale="   92.026">  1  7  2 -1</clus>
<clus scale="  105.165">  5  6 -1 -1</clus>
<clus scale="   78.822">  2  5  1 -1</clus>
</clustering>
</event>
<event>
 9    2  0.6190160E-005  0.1603896E+03  0.7546771E-02  0.1189850E+00
         21   -1    0    0  501  502  0.00000000000E+00  0.00000000000E+00  0.10180568867E+03  0.10180568867E+03  0.00000000000E+00 0. -1.
          2   -1    0    0  502    0 -0.00000000000E+00 -0.00000000000E+00 -0.73121117388E+03  0.73121117388E+03  0.00000000000E+00 0. -1.
         24    2    1    2    0    0 -0.12576904670E+03  0.50375466909E+02 -0.59114330677E+03  0.61177006268E+03  0.80353342703E+02 0.  0.
         23    2    1    2    0    0  0.10324342722E+03 -0.61101403799E+02 -0.81741238937E+02  0.17111818571E+03  0.90593689224E+02 0.  0.
        -13    1    3    3    0    0 -0.48371502296E+02  0.40993100256E+02 -0.13671706126E+03  0.15070431760E+03  0.00000000000E+00 0.  1.
         14    1    3    3    0    0 -0.77397544403E+02  0.93823666532E+01 -0.45442624551E+03  0.46106574509E+03  0.00000000000E+00 0. -1.
        -13    1    4    4    0    0  0.10818019439E+03 -0.21355229142E+02 -0.60948106077E+02  0.12599076119E+03  0.00000000000E+00 0.  1.
         13    1    4    4    0    0 -0.49367671685E+01 -0.39746174657E+02 -0.20793132860E+02  0.45127424523E+02  0.00000000000E+00 0. -1.
          1    1    1    2  501    0  0.22525619475E+02  0.10725936890E+02  0.43479060504E+02  0.50128614155E+02  0.00000000000E+00 0. -1.
<scales pt_clust_5="13000.00000" pt_clust_6="13000.00000" pt_clust_7="13000.00000" pt_clust_8="13000.00000" pt_clust_9="24.94893"></scales>
<clustering>
<clus scale="   24.949">  1  9  2 -1</clus>
<clus scale="   80.353">  5  6 -1 -1</clus>
<clus scale="   90.594">  7  8 -1 -1</clus>
<clus scale="  154.836">  2  5  1 -1</clus>
<clus scale="   24.949">  1  5  2 -1</clus>
</clustering>
</event>
<event>
 9    2  0.6190160E-005  0.1549793E+03  0.7546771E-02  0.1196407E+00
         21   -1    0    0  501  502  0.00000000000E+00  0.00000000000E+00  0.32165516301E+03  0.32165516301E+03  0.00000000000E+00 0.  1.
          2   -1    0    0  502    0 -0.00000000000E+00 -0.00000000000E+00 -0.15129382987E+03  0.15129382987E+03  0.00000000000E+00 0. -1.
         23    2    1    2    0    0  0.86487553645E+02 -0.85495479100E+02 -0.32107303181E+02  0.15554409973E+03  0.91506907727E+02 0.  0.
         24    2    1    2    0    0 -0.14388670667E+03  0.41002882238E+02  0.15996857162E+03  0.23325913008E+03  0.80220054557E+02 0.  0.
        -11    1    4    4    0    0 -0.11276804740E+03  0.36439485099E+02  0.16314777472E+03  0.20164737783E+03  0.00000000000E+00 0.  1.
         12    1    4    4    0    0 -0.31118659269E+02  0.45633971392E+01 -0.31792031026E+01  0.31611752253E+02  0.00000000000E+00 0. -1.
        -11    1    3    3    0    0  0.30124423100E+02  0.57918604901E+01  0.19646362148E+02  0.36428094387E+02  0.00000000000E+00 0.  1.
         11    1    3    3    0    0  0.56363130545E+02 -0.91287339590E+02 -0.51753665328E+02  0.11911600534E+03  0.00000000000E+00 0. -1.
          1    1    1    2  501    0  0.57399153022E+02  0.44492596862E+02  0.42500064703E+02  0.84145763071E+02  0.00000000000E+00 0. -1.
<scales pt_clust_5="13000.00000" pt_clust_6="13000.00000" pt_clust_7="13000.00000" pt_clust_8="13000.00000" pt_clust_9="72.62406"></scales>
<clustering>
<clus scale="   72.624">  1  9  2 -1</clus>
<clus scale="   80.220">  5  6 -1 -1</clus>
<clus scale="   91.507">  7  8 -1 -1</clus>
<clus scale="  148.595">  1  5  2 -1</clus>
<clus scale="   72.624">  1  5  2 -1</clus>
</clustering>
</event>
<event>
 9    2  0.6190160E-005  0.1190731E+03  0.7546771E-02  0.1246266E+00
         -1   -1    0    0    0  501 -0.00000000000E+00  0.00000000000E+00  0.43312409461E+03  0.43312409461E+03  0.00000000000E+00 0.  1.
         21   -1    0    0  501  502  0.00000000000E+00 -0.00000000000E+00 -0.27940032787E+03  0.27940032787E+03  0.00000000000E+00 0. -1.
         23    2    1    2    0    0  0.62078806513E+01  0.73885396140E+02  0.37412287188E+03  0.39300450842E+03  0.94799951640E+02 0.  0.
         24    2    1    2    0    0 -0.59930585341E+02 -0.15784501724E+02 -0.21384587767E+03  0.24011722064E+03  0.89918822822E+02 0.  0.
        -11    1    4    4    0    0 -0.24470791013E+01  0.27507447733E+02 -0.22287015792E+02  0.35487447779E+02  0.00000000000E+00 0.  1.
         12    1    4    4    0    0 -0.57483506240E+02 -0.43291949458E+02 -0.19155886188E+03  0.20462977287E+03  0.00000000000E+00 0. -1.
        -11    1    3    3    0    0 -0.31630148754E+02  0.74441460868E+02  0.22297904082E+03  0.23719538371E+03  0.00000000000E+00 0.  1.
         11    1    3    3    0    0  0.37838029405E+02 -0.55606472795E+00  0.15114383106E+03  0.15580912471E+03  0.00000000000E+00 0. -1.
         -2    1    1    2    0  502  0.53722704690E+02 -0.58100894416E+02 -0.65532274665E+01  0.79402693414E+02  0.00000000000E+00 0.  1.
<scales pt_clust_5="13000.00000" pt_clust_6="13000.00000" pt_clust_7="13000.00000" pt_clust_8="13000.00000" pt_clust_9="79.13181"></scales>
<clustering>
<clus scale="   79.132">  2  9  1 -1</clus>
<clus scale="   89.919">  5  6 -1 -1</clus>
<clus scale="   94.800">  7  8 -1 -1</clus>
<clus scale="  115.225">  2  5  1 -1</clus>
<clus scale="   79.132">  2  5  1 -1</clus>
</clustering>
</event>
<event>
 9    2  0.6190160E-005  0.1108289E+03  0.7546771E-02  0.1265190E+00
          4   -1    0    0  502    0 -0.00000000000E+00  0.00000000000E+00  0.18809906746E+03  0.18809906746E+03  0.00000000000E+00 0. -1.
         21   -1    0    0  501  502  0.00000000000E+00 -0.00000000000E+00 -0.11218035247E+03  0.11218035247E+03  0.00000000000E+00 0. -1.
         23    2    1    2    0    0 -0.70738329402E+02  0.23837787966E+01  0.60449621153E+02  0.13327128810E+03  0.95380741690E+02 0.  0.
         24    2    1    2    0    0  0.25903925672E+02 -0.42473976070E+02 -0.20720771322E+02  0.96815154867E+02  0.80428675480E+02 0.  0.
        -11    1    4    4    0    0  0.36650486630E+02 -0.11329766158E+02 -0.42552793121E+02  0.57291901468E+02  0.00000000000E+00 0.  1.
         12    1    4    4    0    0 -0.10746560958E+02 -0.31144209912E+02  0.21832021799E+02  0.39523253399E+02  0.00000000000E+00 0. -1.
        -11    1    3    3    0    0 -0.94901796179E+01 -0.41609706283E+02  0.15076812220E+02  0.45263025008E+02  0.00000000000E+00 0.  1.
         11    1    3    3    0    0 -0.61248149784E+02  0.43993485079E+02  0.45372808933E+02  0.88008263089E+02  0.00000000000E+00 0. -1.
          3    1    1    2  501    0  0.44834403730E+02  0.40090197273E+02  0.36189865158E+02  0.70192976966E+02  0.00000000000E+00 0. -1.
<scales pt_clust_5="13000.00000" pt_clust_6="13000.00000" pt_clust_7="13000.00000" pt_clust_8="13000.00000" pt_clust_9="60.14442"></scales>
<clustering>
<clus scale="   60.144">  2  9  1 -1</clus>
<clus scale="   80.429">  5  6 -1 -1</clus>
<clus scale="   95.381">  7  8 -1 -1</clus>
<clus scale="   98.256">  2  5  1 -1</clus>
<clus scale="   60.144">  2  5  1 -1</clus>
</clustering>
</event>
<event>
 9    2  0.6190160E-005  0.1252464E+03  0.7546771E-02  0.1249363E+00
         -3   -1    0    0    0  501 -0.00000000000E+00  0.00000000000E+00  0.37997046711E+03  0.37997046711E+03  0.00000000000E+00 0.  1.
         21   -1    0    0  501  502  0.00000000000E+00 -0.00000000000E+00 -0.12237976089E+03  0.12237976089E+03  0.00000000000E+00 0.  1.
         23    2    1    2    0    0  0.29239064106E+01 -0.19641373107E+02  0.23556491914E+03  0.25327754918E+03  0.90908487062E+02 0.  0.
         24    2    1    2    0    0  0.99232425796E+02  0.37811877782E+02  0.57474096954E+02  0.13942475990E+03  0.69707814633E+02 0.  0.
        -11    1    4    4    0    0  0.36086147451E+02  0.36151057341E+02 -0.40585505413E+01  0.51240421712E+02  0.00000000000E+00 0.  1.
         12    1    4    4    0    0  0.63146278346E+02  0.16608204407E+01  0.61532647495E+02  0.88184338185E+02  0.00000000000E+00 0. -1.
        -11    1    3    3    0    0 -0.31541010720E+02 -0.36125003951E+02  0.17677712042E+03  0.18316659513E+03  0.00000000000E+00 0.  1.
         11    1    3    3    0    0  0.34464917131E+02  0.16483630844E+02  0.58787798727E+02  0.70110954050E+02  0.00000000000E+00 0. -1.
         -4    1    1    2    0  502 -0.10215633221E+03 -0.18170504675E+02 -0.35448309878E+02  0.10964791892E+03  0.00000000000E+00 0.  1.
<scales pt_clust_5="13000.00000" pt_clust_6="13000.00000" pt_clust_7="13000.00000" pt_clust_8="13000.00000" pt_clust_9="104.05518"></scales>
<clustering>
<clus scale="   69.708">  5  6 -1 -1</clus>
<clus scale="   90.908">  7  8 -1 -1</clus>
<clus scale="   93.052">  1  7  2 -1</clus>
<clus scale="  104.055">  2  9  1 -1</clus>
<clus scale="  104.055">  2  5  1 -1</clus>
</clustering>
</event>
<event>
 9    2  0.6190160E-005  0.1487392E+03  0.7546771E-02  0.1227201E+00
         21   -1    0    0  501  502  0.00000000000E+00  0.00000000000E+00  0.54163678270E+03  0.54163678270E+03  0.00000000000E+00 0. -1.
         -3   -1    0    0    0  501 -0.00000000000E+00 -0.00000000000E+00 -0.58868993001E+02  0.58868993001E+02  0.00000000000E+00 0.  1.
         24    2    1    2    0    0  0.23488272903E+02 -0.57307515800E+02  0.15757449911E+03  0.18011991319E+03  0.61462265078E+02 0.  0.
         23    2    1    2    0    0  0.50053901311E+02 -0.52521427996E+02  0.10105886660E+03  0.16018000496E+03  0.10090017857E+03 0.  0.
        -13    1    3    3    0    0  0.17188842719E+02 -0.45394115503E+02  0.43276780614E+02  0.65030468063E+02  0.00000000000E+00 0.  1.
         14    1    3    3    0    0  0.62994301848E+01 -0.11913400297E+02  0.11429771849E+03  0.11508944513E+03  0.00000000000E+00 0. -1.
        -13    1    4    4    0    0  0.23008460735E+02 -0.54459861232E+02  0.38340264602E+01  0.59244961893E+02  0.00000000000E+00 0. -1.
         13    1    4    4    0    0  0.27045440575E+02  0.19384332351E+01  0.97224840139E+02  0.10093504307E+03  0.00000000000E+00 0.  1.
         -4    1    1    2    0  502 -0.73542174214E+02  0.10982894380E+03  0.22413442400E+03  0.26020585755E+03  0.00000000000E+00 0.  1.
<scales pt_clust_5="13000.00000" pt_clust_6="13000.00000" pt_clust_7="13000.00000" pt_clust_8="13000.00000" pt_clust_9="109.28181"></scales>
<clustering>
<clus scale="   61.462">  5  6 -1 -1</clus>
<clus scale="   87.255">  2  5  1 -1</clus>
<clus scale="  100.900">  7  8 -1 -1</clus>
<clus scale="  109.282">  1  9  2 -1</clus>
<clus scale="  109.282">  1  5  2 -1</clus>
</clustering>
</event>
<event>
 9    2  0.6190160E-005  0.1006094E+03  0.7546771E-02  0.1284751E+00
         -1   -1    0    0    0  501 -0.00000000000E+00  0.00000000000E+00  0.22526112000E+03  0.22526112000E+03  0.00000000000E+00 0.  1.
         21   -1    0    0  501  502  0.00000000000E+00 -0.00000000000E+00 -0.67685995265E+02  0.67685995265E+02  0.00000000000E+00 0. -1.
         24    2    1    2    0    0  0.28678838273E+02  0.92293461243E+01  0.42160882006E+02  0.95899106725E+02  0.80693507203E+02 0.  0.
         23    2    1    2    0    0 -0.53384617723E+02 -0.14408634422E+02  0.35389629062E+02  0.11313651136E+03  0.92140752131E+02 0.  0.
        -13    1    3    3    0    0 -0.11495373542E+02  0.36041436364E+02  0.18993036906E+02  0.42330416948E+02  0.00000000000E+00 0.  1.
         14    1    3    3    0    0  0.40174211815E+02 -0.26812090239E+02  0.23167845099E+02  0.53568689778E+02  0.00000000000E+00 0. -1.
        -13    1    4    4    0    0  0.19619443925E+02 -0.14775435879E+02  0.31614624708E+02  0.40033992815E+02  0.00000000000E+00 0.  1.
         13    1    4    4    0    0 -0.73004061648E+02  0.36680145678E+00  0.37750043545E+01  0.73102518549E+02  0.00000000000E+00 0. -1.
         -2    1    1    2    0  502  0.24705779450E+02  0.51792882974E+01  0.80024613668E+02  0.83911497175E+02  0.00000000000E+00 0.  1.
<scales pt_clust_5="13000.00000" pt_clust_6="13000.00000" pt_clust_7="13000.00000" pt_clust_8="13000.00000" pt_clust_9="25.24284"></scales>
<clustering>
<clus scale="   25.243">  2  9  1 -1</clus>
<clus scale="   80.694">  5  6 -1 -1</clus>
<clus scale="   90.243">  1  5  2 -1</clus>
<clus scale="   92.141">  7  8 -1 -1</clus>
<clus scale="   25.243">  2  5  1 -1</clus>
</clustering>
</event>
<event>
 9    2  0.6190160E-005  0.2063359E+03  0.7546771E-02  0.1145078E+00
         21   -1    0    0  501  502  0.00000000000E+00  0.00000000000E+00  0.76280307893E+02  0.76280307893E+02  0.00000000000E+00 0. -1.
          2   -1    0    0  502    0 -0.00000000000E+00 -0.00000000000E+00 -0.10419966917E+04  0.10419966917E+04  0.00000000000E+00 0. -1.
         24    2    1    2    0    0 -0.14116156888E+03  0.68888333564E+02 -0.43094358901E+03  0.46619528245E+03  0.83387489720E+02 0.  0.
         23    2    1    2    0    0  0.23865127162E+03 -0.94705762325E+02 -0.38086699341E+03  0.46807688713E+03  0.90070498654E+02 0.  0.
        -13    1    3    3    0    0 -0.54118989427E+02  0.38592890743E+02 -0.29195294431E+03  0.29942411046E+03  0.00000000000E+00 0.  1.
         14    1    3    3    0    0 -0.87042579455E+02  0.30295442822E+02 -0.13899064469E+03  0.16677117199E+03  0.00000000000E+00 0. -1.
        -13    1    4    4    0    0  0.99456687121E+02 -0.71121943718E+02 -0.11922737008E+03  0.17077801166E+03  0.00000000000E+00 0. -1.
         13    1    4    4    0    0  0.13919458450E+03 -0.23583818607E+02 -0.26163962334E+03  0.29729887547E+03  0.00000000000E+00 0.  1.
          1    1    1    2  501    0 -0.97489702739E+02  0.25817428760E+02 -0.15390580138E+03  0.18400483001E+03  0.00000000000E+00 0. -1.
<scales pt_clust_5="13000.00000" pt_clust_6="13000.00000" pt_clust_7="13000.00000" pt_clust_8="13000.00000" pt_clust_9="100.85029"></scales>
<clustering>
<clus scale="   83.387">  5  6 -1 -1</clus>
<clus scale="   90.070">  7  8 -1 -1</clus>
<clus scale="  100.850">  1  9  2 -1</clus>
<clus scale="  203.507">  2  5  1 -1</clus>
<clus scale="  100.850">  1  5  2 -1</clus>
</clustering>
</event>
<event>
 9    2  0.6190160E-005  0.1475423E+03  0.7546771E-02  0.1225526E+00
          2   -1    0    0  502    0 -0.00000000000E+00  0.00000000000E+00  0.67471713113E+03  0.67471713113E+03  0.00000000000E+00 0. -1.
         21   -1    0    0  501  502  0.00000000000E+00 -0.00000000000E+00 -0.53616894100E+02  0.53616894100E+02  0.00000000000E+00 0. -1.
         23    2    1    2    0    0  0.18591409375E+01  0.17627805321E+02  0.25323825676E+03  0.26962411096E+03  0.90847953194E+02 0.  0.
         24    2    1    2    0    0 -0.10325246962E+03  0.61268119606E+02  0.17314703429E+03  0.22543093052E+03  0.80152067907E+02 0.  0.
        -11    1    4    4    0    0 -0.40431174067E+02  0.55883661842E+02  0.44279591947E+02  0.81965515678E+02  0.00000000000E+00 0.  1.
         12    1    4    4    0    0 -0.62821295550E+02  0.53844577643E+01  0.12886744234E+03  0.14346541484E+03  0.00000000000E+00 0. -1.
        -11    1    3    3    0    0 -0.14134683240E+02  0.51360530880E+02  0.12078449208E+03  0.13200979861E+03  0.00000000000E+00 0. -1.
         11    1    3    3    0    0  0.15993824178E+02 -0.33732725559E+02  0.13245376468E+03  0.13761431235E+03  0.00000000000E+00 0.  1.
          1    1    1    2  501    0  0.10139332868E+03 -0.78895924928E+02  0.19471494598E+03  0.23327898375E+03  0.00000000000E+00 0. -1.
<scales pt_clust_5="13000.00000" pt_clust_6="13000.00000" pt_clust_7="13000.00000" pt_clust_8="13000.00000" pt_clust_9="123.87246"></scales>
<clustering>
<clus scale="   80.152">  5  6 -1 -1</clus>
<clus scale="   90.848">  7  8 -1 -1</clus>
<clus scale="   92.561">  1  7  2 -1</clus>
<clus scale="  123.872">  2  9  1 -1</clus>
<clus scale="  123.872">  2  5  1 -1</clus>
</clustering>
</event>
<event>
 9    2  0.6190160E-005  0.1015282E+03  0.7546771E-02  0.1282357E+00
         21   -1    0    0  501  502  0.00000000000E+00  0.00000000000E+00  0.10292386420E+03  0.10292386420E+03  0.00000000000E+00 0. -1.
          4   -1    0    0  502    0 -0.00000000000E+00 -0.00000000000E+00 -0.54986233886E+03  0.54986233886E+03  0.00000000000E+00 0. -1.
         23    2    1    2    0    0 -0.28693613080E+02  0.26586062835E+02 -0.40369405308E+03  0.41574649313E+03  0.91357079035E+02 0.  0.
         24    2    1    2    0    0  0.11596224543E+02 -0.74242250103E+02 -0.10840059565E+03  0.15452449982E+03  0.80503091768E+02 0.  0.
        -11    1    4    4    0    0 -0.27761374083E+02 -0.42015847490E+02 -0.23547970688E+02  0.55592555751E+02  0.00000000000E+00 0.  1.
         12    1    4    4    0    0  0.39357598626E+02 -0.32226402613E+02 -0.84852624964E+02  0.98931944074E+02  0.00000000000E+00 0. -1.
        -13    1    3    3    0    0  0.74867847216E+01 -0.30664498639E+02 -0.13667868643E+03  0.14027625155E+03  0.00000000000E+00 0.  1.
         13    1    3    3    0    0 -0.36180397801E+02  0.57250561474E+02 -0.26701536665E+03  0.27547024159E+03  0.00000000000E+00 0. -1.
          3    1    1    2  501    0  0.17097388537E+02  0.47656187268E+02  0.65156174073E+02  0.82515210110E+02  0.00000000000E+00 0. -1.
<scales pt_clust_5="13000.00000" pt_clust_6="13000.00000" pt_clust_7="13000.00000" pt_clust_8="13000.00000" pt_clust_9="50.63036"></scales>
<clustering>
<clus scale="   50.630">  1  9  2 -1</clus>
<clus scale="   80.503">  5  6 -1 -1</clus>
<clus scale="   91.357">  7  8 -1 -1</clus>
<clus scale="   91.884">  1  5  2 -1</clus>
<clus scale="   50.630">  1  5  2 -1</clus>
</clustering>
</event>
<event>
 9    2  0.6190160E-005  0.1072018E+03  0.7546771E-02  0.1270044E+00
         21   -1    0    0  501  502  0.00000000000E+00  0.00000000000E+00  0.54926162793E+03  0.54926162793E+03  0.00000000000E+00 0. -1.
          2   -1    0    0  502    0 -0.00000000000E+00 -0.00000000000E+00 -0.36428068741E+02  0.36428068741E+02  0.00000000000E+00 0. -1.
         23    2    1    2    0    0  0.36863536276E+02 -0.64771753324E+02  0.22116045131E+03  0.24870593383E+03  0.85955779118E+02 0.  0.
         24    2    1    2    0    0  0.22415819119E+02  0.62378788912E+02  0.23247137104E+03  0.25317079308E+03  0.75225859012E+02 0.  0.
        -11    1    4    4    0    0  0.50337073743E+02  0.37844323386E+02  0.15202456949E+03  0.16455237323E+03  0.00000000000E+00 0.  1.
         12    1    4    4    0    0 -0.27921254623E+02  0.24534465527E+02  0.80446801546E+02  0.88618419854E+02  0.00000000000E+00 0. -1.
        -11    1    3    3    0    0 -0.26110307100E+02 -0.36011092754E+02  0.90290778199E+02  0.10065272756E+03  0.00000000000E+00 0.  1.
         11    1    3    3    0    0  0.62973843376E+02 -0.28760660570E+02  0.13086967311E+03  0.14805320627E+03  0.00000000000E+00 0. -1.
          1    1    1    2  501    0 -0.59279355396E+02  0.23929644113E+01  0.59201736841E+02  0.83812969759E+02  0.00000000000E+00 0. -1.
<scales pt_clust_5="13000.00000" pt_clust_6="13000.00000" pt_clust_7="13000.00000" pt_clust_8="13000.00000" pt_clust_9="59.32766"></scales>
<clustering>
<clus scale="   59.328">  1  9  2 -1</clus>
<clus scale="   75.226">  5  6 -1 -1</clus>
<clus scale="   85.956">  7  8 -1 -1</clus>
<clus scale="   98.807">  1  5  2 -1</clus>
<clus scale="   59.328">  1  5  2 -1</clus>
</clustering>
</event>
<event>
 9    2  0.6190160E-005  0.1375129E+03  0.7546771E-02  0.1235490E+00
          2   -1    0    0  502    0 -0.00000000000E+00  0.00000000000E+00  0.74383498325E+03  0.74383498325E+03  0.00000000000E+00 0. -1.
         21   -1    0    0  501  502  0.00000000000E+00 -0.00000000000E+00 -0.42776704561E+02  0.42776704561E+02  0.00000000000E+00 0. -1.
         24    2    1    2    0    0 -0.44956334256E+02  0.11099927326E+02  0.16677795945E+03  0.19099582325E+03  0.80747980567E+02 0.  0.
         23    2    1    2    0    0 -0.48323551960E+02 -0.72217015113E+02  0.40962759562E+03  0.42835936364E+03  0.90258043309E+02 0.  0.
        -11    1    3    3    0    0  0.17809527570E+02 -0.10537869542E+02  0.15705093640E+02  0.25978374333E+02  0.00000000000E+00 0.  1.
         12    1    3    3    0    0 -0.62765861826E+02  0.21637796868E+02  0.15107286581E+03  0.16501744892E+03  0.00000000000E+00 0. -1.
        -13    1    4    4    0    0 -0.25010246586E+02 -0.91534168863E+02  0.31842165469E+03  0.33225948697E+03  0.00000000000E+00 0. -1.
         13    1    4    4    0    0 -0.23313305374E+02  0.19317153750E+02  0.91205940926E+02  0.96099876674E+02  0.00000000000E+00 0.  1.
          1    1    1    2  501    0  0.93279886216E+02  0.61117087788E+02  0.12465272362E+03  0.16725650091E+03  0.00000000000E+00 0. -1.
<scales pt_clust_5="13000.00000" pt_clust_6="13000.00000" pt_clust_7="13000.00000" pt_clust_8="13000.00000" pt_clust_9="103.74626"></scales>
<clustering>
<clus scale="   80.748">  5  6 -1 -1</clus>
<clus scale="   90.258">  7  8 -1 -1</clus>
<clus scale="   93.083">  1  5  2 -1</clus>
<clus scale="  103.746">  2  9  1 -1</clus>
<clus scale="  103.746">  2  5  1 -1</clus>
</clustering>
</event>
<event>
 9    2  0.6190160E-005  0.1022115E+03  0.7546771E-02  0.1281695E+00
         21   -1    0    0  501  502  0.00000000000E+00  0.00000000000E+00  0.21768644964E+03  0.21768644964E+03  0.00000000000E+00 0.  1.
         -3   -1    0    0    0  501 -0.00000000000E+00 -0.00000000000E+00 -0.15516898726E+03  0.15516898726E+03  0.00000000000E+00 0.  1.
         24    2    1    2    0    0  0.16589749111E+02 -0.40468554555E+02 -0.82224276488E+02  0.12192666482E+03  0.78691526019E+02 0.  0.
         23    2    1    2    0    0 -0.40482842174E+02  0.57418555642E+02  0.17456586823E+03  0.20912373500E+03  0.91234550170E+02 0.  0.
        -11    1    3    3    0    0  0.36896872780E+02  0.76688666500E+01 -0.37282888933E+02  0.53011362403E+02  0.00000000000E+00 0.  1.
         12    1    3    3    0    0 -0.20307123670E+02 -0.48137421205E+02 -0.44941387556E+02  0.68915302419E+02  0.00000000000E+00 0. -1.
        -11    1    4    4    0    0 -0.27991260748E+02  0.75053886642E+02  0.16866667907E+03  0.18672183912E+03  0.00000000000E+00 0.  1.
         11    1    4    4    0    0 -0.12491581426E+02 -0.17635330999E+02  0.58991891678E+01  0.22401895875E+02  0.00000000000E+00 0. -1.
         -4    1    1    2    0  502  0.23893093063E+02 -0.16950001087E+02 -0.29824129370E+02  0.41805037085E+02  0.00000000000E+00 0.  1.
<scales pt_clust_5="13000.00000" pt_clust_6="13000.00000" pt_clust_7="13000.00000" pt_clust_8="13000.00000" pt_clust_9="29.29477"></scales>
<clustering>
<clus scale="   29.295">  1  9  2 -1</clus>
<clus scale="   78.692">  5  6 -1 -1</clus>
<clus scale="   91.191">  2  5  1 -1</clus>
<clus scale="   91.235">  7  8 -1 -1</clus>
<clus scale="   29.295">  1  5  2 -1</clus>
</clustering>
</event>
<event>
 9    2  0.6190160E-005  0.1078199E+03  0.7546771E-02  0.1269264E+00
         -1   -1    0    0    0  501 -0.00000000000E+00  0.00000000000E+00  0.20750385747E+03  0.20750385747E+03  0.00000000000E+00 0.  1.
         21   -1    0    0  501  502  0.00000000000E+00 -0.00000000000E+00 -0.76098043227E+02  0.76098043227E+02  0.00000000000E+00 0.  1.
         23    2    1    2    0    0 -0.63224961474E+01 -0.61346308609E+02  0.73397430871E+02  0.13175620122E+03  0.90383461784E+02 0.  0.
         24    2    1    2    0    0 -0.13108248621E+02  0.54810568410E+02  0.76387756821E+01  0.97464019464E+02  0.79150866103E+02 0.  0.
        -11    1    4    4    0    0 -0.97078566240E+01  0.51079090121E+02 -0.29637602899E+02  0.59847334389E+02  0.00000000000E+00 0.  1.
         12    1    4    4    0    0 -0.34003919966E+01  0.37314782886E+01  0.37276378581E+02  0.37616685076E+02  0.00000000000E+00 0. -1.
        -13    1    3    3    0    0  0.24716180876E+02  0.11822791832E+02  0.32047983138E+02  0.42163268695E+02  0.00000000000E+00 0. -1.
         13    1    3    3    0    0 -0.31038677023E+02 -0.73169100441E+02  0.41349447733E+02  0.89592932526E+02  0.00000000000E+00 0.  1.
         -2    1    1    2    0  502  0.19430744768E+02  0.65357401994E+01  0.50369607687E+02  0.54381680011E+02  0.00000000000E+00 0.  1.
<scales pt_clust_5="13000.00000" pt_clust_6="13000.00000" pt_clust_7="13000.00000" pt_clust_8="13000.00000" pt_clust_9="20.50049"></scales>
<clustering>
<clus scale="   20.500">  2  9  1 -1</clus>
<clus scale="   79.151">  5  6 -1 -1</clus>
<clus scale="   90.383">  7  8 -1 -1</clus>
<clus scale="   98.594">  2  5  1 -1</clus>
<clus scale="   20.500">  2  5  1 -1</clus>
</clustering>
</event>
<event>
 9    2  0.6190160E-005  0.9389315E+02  0.7546771E-02  0.1300584E+00
          2   -1    0    0  502    0 -0.00000000000E+00  0.00000000000E+00  0.47959844063E+03  0.47959844063E+03  0.00000000000E+00 0. -1.
         21   -1    0    0  501  502  0.00000000000E+00 -0.00000000000E+00 -0.18920471474E+03  0.18920471474E+03  0.00000000000E+00 0.  1.
         23    2    1    2    0    0  0.10942410649E+02  0.23074643607E+02  0.45034263712E+03  0.46001182815E+03  0.90278545061E+02 0.  0.
         24    2    1    2    0    0 -0.38966057500E+02 -0.19808477090E+02 -0.15637519112E+03  0.18035254908E+03  0.78505491288E+02 0.  0.
        -13    1    4    4    0    0 -0.54030580073E+02  0.72309452068E+01 -0.12455317095E+03  0.13595985637E+03  0.00000000000E+00 0.  1.
         14    1    4    4    0    0  0.15064522573E+02 -0.27039422297E+02 -0.31822020168E+02  0.44392692710E+02  0.00000000000E+00 0. -1.
        -13    1    3    3    0    0 -0.38536453839E+02  0.15975467952E+02  0.15735662278E+03  0.16279244633E+03  0.00000000000E+00 0.  1.
         13    1    3    3    0    0  0.49478864489E+02  0.70991756548E+01  0.29298601435E+03  0.29721938182E+03  0.00000000000E+00 0. -1.
          1    1    1    2  501    0  0.28023646851E+02 -0.32661665167E+01 -0.35737201124E+01  0.28438778138E+02  0.00000000000E+00 0. -1.
<scales pt_clust_5="13000.00000" pt_clust_6="13000.00000" pt_clust_7="13000.00000" pt_clust_8="13000.00000" pt_clust_9="28.21334"></scales>
<clustering>
<clus scale="   28.213">  2  9  1 -1</clus>
<clus scale="   78.505">  5  6 -1 -1</clus>
<clus scale="   82.637">  2  5  1 -1</clus>
<clus scale="   90.279">  7  8 -1 -1</clus>
<clus scale="   28.213">  2  5  1 -1</clus>
</clustering>
</event>
<event>
 9    2  0.6190160E-005  0.1205491E+03  0.7546771E-02  0.1245353E+00
         -1   -1    0    0    0  501 -0.00000000000E+00  0.00000000000E+00  0.27671663955E+03  0.27671663955E+03  0.00000000000E+00 0.  1.
         21   -1    0    0  501  502  0.00000000000E+00 -0.00000000000E+00 -0.15631571637E+03  0.15631571637E+03  0.00000000000E+00 0.  1.
         24    2    1    2    0    0  0.34725804214E+02  0.76468002583E+02  0.22794165341E+03  0.25596663387E+03  0.80673932585E+02 0.  0.
         23    2    1    2    0    0 -0.20693003801E+02 -0.42762000005E+02 -0.66706747174E+02  0.12228955689E+03  0.90819362223E+02 0.  0.
        -13    1    3    3    0    0 -0.40389811729E+01  0.68286746107E+02  0.18642705253E+03  0.19858106400E+03  0.00000000000E+00 0.  1.
         14    1    3    3    0    0  0.38764785387E+02  0.81812564757E+01  0.41514600878E+02  0.57385569873E+02  0.00000000000E+00 0. -1.
        -13    1    4    4    0    0  0.21828419100E+02 -0.51246969314E+02 -0.52810961095E+02  0.76757601291E+02  0.00000000000E+00 0.  1.
         13    1    4    4    0    0 -0.42521422901E+02  0.84849693086E+01 -0.13895786079E+02  0.45531955597E+02  0.00000000000E+00 0. -1.
         -2    1    1    2    0  502 -0.14032800413E+02 -0.33706002577E+02 -0.40833983061E+02  0.54776165161E+02  0.00000000000E+00 0.  1.
<scales pt_clust_5="13000.00000" pt_clust_6="13000.00000" pt_clust_7="13000.00000" pt_clust_8="13000.00000" pt_clust_9="36.51047"></scales>
<clustering>
<clus scale="   36.510">  2  9  1 -1</clus>
<clus scale="   80.674">  5  6 -1 -1</clus>
<clus scale="   90.819">  7  8 -1 -1</clus>
<clus scale="  113.103">  1  5  2 -1</clus>
<clus scale="   36.510">  2  5  1 -1</clus>
</clustering>
</event>
<event>
 9    2  0.6190160E-005  0.1183785E+03  0.7546771E-02  0.1250496E+00
         -1   -1    0    0    0  501 -0.00000000000E+00  0.00000000000E+00  0.55425679711E+03  0.55425679711E+03  0.00000000000E+00 0.  1.
         21   -1    0    0  501  502  0.00000000000E+00 -0.00000000000E+00 -0.54104689794E+02  0.54104689794E+02  0.00000000000E+00 0.  1.
         23    2    1    2    0    0  0.46208199185E+02  0.36123282156E+02  0.43339699339E+03  0.44656765738E+03  0.90275298680E+02 0.  0.
         24    2    1    2    0    0 -0.62181158349E+02 -0.16005483432E+02  0.60189589321E+02  0.13528029782E+03  0.10273899144E+03 0.  0.
        -13    1    4    4    0    0 -0.61547559083E+02  0.34425358061E+02  0.38877493818E+02  0.80527429068E+02  0.00000000000E+00 0.  1.
         14    1    4    4    0    0 -0.63359926617E+00 -0.50430841493E+02  0.21312095502E+02  0.54752868751E+02  0.00000000000E+00 0. -1.
        -13    1    3    3    0    0  0.62894664313E+02  0.51987393687E+02  0.37543281830E+03  0.38419816366E+03  0.00000000000E+00 0.  1.
         13    1    3    3    0    0 -0.16686465129E+02 -0.15864111531E+02  0.57964175089E+02  0.62369493720E+02  0.00000000000E+00 0. -1.
         -2    1    1    2    0  502  0.15972959165E+02 -0.20117798724E+02  0.65655246015E+01  0.26513531702E+02  0.00000000000E+00 0.  1.
<scales pt_clust_5="13000.00000" pt_clust_6="13000.00000" pt_clust_7="13000.00000" pt_clust_8="13000.00000" pt_clust_9="25.68776"></scales>
<clustering>
<clus scale="   25.688">  2  9  1 -1</clus>
<clus scale="   90.275">  7  8 -1 -1</clus>
<clus scale="  102.739">  5  6 -1 -1</clus>
<clus scale="  107.740">  1  7  2 -1</clus>
<clus scale="   25.688">  2  5  1 -1</clus>
</clustering>
</event>
<event>
 9    2  0.6190160E-005  0.9587145E+02  0.7546771E-02  0.1297007E+00
         -1   -1    0    0    0  501 -0.00000000000E+00  0.00000000000E+00  0.89554281277E+02  0.89554281277E+02  0.00000000000E+00 0.  1.
         21   -1    0    0  501  502  0.00000000000E+00 -0.00000000000E+00 -0.25014453696E+03  0.25014453696E+03  0.00000000000E+00 0. -1.
         24    2    1    2    0    0 -0.39747047459E+01  0.26133132802E+02  0.42339893132E+02  0.93023495245E+02  0.78498186026E+02 0.  0.
         23    2    1    2    0    0 -0.31886261647E+02 -0.31058815706E+02 -0.16594900548E+03  0.19492712278E+03  0.92065884348E+02 0.  0.
        -11    1    3    3    0    0 -0.39163808925E+02  0.90874246334E+01  0.34862994088E+02  0.53214787163E+02  0.00000000000E+00 0.  1.
         12    1    3    3    0    0  0.35189104179E+02  0.17045708169E+02  0.74768990439E+01  0.39808708082E+02  0.00000000000E+00 0. -1.
        -11    1    4    4    0    0 -0.10325937678E+02  0.24661461885E+02 -0.11094236883E+02  0.28946412269E+02  0.00000000000E+00 0.  1.
         11    1    4    4    0    0 -0.21560323969E+02 -0.55720277591E+02 -0.15485476860E+03  0.16598071051E+03  0.00000000000E+00 0. -1.
         -2    1    1    2    0  502  0.35860966393E+02  0.49256829041E+01 -0.36981143336E+02  0.51748200212E+02  0.00000000000E+00 0.  1.
<scales pt_clust_5="13000.00000" pt_clust_6="13000.00000" pt_clust_7="13000.00000" pt_clust_8="13000.00000" pt_clust_9="36.19767"></scales>
<clustering>
<clus scale="   36.198">  2  9  1 -1</clus>
<clus scale="   78.498">  5  6 -1 -1</clus>
<clus scale="   82.929">  1  5  2 -1</clus>
<clus scale="   92.066">  7  8 -1 -1</clus>
<clus scale="   36.198">  2  5  1 -1</clus>
</clustering>
</event>
<event>
 9    2  0.6190160E-005  0.1663429E+03  0.7546771E-02  0.1183385E+00
         21   -1    0    0  501  502  0.00000000000E+00  0.00000000000E+00  0.77419874993E+02  0.77419874993E+02  0.00000000000E+00 0. -1.
          2   -1    0    0  502    0 -0.00000000000E+00 -0.00000000000E+00 -0.60179092665E+03  0.60179092665E+03  0.00000000000E+00 0. -1.
         23    2    1    2    0    0  0.10975226326E+03 -0.10755616500E+03 -0.36304187222E+03  0.40393642546E+03  0.88041733876E+02 0.  0.
         24    2    1    2    0    0 -0.58649260220E+02  0.91616582032E+02 -0.16585715338E+03  0.22155203658E+03  0.98708539427E+02 0.  0.
        -11    1    4    4    0    0 -0.71533163058E+02  0.25512119327E+02 -0.11198135944E+03  0.13530589976E+03  0.00000000000E+00 0.  1.
         12    1    4    4    0    0  0.12883902838E+02  0.66104462705E+02 -0.53875793943E+02  0.86246136811E+02  0.00000000000E+00 0. -1.
        -13    1    3    3    0    0  0.32807526457E+02  0.11517167001E+02 -0.59396587358E+02  0.68825384254E+02  0.00000000000E+00 0.  1.
         13    1    3    3    0    0  0.76944736801E+02 -0.11907333200E+03 -0.30364528487E+03  0.33511104120E+03  0.00000000000E+00 0. -1.
          1    1    1    2  501    0 -0.51103003037E+02  0.15939582966E+02  0.45279739530E+01  0.53722339605E+02  0.00000000000E+00 0. -1.
<scales pt_clust_5="13000.00000" pt_clust_6="13000.00000" pt_clust_7="13000.00000" pt_clust_8="13000.00000" pt_clust_9="53.53118"></scales>
<clustering>
<clus scale="   53.531">  1  9  2 -1</clus>
<clus scale="   88.042">  7  8 -1 -1</clus>
<clus scale="   98.709">  5  6 -1 -1</clus>
<clus scale="  160.243">  2  7  1 -1</clus>
<clus scale="   53.531">  1  5  2 -1</clus>
</clustering>
</event>
<event>
 9    2  0.6190160E-005  0.1056750E+03  0.7546771E-02  0.1275228E+00
         21   -1    0    0  501  502  0.00000000000E+00  0.00000000000E+00  0.15529403314E+03  0.15529403314E+03  0.00000000000E+00 0.  1.
         -1   -1    0    0    0  501 -0.00000000000E+00 -0.00000000000E+00 -0.19964969319E+03  0.19964969319E+03  0.00000000000E+00 0.  1.
         23    2    1    2    0    0  0.40522500427E+02  0.37562128855E+02 -0.23979038022E+02  0.11210534733E+03  0.94549606405E+02 0.  0.
         24    2    1    2    0    0  0.78771756720E+01 -0.43096605652E+02  0.86081752592E+02  0.12576342606E+03  0.80541938702E+02 0.  0.
        -11    1    4    4    0    0  0.63272931392E+00 -0.62956987908E+02  0.38760855484E+02  0.73935015999E+02  0.00000000000E+00 0.  1.
         12    1    4    4    0    0  0.72444463581E+01  0.19860382257E+02  0.47320897108E+02  0.51828410061E+02  0.00000000000E+00 0. -1.
        -11    1    3    3    0    0  0.24394986622E+02  0.67518569406E+02 -0.29542953820E+02  0.77631557419E+02  0.00000000000E+00 0.  1.
         11    1    3    3    0    0  0.16127513805E+02 -0.29956440551E+02  0.55639157986E+01  0.34473789914E+02  0.00000000000E+00 0. -1.
         -2    1    1    2    0  502 -0.48399676099E+02  0.55344767966E+01 -0.10645837461E+03  0.11707495294E+03  0.00000000000E+00 0.  1.
<scales pt_clust_5="13000.00000" pt_clust_6="13000.00000" pt_clust_7="13000.00000" pt_clust_8="13000.00000" pt_clust_9="48.71510"></scales>
<clustering>
<clus scale="   48.715">  1  9  2 -1</clus>
<clus scale="   80.542">  5  6 -1 -1</clus>
<clus scale="   93.352">  1  5  2 -1</clus>
<clus scale="   94.550">  7  8 -1 -1</clus>
<clus scale="   48.715">  1  5  2 -1</clus>
</clustering>
</event>
<event>
 9    2  0.6190160E-005  0.9052355E+02  0.7546771E-02  0.1306697E+00
         21   -1    0    0  501  502  0.00000000000E+00  0.00000000000E+00  0.11685767657E+03  0.11685767657E+03  0.00000000000E+00 0.  1.
          2   -1    0    0  502    0 -0.00000000000E+00 -0.00000000000E+00 -0.10580093436E+03  0.10580093436E+03  0.00000000000E+00 0. -1.
         24    2    1    2    0    0 -0.24262500875E+02 -0.13276290410E+01 -0.23998041813E+02  0.86455978209E+02  0.79424798456E+02 0.  0.
         23    2    1    2    0    0  0.12382017145E+02  0.21760669281E+02  0.53865119359E+02  0.10599528689E+03  0.87787861821E+02 0.  0.
        -11    1    3    3    0    0 -0.19214100573E+02  0.34942206631E+02 -0.29260557421E+02  0.49460283922E+02  0.00000000000E+00 0.  1.
         12    1    3    3    0    0 -0.50484003016E+01 -0.36269835672E+02  0.52625156083E+01  0.36995694287E+02  0.00000000000E+00 0. -1.
        -13    1    4    4    0    0 -0.13278135993E+02  0.32402723951E+02 -0.99432828355E+01  0.36402119285E+02  0.00000000000E+00 0. -1.
         13    1    4    4    0    0  0.25660153138E+02 -0.10642054670E+02  0.63808402194E+02  0.69593167605E+02  0.00000000000E+00 0.  1.
          1    1    1    2  501    0  0.11880483729E+02 -0.20433040240E+02 -0.18810335331E+02  0.30207345834E+02  0.00000000000E+00 0. -1.
<scales pt_clust_5="13000.00000" pt_clust_6="13000.00000" pt_clust_7="13000.00000" pt_clust_8="13000.00000" pt_clust_9="23.63590"></scales>
<clustering>
<clus scale="   23.636">  1  9  2 -1</clus>
<clus scale="   79.425">  5  6 -1 -1</clus>
<clus scale="   82.438">  2  5  1 -1</clus>
<clus scale="   87.788">  7  8 -1 -1</clus>
<clus scale="   23.636">  1  5  2 -1</clus>
</clustering>
</event>
<event>
 9    2  0.6190160E-005  0.1023383E+03  0.7546771E-02  0.1283081E+00
          2   -1    0    0  502    0 -0.00000000000E+00  0.00000000000E+00  0.11446088698E+03  0.11446088698E+03  0.00000000000E+00 0. -1.
         21   -1    0    0  501  502  0.00000000000E+00 -0.00000000000E+00 -0.15529063923E+03  0.15529063923E+03  0.00000000000E+00 0.  1.
         24    2    1    2    0    0  0.27972097375E+02 -0.94300226547E+01  0.26207771587E+02  0.89589683822E+02  0.80424502466E+02 0.  0.
         23    2    1    2    0    0 -0.42398702463E+02  0.26458086039E+02  0.18465908102E+01  0.10775256724E+03  0.95443834590E+02 0.  0.
        -11    1    3    3    0    0 -0.72723402583E+01 -0.32636529250E+02 -0.90060176995E+01  0.34628576770E+02  0.00000000000E+00 0.  1.
         12    1    3    3    0    0  0.35244437633E+02  0.23206506595E+02  0.35213789287E+02  0.54961107052E+02  0.00000000000E+00 0. -1.
        -13    1    4    4    0    0  0.20628571743E+02 -0.20344625576E+02  0.38172188487E+01  0.29223499478E+02  0.00000000000E+00 0. -1.
         13    1    4    4    0    0 -0.63027274207E+02  0.46802711615E+02 -0.19706280385E+01  0.78529067760E+02  0.00000000000E+00 0.  1.
          1    1    1    2  501    0  0.14426605088E+02 -0.17028063384E+02 -0.68884114642E+02  0.72409275145E+02  0.00000000000E+00 0. -1.
<scales pt_clust_5="13000.00000" pt_clust_6="13000.00000" pt_clust_7="13000.00000" pt_clust_8="13000.00000" pt_clust_9="22.31775"></scales>
<clustering>
<clus scale="   22.318">  2  9  1 -1</clus>
<clus scale="   80.425">  5  6 -1 -1</clus>
<clus scale="   88.497">  1  5  2 -1</clus>
<clus scale="   95.444">  7  8 -1 -1</clus>
<clus scale="   22.318">  2  5  1 -1</clus>
</clustering>
</event>
<event>
 9    2  0.6190160E-005  0.1199001E+03  0.7546771E-02  0.1246227E+00
         -3   -1    0    0    0  501 -0.00000000000E+00  0.00000000000E+00  0.23553180851E+03  0.23553180851E+03  0.00000000000E+00 0.  1.
         21   -1    0    0  501  502  0.00000000000E+00 -0.00000000000E+00 -0.50201814143E+03  0.50201814143E+03  0.00000000000E+00 0.  1.
         23    2    1    2    0    0  0.63316173419E+02 -0.40270176449E+02  0.18806711133E+03  0.22187947652E+03  0.90722868169E+02 0.  0.
         24    2    1    2    0    0 -0.11842181420E+03  0.29897390350E+02 -0.16527683528E+03  0.22100934120E+03  0.81308773141E+02 0.  0.
        -13    1    4    4    0    0 -0.23907087382E+02  0.21999702378E+01  0.47908917780E+01  0.24481448899E+02  0.00000000000E+00 0.  1.
         14    1    4    4    0    0 -0.94514726820E+02  0.27697420112E+02 -0.17006772705E+03  0.19652789230E+03  0.00000000000E+00 0. -1.
        -11    1    3    3    0    0  0.21164883587E+02 -0.64864898974E+02  0.12138419684E+03  0.13924629495E+03  0.00000000000E+00 0.  1.
         11    1    3    3    0    0  0.42151289832E+02  0.24594722525E+02  0.66682914496E+02  0.82633181569E+02  0.00000000000E+00 0. -1.
         -4    1    1    2    0  502  0.55105640784E+02  0.10372786099E+02 -0.28927660898E+03  0.29466113222E+03  0.00000000000E+00 0.  1.
<scales pt_clust_5="13000.00000" pt_clust_6="13000.00000" pt_clust_7="13000.00000" pt_clust_8="13000.00000" pt_clust_9="56.07340"></scales>
<clustering>
<clus scale="   56.073">  2  9  1 -1</clus>
<clus scale="   81.309">  5  6 -1 -1</clus>
<clus scale="   90.723">  7  8 -1 -1</clus>
<clus scale="  112.945">  2  5  1 -1</clus>
<clus scale="   56.073">  2  5  1 -1</clus>
</clustering>
</event>
<event>
 9    2  0.6190160E-005  0.9787369E+02  0.7546771E-02  0.1293548E+00
         21   -1    0    0  501  502  0.00000000000E+00  0.00000000000E+00  0.39864980978E+02  0.39864980978E+02  0.00000000000E+00 0. -1.
         -3   -1    0    0    0  501 -0.00000000000E+00 -0.00000000000E+00 -0.52503858733E+03  0.52503858733E+03  0.00000000000E+00 0.  1.
         24    2    1    2    0    0 -0.19737426558E+02 -0.24939350082E+02 -0.15586626741E+03  0.17776423983E+03  0.79336589643E+02 0.  0.
         23    2    1    2    0    0  0.31164250644E+02 -0.29187675094E+02 -0.78213405679E+02  0.13002365318E+03  0.94687288811E+02 0.  0.
        -11    1    3    3    0    0 -0.39329142099E+02 -0.41251443554E+02 -0.12729870588E+03  0.13947553023E+03  0.00000000000E+00 0.  1.
         12    1    3    3    0    0  0.19591715540E+02  0.16312093471E+02 -0.28567561531E+02  0.38288709603E+02  0.00000000000E+00 0. -1.
        -11    1    4    4    0    0  0.36598288589E+02 -0.53177744912E+02 -0.82811010560E+02  0.10499986072E+03  0.00000000000E+00 0. -1.
         11    1    4    4    0    0 -0.54340379454E+01  0.23990069818E+02  0.45976048811E+01  0.25023792457E+02  0.00000000000E+00 0.  1.
         -4    1    1    2    0  502 -0.11426824086E+02  0.54127025176E+02 -0.25109393327E+03  0.25711567530E+03  0.00000000000E+00 0.  1.
<scales pt_clust_5="13000.00000" pt_clust_6="13000.00000" pt_clust_7="13000.00000" pt_clust_8="13000.00000" pt_clust_9="55.32007"></scales>
<clustering>
<clus scale="   55.320">  1  9  2 -1</clus>
<clus scale="   79.337">  5  6 -1 -1</clus>
<clus scale="   83.114">  2  5  1 -1</clus>
<clus scale="   94.687">  7  8 -1 -1</clus>
<clus scale="   55.320">  1  5  2 -1</clus>
</clustering>
</event>
<event>
 9    2  0.6190160E-005  0.9483330E+02  0.7546771E-02  0.1299443E+00
         21   -1    0    0  501  502  0.00000000000E+00  0.00000000000E+00  0.31370685600E+03  0.31370685600E+03  0.00000000000E+00 0.  1.
         -1   -1    0    0    0  501 -0.00000000000E+00 -0.00000000000E+00 -0.92812495898E+02  0.92812495898E+02  0.00000000000E+00 0.  1.
         23    2    1    2    0    0  0.26776921219E+02 -0.32897466210E+01 -0.54377172586E+02  0.10992904410E+03  0.91649833034E+02 0.  0.
         24    2    1    2    0    0 -0.20937350797E+00  0.10361868776E+02  0.23452538585E+03  0.24743648816E+03  0.78200044139E+02 0.  0.
        -13    1    4    4    0    0  0.20756879360E+02 -0.28180360486E+02  0.10228715651E+03  0.10810940359E+03  0.00000000000E+00 0.  1.
         14    1    4    4    0    0 -0.20966252868E+02  0.38542229262E+02  0.13223822934E+03  0.13932708457E+03  0.00000000000E+00 0. -1.
        -11    1    3    3    0    0 -0.28361667988E+02 -0.21660677779E+02 -0.10792058397E+02  0.37283209322E+02  0.00000000000E+00 0. -1.
         11    1    3    3    0    0  0.55138589207E+02  0.18370931159E+02 -0.43585114189E+02  0.72645834775E+02  0.00000000000E+00 0.  1.
         -2    1    1    2    0  502 -0.26567547711E+02 -0.70721221549E+01  0.40746146840E+02  0.49153819642E+02  0.00000000000E+00 0.  1.
<scales pt_clust_5="13000.00000" pt_clust_6="13000.00000" pt_clust_7="13000.00000" pt_clust_8="13000.00000" pt_clust_9="27.49272"></scales>
<clustering>
<clus scale="   27.493">  1  9  2 -1</clus>
<clus scale="   78.200">  5  6 -1 -1</clus>
<clus scale="   81.908">  1  5  2 -1</clus>
<clus scale="   91.650">  7  8 -1 -1</clus>
<clus scale="   27.493">  1  5  2 -1</clus>
</clustering>
</event>
<event>
 9    2  0.6190160E-005  0.9775390E+02  0.7546771E-02  0.1290745E+00
          2   -1    0    0  502    0 -0.00000000000E+00  0.00000000000E+00  0.16674100830E+03  0.16674100830E+03  0.00000000000E+00 0. -1.
         21   -1    0    0  501  502  0.00000000000E+00 -0.00000000000E+00 -0.25956919688E+03  0.25956919688E+03  0.00000000000E+00 0.  1.
         24    2    1    2    0    0 -0.34256215228E+02 -0.12739986876E+02  0.12875568510E+03  0.15551166863E+03  0.79183692045E+02 0.  0.
         23    2    1    2    0    0  0.66744433312E+02  0.52285312297E+01 -0.20471277710E+03  0.23342822507E+03  0.89995879002E+02 0.  0.
        -11    1    3    3    0    0 -0.42140862435E+02  0.19898521883E+02  0.42972644091E+02  0.63391258073E+02  0.00000000000E+00 0.  1.
         12    1    3    3    0    0  0.78846472075E+01 -0.32638508759E+02  0.85783041012E+02  0.92120410555E+02  0.00000000000E+00 0. -1.
        -11    1    4    4    0    0  0.52236319228E+01 -0.24120930816E+02 -0.91413327265E+01  0.26318616945E+02  0.00000000000E+00 0. -1.
         11    1    4    4    0    0  0.61520801389E+02  0.29349462046E+02 -0.19557144437E+03  0.20710960813E+03  0.00000000000E+00 0.  1.
          1    1    1    2  501    0 -0.32488218084E+02  0.75114556461E+01 -0.16871096586E+02  0.37370311481E+02  0.00000000000E+00 0. -1.
<scales pt_clust_5="13000.00000" pt_clust_6="13000.00000" pt_clust_7="13000.00000" pt_clust_8="13000.00000" pt_clust_9="33.34526"></scales>
<clustering>
<clus scale="   33.345">  2  9  1 -1</clus>
<clus scale="   79.184">  5  6 -1 -1</clus>
<clus scale="   87.901">  1  5  2 -1</clus>
<clus scale="   89.996">  7  8 -1 -1</clus>
<clus scale="   33.345">  2  5  1 -1</clus>
</clustering>
</event>
<event>
 9    2  0.6190160E-005  0.9463056E+02  0.7546771E-02  0.1299125E+00
         21   -1    0    0  501  502  0.00000000000E+00  0.00000000000E+00  0.18065687878E+03  0.18065687878E+03  0.00000000000E+00 0.  1.
          2   -1    0    0  502    0 -0.00000000000E+00 -0.00000000000E+00 -0.83160660902E+02  0.83160660902E+02  0.00000000000E+00 0. -1.
         24    2    1    2    0    0 -0.33473394531E+02 -0.22543752740E+02 -0.11190552352E+02  0.89044697377E+02  0.78581427450E+02 0.  0.
         23    2    1    2    0    0 -0.12643452634E+01 -0.24081400774E+01  0.55403167682E+02  0.10644678709E+03  0.90851581077E+02 0.  0.
        -11    1    3    3    0    0 -0.29936390648E+02  0.22576910738E+02 -0.20652836412E+02  0.42807055906E+02  0.00000000000E+00 0.  1.
         12    1    3    3    0    0 -0.35370038832E+01 -0.45120663478E+02  0.94622840605E+01  0.46237641471E+02  0.00000000000E+00 0. -1.
        -13    1    4    4    0    0 -0.22160901939E+02 -0.35707637293E+02  0.46990484905E+01  0.42287373914E+02  0.00000000000E+00 0. -1.
         13    1    4    4    0    0  0.20896556676E+02  0.33299497215E+02  0.50704119191E+02  0.64159413173E+02  0.00000000000E+00 0.  1.
          1    1    1    2  501    0  0.34737739795E+02  0.24951892817E+02  0.53283602550E+02  0.68326055220E+02  0.00000000000E+00 0. -1.
<scales pt_clust_5="13000.00000" pt_clust_6="13000.00000" pt_clust_7="13000.00000" pt_clust_8="13000.00000" pt_clust_9="42.77040"></scales>
<clustering>
<clus scale="   42.770">  1  9  2 -1</clus>
<clus scale="   78.581">  5  6 -1 -1</clus>
<clus scale="   82.921">  2  5  1 -1</clus>
<clus scale="   90.852">  7  8 -1 -1</clus>
<clus scale="   42.770">  1  5  2 -1</clus>
</clustering>
</event>
<event>
 9    2  0.6190160E-005  0.9157083E+02  0.7546771E-02  0.1304865E+00
         -3   -1    0    0    0  501 -0.00000000000E+00  0.00000000000E+00  0.55045049098E+03  0.55045049098E+03  0.00000000000E+00 0.  1.
         21   -1    0    0  501  502  0.00000000000E+00 -0.00000000000E+00 -0.55987263742E+02  0.55987263742E+02  0.00000000000E+00 0.  1.
         24    2    1    2    0    0 -0.13909404334E+02 -0.50136723230E+01  0.39454517485E+03  0.40283085918E+03  0.79926201411E+02 0.  0.
         23    2    1    2    0    0  0.29141695351E+02  0.32973664941E+02  0.12726808095E+03  0.16163299962E+03  0.89395532034E+02 0.  0.
        -13    1    3    3    0    0  0.24335071244E+02  0.22304215475E+02  0.12887533717E+03  0.13303580816E+03  0.00000000000E+00 0.  1.
         14    1    3    3    0    0 -0.38244475578E+02 -0.27317887798E+02  0.26566983768E+03  0.26979505103E+03  0.00000000000E+00 0. -1.
        -13    1    4    4    0    0  0.61312794427E+02  0.22034262607E+02  0.91178677185E+02  0.11206390437E+03  0.00000000000E+00 0.  1.
         13    1    4    4    0    0 -0.32171099077E+02  0.10939402333E+02  0.36089403768E+02  0.49569095246E+02  0.00000000000E+00 0. -1.
         -4    1    1    2    0  502 -0.15232291017E+02 -0.27959992618E+02 -0.27350028564E+02  0.41973895927E+02  0.00000000000E+00 0.  1.
<scales pt_clust_5="13000.00000" pt_clust_6="13000.00000" pt_clust_7="13000.00000" pt_clust_8="13000.00000" pt_clust_9="31.83997"></scales>
<clustering>
<clus scale="   31.840">  2  9  1 -1</clus>
<clus scale="   79.926">  5  6 -1 -1</clus>
<clus scale="   82.352">  1  5  2 -1</clus>
<clus scale="   89.396">  7  8 -1 -1</clus>
<clus scale="   31.840">  2  5  1 -1</clus>
</clustering>
</event>
<event>
 9    2  0.6190160E-005  0.1075625E+03  0.7546771E-02  0.1272800E+00
          2   -1    0    0  502    0 -0.00000000000E+00  0.00000000000E+00  0.10675180758E+04  0.10675180758E+04  0.00000000000E+00 0. -1.
         21   -1    0    0  501  502  0.00000000000E+00 -0.00000000000E+00 -0.13158016006E+02  0.13158016006E+02  0.00000000000E+00 0.  1.
         24    2    1    2    0    0  0.49914339173E+02  0.25799633220E+02  0.48624667226E+03  0.49598144104E+03  0.80029377373E+02 0.  0.
         23    2    1    2    0    0 -0.18194859337E+02 -0.35787413534E+02  0.44430497656E+03  0.45649791217E+03  0.96807229858E+02 0.  0.
        -13    1    3    3    0    0  0.30491389802E+02 -0.10932102927E+02  0.64341465328E+02  0.72035129535E+02  0.00000000000E+00 0.  1.
         14    1    3    3    0    0  0.19422949371E+02  0.36731736148E+02  0.42190520694E+03  0.42394631151E+03  0.00000000000E+00 0. -1.
        -11    1    4    4    0    0  0.28808859922E+02  0.15497696640E+02  0.99315480512E+02  0.10456430404E+03  0.00000000000E+00 0.  1.
         11    1    4    4    0    0 -0.47003719259E+02 -0.51285110174E+02  0.34498949604E+03  0.35193360813E+03  0.00000000000E+00 0. -1.
          1    1    1    2  501    0 -0.31719479836E+02  0.99877803134E+01  0.12380841093E+03  0.12819673854E+03  0.00000000000E+00 0. -1.
<scales pt_clust_5="13000.00000" pt_clust_6="13000.00000" pt_clust_7="13000.00000" pt_clust_8="13000.00000" pt_clust_9="33.25479"></scales>
<clustering>
<clus scale="   33.255">  2  9  1 -1</clus>
<clus scale="   80.029">  5  6 -1 -1</clus>
<clus scale="   92.751">  1  5  2 -1</clus>
<clus scale="   96.807">  7  8 -1 -1</clus>
<clus scale="   33.255">  2  5  1 -1</clus>
</clustering>
</event>
<event>
 9    2  0.6190160E-005  0.2301731E+03  0.7546771E-02  0.1126518E+00
         21   -1    0    0  501  502  0.00000000000E+00  0.00000000000E+00  0.16809766610E+03  0.16809766610E+03  0.00000000000E+00 0.  1.
          2   -1    0    0  502    0 -0.00000000000E+00 -0.00000000000E+00 -0.21630850253E+03  0.21630850253E+03  0.00000000000E+00 0. -1.
         24    2    1    2    0    0 -0.99346267629E+02  0.25295989500E+02  0.61222484538E+02  0.14404610816E+03  0.80569973849E+02 0.  0.
         23    2    1    2    0    0 -0.37780003708E+01  0.91736050155E+01 -0.85959117205E+01  0.92066599059E+02  0.91125960342E+02 0.  0.
        -13    1    3    3    0    0 -0.11090606842E+03  0.20894080789E+02  0.66054064924E+02  0.13076642580E+03  0.00000000000E+00 0.  1.
         14    1    3    3    0    0  0.11559800787E+02  0.44019087109E+01 -0.48315803858E+01  0.13279682359E+02  0.00000000000E+00 0. -1.
        -13    1    4    4    0    0 -0.35710229316E+00 -0.24306537358E+02  0.31454675459E+02  0.39753388391E+02  0.00000000000E+00 0.  1.
         13    1    4    4    0    0 -0.34208980777E+01  0.33480142373E+02 -0.40050587179E+02  0.52313210668E+02  0.00000000000E+00 0. -1.
          1    1    1    2  501    0  0.10312426800E+03 -0.34469594515E+02 -0.10083740925E+03  0.14829346142E+03  0.00000000000E+00 0. -1.
<scales pt_clust_5="13000.00000" pt_clust_6="13000.00000" pt_clust_7="13000.00000" pt_clust_8="13000.00000" pt_clust_9="108.73261"></scales>
<clustering>
<clus scale="   80.570">  5  6 -1 -1</clus>
<clus scale="   91.126">  7  8 -1 -1</clus>
<clus scale="   91.657">  5  7 -1 -1</clus>
<clus scale="  108.733">  1  9  2 -1</clus>
<clus scale="  108.733">  1  5  2 -1</clus>
</clustering>
</event>
<event>
 9    2  0.6190160E-005  0.9952583E+02  0.7546771E-02  0.1291225E+00
         -1   -1    0    0    0  501 -0.00000000000E+00  0.00000000000E+00  0.35453754468E+03  0.35453754468E+03  0.00000000000E+00 0.  1.
         21   -1    0    0  501  502  0.00000000000E+00 -0.00000000000E+00 -0.17441580340E+03  0.17441580340E+03  0.00000000000E+00 0.  1.
         23    2    1    2    0    0 -0.50839798837E+01  0.45383865373E+02  0.24480010323E+03  0.26592410420E+03  0.93289852415E+02 0.  0.
         24    2    1    2    0    0 -0.18776321086E+02 -0.17578068325E+02  0.80719452164E+02  0.11308591905E+03  0.74908320041E+02 0.  0.
        -13    1    4    4    0    0  0.22021386263E+02  0.15105199382E+02  0.31371137534E+02  0.41197776293E+02  0.00000000000E+00 0.  1.
         14    1    4    4    0    0 -0.40797707349E+02 -0.32683267706E+02  0.49348314629E+02  0.71888142761E+02  0.00000000000E+00 0. -1.
        -11    1    3    3    0    0 -0.41055390951E+02  0.45349822557E+02  0.19582949200E+03  0.20516174465E+03  0.00000000000E+00 0.  1.
         11    1    3    3    0    0  0.35971411067E+02  0.34042816037E-01  0.48970611234E+02  0.60762359547E+02  0.00000000000E+00 0. -1.
         -2    1    1    2    0  502  0.23860300970E+02 -0.27805797048E+02 -0.14539781412E+03  0.14994332483E+03  0.00000000000E+00 0.  1.
<scales pt_clust_5="13000.00000" pt_clust_6="13000.00000" pt_clust_7="13000.00000" pt_clust_8="13000.00000" pt_clust_9="36.63982"></scales>
<clustering>
<clus scale="   36.640">  2  9  1 -1</clus>
<clus scale="   74.908">  5  6 -1 -1</clus>
<clus scale="   82.545">  2  5  1 -1</clus>
<clus scale="   93.290">  7  8 -1 -1</clus>
<clus scale="   36.640">  2  5  1 -1</clus>
</clustering>
</event>
<event>
 9    2  0.6190160E-005  0.9307810E+02  0.7546771E-02  0.1301047E+00
          2   -1    0    0  502    0 -0.00000000000E+00  0.00000000000E+00  0.15845574839E+03  0.15845574839E+03  0.00000000000E+00 0. -1.
         21   -1    0    0  501  502  0.00000000000E+00 -0.00000000000E+00 -0.88863318127E+02  0.88863318127E+02  0.00000000000E+00 0.  1.
         23    2    1    2    0    0  0.22282074184E+02 -0.15076369087E+02  0.62518043638E+02  0.11308825527E+03  0.90314229025E+02 0.  0.
         24    2    1    2    0    0 -0.21203794602E+02 -0.17535275365E+02 -0.24299780839E+02  0.88964704448E+02  0.81037969503E+02 0.  0.
        -13    1    4    4    0    0  0.17047617196E+02 -0.30664580852E+02 -0.32357555033E+02  0.47727865431E+02  0.00000000000E+00 0.  1.
         14    1    4    4    0    0 -0.38251411799E+02  0.13129305487E+02  0.80577741946E+01  0.41236839017E+02  0.00000000000E+00 0. -1.
        -11    1    3    3    0    0 -0.14943941873E+02  0.29486056295E+02  0.93387356371E+01  0.34350558916E+02  0.00000000000E+00 0. -1.
         11    1    3    3    0    0  0.37226016057E+02 -0.44562425382E+02  0.53179308001E+02  0.78737696352E+02  0.00000000000E+00 0.  1.
          1    1    1    2  501    0 -0.10782795815E+01  0.32611644453E+02  0.31374167460E+02  0.45266106797E+02  0.00000000000E+00 0. -1.
<scales pt_clust_5="13000.00000" pt_clust_6="13000.00000" pt_clust_7="13000.00000" pt_clust_8="13000.00000" pt_clust_9="32.62948"></scales>
<clustering>
<clus scale="   32.629">  2  9  1 -1</clus>
<clus scale="   81.038">  5  6 -1 -1</clus>
<clus scale="   84.107">  2  5  1 -1</clus>
<clus scale="   90.314">  7  8 -1 -1</clus>
<clus scale="   32.629">  2  5  1 -1</clus>
</clustering>
</event>
<event>
 9    2  0.6190160E-005  0.2388076E+03  0.7546771E-02  0.1121462E+00
         21   -1    0    0  501  502  0.00000000000E+00  0.00000000000E+00  0.56350836488E+03  0.56350836488E+03  0.00000000000E+00 0.  1.
          2   -1    0    0  502    0 -0.00000000000E+00 -0.00000000000E+00 -0.16564449992E+03  0.16564449992E+03  0.00000000000E+00 0. -1.
         23    2    1    2    0    0 -0.11388490826E+03  0.13068258800E+03  0.14032192873E+03  0.23984766932E+03  0.88255026272E+02 0.  0.
         24    2    1    2    0    0  0.18537355033E+03 -0.19765970358E+03  0.89195579057E+02  0.29453082363E+03  0.73210949759E+02 0.  0.
        -11    1    4    4    0    0  0.17245491231E+03 -0.18794531269E+03  0.61376718618E+02  0.26235708287E+03  0.00000000000E+00 0.  1.
         12    1    4    4    0    0  0.12918638020E+02 -0.97143908880E+01  0.27818860439E+02  0.32173740764E+02  0.00000000000E+00 0. -1.
        -13    1    3    3    0    0 -0.69123070281E+02  0.41158057786E+02  0.10799414128E+03  0.13466521123E+03  0.00000000000E+00 0.  1.
         13    1    3    3    0    0 -0.44761837975E+02  0.89524530211E+02  0.32327787455E+02  0.10518245809E+03  0.00000000000E+00 0. -1.
          1    1    1    2  501    0 -0.71488642076E+02  0.66977115579E+02  0.16834635717E+03  0.19477437185E+03  0.00000000000E+00 0. -1.
<scales pt_clust_5="13000.00000" pt_clust_6="13000.00000" pt_clust_7="13000.00000" pt_clust_8="13000.00000" pt_clust_9="97.96203"></scales>
<clustering>
<clus scale="   73.211">  5  6 -1 -1</clus>
<clus scale="   88.255">  7  8 -1 -1</clus>
<clus scale="   97.962">  1  9  2 -1</clus>
<clus scale="  233.666">  1  5  2 -1</clus>
<clus scale="   97.962">  1  5  2 -1</clus>
</clustering>
</event>
<event>
 9    2  0.6190160E-005  0.1017401E+03  0.7546771E-02  0.1281954E+00
         21   -1    0    0  501  502  0.00000000000E+00  0.00000000000E+00  0.74433377840E+03  0.74433377840E+03  0.00000000000E+00 0. -1.
          2   -1    0    0  502    0 -0.00000000000E+00 -0.00000000000E+00 -0.30949724348E+02  0.30949724348E+02  0.00000000000E+00 0. -1.
         23    2    1    2    0    0 -0.28924002963E+02  0.18642144005E+02  0.11711175786E+03  0.15250843587E+03  0.91430474691E+02 0.  0.
         24    2    1    2    0    0  0.77432473276E+02 -0.33135351193E+02  0.50639677026E+03  0.51962112896E+03  0.80465454162E+02 0.  0.
        -11    1    4    4    0    0  0.13325960327E+01 -0.31143711082E+02  0.69898577286E+02  0.76534421398E+02  0.00000000000E+00 0.  1.
         12    1    4    4    0    0  0.76099877244E+02 -0.19916401112E+01  0.43649819297E+03  0.44308670756E+03  0.00000000000E+00 0. -1.
        -11    1    3    3    0    0  0.46302229156E+01  0.22328205310E+02 -0.70274793094E+01  0.23861541904E+02  0.00000000000E+00 0. -1.
         11    1    3    3    0    0 -0.33554225879E+02 -0.36860613045E+01  0.12413923717E+03  0.12864689397E+03  0.00000000000E+00 0.  1.
          1    1    1    2  501    0 -0.48508470313E+02  0.14493207188E+02  0.89875525939E+02  0.10315393793E+03  0.00000000000E+00 0. -1.
<scales pt_clust_5="13000.00000" pt_clust_6="13000.00000" pt_clust_7="13000.00000" pt_clust_8="13000.00000" pt_clust_9="50.62734"></scales>
<clustering>
<clus scale="   50.627">  1  9  2 -1</clus>
<clus scale="   80.465">  5  6 -1 -1</clus>
<clus scale="   91.430">  7  8 -1 -1</clus>
<clus scale="   92.012">  1  5  2 -1</clus>
<clus scale="   50.627">  1  5  2 -1</clus>
</clustering>
</event>
<event>
 9    2  0.6190160E-005  0.1118724E+03  0.7546771E-02  0.1260815E+00
          2   -1    0    0  502    0 -0.00000000000E+00  0.00000000000E+00  0.15222559597E+03  0.15222559597E+03  0.00000000000E+00 0. -1.
         21   -1    0    0  501  502  0.00000000000E+00 -0.00000000000E+00 -0.22628813798E+03  0.22628813798E+03  0.00000000000E+00 0.  1.
         23    2    1    2    0    0  0.56228996485E+02  0.40465075059E+02 -0.31616422292E+02  0.11760607046E+03  0.89624033076E+02 0.  0.
         24    2    1    2    0    0 -0.73982880713E+02  0.61456274667E+01 -0.12417612535E+03  0.16516033029E+03  0.79667993691E+02 0.  0.
        -13    1    4    4    0    0 -0.59960090576E+02 -0.14204006972E+02 -0.12612261635E+03  0.14037051197E+03  0.00000000000E+00 0.  1.
         14    1    4    4    0    0 -0.14022790137E+02  0.20349634439E+02  0.19464910000E+01  0.24789818318E+02  0.00000000000E+00 0. -1.
        -13    1    3    3    0    0 -0.22698955193E+02 -0.39415576113E+00 -0.14942646019E+02  0.27178679064E+02  0.00000000000E+00 0.  1.
         13    1    3    3    0    0  0.78927951678E+02  0.40859230820E+02 -0.16673776273E+02  0.90427391395E+02  0.00000000000E+00 0. -1.
          1    1    1    2  501    0  0.17753884228E+02 -0.46610702525E+02  0.81730005637E+02  0.95747333208E+02  0.00000000000E+00 0. -1.
<scales pt_clust_5="13000.00000" pt_clust_6="13000.00000" pt_clust_7="13000.00000" pt_clust_8="13000.00000" pt_clust_9="49.87745"></scales>
<clustering>
<clus scale="   49.877">  2  9  1 -1</clus>
<clus scale="   79.668">  5  6 -1 -1</clus>
<clus scale="   89.624">  7  8 -1 -1</clus>
<clus scale="  104.067">  2  5  1 -1</clus>
<clus scale="   49.877">  2  5  1 -1</clus>
</clustering>
</event>
<event>
 9    2  0.6190160E-005  0.9510991E+02  0.7546771E-02  0.1296972E+00
         -3   -1    0    0    0  501 -0.00000000000E+00  0.00000000000E+00  0.11339591704E+03  0.11339591704E+03  0.00000000000E+00 0.  1.
         21   -1    0    0  501  502  0.00000000000E+00 -0.00000000000E+00 -0.18161241369E+03  0.18161241369E+03  0.00000000000E+00 0. -1.
         23    2    1    2    0    0  0.28683703840E+02  0.15338130778E+02  0.58770341431E+02  0.11401119494E+03  0.92122670485E+02 0.  0.
         24    2    1    2    0    0 -0.37893945946E+00  0.19502976293E+02 -0.78503210910E+02  0.11492350617E+03  0.81634235887E+02 0.  0.
        -13    1    4    4    0    0  0.14109356958E+02 -0.28748258090E+02 -0.41477625512E+02  0.52401619394E+02  0.00000000000E+00 0.  1.
         14    1    4    4    0    0 -0.14488296418E+02  0.48251234383E+02 -0.37025585398E+02  0.62521886781E+02  0.00000000000E+00 0. -1.
        -13    1    3    3    0    0  0.57524519639E+02  0.83281568147E+01  0.13162368705E+02  0.59595943700E+02  0.00000000000E+00 0.  1.
         13    1    3    3    0    0 -0.28840815799E+02  0.70099739629E+01  0.45607972726E+02  0.54415251236E+02  0.00000000000E+00 0. -1.
         -4    1    1    2    0  502 -0.28304764380E+02 -0.34841107070E+02 -0.48483627168E+02  0.66073629626E+02  0.00000000000E+00 0.  1.
<scales pt_clust_5="13000.00000" pt_clust_6="13000.00000" pt_clust_7="13000.00000" pt_clust_8="13000.00000" pt_clust_9="44.88945"></scales>
<clustering>
<clus scale="   44.889">  2  9  1 -1</clus>
<clus scale="   81.634">  5  6 -1 -1</clus>
<clus scale="   84.991">  2  5  1 -1</clus>
<clus scale="   92.123">  7  8 -1 -1</clus>
<clus scale="   44.889">  2  5  1 -1</clus>
</clustering>
</event>
<event>
 9    2  0.6190160E-005  0.9040017E+02  0.7546771E-02  0.1306969E+00
         21   -1    0    0  501  502  0.00000000000E+00  0.00000000000E+00  0.98013429560E+02  0.98013429560E+02  0.00000000000E+00 0.  1.
         -3   -1    0    0    0  501 -0.00000000000E+00 -0.00000000000E+00 -0.19099625918E+03  0.19099625918E+03  0.00000000000E+00 0.  1.
         24    2    1    2    0    0  0.24383715080E+02 -0.91979842055E+00 -0.15259492779E+02  0.85995350442E+02  0.81036637316E+02 0.  0.
         23    2    1    2    0    0  0.13323813884E+02  0.26889768888E+02  0.18999432095E+02  0.96002230864E+02  0.89190056754E+02 0.  0.
        -11    1    3    3    0    0  0.51690899196E+02 -0.11309830961E+02 -0.19661574016E+02  0.56448550281E+02  0.00000000000E+00 0.  1.
         12    1    3    3    0    0 -0.27307184116E+02  0.10390032541E+02  0.44020812372E+01  0.29546800161E+02  0.00000000000E+00 0. -1.
        -11    1    4    4    0    0 -0.25299231215E+02  0.44713307970E+02  0.13439007237E+02  0.53103087718E+02  0.00000000000E+00 0.  1.
         11    1    4    4    0    0  0.38623045099E+02 -0.17823539082E+02  0.55604248586E+01  0.42899143146E+02  0.00000000000E+00 0. -1.
         -4    1    1    2    0  502 -0.37707528964E+02 -0.25969970467E+02 -0.96722768941E+02  0.10701210744E+03  0.00000000000E+00 0.  1.
<scales pt_clust_5="13000.00000" pt_clust_6="13000.00000" pt_clust_7="13000.00000" pt_clust_8="13000.00000" pt_clust_9="45.78536"></scales>
<clustering>
<clus scale="   45.785">  1  9  2 -1</clus>
<clus scale="   81.037">  5  6 -1 -1</clus>
<clus scale="   82.367">  2  5  1 -1</clus>
<clus scale="   89.190">  7  8 -1 -1</clus>
<clus scale="   45.785">  1  5  2 -1</clus>
</clustering>
</event>
<event>
 9    2  0.6190160E-005  0.9499490E+02  0.7546771E-02  0.1296581E+00
         21   -1    0    0  501  502  0.00000000000E+00  0.00000000000E+00  0.13113886293E+03  0.13113886293E+03  0.00000000000E+00 0.  1.
         -1   -1    0    0    0  501 -0.00000000000E+00 -0.00000000000E+00 -0.27245754408E+03  0.27245754408E+03  0.00000000000E+00 0.  1.
         23    2    1    2    0    0 -0.60481075363E+01 -0.14435308478E+01 -0.51767959280E+02  0.10632715804E+03  0.92665417190E+02 0.  0.
         24    2    1    2    0    0  0.71173562762E+02 -0.25002909876E+02  0.63316585012E+02  0.12901600929E+03  0.83338581567E+02 0.  0.
        -13    1    4    4    0    0  0.49029822676E+01 -0.32055362789E+02 -0.58663885393E+01  0.32954514610E+02  0.00000000000E+00 0.  1.
         14    1    4    4    0    0  0.66270580494E+02  0.70524529133E+01  0.69182973551E+02  0.96061494682E+02  0.00000000000E+00 0. -1.
        -13    1    3    3    0    0  0.25122615075E+02 -0.20666416403E+02 -0.60488955759E+02  0.68681586499E+02  0.00000000000E+00 0. -1.
         13    1    3    3    0    0 -0.31170722611E+02  0.19222885555E+02  0.87209964787E+01  0.37645571542E+02  0.00000000000E+00 0.  1.
         -2    1    1    2    0  502 -0.65125455226E+02  0.26446440724E+02 -0.15286730688E+03  0.16825323967E+03  0.00000000000E+00 0.  1.
<scales pt_clust_5="13000.00000" pt_clust_6="13000.00000" pt_clust_7="13000.00000" pt_clust_8="13000.00000" pt_clust_9="70.29043"></scales>
<clustering>
<clus scale="   70.290">  1  9  2 -1</clus>
<clus scale="   83.339">  5  6 -1 -1</clus>
<clus scale="   85.921">  1  5  2 -1</clus>
<clus scale="   92.665">  7  8 -1 -1</clus>
<clus scale="   70.290">  1  5  2 -1</clus>
</clustering>
</event>
<event>
 9    2  0.6190160E-005  0.1121416E+03  0.7546771E-02  0.1260679E+00
         -1   -1    0    0    0  501 -0.00000000000E+00  0.00000000000E+00  0.20092283523E+03  0.20092283523E+03  0.00000000000E+00 0.  1.
         21   -1    0    0  501  502  0.00000000000E+00 -0.00000000000E+00 -0.12974176783E+03  0.12974176783E+03  0.00000000000E+00 0. -1.
         24    2    1    2    0    0 -0.45783219666E+02 -0.55876933378E+02  0.12983930941E+03  0.16833889134E+03  0.79129016062E+02 0.  0.
         23    2    1    2    0    0  0.32599577276E+02  0.40256358067E+02 -0.39700812724E+01  0.10394244592E+03  0.90027571976E+02 0.  0.
        -11    1    3    3    0    0 -0.39957702009E+02 -0.75891543849E+02  0.11071659699E+03  0.14005109505E+03  0.00000000000E+00 0.  1.
         12    1    3    3    0    0 -0.58255176574E+01  0.20014610471E+02  0.19122712423E+02  0.28287796286E+02  0.00000000000E+00 0. -1.
        -11    1    4    4    0    0  0.45007717552E+02 -0.12643541923E+02 -0.13757927045E+02  0.48732272143E+02  0.00000000000E+00 0. -1.
         11    1    4    4    0    0 -0.12408140276E+02  0.52899899991E+02  0.97878457721E+01  0.55210173781E+02  0.00000000000E+00 0.  1.
         -2    1    1    2    0  502  0.13183642390E+02  0.15620575310E+02 -0.54688160737E+02  0.58383265792E+02  0.00000000000E+00 0.  1.
<scales pt_clust_5="13000.00000" pt_clust_6="13000.00000" pt_clust_7="13000.00000" pt_clust_8="13000.00000" pt_clust_9="20.44042"></scales>
<clustering>
<clus scale="   20.440">  2  9  1 -1</clus>
<clus scale="   79.129">  5  6 -1 -1</clus>
<clus scale="   90.028">  7  8 -1 -1</clus>
<clus scale="  103.596">  1  5  2 -1</clus>
<clus scale="   20.440">  2  5  1 -1</clus>
</clustering>
</event>
<event>
 9    2  0.6190160E-005  0.1585114E+03  0.7546771E-02  0.1192380E+00
         21   -1    0    0  501  502  0.00000000000E+00  0.00000000000E+00  0.16691262662E+03  0.16691262662E+03  0.00000000000E+00 0. -1.
          2   -1    0    0  502    0 -0.00000000000E+00 -0.00000000000E+00 -0.73922499213E+03  0.73922499213E+03  0.00000000000E+00 0. -1.
         23    2    1    2    0    0 -0.11912063390E+03  0.45913990382E+02 -0.39966184483E+03  0.42982911096E+03  0.93411211778E+02 0.  0.
         24    2    1    2    0    0  0.16569121245E+03  0.85854979933E+02  0.53484654479E+02  0.21047209612E+03  0.81321826820E+02 0.  0.
        -13    1    4    4    0    0  0.20411672188E+02  0.41459705898E+02 -0.74248011381E+01  0.46804607109E+02  0.00000000000E+00 0.  1.
         14    1    4    4    0    0  0.14527954026E+03  0.44395274036E+02  0.60909455617E+02  0.16366748901E+03  0.00000000000E+00 0. -1.
        -13    1    3    3    0    0 -0.13042690527E+03  0.22730007040E+02 -0.33516193511E+03  0.36036280827E+03  0.00000000000E+00 0.  1.
         13    1    3    3    0    0  0.11306271371E+02  0.23183983342E+02 -0.64499909714E+02  0.69466302687E+02  0.00000000000E+00 0. -1.
          1    1    1    2  501    0 -0.46570578551E+02 -0.13176897032E+03 -0.22613517516E+03  0.26583641167E+03  0.00000000000E+00 0. -1.
<scales pt_clust_5="13000.00000" pt_clust_6="13000.00000" pt_clust_7="13000.00000" pt_clust_8="13000.00000" pt_clust_9="139.75657"></scales>
<clustering>
<clus scale="   81.322">  5  6 -1 -1</clus>
<clus scale="   93.411">  7  8 -1 -1</clus>
<clus scale="  139.757">  1  9  2 -1</clus>
<clus scale="  151.702">  1  5  2 -1</clus>
<clus scale="  139.757">  1  5  2 -1</clus>
</clustering>
</event>
<event>
 9    2  0.6190160E-005  0.4325589E+03  0.7546771E-02  0.1083734E+00
          2   -1    0    0  502    0 -0.00000000000E+00  0.00000000000E+00  0.99717172454E+03  0.99717172454E+03  0.00000000000E+00 0. -1.
         21   -1    0    0  501  502  0.00000000000E+00 -0.00000000000E+00 -0.23323524676E+03  0.23323524676E+03  0.00000000000E+00 0. -1.
         23    2    1    2    0    0 -0.16815235483E+02 -0.13252183269E+02  0.87208411518E+02  0.13587077424E+03  0.10196660114E+03 0.  0.
         24    2    1    2    0    0  0.37964316876E+03 -0.20032688242E+03  0.38344690843E+03  0.58143390315E+03  0.82304658058E+02 0.  0.
        -11    1    4    4    0    0  0.11946891741E+03 -0.26826414696E+02  0.13307535426E+03  0.18083563992E+03  0.00000000000E+00 0.  1.
         12    1    4    4    0    0  0.26017425135E+03 -0.17350046772E+03  0.25037155417E+03  0.40059826323E+03  0.00000000000E+00 0. -1.
        -13    1    3    3    0    0  0.31254051629E+02 -0.27032352880E+02  0.78351627500E+01  0.42058930333E+02  0.00000000000E+00 0.  1.
         13    1    3    3    0    0 -0.48069287112E+02  0.13780169610E+02  0.79373248768E+02  0.93811843911E+02  0.00000000000E+00 0. -1.
          1    1    1    2  501    0 -0.36282793328E+03  0.21357906569E+03  0.29328115784E+03  0.51310229391E+03  0.00000000000E+00 0. -1.
<scales pt_clust_5="13000.00000" pt_clust_6="13000.00000" pt_clust_7="13000.00000" pt_clust_8="13000.00000" pt_clust_9="424.65646"></scales>
<clustering>
<clus scale="   82.305">  5  6 -1 -1</clus>
<clus scale="  101.967">  7  8 -1 -1</clus>
<clus scale="  104.190">  1  7  2 -1</clus>
<clus scale="  424.656">  2  9  1 -1</clus>
<clus scale="  424.656">  2  5  1 -1</clus>
</clustering>
</event>
<event>
 9    2  0.6190160E-005  0.9250814E+02  0.7546771E-02  0.1303367E+00
         21   -1    0    0  501  502  0.00000000000E+00  0.00000000000E+00  0.46276241046E+02  0.46276241046E+02  0.00000000000E+00 0. -1.
          2   -1    0    0  502    0 -0.00000000000E+00 -0.00000000000E+00 -0.89878572495E+03  0.89878572495E+03  0.00000000000E+00 0. -1.
         24    2    1    2    0    0  0.32889888829E+02  0.12066062046E+02 -0.56960030027E+03  0.57601891244E+03  0.78268453310E+02 0.  0.
         23    2    1    2    0    0 -0.77947987465E+01  0.17070740632E+02 -0.30928162516E+03  0.32241449484E+03  0.89128074981E+02 0.  0.
        -13    1    3    3    0    0  0.44141232997E+02  0.25458896007E+02 -0.21378940750E+03  0.21977833058E+03  0.00000000000E+00 0.  1.
         14    1    3    3    0    0 -0.11251344168E+02 -0.13392833961E+02 -0.35581089277E+03  0.35624058186E+03  0.00000000000E+00 0. -1.
        -13    1    4    4    0    0  0.19315880501E+02  0.46245712494E+02 -0.19713533137E+03  0.20340626352E+03  0.00000000000E+00 0. -1.
         13    1    4    4    0    0 -0.27110679247E+02 -0.29174971862E+02 -0.11214629378E+03  0.11900823132E+03  0.00000000000E+00 0.  1.
          1    1    1    2  501    0 -0.25095090083E+02 -0.29136802678E+02  0.26372441518E+02  0.46628558719E+02  0.00000000000E+00 0. -1.
<scales pt_clust_5="13000.00000" pt_clust_6="13000.00000" pt_clust_7="13000.00000" pt_clust_8="13000.00000" pt_clust_9="38.45409"></scales>
<clustering>
<clus scale="   38.454">  1  9  2 -1</clus>
<clus scale="   78.268">  5  6 -1 -1</clus>
<clus scale="   82.097">  2  5  1 -1</clus>
<clus scale="   89.128">  7  8 -1 -1</clus>
<clus scale="   38.454">  1  5  2 -1</clus>
</clustering>
</event>
<event>
 9    2  0.6190160E-005  0.4805538E+03  0.7546771E-02  0.1073729E+00
         21   -1    0    0  501  502  0.00000000000E+00  0.00000000000E+00  0.20770184259E+03  0.20770184259E+03  0.00000000000E+00 0. -1.
          2   -1    0    0  502    0 -0.00000000000E+00 -0.00000000000E+00 -0.15958208264E+04  0.15958208264E+04  0.00000000000E+00 0. -1.
         23    2    1    2    0    0 -0.10074401200E+02 -0.38175114511E+02 -0.16889484302E+03  0.19605346345E+03  0.91392885964E+02 0.  0.
         24    2    1    2    0    0 -0.35767769015E+03  0.32932611170E+03 -0.94066688696E+03  0.10619376780E+04  0.80426499944E+02 0.  0.
        -11    1    4    4    0    0 -0.14263751450E+03  0.80021859424E+02 -0.31680756747E+03  0.35653329905E+03  0.00000000000E+00 0.  1.
         12    1    4    4    0    0 -0.21504017565E+03  0.24930425228E+03 -0.62385931949E+03  0.70540437897E+03  0.00000000000E+00 0. -1.
        -13    1    3    3    0    0 -0.45237619622E+02 -0.12047046633E+02 -0.12733729315E+03  0.13567004013E+03  0.00000000000E+00 0.  1.
         13    1    3    3    0    0  0.35163218422E+02 -0.26128067878E+02 -0.41557549868E+02  0.60383423321E+02  0.00000000000E+00 0. -1.
          1    1    1    2  501    0  0.36775209135E+03 -0.29115099719E+03 -0.27855725384E+03  0.54553152753E+03  0.00000000000E+00 0. -1.
<scales pt_clust_5="13000.00000" pt_clust_6="13000.00000" pt_clust_7="13000.00000" pt_clust_8="13000.00000" pt_clust_9="473.77579"></scales>
<clustering>
<clus scale="   80.426">  5  6 -1 -1</clus>
<clus scale="   91.393">  7  8 -1 -1</clus>
<clus scale="   99.556">  2  7  1 -1</clus>
<clus scale="  473.776">  1  9  2 -1</clus>
<clus scale="  473.776">  1  5  2 -1</clus>
</clustering>
</event>
<event>
 9    2  0.6190160E-005  0.1155694E+03  0.7546771E-02  0.1251265E+00
         21   -1    0    0  501  502  0.00000000000E+00  0.00000000000E+00  0.20166848632E+03  0.20166848632E+03  0.00000000000E+00 0. -1.
         -3   -1    0    0    0  501 -0.00000000000E+00 -0.00000000000E+00 -0.19156106580E+03  0.19156106580E+03  0.00000000000E+00 0.  1.
         23    2    1    2    0    0  0.20137560738E+02 -0.78506186415E+02 -0.13762551518E+03  0.18264140228E+03  0.88590951791E+02 0.  0.
         24    2    1    2    0    0 -0.22700611308E+02  0.42979185244E+02  0.60243783211E+02  0.11612604715E+03  0.86564526763E+02 0.  0.
        -11    1    4    4    0    0  0.16930798003E+02  0.25377421876E+02 -0.11244863556E+02  0.32513265269E+02  0.00000000000E+00 0.  1.
         12    1    4    4    0    0 -0.39631409311E+02  0.17601763368E+02  0.71488646768E+02  0.83612781884E+02  0.00000000000E+00 0. -1.
        -13    1    3    3    0    0 -0.32785730491E+02 -0.18704296863E+02 -0.62426239986E+02  0.72950601669E+02  0.00000000000E+00 0. -1.
         13    1    3    3    0    0  0.52923291229E+02 -0.59801889551E+02 -0.75199275195E+02  0.10969080061E+03  0.00000000000E+00 0.  1.
         -4    1    1    2    0  502  0.25630505702E+01  0.35527001171E+02  0.87489152489E+02  0.94462102685E+02  0.00000000000E+00 0.  1.
<scales pt_clust_5="13000.00000" pt_clust_6="13000.00000" pt_clust_7="13000.00000" pt_clust_8="13000.00000" pt_clust_9="35.61934"></scales>
<clustering>
<clus scale="   35.619">  1  9  2 -1</clus>
<clus scale="   86.565">  5  6 -1 -1</clus>
<clus scale="   88.591">  7  8 -1 -1</clus>
<clus scale="  114.023">  1  5  2 -1</clus>
<clus scale="   35.619">  1  5  2 -1</clus>
</clustering>
</event>
<event>
 9    2  0.6190160E-005  0.1579149E+03  0.7546771E-02  0.1194275E+00
          2   -1    0    0  502    0 -0.00000000000E+00  0.00000000000E+00  0.57831243724E+03  0.57831243724E+03  0.00000000000E+00 0. -1.
         21   -1    0    0  501  502  0.00000000000E+00 -0.00000000000E+00 -0.20978403817E+03  0.20978403817E+03  0.00000000000E+00 0. -1.
         24    2    1    2    0    0 -0.43196701128E+02 -0.12291284318E+03  0.48020076659E+03  0.50236045972E+03  0.69280107125E+02 0.  0.
         23    2    1    2    0    0  0.92470707537E+02  0.10027119655E+03 -0.19659424902E+01  0.16335925498E+03  0.89873447957E+02 0.  0.
        -13    1    3    3    0    0 -0.39584572737E+02 -0.41236319886E+02  0.11891775365E+03  0.13194242915E+03  0.00000000000E+00 0.  1.
         14    1    3    3    0    0 -0.36121283907E+01 -0.81676523298E+02  0.36128301294E+03  0.37041803056E+03  0.00000000000E+00 0. -1.
        -13    1    4    4    0    0  0.10355422940E+03  0.61931437694E+02  0.11576117018E+02  0.12121463561E+03  0.00000000000E+00 0. -1.
         13    1    4    4    0    0 -0.11083521861E+02  0.38339758856E+02 -0.13542059508E+02  0.42144619369E+02  0.00000000000E+00 0.  1.
          1    1    1    2  501    0 -0.49274006409E+02  0.22641646634E+02 -0.10970642503E+03  0.12237676071E+03  0.00000000000E+00 0. -1.
<scales pt_clust_5="13000.00000" pt_clust_6="13000.00000" pt_clust_7="13000.00000" pt_clust_8="13000.00000" pt_clust_9="54.22704"></scales>
<clustering>
<clus scale="   54.227">  2  9  1 -1</clus>
<clus scale="   69.280">  5  6 -1 -1</clus>
<clus scale="   89.873">  7  8 -1 -1</clus>
<clus scale="  147.172">  1  5  2 -1</clus>
<clus scale="   54.227">  2  5  1 -1</clus>
</clustering>
</event>
<event>
 9    2  0.6190160E-005  0.2264464E+03  0.7546771E-02  0.1129868E+00
         -1   -1    0    0    0  501 -0.00000000000E+00  0.00000000000E+00  0.94581549252E+02  0.94581549252E+02  0.00000000000E+00 0.  1.
         21   -1    0    0  501  502  0.00000000000E+00 -0.00000000000E+00 -0.12122277121E+04  0.12122277121E+04  0.00000000000E+00 0. -1.
         23    2    1    2    0    0 -0.11932130127E+03 -0.17344716937E+03 -0.28332801506E+03  0.36419434169E+03  0.89673077890E+02 0.  0.
         24    2    1    2    0    0 -0.43227831645E+02  0.24068126795E+03 -0.41911515191E+03  0.49168679634E+03  0.79386881560E+02 0.  0.
        -11    1    4    4    0    0 -0.17723593152E+02  0.71806244787E+02 -0.64700001160E+02  0.98266742567E+02  0.00000000000E+00 0.  1.
         12    1    4    4    0    0 -0.25504238494E+02  0.16887502316E+03 -0.35441515075E+03  0.39342005378E+03  0.00000000000E+00 0. -1.
        -13    1    3    3    0    0 -0.52808276949E+02 -0.11818926135E+03 -0.10755184831E+03  0.16829977923E+03  0.00000000000E+00 0.  1.
         13    1    3    3    0    0 -0.66513024326E+02 -0.55257908015E+02 -0.17577616675E+03  0.19589456246E+03  0.00000000000E+00 0. -1.
         -2    1    1    2    0  502  0.16254913292E+03 -0.67234098584E+02 -0.41520299592E+03  0.45092812337E+03  0.00000000000E+00 0.  1.
<scales pt_clust_5="13000.00000" pt_clust_6="13000.00000" pt_clust_7="13000.00000" pt_clust_8="13000.00000" pt_clust_9="175.90521"></scales>
<clustering>
<clus scale="   79.387">  5  6 -1 -1</clus>
<clus scale="   89.673">  7  8 -1 -1</clus>
<clus scale="  175.905">  2  9  1 -1</clus>
<clus scale="  222.574">  2  5  1 -1</clus>
<clus scale="  175.905">  2  5  1 -1</clus>
</clustering>
</event>
<event>
 9    2  0.6190160E-005  0.1049188E+03  0.7546771E-02  0.1274367E+00
         -1   -1    0    0    0  501 -0.00000000000E+00  0.00000000000E+00  0.19314731485E+03  0.19314731485E+03  0.00000000000E+00 0.  1.
         21   -1    0    0  501  502  0.00000000000E+00 -0.00000000000E+00 -0.38230670149E+03  0.38230670149E+03  0.00000000000E+00 0.  1.
         23    2    1    2    0    0 -0.39483073677E+02  0.14889889069E+02  0.13141856568E+03  0.16970949891E+03  0.98741342460E+02 0.  0.
         24    2    1    2    0    0  0.15263797098E+02  0.79010594144E+02 -0.62417546733E+02  0.12997165959E+03  0.80752861670E+02 0.  0.
        -11    1    4    4    0    0 -0.24099673750E+02  0.66778226812E+02 -0.50300568837E+02  0.87007316223E+02  0.00000000000E+00 0.  1.
         12    1    4    4    0    0  0.39363470848E+02  0.12232367332E+02 -0.12116977896E+02  0.42964343369E+02  0.00000000000E+00 0. -1.
        -13    1    3    3    0    0 -0.44837567309E+02 -0.70647088672E+01  0.13872296846E+03  0.14596019845E+03  0.00000000000E+00 0.  1.
         13    1    3    3    0    0  0.53544936313E+01  0.21954597936E+02 -0.73044027739E+01  0.23749300463E+02  0.00000000000E+00 0. -1.
         -2    1    1    2    0  502  0.24219276579E+02 -0.93900483213E+02 -0.25816040559E+03  0.27577285784E+03  0.00000000000E+00 0.  1.
<scales pt_clust_5="13000.00000" pt_clust_6="13000.00000" pt_clust_7="13000.00000" pt_clust_8="13000.00000" pt_clust_9="96.97357"></scales>
<clustering>
<clus scale="   80.753">  5  6 -1 -1</clus>
<clus scale="   96.974">  2  9  1 -1</clus>
<clus scale="   96.974">  2  5  1 -1</clus>
<clus scale="   98.741">  7  8 -1 -1</clus>
<clus scale="   96.974">  2  5  1 -1</clus>
</clustering>
</event>
<event>
 9    2  0.6190160E-005  0.9703123E+02  0.7546771E-02  0.1291912E+00
         21   -1    0    0  501  502  0.00000000000E+00  0.00000000000E+00  0.42028175988E+02  0.42028175988E+02  0.00000000000E+00 0. -1.
          2   -1    0    0  502    0 -0.00000000000E+00 -0.00000000000E+00 -0.42317795439E+03  0.42317795439E+03  0.00000000000E+00 0. -1.
         24    2    1    2    0    0  0.15621695454E+02 -0.45787335426E+02 -0.21489099740E+03  0.23485269461E+03  0.81468582585E+02 0.  0.
         23    2    1    2    0    0  0.17573603871E+02  0.16713720930E+02 -0.16003397894E+03  0.18578942430E+03  0.91206665047E+02 0.  0.
        -11    1    3    3    0    0 -0.27375162431E+01 -0.25370119595E+02 -0.88776058086E+01  0.27017565552E+02  0.00000000000E+00 0.  1.
         12    1    3    3    0    0  0.18359211697E+02 -0.20417215831E+02 -0.20601339159E+03  0.20783512906E+03  0.00000000000E+00 0. -1.
        -13    1    4    4    0    0 -0.27684805780E+02  0.33852822112E+02 -0.96293368327E+02  0.10575856854E+03  0.00000000000E+00 0.  1.
         13    1    4    4    0    0  0.45258409651E+02 -0.17139101182E+02 -0.63740610609E+02  0.80030855763E+02  0.00000000000E+00 0. -1.
          1    1    1    2  501    0 -0.33195299324E+02  0.29073614496E+02 -0.62248020706E+01  0.44564011466E+02  0.00000000000E+00 0. -1.
<scales pt_clust_5="13000.00000" pt_clust_6="13000.00000" pt_clust_7="13000.00000" pt_clust_8="13000.00000" pt_clust_9="44.12712"></scales>
<clustering>
<clus scale="   44.127">  1  9  2 -1</clus>
<clus scale="   81.469">  5  6 -1 -1</clus>
<clus scale="   87.941">  2  5  1 -1</clus>
<clus scale="   91.207">  7  8 -1 -1</clus>
<clus scale="   44.127">  1  5  2 -1</clus>
</clustering>
</event>
<event>
 9    2  0.6190160E-005  0.9440965E+02  0.7546771E-02  0.1297282E+00
         -3   -1    0    0    0  501 -0.00000000000E+00  0.00000000000E+00  0.95869198464E+02  0.95869198464E+02  0.00000000000E+00 0.  1.
         21   -1    0    0  501  502  0.00000000000E+00 -0.00000000000E+00 -0.18159744762E+03  0.18159744762E+03  0.00000000000E+00 0. -1.
         24    2    1    2    0    0 -0.15410987736E+02  0.11151884249E+02  0.30225136114E+02  0.90833124450E+02  0.83517869818E+02 0.  0.
         23    2    1    2    0    0 -0.60445369725E+01 -0.46329046491E+02 -0.68010779083E+02  0.12341749699E+03  0.91779602939E+02 0.  0.
        -11    1    3    3    0    0 -0.25540173303E+02  0.43752295058E+02  0.24289691792E+02  0.56183208368E+02  0.00000000000E+00 0.  1.
         12    1    3    3    0    0  0.10129185567E+02 -0.32600410809E+02  0.59354443221E+01  0.34649916082E+02  0.00000000000E+00 0. -1.
        -11    1    4    4    0    0 -0.31441806217E+02  0.30173422823E+00  0.63170913894E+01  0.32071542922E+02  0.00000000000E+00 0.  1.
         11    1    4    4    0    0  0.25397269245E+02 -0.46630780719E+02 -0.74327870473E+02  0.91345954068E+02  0.00000000000E+00 0. -1.
         -4    1    1    2    0  502  0.21455524708E+02  0.35177162242E+02 -0.47942606190E+02  0.63216024647E+02  0.00000000000E+00 0.  1.
<scales pt_clust_5="13000.00000" pt_clust_6="13000.00000" pt_clust_7="13000.00000" pt_clust_8="13000.00000" pt_clust_9="41.20403"></scales>
<clustering>
<clus scale="   41.204">  2  9  1 -1</clus>
<clus scale="   83.518">  5  6 -1 -1</clus>
<clus scale="   86.400">  1  5  2 -1</clus>
<clus scale="   91.780">  7  8 -1 -1</clus>
<clus scale="   41.204">  2  5  1 -1</clus>
</clustering>
</event>
<event>
 9    2  0.6190160E-005  0.1542428E+03  0.7546771E-02  0.1213560E+00
         -1   -1    0    0    0  501 -0.00000000000E+00  0.00000000000E+00  0.29988317395E+03  0.29988317395E+03  0.00000000000E+00 0.  1.
         21   -1    0    0  501  502  0.00000000000E+00 -0.00000000000E+00 -0.24430361324E+03  0.24430361324E+03  0.00000000000E+00 0.  1.
         23    2    1    2    0    0 -0.43379731786E+02  0.20875580287E+02 -0.43834773716E+02  0.11302204104E+03  0.92384540872E+02 0.  0.
         24    2    1    2    0    0  0.14439565362E+03  0.59361673366E+02  0.20102372794E+03  0.26694933218E+03  0.80482878343E+02 0.  0.
        -11    1    4    4    0    0  0.73135971604E+02  0.12776669216E+02  0.15084572227E+03  0.16812657596E+03  0.00000000000E+00 0.  1.
         12    1    4    4    0    0  0.71259682013E+02  0.46585004151E+02  0.50178005672E+02  0.98822756213E+02  0.00000000000E+00 0. -1.
        -11    1    3    3    0    0 -0.62873360719E+02  0.33966915992E+02 -0.10473343705E+02  0.72225354264E+02  0.00000000000E+00 0.  1.
         11    1    3    3    0    0  0.19493628934E+02 -0.13091335705E+02 -0.33361430011E+02  0.40796686777E+02  0.00000000000E+00 0. -1.
         -2    1    1    2    0  502 -0.10101592183E+03 -0.80237253653E+02 -0.10160939351E+03  0.16421541398E+03  0.00000000000E+00 0.  1.
<scales pt_clust_5="13000.00000" pt_clust_6="13000.00000" pt_clust_7="13000.00000" pt_clust_8="13000.00000" pt_clust_9="131.58017"></scales>
<clustering>
<clus scale="   80.483">  5  6 -1 -1</clus>
<clus scale="   92.385">  7  8 -1 -1</clus>
<clus scale="  104.175">  1  7  2 -1</clus>
<clus scale="  131.580">  2  9  1 -1</clus>
<clus scale="  131.580">  2  5  1 -1</clus>
</clustering>
</event>
<event>
 9    2  0.6190160E-005  0.1023306E+03  0.7546771E-02  0.1285824E+00
          2   -1    0    0  502    0 -0.00000000000E+00  0.00000000000E+00  0.39379599006E+03  0.39379599006E+03  0.00000000000E+00 0. -1.
         21   -1    0    0  501  502  0.00000000000E+00 -0.00000000000E+00 -0.81968459364E+02  0.81968459364E+02  0.00000000000E+00 0. -1.
         23    2    1    2    0    0  0.40741634891E+01 -0.11747648386E+02  0.17665221174E+03  0.20319581862E+03  0.99639002103E+02 0.  0.
         24    2    1    2    0    0 -0.19770174416E+02 -0.50300022586E+02  0.17285943542E+03  0.19829635558E+03  0.80747186678E+02 0.  0.
        -13    1    4    4    0    0 -0.43751519484E+02 -0.45515289533E+02  0.15682044747E+03  0.16905173700E+03  0.00000000000E+00 0.  1.
         14    1    4    4    0    0  0.23981345067E+02 -0.47847330527E+01  0.16038987946E+02  0.29244618581E+02  0.00000000000E+00 0. -1.
        -13    1    3    3    0    0 -0.46859591075E+02 -0.14673654757E+01  0.10179279696E+03  0.11207028129E+03  0.00000000000E+00 0.  1.
         13    1    3    3    0    0  0.50933754564E+02 -0.10280282910E+02  0.74859414788E+02  0.91125537326E+02  0.00000000000E+00 0. -1.
          1    1    1    2  501    0  0.15696010927E+02  0.62047670972E+02 -0.37684116467E+02  0.74272275217E+02  0.00000000000E+00 0. -1.
<scales pt_clust_5="13000.00000" pt_clust_6="13000.00000" pt_clust_7="13000.00000" pt_clust_8="13000.00000" pt_clust_9="64.00217"></scales>
<clustering>
<clus scale="   64.002">  2  9  1 -1</clus>
<clus scale="   80.747">  5  6 -1 -1</clus>
<clus scale="   84.046">  2  5  1 -1</clus>
<clus scale="   99.639">  7  8 -1 -1</clus>
<clus scale="   64.002">  2  5  1 -1</clus>
</clustering>
</event>
<event>
 9    2  0.6190160E-005  0.1036032E+03  0.7546771E-02  0.1278249E+00
         21   -1    0    0  501  502  0.00000000000E+00  0.00000000000E+00  0.50766194823E+02  0.50766194823E+02  0.00000000000E+00 0.  1.
          2   -1    0    0  502    0 -0.00000000000E+00 -0.00000000000E+00 -0.51655738240E+03  0.51655738240E+03  0.00000000000E+00 0. -1.
         23    2    1    2    0    0  0.40304622747E+02  0.16591135592E+02 -0.37115022340E+03  0.38491824874E+03  0.92248802074E+02 0.  0.
         24    2    1    2    0    0 -0.44909366270E+02 -0.37738620284E+02 -0.11529524647E+03  0.15248845784E+03  0.80738350726E+02 0.  0.
        -13    1    4    4    0    0 -0.19700235210E+02 -0.46192743939E+02 -0.20854730677E+02  0.54376361147E+02  0.00000000000E+00 0.  1.
         14    1    4    4    0    0 -0.25209131060E+02  0.84541236550E+01 -0.94440515789E+02  0.98112096696E+02  0.00000000000E+00 0. -1.
        -11    1    3    3    0    0  0.61894569327E+00 -0.25030767514E+02 -0.30562680729E+02  0.39509490878E+02  0.00000000000E+00 0.  1.
         11    1    3    3    0    0  0.39685677054E+02  0.41621903106E+02 -0.34058754267E+03  0.34540875786E+03  0.00000000000E+00 0. -1.
          1    1    1    2  501    0  0.46047435227E+01  0.21147484692E+02  0.20654282295E+02  0.29916870639E+02  0.00000000000E+00 0. -1.
<scales pt_clust_5="13000.00000" pt_clust_6="13000.00000" pt_clust_7="13000.00000" pt_clust_8="13000.00000" pt_clust_9="21.64301"></scales>
<clustering>
<clus scale="   21.643">  1  9  2 -1</clus>
<clus scale="   80.738">  5  6 -1 -1</clus>
<clus scale="   92.249">  7  8 -1 -1</clus>
<clus scale="   93.501">  1  5  2 -1</clus>
<clus scale="   21.643">  1  5  2 -1</clus>
</clustering>
</event>
<event>
 9    2  0.6190160E-005  0.1704734E+03  0.7546771E-02  0.1195867E+00
          2   -1    0    0  502    0 -0.00000000000E+00  0.00000000000E+00  0.97266854264E+03  0.97266854264E+03  0.00000000000E+00 0. -1.
         21   -1    0    0  501  502  0.00000000000E+00 -0.00000000000E+00 -0.81480815868E+02  0.81480815868E+02  0.00000000000E+00 0. -1.
         23    2    1    2    0    0  0.15870410649E+02  0.64935316783E+02  0.44799714513E+03  0.46202218574E+03  0.91074654963E+02 0.  0.
         24    2    1    2    0    0 -0.11273762255E+03  0.60846098406E+02  0.40016181408E+03  0.42764101533E+03  0.79594857382E+02 0.  0.
        -13    1    4    4    0    0  0.57643303422E+00  0.28167796655E+02  0.12736792055E+03  0.13044671030E+03  0.00000000000E+00 0.  1.
         14    1    4    4    0    0 -0.11331405558E+03  0.32678301751E+02  0.27279389353E+03  0.29719430503E+03  0.00000000000E+00 0. -1.
        -11    1    3    3    0    0 -0.31365764372E+02  0.14085452001E+01  0.17434479281E+03  0.17714937751E+03  0.00000000000E+00 0.  1.
         11    1    3    3    0    0  0.47236175022E+02  0.63526771583E+02  0.27365235232E+03  0.28487280823E+03  0.00000000000E+00 0. -1.
          1    1    1    2  501    0  0.96867211900E+02 -0.12578141519E+03  0.43028767569E+02  0.16448615743E+03  0.00000000000E+00 0. -1.
<scales pt_clust_5="13000.00000" pt_clust_6="13000.00000" pt_clust_7="13000.00000" pt_clust_8="13000.00000" pt_clust_9="150.75087"></scales>
<clustering>
<clus scale="   79.595">  5  6 -1 -1</clus>
<clus scale="   91.075">  7  8 -1 -1</clus>
<clus scale="  112.974">  1  7  2 -1</clus>
<clus scale="  150.751">  2  9  1 -1</clus>
<clus scale="  150.751">  2  5  1 -1</clus>
</clustering>
</event>
<event>
 9    2  0.6190160E-005  0.1089462E+03  0.7546771E-02  0.1264404E+00
         21   -1    0    0  501  502  0.00000000000E+00  0.00000000000E+00  0.19029506082E+03  0.19029506082E+03  0.00000000000E+00 0.  1.
         -1   -1    0    0    0  501 -0.00000000000E+00 -0.00000000000E+00 -0.24745403708E+03  0.24745403708E+03  0.00000000000E+00 0.  1.
         23    2    1    2    0    0  0.53787144706E+02 -0.55592654692E+02 -0.18954870583E+03  0.22213403123E+03  0.86204499651E+02 0.  0.
         24    2    1    2    0    0  0.17654823641E+02  0.38328545015E+02  0.46767225255E+02  0.10277350709E+03  0.81206220452E+02 0.  0.
        -11    1    4    4    0    0  0.49368828495E+02  0.32000416773E+02  0.34389318587E+02  0.68146409542E+02  0.00000000000E+00 0.  1.
         12    1    4    4    0    0 -0.31714004854E+02  0.63281282419E+01  0.12377906668E+02  0.34627097545E+02  0.00000000000E+00 0. -1.
        -11    1    3    3    0    0  0.26236015041E+01  0.22395835064E+02 -0.36974962285E+02  0.43308250358E+02  0.00000000000E+00 0. -1.
         11    1    3    3    0    0  0.51163543202E+02 -0.77988489757E+02 -0.15257374354E+03  0.17882578088E+03  0.00000000000E+00 0.  1.
         -2    1    1    2    0  502 -0.71441968347E+02  0.17264109678E+02  0.85622504308E+02  0.11284155958E+03  0.00000000000E+00 0.  1.
<scales pt_clust_5="13000.00000" pt_clust_6="13000.00000" pt_clust_7="13000.00000" pt_clust_8="13000.00000" pt_clust_9="73.49833"></scales>
<clustering>
<clus scale="   73.498">  1  9  2 -1</clus>
<clus scale="   81.206">  5  6 -1 -1</clus>
<clus scale="   86.204">  7  8 -1 -1</clus>
<clus scale="  105.036">  1  5  2 -1</clus>
<clus scale="   73.498">  1  5  2 -1</clus>
</clustering>
</event>
<event>
 9    2  0.6190160E-005  0.1111784E+03  0.7546771E-02  0.1262797E+00
         21   -1    0    0  501  502  0.00000000000E+00  0.00000000000E+00  0.56162332089E+02  0.56162332089E+02  0.00000000000E+00 0. -1.
         -1   -1    0    0    0  501 -0.00000000000E+00 -0.00000000000E+00 -0.47279218887E+03  0.47279218887E+03  0.00000000000E+00 0.  1.
         24    2    1    2    0    0 -0.57412288522E+02 -0.27280195716E+02 -0.33651437733E+03  0.35175541878E+03  0.80309205830E+02 0.  0.
         23    2    1    2    0    0  0.37165618029E+02  0.57144290896E+02 -0.82667259343E+02  0.14102862489E+03  0.91697568806E+02 0.  0.
        -13    1    3    3    0    0 -0.25840454850E+00 -0.39085568862E+02 -0.19130586756E+03  0.19525799198E+03  0.00000000000E+00 0.  1.
         14    1    3    3    0    0 -0.57153883973E+02  0.11805373146E+02 -0.14520850977E+03  0.15649742681E+03  0.00000000000E+00 0. -1.
        -11    1    4    4    0    0  0.20519546610E+02  0.24458212900E+02 -0.96639862179E+02  0.10177680941E+03  0.00000000000E+00 0.  1.
         11    1    4    4    0    0  0.16646071419E+02  0.32686077996E+02  0.13972602836E+02  0.39251815480E+02  0.00000000000E+00 0. -1.
         -2    1    1    2    0  502  0.20246670493E+02 -0.29864095181E+02  0.25517798881E+01  0.36170477293E+02  0.00000000000E+00 0.  1.
<scales pt_clust_5="13000.00000" pt_clust_6="13000.00000" pt_clust_7="13000.00000" pt_clust_8="13000.00000" pt_clust_9="36.08035"></scales>
<clustering>
<clus scale="   36.080">  1  9  2 -1</clus>
<clus scale="   80.309">  5  6 -1 -1</clus>
<clus scale="   91.698">  7  8 -1 -1</clus>
<clus scale="  101.989">  2  5  1 -1</clus>
<clus scale="   36.080">  1  5  2 -1</clus>
</clustering>
</event>
<event>
 9    2  0.6190160E-005  0.1014782E+03  0.7546771E-02  0.1284325E+00
         -1   -1    0    0    0  501 -0.00000000000E+00  0.00000000000E+00  0.27557593441E+03  0.27557593441E+03  0.00000000000E+00 0.  1.
         21   -1    0    0  501  502  0.00000000000E+00 -0.00000000000E+00 -0.75414113574E+02  0.75414113574E+02  0.00000000000E+00 0. -1.
         23    2    1    2    0    0 -0.63079846537E+01 -0.48889740283E+02  0.18702521284E+03  0.21403721320E+03  0.91670611526E+02 0.  0.
         24    2    1    2    0    0  0.38202281965E+02  0.15703765842E+02 -0.44017874907E+01  0.87696866454E+02  0.77235626778E+02 0.  0.
        -11    1    4    4    0    0 -0.23977922256E+02  0.49351873459E+01 -0.12214780250E+01  0.24510994236E+02  0.00000000000E+00 0.  1.
         12    1    4    4    0    0  0.62180204221E+02  0.10768578496E+02 -0.31803094657E+01  0.63185872219E+02  0.00000000000E+00 0. -1.
        -13    1    3    3    0    0 -0.43140593663E+02 -0.51149196983E+02  0.11304010615E+03  0.13135987505E+03  0.00000000000E+00 0.  1.
         13    1    3    3    0    0  0.36832609009E+02  0.22594566994E+01  0.73985106692E+02  0.82677338148E+02  0.00000000000E+00 0. -1.
         -2    1    1    2    0  502 -0.31894297311E+02  0.33185974441E+02  0.17538395486E+02  0.49255968337E+02  0.00000000000E+00 0.  1.
<scales pt_clust_5="13000.00000" pt_clust_6="13000.00000" pt_clust_7="13000.00000" pt_clust_8="13000.00000" pt_clust_9="46.02776"></scales>
<clustering>
<clus scale="   46.028">  2  9  1 -1</clus>
<clus scale="   77.236">  5  6 -1 -1</clus>
<clus scale="   88.655">  2  5  1 -1</clus>
<clus scale="   91.671">  7  8 -1 -1</clus>
<clus scale="   46.028">  2  5  1 -1</clus>
</clustering>
</event>
<event>
 9    2  0.6190160E-005  0.9524069E+02  0.7546771E-02  0.1306767E+00
         21   -1    0    0  501  502  0.00000000000E+00  0.00000000000E+00  0.69921412071E+02  0.69921412071E+02  0.00000000000E+00 0. -1.
          2   -1    0    0  502    0 -0.00000000000E+00 -0.00000000000E+00 -0.67961452767E+03  0.67961452767E+03  0.00000000000E+00 0. -1.
         24    2    1    2    0    0 -0.21728962350E+02 -0.11764509071E+02 -0.38392388812E+03  0.39037788139E+03  0.66232823688E+02 0.  0.
         23    2    1    2    0    0  0.43201848861E+01  0.34351087164E+02 -0.28062302695E+03  0.29733445153E+03  0.91977343003E+02 0.  0.
        -11    1    3    3    0    0 -0.32460042640E+02  0.78313895980E+00 -0.84877469124E+02  0.90876027860E+02  0.00000000000E+00 0.  1.
         12    1    3    3    0    0  0.10731080290E+02 -0.12547648030E+02 -0.29904641900E+03  0.29950185353E+03  0.00000000000E+00 0. -1.
        -13    1    4    4    0    0  0.39202552329E+02  0.38505730892E+02 -0.10802616358E+03  0.12119894157E+03  0.00000000000E+00 0.  1.
         13    1    4    4    0    0 -0.34882367443E+02 -0.41546437282E+01 -0.17259686337E+03  0.17613550996E+03  0.00000000000E+00 0. -1.
          1    1    1    2  501    0  0.17408777464E+02 -0.22586578093E+02  0.54853799473E+02  0.61823606813E+02  0.00000000000E+00 0. -1.
<scales pt_clust_5="13000.00000" pt_clust_6="13000.00000" pt_clust_7="13000.00000" pt_clust_8="13000.00000" pt_clust_9="28.51700"></scales>
<clustering>
<clus scale="   28.517">  1  9  2 -1</clus>
<clus scale="   66.233">  5  6 -1 -1</clus>
<clus scale="   70.695">  2  5  1 -1</clus>
<clus scale="   91.977">  7  8 -1 -1</clus>
<clus scale="   28.517">  1  5  2 -1</clus>
</clustering>
</event>
<event>
 9    2  0.6190160E-005  0.1691455E+03  0.7546771E-02  0.1179860E+00
         -1   -1    0    0    0  501 -0.00000000000E+00  0.00000000000E+00  0.39102579667E+03  0.39102579667E+03  0.00000000000E+00 0.  1.
         21   -1    0    0  501  502  0.00000000000E+00 -0.00000000000E+00 -0.12210526694E+03  0.12210526694E+03  0.00000000000E+00 0.  1.
         23    2    1    2    0    0 -0.22349922992E+02  0.15023444991E+03  0.21476712965E+03  0.27832256895E+03  0.90931971328E+02 0.  0.
         24    2    1    2    0    0  0.77036906522E+02 -0.11141182546E+03  0.54087337180E+02  0.16774235790E+03  0.82853960511E+02 0.  0.
        -13    1    4    4    0    0  0.53145203479E+02 -0.11069106826E+03  0.17485250187E+02  0.12402684878E+03  0.00000000000E+00 0.  1.
         14    1    4    4    0    0  0.23891703043E+02 -0.72075720162E+00  0.36602086993E+02  0.43715509119E+02  0.00000000000E+00 0. -1.
        -11    1    3    3    0    0 -0.42264169563E+02  0.24242557024E+02  0.48326846283E+02  0.68625401067E+02  0.00000000000E+00 0. -1.
         11    1    3    3    0    0  0.19914246572E+02  0.12599189289E+03  0.16644028337E+03  0.20969716788E+03  0.00000000000E+00 0.  1.
         -2    1    1    2    0  502 -0.54686983530E+02 -0.38822624452E+02  0.66062898134E-01  0.67066136770E+02  0.00000000000E+00 0.  1.
<scales pt_clust_5="13000.00000" pt_clust_6="13000.00000" pt_clust_7="13000.00000" pt_clust_8="13000.00000" pt_clust_9="67.06610"></scales>
<clustering>
<clus scale="   67.066">  2  9  1 -1</clus>
<clus scale="   82.854">  5  6 -1 -1</clus>
<clus scale="   90.932">  7  8 -1 -1</clus>
<clus scale="  164.943">  2  5  1 -1</clus>
<clus scale="   67.066">  2  5  1 -1</clus>
</clustering>
</event>
<event>
 9    2  0.6190160E-005  0.9327898E+02  0.7546771E-02  0.1302072E+00
         21   -1    0    0  501  502  0.00000000000E+00  0.00000000000E+00  0.34124291430E+03  0.34124291430E+03  0.00000000000E+00 0. -1.
          2   -1    0    0  502    0 -0.00000000000E+00 -0.00000000000E+00 -0.26386933995E+03  0.26386933995E+03  0.00000000000E+00 0. -1.
         23    2    1    2    0    0  0.16361588143E+02 -0.20987622178E+02 -0.16510821254E+03  0.19072223893E+03  0.91684615530E+02 0.  0.
         24    2    1    2    0    0  0.22688360711E+02  0.10785594225E+02 -0.63772237146E+02  0.10548791575E+03  0.80185481125E+02 0.  0.
        -11    1    4    4    0    0  0.11615782275E+02  0.31350846712E+02  0.41236785368E+01  0.33686892289E+02  0.00000000000E+00 0.  1.
         12    1    4    4    0    0  0.11072578435E+02 -0.20565252487E+02 -0.67895915683E+02  0.71801023457E+02  0.00000000000E+00 0. -1.
        -13    1    3    3    0    0  0.28618551660E+02  0.28251269542E+02 -0.45083970776E+02  0.60412913776E+02  0.00000000000E+00 0.  1.
         13    1    3    3    0    0 -0.12256963517E+02 -0.49238891721E+02 -0.12002424176E+03  0.13030932516E+03  0.00000000000E+00 0. -1.
          1    1    1    2  501    0 -0.39049948853E+02  0.10202027953E+02  0.30625402403E+03  0.30890209957E+03  0.00000000000E+00 0. -1.
<scales pt_clust_5="13000.00000" pt_clust_6="13000.00000" pt_clust_7="13000.00000" pt_clust_8="13000.00000" pt_clust_9="40.36062"></scales>
<clustering>
<clus scale="   40.361">  1  9  2 -1</clus>
<clus scale="   80.185">  5  6 -1 -1</clus>
<clus scale="   82.004">  1  5  2 -1</clus>
<clus scale="   91.685">  7  8 -1 -1</clus>
<clus scale="   40.361">  1  5  2 -1</clus>
</clustering>
</event>
<event>
 9    2  0.6190160E-005  0.1620294E+03  0.7546771E-02  0.1207378E+00
         21   -1    0    0  501  502  0.00000000000E+00  0.00000000000E+00  0.47838652388E+03  0.47838652388E+03  0.00000000000E+00 0.  1.
         -3   -1    0    0    0  501 -0.00000000000E+00 -0.00000000000E+00 -0.20560759868E+03  0.20560759868E+03  0.00000000000E+00 0.  1.
         23    2    1    2    0    0  0.37491704003E+02  0.58727938324E+01 -0.10139005723E+03  0.14420100203E+03  0.95256851215E+02 0.  0.
         24    2    1    2    0    0  0.61305151226E+02 -0.11074868342E+03  0.12579065010E+02  0.15055406905E+03  0.80527649818E+02 0.  0.
        -13    1    4    4    0    0  0.53663367148E+02 -0.58202637562E+02  0.42242397339E+02  0.89731399888E+02  0.00000000000E+00 0.  1.
         14    1    4    4    0    0  0.76417840779E+01 -0.52546045863E+02 -0.29663332329E+02  0.60822669167E+02  0.00000000000E+00 0. -1.
        -13    1    3    3    0    0  0.28712282249E+02  0.49580837940E+02 -0.65057839192E+02  0.86690121024E+02  0.00000000000E+00 0.  1.
         13    1    3    3    0    0  0.87794217538E+01 -0.43708044107E+02 -0.36332218041E+02  0.57510881003E+02  0.00000000000E+00 0. -1.
         -4    1    1    2    0  502 -0.98796855229E+02  0.10487588959E+03  0.36158991742E+03  0.38923905149E+03  0.00000000000E+00 0.  1.
<scales pt_clust_5="13000.00000" pt_clust_6="13000.00000" pt_clust_7="13000.00000" pt_clust_8="13000.00000" pt_clust_9="140.60171"></scales>
<clustering>
<clus scale="   80.528">  5  6 -1 -1</clus>
<clus scale="   95.257">  7  8 -1 -1</clus>
<clus scale="  102.538">  2  7  1 -1</clus>
<clus scale="  140.602">  1  9  2 -1</clus>
<clus scale="  140.602">  1  5  2 -1</clus>
</clustering>
</event>
<event>
 9    2  0.6190160E-005  0.9483226E+02  0.7546771E-02  0.1298904E+00
         -1   -1    0    0    0  501 -0.00000000000E+00  0.00000000000E+00  0.13227791128E+03  0.13227791128E+03  0.00000000000E+00 0.  1.
         21   -1    0    0  501  502  0.00000000000E+00 -0.00000000000E+00 -0.36011232370E+03  0.36011232370E+03  0.00000000000E+00 0.  1.
         23    2    1    2    0    0 -0.19017036391E+02  0.69311604198E+01  0.95509057016E+02  0.13501877684E+03  0.93265221113E+02 0.  0.
         24    2    1    2    0    0 -0.18461700887E+02  0.27131291157E+02 -0.27019431567E+03  0.28395661699E+03  0.80928676946E+02 0.  0.
        -11    1    4    4    0    0 -0.34194471397E+02 -0.11251674525E+02 -0.19294189918E+03  0.19627133901E+03  0.00000000000E+00 0.  1.
         12    1    4    4    0    0  0.15732770510E+02  0.38382965682E+02 -0.77252416487E+02  0.87685277986E+02  0.00000000000E+00 0. -1.
        -13    1    3    3    0    0 -0.23889286507E+02  0.30554667192E+02  0.10275670865E+03  0.10983272221E+03  0.00000000000E+00 0.  1.
         13    1    3    3    0    0  0.48722501159E+01 -0.23623506772E+02 -0.72476516312E+01  0.25186054625E+02  0.00000000000E+00 0. -1.
         -2    1    1    2    0  502  0.37478737279E+02 -0.34062451577E+02 -0.53149153758E+02  0.73414841147E+02  0.00000000000E+00 0.  1.
<scales pt_clust_5="13000.00000" pt_clust_6="13000.00000" pt_clust_7="13000.00000" pt_clust_8="13000.00000" pt_clust_9="50.64490"></scales>
<clustering>
<clus scale="   50.645">  2  9  1 -1</clus>
<clus scale="   80.929">  5  6 -1 -1</clus>
<clus scale="   82.730">  2  5  1 -1</clus>
<clus scale="   93.265">  7  8 -1 -1</clus>
<clus scale="   50.645">  2  5  1 -1</clus>
</clustering>
</event>
<event>
 9    2  0.6190160E-005  0.1661274E+03  0.7546771E-02  0.1210465E+00
         21   -1    0    0  501  502  0.00000000000E+00  0.00000000000E+00  0.22580457074E+03  0.22580457074E+03  0.00000000000E+00 0. -1.
         -3   -1    0    0    0  501 -0.00000000000E+00 -0.00000000000E+00 -0.18921132552E+03  0.18921132552E+03  0.00000000000E+00 0.  1.
         24    2    1    2    0    0 -0.16757148182E+02  0.28726832352E+02  0.38924658770E+02  0.97191212448E+02  0.82613375458E+02 0.  0.
         23    2    1    2    0    0 -0.12895224475E+03 -0.42798928173E+02  0.34611579108E+02  0.16684774592E+03  0.90442131957E+02 0.  0.
        -11    1    3    3    0    0  0.32031496001E+01 -0.23915757910E+02  0.32569611267E+02  0.40533976142E+02  0.00000000000E+00 0.  1.
         12    1    3    3    0    0 -0.19960297782E+02  0.52642590262E+02  0.63550475033E+01  0.56657236306E+02  0.00000000000E+00 0. -1.
        -13    1    4    4    0    0 -0.68557551381E+02 -0.62284496154E+02  0.44262187919E+02  0.10265786668E+03  0.00000000000E+00 0. -1.
         13    1    4    4    0    0 -0.60394693365E+02  0.19485567981E+02 -0.96506088111E+01  0.64189879238E+02  0.00000000000E+00 0.  1.
         -4    1    1    2    0  502  0.14570939293E+03  0.14072095821E+02 -0.36942992661E+02  0.15097693789E+03  0.00000000000E+00 0.  1.
<scales pt_clust_5="13000.00000" pt_clust_6="13000.00000" pt_clust_7="13000.00000" pt_clust_8="13000.00000" pt_clust_9="139.35041"></scales>
<clustering>
<clus scale="   82.613">  5  6 -1 -1</clus>
<clus scale="   89.056">  2  5  1 -1</clus>
<clus scale="   90.442">  7  8 -1 -1</clus>
<clus scale="  139.350">  1  9  2 -1</clus>
<clus scale="  139.350">  1  5  2 -1</clus>
</clustering>
</event>
<event>
 9    2  0.6190160E-005  0.1410252E+03  0.7546771E-02  0.1214380E+00
          2   -1    0    0  502    0 -0.00000000000E+00  0.00000000000E+00  0.39800813664E+03  0.39800813664E+03  0.00000000000E+00 0. -1.
         21   -1    0    0  501  502  0.00000000000E+00 -0.00000000000E+00 -0.95192423407E+02  0.95192423407E+02  0.00000000000E+00 0.  1.
         23    2    1    2    0    0 -0.12674175625E+03 -0.33812408633E+02  0.13827113590E+03  0.21124128764E+03  0.91089092796E+02 0.  0.
         24    2    1    2    0    0  0.82602926868E+02 -0.34354933490E+02  0.27921605786E+02  0.12302262104E+03  0.79695948685E+02 0.  0.
        -11    1    4    4    0    0  0.11483901883E+02 -0.27883083671E+02 -0.20746518313E+02  0.36602791965E+02  0.00000000000E+00 0.  1.
         12    1    4    4    0    0  0.71119024985E+02 -0.64718498184E+01  0.48668124099E+02  0.86419829080E+02  0.00000000000E+00 0. -1.
        -13    1    3    3    0    0 -0.12864547813E+03 -0.30310690508E+01  0.11538821700E+03  0.17283890489E+03  0.00000000000E+00 0. -1.
         13    1    3    3    0    0  0.19037218749E+01 -0.30781339583E+02  0.22882918901E+02  0.38402382750E+02  0.00000000000E+00 0.  1.
          1    1    1    2  501    0  0.44138829384E+02  0.68167342123E+02  0.13662297154E+03  0.15893665136E+03  0.00000000000E+00 0. -1.
<scales pt_clust_5="13000.00000" pt_clust_6="13000.00000" pt_clust_7="13000.00000" pt_clust_8="13000.00000" pt_clust_9="81.20979"></scales>
<clustering>
<clus scale="   79.696">  5  6 -1 -1</clus>
<clus scale="   81.210">  2  9  1 -1</clus>
<clus scale="   91.089">  7  8 -1 -1</clus>
<clus scale="  133.949">  2  5  1 -1</clus>
<clus scale="   81.210">  2  5  1 -1</clus>
</clustering>
</event>
<event>
 9    2  0.6190160E-005  0.9467293E+02  0.7546771E-02  0.1298469E+00
         21   -1    0    0  501  502  0.00000000000E+00  0.00000000000E+00  0.52466127103E+02  0.52466127103E+02  0.00000000000E+00 0.  1.
          4   -1    0    0  502    0 -0.00000000000E+00 -0.00000000000E+00 -0.39643651608E+03  0.39643651608E+03  0.00000000000E+00 0. -1.
         23    2    1    2    0    0  0.95072750861E+01  0.16097822051E+02 -0.25873707979E+03  0.27504115317E+03  0.91396013701E+02 0.  0.
         24    2    1    2    0    0 -0.98339052657E+01 -0.54590512553E+02 -0.22081176726E+02  0.99902138050E+02  0.80100119025E+02 0.  0.
        -13    1    4    4    0    0 -0.13017322071E+02 -0.65122225972E+02  0.89196353496E+01  0.67006827147E+02  0.00000000000E+00 0.  1.
         14    1    4    4    0    0  0.31834168058E+01  0.10531713419E+02 -0.31000812075E+02  0.32895310903E+02  0.00000000000E+00 0. -1.
        -13    1    3    3    0    0  0.91389031389E+01 -0.37429215045E+02 -0.86860675119E+02  0.95022326701E+02  0.00000000000E+00 0.  1.
         13    1    3    3    0    0  0.36837194723E+00  0.53527037096E+02 -0.17187640467E+03  0.18001882647E+03  0.00000000000E+00 0. -1.
          3    1    1    2  501    0  0.32663017961E+00  0.38492690502E+02 -0.63152132458E+02  0.73959351967E+02  0.00000000000E+00 0. -1.
<scales pt_clust_5="13000.00000" pt_clust_6="13000.00000" pt_clust_7="13000.00000" pt_clust_8="13000.00000" pt_clust_9="38.49410"></scales>
<clustering>
<clus scale="   38.494">  1  9  2 -1</clus>
<clus scale="   80.100">  5  6 -1 -1</clus>
<clus scale="   83.820">  1  5  2 -1</clus>
<clus scale="   91.396">  7  8 -1 -1</clus>
<clus scale="   38.494">  1  5  2 -1</clus>
</clustering>
</event>
<event>
 9    2  0.6190160E-005  0.1939419E+03  0.7546771E-02  0.1154953E+00
         21   -1    0    0  501  502  0.00000000000E+00  0.00000000000E+00  0.29533251149E+02  0.29533251149E+02  0.00000000000E+00 0. -1.
          2   -1    0    0  502    0 -0.00000000000E+00 -0.00000000000E+00 -0.70018031873E+03  0.70018031873E+03  0.00000000000E+00 0. -1.
         24    2    1    2    0    0 -0.27347759330E+02  0.45800811577E+02 -0.25705644868E+03  0.27467778894E+03  0.80772864552E+02 0.  0.
         23    2    1    2    0    0 -0.19994586947E+02  0.34474297832E+02 -0.17614125283E+03  0.19995228012E+03  0.85830720949E+02 0.  0.
        -13    1    3    3    0    0 -0.13393676793E+02 -0.22985526584E+02 -0.69130302079E+02  0.74072421831E+02  0.00000000000E+00 0.  1.
         14    1    3    3    0    0 -0.13954082537E+02  0.68786338161E+02 -0.18792614660E+03  0.20060536710E+03  0.00000000000E+00 0. -1.
        -11    1    4    4    0    0  0.51026587939E+01  0.49528394293E+02 -0.15766957695E+03  0.16534447213E+03  0.00000000000E+00 0.  1.
         11    1    4    4    0    0 -0.25097245741E+02 -0.15054096461E+02 -0.18471675875E+02  0.34607807987E+02  0.00000000000E+00 0. -1.
          1    1    1    2  501    0  0.47342346276E+02 -0.80275109409E+02 -0.23744936608E+03  0.25508350083E+03  0.00000000000E+00 0. -1.
<scales pt_clust_5="13000.00000" pt_clust_6="13000.00000" pt_clust_7="13000.00000" pt_clust_8="13000.00000" pt_clust_9="93.19549"></scales>
<clustering>
<clus scale="   80.773">  5  6 -1 -1</clus>
<clus scale="   85.831">  7  8 -1 -1</clus>
<clus scale="   90.244">  5  7 -1 -1</clus>
<clus scale="   93.195">  1  9  2 -1</clus>
<clus scale="   93.195">  1  5  2 -1</clus>
</clustering>
</event>
<event>
 9    2  0.6190160E-005  0.1049374E+03  0.7546771E-02  0.1275247E+00
         21   -1    0    0  501  502  0.00000000000E+00  0.00000000000E+00  0.14896447963E+03  0.14896447963E+03  0.00000000000E+00 0.  1.
         -1   -1    0    0    0  501 -0.00000000000E+00 -0.00000000000E+00 -0.34347100924E+03  0.34347100924E+03  0.00000000000E+00 0.  1.
         23    2    1    2    0    0  0.32384641841E+02 -0.46283686008E+02 -0.26870587580E+03  0.28969822049E+03  0.92364856113E+02 0.  0.
         24    2    1    2    0    0 -0.34523092806E+02  0.10026325180E+02 -0.28899136489E+02  0.93428227972E+02  0.81248400345E+02 0.  0.
        -11    1    4    4    0    0 -0.40498778005E+02 -0.28213487099E+02 -0.22318486798E+02  0.54168872308E+02  0.00000000000E+00 0.  1.
         12    1    4    4    0    0  0.59756851995E+01  0.38239812279E+02 -0.65806496911E+01  0.39259355663E+02  0.00000000000E+00 0. -1.
        -11    1    3    3    0    0  0.36571677368E+02  0.10114935413E+02 -0.44554917152E+02  0.58522988187E+02  0.00000000000E+00 0. -1.
         11    1    3    3    0    0 -0.41870355271E+01 -0.56398621421E+02 -0.22415095865E+03  0.23117523230E+03  0.00000000000E+00 0.  1.
         -2    1    1    2    0  502  0.21384509647E+01  0.36257360828E+02  0.10309848268E+03  0.10930904042E+03  0.00000000000E+00 0.  1.
<scales pt_clust_5="13000.00000" pt_clust_6="13000.00000" pt_clust_7="13000.00000" pt_clust_8="13000.00000" pt_clust_9="36.32037"></scales>
<clustering>
<clus scale="   36.320">  1  9  2 -1</clus>
<clus scale="   81.248">  5  6 -1 -1</clus>
<clus scale="   92.365">  7  8 -1 -1</clus>
<clus scale="   95.299">  1  5  2 -1</clus>
<clus scale="   36.320">  1  5  2 -1</clus>
</clustering>
</event>
<event>
 9    2  0.6190160E-005  0.1556882E+03  0.7546771E-02  0.1201303E+00
          2   -1    0    0  502    0 -0.00000000000E+00  0.00000000000E+00  0.15885881287E+04  0.15885881287E+04  0.00000000000E+00 0. -1.
         21   -1    0    0  501  502  0.00000000000E+00 -0.00000000000E+00 -0.30299571276E+02  0.30299571276E+02  0.00000000000E+00 0.  1.
         24    2    1    2    0    0 -0.94465324987E+02 -0.45294667935E+02  0.57290086046E+03  0.58785686377E+03  0.79906143733E+02 0.  0.
         23    2    1    2    0    0 -0.57153383650E+02  0.95710755666E+02  0.52044368152E+03  0.53939789161E+03  0.87529434050E+02 0.  0.
        -13    1    3    3    0    0 -0.68716380268E+02 -0.64319087874E+02  0.34079722339E+03  0.35355570063E+03  0.00000000000E+00 0.  1.
         14    1    3    3    0    0 -0.25748944718E+02  0.19024419939E+02  0.23210363707E+03  0.23430116314E+03  0.00000000000E+00 0. -1.
        -11    1    4    4    0    0 -0.31861183782E+01  0.85318052175E+02  0.35241784767E+03  0.36261227328E+03  0.00000000000E+00 0.  1.
         11    1    4    4    0    0 -0.53967265272E+02  0.10392703491E+02  0.16802583385E+03  0.17678561833E+03  0.00000000000E+00 0. -1.
          1    1    1    2  501    0  0.15161870864E+03 -0.50416087732E+02  0.46494401547E+03  0.49163294462E+03  0.00000000000E+00 0. -1.
<scales pt_clust_5="13000.00000" pt_clust_6="13000.00000" pt_clust_7="13000.00000" pt_clust_8="13000.00000" pt_clust_9="128.75339"></scales>
<clustering>
<clus scale="   79.906">  5  6 -1 -1</clus>
<clus scale="   87.529">  7  8 -1 -1</clus>
<clus scale="  131.758">  1  5  2 -1</clus>
<clus scale="  128.753">  2  9  1 -1</clus>
<clus scale="  128.753">  2  5  1 -1</clus>
</clustering>
</event>
<event>
 9    2  0.6190160E-005  0.9574085E+02  0.7546771E-02  0.1289993E+00
         21   -1    0    0  501  502  0.00000000000E+00  0.00000000000E+00  0.42555444704E+02  0.42555444704E+02  0.00000000000E+00 0.  1.
          2   -1    0    0  502    0 -0.00000000000E+00 -0.00000000000E+00 -0.63711390456E+03  0.63711390456E+03  0.00000000000E+00 0. -1.
         23    2    1    2    0    0  0.13186152980E+02 -0.13797783604E+02 -0.29119950236E+03  0.30586864116E+03  0.91619986956E+02 0.  0.
         24    2    1    2    0    0 -0.54081802653E+02  0.39937552405E+02 -0.64471192482E+02  0.13003215814E+03  0.90730248654E+02 0.  0.
        -13    1    4    4    0    0 -0.60481084739E+02  0.30806598155E+02 -0.34092207156E+01  0.67960509761E+02  0.00000000000E+00 0.  1.
         14    1    4    4    0    0  0.63992820865E+01  0.91309542494E+01 -0.61061971766E+02  0.62071648381E+02  0.00000000000E+00 0. -1.
        -11    1    3    3    0    0 -0.28892832551E+02  0.63203513843E+01 -0.36717587635E+02  0.47147893444E+02  0.00000000000E+00 0.  1.
         11    1    3    3    0    0  0.42078985531E+02 -0.20118134988E+02 -0.25448191472E+03  0.25872074772E+03  0.00000000000E+00 0. -1.
          1    1    1    2  501    0  0.40895649673E+02 -0.26139768800E+02 -0.23888776501E+03  0.24376854996E+03  0.00000000000E+00 0. -1.
<scales pt_clust_5="13000.00000" pt_clust_6="13000.00000" pt_clust_7="13000.00000" pt_clust_8="13000.00000" pt_clust_9="48.53601"></scales>
<clustering>
<clus scale="   48.536">  1  9  2 -1</clus>
<clus scale="   90.730">  5  6 -1 -1</clus>
<clus scale="   91.620">  7  8 -1 -1</clus>
<clus scale="   94.890">  1  5  2 -1</clus>
<clus scale="   48.536">  1  5  2 -1</clus>
</clustering>
</event>
<event>
 9    2  0.6190160E-005  0.9841105E+02  0.7546771E-02  0.1287155E+00
          2   -1    0    0  502    0 -0.00000000000E+00  0.00000000000E+00  0.14593106698E+04  0.14593106698E+04  0.00000000000E+00 0. -1.
         21   -1    0    0  501  502  0.00000000000E+00 -0.00000000000E+00 -0.15949514381E+02  0.15949514381E+02  0.00000000000E+00 0. -1.
         24    2    1    2    0    0 -0.42932187660E+02  0.39478132131E+01  0.92802699607E+03  0.93248140205E+03  0.80179185479E+02 0.  0.
         23    2    1    2    0    0  0.48988475772E+02 -0.51195234976E+02  0.26360660233E+03  0.28658401158E+03  0.87299095414E+02 0.  0.
        -13    1    3    3    0    0 -0.16759148941E+02  0.31442638825E+02  0.18003950060E+03  0.18353127904E+03  0.00000000000E+00 0.  1.
         14    1    3    3    0    0 -0.26173038719E+02 -0.27494825612E+02  0.74798749547E+03  0.74895012301E+03  0.00000000000E+00 0. -1.
        -13    1    4    4    0    0  0.92739561811E+01  0.24905529583E+02  0.60050757273E+02  0.65668752966E+02  0.00000000000E+00 0.  1.
         13    1    4    4    0    0  0.39714519591E+02 -0.76100764559E+02  0.20355584506E+03  0.22091525862E+03  0.00000000000E+00 0. -1.
          1    1    1    2  501    0 -0.60562881113E+01  0.47247421763E+02  0.25172755699E+03  0.25619477051E+03  0.00000000000E+00 0. -1.
<scales pt_clust_5="13000.00000" pt_clust_6="13000.00000" pt_clust_7="13000.00000" pt_clust_8="13000.00000" pt_clust_9="47.63402"></scales>
<clustering>
<clus scale="   47.634">  2  9  1 -1</clus>
<clus scale="   80.179">  5  6 -1 -1</clus>
<clus scale="   87.299">  7  8 -1 -1</clus>
<clus scale="   92.154">  1  5  2 -1</clus>
<clus scale="   47.634">  2  5  1 -1</clus>
</clustering>
</event>
<event>
 9    2  0.6190160E-005  0.1186928E+03  0.7546771E-02  0.1250999E+00
         21   -1    0    0  501  502  0.00000000000E+00  0.00000000000E+00  0.92180138000E+02  0.92180138000E+02  0.00000000000E+00 0. -1.
          2   -1    0    0  502    0 -0.00000000000E+00 -0.00000000000E+00 -0.24403704096E+03  0.24403704096E+03  0.00000000000E+00 0. -1.
         24    2    1    2    0    0 -0.46447725599E+02 -0.67791883064E+02 -0.83401172907E+02  0.14179467945E+03  0.79980277909E+02 0.  0.
         23    2    1    2    0    0  0.44306335235E+02  0.21740320929E+02  0.42230095256E+01  0.10835548426E+03  0.96371075868E+02 0.  0.
        -13    1    3    3    0    0 -0.20085065537E+02 -0.81210613589E+02 -0.51260979234E+02  0.98113513896E+02  0.00000000000E+00 0.  1.
         14    1    3    3    0    0 -0.26362660062E+02  0.13418730525E+02 -0.32140193673E+02  0.43681165550E+02  0.00000000000E+00 0. -1.
        -11    1    4    4    0    0 -0.19088586083E+02  0.16661054506E+02 -0.27408473156E+02  0.37325450522E+02  0.00000000000E+00 0.  1.
         11    1    4    4    0    0  0.63394921318E+02  0.50792664228E+01  0.31631482681E+02  0.71030033739E+02  0.00000000000E+00 0. -1.
          1    1    1    2  501    0  0.21413903643E+01  0.46051562135E+02 -0.72678739575E+02  0.86067015249E+02  0.00000000000E+00 0. -1.
<scales pt_clust_5="13000.00000" pt_clust_6="13000.00000" pt_clust_7="13000.00000" pt_clust_8="13000.00000" pt_clust_9="46.10135"></scales>
<clustering>
<clus scale="   46.101">  1  9  2 -1</clus>
<clus scale="   79.980">  5  6 -1 -1</clus>
<clus scale="   96.371">  7  8 -1 -1</clus>
<clus scale="  105.818">  2  5  1 -1</clus>
<clus scale="   46.101">  1  5  2 -1</clus>
</clustering>
</event>
<event>
 9    2  0.6190160E-005  0.1641258E+03  0.7546771E-02  0.1185059E+00
         21   -1    0    0  501  502  0.00000000000E+00  0.00000000000E+00  0.78345658450E+02  0.78345658450E+02  0.00000000000E+00 0.  1.
         -3   -1    0    0    0  501 -0.00000000000E+00 -0.00000000000E+00 -0.65607212042E+03  0.65607212042E+03  0.00000000000E+00 0.  1.
         23    2    1    2    0    0  0.27181044999E+02 -0.12512638137E+03 -0.18191577078E+03  0.23862781170E+03  0.86339239839E+02 0.  0.
         24    2    1    2    0    0 -0.11707552881E+03  0.12276558001E+03 -0.17115321062E+03  0.25380324196E+03  0.79652978870E+02 0.  0.
        -11    1    4    4    0    0 -0.50692441538E+02  0.10639922967E+03 -0.94309021514E+02  0.15094605408E+03  0.00000000000E+00 0.  1.
         12    1    4    4    0    0 -0.66383087270E+02  0.16366350336E+02 -0.76844189103E+02  0.10285718788E+03  0.00000000000E+00 0. -1.
        -11    1    3    3    0    0 -0.17577573561E+02 -0.10230017155E+03 -0.13038630434E+03  0.16665798676E+03  0.00000000000E+00 0.  1.
         11    1    3    3    0    0  0.44758618560E+02 -0.22826209820E+02 -0.51529466437E+02  0.71969824937E+02  0.00000000000E+00 0. -1.
         -4    1    1    2    0  502  0.89894483809E+02  0.23608013664E+01 -0.22465748057E+03  0.24198672521E+03  0.00000000000E+00 0.  1.
<scales pt_clust_5="13000.00000" pt_clust_6="13000.00000" pt_clust_7="13000.00000" pt_clust_8="13000.00000" pt_clust_9="89.92552"></scales>
<clustering>
<clus scale="   79.653">  5  6 -1 -1</clus>
<clus scale="   86.339">  7  8 -1 -1</clus>
<clus scale="   89.926">  1  9  2 -1</clus>
<clus scale="  160.709">  1  5  2 -1</clus>
<clus scale="   89.926">  1  5  2 -1</clus>
</clustering>
</event>
<event>
 9    2  0.6190160E-005  0.1438629E+03  0.7546771E-02  0.1211623E+00
         21   -1    0    0  501  502  0.00000000000E+00  0.00000000000E+00  0.44537053848E+02  0.44537053848E+02  0.00000000000E+00 0.  1.
         -1   -1    0    0    0  501 -0.00000000000E+00 -0.00000000000E+00 -0.11555430867E+04  0.11555430867E+04  0.00000000000E+00 0.  1.
         23    2    1    2    0    0  0.83585241690E+02 -0.22004160504E+02 -0.59071173113E+03  0.60468785491E+03  0.96106070961E+02 0.  0.
         24    2    1    2    0    0 -0.15738100862E+03  0.78353136274E+02 -0.39172234607E+03  0.43679918973E+03  0.80244251480E+02 0.  0.
        -11    1    4    4    0    0 -0.11947997126E+03  0.92424319552E+02 -0.28277255331E+03  0.32059013598E+03  0.00000000000E+00 0.  1.
         12    1    4    4    0    0 -0.37901037361E+02 -0.14071183278E+02 -0.10894979275E+03  0.11620905375E+03  0.00000000000E+00 0. -1.
        -13    1    3    3    0    0  0.62638350573E+02  0.31315162566E+02 -0.37596340833E+03  0.38242997630E+03  0.00000000000E+00 0.  1.
         13    1    3    3    0    0  0.20946891117E+02 -0.53319323070E+02 -0.21474832281E+03  0.22225787862E+03  0.00000000000E+00 0. -1.
         -2    1    1    2    0  502  0.73795766934E+02 -0.56348975770E+02 -0.12857195561E+03  0.15859309587E+03  0.00000000000E+00 0.  1.
<scales pt_clust_5="13000.00000" pt_clust_6="13000.00000" pt_clust_7="13000.00000" pt_clust_8="13000.00000" pt_clust_9="92.84946"></scales>
<clustering>
<clus scale="   80.244">  5  6 -1 -1</clus>
<clus scale="   92.849">  1  9  2 -1</clus>
<clus scale="   96.106">  7  8 -1 -1</clus>
<clus scale="  133.788">  1  5  2 -1</clus>
<clus scale="   92.849">  1  5  2 -1</clus>
</clustering>
</event>
<event>
 9    2  0.6190160E-005  0.1151745E+03  0.7546771E-02  0.1255695E+00
         21   -1    0    0  501  502  0.00000000000E+00  0.00000000000E+00  0.11192842430E+03  0.11192842430E+03  0.00000000000E+00 0. -1.
          2   -1    0    0  502    0 -0.00000000000E+00 -0.00000000000E+00 -0.21984001307E+03  0.21984001307E+03  0.00000000000E+00 0. -1.
         23    2    1    2    0    0  0.15510018379E+01  0.72033852396E+02 -0.72284542264E+02  0.13393649318E+03  0.86733198129E+02 0.  0.
         24    2    1    2    0    0  0.56279565239E+02 -0.70310423872E+02 -0.64806000573E+02  0.13303413516E+03  0.73398353108E+02 0.  0.
        -11    1    4    4    0    0  0.52167005441E+02 -0.83277589219E+01 -0.20195195422E+02  0.56556113228E+02  0.00000000000E+00 0.  1.
         12    1    4    4    0    0  0.41125597986E+01 -0.61982664950E+02 -0.44610805151E+02  0.76478021932E+02  0.00000000000E+00 0. -1.
        -13    1    3    3    0    0 -0.31553999000E+02  0.58157641989E+02 -0.17502898191E+02  0.68442074922E+02  0.00000000000E+00 0. -1.
         13    1    3    3    0    0  0.33105000838E+02  0.13876210408E+02 -0.54781644073E+02  0.65494418259E+02  0.00000000000E+00 0.  1.
          1    1    1    2  501    0 -0.57830567077E+02 -0.17234285244E+01  0.29178954071E+02  0.64797809030E+02  0.00000000000E+00 0. -1.
<scales pt_clust_5="13000.00000" pt_clust_6="13000.00000" pt_clust_7="13000.00000" pt_clust_8="13000.00000" pt_clust_9="57.85624"></scales>
<clustering>
<clus scale="   57.856">  1  9  2 -1</clus>
<clus scale="   73.398">  5  6 -1 -1</clus>
<clus scale="   86.733">  7  8 -1 -1</clus>
<clus scale="  105.498">  1  5  2 -1</clus>
<clus scale="   57.856">  1  5  2 -1</clus>
</clustering>
</event>
<event>
 9    2  0.6190160E-005  0.1506883E+03  0.7546771E-02  0.1227076E+00
         21   -1    0    0  501  502  0.00000000000E+00  0.00000000000E+00  0.86716405332E+02  0.86716405332E+02  0.00000000000E+00 0. -1.
          2   -1    0    0  502    0 -0.00000000000E+00 -0.00000000000E+00 -0.37035338292E+03  0.37035338292E+03  0.00000000000E+00 0. -1.
         24    2    1    2    0    0 -0.22279145319E+02 -0.10008640364E+02 -0.90497856020E+02  0.12356281735E+03  0.80506985344E+02 0.  0.
         23    2    1    2    0    0  0.35184295719E+02  0.12352696336E+03 -0.10522351616E+03  0.18934696869E+03  0.91013410330E+02 0.  0.
        -13    1    3    3    0    0  0.76509631493E+01 -0.33371214205E+02 -0.11850487383E+02  0.36229949294E+02  0.00000000000E+00 0.  1.
         14    1    3    3    0    0 -0.29930108468E+02  0.23362573841E+02 -0.78647368638E+02  0.87332868057E+02  0.00000000000E+00 0. -1.
        -11    1    4    4    0    0  0.26252013912E+02  0.18188122773E+02 -0.71619687902E+02  0.78417827945E+02  0.00000000000E+00 0.  1.
         11    1    4    4    0    0  0.89322818068E+01  0.10533884058E+03 -0.33603828253E+02  0.11092914075E+03  0.00000000000E+00 0. -1.
          1    1    1    2  501    0 -0.12905150400E+02 -0.11351832299E+03 -0.87915605416E+02  0.14416000221E+03  0.00000000000E+00 0. -1.
<scales pt_clust_5="13000.00000" pt_clust_6="13000.00000" pt_clust_7="13000.00000" pt_clust_8="13000.00000" pt_clust_9="120.09800"></scales>
<clustering>
<clus scale="   80.507">  5  6 -1 -1</clus>
<clus scale="   84.130">  2  5  1 -1</clus>
<clus scale="   91.013">  7  8 -1 -1</clus>
<clus scale="  120.098">  1  9  2 -1</clus>
<clus scale="  120.098">  1  5  2 -1</clus>
</clustering>
</event>
<event>
 9    2  0.6190160E-005  0.1067917E+03  0.7546771E-02  0.1270823E+00
         -1   -1    0    0    0  501 -0.00000000000E+00  0.00000000000E+00  0.20055434641E+03  0.20055434641E+03  0.00000000000E+00 0.  1.
         21   -1    0    0  501  502  0.00000000000E+00 -0.00000000000E+00 -0.18540018861E+03  0.18540018861E+03  0.00000000000E+00 0.  1.
         24    2    1    2    0    0  0.53768489132E+02 -0.40311714510E+02  0.13647599322E+03  0.17193449888E+03  0.80122970661E+02 0.  0.
         23    2    1    2    0    0 -0.17102457290E+02 -0.28584128846E+02 -0.83339590629E+02  0.12722322720E+03  0.90170481341E+02 0.  0.
        -13    1    3    3    0    0  0.46864653445E+02 -0.28455728845E+02  0.14551746970E+03  0.15550356342E+03  0.00000000000E+00 0.  1.
         14    1    3    3    0    0  0.69038356877E+01 -0.11855985665E+02 -0.90414764771E+01  0.16430935463E+02  0.00000000000E+00 0. -1.
        -11    1    4    4    0    0 -0.16366131095E+02  0.26407293933E+02 -0.59824708596E+02  0.67410616215E+02  0.00000000000E+00 0. -1.
         11    1    4    4    0    0 -0.73632619433E+00 -0.54991422780E+02 -0.23514882033E+02  0.59812610983E+02  0.00000000000E+00 0.  1.
         -2    1    1    2    0  502 -0.36666031843E+02  0.68895843356E+02 -0.37982244796E+02  0.86796808942E+02  0.00000000000E+00 0.  1.
<scales pt_clust_5="13000.00000" pt_clust_6="13000.00000" pt_clust_7="13000.00000" pt_clust_8="13000.00000" pt_clust_9="78.04508"></scales>
<clustering>
<clus scale="   78.045">  2  9  1 -1</clus>
<clus scale="   80.123">  5  6 -1 -1</clus>
<clus scale="   90.170">  7  8 -1 -1</clus>
<clus scale="   98.455">  1  5  2 -1</clus>
<clus scale="   78.045">  2  5  1 -1</clus>
</clustering>
</event>
<event>
 9    2  0.6190160E-005  0.9560693E+02  0.7546771E-02  0.1295971E+00
         -3   -1    0    0    0  501 -0.00000000000E+00  0.00000000000E+00  0.23956338295E+03  0.23956338295E+03  0.00000000000E+00 0.  1.
         21   -1    0    0  501  502  0.00000000000E+00 -0.00000000000E+00 -0.87626498656E+02  0.87626498656E+02  0.00000000000E+00 0. -1.
         23    2    1    2    0    0  0.97643325120E+01 -0.55271112285E+02  0.81259109902E+02  0.13501225839E+03  0.92059920322E+02 0.  0.
         24    2    1    2    0    0  0.21592564191E+02 -0.20035795909E+02  0.34743887727E+01  0.86486183495E+02  0.81241101741E+02 0.  0.
        -13    1    4    4    0    0 -0.25196107368E+02 -0.13355861290E+02  0.21696080910E+02  0.35832147356E+02  0.00000000000E+00 0.  1.
         14    1    4    4    0    0  0.46788671559E+02 -0.66799346193E+01 -0.18221692138E+02  0.50654036138E+02  0.00000000000E+00 0. -1.
        -13    1    3    3    0    0  0.22810776485E+02 -0.73775934907E+02  0.37729022616E+02  0.85945908820E+02  0.00000000000E+00 0. -1.
         13    1    3    3    0    0 -0.13046443973E+02  0.18504822622E+02  0.43530087286E+02  0.49066349566E+02  0.00000000000E+00 0.  1.
         -4    1    1    2    0  502 -0.31356896703E+02  0.75306908195E+02  0.67203385619E+02  0.10569143973E+03  0.00000000000E+00 0.  1.
<scales pt_clust_5="13000.00000" pt_clust_6="13000.00000" pt_clust_7="13000.00000" pt_clust_8="13000.00000" pt_clust_9="81.57446"></scales>
<clustering>
<clus scale="   81.241">  5  6 -1 -1</clus>
<clus scale="   81.574">  2  9  1 -1</clus>
<clus scale="   85.240">  2  5  1 -1</clus>
<clus scale="   92.060">  7  8 -1 -1</clus>
<clus scale="   81.574">  2  5  1 -1</clus>
</clustering>
</event>
<event>
 9    2  0.6190160E-005  0.2041054E+03  0.7546771E-02  0.1146321E+00
         21   -1    0    0  501  502  0.00000000000E+00  0.00000000000E+00  0.75159980771E+02  0.75159980771E+02  0.00000000000E+00 0.  1.
         -3   -1    0    0    0  501 -0.00000000000E+00 -0.00000000000E+00 -0.35747367062E+03  0.35747367062E+03  0.00000000000E+00 0.  1.
         24    2    1    2    0    0 -0.51767791280E+02 -0.23924252089E+01 -0.10579009601E+03  0.14230675185E+03  0.79837580732E+02 0.  0.
         23    2    1    2    0    0 -0.56970748151E+02  0.22583049918E+02 -0.13209597294E+03  0.17113988354E+03  0.89910251815E+02 0.  0.
        -11    1    3    3    0    0 -0.49647845524E+02  0.14181607112E+02 -0.11290082841E+03  0.12414758798E+03  0.00000000000E+00 0.  1.
         12    1    3    3    0    0 -0.21199457557E+01 -0.16574032321E+02  0.71107323994E+01  0.18159163875E+02  0.00000000000E+00 0. -1.
        -11    1    4    4    0    0 -0.46318518890E+02 -0.15768185894E+02 -0.21213212083E+02  0.53329553208E+02  0.00000000000E+00 0.  1.
         11    1    4    4    0    0 -0.10652229261E+02  0.38351235812E+02 -0.11088276086E+03  0.11781033033E+03  0.00000000000E+00 0. -1.
         -4    1    1    2    0  502  0.10873853943E+03 -0.20190624709E+02 -0.44427620895E+02  0.11918701600E+03  0.00000000000E+00 0.  1.
<scales pt_clust_5="13000.00000" pt_clust_6="13000.00000" pt_clust_7="13000.00000" pt_clust_8="13000.00000" pt_clust_9="110.59716"></scales>
<clustering>
<clus scale="   79.838">  5  6 -1 -1</clus>
<clus scale="   89.910">  7  8 -1 -1</clus>
<clus scale="   92.667">  5  7 -1 -1</clus>
<clus scale="  110.597">  1  9  2 -1</clus>
<clus scale="  110.597">  1  5  2 -1</clus>
</clustering>
</event>
<event>
 9    2  0.6190160E-005  0.2758664E+03  0.7546771E-02  0.1129767E+00
          2   -1    0    0  502    0 -0.00000000000E+00  0.00000000000E+00  0.12613014430E+04  0.12613014430E+04  0.00000000000E+00 0. -1.
         21   -1    0    0  501  502  0.00000000000E+00 -0.00000000000E+00 -0.11992071566E+03  0.11992071566E+03  0.00000000000E+00 0.  1.
         23    2    1    2    0    0 -0.70470016016E+02  0.27954339533E+02  0.47111661009E+03  0.48701232759E+03  0.97379046349E+02 0.  0.
         24    2    1    2    0    0  0.69305052575E+02 -0.28283328631E+03  0.51103200389E+03  0.59367780186E+03  0.80633524476E+02 0.  0.
        -11    1    4    4    0    0  0.27829767798E+02 -0.19571664828E+03  0.40271541050E+03  0.44861921966E+03  0.00000000000E+00 0.  1.
         12    1    4    4    0    0  0.41475284778E+02 -0.87116638023E+02  0.10831659338E+03  0.14505858220E+03  0.00000000000E+00 0. -1.
        -13    1    3    3    0    0  0.46020669570E+01  0.34405415184E+02  0.62369664035E+02  0.71378474389E+02  0.00000000000E+00 0.  1.
         13    1    3    3    0    0 -0.75072082973E+02 -0.64510756512E+01  0.40874694606E+03  0.41563385320E+03  0.00000000000E+00 0. -1.
          1    1    1    2  501    0  0.11649634407E+01  0.25487894677E+03  0.15923211337E+03  0.30053202920E+03  0.00000000000E+00 0. -1.
<scales pt_clust_5="13000.00000" pt_clust_6="13000.00000" pt_clust_7="13000.00000" pt_clust_8="13000.00000" pt_clust_9="263.81907"></scales>
<clustering>
<clus scale="   80.634">  5  6 -1 -1</clus>
<clus scale="   97.379">  7  8 -1 -1</clus>
<clus scale="  123.410">  1  7  2 -1</clus>
<clus scale="  263.819">  2  9  1 -1</clus>
<clus scale="  263.819">  2  5  1 -1</clus>
</clustering>
</event>
<event>
 9    2  0.6190160E-005  0.1981771E+03  0.7546771E-02  0.1174245E+00
          2   -1    0    0  502    0 -0.00000000000E+00  0.00000000000E+00  0.94907975430E+02  0.94907975430E+02  0.00000000000E+00 0. -1.
         21   -1    0    0  501  502  0.00000000000E+00 -0.00000000000E+00 -0.73940542361E+03  0.73940542361E+03  0.00000000000E+00 0. -1.
         23    2    1    2    0    0  0.67624969801E+02  0.11611661206E+02 -0.14972527553E+03  0.18966401246E+03  0.94057494522E+02 0.  0.
         24    2    1    2    0    0  0.35684879477E+02  0.15165611840E+03 -0.93893182991E+02  0.19964010895E+03  0.82263323655E+02 0.  0.
        -11    1    4    4    0    0  0.28030008868E+02  0.65553048658E+01 -0.47598035934E+01  0.29177202561E+02  0.00000000000E+00 0.  1.
         12    1    4    4    0    0  0.76548706086E+01  0.14510081354E+03 -0.89133379397E+02  0.17046290639E+03  0.00000000000E+00 0. -1.
        -13    1    3    3    0    0  0.41737227897E+02 -0.39382832667E+02 -0.91829255747E+02  0.10828488312E+03  0.00000000000E+00 0. -1.
         13    1    3    3    0    0  0.25887741903E+02  0.50994493873E+02 -0.57896019779E+02  0.81379129342E+02  0.00000000000E+00 0.  1.
          1    1    1    2  501    0 -0.10330984928E+03 -0.16326777961E+03 -0.40087898966E+03  0.44500927762E+03  0.00000000000E+00 0. -1.
<scales pt_clust_5="13000.00000" pt_clust_6="13000.00000" pt_clust_7="13000.00000" pt_clust_8="13000.00000" pt_clust_9="180.29668"></scales>
<clustering>
<clus scale="   82.263">  5  6 -1 -1</clus>
<clus scale="   94.057">  7  8 -1 -1</clus>
<clus scale="  116.425">  1  7  2 -1</clus>
<clus scale="  180.297">  2  9  1 -1</clus>
<clus scale="  180.297">  2  5  1 -1</clus>
</clustering>
</event>
<event>
 9    2  0.6190160E-005  0.2050881E+03  0.7546771E-02  0.1169453E+00
          2   -1    0    0  502    0 -0.00000000000E+00  0.00000000000E+00  0.23652043131E+03  0.23652043131E+03  0.00000000000E+00 0. -1.
         21   -1    0    0  501  502  0.00000000000E+00 -0.00000000000E+00 -0.36883238938E+03  0.36883238938E+03  0.00000000000E+00 0. -1.
         23    2    1    2    0    0  0.52569711247E+02  0.50294410467E+02  0.82850887707E+02  0.14350844664E+03  0.91854789735E+02 0.  0.
         24    2    1    2    0    0  0.92557731400E+02  0.12900004405E+03 -0.10101963607E+03  0.20447858699E+03  0.79991128636E+02 0.  0.
        -11    1    4    4    0    0  0.33139322399E+02 -0.25810498236E+01 -0.22429048305E+02  0.40099111151E+02  0.00000000000E+00 0.  1.
         12    1    4    4    0    0  0.59418409001E+02  0.13158109387E+03 -0.78590587764E+02  0.16437947584E+03  0.00000000000E+00 0. -1.
        -13    1    3    3    0    0  0.68043565459E+02  0.79972502753E+01  0.32113728237E+02  0.75664881904E+02  0.00000000000E+00 0. -1.
         13    1    3    3    0    0 -0.15473854211E+02  0.42297160192E+02  0.50737159471E+02  0.67843564733E+02  0.00000000000E+00 0.  1.
          1    1    1    2  501    0 -0.14512744265E+03 -0.17929445451E+03 -0.11414320971E+03  0.25736578706E+03  0.00000000000E+00 0. -1.
<scales pt_clust_5="13000.00000" pt_clust_6="13000.00000" pt_clust_7="13000.00000" pt_clust_8="13000.00000" pt_clust_9="188.84542"></scales>
<clustering>
<clus scale="   79.991">  5  6 -1 -1</clus>
<clus scale="   91.855">  7  8 -1 -1</clus>
<clus scale="  117.177">  1  7  2 -1</clus>
<clus scale="  188.845">  2  9  1 -1</clus>
<clus scale="  188.845">  2  5  1 -1</clus>
</clustering>
</event>
<event>
 9    2  0.6190160E-005  0.3182354E+03  0.7546771E-02  0.1076672E+00
          2   -1    0    0  502    0 -0.00000000000E+00  0.00000000000E+00  0.18787525240E+04  0.18787525240E+04  0.00000000000E+00 0. -1.
         21   -1    0    0  501  502  0.00000000000E+00 -0.00000000000E+00 -0.20592373213E+03  0.20592373213E+03  0.00000000000E+00 0. -1.
         23    2    1    2    0    0 -0.29229347580E+03 -0.10361555027E+03  0.10861058363E+04  0.11329288321E+04  0.87921513811E+02 0.  0.
         24    2    1    2    0    0  0.27160149034E+03  0.12985679872E+03  0.73570999049E+03  0.79905853125E+03  0.81210766148E+02 0.  0.
        -13    1    4    4    0    0  0.72229334745E+02  0.91045093865E+00  0.13468724885E+03  0.15283507687E+03  0.00000000000E+00 0.  1.
         14    1    4    4    0    0  0.19937215559E+03  0.12894634778E+03  0.60102274163E+03  0.64622345438E+03  0.00000000000E+00 0. -1.
        -11    1    3    3    0    0 -0.18484316383E+03 -0.10924901505E+03  0.73024150321E+03  0.76115372660E+03  0.00000000000E+00 0. -1.
         11    1    3    3    0    0 -0.10745031197E+03  0.56334647767E+01  0.35586433313E+03  0.37177510549E+03  0.00000000000E+00 0.  1.
          1    1    1    2  501    0  0.20691985457E+02 -0.26241248451E+02 -0.14898703498E+03  0.15268889277E+03  0.00000000000E+00 0. -1.
<scales pt_clust_5="13000.00000" pt_clust_6="13000.00000" pt_clust_7="13000.00000" pt_clust_8="13000.00000" pt_clust_9="33.41798"></scales>
<clustering>
<clus scale="   33.418">  2  9  1 -1</clus>
<clus scale="   81.211">  5  6 -1 -1</clus>
<clus scale="   87.922">  7  8 -1 -1</clus>
<clus scale="  316.447">  2  5  1 -1</clus>
<clus scale="   33.418">  2  5  1 -1</clus>
</clustering>
</event>
<event>
 9    2  0.6190160E-005  0.1026497E+03  0.7546771E-02  0.1278931E+00
         21   -1    0    0  501  502  0.00000000000E+00  0.00000000000E+00  0.24052949955E+03  0.24052949955E+03  0.00000000000E+00 0.  1.
          4   -1    0    0  502    0 -0.00000000000E+00 -0.00000000000E+00 -0.57002478382E+02  0.57002478382E+02  0.00000000000E+00 0. -1.
         24    2    1    2    0    0 -0.11146640327E+02 -0.55572700018E+02  0.45078873637E+02  0.10929156553E+03  0.81853337563E+02 0.  0.
         23    2    1    2    0    0  0.19972184293E+02  0.31501513775E+02  0.88619353516E+02  0.13220273805E+03  0.90735553204E+02 0.  0.
        -11    1    3    3    0    0  0.22498443507E+02  0.10866172837E+02  0.91767191016E+01  0.26617021731E+02  0.00000000000E+00 0.  1.
         12    1    3    3    0    0 -0.33645083834E+02 -0.66438872855E+02  0.35902154535E+02  0.82674543801E+02  0.00000000000E+00 0. -1.
        -13    1    4    4    0    0  0.52352442521E+01 -0.29070886029E+02  0.52272679401E+02  0.60041295861E+02  0.00000000000E+00 0.  1.
         13    1    4    4    0    0  0.14736940041E+02  0.60572399804E+02  0.36346674115E+02  0.72161442191E+02  0.00000000000E+00 0. -1.
          3    1    1    2  501    0 -0.88255439660E+01  0.24071186243E+02  0.49828794011E+02  0.56037674346E+02  0.00000000000E+00 0. -1.
<scales pt_clust_5="13000.00000" pt_clust_6="13000.00000" pt_clust_7="13000.00000" pt_clust_8="13000.00000" pt_clust_9="25.63810"></scales>
<clustering>
<clus scale="   25.638">  1  9  2 -1</clus>
<clus scale="   81.853">  5  6 -1 -1</clus>
<clus scale="   90.736">  7  8 -1 -1</clus>
<clus scale="   94.889">  2  5  1 -1</clus>
<clus scale="   25.638">  1  5  2 -1</clus>
</clustering>
</event>
<event>
 9    2  0.6190160E-005  0.1405397E+03  0.7546771E-02  0.1215293E+00
         21   -1    0    0  501  502  0.00000000000E+00  0.00000000000E+00  0.72205546542E+02  0.72205546542E+02  0.00000000000E+00 0.  1.
          2   -1    0    0  502    0 -0.00000000000E+00 -0.00000000000E+00 -0.19658923538E+04  0.19658923538E+04  0.00000000000E+00 0. -1.
         24    2    1    2    0    0  0.10299016033E+03  0.11552475506E+02 -0.17875279947E+04  0.17923452371E+04  0.80651623396E+02 0.  0.
         23    2    1    2    0    0 -0.13753460083E+03 -0.40947526448E+02 -0.10449826655E+03  0.20036384518E+03  0.92915641287E+02 0.  0.
        -11    1    3    3    0    0  0.15016952262E+02  0.17397748243E+02 -0.10395342343E+03  0.10646363107E+03  0.00000000000E+00 0.  1.
         12    1    3    3    0    0  0.87973208073E+02 -0.58452727373E+01 -0.16835745713E+04  0.16858816060E+04  0.00000000000E+00 0. -1.
        -11    1    4    4    0    0 -0.11790890408E+03 -0.67794453067E+02 -0.72111461142E+02  0.15394369216E+03  0.00000000000E+00 0.  1.
         11    1    4    4    0    0 -0.19625696750E+02  0.26846926619E+02 -0.32386805409E+02  0.46420153020E+02  0.00000000000E+00 0. -1.
          1    1    1    2  501    0  0.34544440493E+02  0.29395050943E+02 -0.16605459860E+01  0.45388818027E+02  0.00000000000E+00 0. -1.
<scales pt_clust_5="13000.00000" pt_clust_6="13000.00000" pt_clust_7="13000.00000" pt_clust_8="13000.00000" pt_clust_9="45.35843"></scales>
<clustering>
<clus scale="   45.358">  1  9  2 -1</clus>
<clus scale="   80.652">  5  6 -1 -1</clus>
<clus scale="   92.916">  7  8 -1 -1</clus>
<clus scale="  132.751">  2  5  1 -1</clus>
<clus scale="   45.358">  1  5  2 -1</clus>
</clustering>
</event>
<event>
 9    2  0.6190160E-005  0.1351841E+03  0.7546771E-02  0.1222824E+00
         21   -1    0    0  501  502  0.00000000000E+00  0.00000000000E+00  0.11085975813E+03  0.11085975813E+03  0.00000000000E+00 0. -1.
         -3   -1    0    0    0  501 -0.00000000000E+00 -0.00000000000E+00 -0.36498137423E+03  0.36498137423E+03  0.00000000000E+00 0.  1.
         23    2    1    2    0    0  0.21684428343E+02 -0.94308231021E+02 -0.28485339997E+03  0.31492898163E+03  0.93137248886E+02 0.  0.
         24    2    1    2    0    0 -0.19173584942E+01  0.10602668759E+03  0.18538788614E+02  0.13489814666E+03  0.81292610629E+02 0.  0.
        -13    1    4    4    0    0 -0.21526679689E+02  0.88832995711E+02 -0.14774755303E+02  0.92590455554E+02  0.00000000000E+00 0.  1.
         14    1    4    4    0    0  0.19609321194E+02  0.17193691882E+02  0.33313543917E+02  0.42307691104E+02  0.00000000000E+00 0. -1.
        -13    1    3    3    0    0 -0.12584803781E+02 -0.72335485823E+02 -0.25241539479E+03  0.26287702699E+03  0.00000000000E+00 0.  1.
         13    1    3    3    0    0  0.34269232124E+02 -0.21972745198E+02 -0.32438005178E+02  0.52051954640E+02  0.00000000000E+00 0. -1.
         -4    1    1    2    0  502 -0.19767069849E+02 -0.11718456572E+02  0.12192995250E+02  0.26014004075E+02  0.00000000000E+00 0.  1.
<scales pt_clust_5="13000.00000" pt_clust_6="13000.00000" pt_clust_7="13000.00000" pt_clust_8="13000.00000" pt_clust_9="22.97954"></scales>
<clustering>
<clus scale="   22.980">  1  9  2 -1</clus>
<clus scale="   81.293">  5  6 -1 -1</clus>
<clus scale="   93.137">  7  8 -1 -1</clus>
<clus scale="  127.313">  1  5  2 -1</clus>
<clus scale="   22.980">  1  5  2 -1</clus>
</clustering>
</event>
<event>
 9    2  0.6190160E-005  0.1103059E+03  0.7546771E-02  0.1261246E+00
         -1   -1    0    0    0  501 -0.00000000000E+00  0.00000000000E+00  0.48567996410E+03  0.48567996410E+03  0.00000000000E+00 0.  1.
         21   -1    0    0  501  502  0.00000000000E+00 -0.00000000000E+00 -0.60988383457E+02  0.60988383457E+02  0.00000000000E+00 0. -1.
         23    2    1    2    0    0  0.53278530665E+02 -0.66676152947E+02  0.32573631309E+03  0.34678921250E+03  0.82911404749E+02 0.  0.
         24    2    1    2    0    0  0.60558993931E+01  0.36173504973E+02  0.89821742679E+01  0.87869565650E+02  0.79342200205E+02 0.  0.
        -11    1    4    4    0    0 -0.11564543876E+02  0.37804441311E+02  0.37381280783E+02  0.54408405700E+02  0.00000000000E+00 0.  1.
         12    1    4    4    0    0  0.17620443269E+02 -0.16309363378E+01 -0.28399106515E+02  0.33461159950E+02  0.00000000000E+00 0. -1.
        -11    1    3    3    0    0  0.56179465654E+02 -0.25985246036E+02  0.27399910318E+03  0.28090367374E+03  0.00000000000E+00 0.  1.
         11    1    3    3    0    0 -0.29009349891E+01 -0.40690906911E+02  0.51737209907E+02  0.65885538762E+02  0.00000000000E+00 0. -1.
         -2    1    1    2    0  502 -0.59334430058E+02  0.30502647973E+02  0.89973093280E+02  0.11200956940E+03  0.00000000000E+00 0.  1.
<scales pt_clust_5="13000.00000" pt_clust_6="13000.00000" pt_clust_7="13000.00000" pt_clust_8="13000.00000" pt_clust_9="66.71574"></scales>
<clustering>
<clus scale="   66.716">  2  9  1 -1</clus>
<clus scale="   79.342">  5  6 -1 -1</clus>
<clus scale="   82.911">  7  8 -1 -1</clus>
<clus scale="  107.649">  2  5  1 -1</clus>
<clus scale="   66.716">  2  5  1 -1</clus>
</clustering>
</event>
<event>
 9    2  0.9439014E-005  0.1039128E+03  0.7546771E-02  0.1277602E+00
          2   -1    0    0  502    0 -0.00000000000E+00  0.00000000000E+00  0.34762331773E+03  0.34762331773E+03  0.00000000000E+00 0. -1.
         21   -1    0    0  501  502  0.00000000000E+00 -0.00000000000E+00 -0.10825621332E+03  0.10825621332E+03  0.00000000000E+00 0. -1.
         24    2    1    2    0    0  0.22500770753E+02  0.32792752804E+02  0.71126668862E+02  0.11383936401E+03  0.79490555756E+02 0.  0.
         23    2    1    2    0    0 -0.66361249066E+02 -0.61671192097E+02 -0.34110806861E+02  0.13298579344E+03  0.91184005183E+02 0.  0.
        -11    1    3    3    0    0  0.16545148970E+02 -0.24602063446E+02  0.14543514664E+02  0.33022981377E+02  0.00000000000E+00 0.  1.
         12    1    3    3    0    0  0.59556217833E+01  0.57394816251E+02  0.56583154199E+02  0.80816382636E+02  0.00000000000E+00 0. -1.
        -11    1    4    4    0    0 -0.16504280709E+02  0.24061700824E+02 -0.48073816615E+01  0.29571399134E+02  0.00000000000E+00 0.  1.
         11    1    4    4    0    0 -0.49856968356E+02 -0.85732892921E+02 -0.29303425200E+02  0.10341439431E+03  0.00000000000E+00 0. -1.
          1    1    1    2  501    0  0.43860478313E+02  0.28878439293E+02  0.20235124241E+03  0.20905437359E+03  0.00000000000E+00 0. -1.
<scales pt_clust_5="13000.00000" pt_clust_6="13000.00000" pt_clust_7="13000.00000" pt_clust_8="13000.00000" pt_clust_9="52.51389"></scales>
<clustering>
<clus scale="   52.514">  2  9  1 -1</clus>
<clus scale="   79.491">  5  6 -1 -1</clus>
<clus scale="   91.184">  7  8 -1 -1</clus>
<clus scale="   93.819">  1  5  2 -1</clus>
<clus scale="   52.514">  2  5  1 -1</clus>
</clustering>
</event>
<event>
 9    2  0.6190160E-005  0.1069184E+03  0.7546771E-02  0.1270664E+00
         21   -1    0    0  501  502  0.00000000000E+00  0.00000000000E+00  0.53335980338E+02  0.53335980338E+02  0.00000000000E+00 0. -1.
         -1   -1    0    0    0  501 -0.00000000000E+00 -0.00000000000E+00 -0.32389798629E+03  0.32389798629E+03  0.00000000000E+00 0.  1.
         24    2    1    2    0    0 -0.34673900444E+02 -0.49254640717E+02 -0.20240133208E+03  0.22602403968E+03  0.80574613120E+02 0.  0.
         23    2    1    2    0    0  0.46396334144E+01  0.50872126082E+02 -0.46081066327E+02  0.11389796474E+03  0.90773246537E+02 0.  0.
        -11    1    3    3    0    0  0.33223815050E+01 -0.59260213621E+02 -0.14272192959E+03  0.15457153788E+03  0.00000000000E+00 0.  1.
         12    1    3    3    0    0 -0.37996281949E+02  0.10005572904E+02 -0.59679402490E+02  0.71452501794E+02  0.00000000000E+00 0. -1.
        -11    1    4    4    0    0 -0.44617767571E+01  0.24854602873E+02 -0.71854072228E+02  0.76162106270E+02  0.00000000000E+00 0.  1.
         11    1    4    4    0    0  0.91014101715E+01  0.26017523209E+02  0.25773005900E+02  0.37735858466E+02  0.00000000000E+00 0. -1.
         -2    1    1    2    0  502  0.30034267029E+02 -0.16174853656E+01 -0.22079607541E+02  0.37311962211E+02  0.00000000000E+00 0.  1.
<scales pt_clust_5="13000.00000" pt_clust_6="13000.00000" pt_clust_7="13000.00000" pt_clust_8="13000.00000" pt_clust_9="30.07779"></scales>
<clustering>
<clus scale="   30.078">  1  9  2 -1</clus>
<clus scale="   80.575">  5  6 -1 -1</clus>
<clus scale="   90.773">  7  8 -1 -1</clus>
<clus scale="   98.407">  2  5  1 -1</clus>
<clus scale="   30.078">  1  5  2 -1</clus>
</clustering>
</event>
<event>
 9    2  0.6190160E-005  0.1046774E+03  0.7546771E-02  0.1279946E+00
         21   -1    0    0  501  502  0.00000000000E+00  0.00000000000E+00  0.33311709098E+03  0.33311709098E+03  0.00000000000E+00 0. -1.
          2   -1    0    0  502    0 -0.00000000000E+00 -0.00000000000E+00 -0.60941042131E+02  0.60941042131E+02  0.00000000000E+00 0. -1.
         24    2    1    2    0    0  0.23393666629E+02 -0.37434051118E+02  0.14823535871E+02  0.94225197578E+02  0.81915070783E+02 0.  0.
         23    2    1    2    0    0 -0.95587387687E+00 -0.10594878709E+02  0.15728117473E+03  0.18658760281E+03  0.99821843550E+02 0.  0.
        -13    1    3    3    0    0  0.43919210741E+02  0.59437814854E+01  0.11831511155E+01  0.44335374781E+02  0.00000000000E+00 0.  1.
         14    1    3    3    0    0 -0.20525544112E+02 -0.43377832603E+02  0.13640384755E+02  0.49889822797E+02  0.00000000000E+00 0. -1.
        -11    1    4    4    0    0 -0.17115364879E+02 -0.32992121024E+02  0.15441037335E+03  0.15882058797E+03  0.00000000000E+00 0. -1.
         11    1    4    4    0    0  0.16159491003E+02  0.22397242315E+02  0.28708013776E+01  0.27767014843E+02  0.00000000000E+00 0.  1.
          1    1    1    2  501    0 -0.22437792752E+02  0.48028929826E+02  0.10007133825E+03  0.11324533272E+03  0.00000000000E+00 0. -1.
<scales pt_clust_5="13000.00000" pt_clust_6="13000.00000" pt_clust_7="13000.00000" pt_clust_8="13000.00000" pt_clust_9="53.01163"></scales>
<clustering>
<clus scale="   53.012">  1  9  2 -1</clus>
<clus scale="   81.915">  5  6 -1 -1</clus>
<clus scale="   87.767">  2  5  1 -1</clus>
<clus scale="   99.822">  7  8 -1 -1</clus>
<clus scale="   53.012">  1  5  2 -1</clus>
</clustering>
</event>
<event>
 9    2  0.6190160E-005  0.2274171E+03  0.7546771E-02  0.1150899E+00
          2   -1    0    0  502    0 -0.00000000000E+00  0.00000000000E+00  0.91447215164E+03  0.91447215164E+03  0.00000000000E+00 0. -1.
         21   -1    0    0  501  502  0.00000000000E+00 -0.00000000000E+00 -0.96876064989E+02  0.96876064989E+02  0.00000000000E+00 0.  1.
         23    2    1    2    0    0 -0.20473837443E+02 -0.96499865732E+02  0.27550762878E+03  0.30564745844E+03  0.88229888523E+02 0.  0.
         24    2    1    2    0    0  0.12043043854E+03 -0.13488336141E+03  0.26435955733E+03  0.33065027878E+03  0.82137808592E+02 0.  0.
        -13    1    4    4    0    0  0.75888694854E+02 -0.13302178855E+03  0.21711130890E+03  0.26569006509E+03  0.00000000000E+00 0.  1.
         14    1    4    4    0    0  0.44541743684E+02 -0.18615728572E+01  0.47248248424E+02  0.64960213693E+02  0.00000000000E+00 0. -1.
        -13    1    3    3    0    0  0.57883159120E+01 -0.78469575040E+02  0.25706735540E+03  0.26883936472E+03  0.00000000000E+00 0.  1.
         13    1    3    3    0    0 -0.26262153355E+02 -0.18030290692E+02  0.18440273379E+02  0.36808093723E+02  0.00000000000E+00 0. -1.
          1    1    1    2  501    0 -0.99956601095E+02  0.23138322714E+03  0.27772890054E+03  0.37505047940E+03  0.00000000000E+00 0. -1.
<scales pt_clust_5="13000.00000" pt_clust_6="13000.00000" pt_clust_7="13000.00000" pt_clust_8="13000.00000" pt_clust_9="212.06589"></scales>
<clustering>
<clus scale="   82.138">  5  6 -1 -1</clus>
<clus scale="   88.230">  7  8 -1 -1</clus>
<clus scale="  132.348">  1  7  2 -1</clus>
<clus scale="  212.066">  2  9  1 -1</clus>
<clus scale="  212.066">  2  5  1 -1</clus>
</clustering>
</event>
<event>
 9    2  0.6190160E-005  0.1207561E+03  0.7546771E-02  0.1246291E+00
          2   -1    0    0  502    0 -0.00000000000E+00  0.00000000000E+00  0.77031898648E+02  0.77031898648E+02  0.00000000000E+00 0. -1.
         21   -1    0    0  501  502  0.00000000000E+00 -0.00000000000E+00 -0.61547904122E+03  0.61547904122E+03  0.00000000000E+00 0. -1.
         24    2    1    2    0    0 -0.10446325007E+03 -0.19861390019E+02 -0.33500442997E+02  0.13758525136E+03  0.80624911058E+02 0.  0.
         23    2    1    2    0    0  0.34202989764E+02  0.18343280887E+00 -0.93703901904E+02  0.13726031430E+03  0.94287297620E+02 0.  0.
        -11    1    3    3    0    0 -0.59329931396E+02 -0.35492627707E+01 -0.58566610951E+02  0.83442710550E+02  0.00000000000E+00 0.  1.
         12    1    3    3    0    0 -0.45133318671E+02 -0.16312127248E+02  0.25066167954E+02  0.54142540811E+02  0.00000000000E+00 0. -1.
        -11    1    4    4    0    0 -0.20676681697E+02 -0.16614632498E+02  0.97658790162E+00  0.26542887992E+02  0.00000000000E+00 0. -1.
         11    1    4    4    0    0  0.54879671461E+02  0.16798065307E+02 -0.94680489805E+02  0.11071742630E+03  0.00000000000E+00 0.  1.
          1    1    1    2  501    0  0.70260260302E+02  0.19677957210E+02 -0.41124279768E+03  0.41766537421E+03  0.00000000000E+00 0. -1.
<scales pt_clust_5="13000.00000" pt_clust_6="13000.00000" pt_clust_7="13000.00000" pt_clust_8="13000.00000" pt_clust_9="72.96387"></scales>
<clustering>
<clus scale="   72.964">  2  9  1 -1</clus>
<clus scale="   80.625">  5  6 -1 -1</clus>
<clus scale="   94.287">  7  8 -1 -1</clus>
<clus scale="  110.419">  1  5  2 -1</clus>
<clus scale="   72.964">  2  5  1 -1</clus>
</clustering>
</event>
<event>
 9    2  0.6190160E-005  0.1279872E+03  0.7546771E-02  0.1240627E+00
          2   -1    0    0  502    0 -0.00000000000E+00  0.00000000000E+00  0.41577814444E+03  0.41577814444E+03  0.00000000000E+00 0. -1.
         21   -1    0    0  501  502  0.00000000000E+00 -0.00000000000E+00 -0.17946575335E+03  0.17946575335E+03  0.00000000000E+00 0.  1.
         23    2    1    2    0    0  0.35802571711E+02 -0.52782758607E+02  0.36093697923E+03  0.38270211686E+03  0.11007980527E+03 0.  0.
         24    2    1    2    0    0 -0.69360927453E+02  0.57404645883E+02 -0.13067411926E+03  0.17813070845E+03  0.80923372526E+02 0.  0.
        -13    1    4    4    0    0 -0.86571591976E+02  0.36500750141E+02 -0.10301876340E+03  0.13942672237E+03  0.00000000000E+00 0.  1.
         14    1    4    4    0    0  0.17210664523E+02  0.20903895742E+02 -0.27655355860E+02  0.38703986077E+02  0.00000000000E+00 0. -1.
        -11    1    3    3    0    0 -0.29960563669E+02  0.72797923528E+01  0.45722855987E+02  0.55147169571E+02  0.00000000000E+00 0.  1.
         11    1    3    3    0    0  0.65763135380E+02 -0.60062550960E+02  0.31521412324E+03  0.32755494729E+03  0.00000000000E+00 0. -1.
          1    1    1    2  501    0  0.33558355742E+02 -0.46218872756E+01  0.60495311323E+01  0.34411072477E+02  0.00000000000E+00 0. -1.
<scales pt_clust_5="13000.00000" pt_clust_6="13000.00000" pt_clust_7="13000.00000" pt_clust_8="13000.00000" pt_clust_9="33.87514"></scales>
<clustering>
<clus scale="   33.875">  2  9  1 -1</clus>
<clus scale="   80.923">  5  6 -1 -1</clus>
<clus scale="  103.980">  2  5  1 -1</clus>
<clus scale="  110.080">  7  8 -1 -1</clus>
<clus scale="   33.875">  2  5  1 -1</clus>
</clustering>
</event>
<event>
 9    2  0.6190160E-005  0.1003198E+03  0.7546771E-02  0.1285284E+00
          2   -1    0    0  502    0 -0.00000000000E+00  0.00000000000E+00  0.75679148957E+03  0.75679148957E+03  0.00000000000E+00 0. -1.
         21   -1    0    0  501  502  0.00000000000E+00 -0.00000000000E+00 -0.24564637173E+02  0.24564637173E+02  0.00000000000E+00 0. -1.
         23    2    1    2    0    0 -0.35839679322E+02  0.30985109894E+01  0.29941364481E+03  0.31527794364E+03  0.91965035000E+02 0.  0.
         24    2    1    2    0    0  0.21517470973E+02  0.58233866857E+02  0.33147917876E+03  0.34676610651E+03  0.80709986135E+02 0.  0.
        -13    1    4    4    0    0 -0.28121206235E+02  0.11070269156E+02  0.65853290314E+02  0.72456945453E+02  0.00000000000E+00 0.  1.
         14    1    4    4    0    0  0.49638677208E+02  0.47163597701E+02  0.26562588845E+03  0.27430916105E+03  0.00000000000E+00 0. -1.
        -13    1    3    3    0    0 -0.49457017456E+02  0.33959177508E+02  0.23535413202E+03  0.24288019633E+03  0.00000000000E+00 0. -1.
         13    1    3    3    0    0  0.13617338135E+02 -0.30860666519E+02  0.64059512788E+02  0.72397747303E+02  0.00000000000E+00 0.  1.
          1    1    1    2  501    0  0.14322208349E+02 -0.61332377846E+02  0.10133402883E+03  0.11931207660E+03  0.00000000000E+00 0. -1.
<scales pt_clust_5="13000.00000" pt_clust_6="13000.00000" pt_clust_7="13000.00000" pt_clust_8="13000.00000" pt_clust_9="62.98243"></scales>
<clustering>
<clus scale="   62.982">  2  9  1 -1</clus>
<clus scale="   80.710">  5  6 -1 -1</clus>
<clus scale="   90.114">  2  5  1 -1</clus>
<clus scale="   91.965">  7  8 -1 -1</clus>
<clus scale="   62.982">  2  5  1 -1</clus>
</clustering>
</event>
<event>
 9    2  0.6190160E-005  0.1833208E+03  0.7546771E-02  0.1174284E+00
          2   -1    0    0  502    0 -0.00000000000E+00  0.00000000000E+00  0.38561482548E+03  0.38561482548E+03  0.00000000000E+00 0. -1.
         21   -1    0    0  501  502  0.00000000000E+00 -0.00000000000E+00 -0.20358010317E+03  0.20358010317E+03  0.00000000000E+00 0. -1.
         23    2    1    2    0    0 -0.39909306859E+02 -0.10969594891E+03  0.57251406847E+02  0.15771393972E+03  0.89274908090E+02 0.  0.
         24    2    1    2    0    0 -0.12891445467E+03  0.12458606623E+03  0.16563735532E+03  0.25714731282E+03  0.80922076654E+02 0.  0.
        -13    1    4    4    0    0 -0.18377592567E+02  0.70990767657E+02  0.71063172458E+02  0.10211463892E+03  0.00000000000E+00 0.  1.
         14    1    4    4    0    0 -0.11053686211E+03  0.53595298572E+02  0.94574182865E+02  0.15503267390E+03  0.00000000000E+00 0. -1.
        -13    1    3    3    0    0 -0.14859666260E+02 -0.79873861573E+02  0.78818479328E+02  0.11319450573E+03  0.00000000000E+00 0.  1.
         13    1    3    3    0    0 -0.25049640599E+02 -0.29822087339E+02 -0.21567072481E+02  0.44519433990E+02  0.00000000000E+00 0. -1.
          1    1    1    2  501    0  0.16882376153E+03 -0.14890117317E+02 -0.40854039867E+02  0.17433367611E+03  0.00000000000E+00 0. -1.
<scales pt_clust_5="13000.00000" pt_clust_6="13000.00000" pt_clust_7="13000.00000" pt_clust_8="13000.00000" pt_clust_9="164.49361"></scales>
<clustering>
<clus scale="   80.922">  5  6 -1 -1</clus>
<clus scale="   89.275">  7  8 -1 -1</clus>
<clus scale="  146.956">  1  7  2 -1</clus>
<clus scale="  164.494">  2  9  1 -1</clus>
<clus scale="  164.494">  2  5  1 -1</clus>
</clustering>
</event>
<event>
 9    2  0.6190160E-005  0.1500500E+03  0.7546771E-02  0.1211999E+00
         21   -1    0    0  501  502  0.00000000000E+00  0.00000000000E+00  0.43309907209E+03  0.43309907209E+03  0.00000000000E+00 0. -1.
          2   -1    0    0  502    0 -0.00000000000E+00 -0.00000000000E+00 -0.17187415678E+03  0.17187415678E+03  0.00000000000E+00 0. -1.
         23    2    1    2    0    0 -0.87022492282E+02  0.26978647433E+02 -0.11236590065E+03  0.19029050462E+03  0.12362693452E+03 0.  0.
         24    2    1    2    0    0  0.44610726231E+02 -0.53938396624E+02  0.14099749187E+03  0.17672213847E+03  0.80317831072E+02 0.  0.
        -11    1    4    4    0    0  0.47086657284E+02 -0.21293561185E+02  0.13347585336E+03  0.14313061333E+03  0.00000000000E+00 0.  1.
         12    1    4    4    0    0 -0.24759310530E+01 -0.32644835439E+02  0.75216385045E+01  0.33591525140E+02  0.00000000000E+00 0. -1.
        -13    1    3    3    0    0 -0.20552052038E+02 -0.45766690579E+02 -0.16504217582E+02  0.52814448852E+02  0.00000000000E+00 0. -1.
         13    1    3    3    0    0 -0.66470440243E+02  0.72745338012E+02 -0.95861683068E+02  0.13747605577E+03  0.00000000000E+00 0.  1.
          1    1    1    2  501    0  0.42411766051E+02  0.26959749192E+02  0.23259332408E+03  0.23796058578E+03  0.00000000000E+00 0. -1.
<scales pt_clust_5="13000.00000" pt_clust_6="13000.00000" pt_clust_7="13000.00000" pt_clust_8="13000.00000" pt_clust_9="50.25521"></scales>
<clustering>
<clus scale="   50.255">  1  9  2 -1</clus>
<clus scale="   80.318">  5  6 -1 -1</clus>
<clus scale="  116.972">  1  5  2 -1</clus>
<clus scale="  123.627">  7  8 -1 -1</clus>
<clus scale="   50.255">  1  5  2 -1</clus>
</clustering>
</event>
<event>
 9    2  0.6190160E-005  0.1553302E+03  0.7546771E-02  0.1195701E+00
         21   -1    0    0  501  502  0.00000000000E+00  0.00000000000E+00  0.36840087518E+03  0.36840087518E+03  0.00000000000E+00 0. -1.
         -1   -1    0    0    0  501 -0.00000000000E+00 -0.00000000000E+00 -0.11187275016E+03  0.11187275016E+03  0.00000000000E+00 0.  1.
         23    2    1    2    0    0  0.14360035211E+02 -0.11879438906E+03  0.16588325145E+02  0.15112239162E+03  0.90799158780E+02 0.  0.
         24    2    1    2    0    0  0.13279303155E+02  0.13907733353E+03  0.11171418802E+03  0.19642166505E+03  0.81133014884E+02 0.  0.
        -11    1    4    4    0    0  0.22995494857E+02  0.92345842331E+00  0.17654769810E+02  0.29005800389E+02  0.00000000000E+00 0.  1.
         12    1    4    4    0    0 -0.97161917011E+01  0.13815387511E+03  0.94059418206E+02  0.16741586466E+03  0.00000000000E+00 0. -1.
        -11    1    3    3    0    0 -0.38266749001E+02 -0.42455809952E+02  0.11213528458E+02  0.58245884818E+02  0.00000000000E+00 0. -1.
         11    1    3    3    0    0  0.52626784212E+02 -0.76338579106E+02  0.53747966864E+01  0.92876506803E+02  0.00000000000E+00 0.  1.
         -2    1    1    2    0  502 -0.27639338366E+02 -0.20282944473E+02  0.12822561185E+03  0.13272956866E+03  0.00000000000E+00 0.  1.
<scales pt_clust_5="13000.00000" pt_clust_6="13000.00000" pt_clust_7="13000.00000" pt_clust_8="13000.00000" pt_clust_9="34.28310"></scales>
<clustering>
<clus scale="   34.283">  1  9  2 -1</clus>
<clus scale="   81.133">  5  6 -1 -1</clus>
<clus scale="   90.799">  7  8 -1 -1</clus>
<clus scale="  149.885">  1  5  2 -1</clus>
<clus scale="   34.283">  1  5  2 -1</clus>
</clustering>
</event>
<event>
 9    2  0.6190160E-005  0.9064242E+02  0.7546771E-02  0.1304006E+00
          2   -1    0    0  502    0 -0.00000000000E+00  0.00000000000E+00  0.43191590754E+03  0.43191590754E+03  0.00000000000E+00 0. -1.
         21   -1    0    0  501  502  0.00000000000E+00 -0.00000000000E+00 -0.57708457356E+02  0.57708457356E+02  0.00000000000E+00 0.  1.
         24    2    1    2    0    0 -0.19469220550E+01  0.23582564436E+01  0.34208114270E+03  0.35273836748E+03  0.85997068693E+02 0.  0.
         23    2    1    2    0    0  0.19141100795E+02 -0.17120773401E+02  0.51421515671E+02  0.10712231570E+03  0.90396435917E+02 0.  0.
        -13    1    3    3    0    0 -0.28739412558E+02  0.33768461285E+02  0.19456423104E+03  0.19955325808E+03  0.00000000000E+00 0.  1.
         14    1    3    3    0    0  0.26792490503E+02 -0.31410204841E+02  0.14751691166E+03  0.15318510940E+03  0.00000000000E+00 0. -1.
        -11    1    4    4    0    0 -0.17355202960E+02 -0.36172332407E+02 -0.14085204257E+01  0.40145044916E+02  0.00000000000E+00 0.  1.
         11    1    4    4    0    0  0.36496303754E+02  0.19051559006E+02  0.52830036097E+02  0.66977270789E+02  0.00000000000E+00 0. -1.
          1    1    1    2  501    0 -0.17194178739E+02  0.14762516958E+02 -0.19295208192E+02  0.29763681704E+02  0.00000000000E+00 0. -1.
<scales pt_clust_5="13000.00000" pt_clust_6="13000.00000" pt_clust_7="13000.00000" pt_clust_8="13000.00000" pt_clust_9="22.66212"></scales>
<clustering>
<clus scale="   22.662">  2  9  1 -1</clus>
<clus scale="   85.997">  5  6 -1 -1</clus>
<clus scale="   86.256">  1  5  2 -1</clus>
<clus scale="   90.396">  7  8 -1 -1</clus>
<clus scale="   22.662">  2  5  1 -1</clus>
</clustering>
</event>
<event>
 9    2  0.6190160E-005  0.9615009E+02  0.7546771E-02  0.1293050E+00
         21   -1    0    0  501  502  0.00000000000E+00  0.00000000000E+00  0.59906621593E+02  0.59906621593E+02  0.00000000000E+00 0. -1.
          4   -1    0    0  502    0 -0.00000000000E+00 -0.00000000000E+00 -0.49762721393E+03  0.49762721393E+03  0.00000000000E+00 0. -1.
         23    2    1    2    0    0  0.11744874769E+02  0.24668520351E+02 -0.42489629382E+03  0.43587075655E+03  0.93273672261E+02 0.  0.
         24    2    1    2    0    0 -0.10789765223E+01 -0.10852743921E+01 -0.30135648526E+02  0.90524458025E+02  0.85347397018E+02 0.  0.
        -11    1    4    4    0    0 -0.25787177772E+02  0.12533872078E+02  0.18624847781E+02  0.34190078116E+02  0.00000000000E+00 0.  1.
         12    1    4    4    0    0  0.24708201250E+02 -0.13619146470E+02 -0.48760496307E+02  0.56334379909E+02  0.00000000000E+00 0. -1.
        -11    1    3    3    0    0  0.13341671561E+02 -0.33467219179E+02 -0.21794891713E+03  0.22090673471E+03  0.00000000000E+00 0.  1.
         11    1    3    3    0    0 -0.15967967920E+01  0.58135739530E+02 -0.20694737669E+03  0.21496402185E+03  0.00000000000E+00 0. -1.
          3    1    1    2  501    0 -0.10665898247E+02 -0.23583245959E+02  0.17311350007E+02  0.31138620946E+02  0.00000000000E+00 0. -1.
<scales pt_clust_5="13000.00000" pt_clust_6="13000.00000" pt_clust_7="13000.00000" pt_clust_8="13000.00000" pt_clust_9="25.88302"></scales>
<clustering>
<clus scale="   25.883">  1  9  2 -1</clus>
<clus scale="   85.347">  5  6 -1 -1</clus>
<clus scale="   88.482">  1  5  2 -1</clus>
<clus scale="   93.274">  7  8 -1 -1</clus>
<clus scale="   25.883">  1  5  2 -1</clus>
</clustering>
</event>
<event>
 9    2  0.6190160E-005  0.2368445E+03  0.7546771E-02  0.1122456E+00
         -3   -1    0    0    0  501 -0.00000000000E+00  0.00000000000E+00  0.87676228292E+02  0.87676228292E+02  0.00000000000E+00 0.  1.
         21   -1    0    0  501  502  0.00000000000E+00 -0.00000000000E+00 -0.11123479672E+04  0.11123479672E+04  0.00000000000E+00 0. -1.
         24    2    1    2    0    0  0.18912949416E+02 -0.20626188345E+03 -0.49016093927E+03  0.53850154539E+03  0.82610554898E+02 0.  0.
         23    2    1    2    0    0  0.36446686646E+02  0.23200769258E+03 -0.54421232658E+03  0.59970310938E+03  0.91218597957E+02 0.  0.
        -13    1    3    3    0    0 -0.31158529753E+00 -0.28472993133E+02 -0.18190267365E+02  0.33788966396E+02  0.00000000000E+00 0.  1.
         14    1    3    3    0    0  0.19224534714E+02 -0.17778889032E+03 -0.47197067190E+03  0.50471257899E+03  0.00000000000E+00 0. -1.
        -11    1    4    4    0    0 -0.22308497750E+02  0.16526433471E+02 -0.46196877460E+02  0.53897528350E+02  0.00000000000E+00 0.  1.
         11    1    4    4    0    0  0.58755184396E+02  0.21548125911E+03 -0.49801544912E+03  0.54580558103E+03  0.00000000000E+00 0. -1.
         -4    1    1    2    0  502 -0.55359636062E+02 -0.25745809127E+02  0.97015269249E+01  0.61819540739E+02  0.00000000000E+00 0.  1.
<scales pt_clust_5="13000.00000" pt_clust_6="13000.00000" pt_clust_7="13000.00000" pt_clust_8="13000.00000" pt_clust_9="61.05358"></scales>
<clustering>
<clus scale="   61.054">  2  9  1 -1</clus>
<clus scale="   82.611">  5  6 -1 -1</clus>
<clus scale="   91.219">  7  8 -1 -1</clus>
<clus scale="  233.664">  1  5  2 -1</clus>
<clus scale="   61.054">  2  5  1 -1</clus>
</clustering>
</event>
<event>
 9    2  0.6190160E-005  0.3053406E+03  0.7546771E-02  0.1084088E+00
         21   -1    0    0  501  502  0.00000000000E+00  0.00000000000E+00  0.58739338670E+03  0.58739338670E+03  0.00000000000E+00 0. -1.
          2   -1    0    0  502    0 -0.00000000000E+00 -0.00000000000E+00 -0.12371084525E+04  0.12371084525E+04  0.00000000000E+00 0. -1.
         24    2    1    2    0    0 -0.19908796778E+03  0.17033410338E+03 -0.73117583019E+03  0.78054535731E+03  0.77351370227E+02 0.  0.
         23    2    1    2    0    0  0.27348639126E+03 -0.20427919013E+03 -0.41004712997E+03  0.54569208965E+03  0.11452691469E+03 0.  0.
        -13    1    3    3    0    0 -0.39599908477E+02 -0.14370978651E+00 -0.11509975963E+03  0.12172151852E+03  0.00000000000E+00 0.  1.
         14    1    3    3    0    0 -0.15948805930E+03  0.17047781317E+03 -0.61607607056E+03  0.65882383879E+03  0.00000000000E+00 0. -1.
        -11    1    4    4    0    0  0.25602282651E+03 -0.21837752878E+03 -0.37285204222E+03  0.50225001559E+03  0.00000000000E+00 0.  1.
         11    1    4    4    0    0  0.17463564744E+02  0.14098338647E+02 -0.37195087753E+02  0.43442074066E+02  0.00000000000E+00 0. -1.
          1    1    1    2  501    0 -0.74398423480E+02  0.33945086755E+02  0.49150789437E+03  0.49826439223E+03  0.00000000000E+00 0. -1.
<scales pt_clust_5="13000.00000" pt_clust_6="13000.00000" pt_clust_7="13000.00000" pt_clust_8="13000.00000" pt_clust_9="81.77649"></scales>
<clustering>
<clus scale="   77.351">  5  6 -1 -1</clus>
<clus scale="   81.776">  1  9  2 -1</clus>
<clus scale="  114.527">  7  8 -1 -1</clus>
<clus scale="  293.428">  2  5  1 -1</clus>
<clus scale="   81.776">  1  5  2 -1</clus>
</clustering>
</event>
<event>
 9    2  0.6190160E-005  0.6030024E+03  0.7546771E-02  0.1047558E+00
         21   -1    0    0  501  502  0.00000000000E+00  0.00000000000E+00  0.49425862403E+03  0.49425862403E+03  0.00000000000E+00 0. -1.
          2   -1    0    0  502    0 -0.00000000000E+00 -0.00000000000E+00 -0.10290175758E+04  0.10290175758E+04  0.00000000000E+00 0. -1.
         23    2    1    2    0    0  0.84057482894E+01 -0.32701119189E+02 -0.17888724419E+03  0.20728969524E+03  0.99138044246E+02 0.  0.
         24    2    1    2    0    0  0.59388222756E+03  0.39234640357E+02  0.28524091161E+02  0.60145615336E+03  0.81856114141E+02 0.  0.
        -11    1    4    4    0    0  0.55305898224E+02 -0.16509214509E+02  0.15850992957E+02  0.59854411031E+02  0.00000000000E+00 0.  1.
         12    1    4    4    0    0  0.53857632934E+03  0.55743854866E+02  0.12673098204E+02  0.54160174233E+03  0.00000000000E+00 0. -1.
        -11    1    3    3    0    0  0.30318651092E+02 -0.58253815333E+02 -0.84101965657E+02  0.10670458393E+03  0.00000000000E+00 0. -1.
         11    1    3    3    0    0 -0.21912902802E+02  0.25552696144E+02 -0.94785278537E+02  0.10058511131E+03  0.00000000000E+00 0.  1.
          1    1    1    2  501    0 -0.60228797585E+03 -0.65335211677E+01 -0.38439579876E+03  0.71453035125E+03  0.00000000000E+00 0. -1.
<scales pt_clust_5="13000.00000" pt_clust_6="13000.00000" pt_clust_7="13000.00000" pt_clust_8="13000.00000" pt_clust_9="597.42095"></scales>
<clustering>
<clus scale="   81.856">  5  6 -1 -1</clus>
<clus scale="   99.138">  7  8 -1 -1</clus>
<clus scale="  104.730">  2  7  1 -1</clus>
<clus scale="  597.421">  1  9  2 -1</clus>
<clus scale="  597.421">  1  5  2 -1</clus>
</clustering>
</event>
<event>
 9    2  0.6190160E-005  0.9335151E+02  0.7546771E-02  0.1302479E+00
         21   -1    0    0  501  502  0.00000000000E+00  0.00000000000E+00  0.52425009874E+03  0.52425009874E+03  0.00000000000E+00 0. -1.
          2   -1    0    0  502    0 -0.00000000000E+00 -0.00000000000E+00 -0.51419584125E+02  0.51419584125E+02  0.00000000000E+00 0. -1.
         24    2    1    2    0    0 -0.99311769511E+01  0.74257558994E+01  0.27053650660E+02  0.84873752221E+02  0.79485116064E+02 0.  0.
         23    2    1    2    0    0  0.33288851900E+02  0.68783329142E+02  0.20633892224E+03  0.23843917215E+03  0.91859642709E+02 0.  0.
        -11    1    3    3    0    0  0.30252145598E+02  0.65219752103E+01  0.31833474476E+02  0.44397055884E+02  0.00000000000E+00 0.  1.
         12    1    3    3    0    0 -0.40183322550E+02  0.90378068908E+00 -0.47798238159E+01  0.40476696337E+02  0.00000000000E+00 0. -1.
        -11    1    4    4    0    0 -0.45750774423E+01 -0.20015366585E+02  0.57307185938E+02  0.60874130740E+02  0.00000000000E+00 0.  1.
         11    1    4    4    0    0  0.37863929343E+02  0.88798695727E+02  0.14903173630E+03  0.17756504141E+03  0.00000000000E+00 0. -1.
          1    1    1    2  501    0 -0.23357674949E+02 -0.76209085041E+02  0.23943794171E+03  0.25235675849E+03  0.00000000000E+00 0. -1.
<scales pt_clust_5="13000.00000" pt_clust_6="13000.00000" pt_clust_7="13000.00000" pt_clust_8="13000.00000" pt_clust_9="79.70825"></scales>
<clustering>
<clus scale="   79.485">  5  6 -1 -1</clus>
<clus scale="   79.708">  1  9  2 -1</clus>
<clus scale="   81.205">  2  5  1 -1</clus>
<clus scale="   91.860">  7  8 -1 -1</clus>
<clus scale="   79.708">  1  5  2 -1</clus>
</clustering>
</event>
<event>
 9    2  0.6190160E-005  0.1069664E+03  0.7546771E-02  0.1270825E+00
         -3   -1    0    0    0  501 -0.00000000000E+00  0.00000000000E+00  0.24527363067E+03  0.24527363067E+03  0.00000000000E+00 0.  1.
         21   -1    0    0  501  502  0.00000000000E+00 -0.00000000000E+00 -0.78736516720E+02  0.78736516720E+02  0.00000000000E+00 0.  1.
         24    2    1    2    0    0  0.65574861363E+02 -0.30971782732E+02  0.12600039191E+03  0.16673424121E+03  0.81638806104E+02 0.  0.
         23    2    1    2    0    0 -0.28748494936E+02 -0.78408719997E+01  0.36644776082E+02  0.10363123567E+03  0.92242279662E+02 0.  0.
        -11    1    3    3    0    0  0.34243501351E+02  0.15364527268E+02  0.96402742323E+02  0.10345131614E+03  0.00000000000E+00 0.  1.
         12    1    3    3    0    0  0.31331360012E+02 -0.46336310001E+02  0.29597649583E+02  0.63282925071E+02  0.00000000000E+00 0. -1.
        -11    1    4    4    0    0 -0.48829407229E+02  0.26940650877E+02  0.13894786638E+02  0.57473252698E+02  0.00000000000E+00 0. -1.
         11    1    4    4    0    0  0.20080912293E+02 -0.34781522877E+02  0.22749989444E+02  0.46157982970E+02  0.00000000000E+00 0.  1.
         -4    1    1    2    0  502 -0.36826366427E+02  0.38812654732E+02  0.38919459646E+01  0.53644670518E+02  0.00000000000E+00 0.  1.
<scales pt_clust_5="13000.00000" pt_clust_6="13000.00000" pt_clust_7="13000.00000" pt_clust_8="13000.00000" pt_clust_9="53.50330"></scales>
<clustering>
<clus scale="   53.503">  2  9  1 -1</clus>
<clus scale="   81.639">  5  6 -1 -1</clus>
<clus scale="   92.242">  7  8 -1 -1</clus>
<clus scale="   97.970">  1  5  2 -1</clus>
<clus scale="   53.503">  2  5  1 -1</clus>
</clustering>
</event>
<event>
 9    2  0.6190160E-005  0.8957659E+02  0.7546771E-02  0.1309867E+00
         -3   -1    0    0    0  501 -0.00000000000E+00  0.00000000000E+00  0.48075230216E+02  0.48075230216E+02  0.00000000000E+00 0.  1.
         21   -1    0    0  501  502  0.00000000000E+00 -0.00000000000E+00 -0.36580045199E+03  0.36580045199E+03  0.00000000000E+00 0.  1.
         23    2    1    2    0    0  0.29706805727E+02  0.41043551332E+01 -0.78599622219E+02  0.12279605896E+03  0.89451838690E+02 0.  0.
         24    2    1    2    0    0  0.31692676980E+02 -0.37558028353E+01 -0.69872047746E+02  0.11103301049E+03  0.80172903984E+02 0.  0.
        -11    1    4    4    0    0  0.54040758433E+02  0.14462544063E+02 -0.35882956824E+02  0.66461683271E+02  0.00000000000E+00 0.  1.
         12    1    4    4    0    0 -0.22348081453E+02 -0.18218346899E+02 -0.33989090922E+02  0.44571327219E+02  0.00000000000E+00 0. -1.
        -11    1    3    3    0    0  0.40369668280E+02 -0.25155232254E+02 -0.78344051802E+02  0.91653075669E+02  0.00000000000E+00 0.  1.
         11    1    3    3    0    0 -0.10662862553E+02  0.29259587387E+02 -0.25557041636E+00  0.31142983289E+02  0.00000000000E+00 0. -1.
         -4    1    1    2    0  502 -0.61399482708E+02 -0.34855229788E+00 -0.16925355181E+03  0.18004661276E+03  0.00000000000E+00 0.  1.
<scales pt_clust_5="13000.00000" pt_clust_6="13000.00000" pt_clust_7="13000.00000" pt_clust_8="13000.00000" pt_clust_9="61.40047"></scales>
<clustering>
<clus scale="   61.400">  2  9  1 -1</clus>
<clus scale="   80.173">  5  6 -1 -1</clus>
<clus scale="   80.312">  2  5  1 -1</clus>
<clus scale="   89.452">  7  8 -1 -1</clus>
<clus scale="   61.400">  2  5  1 -1</clus>
</clustering>
</event>
<event>
 9    2  0.6190160E-005  0.9255308E+02  0.7546771E-02  0.1303259E+00
         -1   -1    0    0    0  501 -0.00000000000E+00  0.00000000000E+00  0.48980561553E+02  0.48980561553E+02  0.00000000000E+00 0.  1.
         21   -1    0    0  501  502  0.00000000000E+00 -0.00000000000E+00 -0.43261315197E+03  0.43261315197E+03  0.00000000000E+00 0. -1.
         23    2    1    2    0    0 -0.15123139196E+02 -0.99995187955E+01 -0.14478938974E+02  0.94141905701E+02  0.91237925337E+02 0.  0.
         24    2    1    2    0    0 -0.78531933540E+01  0.17692600104E+02 -0.19919044119E+03  0.21577016001E+03  0.80655001976E+02 0.  0.
        -13    1    4    4    0    0 -0.13008379035E+02  0.34714246273E+02 -0.19361418855E+03  0.19713130352E+03  0.00000000000E+00 0.  1.
         14    1    4    4    0    0  0.51551856815E+01 -0.17021646169E+02 -0.55762526425E+01  0.18638856490E+02  0.00000000000E+00 0. -1.
        -13    1    3    3    0    0 -0.48258723513E+02 -0.21057734621E+02 -0.24104074957E+02  0.57908022001E+02  0.00000000000E+00 0. -1.
         13    1    3    3    0    0  0.33135584317E+02  0.11058215826E+02  0.96251359824E+01  0.36233883700E+02  0.00000000000E+00 0.  1.
         -2    1    1    2    0  502  0.22976332550E+02 -0.76930813090E+01 -0.16996321025E+03  0.17168164781E+03  0.00000000000E+00 0.  1.
<scales pt_clust_5="13000.00000" pt_clust_6="13000.00000" pt_clust_7="13000.00000" pt_clust_8="13000.00000" pt_clust_9="24.23005"></scales>
<clustering>
<clus scale="   24.230">  2  9  1 -1</clus>
<clus scale="   80.655">  5  6 -1 -1</clus>
<clus scale="   82.140">  2  5  1 -1</clus>
<clus scale="   91.238">  7  8 -1 -1</clus>
<clus scale="   24.230">  2  5  1 -1</clus>
</clustering>
</event>
<event>
 9    2  0.6190160E-005  0.1891902E+03  0.7546771E-02  0.1160397E+00
          2   -1    0    0  502    0 -0.00000000000E+00  0.00000000000E+00  0.10026689940E+03  0.10026689940E+03  0.00000000000E+00 0. -1.
         21   -1    0    0  501  502  0.00000000000E+00 -0.00000000000E+00 -0.95541998416E+03  0.95541998416E+03  0.00000000000E+00 0. -1.
         24    2    1    2    0    0 -0.80255559246E+02  0.14629736632E+03 -0.69140844629E+02  0.19784708408E+03  0.80741179724E+02 0.  0.
         23    2    1    2    0    0  0.18249876538E+03 -0.70105170239E+02 -0.48899256885E+03  0.53460674258E+03  0.92033160136E+02 0.  0.
        -13    1    3    3    0    0 -0.19601969536E+02  0.38273393854E+02  0.17755857090E+02  0.46522686378E+02  0.00000000000E+00 0.  1.
         14    1    3    3    0    0 -0.60653589710E+02  0.10802397246E+03 -0.86896701719E+02  0.15132439771E+03  0.00000000000E+00 0. -1.
        -13    1    4    4    0    0  0.99596547500E+02 -0.69999503806E+02 -0.37054414591E+03  0.39002867442E+03  0.00000000000E+00 0. -1.
         13    1    4    4    0    0  0.82902217880E+02 -0.10566643257E+00 -0.11844842294E+03  0.14457806816E+03  0.00000000000E+00 0.  1.
          1    1    1    2  501    0 -0.10224320613E+03 -0.76192196079E+02 -0.29701967128E+03  0.32323305689E+03  0.00000000000E+00 0. -1.
<scales pt_clust_5="13000.00000" pt_clust_6="13000.00000" pt_clust_7="13000.00000" pt_clust_8="13000.00000" pt_clust_9="127.51049"></scales>
<clustering>
<clus scale="   80.741">  5  6 -1 -1</clus>
<clus scale="   92.033">  7  8 -1 -1</clus>
<clus scale="  127.510">  2  9  1 -1</clus>
<clus scale="  183.962">  1  5  2 -1</clus>
<clus scale="  127.510">  2  5  1 -1</clus>
</clustering>
</event>
<event>
 9    2  0.6190160E-005  0.1233467E+03  0.7546771E-02  0.1248819E+00
         21   -1    0    0  501  502  0.00000000000E+00  0.00000000000E+00  0.68062914482E+02  0.68062914482E+02  0.00000000000E+00 0. -1.
         -3   -1    0    0    0  501 -0.00000000000E+00 -0.00000000000E+00 -0.61588501172E+03  0.61588501172E+03  0.00000000000E+00 0.  1.
         24    2    1    2    0    0  0.47855738375E+02  0.47457969432E+02 -0.42557924503E+03  0.43838652978E+03  0.80762770684E+02 0.  0.
         23    2    1    2    0    0 -0.17692003599E+02 -0.17552636800E+02 -0.15527492057E+03  0.19175342901E+03  0.10971770381E+03 0.  0.
        -11    1    3    3    0    0  0.43640108332E+02  0.57081362871E+02 -0.42071906384E+03  0.42681058061E+03  0.00000000000E+00 0.  1.
         12    1    3    3    0    0  0.42156300427E+01 -0.96233934389E+01 -0.48601811982E+01  0.11575949171E+02  0.00000000000E+00 0. -1.
        -13    1    4    4    0    0 -0.12368604375E+01  0.38304743332E+02 -0.17407118029E+02  0.42092647143E+02  0.00000000000E+00 0. -1.
         13    1    4    4    0    0 -0.16455143162E+02 -0.55857380132E+02 -0.13786780255E+03  0.14966078187E+03  0.00000000000E+00 0.  1.
         -4    1    1    2    0  502 -0.30163734776E+02 -0.29905332632E+02  0.33032068374E+02  0.53807967407E+02  0.00000000000E+00 0.  1.
<scales pt_clust_5="13000.00000" pt_clust_6="13000.00000" pt_clust_7="13000.00000" pt_clust_8="13000.00000" pt_clust_9="42.47564"></scales>
<clustering>
<clus scale="   42.476">  1  9  2 -1</clus>
<clus scale="   80.763">  5  6 -1 -1</clus>
<clus scale="   98.484">  2  5  1 -1</clus>
<clus scale="  109.718">  7  8 -1 -1</clus>
<clus scale="   42.476">  1  5  2 -1</clus>
</clustering>
</event>
<event>
 9    2  0.6498521E-005  0.1119640E+03  0.7546771E-02  0.1261232E+00
         21   -1    0    0  501  502  0.00000000000E+00  0.00000000000E+00  0.82930015236E+02  0.82930015236E+02  0.00000000000E+00 0. -1.
          2   -1    0    0  502    0 -0.00000000000E+00 -0.00000000000E+00 -0.10164825178E+04  0.10164825178E+04  0.00000000000E+00 0. -1.
         24    2    1    2    0    0  0.63304523879E+02  0.21418495356E+02 -0.89669324986E+03  0.90278487881E+03  0.80594902978E+02 0.  0.
         23    2    1    2    0    0 -0.49062264569E+02  0.29777165487E+02 -0.74567583230E+02  0.13146818967E+03  0.91813806361E+02 0.  0.
        -13    1    3    3    0    0  0.38676531686E+02 -0.48981766846E+01 -0.14266866930E+03  0.14789934225E+03  0.00000000000E+00 0.  1.
         14    1    3    3    0    0  0.24627992192E+02  0.26316672041E+02 -0.75402458056E+03  0.75488553657E+03  0.00000000000E+00 0. -1.
        -11    1    4    4    0    0 -0.46940592207E+02  0.58866707532E+02 -0.36953114374E+02  0.83870382820E+02  0.00000000000E+00 0.  1.
         11    1    4    4    0    0 -0.21216723618E+01 -0.29089542046E+02 -0.37614468856E+02  0.47597806854E+02  0.00000000000E+00 0. -1.
          1    1    1    2  501    0 -0.14242259310E+02 -0.51195660843E+02  0.37708330476E+02  0.65159464597E+02  0.00000000000E+00 0. -1.
<scales pt_clust_5="13000.00000" pt_clust_6="13000.00000" pt_clust_7="13000.00000" pt_clust_8="13000.00000" pt_clust_9="53.13979"></scales>
<clustering>
<clus scale="   53.140">  1  9  2 -1</clus>
<clus scale="   80.595">  5  6 -1 -1</clus>
<clus scale="   91.814">  7  8 -1 -1</clus>
<clus scale="  102.965">  2  5  1 -1</clus>
<clus scale="   53.140">  1  5  2 -1</clus>
</clustering>
</event>
<event>
 9    2  0.6190160E-005  0.9596477E+02  0.7546771E-02  0.1295910E+00
         21   -1    0    0  501  502  0.00000000000E+00  0.00000000000E+00  0.38905312183E+02  0.38905312183E+02  0.00000000000E+00 0.  1.
          2   -1    0    0  502    0 -0.00000000000E+00 -0.00000000000E+00 -0.66987223825E+03  0.66987223825E+03  0.00000000000E+00 0. -1.
         24    2    1    2    0    0 -0.28696930830E+02  0.69134978662E+01 -0.35733264471E+03  0.36729796762E+03  0.79686057437E+02 0.  0.
         23    2    1    2    0    0  0.20512213277E+02  0.65432798926E+02 -0.96059581300E+02  0.14955837408E+03  0.91858924605E+02 0.  0.
        -11    1    3    3    0    0 -0.10828397982E+02 -0.24132533683E+02 -0.40028403771E+02  0.47978187682E+02  0.00000000000E+00 0.  1.
         12    1    3    3    0    0 -0.17868532848E+02  0.31046031549E+02 -0.31730424094E+03  0.31931977993E+03  0.00000000000E+00 0. -1.
        -13    1    4    4    0    0  0.51184424501E+02  0.53665907974E+02 -0.39183282468E+02  0.83876126610E+02  0.00000000000E+00 0.  1.
         13    1    4    4    0    0 -0.30672211224E+02  0.11766890952E+02 -0.56876298833E+02  0.65682247472E+02  0.00000000000E+00 0. -1.
          1    1    1    2  501    0  0.81847175526E+01 -0.72346296792E+02 -0.17757470006E+03  0.19192120874E+03  0.00000000000E+00 0. -1.
<scales pt_clust_5="13000.00000" pt_clust_6="13000.00000" pt_clust_7="13000.00000" pt_clust_8="13000.00000" pt_clust_9="72.80784"></scales>
<clustering>
<clus scale="   72.808">  1  9  2 -1</clus>
<clus scale="   79.686">  5  6 -1 -1</clus>
<clus scale="   84.386">  2  5  1 -1</clus>
<clus scale="   91.859">  7  8 -1 -1</clus>
<clus scale="   72.808">  1  5  2 -1</clus>
</clustering>
</event>
<event>
 9    2  0.6190160E-005  0.1086658E+03  0.7546771E-02  0.1271237E+00
         -3   -1    0    0    0  501 -0.00000000000E+00  0.00000000000E+00  0.84839468030E+03  0.84839468030E+03  0.00000000000E+00 0.  1.
         21   -1    0    0  501  502  0.00000000000E+00 -0.00000000000E+00 -0.13958220086E+03  0.13958220086E+03  0.00000000000E+00 0.  1.
         24    2    1    2    0    0 -0.21555741746E+02  0.22216072485E+02  0.40898478902E+03  0.41796050808E+03  0.80400402886E+02 0.  0.
         23    2    1    2    0    0  0.11352028967E+02 -0.88730364652E+02  0.41546539681E+03  0.43622419860E+03  0.98377382210E+02 0.  0.
        -11    1    3    3    0    0 -0.83635791374E+01 -0.30364506187E+02  0.17138792024E+03  0.17425777427E+03  0.00000000000E+00 0.  1.
         12    1    3    3    0    0 -0.13192162608E+02  0.52580578672E+02  0.23759686878E+03  0.24370273380E+03  0.00000000000E+00 0. -1.
        -13    1    4    4    0    0 -0.12093838073E+02 -0.10312730225E+03  0.35330351626E+03  0.36824567341E+03  0.00000000000E+00 0.  1.
         13    1    4    4    0    0  0.23445867041E+02  0.14396937597E+02  0.62161880548E+02  0.67978525188E+02  0.00000000000E+00 0. -1.
         -4    1    1    2    0  502  0.10203712778E+02  0.66514292167E+02 -0.11563770638E+03  0.13379217449E+03  0.00000000000E+00 0.  1.
<scales pt_clust_5="13000.00000" pt_clust_6="13000.00000" pt_clust_7="13000.00000" pt_clust_8="13000.00000" pt_clust_9="67.29240"></scales>
<clustering>
<clus scale="   67.292">  2  9  1 -1</clus>
<clus scale="   80.400">  5  6 -1 -1</clus>
<clus scale="   92.706">  1  5  2 -1</clus>
<clus scale="   98.377">  7  8 -1 -1</clus>
<clus scale="   67.292">  2  5  1 -1</clus>
</clustering>
</event>
<event>
 9    2  0.6190160E-005  0.2241904E+03  0.7546771E-02  0.1131635E+00
         21   -1    0    0  501  502  0.00000000000E+00  0.00000000000E+00  0.19596503065E+03  0.19596503065E+03  0.00000000000E+00 0. -1.
          2   -1    0    0  502    0 -0.00000000000E+00 -0.00000000000E+00 -0.11098812571E+04  0.11098812571E+04  0.00000000000E+00 0. -1.
         23    2    1    2    0    0  0.11069050005E+03 -0.17551446096E+03 -0.99468155878E+03  0.10202007825E+04  0.91435881731E+02 0.  0.
         24    2    1    2    0    0 -0.14647132483E+03  0.11249921964E+03  0.66210554877E+02  0.21173319495E+03  0.79606437244E+02 0.  0.
        -11    1    4    4    0    0 -0.27870813163E+02  0.43904547497E+02 -0.12826043241E+02  0.53562103231E+02  0.00000000000E+00 0.  1.
         12    1    4    4    0    0 -0.11860051167E+03  0.68594672138E+02  0.79036598119E+02  0.15817109172E+03  0.00000000000E+00 0. -1.
        -13    1    3    3    0    0  0.58378668432E+02 -0.19400216722E+02 -0.23892399003E+03  0.24671666006E+03  0.00000000000E+00 0.  1.
         13    1    3    3    0    0  0.52311831620E+02 -0.15611424424E+03 -0.75575756875E+03  0.77348412247E+03  0.00000000000E+00 0. -1.
          1    1    1    2  501    0  0.35780824781E+02  0.63015241327E+02  0.14554777465E+02  0.73912310264E+02  0.00000000000E+00 0. -1.
<scales pt_clust_5="13000.00000" pt_clust_6="13000.00000" pt_clust_7="13000.00000" pt_clust_8="13000.00000" pt_clust_9="72.46508"></scales>
<clustering>
<clus scale="   72.465">  1  9  2 -1</clus>
<clus scale="   79.606">  5  6 -1 -1</clus>
<clus scale="   91.436">  7  8 -1 -1</clus>
<clus scale="  219.631">  1  5  2 -1</clus>
<clus scale="   72.465">  1  5  2 -1</clus>
</clustering>
</event>
<event>
 9    2  0.6190160E-005  0.1774308E+03  0.7546771E-02  0.1192731E+00
         -1   -1    0    0    0  501 -0.00000000000E+00  0.00000000000E+00  0.51587483851E+03  0.51587483851E+03  0.00000000000E+00 0.  1.
         21   -1    0    0  501  502  0.00000000000E+00 -0.00000000000E+00 -0.11111701617E+03  0.11111701617E+03  0.00000000000E+00 0. -1.
         24    2    1    2    0    0 -0.69548726047E+02 -0.16970371643E+02  0.17192337695E+02  0.10869963790E+03  0.79968843904E+02 0.  0.
         23    2    1    2    0    0 -0.12243817092E+03  0.14178843926E+02  0.17196284880E+03  0.22958603773E+03  0.89142481688E+02 0.  0.
        -13    1    3    3    0    0 -0.31425006542E+02 -0.38224431441E+02  0.35978143999E+02  0.61180593661E+02  0.00000000000E+00 0.  1.
         14    1    3    3    0    0 -0.38123719506E+02  0.21254059797E+02 -0.18785806303E+02  0.47519044238E+02  0.00000000000E+00 0. -1.
        -11    1    4    4    0    0 -0.22059251269E+02  0.18842869932E+02 -0.15749006683E+01  0.29054167101E+02  0.00000000000E+00 0.  1.
         11    1    4    4    0    0 -0.10037891965E+03 -0.46640260059E+01  0.17353774947E+03  0.20053187063E+03  0.00000000000E+00 0. -1.
         -2    1    1    2    0  502  0.19198689697E+03  0.27915277175E+01  0.21560263585E+03  0.28870617904E+03  0.00000000000E+00 0.  1.
<scales pt_clust_5="13000.00000" pt_clust_6="13000.00000" pt_clust_7="13000.00000" pt_clust_8="13000.00000" pt_clust_9="153.41230"></scales>
<clustering>
<clus scale="   79.969">  5  6 -1 -1</clus>
<clus scale="   89.142">  7  8 -1 -1</clus>
<clus scale="  107.331">  1  5  2 -1</clus>
<clus scale="  153.412">  2  9  1 -1</clus>
<clus scale="  153.412">  2  5  1 -1</clus>
</clustering>
</event>
<event>
 9    2  0.6190160E-005  0.1076766E+03  0.7546771E-02  0.1269745E+00
         21   -1    0    0  501  502  0.00000000000E+00  0.00000000000E+00  0.31876071002E+03  0.31876071002E+03  0.00000000000E+00 0.  1.
         -3   -1    0    0    0  501 -0.00000000000E+00 -0.00000000000E+00 -0.24823991821E+03  0.24823991821E+03  0.00000000000E+00 0.  1.
         23    2    1    2    0    0  0.53549768574E+02  0.16962843519E+02 -0.22002486439E+03  0.24521799580E+03  0.92550573951E+02 0.  0.
         24    2    1    2    0    0 -0.30944859846E+02 -0.36231827127E+02  0.14245853683E+03  0.17074597942E+03  0.81175274085E+02 0.  0.
        -13    1    4    4    0    0 -0.42389834717E+02 -0.53507252066E+02  0.81225083879E+02  0.10610107616E+03  0.00000000000E+00 0.  1.
         14    1    4    4    0    0  0.11444974871E+02  0.17275424939E+02  0.61233452955E+02  0.64644903259E+02  0.00000000000E+00 0. -1.
        -13    1    3    3    0    0  0.26483427056E+01  0.39690917229E+02 -0.38625711157E+02  0.55446624712E+02  0.00000000000E+00 0.  1.
         13    1    3    3    0    0  0.50901425868E+02 -0.22728073710E+02 -0.18139915324E+03  0.18977137109E+03  0.00000000000E+00 0. -1.
         -4    1    1    2    0  502 -0.22604908728E+02  0.19268983607E+02  0.14808711937E+03  0.15103665301E+03  0.00000000000E+00 0.  1.
<scales pt_clust_5="13000.00000" pt_clust_6="13000.00000" pt_clust_7="13000.00000" pt_clust_8="13000.00000" pt_clust_9="29.70312"></scales>
<clustering>
<clus scale="   29.703">  1  9  2 -1</clus>
<clus scale="   81.175">  5  6 -1 -1</clus>
<clus scale="   92.551">  7  8 -1 -1</clus>
<clus scale="   98.072">  1  5  2 -1</clus>
<clus scale="   29.703">  1  5  2 -1</clus>
</clustering>
</event>
<event>
 9    2  0.6190160E-005  0.5419242E+03  0.7546771E-02  0.1003468E+00
         21   -1    0    0  501  502  0.00000000000E+00  0.00000000000E+00  0.71833092451E+03  0.71833092451E+03  0.00000000000E+00 0. -1.
          2   -1    0    0  502    0 -0.00000000000E+00 -0.00000000000E+00 -0.12295707426E+04  0.12295707426E+04  0.00000000000E+00 0. -1.
         24    2    1    2    0    0  0.45549878627E+03 -0.42092388442E+03 -0.63215050387E+03  0.88945622609E+03  0.82837538716E+02 0.  0.
         23    2    1    2    0    0 -0.47896833674E+03  0.70341064952E+02 -0.24572049908E+03  0.55062897925E+03  0.91952031516E+02 0.  0.
        -11    1    3    3    0    0  0.27212109343E+03 -0.26477636010E+03 -0.32992158331E+03  0.50299568735E+03  0.00000000000E+00 0.  1.
         12    1    3    3    0    0  0.18337769284E+03 -0.15614752432E+03 -0.30222892055E+03  0.38646053874E+03  0.00000000000E+00 0. -1.
        -11    1    4    4    0    0 -0.36320735668E+03  0.62631337750E+02 -0.14189781243E+03  0.39493956194E+03  0.00000000000E+00 0. -1.
         11    1    4    4    0    0 -0.11576098006E+03  0.77097272017E+01 -0.10382268664E+03  0.15568941730E+03  0.00000000000E+00 0.  1.
          1    1    1    2  501    0  0.23469550469E+02  0.35058281947E+03  0.36663118487E+03  0.50781646175E+03  0.00000000000E+00 0. -1.
<scales pt_clust_5="13000.00000" pt_clust_6="13000.00000" pt_clust_7="13000.00000" pt_clust_8="13000.00000" pt_clust_9="351.36752"></scales>
<clustering>
<clus scale="   82.838">  5  6 -1 -1</clus>
<clus scale="   91.952">  7  8 -1 -1</clus>
<clus scale="  351.368">  1  9  2 -1</clus>
<clus scale="  540.452">  2  5  1 -1</clus>
<clus scale="  351.368">  1  5  2 -1</clus>
</clustering>
</event>
<event>
 9    2  0.6190160E-005  0.1007353E+03  0.7546771E-02  0.1282344E+00
          2   -1    0    0  502    0 -0.00000000000E+00  0.00000000000E+00  0.79273700385E+02  0.79273700385E+02  0.00000000000E+00 0. -1.
         21   -1    0    0  501  502  0.00000000000E+00 -0.00000000000E+00 -0.20581342196E+03  0.20581342196E+03  0.00000000000E+00 0. -1.
         24    2    1    2    0    0  0.92140749990E+01  0.57097732443E+02 -0.33867768572E+02  0.10495187932E+03  0.80763983294E+02 0.  0.
         23    2    1    2    0    0 -0.87995168863E+01 -0.29401768107E+02 -0.11230195183E+03  0.14618564579E+03  0.88411646205E+02 0.  0.
        -13    1    3    3    0    0 -0.30860892663E+02  0.98545745610E+01  0.35304426748E+01  0.32587902069E+02  0.00000000000E+00 0.  1.
         14    1    3    3    0    0  0.40074967662E+02  0.47243157882E+02 -0.37398211247E+02  0.72363977256E+02  0.00000000000E+00 0. -1.
        -13    1    4    4    0    0  0.80976307203E+01  0.25602935349E+02 -0.97026535843E+01  0.28552117406E+02  0.00000000000E+00 0.  1.
         13    1    4    4    0    0 -0.16897147607E+02 -0.55004703456E+02 -0.10259929824E+03  0.11763352838E+03  0.00000000000E+00 0. -1.
          1    1    1    2  501    0 -0.41455811268E+00 -0.27695964336E+02  0.19629998820E+02  0.33949597238E+02  0.00000000000E+00 0. -1.
<scales pt_clust_5="13000.00000" pt_clust_6="13000.00000" pt_clust_7="13000.00000" pt_clust_8="13000.00000" pt_clust_9="27.69908"></scales>
<clustering>
<clus scale="   27.699">  2  9  1 -1</clus>
<clus scale="   80.764">  5  6 -1 -1</clus>
<clus scale="   88.412">  7  8 -1 -1</clus>
<clus scale="   94.095">  1  5  2 -1</clus>
<clus scale="   27.699">  2  5  1 -1</clus>
</clustering>
</event>
<event>
 9    2  0.6190160E-005  0.1435914E+03  0.7546771E-02  0.1224900E+00
          2   -1    0    0  502    0 -0.00000000000E+00  0.00000000000E+00  0.14765705090E+03  0.14765705090E+03  0.00000000000E+00 0. -1.
         21   -1    0    0  501  502  0.00000000000E+00 -0.00000000000E+00 -0.11424542836E+04  0.11424542836E+04  0.00000000000E+00 0. -1.
         23    2    1    2    0    0  0.40019162444E+02  0.20851646786E+02  0.79764831482E+02  0.12927330415E+03  0.91174745883E+02 0.  0.
         24    2    1    2    0    0 -0.12941081701E+03 -0.90402455947E+02 -0.16143124280E+03  0.24070973499E+03  0.83434805486E+02 0.  0.
        -13    1    4    4    0    0 -0.45935140278E+02 -0.45502722260E+02 -0.12195139318E+03  0.13803143535E+03  0.00000000000E+00 0.  1.
         14    1    4    4    0    0 -0.83475676729E+02 -0.44899733687E+02 -0.39479849612E+02  0.10267829963E+03  0.00000000000E+00 0. -1.
        -13    1    3    3    0    0  0.58581352632E+02 -0.55966959298E+00  0.17949183711E+02  0.61272027077E+02  0.00000000000E+00 0. -1.
         13    1    3    3    0    0 -0.18562190187E+02  0.21411316379E+02  0.61815647771E+02  0.68001277069E+02  0.00000000000E+00 0.  1.
          1    1    1    2  501    0  0.89391654563E+02  0.69550809161E+02 -0.91313082135E+03  0.92012829532E+03  0.00000000000E+00 0. -1.
<scales pt_clust_5="13000.00000" pt_clust_6="13000.00000" pt_clust_7="13000.00000" pt_clust_8="13000.00000" pt_clust_9="116.86367"></scales>
<clustering>
<clus scale="   83.435">  5  6 -1 -1</clus>
<clus scale="   91.175">  7  8 -1 -1</clus>
<clus scale="  101.731">  1  7  2 -1</clus>
<clus scale="  116.864">  2  9  1 -1</clus>
<clus scale="  116.864">  2  5  1 -1</clus>
</clustering>
</event>
<event>
 9    2  0.6190160E-005  0.9764174E+02  0.7546771E-02  0.1291291E+00
         -1   -1    0    0    0  501 -0.00000000000E+00  0.00000000000E+00  0.10770408405E+03  0.10770408405E+03  0.00000000000E+00 0.  1.
         21   -1    0    0  501  502  0.00000000000E+00 -0.00000000000E+00 -0.14918570173E+03  0.14918570173E+03  0.00000000000E+00 0. -1.
         23    2    1    2    0    0 -0.98430025593E+01 -0.36045410275E+02  0.37199015341E+02  0.10607597431E+03  0.92044496205E+02 0.  0.
         24    2    1    2    0    0 -0.19577712318E+02  0.22265006334E+02 -0.80889845233E+02  0.11825066336E+03  0.81000216023E+02 0.  0.
        -13    1    4    4    0    0 -0.51097966709E+02  0.11802862259E+02 -0.56192898751E+02  0.76863200749E+02  0.00000000000E+00 0.  1.
         14    1    4    4    0    0  0.31520254391E+02  0.10462144076E+02 -0.24696946482E+02  0.41387462607E+02  0.00000000000E+00 0. -1.
        -11    1    3    3    0    0  0.19497937464E+02  0.12747375320E+02  0.42940074716E+02  0.48851971910E+02  0.00000000000E+00 0. -1.
         11    1    3    3    0    0 -0.29340940024E+02 -0.48792785596E+02 -0.57410593742E+01  0.57224002398E+02  0.00000000000E+00 0.  1.
         -2    1    1    2    0  502  0.29420714877E+02  0.13780403941E+02  0.22092122151E+01  0.32563148117E+02  0.00000000000E+00 0.  1.
<scales pt_clust_5="13000.00000" pt_clust_6="13000.00000" pt_clust_7="13000.00000" pt_clust_8="13000.00000" pt_clust_9="32.48814"></scales>
<clustering>
<clus scale="   32.488">  2  9  1 -1</clus>
<clus scale="   81.000">  5  6 -1 -1</clus>
<clus scale="   87.308">  2  5  1 -1</clus>
<clus scale="   92.044">  7  8 -1 -1</clus>
<clus scale="   32.488">  2  5  1 -1</clus>
</clustering>
</event>
<event>
 9    2  0.6190160E-005  0.1119218E+03  0.7546771E-02  0.1261165E+00
          2   -1    0    0  502    0 -0.00000000000E+00  0.00000000000E+00  0.74508464356E+03  0.74508464356E+03  0.00000000000E+00 0. -1.
         21   -1    0    0  501  502  0.00000000000E+00 -0.00000000000E+00 -0.82416625728E+02  0.82416625728E+02  0.00000000000E+00 0. -1.
         23    2    1    2    0    0  0.26541604136E+02 -0.53814669057E+02  0.43100625443E+03  0.44446305495E+03  0.90446340479E+02 0.  0.
         24    2    1    2    0    0 -0.34517146329E+02  0.12474586282E+03  0.12300400145E+02  0.15235607109E+03  0.79423603990E+02 0.  0.
        -11    1    4    4    0    0 -0.48537539976E+02  0.32317309195E+02  0.68221603006E+01  0.58709821425E+02  0.00000000000E+00 0.  1.
         12    1    4    4    0    0  0.14020393647E+02  0.92428553629E+02  0.54782398444E+01  0.93646249662E+02  0.00000000000E+00 0. -1.
        -13    1    3    3    0    0 -0.24532416837E+02 -0.42075988382E+02  0.28941687763E+03  0.29348655392E+03  0.00000000000E+00 0.  1.
         13    1    3    3    0    0  0.51074020973E+02 -0.11738680675E+02  0.14158937680E+03  0.15097650104E+03  0.00000000000E+00 0. -1.
          1    1    1    2  501    0  0.79755421926E+01 -0.70931193768E+02  0.21936136325E+03  0.23068214324E+03  0.00000000000E+00 0. -1.
<scales pt_clust_5="13000.00000" pt_clust_6="13000.00000" pt_clust_7="13000.00000" pt_clust_8="13000.00000" pt_clust_9="71.37821"></scales>
<clustering>
<clus scale="   71.378">  2  9  1 -1</clus>
<clus scale="   79.424">  5  6 -1 -1</clus>
<clus scale="   90.446">  7  8 -1 -1</clus>
<clus scale="  103.219">  2  5  1 -1</clus>
<clus scale="   71.378">  2  5  1 -1</clus>
</clustering>
</event>
<event>
 9    2  0.6190160E-005  0.1185518E+03  0.7546771E-02  0.1248396E+00
         -3   -1    0    0    0  501 -0.00000000000E+00  0.00000000000E+00  0.74332921678E+03  0.74332921678E+03  0.00000000000E+00 0.  1.
         21   -1    0    0  501  502  0.00000000000E+00 -0.00000000000E+00 -0.44234570193E+02  0.44234570193E+02  0.00000000000E+00 0.  1.
         24    2    1    2    0    0  0.17184032234E+02  0.75323129579E+02  0.37529506646E+03  0.39154945787E+03  0.80596068345E+02 0.  0.
         23    2    1    2    0    0  0.68079104246E+02 -0.83991432682E+02  0.17605497700E+03  0.22521207597E+03  0.89642618436E+02 0.  0.
        -11    1    3    3    0    0 -0.28436920825E+02  0.52877239697E+02  0.18023499969E+03  0.18997188228E+03  0.00000000000E+00 0.  1.
         12    1    3    3    0    0  0.45620953059E+02  0.22445889882E+02  0.19506006677E+03  0.20157757559E+03  0.00000000000E+00 0. -1.
        -13    1    4    4    0    0 -0.11626946808E+01 -0.64367227754E+02  0.56439926856E+02  0.85615169282E+02  0.00000000000E+00 0.  1.
         13    1    4    4    0    0  0.69241798927E+02 -0.19624204928E+02  0.11961505014E+03  0.13959690669E+03  0.00000000000E+00 0. -1.
         -4    1    1    2    0  502 -0.85263136480E+02  0.86683031030E+01  0.14774460313E+03  0.17080225313E+03  0.00000000000E+00 0.  1.
<scales pt_clust_5="13000.00000" pt_clust_6="13000.00000" pt_clust_7="13000.00000" pt_clust_8="13000.00000" pt_clust_9="85.70264"></scales>
<clustering>
<clus scale="   80.596">  5  6 -1 -1</clus>
<clus scale="   85.703">  2  9  1 -1</clus>
<clus scale="   89.643">  7  8 -1 -1</clus>
<clus scale="  111.868">  1  5  2 -1</clus>
<clus scale="   85.703">  2  5  1 -1</clus>
</clustering>
</event>
<event>
 9    2  0.6190160E-005  0.1387380E+03  0.7546771E-02  0.1240677E+00
         21   -1    0    0  501  502  0.00000000000E+00  0.00000000000E+00  0.61134645219E+02  0.61134645219E+02  0.00000000000E+00 0. -1.
          2   -1    0    0  502    0 -0.00000000000E+00 -0.00000000000E+00 -0.48827161577E+03  0.48827161577E+03  0.00000000000E+00 0. -1.
         24    2    1    2    0    0  0.34791912603E+02  0.24950034883E+01 -0.50927814486E+02  0.96144763663E+02  0.73712082228E+02 0.  0.
         23    2    1    2    0    0 -0.18067042968E+01  0.99901819874E+02 -0.26949926957E+03  0.30173548215E+03  0.91819426544E+02 0.  0.
        -11    1    3    3    0    0 -0.98501339103E+01  0.28201818868E+02 -0.21634815950E+02  0.36884047863E+02  0.00000000000E+00 0.  1.
         12    1    3    3    0    0  0.44642046514E+02 -0.25706815380E+02 -0.29292998536E+02  0.59260715800E+02  0.00000000000E+00 0. -1.
        -13    1    4    4    0    0  0.25201497535E+02  0.78127002191E+02 -0.24724905297E+03  0.26052070579E+03  0.00000000000E+00 0. -1.
         13    1    4    4    0    0 -0.27008201831E+02  0.21774817683E+02 -0.22250216600E+02  0.41214776356E+02  0.00000000000E+00 0.  1.
          1    1    1    2  501    0 -0.32985208306E+02 -0.10239682336E+03 -0.10670988649E+03  0.15152601518E+03  0.00000000000E+00 0. -1.
<scales pt_clust_5="13000.00000" pt_clust_6="13000.00000" pt_clust_7="13000.00000" pt_clust_8="13000.00000" pt_clust_9="104.00682"></scales>
<clustering>
<clus scale="   73.712">  5  6 -1 -1</clus>
<clus scale="   81.549">  2  5  1 -1</clus>
<clus scale="   91.819">  7  8 -1 -1</clus>
<clus scale="  104.007">  1  9  2 -1</clus>
<clus scale="  104.007">  1  5  2 -1</clus>
</clustering>
</event>
<event>
 9    2  0.6190160E-005  0.1170587E+03  0.7546771E-02  0.1255089E+00
          2   -1    0    0  502    0 -0.00000000000E+00  0.00000000000E+00  0.14287950966E+04  0.14287950966E+04  0.00000000000E+00 0. -1.
         21   -1    0    0  501  502  0.00000000000E+00 -0.00000000000E+00 -0.19247325028E+02  0.19247325028E+02  0.00000000000E+00 0.  1.
         24    2    1    2    0    0  0.50109901960E+02  0.83589360422E+02  0.10956991395E+04  0.11031632459E+04  0.83152626680E+02 0.  0.
         23    2    1    2    0    0  0.43712486878E+01 -0.55719239137E+02  0.18433575174E+03  0.20163628549E+03  0.59613596024E+02 0.  0.
        -11    1    3    3    0    0  0.41390856069E+02  0.32991357925E+02  0.23295113184E+03  0.23888880779E+03  0.00000000000E+00 0.  1.
         12    1    3    3    0    0  0.87190458908E+01  0.50598002498E+02  0.86274800771E+03  0.86427443814E+03  0.00000000000E+00 0. -1.
        -11    1    4    4    0    0  0.29773145871E+02 -0.14224697306E+02  0.70517085852E+02  0.77855260744E+02  0.00000000000E+00 0.  1.
         11    1    4    4    0    0 -0.25401897183E+02 -0.41494541831E+02  0.11381866589E+03  0.12378102474E+03  0.00000000000E+00 0. -1.
          1    1    1    2  501    0 -0.54481150648E+02 -0.27870121285E+02  0.12951288033E+03  0.14324289026E+03  0.00000000000E+00 0. -1.
<scales pt_clust_5="13000.00000" pt_clust_6="13000.00000" pt_clust_7="13000.00000" pt_clust_8="13000.00000" pt_clust_9="61.19591"></scales>
<clustering>
<clus scale="   59.614">  7  8 -1 -1</clus>
<clus scale="   61.196">  2  9  1 -1</clus>
<clus scale="   83.153">  5  6 -1 -1</clus>
<clus scale="  101.696">  2  7  1 -1</clus>
<clus scale="   61.196">  2  5  1 -1</clus>
</clustering>
</event>
<event>
 9    2  0.6190160E-005  0.9784696E+02  0.7546771E-02  0.1292388E+00
         21   -1    0    0  501  502  0.00000000000E+00  0.00000000000E+00  0.11704508653E+03  0.11704508653E+03  0.00000000000E+00 0.  1.
         -1   -1    0    0    0  501 -0.00000000000E+00 -0.00000000000E+00 -0.14875082640E+03  0.14875082640E+03  0.00000000000E+00 0.  1.
         23    2    1    2    0    0 -0.41152626287E+02 -0.43919599695E+01 -0.82933198110E+02  0.13005670290E+03  0.91235972395E+02 0.  0.
         24    2    1    2    0    0  0.19349832350E+02 -0.29469246177E+02  0.29206496570E+02  0.89838601551E+02  0.77298786566E+02 0.  0.
        -11    1    4    4    0    0 -0.28815025150E+02 -0.15493618494E+02  0.19870336070E+01  0.32776610426E+02  0.00000000000E+00 0.  1.
         12    1    4    4    0    0  0.48164857501E+02 -0.13975627684E+02  0.27219462963E+02  0.57061991125E+02  0.00000000000E+00 0. -1.
        -11    1    3    3    0    0 -0.29048887692E+02  0.16453135095E+02 -0.96698153925E+02  0.10229895651E+03  0.00000000000E+00 0.  1.
         11    1    3    3    0    0 -0.12103738595E+02 -0.20845095065E+02  0.13764955816E+02  0.27757746393E+02  0.00000000000E+00 0. -1.
         -2    1    1    2    0  502  0.21802793937E+02  0.33861206147E+02  0.22020961667E+02  0.45900608470E+02  0.00000000000E+00 0.  1.
<scales pt_clust_5="13000.00000" pt_clust_6="13000.00000" pt_clust_7="13000.00000" pt_clust_8="13000.00000" pt_clust_9="40.27335"></scales>
<clustering>
<clus scale="   40.273">  1  9  2 -1</clus>
<clus scale="   77.299">  5  6 -1 -1</clus>
<clus scale="   85.001">  1  5  2 -1</clus>
<clus scale="   91.236">  7  8 -1 -1</clus>
<clus scale="   40.273">  1  5  2 -1</clus>
</clustering>
</event>
<event>
 9    2  0.6190160E-005  0.8845345E+02  0.7546771E-02  0.1312228E+00
         -1   -1    0    0    0  501 -0.00000000000E+00  0.00000000000E+00  0.88724907362E+02  0.88724907362E+02  0.00000000000E+00 0.  1.
         21   -1    0    0  501  502  0.00000000000E+00 -0.00000000000E+00 -0.11958751678E+03  0.11958751678E+03  0.00000000000E+00 0. -1.
         23    2    1    2    0    0 -0.55483084263E+01 -0.57607522616E+01 -0.60135612309E+00  0.88498637248E+02  0.88134426716E+02 0.  0.
         24    2    1    2    0    0 -0.10650059851E+02 -0.21994713199E+02 -0.16481761347E+02  0.84847697659E+02  0.79563133155E+02 0.  0.
        -13    1    4    4    0    0  0.34766141152E+02 -0.11493269338E+02 -0.73720586344E+01  0.37351399695E+02  0.00000000000E+00 0.  1.
         14    1    4    4    0    0 -0.45416201003E+02 -0.10501443862E+02 -0.91097027128E+01  0.47496297964E+02  0.00000000000E+00 0. -1.
        -11    1    3    3    0    0 -0.10551477718E+02 -0.42781165538E+02  0.16966805586E+02  0.47216885736E+02  0.00000000000E+00 0.  1.
         11    1    3    3    0    0  0.50031692914E+01  0.37020413276E+02 -0.17568161709E+02  0.41281751512E+02  0.00000000000E+00 0. -1.
         -2    1    1    2    0  502  0.16198368278E+02  0.27755465461E+02 -0.13779491943E+02  0.34966089230E+02  0.00000000000E+00 0.  1.
<scales pt_clust_5="13000.00000" pt_clust_6="13000.00000" pt_clust_7="13000.00000" pt_clust_8="13000.00000" pt_clust_9="32.13647"></scales>
<clustering>
<clus scale="   32.136">  2  9  1 -1</clus>
<clus scale="   79.563">  5  6 -1 -1</clus>
<clus scale="   79.916">  2  5  1 -1</clus>
<clus scale="   88.134">  7  8 -1 -1</clus>
<clus scale="   32.136">  2  5  1 -1</clus>
</clustering>
</event>
<event>
 9    2  0.6190160E-005  0.9331543E+02  0.7546771E-02  0.1295364E+00
          2   -1    0    0  502    0 -0.00000000000E+00  0.00000000000E+00  0.67655726675E+02  0.67655726675E+02  0.00000000000E+00 0. -1.
         21   -1    0    0  501  502  0.00000000000E+00 -0.00000000000E+00 -0.38905473088E+03  0.38905473088E+03  0.00000000000E+00 0. -1.
         23    2    1    2    0    0  0.32559137184E+02 -0.42580717093E+02 -0.43992898209E+02  0.11479971389E+03  0.91489804533E+02 0.  0.
         24    2    1    2    0    0  0.89310175259E+00 -0.43887744414E+02 -0.78783442984E+02  0.12271491938E+03  0.83217719318E+02 0.  0.
        -11    1    4    4    0    0 -0.24464451120E+02  0.42847467364E+00 -0.65552763709E+02  0.69970406524E+02  0.00000000000E+00 0.  1.
         12    1    4    4    0    0  0.25357552873E+02 -0.44316219087E+02 -0.13230679275E+02  0.52744512852E+02  0.00000000000E+00 0. -1.
        -11    1    3    3    0    0  0.63073428733E+01 -0.20558674305E+02  0.27860353766E+02  0.35194331579E+02  0.00000000000E+00 0. -1.
         11    1    3    3    0    0  0.26251794311E+02 -0.22022042788E+02 -0.71853251975E+02  0.79605382309E+02  0.00000000000E+00 0.  1.
          1    1    1    2  501    0 -0.33452238937E+02  0.86468461507E+02 -0.19862266302E+03  0.21919582430E+03  0.00000000000E+00 0. -1.
<scales pt_clust_5="13000.00000" pt_clust_6="13000.00000" pt_clust_7="13000.00000" pt_clust_8="13000.00000" pt_clust_9="92.71379"></scales>
<clustering>
<clus scale="   83.218">  5  6 -1 -1</clus>
<clus scale="   91.490">  7  8 -1 -1</clus>
<clus scale="   92.714">  2  9  1 -1</clus>
<clus scale="   92.714">  2  5  1 -1</clus>
<clus scale="   92.714">  2  5  1 -1</clus>
</clustering>
</event>
<event>
 9    2  0.6190160E-005  0.3078182E+03  0.7546771E-02  0.1081396E+00
         21   -1    0    0  501  502  0.00000000000E+00  0.00000000000E+00  0.76768265431E+02  0.76768265431E+02  0.00000000000E+00 0. -1.
         -1   -1    0    0    0  501 -0.00000000000E+00 -0.00000000000E+00 -0.96603437111E+03  0.96603437111E+03  0.00000000000E+00 0.  1.
         24    2    1    2    0    0 -0.59504251785E+02 -0.14874353985E+03 -0.35355677735E+03  0.39403749686E+03  0.67806765826E+02 0.  0.
         23    2    1    2    0    0 -0.51821348256E+02 -0.58342560281E+02 -0.10922680397E+03  0.16176885050E+03  0.90273804686E+02 0.  0.
        -11    1    3    3    0    0 -0.59886638669E+02 -0.80883955029E+02 -0.16094207327E+03  0.18981826735E+03  0.00000000000E+00 0.  1.
         12    1    3    3    0    0  0.38238688373E+00 -0.67859584821E+02 -0.19261470408E+03  0.20421922951E+03  0.00000000000E+00 0. -1.
        -11    1    4    4    0    0  0.71945069873E+01 -0.57280725398E+02 -0.70728285777E+02  0.91298044020E+02  0.00000000000E+00 0. -1.
         11    1    4    4    0    0 -0.59015855243E+02 -0.10618348836E+01 -0.38498518190E+02  0.70470806482E+02  0.00000000000E+00 0.  1.
         -2    1    1    2    0  502  0.11132560004E+03  0.20708610013E+03 -0.42648252436E+03  0.48699628918E+03  0.00000000000E+00 0.  1.
<scales pt_clust_5="13000.00000" pt_clust_6="13000.00000" pt_clust_7="13000.00000" pt_clust_8="13000.00000" pt_clust_9="235.11295"></scales>
<clustering>
<clus scale="   67.807">  5  6 -1 -1</clus>
<clus scale="   90.274">  7  8 -1 -1</clus>
<clus scale="  117.103">  5  7 -1 -1</clus>
<clus scale="  235.113">  1  9  2 -1</clus>
<clus scale="  235.113">  1  5  2 -1</clus>
</clustering>
</event>
<event>
 9    2  0.6190160E-005  0.1449432E+03  0.7546771E-02  0.1212002E+00
          2   -1    0    0  502    0 -0.00000000000E+00  0.00000000000E+00  0.79531070771E+03  0.79531070771E+03  0.00000000000E+00 0. -1.
         21   -1    0    0  501  502  0.00000000000E+00 -0.00000000000E+00 -0.64833955048E+02  0.64833955048E+02  0.00000000000E+00 0. -1.
         23    2    1    2    0    0 -0.10158013241E+03 -0.56457739148E+02  0.48084148647E+03  0.50544458319E+03  0.10372893497E+03 0.  0.
         24    2    1    2    0    0  0.16686973931E+02  0.60849803581E+02  0.13468422352E+02  0.10370024548E+03  0.81186136852E+02 0.  0.
        -11    1    4    4    0    0 -0.24058086481E+02  0.19261190912E+01  0.20567865515E+02  0.31710227872E+02  0.00000000000E+00 0.  1.
         12    1    4    4    0    0  0.40745060411E+02  0.58923684490E+02 -0.70994431630E+01  0.71990017607E+02  0.00000000000E+00 0. -1.
        -13    1    3    3    0    0  0.33679997314E+01 -0.28669621441E+02  0.29672463360E+02  0.41397411726E+02  0.00000000000E+00 0.  1.
         13    1    3    3    0    0 -0.10494813214E+03 -0.27788117708E+02  0.45116902311E+03  0.46404717146E+03  0.00000000000E+00 0. -1.
          1    1    1    2  501    0  0.84893158477E+02 -0.43920644325E+01  0.23616684384E+03  0.25099983410E+03  0.00000000000E+00 0. -1.
<scales pt_clust_5="13000.00000" pt_clust_6="13000.00000" pt_clust_7="13000.00000" pt_clust_8="13000.00000" pt_clust_9="85.00674"></scales>
<clustering>
<clus scale="   81.186">  5  6 -1 -1</clus>
<clus scale="   85.007">  2  9  1 -1</clus>
<clus scale="  103.729">  7  8 -1 -1</clus>
<clus scale="  129.769">  2  5  1 -1</clus>
<clus scale="   85.007">  2  5  1 -1</clus>
</clustering>
</event>
<event>
 9    2  0.6190160E-005  0.1342142E+03  0.7546771E-02  0.1233201E+00
         -3   -1    0    0    0  501 -0.00000000000E+00  0.00000000000E+00  0.37569631065E+03  0.37569631065E+03  0.00000000000E+00 0.  1.
         21   -1    0    0  501  502  0.00000000000E+00 -0.00000000000E+00 -0.15830531505E+03  0.15830531505E+03  0.00000000000E+00 0.  1.
         23    2    1    2    0    0 -0.67595739164E+02 -0.11660021486E+02  0.32949871085E+03  0.35633153266E+03  0.11703683463E+03 0.  0.
         24    2    1    2    0    0  0.43294184342E+02  0.29656115424E+02 -0.51645144408E+02  0.11006722745E+03  0.81815047745E+02 0.  0.
        -11    1    4    4    0    0  0.25424525393E+02  0.56929140213E+02 -0.22347891522E+02  0.66232633590E+02  0.00000000000E+00 0.  1.
         12    1    4    4    0    0  0.17869658949E+02 -0.27273024789E+02 -0.29297252886E+02  0.43834593859E+02  0.00000000000E+00 0. -1.
        -13    1    3    3    0    0 -0.38928882924E+02  0.48182939878E+02  0.10183389717E+03  0.11919394378E+03  0.00000000000E+00 0. -1.
         13    1    3    3    0    0 -0.28666856240E+02 -0.59842961364E+02  0.22766481368E+03  0.23713758888E+03  0.00000000000E+00 0.  1.
         -4    1    1    2    0  502  0.24301554822E+02 -0.17996093938E+02 -0.60462570835E+02  0.67602865589E+02  0.00000000000E+00 0.  1.
<scales pt_clust_5="13000.00000" pt_clust_6="13000.00000" pt_clust_7="13000.00000" pt_clust_8="13000.00000" pt_clust_9="30.23946"></scales>
<clustering>
<clus scale="   30.239">  2  9  1 -1</clus>
<clus scale="   81.815">  5  6 -1 -1</clus>
<clus scale="  104.926">  2  5  1 -1</clus>
<clus scale="  117.037">  7  8 -1 -1</clus>
<clus scale="   30.239">  2  5  1 -1</clus>
</clustering>
</event>
<event>
 9    2  0.6190160E-005  0.1104363E+03  0.7546771E-02  0.1260785E+00
         21   -1    0    0  501  502  0.00000000000E+00  0.00000000000E+00  0.15835580404E+03  0.15835580404E+03  0.00000000000E+00 0.  1.
          4   -1    0    0  502    0 -0.00000000000E+00 -0.00000000000E+00 -0.30878799408E+03  0.30878799408E+03  0.00000000000E+00 0. -1.
         23    2    1    2    0    0 -0.20899524793E+02  0.47853579315E+02 -0.94718840811E+02  0.14266825738E+03  0.93036646916E+02 0.  0.
         24    2    1    2    0    0  0.70962648814E+02 -0.74964412404E+02  0.92641478692E+02  0.16557158036E+03  0.90422032679E+02 0.  0.
        -13    1    4    4    0    0  0.39294369844E+02 -0.21283909864E+02  0.93071908446E+02  0.10324452752E+03  0.00000000000E+00 0.  1.
         14    1    4    4    0    0  0.31668278970E+02 -0.53680502539E+02 -0.43042975401E+00  0.62327052839E+02  0.00000000000E+00 0. -1.
        -11    1    3    3    0    0 -0.21302728680E+02  0.69136339660E+02 -0.97276543230E+02  0.12122856748E+03  0.00000000000E+00 0.  1.
         11    1    3    3    0    0  0.40320388736E+00 -0.21282760345E+02  0.25577024186E+01  0.21439689899E+02  0.00000000000E+00 0. -1.
          3    1    1    2  501    0 -0.50063124021E+02  0.27110833089E+02 -0.14835482792E+03  0.15890396038E+03  0.00000000000E+00 0. -1.
<scales pt_clust_5="13000.00000" pt_clust_6="13000.00000" pt_clust_7="13000.00000" pt_clust_8="13000.00000" pt_clust_9="56.93256"></scales>
<clustering>
<clus scale="   56.933">  1  9  2 -1</clus>
<clus scale="   90.422">  5  6 -1 -1</clus>
<clus scale="   93.037">  7  8 -1 -1</clus>
<clus scale="  108.243">  1  5  2 -1</clus>
<clus scale="   56.933">  1  5  2 -1</clus>
</clustering>
</event>
<event>
 9    2  0.6190160E-005  0.1004075E+03  0.7546771E-02  0.1284657E+00
         21   -1    0    0  501  502  0.00000000000E+00  0.00000000000E+00  0.37795254993E+03  0.37795254993E+03  0.00000000000E+00 0.  1.
          2   -1    0    0  502    0 -0.00000000000E+00 -0.00000000000E+00 -0.37201265784E+02  0.37201265784E+02  0.00000000000E+00 0. -1.
         23    2    1    2    0    0  0.35172619833E+02  0.19888782666E+02  0.87148527564E+02  0.13241189020E+03  0.91133780503E+02 0.  0.
         24    2    1    2    0    0 -0.25634970622E+02 -0.43135607379E+02  0.22747736647E+03  0.24649392390E+03  0.80594478249E+02 0.  0.
        -11    1    4    4    0    0 -0.95642210420E+01 -0.65874706660E+02  0.17172235160E+03  0.18417252059E+03  0.00000000000E+00 0.  1.
         12    1    4    4    0    0 -0.16070749580E+02  0.22739099281E+02  0.55755014871E+02  0.62321403318E+02  0.00000000000E+00 0. -1.
        -13    1    3    3    0    0 -0.85948433526E+00  0.51508770000E+02  0.40594641454E+02  0.65588238390E+02  0.00000000000E+00 0.  1.
         13    1    3    3    0    0  0.36032104168E+02 -0.31619987334E+02  0.46553886109E+02  0.66823651813E+02  0.00000000000E+00 0. -1.
          1    1    1    2  501    0 -0.95376492110E+01  0.23246824712E+02  0.26125390111E+02  0.36248001602E+02  0.00000000000E+00 0. -1.
<scales pt_clust_5="13000.00000" pt_clust_6="13000.00000" pt_clust_7="13000.00000" pt_clust_8="13000.00000" pt_clust_9="25.12732"></scales>
<clustering>
<clus scale="   25.127">  1  9  2 -1</clus>
<clus scale="   80.594">  5  6 -1 -1</clus>
<clus scale="   90.949">  1  5  2 -1</clus>
<clus scale="   91.134">  7  8 -1 -1</clus>
<clus scale="   25.127">  1  5  2 -1</clus>
</clustering>
</event>
<event>
 9    2  0.6190160E-005  0.2025449E+03  0.7546771E-02  0.1171592E+00
         21   -1    0    0  501  502  0.00000000000E+00  0.00000000000E+00  0.34378088841E+02  0.34378088841E+02  0.00000000000E+00 0.  1.
          2   -1    0    0  502    0 -0.00000000000E+00 -0.00000000000E+00 -0.30471007139E+04  0.30471007139E+04  0.00000000000E+00 0. -1.
         24    2    1    2    0    0 -0.20085976241E+02  0.81052142765E+02 -0.89117440776E+03  0.89867185883E+03  0.80289404752E+02 0.  0.
         23    2    1    2    0    0 -0.10274463478E+03  0.13098222349E+03 -0.38624796014E+03  0.43029077738E+03  0.90828759427E+02 0.  0.
        -11    1    3    3    0    0 -0.26125200295E+02  0.72321620995E+02 -0.39672396199E+03  0.40410746710E+03  0.00000000000E+00 0.  1.
         12    1    3    3    0    0  0.60392240538E+01  0.87305217699E+01 -0.49445044577E+03  0.49456439173E+03  0.00000000000E+00 0. -1.
        -11    1    4    4    0    0 -0.20777909131E+02  0.78698800535E+02 -0.10592033348E+03  0.13358270756E+03  0.00000000000E+00 0.  1.
         11    1    4    4    0    0 -0.81966725644E+02  0.52283422950E+02 -0.28032762666E+03  0.29670806982E+03  0.00000000000E+00 0. -1.
          1    1    1    2  501    0  0.12283061102E+03 -0.21203436625E+03 -0.17353002572E+04  0.17525161666E+04  0.00000000000E+00 0. -1.
<scales pt_clust_5="13000.00000" pt_clust_6="13000.00000" pt_clust_7="13000.00000" pt_clust_8="13000.00000" pt_clust_9="181.03761"></scales>
<clustering>
<clus scale="   80.289">  5  6 -1 -1</clus>
<clus scale="   90.829">  7  8 -1 -1</clus>
<clus scale="  115.842">  2  5  1 -1</clus>
<clus scale="  181.038">  1  9  2 -1</clus>
<clus scale="  181.038">  1  5  2 -1</clus>
</clustering>
</event>
<event>
 9    2  0.6190160E-005  0.9822585E+02  0.7546771E-02  0.1289016E+00
         -3   -1    0    0    0  501 -0.00000000000E+00  0.00000000000E+00  0.48420750535E+02  0.48420750535E+02  0.00000000000E+00 0.  1.
         21   -1    0    0  501  502  0.00000000000E+00 -0.00000000000E+00 -0.33150823034E+03  0.33150823034E+03  0.00000000000E+00 0.  1.
         23    2    1    2    0    0  0.12673734782E+02  0.43331655529E+02 -0.46351443363E+02  0.11103675301E+03  0.90235515696E+02 0.  0.
         24    2    1    2    0    0 -0.30676770793E+02 -0.11740652411E+02 -0.19488302733E+03  0.21345059048E+03  0.80640269421E+02 0.  0.
        -11    1    4    4    0    0 -0.55498997517E+02 -0.55492634757E+01 -0.16468012195E+03  0.17386913359E+03  0.00000000000E+00 0.  1.
         12    1    4    4    0    0  0.24822226724E+02 -0.61913889354E+01 -0.30202905378E+02  0.39581456893E+02  0.00000000000E+00 0. -1.
        -11    1    3    3    0    0  0.88100882272E+01  0.69811908617E+02 -0.19253318184E+02  0.72952111007E+02  0.00000000000E+00 0.  1.
         11    1    3    3    0    0  0.38636465550E+01 -0.26480253088E+02 -0.27098125179E+02  0.38084642003E+02  0.00000000000E+00 0. -1.
         -4    1    1    2    0  502  0.18003036011E+02 -0.31591003118E+02 -0.41853009116E+02  0.55441637382E+02  0.00000000000E+00 0.  1.
<scales pt_clust_5="13000.00000" pt_clust_6="13000.00000" pt_clust_7="13000.00000" pt_clust_8="13000.00000" pt_clust_9="36.36070"></scales>
<clustering>
<clus scale="   36.361">  2  9  1 -1</clus>
<clus scale="   80.640">  5  6 -1 -1</clus>
<clus scale="   89.491">  2  5  1 -1</clus>
<clus scale="   90.236">  7  8 -1 -1</clus>
<clus scale="   36.361">  2  5  1 -1</clus>
</clustering>
</event>
<event>
 9    2  0.6190160E-005  0.1231246E+03  0.7546771E-02  0.1242426E+00
         21   -1    0    0  501  502  0.00000000000E+00  0.00000000000E+00  0.12434730965E+03  0.12434730965E+03  0.00000000000E+00 0.  1.
          2   -1    0    0  502    0 -0.00000000000E+00 -0.00000000000E+00 -0.25522061408E+03  0.25522061408E+03  0.00000000000E+00 0. -1.
         23    2    1    2    0    0 -0.44829020017E+02  0.73510140270E+02 -0.12900046814E+03  0.18125446408E+03  0.93801269784E+02 0.  0.
         24    2    1    2    0    0  0.79686693653E+01 -0.61085391415E+02  0.65849930610E+02  0.12021459286E+03  0.79501007790E+02 0.  0.
        -13    1    4    4    0    0  0.55525184450E+01 -0.80567996899E+02  0.55785845029E+02  0.98153416095E+02  0.00000000000E+00 0.  1.
         14    1    4    4    0    0  0.24161509202E+01  0.19482605484E+02  0.10064085581E+02  0.22061176766E+02  0.00000000000E+00 0. -1.
        -13    1    3    3    0    0 -0.20687887407E+02 -0.11474909059E+02  0.14511952411E+01  0.23701649540E+02  0.00000000000E+00 0.  1.
         13    1    3    3    0    0 -0.24141132611E+02  0.84985049330E+02 -0.13045166338E+03  0.15755281454E+03  0.00000000000E+00 0. -1.
          1    1    1    2  501    0  0.36860350652E+02 -0.12424748855E+02 -0.67722766909E+02  0.78098866779E+02  0.00000000000E+00 0. -1.
<scales pt_clust_5="13000.00000" pt_clust_6="13000.00000" pt_clust_7="13000.00000" pt_clust_8="13000.00000" pt_clust_9="38.89809"></scales>
<clustering>
<clus scale="   38.898">  1  9  2 -1</clus>
<clus scale="   79.501">  5  6 -1 -1</clus>
<clus scale="   93.801">  7  8 -1 -1</clus>
<clus scale="  112.612">  1  5  2 -1</clus>
<clus scale="   38.898">  1  5  2 -1</clus>
</clustering>
</event>
<event>
 9    2  0.6190160E-005  0.1260363E+03  0.7546771E-02  0.1236129E+00
          2   -1    0    0  502    0 -0.00000000000E+00  0.00000000000E+00  0.54345660754E+03  0.54345660754E+03  0.00000000000E+00 0. -1.
         21   -1    0    0  501  502  0.00000000000E+00 -0.00000000000E+00 -0.11926696909E+03  0.11926696909E+03  0.00000000000E+00 0. -1.
         24    2    1    2    0    0 -0.62815989002E+02  0.66601926745E+02  0.42333932463E+03  0.44080980986E+03  0.81947785654E+02 0.  0.
         23    2    1    2    0    0  0.56360572651E+02 -0.42706401408E+02  0.78951230164E+02  0.13998439678E+03  0.91443882936E+02 0.  0.
        -13    1    3    3    0    0 -0.14571053665E+02  0.34871611148E+02  0.48189465378E+02  0.61241892871E+02  0.00000000000E+00 0.  1.
         14    1    3    3    0    0 -0.48244935337E+02  0.31730315597E+02  0.37514985925E+03  0.37956791699E+03  0.00000000000E+00 0. -1.
        -11    1    4    4    0    0  0.30811926308E+02 -0.64769048670E+02  0.78350820391E+02  0.10622266954E+03  0.00000000000E+00 0.  1.
         11    1    4    4    0    0  0.25548646343E+02  0.22062647262E+02  0.60040977282E+00  0.33761727238E+02  0.00000000000E+00 0. -1.
          1    1    1    2  501    0  0.64554163507E+01 -0.23895525337E+02 -0.78100916343E+02  0.81929369979E+02  0.00000000000E+00 0. -1.
<scales pt_clust_5="13000.00000" pt_clust_6="13000.00000" pt_clust_7="13000.00000" pt_clust_8="13000.00000" pt_clust_9="24.75214"></scales>
<clustering>
<clus scale="   24.752">  2  9  1 -1</clus>
<clus scale="   81.948">  5  6 -1 -1</clus>
<clus scale="   91.444">  7  8 -1 -1</clus>
<clus scale="  119.326">  1  5  2 -1</clus>
<clus scale="   24.752">  2  5  1 -1</clus>
</clustering>
</event>
<event>
 9    2  0.6190160E-005  0.1015450E+03  0.7546771E-02  0.1280761E+00
         21   -1    0    0  501  502  0.00000000000E+00  0.00000000000E+00  0.15720969234E+03  0.15720969234E+03  0.00000000000E+00 0.  1.
         -1   -1    0    0    0  501 -0.00000000000E+00 -0.00000000000E+00 -0.13758028742E+03  0.13758028742E+03  0.00000000000E+00 0.  1.
         24    2    1    2    0    0  0.27186424359E+02  0.30478499622E+02 -0.54365659778E+02  0.10662102332E+03  0.82124156262E+02 0.  0.
         23    2    1    2    0    0 -0.17709368650E+02 -0.62143182405E+02  0.40909983893E+01  0.11084467042E+03  0.89968927058E+02 0.  0.
        -13    1    3    3    0    0  0.51667512786E+02  0.37693746181E+02 -0.48930066260E+02  0.80526404135E+02  0.00000000000E+00 0.  1.
         14    1    3    3    0    0 -0.24481088427E+02 -0.72152465586E+01 -0.54355935177E+01  0.26094619184E+02  0.00000000000E+00 0. -1.
        -13    1    4    4    0    0  0.30453221221E+02 -0.40025520590E+02 -0.18012412887E+02  0.53421793299E+02  0.00000000000E+00 0.  1.
         13    1    4    4    0    0 -0.48162589871E+02 -0.22117661815E+02  0.22103411276E+02  0.57422877124E+02  0.00000000000E+00 0. -1.
         -2    1    1    2    0  502 -0.94770557094E+01  0.31664682782E+02  0.69904066311E+02  0.77324286013E+02  0.00000000000E+00 0.  1.
<scales pt_clust_5="13000.00000" pt_clust_6="13000.00000" pt_clust_7="13000.00000" pt_clust_8="13000.00000" pt_clust_9="33.05248"></scales>
<clustering>
<clus scale="   33.052">  1  9  2 -1</clus>
<clus scale="   82.124">  5  6 -1 -1</clus>
<clus scale="   89.969">  7  8 -1 -1</clus>
<clus scale="   94.664">  2  5  1 -1</clus>
<clus scale="   33.052">  1  5  2 -1</clus>
</clustering>
</event>
<event>
 9    2  0.6190160E-005  0.1008654E+03  0.7546771E-02  0.1285572E+00
         21   -1    0    0  501  502  0.00000000000E+00  0.00000000000E+00  0.75023100131E+02  0.75023100131E+02  0.00000000000E+00 0. -1.
         -1   -1    0    0    0  501 -0.00000000000E+00 -0.00000000000E+00 -0.34499553969E+03  0.34499553969E+03  0.00000000000E+00 0.  1.
         23    2    1    2    0    0 -0.19934257911E+02 -0.19828045567E+02 -0.24348116247E+03  0.26281776962E+03  0.94866103102E+02 0.  0.
         24    2    1    2    0    0  0.33387098889E+02  0.38358544212E+02 -0.62571668015E+02  0.11446735971E+03  0.81249532392E+02 0.  0.
        -11    1    4    4    0    0  0.52233054007E+02  0.22231055091E+02 -0.68499257151E+02  0.88964374732E+02  0.00000000000E+00 0.  1.
         12    1    4    4    0    0 -0.18845955118E+02  0.16127489121E+02  0.59275891358E+01  0.25502984975E+02  0.00000000000E+00 0. -1.
        -13    1    3    3    0    0  0.19014666083E+02  0.29431470886E+02 -0.10679305810E+03  0.11239451171E+03  0.00000000000E+00 0. -1.
         13    1    3    3    0    0 -0.38948923994E+02 -0.49259516453E+02 -0.13668810437E+03  0.15042325790E+03  0.00000000000E+00 0.  1.
         -2    1    1    2    0  502 -0.13452840978E+02 -0.18530498646E+02  0.36080390924E+02  0.42733510500E+02  0.00000000000E+00 0.  1.
<scales pt_clust_5="13000.00000" pt_clust_6="13000.00000" pt_clust_7="13000.00000" pt_clust_8="13000.00000" pt_clust_9="22.89887"></scales>
<clustering>
<clus scale="   22.899">  1  9  2 -1</clus>
<clus scale="   81.250">  5  6 -1 -1</clus>
<clus scale="   88.180">  1  5  2 -1</clus>
<clus scale="   94.866">  7  8 -1 -1</clus>
<clus scale="   22.899">  1  5  2 -1</clus>
</clustering>
</event>
<event>
 9    2  0.6190160E-005  0.9541665E+02  0.7546771E-02  0.1294021E+00
          2   -1    0    0  502    0 -0.00000000000E+00  0.00000000000E+00  0.56936732872E+03  0.56936732872E+03  0.00000000000E+00 0. -1.
         21   -1    0    0  501  502  0.00000000000E+00 -0.00000000000E+00 -0.14863367108E+03  0.14863367108E+03  0.00000000000E+00 0. -1.
         23    2    1    2    0    0 -0.30236715983E+02 -0.23075426702E+02  0.49838158007E+03  0.50748882476E+03  0.87829229742E+02 0.  0.
         24    2    1    2    0    0  0.94776070849E+01  0.38807548248E+02  0.33697400683E+02  0.96160868831E+02  0.80718938574E+02 0.  0.
        -13    1    4    4    0    0 -0.45325289471E+00  0.34253130132E+02 -0.21134514461E+02  0.40251087731E+02  0.00000000000E+00 0.  1.
         14    1    4    4    0    0  0.99308599796E+01  0.45544181163E+01  0.54831915144E+02  0.55909781100E+02  0.00000000000E+00 0. -1.
        -11    1    3    3    0    0 -0.11890978649E+02 -0.56159868461E+02  0.32464543260E+03  0.32968163902E+03  0.00000000000E+00 0. -1.
         11    1    3    3    0    0 -0.18345737334E+02  0.33084441758E+02  0.17373614747E+03  0.17780718574E+03  0.00000000000E+00 0.  1.
          1    1    1    2  501    0  0.20759108898E+02 -0.15732121546E+02 -0.11134532312E+03  0.11435130620E+03  0.00000000000E+00 0. -1.
<scales pt_clust_5="13000.00000" pt_clust_6="13000.00000" pt_clust_7="13000.00000" pt_clust_8="13000.00000" pt_clust_9="26.04689"></scales>
<clustering>
<clus scale="   26.047">  2  9  1 -1</clus>
<clus scale="   80.719">  5  6 -1 -1</clus>
<clus scale="   87.829">  7  8 -1 -1</clus>
<clus scale="   88.915">  2  5  1 -1</clus>
<clus scale="   26.047">  2  5  1 -1</clus>
</clustering>
</event>
<event>
 9    2  0.6190160E-005  0.1709715E+03  0.7546771E-02  0.1178139E+00
         21   -1    0    0  501  502  0.00000000000E+00  0.00000000000E+00  0.25386930805E+02  0.25386930805E+02  0.00000000000E+00 0. -1.
          2   -1    0    0  502    0 -0.00000000000E+00 -0.00000000000E+00 -0.14016315524E+04  0.14016315524E+04  0.00000000000E+00 0. -1.
         23    2    1    2    0    0 -0.73260051990E+02  0.11462306763E+03 -0.57570220861E+03  0.59865712073E+03  0.91933847733E+02 0.  0.
         24    2    1    2    0    0  0.10130805798E+03 -0.11627908276E+03 -0.57273438898E+03  0.59882720635E+03  0.82372295356E+02 0.  0.
        -13    1    4    4    0    0  0.40848962358E+02 -0.10368177797E+03 -0.32768853816E+03  0.34611894899E+03  0.00000000000E+00 0.  1.
         14    1    4    4    0    0  0.60459095623E+02 -0.12597304783E+02 -0.24504585083E+03  0.25270825736E+03  0.00000000000E+00 0. -1.
        -11    1    3    3    0    0 -0.22182943827E+02  0.19864843351E+02 -0.29384001874E+02  0.41834370609E+02  0.00000000000E+00 0. -1.
         11    1    3    3    0    0 -0.51077108163E+02  0.94758224280E+02 -0.54631820673E+03  0.55682275012E+03  0.00000000000E+00 0.  1.
          1    1    1    2  501    0 -0.28048005991E+02  0.16560151269E+01 -0.22780802405E+03  0.22953415617E+03  0.00000000000E+00 0. -1.
<scales pt_clust_5="13000.00000" pt_clust_6="13000.00000" pt_clust_7="13000.00000" pt_clust_8="13000.00000" pt_clust_9="28.09686"></scales>
<clustering>
<clus scale="   28.097">  1  9  2 -1</clus>
<clus scale="   82.372">  5  6 -1 -1</clus>
<clus scale="   91.934">  7  8 -1 -1</clus>
<clus scale="  166.026">  1  5  2 -1</clus>
<clus scale="   28.097">  1  5  2 -1</clus>
</clustering>
</event>
<event>
 9    2  0.6190160E-005  0.2764946E+03  0.7546771E-02  0.1097619E+00
         -1   -1    0    0    0  501 -0.00000000000E+00  0.00000000000E+00  0.75144757114E+03  0.75144757114E+03  0.00000000000E+00 0.  1.
         21   -1    0    0  501  502  0.00000000000E+00 -0.00000000000E+00 -0.76163082841E+02  0.76163082841E+02  0.00000000000E+00 0. -1.
         24    2    1    2    0    0 -0.11153177631E+03  0.72599628002E+02  0.17585292848E+03  0.23504296619E+03  0.81307443615E+02 0.  0.
         23    2    1    2    0    0 -0.60343379504E+02  0.33312775529E+02  0.20673995655E+03  0.23700210870E+03  0.93153236287E+02 0.  0.
        -11    1    3    3    0    0  0.99154146868E+01  0.20895816769E+02  0.18215054752E+02  0.29440428436E+02  0.00000000000E+00 0.  1.
         12    1    3    3    0    0 -0.12144719100E+03  0.51703811233E+02  0.15763787373E+03  0.20560253776E+03  0.00000000000E+00 0. -1.
        -13    1    4    4    0    0 -0.37532544406E+02 -0.21637374919E+02  0.36447133682E+02  0.56615028363E+02  0.00000000000E+00 0.  1.
         13    1    4    4    0    0 -0.22810835098E+02  0.54950150447E+02  0.17029282287E+03  0.18038708034E+03  0.00000000000E+00 0. -1.
         -2    1    1    2    0  502  0.17187515582E+03 -0.10591240353E+03  0.29269160326E+03  0.35556557908E+03  0.00000000000E+00 0.  1.
<scales pt_clust_5="13000.00000" pt_clust_6="13000.00000" pt_clust_7="13000.00000" pt_clust_8="13000.00000" pt_clust_9="201.88746"></scales>
<clustering>
<clus scale="   81.307">  5  6 -1 -1</clus>
<clus scale="   93.153">  7  8 -1 -1</clus>
<clus scale="  100.471">  5  7 -1 -1</clus>
<clus scale="  201.887">  2  9  1 -1</clus>
<clus scale="  201.887">  2  5  1 -1</clus>
</clustering>
</event>
<event>
 9    2  0.6190160E-005  0.1069975E+03  0.7546771E-02  0.1271399E+00
          4   -1    0    0  502    0 -0.00000000000E+00  0.00000000000E+00  0.30245020092E+03  0.30245020092E+03  0.00000000000E+00 0. -1.
         21   -1    0    0  501  502  0.00000000000E+00 -0.00000000000E+00 -0.18782599432E+03  0.18782599432E+03  0.00000000000E+00 0.  1.
         23    2    1    2    0    0 -0.32383750125E+02  0.46688145612E+02  0.17157200116E+03  0.20296256357E+03  0.92349122449E+02 0.  0.
         24    2    1    2    0    0  0.58944477981E+02  0.13054418941E+02 -0.14575588126E+03  0.17703433829E+03  0.80321296510E+02 0.  0.
        -13    1    4    4    0    0  0.28815630238E+02 -0.11807867725E+02 -0.13199515148E+03  0.13561890097E+03  0.00000000000E+00 0.  1.
         14    1    4    4    0    0  0.30128847744E+02  0.24862286666E+02 -0.13760729790E+02  0.41415437327E+02  0.00000000000E+00 0. -1.
        -13    1    3    3    0    0 -0.60718238287E+02  0.10586462232E+02  0.11105841827E+03  0.12701476257E+03  0.00000000000E+00 0. -1.
         13    1    3    3    0    0  0.28334488162E+02  0.36101683380E+02  0.60513582889E+02  0.75947800998E+02  0.00000000000E+00 0.  1.
          3    1    1    2  501    0 -0.26560727857E+02 -0.59742564553E+02  0.88808086703E+02  0.11027929338E+03  0.00000000000E+00 0. -1.
<scales pt_clust_5="13000.00000" pt_clust_6="13000.00000" pt_clust_7="13000.00000" pt_clust_8="13000.00000" pt_clust_9="65.38081"></scales>
<clustering>
<clus scale="   65.381">  2  9  1 -1</clus>
<clus scale="   80.321">  5  6 -1 -1</clus>
<clus scale="   92.349">  7  8 -1 -1</clus>
<clus scale="   96.807">  2  5  1 -1</clus>
<clus scale="   65.381">  2  5  1 -1</clus>
</clustering>
</event>
<event>
 9    2  0.6190160E-005  0.9630532E+02  0.7546771E-02  0.1293878E+00
          2   -1    0    0  502    0 -0.00000000000E+00  0.00000000000E+00  0.12612923645E+03  0.12612923645E+03  0.00000000000E+00 0. -1.
         21   -1    0    0  501  502  0.00000000000E+00 -0.00000000000E+00 -0.12672623715E+03  0.12672623715E+03  0.00000000000E+00 0.  1.
         24    2    1    2    0    0 -0.11442997789E+02 -0.22500663968E+02  0.58200766418E+02  0.10296006849E+03  0.81093923418E+02 0.  0.
         23    2    1    2    0    0  0.60349245528E+01  0.47650118914E+02 -0.22779819049E+02  0.10563441864E+03  0.91283931213E+02 0.  0.
        -11    1    3    3    0    0 -0.16984970531E+02 -0.39760414036E+02  0.13155895264E+01  0.43256335075E+02  0.00000000000E+00 0.  1.
         12    1    3    3    0    0  0.55419727420E+01  0.17259750068E+02  0.56885176891E+02  0.59703733419E+02  0.00000000000E+00 0. -1.
        -13    1    4    4    0    0 -0.34164651769E+02  0.17833058947E+02  0.16587266024E+02  0.41956868521E+02  0.00000000000E+00 0.  1.
         13    1    4    4    0    0  0.40199576322E+02  0.29817059967E+02 -0.39367085073E+02  0.63677550115E+02  0.00000000000E+00 0. -1.
          1    1    1    2  501    0  0.54080732365E+01 -0.25149454946E+02 -0.36017948066E+02  0.44260986468E+02  0.00000000000E+00 0. -1.
<scales pt_clust_5="13000.00000" pt_clust_6="13000.00000" pt_clust_7="13000.00000" pt_clust_8="13000.00000" pt_clust_9="25.72435"></scales>
<clustering>
<clus scale="   25.724">  2  9  1 -1</clus>
<clus scale="   81.094">  5  6 -1 -1</clus>
<clus scale="   86.707">  1  5  2 -1</clus>
<clus scale="   91.284">  7  8 -1 -1</clus>
<clus scale="   25.724">  2  5  1 -1</clus>
</clustering>
</event>
<event>
 9    2  0.1178599E-004  0.9879615E+02  0.7546771E-02  0.1290675E+00
         21   -1    0    0  501  502  0.00000000000E+00  0.00000000000E+00  0.71004899326E+02  0.71004899326E+02  0.00000000000E+00 0. -1.
          2   -1    0    0  502    0 -0.00000000000E+00 -0.00000000000E+00 -0.49848751899E+03  0.49848751899E+03  0.00000000000E+00 0. -1.
         24    2    1    2    0    0 -0.15696535769E+02  0.55701099282E+00 -0.38914490214E+03  0.39846632534E+03  0.84231621592E+02 0.  0.
         23    2    1    2    0    0 -0.52841877383E+01 -0.24711047140E+02 -0.72346040960E+02  0.12433375651E+03  0.97910034599E+02 0.  0.
        -11    1    3    3    0    0 -0.26012817383E+01 -0.21775471583E+02 -0.24412457987E+02  0.32816244976E+02  0.00000000000E+00 0.  1.
         12    1    3    3    0    0 -0.13095254031E+02  0.22332482576E+02 -0.36473244415E+03  0.36565008037E+03  0.00000000000E+00 0. -1.
        -13    1    4    4    0    0  0.40298358233E+02  0.78265500959E+01 -0.13785644675E+02  0.43304232608E+02  0.00000000000E+00 0.  1.
         13    1    4    4    0    0 -0.45582545971E+02 -0.32537597236E+02 -0.58560396285E+02  0.81029523904E+02  0.00000000000E+00 0. -1.
          1    1    1    2  501    0  0.20980723507E+02  0.24154036147E+02  0.34008323435E+02  0.46692336458E+02  0.00000000000E+00 0. -1.
<scales pt_clust_5="13000.00000" pt_clust_6="13000.00000" pt_clust_7="13000.00000" pt_clust_8="13000.00000" pt_clust_9="31.99388"></scales>
<clustering>
<clus scale="   31.994">  1  9  2 -1</clus>
<clus scale="   84.232">  5  6 -1 -1</clus>
<clus scale="   85.260">  2  5  1 -1</clus>
<clus scale="   97.910">  7  8 -1 -1</clus>
<clus scale="   31.994">  1  5  2 -1</clus>
</clustering>
</event>
<event>
 9    2  0.6190160E-005  0.1413198E+03  0.7546771E-02  0.1223415E+00
         21   -1    0    0  501  502  0.00000000000E+00  0.00000000000E+00  0.48973401393E+03  0.48973401393E+03  0.00000000000E+00 0.  1.
         -1   -1    0    0    0  501 -0.00000000000E+00 -0.00000000000E+00 -0.40914242932E+02  0.40914242932E+02  0.00000000000E+00 0.  1.
         23    2    1    2    0    0 -0.44727619865E+02  0.48598152635E+02  0.17238385732E+03  0.22001181349E+03  0.11969404075E+03 0.  0.
         24    2    1    2    0    0  0.64856471931E+02 -0.58303642416E+02  0.24303368962E+03  0.27044843783E+03  0.80444431540E+02 0.  0.
        -11    1    4    4    0    0  0.47426038633E+02 -0.62200036643E+02  0.23988157366E+03  0.25231179735E+03  0.00000000000E+00 0.  1.
         12    1    4    4    0    0  0.17430433298E+02  0.38963942273E+01  0.31521159538E+01  0.18136640480E+02  0.00000000000E+00 0. -1.
        -13    1    3    3    0    0 -0.79655288696E+02  0.41125683272E+02  0.15768830105E+03  0.18138877344E+03  0.00000000000E+00 0. -1.
         13    1    3    3    0    0  0.34927668831E+02  0.74724693634E+01  0.14695556268E+02  0.38623040046E+02  0.00000000000E+00 0.  1.
         -2    1    1    2    0  502 -0.20128852067E+02  0.97054897808E+01  0.33402224067E+02  0.40188005549E+02  0.00000000000E+00 0.  1.
<scales pt_clust_5="13000.00000" pt_clust_6="13000.00000" pt_clust_7="13000.00000" pt_clust_8="13000.00000" pt_clust_9="22.34654"></scales>
<clustering>
<clus scale="   22.347">  1  9  2 -1</clus>
<clus scale="   80.444">  5  6 -1 -1</clus>
<clus scale="  110.072">  1  5  2 -1</clus>
<clus scale="  119.694">  7  8 -1 -1</clus>
<clus scale="   22.347">  1  5  2 -1</clus>
</clustering>
</event>
<event>
 9    2  0.6190160E-005  0.1184535E+03  0.7546771E-02  0.1249920E+00
         -1   -1    0    0    0  501 -0.00000000000E+00  0.00000000000E+00  0.13415686918E+03  0.13415686918E+03  0.00000000000E+00 0.  1.
         21   -1    0    0  501  502  0.00000000000E+00 -0.00000000000E+00 -0.14287366435E+03  0.14287366435E+03  0.00000000000E+00 0.  1.
         24    2    1    2    0    0  0.78542279207E+02 -0.51372119384E+01  0.21388539369E+02  0.11358363538E+03  0.79047403760E+02 0.  0.
         23    2    1    2    0    0 -0.68183779426E+02 -0.29656466269E+02 -0.32009930859E+01  0.11826125717E+03  0.91907262077E+02 0.  0.
        -11    1    3    3    0    0  0.90362516873E+02  0.87847181826E+01  0.26575754103E+02  0.94598236956E+02  0.00000000000E+00 0.  1.
         12    1    3    3    0    0 -0.11820237666E+02 -0.13921930121E+02 -0.51872147339E+01  0.18985398428E+02  0.00000000000E+00 0. -1.
        -11    1    4    4    0    0 -0.22602105660E+02 -0.57793767061E+02 -0.14002337989E+02  0.63616351362E+02  0.00000000000E+00 0.  1.
         11    1    4    4    0    0 -0.45581673765E+02  0.28137300793E+02  0.10801344903E+02  0.54644905809E+02  0.00000000000E+00 0. -1.
         -2    1    1    2    0  502 -0.10358499781E+02  0.34793678207E+02 -0.26904341458E+02  0.45185640973E+02  0.00000000000E+00 0.  1.
<scales pt_clust_5="13000.00000" pt_clust_6="13000.00000" pt_clust_7="13000.00000" pt_clust_8="13000.00000" pt_clust_9="36.30287"></scales>
<clustering>
<clus scale="   36.303">  2  9  1 -1</clus>
<clus scale="   79.047">  5  6 -1 -1</clus>
<clus scale="   91.907">  7  8 -1 -1</clus>
<clus scale="  108.779">  1  5  2 -1</clus>
<clus scale="   36.303">  2  5  1 -1</clus>
</clustering>
</event>
<event>
 9    2  0.6190160E-005  0.9544334E+02  0.7546771E-02  0.1299060E+00
         21   -1    0    0  501  502  0.00000000000E+00  0.00000000000E+00  0.77470137571E+02  0.77470137571E+02  0.00000000000E+00 0.  1.
          2   -1    0    0  502    0 -0.00000000000E+00 -0.00000000000E+00 -0.19458905109E+03  0.19458905109E+03  0.00000000000E+00 0. -1.
         23    2    1    2    0    0 -0.27561281890E+01 -0.26118936791E+01 -0.57115194674E+02  0.11117540417E+03  0.95306908457E+02 0.  0.
         24    2    1    2    0    0 -0.18741655488E+02 -0.82679524571E+01  0.12712846620E+02  0.84279446176E+02  0.80757661496E+02 0.  0.
        -13    1    4    4    0    0  0.10766264996E+02 -0.31125761719E+02  0.28689325517E+02  0.43678403167E+02  0.00000000000E+00 0.  1.
         14    1    4    4    0    0 -0.29507920484E+02  0.22857809262E+02 -0.15976478897E+02  0.40601043010E+02  0.00000000000E+00 0. -1.
        -11    1    3    3    0    0  0.13488321426E+01 -0.25963074627E+02 -0.76343675208E+02  0.80648976041E+02  0.00000000000E+00 0. -1.
         11    1    3    3    0    0 -0.41049603317E+01  0.23351180948E+02  0.19228480534E+02  0.30526428134E+02  0.00000000000E+00 0.  1.
          1    1    1    2  501    0  0.21497783677E+02  0.10879846136E+02 -0.72716565469E+02  0.76604338314E+02  0.00000000000E+00 0. -1.
<scales pt_clust_5="13000.00000" pt_clust_6="13000.00000" pt_clust_7="13000.00000" pt_clust_8="13000.00000" pt_clust_9="24.09411"></scales>
<clustering>
<clus scale="   24.094">  1  9  2 -1</clus>
<clus scale="   80.758">  5  6 -1 -1</clus>
<clus scale="   80.919">  1  5  2 -1</clus>
<clus scale="   95.307">  7  8 -1 -1</clus>
<clus scale="   24.094">  1  5  2 -1</clus>
</clustering>
</event>
<event>
 9    2  0.6190160E-005  0.1772032E+03  0.7546771E-02  0.1171941E+00
          2   -1    0    0  502    0 -0.00000000000E+00  0.00000000000E+00  0.14208542702E+04  0.14208542702E+04  0.00000000000E+00 0. -1.
         21   -1    0    0  501  502  0.00000000000E+00 -0.00000000000E+00 -0.29961648885E+02  0.29961648885E+02  0.00000000000E+00 0. -1.
         23    2    1    2    0    0  0.15585679516E+03  0.37336175881E+02  0.88101984965E+03  0.90007293877E+03  0.90829450098E+02 0.  0.
         24    2    1    2    0    0 -0.12947725199E+03 -0.40542152162E+02  0.29530589843E+03  0.33453682482E+03  0.79380656524E+02 0.  0.
        -11    1    4    4    0    0 -0.41630356652E+02  0.92761226647E+01  0.34490120978E+02  0.54851631623E+02  0.00000000000E+00 0.  1.
         12    1    4    4    0    0 -0.87846895335E+02 -0.49818274827E+02  0.26081577745E+03  0.27968519319E+03  0.00000000000E+00 0. -1.
        -11    1    3    3    0    0  0.61963296025E+02  0.58401649416E+02  0.49299700262E+03  0.50029615959E+03  0.00000000000E+00 0.  1.
         11    1    3    3    0    0  0.93893499139E+02 -0.21065473535E+02  0.38802284703E+03  0.39977677918E+03  0.00000000000E+00 0. -1.
          1    1    1    2  501    0 -0.26379543178E+02  0.32059762811E+01  0.21456687327E+03  0.21620615553E+03  0.00000000000E+00 0. -1.
<scales pt_clust_5="13000.00000" pt_clust_6="13000.00000" pt_clust_7="13000.00000" pt_clust_8="13000.00000" pt_clust_9="26.57366"></scales>
<clustering>
<clus scale="   26.574">  2  9  1 -1</clus>
<clus scale="   79.381">  5  6 -1 -1</clus>
<clus scale="   90.829">  7  8 -1 -1</clus>
<clus scale="  171.617">  2  5  1 -1</clus>
<clus scale="   26.574">  2  5  1 -1</clus>
</clustering>
</event>
<event>
 9    2  0.6190160E-005  0.1037993E+03  0.7546771E-02  0.1276736E+00
          2   -1    0    0  502    0 -0.00000000000E+00  0.00000000000E+00  0.10299776218E+04  0.10299776218E+04  0.00000000000E+00 0. -1.
         21   -1    0    0  501  502  0.00000000000E+00 -0.00000000000E+00 -0.31707590596E+02  0.31707590596E+02  0.00000000000E+00 0.  1.
         24    2    1    2    0    0  0.43559590734E+02 -0.42396162427E+01  0.75220434726E+03  0.75793774374E+03  0.82114743276E+02 0.  0.
         23    2    1    2    0    0 -0.73099042667E+02  0.18409970418E+02  0.24360091619E+03  0.27089243502E+03  0.91427063442E+02 0.  0.
        -11    1    3    3    0    0  0.41473382839E+02  0.28121040393E+02  0.26769029947E+03  0.27233973421E+03  0.00000000000E+00 0.  1.
         12    1    3    3    0    0  0.20862078945E+01 -0.32360656635E+02  0.48451404778E+03  0.48559800953E+03  0.00000000000E+00 0. -1.
        -11    1    4    4    0    0  0.86539852062E+01 -0.18229894123E+02  0.14359778307E+02  0.24767392529E+02  0.00000000000E+00 0. -1.
         11    1    4    4    0    0 -0.81753027873E+02  0.36639864541E+02  0.22924113789E+03  0.24612504249E+03  0.00000000000E+00 0.  1.
          1    1    1    2  501    0  0.29539451933E+02 -0.14170354175E+02  0.24647677975E+01  0.32855033682E+02  0.00000000000E+00 0. -1.
<scales pt_clust_5="13000.00000" pt_clust_6="13000.00000" pt_clust_7="13000.00000" pt_clust_8="13000.00000" pt_clust_9="32.76245"></scales>
<clustering>
<clus scale="   32.762">  2  9  1 -1</clus>
<clus scale="   82.115">  5  6 -1 -1</clus>
<clus scale="   91.427">  7  8 -1 -1</clus>
<clus scale="   95.699">  1  5  2 -1</clus>
<clus scale="   32.762">  2  5  1 -1</clus>
</clustering>
</event>
<event>
 9    2  0.6884507E-005  0.1392841E+03  0.7546771E-02  0.1216880E+00
         21   -1    0    0  501  502  0.00000000000E+00  0.00000000000E+00  0.16264094032E+03  0.16264094032E+03  0.00000000000E+00 0. -1.
          2   -1    0    0  502    0 -0.00000000000E+00 -0.00000000000E+00 -0.75470470100E+03  0.75470470100E+03  0.00000000000E+00 0. -1.
         24    2    1    2    0    0 -0.24780864329E+02  0.10067172934E+03 -0.69771054662E+03  0.71009231569E+03  0.81744734468E+02 0.  0.
         23    2    1    2    0    0 -0.48000739751E+01 -0.10295551157E+03  0.11003439113E+03  0.17726168260E+03  0.93226921078E+02 0.  0.
        -11    1    3    3    0    0  0.26515903430E+02  0.51392433442E+02 -0.23885225074E+03  0.24575327675E+03  0.00000000000E+00 0.  1.
         12    1    3    3    0    0 -0.51296767759E+02  0.49279295902E+02 -0.45885829588E+03  0.46433903894E+03  0.00000000000E+00 0. -1.
        -11    1    4    4    0    0 -0.40775623114E+02 -0.86737835149E+02  0.58256710866E+02  0.11216036665E+03  0.00000000000E+00 0. -1.
         11    1    4    4    0    0  0.35975549139E+02 -0.16217676420E+02  0.51777680268E+02  0.65101315948E+02  0.00000000000E+00 0.  1.
          1    1    1    2  501    0  0.29580938304E+02  0.22837822251E+01 -0.43876052019E+01  0.29991643030E+02  0.00000000000E+00 0. -1.
<scales pt_clust_5="13000.00000" pt_clust_6="13000.00000" pt_clust_7="13000.00000" pt_clust_8="13000.00000" pt_clust_9="29.66897"></scales>
<clustering>
<clus scale="   29.669">  1  9  2 -1</clus>
<clus scale="   81.745">  5  6 -1 -1</clus>
<clus scale="   93.227">  7  8 -1 -1</clus>
<clus scale="  131.875">  2  5  1 -1</clus>
<clus scale="   29.669">  1  5  2 -1</clus>
</clustering>
</event>
<event>
 9    2  0.6190160E-005  0.1099029E+03  0.7546771E-02  0.1264522E+00
          2   -1    0    0  502    0 -0.00000000000E+00  0.00000000000E+00  0.56852607024E+03  0.56852607024E+03  0.00000000000E+00 0. -1.
         21   -1    0    0  501  502  0.00000000000E+00 -0.00000000000E+00 -0.42840184432E+02  0.42840184432E+02  0.00000000000E+00 0. -1.
         23    2    1    2    0    0  0.48053989860E+01 -0.75446709846E+02  0.34501394604E+03  0.36438158093E+03  0.89576870185E+02 0.  0.
         24    2    1    2    0    0  0.49881653988E+02  0.35162878990E+02  0.10561075619E+03  0.14575403573E+03  0.79787214805E+02 0.  0.
        -11    1    4    4    0    0 -0.21546791819E+02  0.13709005170E+02  0.32284831953E+02  0.41164443816E+02  0.00000000000E+00 0.  1.
         12    1    4    4    0    0  0.71428445808E+02  0.21453873820E+02  0.73325924233E+02  0.10458959192E+03  0.00000000000E+00 0. -1.
        -13    1    3    3    0    0 -0.23369361129E+02 -0.84054892311E+02  0.24238585501E+03  0.25760872398E+03  0.00000000000E+00 0. -1.
         13    1    3    3    0    0  0.28174760115E+02  0.86081824644E+01  0.10262809103E+03  0.10677285695E+03  0.00000000000E+00 0.  1.
          1    1    1    2  501    0 -0.54687052974E+02  0.40283830857E+02  0.75061183581E+02  0.10123063801E+03  0.00000000000E+00 0. -1.
<scales pt_clust_5="13000.00000" pt_clust_6="13000.00000" pt_clust_7="13000.00000" pt_clust_8="13000.00000" pt_clust_9="67.92246"></scales>
<clustering>
<clus scale="   67.922">  2  9  1 -1</clus>
<clus scale="   79.787">  5  6 -1 -1</clus>
<clus scale="   89.577">  7  8 -1 -1</clus>
<clus scale="  102.082">  2  5  1 -1</clus>
<clus scale="   67.922">  2  5  1 -1</clus>
</clustering>
</event>
<event>
 9    2  0.6190160E-005  0.1188460E+03  0.7546771E-02  0.1251061E+00
         21   -1    0    0  501  502  0.00000000000E+00  0.00000000000E+00  0.23331396460E+02  0.23331396460E+02  0.00000000000E+00 0.  1.
          2   -1    0    0  502    0 -0.00000000000E+00 -0.00000000000E+00 -0.69492145935E+03  0.69492145935E+03  0.00000000000E+00 0. -1.
         24    2    1    2    0    0  0.34773722661E+02 -0.48034402276E+02 -0.30025758227E+03  0.31650952381E+03  0.80666891358E+02 0.  0.
         23    2    1    2    0    0 -0.52461576524E+02  0.59190921303E+02 -0.34990389593E+03  0.37180151621E+03  0.97713094781E+02 0.  0.
        -11    1    3    3    0    0  0.28321679284E+02 -0.52718499975E+02 -0.10324139811E+03  0.11933207465E+03  0.00000000000E+00 0.  1.
         12    1    3    3    0    0  0.64520433766E+01  0.46840976980E+01 -0.19701618416E+03  0.19717744916E+03  0.00000000000E+00 0. -1.
        -13    1    4    4    0    0  0.24290019139E+02  0.34449162635E+02 -0.84709093986E+02  0.94617019822E+02  0.00000000000E+00 0. -1.
         13    1    4    4    0    0 -0.76751595663E+02  0.24741758668E+02 -0.26519480195E+03  0.27718449639E+03  0.00000000000E+00 0.  1.
          1    1    1    2  501    0  0.17687853864E+02 -0.11156519027E+02 -0.21428584683E+02  0.29941815787E+02  0.00000000000E+00 0. -1.
<scales pt_clust_5="13000.00000" pt_clust_6="13000.00000" pt_clust_7="13000.00000" pt_clust_8="13000.00000" pt_clust_9="20.91239"></scales>
<clustering>
<clus scale="   20.912">  1  9  2 -1</clus>
<clus scale="   80.667">  5  6 -1 -1</clus>
<clus scale="   97.713">  7  8 -1 -1</clus>
<clus scale="  105.279">  2  5  1 -1</clus>
<clus scale="   20.912">  1  5  2 -1</clus>
</clustering>
</event>
<event>
 9    2  0.6190160E-005  0.1084066E+03  0.7546771E-02  0.1267352E+00
          2   -1    0    0  502    0 -0.00000000000E+00  0.00000000000E+00  0.17520347575E+04  0.17520347575E+04  0.00000000000E+00 0. -1.
         21   -1    0    0  501  502  0.00000000000E+00 -0.00000000000E+00 -0.11723044482E+02  0.11723044482E+02  0.00000000000E+00 0.  1.
         24    2    1    2    0    0  0.67991467265E+02 -0.26174303386E+01  0.12798066195E+04  0.12841589603E+04  0.80805701952E+02 0.  0.
         23    2    1    2    0    0 -0.32550652538E+02  0.12204747979E+02  0.31385971574E+03  0.32842730059E+03  0.90266659172E+02 0.  0.
        -13    1    3    3    0    0  0.42701429153E+02  0.17019266898E+02  0.27297725244E+03  0.27682060589E+03  0.00000000000E+00 0.  1.
         14    1    3    3    0    0  0.25290038112E+02 -0.19636697237E+02  0.10068293670E+04  0.10073383544E+04  0.00000000000E+00 0. -1.
        -11    1    4    4    0    0 -0.60280135317E+02  0.19831761686E+02  0.16433223508E+03  0.17615923755E+03  0.00000000000E+00 0.  1.
         11    1    4    4    0    0  0.27729482778E+02 -0.76270137068E+01  0.14952748065E+03  0.15226806305E+03  0.00000000000E+00 0. -1.
          1    1    1    2  501    0 -0.35440814726E+02 -0.95873176409E+01  0.14664537782E+03  0.15117154111E+03  0.00000000000E+00 0. -1.
<scales pt_clust_5="13000.00000" pt_clust_6="13000.00000" pt_clust_7="13000.00000" pt_clust_8="13000.00000" pt_clust_9="36.71468"></scales>
<clustering>
<clus scale="   36.715">  2  9  1 -1</clus>
<clus scale="   80.806">  5  6 -1 -1</clus>
<clus scale="   90.267">  7  8 -1 -1</clus>
<clus scale="  100.665">  1  5  2 -1</clus>
<clus scale="   36.715">  2  5  1 -1</clus>
</clustering>
</event>
<event>
 9    2  0.6190160E-005  0.1432048E+03  0.7546771E-02  0.1228437E+00
         21   -1    0    0  501  502  0.00000000000E+00  0.00000000000E+00  0.18540578147E+03  0.18540578147E+03  0.00000000000E+00 0. -1.
          2   -1    0    0  502    0 -0.00000000000E+00 -0.00000000000E+00 -0.19276456497E+03  0.19276456497E+03  0.00000000000E+00 0. -1.
         24    2    1    2    0    0 -0.52731572020E+02 -0.37987359712E+01 -0.59281800487E+02  0.11223046886E+03  0.79286172749E+02 0.  0.
         23    2    1    2    0    0 -0.57684417736E+02 -0.56763068139E+02 -0.13784395638E+02  0.12389450811E+03  0.92791710961E+02 0.  0.
        -13    1    3    3    0    0 -0.35744099194E+02 -0.94006194932E+00  0.12907081700E+02  0.38014695865E+02  0.00000000000E+00 0.  1.
         14    1    3    3    0    0 -0.16987472826E+02 -0.28586740219E+01 -0.72188882187E+02  0.74215772997E+02  0.00000000000E+00 0. -1.
        -11    1    4    4    0    0  0.21584614693E+02 -0.11439019039E+02  0.14369009381E+02  0.28341051120E+02  0.00000000000E+00 0.  1.
         11    1    4    4    0    0 -0.79269032429E+02 -0.45324049100E+02 -0.28153405019E+02  0.95553456992E+02  0.00000000000E+00 0. -1.
          1    1    1    2  501    0  0.11041598976E+03  0.60561804110E+02  0.65707412628E+02  0.14204536946E+03  0.00000000000E+00 0. -1.
<scales pt_clust_5="13000.00000" pt_clust_6="13000.00000" pt_clust_7="13000.00000" pt_clust_8="13000.00000" pt_clust_9="109.07478"></scales>
<clustering>
<clus scale="   79.286">  5  6 -1 -1</clus>
<clus scale="   92.792">  7  8 -1 -1</clus>
<clus scale="   95.296">  2  5  1 -1</clus>
<clus scale="  109.075">  1  9  2 -1</clus>
<clus scale="  109.075">  1  5  2 -1</clus>
</clustering>
</event>
<event>
 9    2  0.6190160E-005  0.3400588E+03  0.7546771E-02  0.1105294E+00
          2   -1    0    0  502    0 -0.00000000000E+00  0.00000000000E+00  0.22985691408E+03  0.22985691408E+03  0.00000000000E+00 0. -1.
         21   -1    0    0  501  502  0.00000000000E+00 -0.00000000000E+00 -0.13184951151E+04  0.13184951151E+04  0.00000000000E+00 0. -1.
         23    2    1    2    0    0  0.22941998692E+02  0.79229123291E+02  0.99558639875E+02  0.15735253369E+03  0.89690065247E+02 0.  0.
         24    2    1    2    0    0 -0.11499639371E+02  0.27603554488E+03 -0.22799317041E+03  0.36711717761E+03  0.80413136972E+02 0.  0.
        -13    1    4    4    0    0 -0.16716295475E+01  0.26469107284E+03 -0.23156224804E+03  0.35168911428E+03  0.00000000000E+00 0.  1.
         14    1    4    4    0    0 -0.98280098235E+01  0.11344472045E+02  0.35690776264E+01  0.15428063332E+02  0.00000000000E+00 0. -1.
        -13    1    3    3    0    0  0.26017797840E+02  0.25140213199E+02 -0.78797507220E+01  0.37027646368E+02  0.00000000000E+00 0. -1.
         13    1    3    3    0    0 -0.30757991479E+01  0.54088910092E+02  0.10743839060E+03  0.12032488732E+03  0.00000000000E+00 0.  1.
          1    1    1    2  501    0 -0.11442359321E+02 -0.35526466818E+03 -0.96020367047E+03  0.10238823179E+04  0.00000000000E+00 0. -1.
<scales pt_clust_5="13000.00000" pt_clust_6="13000.00000" pt_clust_7="13000.00000" pt_clust_8="13000.00000" pt_clust_9="330.41445"></scales>
<clustering>
<clus scale="   80.413">  5  6 -1 -1</clus>
<clus scale="   89.690">  7  8 -1 -1</clus>
<clus scale="  121.852">  1  7  2 -1</clus>
<clus scale="  330.414">  2  9  1 -1</clus>
<clus scale="  330.414">  2  5  1 -1</clus>
</clustering>
</event>
<event>
 9    2  0.6190160E-005  0.1036630E+03  0.7546771E-02  0.1277477E+00
         -3   -1    0    0    0  501 -0.00000000000E+00  0.00000000000E+00  0.17902207136E+03  0.17902207136E+03  0.00000000000E+00 0.  1.
         21   -1    0    0  501  502  0.00000000000E+00 -0.00000000000E+00 -0.63131032953E+03  0.63131032953E+03  0.00000000000E+00 0.  1.
         23    2    1    2    0    0 -0.30767355622E+02 -0.37681025095E+02  0.15395474775E+03  0.18547914876E+03  0.91290527687E+02 0.  0.
         24    2    1    2    0    0  0.69671261772E+02  0.23826973797E+02 -0.46391983136E+03  0.47665968052E+03  0.81000195747E+02 0.  0.
        -13    1    4    4    0    0  0.86796886457E+02  0.29089501331E+02 -0.39015050657E+03  0.40074594990E+03  0.00000000000E+00 0.  1.
         14    1    4    4    0    0 -0.17125624685E+02 -0.52625275347E+01 -0.73769324790E+02  0.75913730621E+02  0.00000000000E+00 0. -1.
        -11    1    3    3    0    0 -0.77782923891E+01  0.24271372761E+02  0.10554781666E+02  0.27586315162E+02  0.00000000000E+00 0. -1.
         11    1    3    3    0    0 -0.22989063232E+02 -0.61952397856E+02  0.14339996608E+03  0.15789283360E+03  0.00000000000E+00 0.  1.
         -4    1    1    2    0  502 -0.38903906151E+02  0.13854051298E+02 -0.14232317456E+03  0.14819357161E+03  0.00000000000E+00 0.  1.
<scales pt_clust_5="13000.00000" pt_clust_6="13000.00000" pt_clust_7="13000.00000" pt_clust_8="13000.00000" pt_clust_9="41.29708"></scales>
<clustering>
<clus scale="   41.297">  2  9  1 -1</clus>
<clus scale="   81.000">  5  6 -1 -1</clus>
<clus scale="   91.291">  7  8 -1 -1</clus>
<clus scale="   94.726">  2  5  1 -1</clus>
<clus scale="   41.297">  2  5  1 -1</clus>
</clustering>
</event>
<event>
 9    2  0.6190160E-005  0.1409684E+03  0.7546771E-02  0.1215330E+00
          2   -1    0    0  502    0 -0.00000000000E+00  0.00000000000E+00  0.63669640643E+03  0.63669640643E+03  0.00000000000E+00 0. -1.
         21   -1    0    0  501  502  0.00000000000E+00 -0.00000000000E+00 -0.45393846853E+02  0.45393846853E+02  0.00000000000E+00 0.  1.
         23    2    1    2    0    0 -0.39935394083E+01  0.10916983836E+03  0.36104415752E+03  0.38805923665E+03  0.91121268119E+02 0.  0.
         24    2    1    2    0    0  0.27660897469E+02 -0.10198088134E+03  0.10692491293E+03  0.16824161135E+03  0.75545200886E+02 0.  0.
        -13    1    4    4    0    0  0.22002041585E+02 -0.34028535532E+02 -0.10531614289E+01  0.40535665941E+02  0.00000000000E+00 0.  1.
         14    1    4    4    0    0  0.56588558838E+01 -0.67952345813E+02  0.10797807435E+03  0.12770594541E+03  0.00000000000E+00 0. -1.
        -13    1    3    3    0    0  0.34534545694E+02  0.12036155146E+02  0.73048399840E+02  0.81691937156E+02  0.00000000000E+00 0.  1.
         13    1    3    3    0    0 -0.38528085103E+02  0.97133683216E+02  0.28799575768E+03  0.30636729950E+03  0.00000000000E+00 0. -1.
          1    1    1    2  501    0 -0.23667358060E+02 -0.71889570174E+01  0.12333348913E+03  0.12578940529E+03  0.00000000000E+00 0. -1.
<scales pt_clust_5="13000.00000" pt_clust_6="13000.00000" pt_clust_7="13000.00000" pt_clust_8="13000.00000" pt_clust_9="24.73511"></scales>
<clustering>
<clus scale="   24.735">  2  9  1 -1</clus>
<clus scale="   75.545">  5  6 -1 -1</clus>
<clus scale="   91.121">  7  8 -1 -1</clus>
<clus scale="  131.438">  2  5  1 -1</clus>
<clus scale="   24.735">  2  5  1 -1</clus>
</clustering>
</event>
<event>
 9    2  0.6190160E-005  0.1489717E+03  0.7546771E-02  0.1203620E+00
          2   -1    0    0  502    0 -0.00000000000E+00  0.00000000000E+00  0.53326130191E+02  0.53326130191E+02  0.00000000000E+00 0. -1.
         21   -1    0    0  501  502  0.00000000000E+00 -0.00000000000E+00 -0.47723660923E+03  0.47723660923E+03  0.00000000000E+00 0.  1.
         23    2    1    2    0    0 -0.10149592445E+03 -0.77409577527E+02 -0.16949386283E+03  0.23074098589E+03  0.90661831339E+02 0.  0.
         24    2    1    2    0    0  0.92299510135E+02  0.54921436547E+02 -0.21888072353E+03  0.25677421946E+03  0.80552249379E+02 0.  0.
        -13    1    4    4    0    0  0.65538879060E+02  0.73675166337E+02 -0.18538765595E+03  0.20998085099E+03  0.00000000000E+00 0.  1.
         14    1    4    4    0    0  0.26760631075E+02 -0.18753729790E+02 -0.33493067583E+02  0.46793368469E+02  0.00000000000E+00 0. -1.
        -13    1    3    3    0    0 -0.65316935862E+00 -0.50444107921E+02 -0.71944264431E+02  0.87869288370E+02  0.00000000000E+00 0.  1.
         13    1    3    3    0    0 -0.10084275509E+03 -0.26965469606E+02 -0.97549598395E+02  0.14287169752E+03  0.00000000000E+00 0. -1.
          1    1    1    2  501    0  0.91964143182E+01  0.22488140980E+02 -0.35535892684E+02  0.43047534074E+02  0.00000000000E+00 0. -1.
<scales pt_clust_5="13000.00000" pt_clust_6="13000.00000" pt_clust_7="13000.00000" pt_clust_8="13000.00000" pt_clust_9="24.29590"></scales>
<clustering>
<clus scale="   24.296">  2  9  1 -1</clus>
<clus scale="   80.552">  5  6 -1 -1</clus>
<clus scale="   90.662">  7  8 -1 -1</clus>
<clus scale="  143.044">  2  5  1 -1</clus>
<clus scale="   24.296">  2  5  1 -1</clus>
</clustering>
</event>
<event>
 9    2  0.6190160E-005  0.1024102E+03  0.7546771E-02  0.1279847E+00
          2   -1    0    0  502    0 -0.00000000000E+00  0.00000000000E+00  0.40437914720E+03  0.40437914720E+03  0.00000000000E+00 0. -1.
         21   -1    0    0  501  502  0.00000000000E+00 -0.00000000000E+00 -0.49003909586E+02  0.49003909586E+02  0.00000000000E+00 0.  1.
         23    2    1    2    0    0  0.49514560614E+02 -0.12885890526E+02  0.31913063196E+03  0.33567837929E+03  0.90652502315E+02 0.  0.
         24    2    1    2    0    0 -0.36867206015E+02 -0.40417642082E+01  0.37380331834E+02  0.96543605996E+02  0.80918798270E+02 0.  0.
        -13    1    4    4    0    0 -0.39185316021E+02 -0.12822819408E+01 -0.16504353836E+02  0.42538534697E+02  0.00000000000E+00 0.  1.
         14    1    4    4    0    0  0.23181100053E+01 -0.27594822674E+01  0.53884685669E+02  0.54005071299E+02  0.00000000000E+00 0. -1.
        -13    1    3    3    0    0 -0.10769597906E+02 -0.32610601186E+02  0.62379954109E+02  0.71208807204E+02  0.00000000000E+00 0.  1.
         13    1    3    3    0    0  0.60284158520E+02  0.19724710660E+02  0.25675067786E+03  0.26446957208E+03  0.00000000000E+00 0. -1.
          1    1    1    2  501    0 -0.12647354598E+02  0.16927654734E+02 -0.11357261852E+01  0.21161071501E+02  0.00000000000E+00 0. -1.
<scales pt_clust_5="13000.00000" pt_clust_6="13000.00000" pt_clust_7="13000.00000" pt_clust_8="13000.00000" pt_clust_9="21.13057"></scales>
<clustering>
<clus scale="   21.131">  2  9  1 -1</clus>
<clus scale="   80.919">  5  6 -1 -1</clus>
<clus scale="   90.653">  7  8 -1 -1</clus>
<clus scale="   93.903">  2  5  1 -1</clus>
<clus scale="   21.131">  2  5  1 -1</clus>
</clustering>
</event>
<event>
 9    2  0.6190160E-005  0.1365160E+03  0.7546771E-02  0.1235680E+00
         21   -1    0    0  501  502  0.00000000000E+00  0.00000000000E+00  0.25104096238E+03  0.25104096238E+03  0.00000000000E+00 0. -1.
          2   -1    0    0  502    0 -0.00000000000E+00 -0.00000000000E+00 -0.29782089061E+03  0.29782089061E+03  0.00000000000E+00 0. -1.
         23    2    1    2    0    0  0.23645982978E+02  0.49458521464E+01  0.14021525945E+02  0.95799455536E+02  0.91636993222E+02 0.  0.
         24    2    1    2    0    0 -0.13022215579E+03  0.16408092039E+02 -0.21495625003E+03  0.26444062610E+03  0.80595409033E+02 0.  0.
        -13    1    4    4    0    0 -0.35758548644E+02  0.42941042273E+02 -0.80163941196E+02  0.97718290922E+02  0.00000000000E+00 0.  1.
         14    1    4    4    0    0 -0.94463607151E+02 -0.26532950234E+02 -0.13479230884E+03  0.16672233518E+03  0.00000000000E+00 0. -1.
        -13    1    3    3    0    0  0.41146995649E+02 -0.11655477310E+02 -0.25284748665E+02  0.49681424268E+02  0.00000000000E+00 0.  1.
         13    1    3    3    0    0 -0.17501012671E+02  0.16601329457E+02  0.39306274611E+02  0.46118031268E+02  0.00000000000E+00 0. -1.
          1    1    1    2  501    0  0.10657617282E+03 -0.21353944185E+02  0.15415479586E+03  0.18862177136E+03  0.00000000000E+00 0. -1.
<scales pt_clust_5="13000.00000" pt_clust_6="13000.00000" pt_clust_7="13000.00000" pt_clust_8="13000.00000" pt_clust_9="110.18619"></scales>
<clustering>
<clus scale="   80.595">  5  6 -1 -1</clus>
<clus scale="   91.637">  7  8 -1 -1</clus>
<clus scale="   94.768">  2  7  1 -1</clus>
<clus scale="  110.186">  1  9  2 -1</clus>
<clus scale="  110.186">  1  5  2 -1</clus>
</clustering>
</event>
<event>
 9    2  0.6190160E-005  0.1652891E+03  0.7546771E-02  0.1184866E+00
         21   -1    0    0  501  502  0.00000000000E+00  0.00000000000E+00  0.11144265648E+03  0.11144265648E+03  0.00000000000E+00 0. -1.
          2   -1    0    0  502    0 -0.00000000000E+00 -0.00000000000E+00 -0.43056433040E+03  0.43056433040E+03  0.00000000000E+00 0. -1.
         23    2    1    2    0    0  0.15079182802E+03  0.43113514348E+02 -0.21776118384E+03  0.28364458192E+03  0.91855131301E+02 0.  0.
         24    2    1    2    0    0 -0.90248176733E+02 -0.31868078120E+02  0.17288432462E+02  0.12468533001E+03  0.78020726835E+02 0.  0.
        -13    1    4    4    0    0 -0.51041997828E+02 -0.49798752698E+02 -0.12344835017E+02  0.72371239205E+02  0.00000000000E+00 0.  1.
         14    1    4    4    0    0 -0.39206178905E+02  0.17930674578E+02  0.29633267479E+02  0.52314090804E+02  0.00000000000E+00 0. -1.
        -11    1    3    3    0    0  0.34460369219E+02  0.39423697111E+02 -0.23968924333E+02  0.57586927981E+02  0.00000000000E+00 0.  1.
         11    1    3    3    0    0  0.11633145880E+03  0.36898172373E+01 -0.19379225951E+03  0.22605765394E+03  0.00000000000E+00 0. -1.
          1    1    1    2  501    0 -0.60543651284E+02 -0.11245436228E+02 -0.11864892255E+03  0.13367707495E+03  0.00000000000E+00 0. -1.
<scales pt_clust_5="13000.00000" pt_clust_6="13000.00000" pt_clust_7="13000.00000" pt_clust_8="13000.00000" pt_clust_9="61.57920"></scales>
<clustering>
<clus scale="   61.579">  1  9  2 -1</clus>
<clus scale="   78.021">  5  6 -1 -1</clus>
<clus scale="   91.855">  7  8 -1 -1</clus>
<clus scale="  158.020">  1  5  2 -1</clus>
<clus scale="   61.579">  1  5  2 -1</clus>
</clustering>
</event>
<event>
 9    2  0.6190160E-005  0.1081512E+03  0.7546771E-02  0.1268886E+00
         21   -1    0    0  501  502  0.00000000000E+00  0.00000000000E+00  0.20548539447E+03  0.20548539447E+03  0.00000000000E+00 0. -1.
         -3   -1    0    0    0  501 -0.00000000000E+00 -0.00000000000E+00 -0.81584520015E+02  0.81584520015E+02  0.00000000000E+00 0.  1.
         23    2    1    2    0    0  0.47956876254E+02 -0.40395914254E+02  0.42892974146E+02  0.11699299948E+03  0.88971134800E+02 0.  0.
         24    2    1    2    0    0 -0.29009563324E+02  0.55341767645E+02  0.98957093528E+02  0.14000113175E+03  0.76834526889E+02 0.  0.
        -11    1    4    4    0    0 -0.29902448965E+02 -0.71803957321E+01  0.12256637188E+02  0.33104979869E+02  0.00000000000E+00 0.  1.
         12    1    4    4    0    0  0.89288564068E+00  0.62522163377E+02  0.86700456340E+02  0.10689615188E+03  0.00000000000E+00 0. -1.
        -13    1    3    3    0    0  0.20593858762E+02 -0.51151421039E+02  0.61185071954E+02  0.82366181914E+02  0.00000000000E+00 0. -1.
         13    1    3    3    0    0  0.27363017493E+02  0.10755506785E+02 -0.18292097807E+02  0.34626817566E+02  0.00000000000E+00 0.  1.
         -4    1    1    2    0  502 -0.18947312931E+02 -0.14945853391E+02 -0.17949193221E+02  0.30075783251E+02  0.00000000000E+00 0.  1.
<scales pt_clust_5="13000.00000" pt_clust_6="13000.00000" pt_clust_7="13000.00000" pt_clust_8="13000.00000" pt_clust_9="24.13255"></scales>
<clustering>
<clus scale="   24.133">  1  9  2 -1</clus>
<clus scale="   76.835">  5  6 -1 -1</clus>
<clus scale="   88.971">  7  8 -1 -1</clus>
<clus scale="   98.409">  1  5  2 -1</clus>
<clus scale="   24.133">  1  5  2 -1</clus>
</clustering>
</event>
<event>
 9    2  0.6190160E-005  0.9811300E+02  0.7546771E-02  0.1289285E+00
         21   -1    0    0  501  502  0.00000000000E+00  0.00000000000E+00  0.22829080530E+03  0.22829080530E+03  0.00000000000E+00 0. -1.
          2   -1    0    0  502    0 -0.00000000000E+00 -0.00000000000E+00 -0.17096705874E+03  0.17096705874E+03  0.00000000000E+00 0. -1.
         23    2    1    2    0    0 -0.45935903697E+02 -0.42122385025E+02 -0.99710845657E+02  0.14823083277E+03  0.90253667362E+02 0.  0.
         24    2    1    2    0    0  0.57967568018E+01 -0.10230199786E+02  0.86694252903E+00  0.81497449605E+02  0.80640085105E+02 0.  0.
        -13    1    4    4    0    0  0.30407897676E+02  0.17078337228E+02  0.19844068873E+02  0.40126012922E+02  0.00000000000E+00 0.  1.
         14    1    4    4    0    0 -0.24611140874E+02 -0.27308537014E+02 -0.18977126344E+02  0.41371436683E+02  0.00000000000E+00 0. -1.
        -11    1    3    3    0    0 -0.21787686256E+02 -0.16207500592E+02 -0.10840760066E+03  0.11175685316E+03  0.00000000000E+00 0. -1.
         11    1    3    3    0    0 -0.24148217441E+02 -0.25914884433E+02  0.86967550013E+01  0.36473979606E+02  0.00000000000E+00 0.  1.
          1    1    1    2  501    0  0.40139146895E+02  0.52352584811E+02  0.15616764969E+03  0.16952958166E+03  0.00000000000E+00 0. -1.
<scales pt_clust_5="13000.00000" pt_clust_6="13000.00000" pt_clust_7="13000.00000" pt_clust_8="13000.00000" pt_clust_9="65.96927"></scales>
<clustering>
<clus scale="   65.969">  1  9  2 -1</clus>
<clus scale="   80.640">  5  6 -1 -1</clus>
<clus scale="   89.349">  1  5  2 -1</clus>
<clus scale="   90.254">  7  8 -1 -1</clus>
<clus scale="   65.969">  1  5  2 -1</clus>
</clustering>
</event>
<event>
 9    2  0.6190160E-005  0.1328545E+03  0.7546771E-02  0.1241548E+00
         21   -1    0    0  501  502  0.00000000000E+00  0.00000000000E+00  0.22935052759E+03  0.22935052759E+03  0.00000000000E+00 0.  1.
         -1   -1    0    0    0  501 -0.00000000000E+00 -0.00000000000E+00 -0.24743577992E+03  0.24743577992E+03  0.00000000000E+00 0.  1.
         23    2    1    2    0    0  0.21907691212E+01  0.78824705694E+01 -0.36737908219E+02  0.98362079411E+02  0.90876245268E+02 0.  0.
         24    2    1    2    0    0 -0.49156201246E+02  0.87342889035E+02 -0.13835011051E+03  0.18888929838E+03  0.80581024920E+02 0.  0.
        -11    1    4    4    0    0 -0.13007142071E+02  0.73349648234E+02 -0.43123464602E+02  0.86075489195E+02  0.00000000000E+00 0.  1.
         12    1    4    4    0    0 -0.36149059175E+02  0.13993240801E+02 -0.95226645913E+02  0.10281380919E+03  0.00000000000E+00 0. -1.
        -11    1    3    3    0    0  0.30473947270E+02  0.30035299397E+02 -0.44363885881E+02  0.61635501479E+02  0.00000000000E+00 0. -1.
         11    1    3    3    0    0 -0.28283178149E+02 -0.22152828828E+02  0.76259776623E+01  0.36726577932E+02  0.00000000000E+00 0.  1.
         -2    1    1    2    0  502  0.46965432124E+02 -0.95225359605E+02  0.15700276641E+03  0.18953492973E+03  0.00000000000E+00 0.  1.
<scales pt_clust_5="13000.00000" pt_clust_6="13000.00000" pt_clust_7="13000.00000" pt_clust_8="13000.00000" pt_clust_9="105.62684"></scales>
<clustering>
<clus scale="   80.581">  5  6 -1 -1</clus>
<clus scale="   90.876">  7  8 -1 -1</clus>
<clus scale="   91.244">  2  7  1 -1</clus>
<clus scale="  105.627">  1  9  2 -1</clus>
<clus scale="  105.627">  1  5  2 -1</clus>
</clustering>
</event>
<event>
 9    2  0.6190160E-005  0.2524566E+03  0.7546771E-02  0.1112375E+00
          2   -1    0    0  502    0 -0.00000000000E+00  0.00000000000E+00  0.40011905059E+03  0.40011905059E+03  0.00000000000E+00 0. -1.
         21   -1    0    0  501  502  0.00000000000E+00 -0.00000000000E+00 -0.29141741638E+03  0.29141741638E+03  0.00000000000E+00 0.  1.
         24    2    1    2    0    0  0.12609650128E+03 -0.19388612547E+03  0.23445280959E+03  0.33890712379E+03  0.79986007162E+02 0.  0.
         23    2    1    2    0    0 -0.17834014675E+03  0.17978345538E+03 -0.77558494314E+02  0.28016681284E+03  0.91382844137E+02 0.  0.
        -13    1    3    3    0    0  0.45683486832E+01 -0.38972277228E+02  0.10319898834E+02  0.40573495215E+02  0.00000000000E+00 0.  1.
         14    1    3    3    0    0  0.12152815260E+03 -0.15491384824E+03  0.22413291076E+03  0.29833362857E+03  0.00000000000E+00 0. -1.
        -11    1    4    4    0    0 -0.13852544452E+03  0.16945021143E+03 -0.36208290692E+02  0.22184164002E+03  0.00000000000E+00 0.  1.
         11    1    4    4    0    0 -0.39814702231E+02  0.10333243953E+02 -0.41350203622E+02  0.58325172815E+02  0.00000000000E+00 0. -1.
          1    1    1    2  501    0  0.52243645472E+02  0.14102670090E+02 -0.48192681068E+02  0.72462530348E+02  0.00000000000E+00 0. -1.
<scales pt_clust_5="13000.00000" pt_clust_6="13000.00000" pt_clust_7="13000.00000" pt_clust_8="13000.00000" pt_clust_9="54.11362"></scales>
<clustering>
<clus scale="   54.114">  2  9  1 -1</clus>
<clus scale="   79.986">  5  6 -1 -1</clus>
<clus scale="   91.383">  7  8 -1 -1</clus>
<clus scale="  248.558">  1  5  2 -1</clus>
<clus scale="   54.114">  2  5  1 -1</clus>
</clustering>
</event>
<event>
 9    2  0.6190160E-005  0.9458925E+02  0.7546771E-02  0.1298263E+00
         -1   -1    0    0    0  501 -0.00000000000E+00  0.00000000000E+00  0.18878735435E+03  0.18878735435E+03  0.00000000000E+00 0.  1.
         21   -1    0    0  501  502  0.00000000000E+00 -0.00000000000E+00 -0.13795991697E+03  0.13795991697E+03  0.00000000000E+00 0. -1.
         23    2    1    2    0    0 -0.86153827859E+01 -0.14991485934E+02 -0.30007799892E+02  0.97083767044E+02  0.90696308072E+02 0.  0.
         24    2    1    2    0    0 -0.57130314475E+02  0.96799304160E+01 -0.27777144575E+02  0.10259124602E+03  0.79973871443E+02 0.  0.
        -13    1    4    4    0    0 -0.27606220536E+02  0.24348379171E+02  0.22002994371E+02  0.42884481363E+02  0.00000000000E+00 0.  1.
         14    1    4    4    0    0 -0.29524093939E+02 -0.14668448755E+02 -0.49780138947E+02  0.59706764653E+02  0.00000000000E+00 0. -1.
        -11    1    3    3    0    0 -0.75564922061E+01  0.35592688479E+02  0.32589933876E+01  0.36531644988E+02  0.00000000000E+00 0. -1.
         11    1    3    3    0    0 -0.10588905798E+01 -0.50584174413E+02 -0.33266793280E+02  0.60552122056E+02  0.00000000000E+00 0.  1.
         -2    1    1    2    0  502  0.65745697261E+02  0.53115555181E+01  0.10861238185E+03  0.12707225827E+03  0.00000000000E+00 0.  1.
<scales pt_clust_5="13000.00000" pt_clust_6="13000.00000" pt_clust_7="13000.00000" pt_clust_8="13000.00000" pt_clust_9="65.95994"></scales>
<clustering>
<clus scale="   65.960">  2  9  1 -1</clus>
<clus scale="   79.974">  5  6 -1 -1</clus>
<clus scale="   84.363">  2  5  1 -1</clus>
<clus scale="   90.696">  7  8 -1 -1</clus>
<clus scale="   65.960">  2  5  1 -1</clus>
</clustering>
</event>
<event>
 9    2  0.6190160E-005  0.2002410E+03  0.7546771E-02  0.1150298E+00
          2   -1    0    0  502    0 -0.00000000000E+00  0.00000000000E+00  0.12341638131E+04  0.12341638131E+04  0.00000000000E+00 0. -1.
         21   -1    0    0  501  502  0.00000000000E+00 -0.00000000000E+00 -0.13323158729E+03  0.13323158729E+03  0.00000000000E+00 0. -1.
         24    2    1    2    0    0  0.20508859895E+03 -0.10922908557E+03  0.96002535276E+03  0.99122779943E+03  0.83015335099E+02 0.  0.
         23    2    1    2    0    0 -0.96942888451E+02  0.33484614085E+02  0.19079408196E+03  0.23502422250E+03  0.91185856622E+02 0.  0.
        -13    1    3    3    0    0  0.43458868520E+02  0.10340461331E+02  0.21196456474E+03  0.21662080948E+03  0.00000000000E+00 0.  1.
         14    1    3    3    0    0  0.16162973043E+03 -0.11956954690E+03  0.74806078802E+03  0.77460698995E+03  0.00000000000E+00 0. -1.
        -11    1    4    4    0    0 -0.88440674328E+02  0.54242226942E+02  0.11014552418E+03  0.15131427083E+03  0.00000000000E+00 0.  1.
         11    1    4    4    0    0 -0.85022141226E+01 -0.20757612856E+02  0.80648557781E+02  0.83709951670E+02  0.00000000000E+00 0. -1.
          1    1    1    2  501    0 -0.10814571050E+03  0.75744471482E+02 -0.49887208952E+02  0.14114337843E+03  0.00000000000E+00 0. -1.
<scales pt_clust_5="13000.00000" pt_clust_6="13000.00000" pt_clust_7="13000.00000" pt_clust_8="13000.00000" pt_clust_9="132.03302"></scales>
<clustering>
<clus scale="   83.015">  5  6 -1 -1</clus>
<clus scale="   91.186">  7  8 -1 -1</clus>
<clus scale="  132.033">  2  9  1 -1</clus>
<clus scale="  196.655">  1  5  2 -1</clus>
<clus scale="  132.033">  2  5  1 -1</clus>
</clustering>
</event>
<event>
 9    2  0.6190160E-005  0.1067086E+03  0.7546771E-02  0.1269564E+00
         21   -1    0    0  501  502  0.00000000000E+00  0.00000000000E+00  0.24239507836E+02  0.24239507836E+02  0.00000000000E+00 0. -1.
         -1   -1    0    0    0  501 -0.00000000000E+00 -0.00000000000E+00 -0.70091635788E+03  0.70091635788E+03  0.00000000000E+00 0.  1.
         23    2    1    2    0    0 -0.46393911503E+02  0.14729114792E+02 -0.26069926365E+03  0.28132491274E+03  0.93862977843E+02 0.  0.
         24    2    1    2    0    0  0.56048368834E+02  0.11274871748E+02 -0.19598379014E+03  0.22209533056E+03  0.87453687607E+02 0.  0.
        -11    1    4    4    0    0 -0.14127160446E+02  0.25841748651E+02 -0.85222111929E+02  0.90167516309E+02  0.00000000000E+00 0.  1.
         12    1    4    4    0    0  0.70175529280E+02 -0.14566876903E+02 -0.11076167821E+03  0.13192781425E+03  0.00000000000E+00 0. -1.
        -11    1    3    3    0    0 -0.67059339029E+02 -0.13299866595E+02 -0.19979435471E+03  0.21116729287E+03  0.00000000000E+00 0.  1.
         11    1    3    3    0    0  0.20665427525E+02  0.28028981387E+02 -0.60904908940E+02  0.70157619867E+02  0.00000000000E+00 0. -1.
         -2    1    1    2    0  502 -0.96544573311E+01 -0.26003986540E+02 -0.21999379625E+03  0.22173562242E+03  0.00000000000E+00 0.  1.
<scales pt_clust_5="13000.00000" pt_clust_6="13000.00000" pt_clust_7="13000.00000" pt_clust_8="13000.00000" pt_clust_9="27.73836"></scales>
<clustering>
<clus scale="   27.738">  1  9  2 -1</clus>
<clus scale="   87.454">  5  6 -1 -1</clus>
<clus scale="   93.863">  7  8 -1 -1</clus>
<clus scale="  101.117">  1  5  2 -1</clus>
<clus scale="   27.738">  1  5  2 -1</clus>
</clustering>
</event>
<event>
 9    2  0.6190160E-005  0.9356080E+02  0.7546771E-02  0.1301943E+00
         21   -1    0    0  501  502  0.00000000000E+00  0.00000000000E+00  0.41944128226E+03  0.41944128226E+03  0.00000000000E+00 0. -1.
         -3   -1    0    0    0  501 -0.00000000000E+00 -0.00000000000E+00 -0.53300679468E+02  0.53300679468E+02  0.00000000000E+00 0.  1.
         24    2    1    2    0    0 -0.10699679851E+02  0.24541881275E+02  0.14547262566E+02  0.83845429492E+02  0.78113034208E+02 0.  0.
         23    2    1    2    0    0  0.44044097081E+02  0.25183399732E+02  0.25367039646E+03  0.27412128819E+03  0.90662696214E+02 0.  0.
        -13    1    3    3    0    0 -0.34605887107E+02  0.38710546231E+02 -0.11353648977E+01  0.51936142189E+02  0.00000000000E+00 0.  1.
         14    1    3    3    0    0  0.23906207257E+02 -0.14168664956E+02  0.15682627464E+02  0.31909287303E+02  0.00000000000E+00 0. -1.
        -13    1    4    4    0    0 -0.23438033942E+02 -0.10518002347E+02  0.43564337419E+02  0.50574907841E+02  0.00000000000E+00 0.  1.
         13    1    4    4    0    0  0.67482131023E+02  0.35701402079E+02  0.21010605904E+03  0.22354638034E+03  0.00000000000E+00 0. -1.
         -4    1    1    2    0  502 -0.33344417230E+02 -0.49725281007E+02  0.97922943761E+02  0.11477524405E+03  0.00000000000E+00 0.  1.
<scales pt_clust_5="13000.00000" pt_clust_6="13000.00000" pt_clust_7="13000.00000" pt_clust_8="13000.00000" pt_clust_9="59.87031"></scales>
<clustering>
<clus scale="   59.870">  1  9  2 -1</clus>
<clus scale="   78.113">  5  6 -1 -1</clus>
<clus scale="   81.459">  2  5  1 -1</clus>
<clus scale="   90.663">  7  8 -1 -1</clus>
<clus scale="   59.870">  1  5  2 -1</clus>
</clustering>
</event>
<event>
 9    2  0.6190160E-005  0.2186528E+03  0.7546771E-02  0.1170432E+00
          2   -1    0    0  502    0 -0.00000000000E+00  0.00000000000E+00  0.35995432030E+03  0.35995432030E+03  0.00000000000E+00 0. -1.
         21   -1    0    0  501  502  0.00000000000E+00 -0.00000000000E+00 -0.18979098567E+03  0.18979098567E+03  0.00000000000E+00 0. -1.
         23    2    1    2    0    0  0.54855859274E+01 -0.28638479151E+02  0.21352495356E+02  0.96931873806E+02  0.89942231241E+02 0.  0.
         24    2    1    2    0    0 -0.11388644236E+03  0.18060096222E+03  0.29845413301E+02  0.23146277254E+03  0.84246288146E+02 0.  0.
        -11    1    4    4    0    0 -0.86610355042E+02  0.15517025973E+03  0.55532377277E+02  0.18618004198E+03  0.00000000000E+00 0.  1.
         12    1    4    4    0    0 -0.27276087321E+02  0.25430702498E+02 -0.25686963975E+02  0.45282730564E+02  0.00000000000E+00 0. -1.
        -13    1    3    3    0    0 -0.39845616719E+02 -0.14010061411E+02  0.25133066492E+02  0.49149018543E+02  0.00000000000E+00 0.  1.
         13    1    3    3    0    0  0.45331202646E+02 -0.14628417740E+02 -0.37805711360E+01  0.47782855263E+02  0.00000000000E+00 0. -1.
          1    1    1    2  501    0  0.10840085644E+03 -0.15196248307E+03  0.11896542598E+03  0.22135065962E+03  0.00000000000E+00 0. -1.
<scales pt_clust_5="13000.00000" pt_clust_6="13000.00000" pt_clust_7="13000.00000" pt_clust_8="13000.00000" pt_clust_9="201.77133"></scales>
<clustering>
<clus scale="   84.246">  5  6 -1 -1</clus>
<clus scale="   89.942">  7  8 -1 -1</clus>
<clus scale="   94.551">  1  7  2 -1</clus>
<clus scale="  201.771">  2  9  1 -1</clus>
<clus scale="  201.771">  2  5  1 -1</clus>
</clustering>
</event>
<event>
 9    2  0.6190160E-005  0.1481587E+03  0.7546771E-02  0.1203806E+00
         -3   -1    0    0    0  501 -0.00000000000E+00  0.00000000000E+00  0.37481047011E+03  0.37481047011E+03  0.00000000000E+00 0.  1.
         21   -1    0    0  501  502  0.00000000000E+00 -0.00000000000E+00 -0.12431279413E+03  0.12431279413E+03  0.00000000000E+00 0. -1.
         24    2    1    2    0    0  0.11471687742E+03  0.42044389976E+02  0.29169039913E+03  0.32759984342E+03  0.85502489824E+02 0.  0.
         23    2    1    2    0    0 -0.93697357814E+02 -0.16964599872E+02 -0.21910859172E+02  0.13354176268E+03  0.91029248712E+02 0.  0.
        -13    1    3    3    0    0  0.91012857425E+02  0.58706416276E+02  0.27144406500E+03  0.29225273985E+03  0.00000000000E+00 0.  1.
         14    1    3    3    0    0  0.23704019995E+02 -0.16662026300E+02  0.20246334132E+02  0.35347103560E+02  0.00000000000E+00 0. -1.
        -13    1    4    4    0    0 -0.19499192038E+02  0.29691857853E+02  0.14844159922E+02  0.38499012931E+02  0.00000000000E+00 0.  1.
         13    1    4    4    0    0 -0.74198165776E+02 -0.46656457726E+02 -0.36755019094E+02  0.95042749753E+02  0.00000000000E+00 0. -1.
         -4    1    1    2    0  502 -0.21019519607E+02 -0.25079790104E+02 -0.19281863979E+02  0.37981658134E+02  0.00000000000E+00 0.  1.
<scales pt_clust_5="13000.00000" pt_clust_6="13000.00000" pt_clust_7="13000.00000" pt_clust_8="13000.00000" pt_clust_9="32.72333"></scales>
<clustering>
<clus scale="   32.723">  2  9  1 -1</clus>
<clus scale="   85.502">  5  6 -1 -1</clus>
<clus scale="   91.029">  7  8 -1 -1</clus>
<clus scale="  144.829">  1  5  2 -1</clus>
<clus scale="   32.723">  2  5  1 -1</clus>
</clustering>
</event>
<event>
 9    2  0.6190160E-005  0.3849979E+03  0.7546771E-02  0.1049102E+00
         21   -1    0    0  501  502  0.00000000000E+00  0.00000000000E+00  0.68179550893E+02  0.68179550893E+02  0.00000000000E+00 0.  1.
          2   -1    0    0  502    0 -0.00000000000E+00 -0.00000000000E+00 -0.19001684923E+04  0.19001684923E+04  0.00000000000E+00 0. -1.
         24    2    1    2    0    0 -0.11380519724E+03 -0.94321295786E+01 -0.31186720980E+03  0.34204518571E+03  0.81811762806E+02 0.  0.
         23    2    1    2    0    0 -0.18733227869E+03 -0.12858335272E+03 -0.57396939968E+03  0.62383775187E+03  0.90031148242E+02 0.  0.
        -11    1    3    3    0    0 -0.11815651966E+03  0.10159563793E+02 -0.24434951293E+03  0.27160792394E+03  0.00000000000E+00 0.  1.
         12    1    3    3    0    0  0.43513224240E+01 -0.19591693372E+02 -0.67517696867E+02  0.70437261774E+02  0.00000000000E+00 0. -1.
        -11    1    4    4    0    0 -0.16864081020E+03 -0.92105490707E+02 -0.38276935347E+03  0.42829373360E+03  0.00000000000E+00 0.  1.
         11    1    4    4    0    0 -0.18691468489E+02 -0.36477862012E+02 -0.19120004621E+03  0.19554401827E+03  0.00000000000E+00 0. -1.
          1    1    1    2  501    0  0.30113747593E+03  0.13801548230E+03 -0.94615233194E+03  0.10024651056E+04  0.00000000000E+00 0. -1.
<scales pt_clust_5="13000.00000" pt_clust_6="13000.00000" pt_clust_7="13000.00000" pt_clust_8="13000.00000" pt_clust_9="331.25845"></scales>
<clustering>
<clus scale="   81.812">  5  6 -1 -1</clus>
<clus scale="   90.031">  7  8 -1 -1</clus>
<clus scale="  107.753">  5  7 -1 -1</clus>
<clus scale="  331.258">  1  9  2 -1</clus>
<clus scale="  331.258">  1  5  2 -1</clus>
</clustering>
</event>
<event>
 9    2  0.6190160E-005  0.9185896E+02  0.7546771E-02  0.1298535E+00
          2   -1    0    0  502    0 -0.00000000000E+00  0.00000000000E+00  0.10494498681E+04  0.10494498681E+04  0.00000000000E+00 0. -1.
         21   -1    0    0  501  502  0.00000000000E+00 -0.00000000000E+00 -0.19371877601E+02  0.19371877601E+02  0.00000000000E+00 0.  1.
         23    2    1    2    0    0  0.30901758069E+01  0.30492705273E+01  0.30823657732E+03  0.31964978942E+03  0.84542019358E+02 0.  0.
         24    2    1    2    0    0 -0.53267321665E+02 -0.65066897021E+02  0.38951903660E+03  0.40740874302E+03  0.84768481029E+02 0.  0.
        -13    1    4    4    0    0 -0.51759727993E+02 -0.40131373976E+01  0.11495100640E+03  0.12613052202E+03  0.00000000000E+00 0.  1.
         14    1    4    4    0    0 -0.15075936720E+01 -0.61053759623E+02  0.27456803020E+03  0.28127822100E+03  0.00000000000E+00 0. -1.
        -11    1    3    3    0    0  0.39477712258E+02 -0.88459603203E+01  0.21647094474E+03  0.22021900621E+03  0.00000000000E+00 0.  1.
         11    1    3    3    0    0 -0.36387536451E+02  0.11895230848E+02  0.91765632579E+02  0.99430783204E+02  0.00000000000E+00 0. -1.
          1    1    1    2  501    0  0.50177145858E+02  0.62017626493E+02  0.33232237659E+03  0.34176321327E+03  0.00000000000E+00 0. -1.
<scales pt_clust_5="13000.00000" pt_clust_6="13000.00000" pt_clust_7="13000.00000" pt_clust_8="13000.00000" pt_clust_9="79.77430"></scales>
<clustering>
<clus scale="   79.774">  2  9  1 -1</clus>
<clus scale="   84.542">  7  8 -1 -1</clus>
<clus scale="   84.768">  5  6 -1 -1</clus>
<clus scale="   91.650">  1  7  2 -1</clus>
<clus scale="   79.774">  2  5  1 -1</clus>
</clustering>
</event>
<event>
 9    2  0.6190160E-005  0.2824484E+03  0.7546771E-02  0.1094890E+00
          2   -1    0    0  502    0 -0.00000000000E+00  0.00000000000E+00  0.57883737429E+03  0.57883737429E+03  0.00000000000E+00 0. -1.
         21   -1    0    0  501  502  0.00000000000E+00 -0.00000000000E+00 -0.35671368229E+03  0.35671368229E+03  0.00000000000E+00 0.  1.
         24    2    1    2    0    0 -0.88717991614E+02 -0.27252510956E+03  0.17526922195E+03  0.34524704638E+03  0.79595260515E+02 0.  0.
         23    2    1    2    0    0  0.11230624210E+01  0.21467337986E+03 -0.20914986797E+03  0.31361299963E+03  0.92322938504E+02 0.  0.
        -13    1    3    3    0    0 -0.65021674483E+02 -0.10048200629E+03  0.43869904300E+02  0.12747164486E+03  0.00000000000E+00 0.  1.
         14    1    3    3    0    0 -0.23696317130E+02 -0.17204310327E+03  0.13139931765E+03  0.21777540152E+03  0.00000000000E+00 0. -1.
        -13    1    4    4    0    0 -0.75506755734E+01  0.15635718722E+03 -0.89731841044E+02  0.18043388261E+03  0.00000000000E+00 0. -1.
         13    1    4    4    0    0  0.86737379944E+01  0.58316192642E+02 -0.11941802692E+03  0.13317911701E+03  0.00000000000E+00 0.  1.
          1    1    1    2  501    0  0.87594929193E+02  0.57851729694E+02  0.25600433802E+03  0.27669101057E+03  0.00000000000E+00 0. -1.
<scales pt_clust_5="13000.00000" pt_clust_6="13000.00000" pt_clust_7="13000.00000" pt_clust_8="13000.00000" pt_clust_9="104.97478"></scales>
<clustering>
<clus scale="   79.595">  5  6 -1 -1</clus>
<clus scale="   92.323">  7  8 -1 -1</clus>
<clus scale="  104.975">  2  9  1 -1</clus>
<clus scale="  278.548">  1  5  2 -1</clus>
<clus scale="  104.975">  2  5  1 -1</clus>
</clustering>
</event>
<event>
 9    2  0.6190160E-005  0.1169095E+03  0.7546771E-02  0.1250464E+00
         -1   -1    0    0    0  501 -0.00000000000E+00  0.00000000000E+00  0.23924602939E+03  0.23924602939E+03  0.00000000000E+00 0.  1.
         21   -1    0    0  501  502  0.00000000000E+00 -0.00000000000E+00 -0.12122434017E+03  0.12122434017E+03  0.00000000000E+00 0. -1.
         23    2    1    2    0    0  0.78338909389E+02 -0.14698622706E+02  0.18414584509E+03  0.21935728517E+03  0.88627828937E+02 0.  0.
         24    2    1    2    0    0 -0.61007842218E+02  0.15199940319E+01 -0.48462842449E+02  0.11307803249E+03  0.81937336663E+02 0.  0.
        -11    1    4    4    0    0  0.13332666981E+02 -0.16255580507E+02  0.25566756585E+01  0.21178774678E+02  0.00000000000E+00 0.  1.
         12    1    4    4    0    0 -0.74340509200E+02  0.17775574539E+02 -0.51019518108E+02  0.91899257811E+02  0.00000000000E+00 0. -1.
        -11    1    3    3    0    0  0.38084801670E+02 -0.74266104053E+01  0.17252261920E+03  0.17683229568E+03  0.00000000000E+00 0.  1.
         11    1    3    3    0    0  0.40254107719E+02 -0.72720123009E+01  0.11623225886E+02  0.42524989491E+02  0.00000000000E+00 0. -1.
         -2    1    1    2    0  502 -0.17331067171E+02  0.13178628674E+02 -0.17661313421E+02  0.28035051896E+02  0.00000000000E+00 0.  1.
<scales pt_clust_5="13000.00000" pt_clust_6="13000.00000" pt_clust_7="13000.00000" pt_clust_8="13000.00000" pt_clust_9="21.77251"></scales>
<clustering>
<clus scale="   21.773">  2  9  1 -1</clus>
<clus scale="   81.937">  5  6 -1 -1</clus>
<clus scale="   88.628">  7  8 -1 -1</clus>
<clus scale="  111.923">  2  5  1 -1</clus>
<clus scale="   21.773">  2  5  1 -1</clus>
</clustering>
</event>
<event>
 9    2  0.6190160E-005  0.1228848E+03  0.7546771E-02  0.1246307E+00
         -1   -1    0    0    0  501 -0.00000000000E+00  0.00000000000E+00  0.22863708890E+03  0.22863708890E+03  0.00000000000E+00 0.  1.
         21   -1    0    0  501  502  0.00000000000E+00 -0.00000000000E+00 -0.14727295833E+03  0.14727295833E+03  0.00000000000E+00 0. -1.
         24    2    1    2    0    0 -0.72922691848E+02 -0.29292133392E+01  0.15598028771E+02  0.13386603714E+03  0.11113288496E+03 0.  0.
         23    2    1    2    0    0  0.18511269230E+02  0.34625267418E+02 -0.49639375954E+02  0.11057664892E+03  0.90672771050E+02 0.  0.
        -13    1    3    3    0    0 -0.26696658991E+02 -0.41238849822E+02  0.45352913686E+02  0.66859861769E+02  0.00000000000E+00 0.  1.
         14    1    3    3    0    0 -0.46226032857E+02  0.38309636483E+02 -0.29754884915E+02  0.67006175368E+02  0.00000000000E+00 0. -1.
        -13    1    4    4    0    0 -0.10113031658E+02  0.46803225029E+02  0.45442566037E+01  0.48098498422E+02  0.00000000000E+00 0.  1.
         13    1    4    4    0    0  0.28624300889E+02 -0.12177957611E+02 -0.54183632558E+02  0.62478150502E+02  0.00000000000E+00 0. -1.
         -2    1    1    2    0  502  0.54411422618E+02 -0.31696054079E+02  0.11540547776E+03  0.13146736117E+03  0.00000000000E+00 0.  1.
<scales pt_clust_5="13000.00000" pt_clust_6="13000.00000" pt_clust_7="13000.00000" pt_clust_8="13000.00000" pt_clust_9="62.97021"></scales>
<clustering>
<clus scale="   62.970">  2  9  1 -1</clus>
<clus scale="   90.673">  7  8 -1 -1</clus>
<clus scale="  104.746">  2  7  1 -1</clus>
<clus scale="  111.133">  5  6 -1 -1</clus>
<clus scale="   62.970">  2  5  1 -1</clus>
</clustering>
</event>
<event>
 9    2  0.6190160E-005  0.2081401E+03  0.7546771E-02  0.1178198E+00
          2   -1    0    0  502    0 -0.00000000000E+00  0.00000000000E+00  0.34785958107E+03  0.34785958107E+03  0.00000000000E+00 0. -1.
         21   -1    0    0  501  502  0.00000000000E+00 -0.00000000000E+00 -0.22543908657E+03  0.22543908657E+03  0.00000000000E+00 0.  1.
         23    2    1    2    0    0 -0.23909894919E+02 -0.10708803210E+00 -0.26023555142E+02  0.95510256542E+02  0.88731556617E+02 0.  0.
         24    2    1    2    0    0  0.31836199325E+02 -0.19110492031E+03  0.18855767869E+03  0.28225334604E+03  0.81106836951E+02 0.  0.
        -13    1    4    4    0    0 -0.14792697987E+02 -0.97417083635E+02  0.12734798542E+03  0.16101683604E+03  0.00000000000E+00 0.  1.
         14    1    4    4    0    0  0.46628897311E+02 -0.93687836677E+02  0.61209693270E+02  0.12123651000E+03  0.00000000000E+00 0. -1.
        -13    1    3    3    0    0 -0.53113499763E+02 -0.18089709778E+02 -0.24372656745E+02  0.61174405217E+02  0.00000000000E+00 0.  1.
         13    1    3    3    0    0  0.29203604843E+02  0.17982621746E+02 -0.16508983968E+01  0.34335851325E+02  0.00000000000E+00 0. -1.
          1    1    1    2  501    0 -0.79263044053E+01  0.19121200834E+03 -0.40113629050E+02  0.19553506507E+03  0.00000000000E+00 0. -1.
<scales pt_clust_5="13000.00000" pt_clust_6="13000.00000" pt_clust_7="13000.00000" pt_clust_8="13000.00000" pt_clust_9="191.68719"></scales>
<clustering>
<clus scale="   81.107">  5  6 -1 -1</clus>
<clus scale="   88.732">  7  8 -1 -1</clus>
<clus scale="   91.897">  1  7  2 -1</clus>
<clus scale="  191.687">  2  9  1 -1</clus>
<clus scale="  191.687">  2  5  1 -1</clus>
</clustering>
</event>
<event>
 9    2  0.6190160E-005  0.2492110E+03  0.7546771E-02  0.1114085E+00
          2   -1    0    0  502    0 -0.00000000000E+00  0.00000000000E+00  0.85106473782E+03  0.85106473782E+03  0.00000000000E+00 0. -1.
         21   -1    0    0  501  502  0.00000000000E+00 -0.00000000000E+00 -0.17542976610E+03  0.17542976610E+03  0.00000000000E+00 0.  1.
         24    2    1    2    0    0 -0.50962108484E+02 -0.22633748464E+03  0.55145549788E+03  0.60340586330E+03  0.78547286817E+02 0.  0.
         23    2    1    2    0    0  0.16075592741E+03  0.20658767357E+03  0.14315160066E+03  0.30993087770E+03  0.83927546804E+02 0.  0.
        -13    1    3    3    0    0  0.11964502430E+02 -0.74527463258E+02  0.23499819617E+03  0.24682310326E+03  0.00000000000E+00 0.  1.
         14    1    3    3    0    0 -0.62926610914E+02 -0.15181002138E+03  0.31645730171E+03  0.35658276004E+03  0.00000000000E+00 0. -1.
        -11    1    4    4    0    0  0.71044182434E+02  0.39263332186E+02  0.67448678685E+02  0.10553771538E+03  0.00000000000E+00 0. -1.
         11    1    4    4    0    0  0.89711744974E+02  0.16732434139E+03  0.75702921977E+02  0.20439316232E+03  0.00000000000E+00 0.  1.
          1    1    1    2  501    0 -0.10979381892E+03  0.19749811068E+02 -0.18972126825E+02  0.11315776291E+03  0.00000000000E+00 0. -1.
<scales pt_clust_5="13000.00000" pt_clust_6="13000.00000" pt_clust_7="13000.00000" pt_clust_8="13000.00000" pt_clust_9="111.55598"></scales>
<clustering>
<clus scale="   78.547">  5  6 -1 -1</clus>
<clus scale="   83.928">  7  8 -1 -1</clus>
<clus scale="  111.556">  2  9  1 -1</clus>
<clus scale="  247.451">  1  5  2 -1</clus>
<clus scale="  111.556">  2  5  1 -1</clus>
</clustering>
</event>
<event>
 9    2  0.6190160E-005  0.9621666E+02  0.7546771E-02  0.1292071E+00
         -1   -1    0    0    0  501 -0.00000000000E+00  0.00000000000E+00  0.87259833366E+02  0.87259833366E+02  0.00000000000E+00 0.  1.
         21   -1    0    0  501  502  0.00000000000E+00 -0.00000000000E+00 -0.29398991292E+03  0.29398991292E+03  0.00000000000E+00 0.  1.
         24    2    1    2    0    0  0.24143127917E+02 -0.10327563424E+02  0.24414473345E+02  0.92667190066E+02  0.85449355844E+02 0.  0.
         23    2    1    2    0    0 -0.66790774212E+00  0.65295954464E+02 -0.15676290666E+03  0.19316117878E+03  0.92046859330E+02 0.  0.
        -13    1    3    3    0    0  0.56468100114E+02 -0.68209910373E+01  0.15539611433E+02  0.58963139102E+02  0.00000000000E+00 0.  1.
         14    1    3    3    0    0 -0.32324972197E+02 -0.35065723865E+01  0.88748619115E+01  0.33704050964E+02  0.00000000000E+00 0. -1.
        -11    1    4    4    0    0  0.21333343725E+02 -0.10174928371E+02 -0.80859075874E+01  0.24980444819E+02  0.00000000000E+00 0. -1.
         11    1    4    4    0    0 -0.22001251467E+02  0.75470882834E+02 -0.14867699907E+03  0.16818073396E+03  0.00000000000E+00 0.  1.
         -2    1    1    2    0  502 -0.23475220175E+02 -0.54968391040E+02 -0.74381646241E+02  0.95421377444E+02  0.00000000000E+00 0.  1.
<scales pt_clust_5="13000.00000" pt_clust_6="13000.00000" pt_clust_7="13000.00000" pt_clust_8="13000.00000" pt_clust_9="59.77131"></scales>
<clustering>
<clus scale="   59.771">  2  9  1 -1</clus>
<clus scale="   85.449">  5  6 -1 -1</clus>
<clus scale="   89.926">  1  5  2 -1</clus>
<clus scale="   92.047">  7  8 -1 -1</clus>
<clus scale="   59.771">  2  5  1 -1</clus>
</clustering>
</event>
<event>
 9    2  0.6190160E-005  0.1682398E+03  0.7546771E-02  0.1201311E+00
         21   -1    0    0  501  502  0.00000000000E+00  0.00000000000E+00  0.98143909596E+02  0.98143909596E+02  0.00000000000E+00 0. -1.
          2   -1    0    0  502    0 -0.00000000000E+00 -0.00000000000E+00 -0.48687613433E+03  0.48687613433E+03  0.00000000000E+00 0. -1.
         23    2    1    2    0    0  0.47733555724E+02  0.67012571152E+01 -0.10916002096E+03  0.15104469629E+03  0.92602326707E+02 0.  0.
         24    2    1    2    0    0 -0.16505331891E+03 -0.31231115025E+02 -0.81672185004E+02  0.20260971019E+03  0.78500753046E+02 0.  0.
        -13    1    4    4    0    0 -0.32616526633E+02 -0.33546203300E+02  0.39362553487E+00  0.46790389040E+02  0.00000000000E+00 0.  1.
         14    1    4    4    0    0 -0.13243679228E+03  0.23150882757E+01 -0.82065810539E+02  0.15581932115E+03  0.00000000000E+00 0. -1.
        -13    1    3    3    0    0 -0.35768120634E+01 -0.31846299138E+02 -0.11225621458E+02  0.33955779043E+02  0.00000000000E+00 0.  1.
         13    1    3    3    0    0  0.51310367787E+02  0.38547556253E+02 -0.97934399506E+02  0.11708891725E+03  0.00000000000E+00 0. -1.
          1    1    1    2  501    0  0.11731976319E+03  0.24529857909E+02 -0.19790001876E+03  0.23136563745E+03  0.00000000000E+00 0. -1.
<scales pt_clust_5="13000.00000" pt_clust_6="13000.00000" pt_clust_7="13000.00000" pt_clust_8="13000.00000" pt_clust_9="148.80280"></scales>
<clustering>
<clus scale="   78.501">  5  6 -1 -1</clus>
<clus scale="   92.602">  7  8 -1 -1</clus>
<clus scale="  104.396">  2  7  1 -1</clus>
<clus scale="  148.803">  1  9  2 -1</clus>
<clus scale="  148.803">  1  5  2 -1</clus>
</clustering>
</event>
<event>
 9    2  0.6190160E-005  0.1457759E+03  0.7546771E-02  0.1207781E+00
         21   -1    0    0  501  502  0.00000000000E+00  0.00000000000E+00  0.70191799540E+03  0.70191799540E+03  0.00000000000E+00 0.  1.
          2   -1    0    0  502    0 -0.00000000000E+00 -0.00000000000E+00 -0.12990640136E+03  0.12990640136E+03  0.00000000000E+00 0. -1.
         24    2    1    2    0    0  0.82536269814E+01  0.10708919701E+03 -0.52497271293E+02  0.14414756516E+03  0.80537808351E+02 0.  0.
         23    2    1    2    0    0  0.39786984131E+02 -0.16731823971E+03  0.32808817925E+03  0.38140789579E+03  0.90839045359E+02 0.  0.
        -13    1    3    3    0    0 -0.17793596747E+02  0.13569943871E+02  0.14074385611E+02  0.26435653807E+02  0.00000000000E+00 0.  1.
         14    1    3    3    0    0  0.26047223729E+02  0.93519253139E+02 -0.66571656905E+02  0.11771191135E+03  0.00000000000E+00 0. -1.
        -11    1    4    4    0    0 -0.24757941153E+02 -0.60488330386E+02  0.76930281442E+02  0.10094583679E+03  0.00000000000E+00 0. -1.
         11    1    4    4    0    0  0.64544925284E+02 -0.10682990933E+03  0.25115789780E+03  0.28046205899E+03  0.00000000000E+00 0.  1.
          1    1    1    2  501    0 -0.48040611112E+02  0.60229042701E+02  0.29642068608E+03  0.30626893581E+03  0.00000000000E+00 0. -1.
<scales pt_clust_5="13000.00000" pt_clust_6="13000.00000" pt_clust_7="13000.00000" pt_clust_8="13000.00000" pt_clust_9="77.04179"></scales>
<clustering>
<clus scale="   77.042">  1  9  2 -1</clus>
<clus scale="   80.538">  5  6 -1 -1</clus>
<clus scale="   90.839">  7  8 -1 -1</clus>
<clus scale="  139.590">  2  5  1 -1</clus>
<clus scale="   77.042">  1  5  2 -1</clus>
</clustering>
</event>
<event>
 9    2  0.6190160E-005  0.2461004E+03  0.7546771E-02  0.1116417E+00
         21   -1    0    0  501  502  0.00000000000E+00  0.00000000000E+00  0.16882102606E+03  0.16882102606E+03  0.00000000000E+00 0.  1.
          2   -1    0    0  502    0 -0.00000000000E+00 -0.00000000000E+00 -0.12893238250E+04  0.12893238250E+04  0.00000000000E+00 0. -1.
         23    2    1    2    0    0 -0.69697649563E+02  0.17163540844E+03 -0.15017348670E+03  0.25520296614E+03  0.90884553357E+02 0.  0.
         24    2    1    2    0    0 -0.51701939275E+02 -0.33545487511E+03 -0.19141970559E+03  0.39778671157E+03  0.79935601869E+02 0.  0.
        -11    1    4    4    0    0 -0.68394585084E+02 -0.31264748353E+03 -0.17050838922E+03  0.36262843107E+03  0.00000000000E+00 0.  1.
         12    1    4    4    0    0  0.16692645809E+02 -0.22807391588E+02 -0.20911316368E+02  0.35158280496E+02  0.00000000000E+00 0. -1.
        -11    1    3    3    0    0 -0.91773338828E+02  0.13510413918E+03 -0.11305644607E+03  0.19863845081E+03  0.00000000000E+00 0.  1.
         11    1    3    3    0    0  0.22075689264E+02  0.36531269258E+02 -0.37117040624E+02  0.56564515332E+02  0.00000000000E+00 0. -1.
          1    1    1    2  501    0  0.12139958884E+03  0.16381946668E+03 -0.77890960669E+03  0.80515517339E+03  0.00000000000E+00 0. -1.
<scales pt_clust_5="13000.00000" pt_clust_6="13000.00000" pt_clust_7="13000.00000" pt_clust_8="13000.00000" pt_clust_9="203.89880"></scales>
<clustering>
<clus scale="   79.936">  5  6 -1 -1</clus>
<clus scale="   90.885">  7  8 -1 -1</clus>
<clus scale="  203.899">  1  9  2 -1</clus>
<clus scale="  242.271">  1  5  2 -1</clus>
<clus scale="  203.899">  1  5  2 -1</clus>
</clustering>
</event>
<event>
 9    2  0.6190160E-005  0.1072070E+03  0.7546771E-02  0.1270862E+00
         -1   -1    0    0    0  501 -0.00000000000E+00  0.00000000000E+00  0.21351339346E+03  0.21351339346E+03  0.00000000000E+00 0.  1.
         21   -1    0    0  501  502  0.00000000000E+00 -0.00000000000E+00 -0.74460696543E+02  0.74460696543E+02  0.00000000000E+00 0.  1.
         24    2    1    2    0    0  0.16771962540E+02 -0.49592683631E+02  0.62762211193E+02  0.11441666377E+03  0.80070873596E+02 0.  0.
         23    2    1    2    0    0  0.22756650811E+02  0.63143214135E+02  0.51041717474E+02  0.12473500875E+03  0.91916455746E+02 0.  0.
        -11    1    3    3    0    0  0.79727324116E+01 -0.46838974746E+02 -0.33820478100E+01  0.47632890577E+02  0.00000000000E+00 0.  1.
         12    1    3    3    0    0  0.87992301283E+01 -0.27537088848E+01  0.66144259003E+02  0.66783773197E+02  0.00000000000E+00 0. -1.
        -13    1    4    4    0    0  0.36151973125E+02 -0.62739422285E+01 -0.13865682232E+01  0.36718525071E+02  0.00000000000E+00 0. -1.
         13    1    4    4    0    0 -0.13395322315E+02  0.69417156363E+02  0.52428285697E+02  0.88016483676E+02  0.00000000000E+00 0.  1.
         -2    1    1    2    0  502 -0.39528613350E+02 -0.13550530504E+02  0.25248768247E+02  0.48822417477E+02  0.00000000000E+00 0.  1.
<scales pt_clust_5="13000.00000" pt_clust_6="13000.00000" pt_clust_7="13000.00000" pt_clust_8="13000.00000" pt_clust_9="41.78672"></scales>
<clustering>
<clus scale="   41.787">  2  9  1 -1</clus>
<clus scale="   80.071">  5  6 -1 -1</clus>
<clus scale="   91.916">  7  8 -1 -1</clus>
<clus scale="   97.242">  1  5  2 -1</clus>
<clus scale="   41.787">  2  5  1 -1</clus>
</clustering>
</event>
<event>
 9    2  0.6190160E-005  0.2310603E+03  0.7546771E-02  0.1126700E+00
          2   -1    0    0  502    0 -0.00000000000E+00  0.00000000000E+00  0.14072692420E+04  0.14072692420E+04  0.00000000000E+00 0. -1.
         21   -1    0    0  501  502  0.00000000000E+00 -0.00000000000E+00 -0.46361935690E+02  0.46361935690E+02  0.00000000000E+00 0. -1.
         23    2    1    2    0    0 -0.99544102609E+02  0.19032270896E+03  0.74681302155E+03  0.78253354503E+03  0.92180789871E+02 0.  0.
         24    2    1    2    0    0  0.75138378990E+02 -0.19414523638E+03  0.42108705745E+03  0.47651592527E+03  0.80093497082E+02 0.  0.
        -11    1    4    4    0    0  0.59405927666E+02 -0.15640339778E+03  0.39236770548E+03  0.42654835995E+03  0.00000000000E+00 0.  1.
         12    1    4    4    0    0  0.15732451324E+02 -0.37741838601E+02  0.28719351979E+02  0.49967565317E+02  0.00000000000E+00 0. -1.
        -13    1    3    3    0    0 -0.10408481023E+03  0.13201861895E+03  0.62793148298E+03  0.65004654509E+03  0.00000000000E+00 0. -1.
         13    1    3    3    0    0  0.45407076251E+01  0.58304090013E+02  0.11888153857E+03  0.13248699993E+03  0.00000000000E+00 0.  1.
          1    1    1    2  501    0  0.24405723619E+02  0.38225274163E+01  0.19300722731E+03  0.19458170740E+03  0.00000000000E+00 0. -1.
<scales pt_clust_5="13000.00000" pt_clust_6="13000.00000" pt_clust_7="13000.00000" pt_clust_8="13000.00000" pt_clust_9="24.70327"></scales>
<clustering>
<clus scale="   24.703">  2  9  1 -1</clus>
<clus scale="   80.093">  5  6 -1 -1</clus>
<clus scale="   92.181">  7  8 -1 -1</clus>
<clus scale="  226.509">  2  5  1 -1</clus>
<clus scale="   24.703">  2  5  1 -1</clus>
</clustering>
</event>
<event>
 9    2  0.6190160E-005  0.1554379E+03  0.7546771E-02  0.1221807E+00
          2   -1    0    0  502    0 -0.00000000000E+00  0.00000000000E+00  0.19673805653E+03  0.19673805653E+03  0.00000000000E+00 0. -1.
         21   -1    0    0  501  502  0.00000000000E+00 -0.00000000000E+00 -0.23632909964E+03  0.23632909964E+03  0.00000000000E+00 0. -1.
         24    2    1    2    0    0 -0.40878648516E+02  0.33336791411E+00 -0.50028849011E+02  0.99102893568E+02  0.75148670923E+02 0.  0.
         23    2    1    2    0    0  0.12305647214E+03  0.86959634297E+02  0.81822409349E+02  0.19443281618E+03  0.91675187496E+02 0.  0.
        -11    1    3    3    0    0 -0.59261320719E+02 -0.14804789810E+02 -0.30332619168E+02  0.68199367448E+02  0.00000000000E+00 0.  1.
         12    1    3    3    0    0  0.18382672203E+02  0.15138157724E+02 -0.19696229843E+02  0.30903526120E+02  0.00000000000E+00 0. -1.
        -11    1    4    4    0    0  0.60852213573E+01  0.34128523862E+02  0.52277642700E+02  0.62727489877E+02  0.00000000000E+00 0.  1.
         11    1    4    4    0    0  0.11697125078E+03  0.52831110435E+02  0.29544766648E+02  0.13170532630E+03  0.00000000000E+00 0. -1.
          1    1    1    2  501    0 -0.82177823626E+02 -0.87293002211E+02 -0.71384603449E+02  0.13953144642E+03  0.00000000000E+00 0. -1.
<scales pt_clust_5="13000.00000" pt_clust_6="13000.00000" pt_clust_7="13000.00000" pt_clust_8="13000.00000" pt_clust_9="125.52527"></scales>
<clustering>
<clus scale="   75.149">  5  6 -1 -1</clus>
<clus scale="   85.548">  1  5  2 -1</clus>
<clus scale="   91.675">  7  8 -1 -1</clus>
<clus scale="  125.525">  2  9  1 -1</clus>
<clus scale="  125.525">  2  5  1 -1</clus>
</clustering>
</event>
<event>
 9    2  0.6190160E-005  0.1014166E+03  0.7546771E-02  0.1283796E+00
          2   -1    0    0  502    0 -0.00000000000E+00  0.00000000000E+00  0.33466893012E+03  0.33466893012E+03  0.00000000000E+00 0. -1.
         21   -1    0    0  501  502  0.00000000000E+00 -0.00000000000E+00 -0.61983231119E+02  0.61983231119E+02  0.00000000000E+00 0. -1.
         23    2    1    2    0    0 -0.18925913321E+02  0.43595668449E+02  0.25693149014E+03  0.27695757624E+03  0.91831018209E+02 0.  0.
         24    2    1    2    0    0  0.24887778808E+02 -0.21077915816E+02  0.32306077771E+02  0.91119116705E+02  0.78710423065E+02 0.  0.
        -11    1    4    4    0    0 -0.13559975879E+02 -0.34395880031E+02  0.34229551948E+02  0.50384637892E+02  0.00000000000E+00 0.  1.
         12    1    4    4    0    0  0.38447754687E+02  0.13317964215E+02 -0.19234741767E+01  0.40734478814E+02  0.00000000000E+00 0. -1.
        -11    1    3    3    0    0 -0.44864308989E+02  0.51104823334E+02  0.22544234359E+03  0.23547560271E+03  0.00000000000E+00 0. -1.
         11    1    3    3    0    0  0.25938395668E+02 -0.75091548852E+01  0.31489146553E+02  0.41481973525E+02  0.00000000000E+00 0.  1.
          1    1    1    2  501    0 -0.59618654870E+01 -0.22517752633E+02 -0.16551868914E+02  0.28575468295E+02  0.00000000000E+00 0. -1.
<scales pt_clust_5="13000.00000" pt_clust_6="13000.00000" pt_clust_7="13000.00000" pt_clust_8="13000.00000" pt_clust_9="23.29363"></scales>
<clustering>
<clus scale="   23.294">  2  9  1 -1</clus>
<clus scale="   78.710">  5  6 -1 -1</clus>
<clus scale="   89.709">  2  5  1 -1</clus>
<clus scale="   91.831">  7  8 -1 -1</clus>
<clus scale="   23.294">  2  5  1 -1</clus>
</clustering>
</event>
<event>
 9    2  0.6190160E-005  0.9469836E+02  0.7546771E-02  0.1295573E+00
         21   -1    0    0  501  502  0.00000000000E+00  0.00000000000E+00  0.24807717638E+03  0.24807717638E+03  0.00000000000E+00 0. -1.
          2   -1    0    0  502    0 -0.00000000000E+00 -0.00000000000E+00 -0.26354695719E+03  0.26354695719E+03  0.00000000000E+00 0. -1.
         23    2    1    2    0    0  0.24222287201E+02 -0.28125045414E+02 -0.19038064880E+03  0.21415462035E+03  0.90772642377E+02 0.  0.
         24    2    1    2    0    0 -0.23381336044E+02 -0.60238663197E+02  0.34873071644E+01  0.10460974706E+03  0.82192788302E+02 0.  0.
        -11    1    4    4    0    0 -0.27319540677E+02  0.13447137384E+02  0.46913842996E+01  0.30808958004E+02  0.00000000000E+00 0.  1.
         12    1    4    4    0    0  0.39382046326E+01 -0.73685800581E+02 -0.12040771351E+01  0.73800789052E+02  0.00000000000E+00 0. -1.
        -11    1    3    3    0    0  0.43875223259E+02  0.18230906364E+02 -0.99381828179E+02  0.11015511307E+03  0.00000000000E+00 0.  1.
         11    1    3    3    0    0 -0.19652936059E+02 -0.46355951778E+02 -0.90998820617E+02  0.10399950728E+03  0.00000000000E+00 0. -1.
          1    1    1    2  501    0 -0.84095115608E+00  0.88363708611E+02  0.17142356082E+03  0.19285976616E+03  0.00000000000E+00 0. -1.
<scales pt_clust_5="13000.00000" pt_clust_6="13000.00000" pt_clust_7="13000.00000" pt_clust_8="13000.00000" pt_clust_9="88.36771"></scales>
<clustering>
<clus scale="   82.193">  5  6 -1 -1</clus>
<clus scale="   88.368">  1  9  2 -1</clus>
<clus scale="   88.368">  1  5  2 -1</clus>
<clus scale="   90.773">  7  8 -1 -1</clus>
<clus scale="   88.368">  1  5  2 -1</clus>
</clustering>
</event>
<event>
 9    2  0.6190160E-005  0.1724998E+03  0.7546771E-02  0.1202167E+00
         21   -1    0    0  501  502  0.00000000000E+00  0.00000000000E+00  0.78350203471E+02  0.78350203471E+02  0.00000000000E+00 0.  1.
          2   -1    0    0  502    0 -0.00000000000E+00 -0.00000000000E+00 -0.81143130925E+03  0.81143130925E+03  0.00000000000E+00 0. -1.
         23    2    1    2    0    0  0.23504481034E+02 -0.74106540054E+00 -0.44053218149E+03  0.45067463558E+03  0.92119565898E+02 0.  0.
         24    2    1    2    0    0 -0.96055078035E+02 -0.12769132217E+03 -0.13750673514E+03  0.22510559743E+03  0.78947932279E+02 0.  0.
        -11    1    4    4    0    0 -0.78452304925E+02 -0.11479764563E+03 -0.73070092842E+02  0.15707482949E+03  0.00000000000E+00 0.  1.
         12    1    4    4    0    0 -0.17602773110E+02 -0.12893676537E+02 -0.64436642301E+02  0.68030767942E+02  0.00000000000E+00 0. -1.
        -13    1    3    3    0    0 -0.11741754219E+02 -0.40349479759E+02 -0.20047089714E+03  0.20482804961E+03  0.00000000000E+00 0.  1.
         13    1    3    3    0    0  0.35246235253E+02  0.39608414358E+02 -0.24006128435E+03  0.24584658597E+03  0.00000000000E+00 0. -1.
          1    1    1    2  501    0  0.72550597001E+02  0.12843238757E+03 -0.15504218915E+03  0.21400127971E+03  0.00000000000E+00 0. -1.
<scales pt_clust_5="13000.00000" pt_clust_6="13000.00000" pt_clust_7="13000.00000" pt_clust_8="13000.00000" pt_clust_9="153.37348"></scales>
<clustering>
<clus scale="   78.948">  5  6 -1 -1</clus>
<clus scale="   92.120">  7  8 -1 -1</clus>
<clus scale="   95.074">  2  7  1 -1</clus>
<clus scale="  153.373">  1  9  2 -1</clus>
<clus scale="  153.373">  1  5  2 -1</clus>
</clustering>
</event>
<event>
 9    2  0.6190160E-005  0.1131944E+03  0.7546771E-02  0.1261040E+00
         -1   -1    0    0    0  501 -0.00000000000E+00  0.00000000000E+00  0.33212143167E+03  0.33212143167E+03  0.00000000000E+00 0.  1.
         21   -1    0    0  501  502  0.00000000000E+00 -0.00000000000E+00 -0.46048927400E+02  0.46048927400E+02  0.00000000000E+00 0.  1.
         23    2    1    2    0    0 -0.26711620140E+02 -0.62672200972E+02  0.20193203327E+03  0.23384502415E+03  0.96258162428E+02 0.  0.
         24    2    1    2    0    0  0.92882099081E+01  0.46877111330E+02  0.70927924509E+02  0.11735069006E+03  0.80353466456E+02 0.  0.
        -13    1    4    4    0    0 -0.27092870490E+02  0.19482705712E+02  0.37109497244E+00  0.33372700890E+02  0.00000000000E+00 0.  1.
         14    1    4    4    0    0  0.36381080398E+02  0.27394405619E+02  0.70556829537E+02  0.83977989166E+02  0.00000000000E+00 0. -1.
        -11    1    3    3    0    0 -0.17660686854E+02 -0.88288657706E+02  0.14353668779E+03  0.16943897922E+03  0.00000000000E+00 0.  1.
         11    1    3    3    0    0 -0.90509332866E+01  0.25616456734E+02  0.58395345485E+02  0.64406044928E+02  0.00000000000E+00 0. -1.
         -2    1    1    2    0  502  0.17423410232E+02  0.15795089641E+02  0.13212546495E+02  0.26974644868E+02  0.00000000000E+00 0.  1.
<scales pt_clust_5="13000.00000" pt_clust_6="13000.00000" pt_clust_7="13000.00000" pt_clust_8="13000.00000" pt_clust_9="23.51723"></scales>
<clustering>
<clus scale="   23.517">  2  9  1 -1</clus>
<clus scale="   80.353">  5  6 -1 -1</clus>
<clus scale="   96.258">  7  8 -1 -1</clus>
<clus scale="  100.020">  2  5  1 -1</clus>
<clus scale="   23.517">  2  5  1 -1</clus>
</clustering>
</event>
<event>
 9    2  0.6190160E-005  0.2466086E+03  0.7546771E-02  0.1149034E+00
         21   -1    0    0  501  502  0.00000000000E+00  0.00000000000E+00  0.29368450576E+03  0.29368450576E+03  0.00000000000E+00 0. -1.
          2   -1    0    0  502    0 -0.00000000000E+00 -0.00000000000E+00 -0.32899812745E+03  0.32899812745E+03  0.00000000000E+00 0. -1.
         24    2    1    2    0    0  0.10956362247E+02 -0.76324755460E+02 -0.59717928023E+02  0.12383366429E+03  0.76308815442E+02 0.  0.
         23    2    1    2    0    0 -0.17352119546E+03 -0.10684723113E+03 -0.72489895522E+02  0.23547131607E+03  0.93091458622E+02 0.  0.
        -13    1    3    3    0    0 -0.52524174205E+01 -0.54069435828E+02 -0.74796755177E+02  0.92442665283E+02  0.00000000000E+00 0.  1.
         14    1    3    3    0    0  0.16208779668E+02 -0.22255319632E+02  0.15078827154E+02  0.31390999006E+02  0.00000000000E+00 0. -1.
        -11    1    4    4    0    0 -0.15280960215E+03 -0.11361043195E+03 -0.86942947792E+02  0.20932553817E+03  0.00000000000E+00 0. -1.
         11    1    4    4    0    0 -0.20711593305E+02  0.67632008197E+01  0.14453052270E+02  0.26145777909E+02  0.00000000000E+00 0.  1.
          1    1    1    2  501    0  0.16256483321E+03  0.18317198659E+03  0.96894201846E+02  0.26337765285E+03  0.00000000000E+00 0. -1.
<scales pt_clust_5="13000.00000" pt_clust_6="13000.00000" pt_clust_7="13000.00000" pt_clust_8="13000.00000" pt_clust_9="228.36326"></scales>
<clustering>
<clus scale="   76.309">  5  6 -1 -1</clus>
<clus scale="   93.091">  7  8 -1 -1</clus>
<clus scale="  108.483">  2  5  1 -1</clus>
<clus scale="  228.363">  1  9  2 -1</clus>
<clus scale="  228.363">  1  5  2 -1</clus>
</clustering>
</event>
<event>
 9    2  0.6190160E-005  0.1150558E+03  0.7546771E-02  0.1251651E+00
          2   -1    0    0  502    0 -0.00000000000E+00  0.00000000000E+00  0.97623164589E+02  0.97623164589E+02  0.00000000000E+00 0. -1.
         21   -1    0    0  501  502  0.00000000000E+00 -0.00000000000E+00 -0.21669739013E+03  0.21669739013E+03  0.00000000000E+00 0.  1.
         24    2    1    2    0    0 -0.49286594196E+02 -0.54875769013E+02  0.10790180561E+02  0.11606927475E+03  0.88967017212E+02 0.  0.
         23    2    1    2    0    0  0.68963770946E+02  0.27837745887E+02 -0.99490088614E+02  0.15307556590E+03  0.89458981343E+02 0.  0.
        -13    1    3    3    0    0 -0.50636235888E+01 -0.67812572491E+02 -0.27116541437E+01  0.68055406397E+02  0.00000000000E+00 0.  1.
         14    1    3    3    0    0 -0.44222970607E+02  0.12936803478E+02  0.13501834704E+02  0.48013868350E+02  0.00000000000E+00 0. -1.
        -11    1    4    4    0    0  0.83399404480E+02  0.13201720288E+01 -0.86632256074E+02  0.12025951652E+03  0.00000000000E+00 0.  1.
         11    1    4    4    0    0 -0.14435633534E+02  0.26517573858E+02 -0.12857832540E+02  0.32816049373E+02  0.00000000000E+00 0. -1.
          1    1    1    2  501    0 -0.19677176750E+02  0.27038023126E+02 -0.30374317488E+02  0.45175714076E+02  0.00000000000E+00 0. -1.
<scales pt_clust_5="13000.00000" pt_clust_6="13000.00000" pt_clust_7="13000.00000" pt_clust_8="13000.00000" pt_clust_9="33.44019"></scales>
<clustering>
<clus scale="   33.440">  2  9  1 -1</clus>
<clus scale="   88.967">  5  6 -1 -1</clus>
<clus scale="   89.459">  7  8 -1 -1</clus>
<clus scale="  114.674">  1  5  2 -1</clus>
<clus scale="   33.440">  2  5  1 -1</clus>
</clustering>
</event>
<event>
 9    2  0.6190160E-005  0.2072885E+03  0.7546771E-02  0.1177058E+00
         21   -1    0    0  501  502  0.00000000000E+00  0.00000000000E+00  0.69896413365E+03  0.69896413365E+03  0.00000000000E+00 0.  1.
         -3   -1    0    0    0  501 -0.00000000000E+00 -0.00000000000E+00 -0.19744212598E+03  0.19744212598E+03  0.00000000000E+00 0.  1.
         23    2    1    2    0    0  0.27197169909E+02  0.82377407012E+01 -0.11965537317E+03  0.15306808352E+03  0.91131133218E+02 0.  0.
         24    2    1    2    0    0  0.17822153838E+03  0.10585081232E+02  0.21787581981E+03  0.29034447476E+03  0.70392332549E+02 0.  0.
        -13    1    4    4    0    0  0.12767131147E+03  0.39178993138E+02  0.14441788275E+03  0.19670150517E+03  0.00000000000E+00 0.  1.
         14    1    4    4    0    0  0.50550226909E+02 -0.28593911906E+02  0.73457937051E+02  0.93642969594E+02  0.00000000000E+00 0. -1.
        -11    1    3    3    0    0  0.14318978734E+02 -0.29918303634E+02 -0.10516197300E+03  0.11026866558E+03  0.00000000000E+00 0.  1.
         11    1    3    3    0    0  0.12878191175E+02  0.38156044335E+02 -0.14493400167E+02  0.42799417936E+02  0.00000000000E+00 0. -1.
         -4    1    1    2    0  502 -0.20541870829E+03 -0.18822821934E+02  0.40330156103E+03  0.45299370136E+03  0.00000000000E+00 0.  1.
<scales pt_clust_5="13000.00000" pt_clust_6="13000.00000" pt_clust_7="13000.00000" pt_clust_8="13000.00000" pt_clust_9="194.97040"></scales>
<clustering>
<clus scale="   70.392">  5  6 -1 -1</clus>
<clus scale="   91.131">  7  8 -1 -1</clus>
<clus scale="   95.459">  2  7  1 -1</clus>
<clus scale="  194.970">  1  9  2 -1</clus>
<clus scale="  194.970">  1  5  2 -1</clus>
</clustering>
</event>
<event>
 9    2  0.6190160E-005  0.1346129E+03  0.7546771E-02  0.1222178E+00
         21   -1    0    0  501  502  0.00000000000E+00  0.00000000000E+00  0.56039246350E+03  0.56039246350E+03  0.00000000000E+00 0. -1.
         -1   -1    0    0    0  501 -0.00000000000E+00 -0.00000000000E+00 -0.70754573219E+02  0.70754573219E+02  0.00000000000E+00 0.  1.
         24    2    1    2    0    0  0.82765367393E+02  0.63825090787E+02  0.28083709156E+02  0.13520321239E+03  0.81039901695E+02 0.  0.
         23    2    1    2    0    0 -0.49676205159E+02 -0.88703156958E+02  0.28963261359E+03  0.31910820513E+03  0.87218233838E+02 0.  0.
        -11    1    3    3    0    0  0.98411462449E+02  0.57318842992E+02  0.30949729944E+02  0.11801758974E+03  0.00000000000E+00 0.  1.
         12    1    3    3    0    0 -0.15646095056E+02  0.65062477947E+01 -0.28660207882E+01  0.17185622654E+02  0.00000000000E+00 0. -1.
        -13    1    4    4    0    0 -0.68476150509E+02 -0.58499192265E+02  0.25061290312E+03  0.26630427314E+03  0.00000000000E+00 0. -1.
         13    1    4    4    0    0  0.18799945350E+02 -0.30203964693E+02  0.39019710475E+02  0.52803931992E+02  0.00000000000E+00 0.  1.
         -2    1    1    2    0  502 -0.33089162234E+02  0.24878066171E+02  0.17192156754E+03  0.17683561920E+03  0.00000000000E+00 0.  1.
<scales pt_clust_5="13000.00000" pt_clust_6="13000.00000" pt_clust_7="13000.00000" pt_clust_8="13000.00000" pt_clust_9="41.39820"></scales>
<clustering>
<clus scale="   41.398">  1  9  2 -1</clus>
<clus scale="   81.040">  5  6 -1 -1</clus>
<clus scale="   87.218">  7  8 -1 -1</clus>
<clus scale="  130.695">  2  5  1 -1</clus>
<clus scale="   41.398">  1  5  2 -1</clus>
</clustering>
</event>
<event>
 9    2  0.6190160E-005  0.1128128E+03  0.7546771E-02  0.1258450E+00
          2   -1    0    0  502    0 -0.00000000000E+00  0.00000000000E+00  0.87122223868E+03  0.87122223868E+03  0.00000000000E+00 0. -1.
         21   -1    0    0  501  502  0.00000000000E+00 -0.00000000000E+00 -0.42206256489E+02  0.42206256489E+02  0.00000000000E+00 0.  1.
         24    2    1    2    0    0 -0.15522001444E+02  0.69441775205E+02  0.74149552537E+03  0.74930101787E+03  0.81075943164E+02 0.  0.
         23    2    1    2    0    0 -0.12983899130E+02 -0.55702561067E+02  0.75566149889E+02  0.13030059706E+03  0.89423965682E+02 0.  0.
        -13    1    3    3    0    0 -0.40740395011E+02  0.33221752530E+02  0.23122612469E+03  0.23712651763E+03  0.00000000000E+00 0.  1.
         14    1    3    3    0    0  0.25218393567E+02  0.36220022676E+02  0.51026940069E+03  0.51217450024E+03  0.00000000000E+00 0. -1.
        -13    1    4    4    0    0  0.26158611730E+02 -0.35679217355E+02  0.74108658173E+02  0.86309748782E+02  0.00000000000E+00 0. -1.
         13    1    4    4    0    0 -0.39142510860E+02 -0.20023343712E+02  0.14574917162E+01  0.43990848274E+02  0.00000000000E+00 0.  1.
          1    1    1    2  501    0  0.28505900574E+02 -0.13739214139E+02  0.11954306925E+02  0.33826880239E+02  0.00000000000E+00 0. -1.
<scales pt_clust_5="13000.00000" pt_clust_6="13000.00000" pt_clust_7="13000.00000" pt_clust_8="13000.00000" pt_clust_9="31.64415"></scales>
<clustering>
<clus scale="   31.644">  2  9  1 -1</clus>
<clus scale="   81.076">  5  6 -1 -1</clus>
<clus scale="   89.424">  7  8 -1 -1</clus>
<clus scale="  106.317">  1  5  2 -1</clus>
<clus scale="   31.644">  2  5  1 -1</clus>
</clustering>
</event>
<event>
 9    2  0.6190160E-005  0.1475880E+03  0.7546771E-02  0.1217513E+00
          2   -1    0    0  502    0 -0.00000000000E+00  0.00000000000E+00  0.20266174558E+03  0.20266174558E+03  0.00000000000E+00 0. -1.
         21   -1    0    0  501  502  0.00000000000E+00 -0.00000000000E+00 -0.51991212012E+03  0.51991212012E+03  0.00000000000E+00 0.  1.
         23    2    1    2    0    0  0.63064058414E+02  0.17080216341E+01  0.13257516305E+03  0.17186758299E+03  0.89343715061E+02 0.  0.
         24    2    1    2    0    0 -0.12252882290E+03  0.99175448305E+02 -0.16000737459E+03  0.23812333320E+03  0.79065035904E+02 0.  0.
        -13    1    4    4    0    0 -0.49178112464E+02  0.21666861047E+02 -0.10526104876E+03  0.11818556595E+03  0.00000000000E+00 0.  1.
         14    1    4    4    0    0 -0.73350710434E+02  0.77508587258E+02 -0.54746325831E+02  0.11993776725E+03  0.00000000000E+00 0. -1.
        -11    1    3    3    0    0  0.96431906498E+01 -0.33475868313E+02  0.85861976385E+02  0.92660152568E+02  0.00000000000E+00 0. -1.
         11    1    3    3    0    0  0.53420867765E+02  0.35183889947E+02  0.46713186669E+02  0.79207430417E+02  0.00000000000E+00 0.  1.
          1    1    1    2  501    0  0.59464764484E+02 -0.10088346994E+03 -0.28981816300E+03  0.31258294951E+03  0.00000000000E+00 0. -1.
<scales pt_clust_5="13000.00000" pt_clust_6="13000.00000" pt_clust_7="13000.00000" pt_clust_8="13000.00000" pt_clust_9="124.62315"></scales>
<clustering>
<clus scale="   79.065">  5  6 -1 -1</clus>
<clus scale="   89.344">  7  8 -1 -1</clus>
<clus scale="  109.372">  1  7  2 -1</clus>
<clus scale="  124.623">  2  9  1 -1</clus>
<clus scale="  124.623">  2  5  1 -1</clus>
</clustering>
</event>
<event>
 9    2  0.6190160E-005  0.1074375E+03  0.7546771E-02  0.1270143E+00
         21   -1    0    0  501  502  0.00000000000E+00  0.00000000000E+00  0.69286498135E+02  0.69286498135E+02  0.00000000000E+00 0. -1.
          4   -1    0    0  502    0 -0.00000000000E+00 -0.00000000000E+00 -0.57913380504E+03  0.57913380504E+03  0.00000000000E+00 0. -1.
         23    2    1    2    0    0  0.10632599722E+02 -0.61502048955E+02 -0.43818321677E+03  0.45204290221E+03  0.91884165001E+02 0.  0.
         24    2    1    2    0    0 -0.36335546804E+02  0.30523013974E+02 -0.10748808512E+03  0.14249140358E+03  0.80611322455E+02 0.  0.
        -11    1    4    4    0    0 -0.20766647170E+02  0.57669823712E+02 -0.61198249611E+02  0.86615748897E+02  0.00000000000E+00 0.  1.
         12    1    4    4    0    0 -0.15568899634E+02 -0.27146809738E+02 -0.46289835513E+02  0.55875654686E+02  0.00000000000E+00 0. -1.
        -11    1    3    3    0    0  0.45556363463E+02 -0.21753139039E+02 -0.13205670524E+03  0.14137734864E+03  0.00000000000E+00 0.  1.
         11    1    3    3    0    0 -0.34923763740E+02 -0.39748909916E+02 -0.30612651153E+03  0.31066555357E+03  0.00000000000E+00 0. -1.
          3    1    1    2  501    0  0.25702947081E+02  0.30979034981E+02  0.35823994987E+02  0.53885997382E+02  0.00000000000E+00 0. -1.
<scales pt_clust_5="13000.00000" pt_clust_6="13000.00000" pt_clust_7="13000.00000" pt_clust_8="13000.00000" pt_clust_9="40.25347"></scales>
<clustering>
<clus scale="   40.253">  1  9  2 -1</clus>
<clus scale="   80.611">  5  6 -1 -1</clus>
<clus scale="   91.884">  7  8 -1 -1</clus>
<clus scale="   97.971">  1  5  2 -1</clus>
<clus scale="   40.253">  1  5  2 -1</clus>
</clustering>
</event>
<event>
 9    2  0.6190160E-005  0.2475190E+03  0.7546771E-02  0.1129509E+00
          2   -1    0    0  502    0 -0.00000000000E+00  0.00000000000E+00  0.24946319054E+04  0.24946319054E+04  0.00000000000E+00 0. -1.
         21   -1    0    0  501  502  0.00000000000E+00 -0.00000000000E+00 -0.13955973060E+03  0.13955973060E+03  0.00000000000E+00 0. -1.
         23    2    1    2    0    0  0.97021409452E+02  0.91320364967E+02  0.45765621951E+03  0.48888917760E+03  0.10867773354E+03 0.  0.
         24    2    1    2    0    0 -0.26770187550E+03 -0.24036220122E+03  0.18825191120E+04  0.19182183190E+04  0.79025505401E+02 0.  0.
        -13    1    4    4    0    0 -0.67766384530E+02 -0.81919020515E+02  0.39879854348E+03  0.41272664934E+03  0.00000000000E+00 0.  1.
         14    1    4    4    0    0 -0.19993549097E+03 -0.15844318071E+03  0.14837205685E+04  0.15054916696E+04  0.00000000000E+00 0. -1.
        -11    1    3    3    0    0  0.61691902231E+02  0.81998105478E+01  0.30691969848E+03  0.31316581711E+03  0.00000000000E+00 0.  1.
         11    1    3    3    0    0  0.35329507220E+02  0.83120554420E+02  0.15073652103E+03  0.17572336049E+03  0.00000000000E+00 0. -1.
          1    1    1    2  501    0  0.17068046605E+03  0.14904183626E+03  0.14896843369E+02  0.22708413944E+03  0.00000000000E+00 0. -1.
<scales pt_clust_5="13000.00000" pt_clust_6="13000.00000" pt_clust_7="13000.00000" pt_clust_8="13000.00000" pt_clust_9="234.56477"></scales>
<clustering>
<clus scale="   79.026">  5  6 -1 -1</clus>
<clus scale="  108.678">  7  8 -1 -1</clus>
<clus scale="  171.940">  1  7  2 -1</clus>
<clus scale="  234.565">  2  9  1 -1</clus>
<clus scale="  234.565">  2  5  1 -1</clus>
</clustering>
</event>
<event>
 9    2  0.6190160E-005  0.9254206E+02  0.7546771E-02  0.1301019E+00
          2   -1    0    0  502    0 -0.00000000000E+00  0.00000000000E+00  0.79035814053E+02  0.79035814053E+02  0.00000000000E+00 0. -1.
         21   -1    0    0  501  502  0.00000000000E+00 -0.00000000000E+00 -0.13374074336E+03  0.13374074336E+03  0.00000000000E+00 0.  1.
         24    2    1    2    0    0 -0.39174316487E+02  0.10721806621E+02 -0.61298021961E+01  0.89403631797E+02  0.79409386688E+02 0.  0.
         23    2    1    2    0    0  0.18683697072E+02 -0.19040053635E+01 -0.48185479472E+02  0.10106214507E+03  0.86827478153E+02 0.  0.
        -11    1    3    3    0    0 -0.57314430126E+02 -0.11617555994E+01 -0.23162102470E+02  0.61828606385E+02  0.00000000000E+00 0.  1.
         12    1    3    3    0    0  0.18140113639E+02  0.11883562220E+02  0.17032300274E+02  0.27575025412E+02  0.00000000000E+00 0. -1.
        -13    1    4    4    0    0 -0.22292257288E+02  0.24805369786E+02 -0.38964426526E+02  0.51288182262E+02  0.00000000000E+00 0.  1.
         13    1    4    4    0    0  0.40975954361E+02 -0.26709375150E+02 -0.92210529457E+01  0.49773962813E+02  0.00000000000E+00 0. -1.
          1    1    1    2  501    0  0.20490619414E+02 -0.88178012572E+01 -0.38964763778E+00  0.22310780539E+02  0.00000000000E+00 0. -1.
<scales pt_clust_5="13000.00000" pt_clust_6="13000.00000" pt_clust_7="13000.00000" pt_clust_8="13000.00000" pt_clust_9="22.30739"></scales>
<clustering>
<clus scale="   22.307">  2  9  1 -1</clus>
<clus scale="   79.409">  5  6 -1 -1</clus>
<clus scale="   85.621">  1  5  2 -1</clus>
<clus scale="   86.827">  7  8 -1 -1</clus>
<clus scale="   22.307">  2  5  1 -1</clus>
</clustering>
</event>
<event>
 9    2  0.6190160E-005  0.1243472E+03  0.7546771E-02  0.1249436E+00
         -1   -1    0    0    0  501 -0.00000000000E+00  0.00000000000E+00  0.37281748695E+03  0.37281748695E+03  0.00000000000E+00 0.  1.
         21   -1    0    0  501  502  0.00000000000E+00 -0.00000000000E+00 -0.94727655886E+02  0.94727655886E+02  0.00000000000E+00 0.  1.
         23    2    1    2    0    0  0.17703215522E+02 -0.93338210091E+01  0.16969627374E+03  0.20766669962E+03  0.11801740870E+03 0.  0.
         24    2    1    2    0    0 -0.24395403869E+02  0.10404383547E+03  0.26981908636E+02  0.13480794803E+03  0.77620255290E+02 0.  0.
        -11    1    4    4    0    0 -0.33867238645E+02  0.99034096717E+01  0.18424174807E+02  0.39805999471E+02  0.00000000000E+00 0.  1.
         12    1    4    4    0    0  0.94718347756E+01  0.94140425794E+02  0.85577338286E+01  0.95001948564E+02  0.00000000000E+00 0. -1.
        -13    1    3    3    0    0 -0.23779736600E+02 -0.18855229560E+02 -0.23455039994E+01  0.30438412303E+02  0.00000000000E+00 0. -1.
         13    1    3    3    0    0  0.41482952122E+02  0.95214085513E+01  0.17204177774E+03  0.17722828732E+03  0.00000000000E+00 0.  1.
         -2    1    1    2    0  502  0.66921883472E+01 -0.94710014456E+02  0.81411648690E+02  0.12507049518E+03  0.00000000000E+00 0.  1.
<scales pt_clust_5="13000.00000" pt_clust_6="13000.00000" pt_clust_7="13000.00000" pt_clust_8="13000.00000" pt_clust_9="94.94620"></scales>
<clustering>
<clus scale="   77.620">  5  6 -1 -1</clus>
<clus scale="   94.946">  2  9  1 -1</clus>
<clus scale="   94.946">  2  5  1 -1</clus>
<clus scale="  118.017">  7  8 -1 -1</clus>
<clus scale="   94.946">  2  5  1 -1</clus>
</clustering>
</event>
<event>
 9    2  0.6190160E-005  0.9369652E+02  0.7546771E-02  0.1301188E+00
         21   -1    0    0  501  502  0.00000000000E+00  0.00000000000E+00  0.38655319248E+02  0.38655319248E+02  0.00000000000E+00 0. -1.
         -1   -1    0    0    0  501 -0.00000000000E+00 -0.00000000000E+00 -0.30307885792E+03  0.30307885792E+03  0.00000000000E+00 0.  1.
         23    2    1    2    0    0  0.12293957899E+02 -0.47933152784E+01 -0.18298160543E+03  0.20517446966E+03  0.91870440304E+02 0.  0.
         24    2    1    2    0    0 -0.19114906909E+02  0.25435679794E+02 -0.54809936375E+02  0.10218099585E+03  0.80152812270E+02 0.  0.
        -13    1    4    4    0    0  0.31494371541E+02  0.96194160115E+01 -0.17017306923E+02  0.37067739857E+02  0.00000000000E+00 0.  1.
         14    1    4    4    0    0 -0.50609278450E+02  0.15816263783E+02 -0.37792629451E+02  0.65113255994E+02  0.00000000000E+00 0. -1.
        -11    1    3    3    0    0 -0.38534005471E+02  0.10100574494E+02 -0.76900365789E+02  0.86605758707E+02  0.00000000000E+00 0. -1.
         11    1    3    3    0    0  0.50827963369E+02 -0.14893889773E+02 -0.10608123965E+03  0.11856871096E+03  0.00000000000E+00 0.  1.
         -2    1    1    2    0  502  0.68209490102E+01 -0.20642364516E+02 -0.26631996860E+02  0.34378711653E+02  0.00000000000E+00 0.  1.
<scales pt_clust_5="13000.00000" pt_clust_6="13000.00000" pt_clust_7="13000.00000" pt_clust_8="13000.00000" pt_clust_9="21.74012"></scales>
<clustering>
<clus scale="   21.740">  1  9  2 -1</clus>
<clus scale="   80.153">  5  6 -1 -1</clus>
<clus scale="   82.239">  1  5  2 -1</clus>
<clus scale="   91.870">  7  8 -1 -1</clus>
<clus scale="   21.740">  1  5  2 -1</clus>
</clustering>
</event>
<event>
 9    2  0.6190160E-005  0.9909526E+02  0.7546771E-02  0.1293122E+00
         21   -1    0    0  501  502  0.00000000000E+00  0.00000000000E+00  0.13305304958E+02  0.13305304958E+02  0.00000000000E+00 0.  1.
         -3   -1    0    0    0  501 -0.00000000000E+00 -0.00000000000E+00 -0.10107933764E+04  0.10107933764E+04  0.00000000000E+00 0.  1.
         23    2    1    2    0    0  0.75831719735E+01  0.36667582660E+02 -0.28883511529E+03  0.29723498229E+03  0.59337127976E+02 0.  0.
         24    2    1    2    0    0 -0.92248731909E+00 -0.81612374951E+02 -0.52148672963E+03  0.53426153028E+03  0.82616843456E+02 0.  0.
        -11    1    4    4    0    0 -0.16570870154E+02 -0.92006310580E+02 -0.47518729312E+03  0.48429610619E+03  0.00000000000E+00 0.  1.
         12    1    4    4    0    0  0.15648382834E+02  0.10393935629E+02 -0.46299436512E+02  0.49965424090E+02  0.00000000000E+00 0. -1.
        -11    1    3    3    0    0 -0.25844773760E+02  0.11848369869E+02 -0.10957411241E+03  0.11320257201E+03  0.00000000000E+00 0. -1.
         11    1    3    3    0    0  0.33427945734E+02  0.24819212791E+02 -0.17926100288E+03  0.18403241028E+03  0.00000000000E+00 0.  1.
         -4    1    1    2    0  502 -0.66606846544E+01  0.44944792291E+02 -0.18716622655E+03  0.19260216883E+03  0.00000000000E+00 0.  1.
<scales pt_clust_5="13000.00000" pt_clust_6="13000.00000" pt_clust_7="13000.00000" pt_clust_8="13000.00000" pt_clust_9="45.43566"></scales>
<clustering>
<clus scale="   45.436">  1  9  2 -1</clus>
<clus scale="   59.337">  7  8 -1 -1</clus>
<clus scale="   80.717">  2  7  1 -1</clus>
<clus scale="   82.617">  5  6 -1 -1</clus>
<clus scale="   45.436">  1  5  2 -1</clus>
</clustering>
</event>
<event>
 9    2  0.6190160E-005  0.9195207E+02  0.7546771E-02  0.1305044E+00
         -1   -1    0    0    0  501 -0.00000000000E+00  0.00000000000E+00  0.11539814023E+03  0.11539814023E+03  0.00000000000E+00 0.  1.
         21   -1    0    0  501  502  0.00000000000E+00 -0.00000000000E+00 -0.11278699826E+03  0.11278699826E+03  0.00000000000E+00 0. -1.
         23    2    1    2    0    0  0.12438292971E+02  0.93317940768E+01 -0.13419168967E+02  0.92686314666E+02  0.90381886005E+02 0.  0.
         24    2    1    2    0    0  0.30182610760E+01 -0.23542688144E+02 -0.27468989843E+02  0.87197232321E+02  0.79280791220E+02 0.  0.
        -11    1    4    4    0    0  0.21136079288E+02  0.13045694077E+02  0.14405185265E+02  0.28712947326E+02  0.00000000000E+00 0.  1.
         12    1    4    4    0    0 -0.18117818212E+02 -0.36588382221E+02 -0.41874175108E+02  0.58484284995E+02  0.00000000000E+00 0. -1.
        -11    1    3    3    0    0  0.50218264088E+02  0.12313080560E+02  0.20666098984E+01  0.51747047040E+02  0.00000000000E+00 0. -1.
         11    1    3    3    0    0 -0.37779971117E+02 -0.29812864831E+01 -0.15485778866E+02  0.40939267626E+02  0.00000000000E+00 0.  1.
         -2    1    1    2    0  502 -0.15456554047E+02  0.14210894068E+02  0.43499300777E+02  0.48301591498E+02  0.00000000000E+00 0.  1.
<scales pt_clust_5="13000.00000" pt_clust_6="13000.00000" pt_clust_7="13000.00000" pt_clust_8="13000.00000" pt_clust_9="20.99655"></scales>
<clustering>
<clus scale="   20.997">  2  9  1 -1</clus>
<clus scale="   79.281">  5  6 -1 -1</clus>
<clus scale="   81.066">  2  5  1 -1</clus>
<clus scale="   90.382">  7  8 -1 -1</clus>
<clus scale="   20.997">  2  5  1 -1</clus>
</clustering>
</event>
<event>
 9    2  0.6190160E-005  0.8774693E+02  0.7546771E-02  0.1310229E+00
         21   -1    0    0  501  502  0.00000000000E+00  0.00000000000E+00  0.14887448397E+03  0.14887448397E+03  0.00000000000E+00 0. -1.
          2   -1    0    0  502    0 -0.00000000000E+00 -0.00000000000E+00 -0.10135946396E+03  0.10135946396E+03  0.00000000000E+00 0. -1.
         23    2    1    2    0    0  0.19416305468E+02  0.34587747625E+02 -0.39323227656E+02  0.10006413516E+03  0.83025355810E+02 0.  0.
         24    2    1    2    0    0  0.79899624287E+01 -0.27468132539E+01  0.59412145705E+02  0.99998708630E+02  0.79990963163E+02 0.  0.
        -11    1    4    4    0    0 -0.23954303117E+02 -0.28821082689E+02  0.38635863230E+02  0.53825582882E+02  0.00000000000E+00 0.  1.
         12    1    4    4    0    0  0.31944265545E+02  0.26074269435E+02  0.20776282475E+02  0.46173125747E+02  0.00000000000E+00 0. -1.
        -13    1    3    3    0    0  0.18015930557E+02  0.61733860921E+02 -0.22678262249E+02  0.68190519258E+02  0.00000000000E+00 0. -1.
         13    1    3    3    0    0  0.14003749107E+01 -0.27146113296E+02 -0.16644965406E+02  0.31873615897E+02  0.00000000000E+00 0.  1.
          1    1    1    2  501    0 -0.27406267897E+02 -0.31840934371E+02  0.27426101966E+02  0.50171104140E+02  0.00000000000E+00 0. -1.
<scales pt_clust_5="13000.00000" pt_clust_6="13000.00000" pt_clust_7="13000.00000" pt_clust_8="13000.00000" pt_clust_9="42.01129"></scales>
<clustering>
<clus scale="   42.011">  1  9  2 -1</clus>
<clus scale="   79.991">  5  6 -1 -1</clus>
<clus scale="   83.025">  7  8 -1 -1</clus>
<clus scale="   84.881">  1  5  2 -1</clus>
<clus scale="   42.011">  1  5  2 -1</clus>
</clustering>
</event>
<event>
 9    2  0.6190160E-005  0.1007483E+03  0.7546771E-02  0.1284035E+00
         21   -1    0    0  501  502  0.00000000000E+00  0.00000000000E+00  0.29366538465E+03  0.29366538465E+03  0.00000000000E+00 0. -1.
          2   -1    0    0  502    0 -0.00000000000E+00 -0.00000000000E+00 -0.13890498755E+03  0.13890498755E+03  0.00000000000E+00 0. -1.
         23    2    1    2    0    0  0.10156162659E+02  0.60087830850E+02 -0.35285099436E+02  0.11579584700E+03  0.91923581766E+02 0.  0.
         24    2    1    2    0    0  0.49897806372E+02 -0.12048358128E+02 -0.15485721567E+02  0.97326691416E+02  0.81226370566E+02 0.  0.
        -13    1    4    4    0    0  0.20134304181E+02  0.14554881570E+02  0.28579137009E+02  0.37868216945E+02  0.00000000000E+00 0.  1.
         14    1    4    4    0    0  0.29763502191E+02 -0.26603239699E+02 -0.44064858576E+02  0.59458474471E+02  0.00000000000E+00 0. -1.
        -13    1    3    3    0    0  0.31642470834E+02 -0.45899625193E+01  0.10543351713E+02  0.33667135039E+02  0.00000000000E+00 0. -1.
         13    1    3    3    0    0 -0.21486308175E+02  0.64677793369E+02 -0.45828451149E+02  0.82128711964E+02  0.00000000000E+00 0.  1.
          1    1    1    2  501    0 -0.60053969030E+02 -0.48039472722E+02  0.20553121810E+03  0.21944783378E+03  0.00000000000E+00 0. -1.
<scales pt_clust_5="13000.00000" pt_clust_6="13000.00000" pt_clust_7="13000.00000" pt_clust_8="13000.00000" pt_clust_9="76.90429"></scales>
<clustering>
<clus scale="   76.904">  1  9  2 -1</clus>
<clus scale="   81.226">  5  6 -1 -1</clus>
<clus scale="   91.093">  1  5  2 -1</clus>
<clus scale="   91.924">  7  8 -1 -1</clus>
<clus scale="   76.904">  1  5  2 -1</clus>
</clustering>
</event>
<event>
 9    2  0.6190160E-005  0.9729304E+02  0.7546771E-02  0.1288979E+00
         -1   -1    0    0    0  501 -0.00000000000E+00  0.00000000000E+00  0.48308936015E+03  0.48308936015E+03  0.00000000000E+00 0.  1.
         21   -1    0    0  501  502  0.00000000000E+00 -0.00000000000E+00 -0.56124044008E+03  0.56124044008E+03  0.00000000000E+00 0.  1.
         23    2    1    2    0    0  0.19074820766E+02 -0.22276655575E+02  0.45621515211E+03  0.46642104336E+03  0.92499873027E+02 0.  0.
         24    2    1    2    0    0 -0.56763883901E+01  0.10468836569E+03 -0.31684851491E+03  0.34491698615E+03  0.87079679832E+02 0.  0.
        -11    1    4    4    0    0  0.62830444817E+01  0.10415333530E+03 -0.18396964145E+03  0.21149993588E+03  0.00000000000E+00 0.  1.
         12    1    4    4    0    0 -0.11959432872E+02  0.53503039894E+00 -0.13287887346E+03  0.13341705028E+03  0.00000000000E+00 0. -1.
        -11    1    3    3    0    0  0.54655048661E+02 -0.43756446799E+01  0.31320240740E+03  0.31796551482E+03  0.00000000000E+00 0.  1.
         11    1    3    3    0    0 -0.35580227894E+02 -0.17901010895E+02  0.14301274470E+03  0.14845552854E+03  0.00000000000E+00 0. -1.
         -2    1    1    2    0  502 -0.13398432376E+02 -0.82411710120E+02 -0.21751771713E+03  0.23299177071E+03  0.00000000000E+00 0.  1.
<scales pt_clust_5="13000.00000" pt_clust_6="13000.00000" pt_clust_7="13000.00000" pt_clust_8="13000.00000" pt_clust_9="83.49376"></scales>
<clustering>
<clus scale="   83.494">  2  9  1 -1</clus>
<clus scale="   87.080">  5  6 -1 -1</clus>
<clus scale="   92.155">  2  5  1 -1</clus>
<clus scale="   92.500">  7  8 -1 -1</clus>
<clus scale="   83.494">  2  5  1 -1</clus>
</clustering>
</event>
<event>
 9    2  0.6190160E-005  0.1135330E+03  0.7546771E-02  0.1260315E+00
         21   -1    0    0  501  502  0.00000000000E+00  0.00000000000E+00  0.29890650831E+02  0.29890650831E+02  0.00000000000E+00 0.  1.
         -1   -1    0    0    0  501 -0.00000000000E+00 -0.00000000000E+00 -0.62870329606E+03  0.62870329606E+03  0.00000000000E+00 0.  1.
         24    2    1    2    0    0  0.55602654922E+02 -0.61281139543E+02 -0.30412636842E+03  0.32548348038E+03  0.81238012881E+02 0.  0.
         23    2    1    2    0    0 -0.12516031938E+02  0.30301195153E+02 -0.19325125066E+03  0.21863217789E+03  0.96846114246E+02 0.  0.
        -13    1    3    3    0    0  0.16163635399E+02 -0.59056324751E+02 -0.25600697875E+03  0.26322706125E+03  0.00000000000E+00 0.  1.
         14    1    3    3    0    0  0.39439019523E+02 -0.22248147921E+01 -0.48119389662E+02  0.62256419133E+02  0.00000000000E+00 0. -1.
        -11    1    4    4    0    0 -0.47730307461E+02 -0.67087119703E+01 -0.12007616557E+03  0.12938885039E+03  0.00000000000E+00 0. -1.
         11    1    4    4    0    0  0.35214275523E+02  0.37009907124E+02 -0.73175085091E+02  0.89243327504E+02  0.00000000000E+00 0.  1.
         -2    1    1    2    0  502 -0.43086622984E+02  0.30979944390E+02 -0.10143502615E+03  0.11447828862E+03  0.00000000000E+00 0.  1.
<scales pt_clust_5="13000.00000" pt_clust_6="13000.00000" pt_clust_7="13000.00000" pt_clust_8="13000.00000" pt_clust_9="53.06801"></scales>
<clustering>
<clus scale="   53.068">  1  9  2 -1</clus>
<clus scale="   81.238">  5  6 -1 -1</clus>
<clus scale="   96.846">  7  8 -1 -1</clus>
<clus scale="  100.549">  2  5  1 -1</clus>
<clus scale="   53.068">  1  5  2 -1</clus>
</clustering>
</event>
<event>
 9    2  0.6190160E-005  0.9078747E+02  0.7546771E-02  0.1308451E+00
         21   -1    0    0  501  502  0.00000000000E+00  0.00000000000E+00  0.62477163054E+02  0.62477163054E+02  0.00000000000E+00 0. -1.
         -1   -1    0    0    0  501 -0.00000000000E+00 -0.00000000000E+00 -0.26645811028E+03  0.26645811028E+03  0.00000000000E+00 0.  1.
         24    2    1    2    0    0  0.62192753932E+01  0.43035996575E+01 -0.18994409511E+03  0.20572804911E+03  0.78664290302E+02 0.  0.
         23    2    1    2    0    0  0.56322801959E+01 -0.26629930328E+02 -0.16533546794E+00  0.94374198278E+02  0.90363633146E+02 0.  0.
        -11    1    3    3    0    0 -0.35766596357E+01  0.33844534868E+02 -0.15602673450E+03  0.15969529396E+03  0.00000000000E+00 0.  1.
         12    1    3    3    0    0  0.97959350289E+01 -0.29540935210E+02 -0.33917360607E+02  0.46032755150E+02  0.00000000000E+00 0. -1.
        -13    1    4    4    0    0 -0.42193799299E+02 -0.11995266461E+02 -0.48851548251E+01  0.44136921669E+02  0.00000000000E+00 0. -1.
         13    1    4    4    0    0  0.47826079495E+02 -0.14634663867E+02  0.47198193572E+01  0.50237276609E+02  0.00000000000E+00 0.  1.
         -2    1    1    2    0  502 -0.11851555589E+02  0.22326330671E+02 -0.13871516655E+02  0.28833025949E+02  0.00000000000E+00 0.  1.
<scales pt_clust_5="13000.00000" pt_clust_6="13000.00000" pt_clust_7="13000.00000" pt_clust_8="13000.00000" pt_clust_9="25.27695"></scales>
<clustering>
<clus scale="   25.277">  1  9  2 -1</clus>
<clus scale="   78.664">  5  6 -1 -1</clus>
<clus scale="   79.151">  2  5  1 -1</clus>
<clus scale="   90.364">  7  8 -1 -1</clus>
<clus scale="   25.277">  1  5  2 -1</clus>
</clustering>
</event>
<event>
 9    2  0.6190160E-005  0.1373128E+03  0.7546771E-02  0.1220277E+00
          2   -1    0    0  502    0 -0.00000000000E+00  0.00000000000E+00  0.16282369541E+04  0.16282369541E+04  0.00000000000E+00 0. -1.
         21   -1    0    0  501  502  0.00000000000E+00 -0.00000000000E+00 -0.26990873011E+02  0.26990873011E+02  0.00000000000E+00 0. -1.
         24    2    1    2    0    0  0.11234562723E+03 -0.30679777239E+02  0.11345617508E+04  0.11433560740E+04  0.80436041452E+02 0.  0.
         23    2    1    2    0    0 -0.60430463301E+02  0.39142342424E+02  0.43401081623E+03  0.44994956183E+03  0.94367662482E+02 0.  0.
        -11    1    3    3    0    0  0.54515038343E+02  0.74090030121E+01  0.24490457140E+03  0.25100803139E+03  0.00000000000E+00 0.  1.
         12    1    3    3    0    0  0.57830588886E+02 -0.38088780251E+02  0.88965717943E+03  0.89234804258E+03  0.00000000000E+00 0. -1.
        -11    1    4    4    0    0 -0.13746576030E+02 -0.30142490017E+02  0.88955267039E+02  0.94924062234E+02  0.00000000000E+00 0.  1.
         11    1    4    4    0    0 -0.46683887271E+02  0.69284832441E+02  0.34505554919E+03  0.35502549959E+03  0.00000000000E+00 0. -1.
          1    1    1    2  501    0 -0.51915163928E+02 -0.84625651845E+01  0.32673514002E+02  0.61922191276E+02  0.00000000000E+00 0. -1.
<scales pt_clust_5="13000.00000" pt_clust_6="13000.00000" pt_clust_7="13000.00000" pt_clust_8="13000.00000" pt_clust_9="52.60037"></scales>
<clustering>
<clus scale="   52.600">  2  9  1 -1</clus>
<clus scale="   80.436">  5  6 -1 -1</clus>
<clus scale="   94.368">  7  8 -1 -1</clus>
<clus scale="  128.139">  1  5  2 -1</clus>
<clus scale="   52.600">  2  5  1 -1</clus>
</clustering>
</event>
<event>
 9    2  0.6190160E-005  0.9835641E+02  0.7546771E-02  0.1292947E+00
         21   -1    0    0  501  502  0.00000000000E+00  0.00000000000E+00  0.25135885767E+03  0.25135885767E+03  0.00000000000E+00 0.  1.
          2   -1    0    0  502    0 -0.00000000000E+00 -0.00000000000E+00 -0.80904561614E+02  0.80904561614E+02  0.00000000000E+00 0. -1.
         23    2    1    2    0    0 -0.93364577012E+01  0.18233336342E+02  0.33162628946E+02  0.99228580983E+02  0.91251999040E+02 0.  0.
         24    2    1    2    0    0  0.57049253399E+02 -0.51679932416E+02  0.13821502016E+03  0.17475930104E+03  0.74242769177E+02 0.  0.
        -13    1    4    4    0    0  0.38917774877E+02 -0.52022577170E+02  0.14206904631E+03  0.15621957514E+03  0.00000000000E+00 0.  1.
         14    1    4    4    0    0  0.18131478522E+02  0.34264475465E+00 -0.38540261555E+01  0.18539725899E+02  0.00000000000E+00 0. -1.
        -11    1    3    3    0    0  0.34842268984E+02 -0.44547227162E+01 -0.64356916507E+01  0.35710592118E+02  0.00000000000E+00 0.  1.
         11    1    3    3    0    0 -0.44178726685E+02  0.22688059059E+02  0.39598320596E+02  0.63517988865E+02  0.00000000000E+00 0. -1.
          1    1    1    2  501    0 -0.47712795698E+02  0.33446596073E+02 -0.92335304663E+00  0.58275537261E+02  0.00000000000E+00 0. -1.
<scales pt_clust_5="13000.00000" pt_clust_6="13000.00000" pt_clust_7="13000.00000" pt_clust_8="13000.00000" pt_clust_9="58.26825"></scales>
<clustering>
<clus scale="   58.268">  1  9  2 -1</clus>
<clus scale="   74.243">  5  6 -1 -1</clus>
<clus scale="   82.819">  1  5  2 -1</clus>
<clus scale="   91.252">  7  8 -1 -1</clus>
<clus scale="   58.268">  1  5  2 -1</clus>
</clustering>
</event>
<event>
 9    2  0.6190160E-005  0.9818257E+02  0.7546771E-02  0.1290900E+00
          2   -1    0    0  502    0 -0.00000000000E+00  0.00000000000E+00  0.64384389125E+03  0.64384389125E+03  0.00000000000E+00 0. -1.
         21   -1    0    0  501  502  0.00000000000E+00 -0.00000000000E+00 -0.28033839302E+02  0.28033839302E+02  0.00000000000E+00 0. -1.
         24    2    1    2    0    0 -0.25860958681E+02 -0.43961303409E+01  0.35547771363E+03  0.36553538241E+03  0.81016021592E+02 0.  0.
         23    2    1    2    0    0  0.48929890314E+02 -0.14339316251E+01  0.10360902525E+03  0.14782306828E+03  0.93384362064E+02 0.  0.
        -13    1    3    3    0    0 -0.21891712755E+02 -0.40952569326E+02  0.23607849129E+03  0.24060219049E+03  0.00000000000E+00 0.  1.
         14    1    3    3    0    0 -0.39692459261E+01  0.36556438985E+02  0.11939922234E+03  0.12493319191E+03  0.00000000000E+00 0. -1.
        -11    1    4    4    0    0  0.21588893637E+02  0.44611061125E+01  0.11538776293E+03  0.11747475316E+03  0.00000000000E+00 0.  1.
         11    1    4    4    0    0  0.27340996677E+02 -0.58950377376E+01 -0.11778737684E+02  0.30348315121E+02  0.00000000000E+00 0. -1.
          1    1    1    2  501    0 -0.23068931634E+02  0.58300619660E+01  0.15672331306E+03  0.15851927986E+03  0.00000000000E+00 0. -1.
<scales pt_clust_5="13000.00000" pt_clust_6="13000.00000" pt_clust_7="13000.00000" pt_clust_8="13000.00000" pt_clust_9="23.79424"></scales>
<clustering>
<clus scale="   23.794">  2  9  1 -1</clus>
<clus scale="   81.016">  5  6 -1 -1</clus>
<clus scale="   86.503">  1  5  2 -1</clus>
<clus scale="   93.384">  7  8 -1 -1</clus>
<clus scale="   23.794">  2  5  1 -1</clus>
</clustering>
</event>
<event>
 9    2  0.6190160E-005  0.1527730E+03  0.7546771E-02  0.1198516E+00
         21   -1    0    0  501  502  0.00000000000E+00  0.00000000000E+00  0.12996551628E+03  0.12996551628E+03  0.00000000000E+00 0.  1.
         -3   -1    0    0    0  501 -0.00000000000E+00 -0.00000000000E+00 -0.72749259000E+03  0.72749259000E+03  0.00000000000E+00 0.  1.
         24    2    1    2    0    0  0.64829775456E+02  0.11604167348E+03 -0.51403494015E+03  0.53693788148E+03  0.80011243605E+02 0.  0.
         23    2    1    2    0    0 -0.71531542171E+02 -0.15988866448E+02  0.72026333886E+02  0.13547571233E+03  0.88280634815E+02 0.  0.
        -11    1    3    3    0    0  0.62391479647E+02  0.10283324844E+03 -0.50829288439E+03  0.52233038399E+03  0.00000000000E+00 0.  1.
         12    1    3    3    0    0  0.24382958085E+01  0.13208425042E+02 -0.57420557568E+01  0.14607497487E+02  0.00000000000E+00 0. -1.
        -13    1    4    4    0    0 -0.29415695765E+02 -0.50904912647E+02  0.27345660959E+02  0.64841178754E+02  0.00000000000E+00 0. -1.
         13    1    4    4    0    0 -0.42115846406E+02  0.34916046199E+02  0.44680672926E+02  0.70634533578E+02  0.00000000000E+00 0.  1.
         -4    1    1    2    0  502  0.67017667147E+01 -0.10005280704E+03 -0.15551846747E+03  0.18504451247E+03  0.00000000000E+00 0.  1.
<scales pt_clust_5="13000.00000" pt_clust_6="13000.00000" pt_clust_7="13000.00000" pt_clust_8="13000.00000" pt_clust_9="100.27706"></scales>
<clustering>
<clus scale="   80.011">  5  6 -1 -1</clus>
<clus scale="   88.281">  7  8 -1 -1</clus>
<clus scale="  100.277">  1  9  2 -1</clus>
<clus scale="  148.148">  2  5  1 -1</clus>
<clus scale="  100.277">  1  5  2 -1</clus>
</clustering>
</event>
<event>
 9    2  0.6190160E-005  0.1219947E+03  0.7546771E-02  0.1242442E+00
         21   -1    0    0  501  502  0.00000000000E+00  0.00000000000E+00  0.68842089116E+02  0.68842089116E+02  0.00000000000E+00 0.  1.
          2   -1    0    0  502    0 -0.00000000000E+00 -0.00000000000E+00 -0.44671298724E+03  0.44671298724E+03  0.00000000000E+00 0. -1.
         23    2    1    2    0    0  0.31857866758E+02 -0.63042286243E+02 -0.21456178183E+03  0.24354461708E+03  0.91038281823E+02 0.  0.
         24    2    1    2    0    0 -0.69486299568E+02  0.95245789864E+02 -0.57040931247E+02  0.15476758421E+03  0.82457449450E+02 0.  0.
        -11    1    4    4    0    0 -0.75303562401E+02  0.56851919850E+02 -0.11710232650E+02  0.95078372144E+02  0.00000000000E+00 0.  1.
         12    1    4    4    0    0  0.58172628329E+01  0.38393870013E+02 -0.45330698598E+02  0.59689212064E+02  0.00000000000E+00 0. -1.
        -11    1    3    3    0    0  0.47625767597E+02  0.24804079619E+01 -0.82978413445E+02  0.95706756610E+02  0.00000000000E+00 0.  1.
         11    1    3    3    0    0 -0.15767900840E+02 -0.65522694205E+02 -0.13158336838E+03  0.14783786047E+03  0.00000000000E+00 0. -1.
          1    1    1    2  501    0  0.37628432810E+02 -0.32203503620E+02 -0.10626818505E+03  0.11724287507E+03  0.00000000000E+00 0. -1.
<scales pt_clust_5="13000.00000" pt_clust_6="13000.00000" pt_clust_7="13000.00000" pt_clust_8="13000.00000" pt_clust_9="49.52744"></scales>
<clustering>
<clus scale="   49.527">  1  9  2 -1</clus>
<clus scale="   82.457">  5  6 -1 -1</clus>
<clus scale="   91.038">  7  8 -1 -1</clus>
<clus scale="  115.732">  1  5  2 -1</clus>
<clus scale="   49.527">  1  5  2 -1</clus>
</clustering>
</event>
<event>
 9    2  0.6190160E-005  0.1043353E+03  0.7546771E-02  0.1278472E+00
         -1   -1    0    0    0  501 -0.00000000000E+00  0.00000000000E+00  0.45687050565E+03  0.45687050565E+03  0.00000000000E+00 0.  1.
         21   -1    0    0  501  502  0.00000000000E+00 -0.00000000000E+00 -0.81488574823E+02  0.81488574823E+02  0.00000000000E+00 0. -1.
         23    2    1    2    0    0 -0.14881815177E+02 -0.41237931034E+02  0.40914179198E+03  0.42234423877E+03  0.95160993540E+02 0.  0.
         24    2    1    2    0    0  0.28266664763E+02  0.25323255696E+02 -0.20413504568E+02  0.91305403763E+02  0.80496546334E+02 0.  0.
        -11    1    4    4    0    0  0.26990155960E+02 -0.15085790073E+01  0.26110543641E+02  0.37583305051E+02  0.00000000000E+00 0.  1.
         12    1    4    4    0    0  0.12765088032E+01  0.26831834704E+02 -0.46524048208E+02  0.53722098712E+02  0.00000000000E+00 0. -1.
        -11    1    3    3    0    0 -0.13057834495E+02 -0.72348952856E+02  0.29528380141E+03  0.30429821129E+03  0.00000000000E+00 0.  1.
         11    1    3    3    0    0 -0.18239806827E+01  0.31111021823E+02  0.11385799058E+03  0.11804602747E+03  0.00000000000E+00 0. -1.
         -2    1    1    2    0  502 -0.13384849585E+02  0.15914675337E+02 -0.13346356587E+02  0.24709437947E+02  0.00000000000E+00 0.  1.
<scales pt_clust_5="13000.00000" pt_clust_6="13000.00000" pt_clust_7="13000.00000" pt_clust_8="13000.00000" pt_clust_9="20.79498"></scales>
<clustering>
<clus scale="   20.795">  2  9  1 -1</clus>
<clus scale="   80.497">  5  6 -1 -1</clus>
<clus scale="   91.159">  2  5  1 -1</clus>
<clus scale="   95.161">  7  8 -1 -1</clus>
<clus scale="   20.795">  2  5  1 -1</clus>
</clustering>
</event>
<event>
 9    2  0.6190160E-005  0.1143039E+03  0.7546771E-02  0.1257264E+00
         -3   -1    0    0    0  501 -0.00000000000E+00  0.00000000000E+00  0.43796245755E+03  0.43796245755E+03  0.00000000000E+00 0.  1.
         21   -1    0    0  501  502  0.00000000000E+00 -0.00000000000E+00 -0.67586189500E+02  0.67586189500E+02  0.00000000000E+00 0. -1.
         24    2    1    2    0    0  0.36848542778E+02  0.20261329702E+02  0.85284951169E+02  0.12309780431E+03  0.78174228124E+02 0.  0.
         23    2    1    2    0    0 -0.91208635771E+02 -0.87572515864E+02  0.12165999992E+03  0.19753028992E+03  0.90714381889E+02 0.  0.
        -11    1    3    3    0    0  0.36122650380E+02 -0.23920362862E+02  0.52544219584E+02  0.68102310105E+02  0.00000000000E+00 0.  1.
         12    1    3    3    0    0  0.72589239848E+00  0.44181692565E+02  0.32740731584E+02  0.54995494200E+02  0.00000000000E+00 0. -1.
        -13    1    4    4    0    0 -0.69199349670E+02 -0.51163343602E+01  0.44154006103E+02  0.82245383621E+02  0.00000000000E+00 0.  1.
         13    1    4    4    0    0 -0.22009286101E+02 -0.82456181504E+02  0.77505993813E+02  0.11528490630E+03  0.00000000000E+00 0. -1.
         -4    1    1    2    0  502  0.54360092992E+02  0.67311186162E+02  0.16343131696E+03  0.18492055282E+03  0.00000000000E+00 0.  1.
<scales pt_clust_5="13000.00000" pt_clust_6="13000.00000" pt_clust_7="13000.00000" pt_clust_8="13000.00000" pt_clust_9="86.52065"></scales>
<clustering>
<clus scale="   78.174">  5  6 -1 -1</clus>
<clus scale="   86.521">  2  9  1 -1</clus>
<clus scale="   90.714">  7  8 -1 -1</clus>
<clus scale="  104.630">  1  5  2 -1</clus>
<clus scale="   86.521">  2  5  1 -1</clus>
</clustering>
</event>
<event>
 9    2  0.6190160E-005  0.1133025E+03  0.7546771E-02  0.1261033E+00
         21   -1    0    0  501  502  0.00000000000E+00  0.00000000000E+00  0.12380777960E+03  0.12380777960E+03  0.00000000000E+00 0. -1.
         -1   -1    0    0    0  501 -0.00000000000E+00 -0.00000000000E+00 -0.30926578442E+03  0.30926578442E+03  0.00000000000E+00 0.  1.
         24    2    1    2    0    0 -0.62703812516E+02 -0.14207088366E+02 -0.26064355384E+03  0.27957352528E+03  0.78055649486E+02 0.  0.
         23    2    1    2    0    0  0.40454486465E+02  0.20576854061E+02  0.42259778534E+02  0.11325438324E+03  0.94766523848E+02 0.  0.
        -11    1    3    3    0    0 -0.75061070853E+02 -0.25003634075E+02 -0.24264535646E+03  0.25521777972E+03  0.00000000000E+00 0.  1.
         12    1    3    3    0    0  0.12357258337E+02  0.10796545710E+02 -0.17998197376E+02  0.24355745557E+02  0.00000000000E+00 0. -1.
        -11    1    4    4    0    0 -0.21749121570E+02 -0.17824574755E+02 -0.13139023576E+01  0.28150774299E+02  0.00000000000E+00 0.  1.
         11    1    4    4    0    0  0.62203608034E+02  0.38401428815E+02  0.43573680892E+02  0.85103608937E+02  0.00000000000E+00 0. -1.
         -2    1    1    2    0  502  0.22249326051E+02 -0.63697656949E+01  0.32925770482E+02  0.40245655499E+02  0.00000000000E+00 0.  1.
<scales pt_clust_5="13000.00000" pt_clust_6="13000.00000" pt_clust_7="13000.00000" pt_clust_8="13000.00000" pt_clust_9="23.14317"></scales>
<clustering>
<clus scale="   23.143">  1  9  2 -1</clus>
<clus scale="   78.056">  5  6 -1 -1</clus>
<clus scale="   94.767">  7  8 -1 -1</clus>
<clus scale="   99.747">  2  5  1 -1</clus>
<clus scale="   23.143">  1  5  2 -1</clus>
</clustering>
</event>
<event>
 9    2  0.6190160E-005  0.1418045E+03  0.7546771E-02  0.1211286E+00
          2   -1    0    0  502    0 -0.00000000000E+00  0.00000000000E+00  0.89146878349E+03  0.89146878349E+03  0.00000000000E+00 0. -1.
         21   -1    0    0  501  502  0.00000000000E+00 -0.00000000000E+00 -0.61750947732E+02  0.61750947732E+02  0.00000000000E+00 0.  1.
         24    2    1    2    0    0  0.10165137445E+03  0.42013029427E+02  0.58847095411E+03  0.60528325833E+03  0.89284166647E+02 0.  0.
         23    2    1    2    0    0 -0.80432912829E+02 -0.76857640272E+02  0.26446273578E+03  0.30099666142E+03  0.91004951703E+02 0.  0.
        -13    1    3    3    0    0  0.13509318027E+02  0.37454278025E+02  0.81720064564E+02  0.90903759924E+02  0.00000000000E+00 0.  1.
         14    1    3    3    0    0  0.88142056421E+02  0.45587514017E+01  0.50675088954E+03  0.51437949840E+03  0.00000000000E+00 0. -1.
        -11    1    4    4    0    0 -0.26603045172E+01 -0.51821778563E+02  0.16104967649E+03  0.16920275486E+03  0.00000000000E+00 0. -1.
         11    1    4    4    0    0 -0.77772608311E+02 -0.25035861709E+02  0.10341305929E+03  0.13179390656E+03  0.00000000000E+00 0.  1.
          1    1    1    2  501    0 -0.21218461619E+02  0.34844610846E+02 -0.23215854129E+02  0.46939811476E+02  0.00000000000E+00 0. -1.
<scales pt_clust_5="13000.00000" pt_clust_6="13000.00000" pt_clust_7="13000.00000" pt_clust_8="13000.00000" pt_clust_9="40.79669"></scales>
<clustering>
<clus scale="   40.797">  2  9  1 -1</clus>
<clus scale="   89.284">  5  6 -1 -1</clus>
<clus scale="   91.005">  7  8 -1 -1</clus>
<clus scale="  140.706">  1  5  2 -1</clus>
<clus scale="   40.797">  2  5  1 -1</clus>
</clustering>
</event>
<event>
 9    2  0.6190160E-005  0.9464226E+02  0.7546771E-02  0.1299163E+00
         21   -1    0    0  501  502  0.00000000000E+00  0.00000000000E+00  0.54037268312E+02  0.54037268312E+02  0.00000000000E+00 0.  1.
         -1   -1    0    0    0  501 -0.00000000000E+00 -0.00000000000E+00 -0.28999169176E+03  0.28999169176E+03  0.00000000000E+00 0.  1.
         24    2    1    2    0    0 -0.12865483926E+01  0.26042450142E+02 -0.17797550638E+03  0.19726475115E+03  0.80982941167E+02 0.  0.
         23    2    1    2    0    0 -0.14603586283E+02  0.10631433209E+02 -0.43254135273E+02  0.10416973394E+03  0.93027528967E+02 0.  0.
        -11    1    3    3    0    0 -0.11834854568E+02  0.47686286356E+02 -0.15955642051E+03  0.16694998357E+03  0.00000000000E+00 0.  1.
         12    1    3    3    0    0  0.10548306175E+02 -0.21643836214E+02 -0.18419085876E+02  0.30314767585E+02  0.00000000000E+00 0. -1.
        -13    1    4    4    0    0 -0.45687052249E+02 -0.15904126036E+02 -0.57796121166E+01  0.48720138386E+02  0.00000000000E+00 0.  1.
         13    1    4    4    0    0  0.31083465965E+02  0.26535559246E+02 -0.37474523157E+02  0.55449595551E+02  0.00000000000E+00 0. -1.
         -2    1    1    2    0  502  0.15890134676E+02 -0.36673883351E+02 -0.14724781794E+02  0.42594474982E+02  0.00000000000E+00 0.  1.
<scales pt_clust_5="13000.00000" pt_clust_6="13000.00000" pt_clust_7="13000.00000" pt_clust_8="13000.00000" pt_clust_9="39.96836"></scales>
<clustering>
<clus scale="   39.968">  1  9  2 -1</clus>
<clus scale="   80.983">  5  6 -1 -1</clus>
<clus scale="   82.833">  2  5  1 -1</clus>
<clus scale="   93.028">  7  8 -1 -1</clus>
<clus scale="   39.968">  1  5  2 -1</clus>
</clustering>
</event>
<event>
 9    2  0.6190160E-005  0.1052009E+03  0.7546771E-02  0.1275413E+00
          2   -1    0    0  502    0 -0.00000000000E+00  0.00000000000E+00  0.16213461527E+03  0.16213461527E+03  0.00000000000E+00 0. -1.
         21   -1    0    0  501  502  0.00000000000E+00 -0.00000000000E+00 -0.13314383955E+03  0.13314383955E+03  0.00000000000E+00 0. -1.
         24    2    1    2    0    0 -0.43984796387E+02 -0.68400195778E+02  0.56934790266E+02  0.12683629960E+03  0.78946991445E+02 0.  0.
         23    2    1    2    0    0  0.38312836268E+01  0.14675992283E+02  0.62362264279E+01  0.93163449727E+02  0.91708638422E+02 0.  0.
        -13    1    3    3    0    0 -0.29336041854E+02 -0.37181949129E+02 -0.12783092081E+02  0.49056173270E+02  0.00000000000E+00 0.  1.
         14    1    3    3    0    0 -0.14648754533E+02 -0.31218246649E+02  0.69717882347E+02  0.77780126332E+02  0.00000000000E+00 0. -1.
        -13    1    4    4    0    0 -0.28932406881E+02  0.26309217366E+02  0.31476543663E+02  0.50199919196E+02  0.00000000000E+00 0.  1.
         13    1    4    4    0    0  0.32763690508E+02 -0.11633225083E+02 -0.25240317235E+02  0.42963530531E+02  0.00000000000E+00 0. -1.
          1    1    1    2  501    0  0.40153512761E+02  0.53724203495E+02 -0.34180240967E+02  0.75278705493E+02  0.00000000000E+00 0. -1.
<scales pt_clust_5="13000.00000" pt_clust_6="13000.00000" pt_clust_7="13000.00000" pt_clust_8="13000.00000" pt_clust_9="67.07156"></scales>
<clustering>
<clus scale="   67.072">  2  9  1 -1</clus>
<clus scale="   78.947">  5  6 -1 -1</clus>
<clus scale="   91.709">  7  8 -1 -1</clus>
<clus scale="   94.283">  1  5  2 -1</clus>
<clus scale="   67.072">  2  5  1 -1</clus>
</clustering>
</event>
<event>
 9    2  0.6190160E-005  0.1563072E+03  0.7546771E-02  0.1195278E+00
         21   -1    0    0  501  502  0.00000000000E+00  0.00000000000E+00  0.79714475560E+03  0.79714475560E+03  0.00000000000E+00 0. -1.
         -3   -1    0    0    0  501 -0.00000000000E+00 -0.00000000000E+00 -0.76520723570E+02  0.76520723570E+02  0.00000000000E+00 0.  1.
         24    2    1    2    0    0 -0.12036084752E+03 -0.49929246422E+02  0.35890116204E+02  0.15725853664E+03  0.80389574215E+02 0.  0.
         23    2    1    2    0    0  0.68468354386E+02  0.68075954479E+02  0.60311789472E+03  0.61800313794E+03  0.94097993789E+02 0.  0.
        -11    1    3    3    0    0 -0.13151006037E+03 -0.38750010990E+02  0.34710763439E+02  0.14142593973E+03  0.00000000000E+00 0.  1.
         12    1    3    3    0    0  0.11149212851E+02 -0.11179235432E+02  0.11793527657E+01  0.15832596913E+02  0.00000000000E+00 0. -1.
        -13    1    4    4    0    0 -0.23677416688E+02  0.15430510114E+02  0.10771685441E+03  0.11136265724E+03  0.00000000000E+00 0.  1.
         13    1    4    4    0    0  0.92145771074E+02  0.52645444365E+02  0.49540104032E+03  0.50664048070E+03  0.00000000000E+00 0. -1.
         -4    1    1    2    0  502  0.51892493132E+02 -0.18146708057E+02  0.81616021099E+02  0.98403804585E+02  0.00000000000E+00 0.  1.
<scales pt_clust_5="13000.00000" pt_clust_6="13000.00000" pt_clust_7="13000.00000" pt_clust_8="13000.00000" pt_clust_9="54.97394"></scales>
<clustering>
<clus scale="   54.974">  1  9  2 -1</clus>
<clus scale="   80.390">  5  6 -1 -1</clus>
<clus scale="   94.098">  7  8 -1 -1</clus>
<clus scale="  148.459">  2  5  1 -1</clus>
<clus scale="   54.974">  1  5  2 -1</clus>
</clustering>
</event>
<event>
 9    2  0.6190160E-005  0.2140643E+03  0.7546771E-02  0.1144679E+00
          2   -1    0    0  502    0 -0.00000000000E+00  0.00000000000E+00  0.96231554200E+03  0.96231554200E+03  0.00000000000E+00 0. -1.
         21   -1    0    0  501  502  0.00000000000E+00 -0.00000000000E+00 -0.13563483980E+03  0.13563483980E+03  0.00000000000E+00 0.  1.
         23    2    1    2    0    0  0.15716462817E+03 -0.13423991488E+02  0.21080708148E+03  0.27981392376E+03  0.94737967228E+02 0.  0.
         24    2    1    2    0    0  0.12336444198E+03  0.12377912584E+03  0.91682111604E+02  0.21344517060E+03  0.81321422327E+02 0.  0.
        -13    1    4    4    0    0  0.80647687904E+02  0.70362546875E+02  0.10876125116E+02  0.10757893690E+03  0.00000000000E+00 0.  1.
         14    1    4    4    0    0  0.42716754073E+02  0.53416578961E+02  0.80805986488E+02  0.10586623370E+03  0.00000000000E+00 0. -1.
        -11    1    3    3    0    0  0.44066070146E+02 -0.40009984995E+02  0.11393508503E+03  0.12854501561E+03  0.00000000000E+00 0. -1.
         11    1    3    3    0    0  0.11309855802E+03  0.26585993507E+02  0.96871996445E+02  0.15126890815E+03  0.00000000000E+00 0.  1.
          1    1    1    2  501    0 -0.28052907014E+03 -0.11035513435E+03  0.52419150912E+03  0.60469128744E+03  0.00000000000E+00 0. -1.
<scales pt_clust_5="13000.00000" pt_clust_6="13000.00000" pt_clust_7="13000.00000" pt_clust_8="13000.00000" pt_clust_9="198.01619"></scales>
<clustering>
<clus scale="   81.321">  5  6 -1 -1</clus>
<clus scale="   94.738">  7  8 -1 -1</clus>
<clus scale="  184.001">  1  7  2 -1</clus>
<clus scale="  198.016">  2  9  1 -1</clus>
<clus scale="  198.016">  2  5  1 -1</clus>
</clustering>
</event>
<event>
 9    2  0.6190160E-005  0.1225382E+03  0.7546771E-02  0.1242423E+00
         21   -1    0    0  501  502  0.00000000000E+00  0.00000000000E+00  0.23472175513E+02  0.23472175513E+02  0.00000000000E+00 0.  1.
          2   -1    0    0  502    0 -0.00000000000E+00 -0.00000000000E+00 -0.13924638267E+04  0.13924638267E+04  0.00000000000E+00 0. -1.
         24    2    1    2    0    0 -0.24730327154E+02 -0.73060306702E+02 -0.83229940104E+03  0.83960787091E+03  0.79181351414E+02 0.  0.
         23    2    1    2    0    0 -0.25904110289E+02  0.11177749584E+03 -0.37095411872E+03  0.39875562444E+03  0.90740610088E+02 0.  0.
        -11    1    3    3    0    0 -0.24401133757E+01 -0.73588325583E+02 -0.39909288374E+03  0.40582795082E+03  0.00000000000E+00 0.  1.
         12    1    3    3    0    0 -0.22290213778E+02  0.52801888110E+00 -0.43320651730E+03  0.43377992008E+03  0.00000000000E+00 0. -1.
        -11    1    4    4    0    0  0.15003856806E+02  0.66320553182E+02 -0.28666459254E+03  0.29461860109E+03  0.00000000000E+00 0. -1.
         11    1    4    4    0    0 -0.40907967095E+02  0.45456942655E+02 -0.84289526181E+02  0.10413702335E+03  0.00000000000E+00 0.  1.
          1    1    1    2  501    0  0.50634437443E+02 -0.38717189135E+02 -0.16573813146E+03  0.17757250691E+03  0.00000000000E+00 0. -1.
<scales pt_clust_5="13000.00000" pt_clust_6="13000.00000" pt_clust_7="13000.00000" pt_clust_8="13000.00000" pt_clust_9="63.74062"></scales>
<clustering>
<clus scale="   63.741">  1  9  2 -1</clus>
<clus scale="   79.181">  5  6 -1 -1</clus>
<clus scale="   90.741">  7  8 -1 -1</clus>
<clus scale="  114.243">  2  5  1 -1</clus>
<clus scale="   63.741">  1  5  2 -1</clus>
</clustering>
</event>
<event>
 9    2  0.6190160E-005  0.1058702E+03  0.7546771E-02  0.1273813E+00
          2   -1    0    0  502    0 -0.00000000000E+00  0.00000000000E+00  0.57217816935E+03  0.57217816935E+03  0.00000000000E+00 0. -1.
         21   -1    0    0  501  502  0.00000000000E+00 -0.00000000000E+00 -0.29748160665E+02  0.29748160665E+02  0.00000000000E+00 0. -1.
         24    2    1    2    0    0  0.69663818344E+01 -0.19745286631E+02  0.34707044343E+03  0.36224011648E+03  0.10159528760E+03 0.  0.
         23    2    1    2    0    0  0.63286743402E+01  0.51506599004E+02  0.14607829235E+03  0.17956813521E+03  0.90624863190E+02 0.  0.
        -11    1    3    3    0    0 -0.67864815325E+00 -0.61350516008E+02  0.21212817020E+03  0.22082279540E+03  0.00000000000E+00 0.  1.
         12    1    3    3    0    0  0.76450299876E+01  0.41605229378E+02  0.13494227323E+03  0.14141732108E+03  0.00000000000E+00 0. -1.
        -11    1    4    4    0    0 -0.26609748326E+02  0.49254083599E+02  0.13255248332E+03  0.14388955588E+03  0.00000000000E+00 0. -1.
         11    1    4    4    0    0  0.32938422666E+02  0.22525154056E+01  0.13525809031E+02  0.35678579334E+02  0.00000000000E+00 0.  1.
          1    1    1    2  501    0 -0.13295056175E+02 -0.31761312374E+02  0.49281272908E+02  0.60118078328E+02  0.00000000000E+00 0. -1.
<scales pt_clust_5="13000.00000" pt_clust_6="13000.00000" pt_clust_7="13000.00000" pt_clust_8="13000.00000" pt_clust_9="34.43166"></scales>
<clustering>
<clus scale="   34.432">  2  9  1 -1</clus>
<clus scale="   90.625">  7  8 -1 -1</clus>
<clus scale="   95.393">  2  7  1 -1</clus>
<clus scale="  101.595">  5  6 -1 -1</clus>
<clus scale="   34.432">  2  5  1 -1</clus>
</clustering>
</event>
<event>
 9    2  0.6190160E-005  0.1488885E+03  0.7546771E-02  0.1205827E+00
         21   -1    0    0  501  502  0.00000000000E+00  0.00000000000E+00  0.15819694617E+03  0.15819694617E+03  0.00000000000E+00 0.  1.
          2   -1    0    0  502    0 -0.00000000000E+00 -0.00000000000E+00 -0.45176715263E+03  0.45176715263E+03  0.00000000000E+00 0. -1.
         23    2    1    2    0    0 -0.51009704501E+02  0.86852696224E+02 -0.34764977385E+03  0.37349790366E+03  0.92167987867E+02 0.  0.
         24    2    1    2    0    0  0.84028794131E+02 -0.67106040087E+02 -0.18221423880E+02  0.15456610938E+03  0.10951987501E+03 0.  0.
        -13    1    4    4    0    0  0.99389486154E+02 -0.17888014339E+02 -0.39303674041E+01  0.10106284581E+03  0.00000000000E+00 0.  1.
         14    1    4    4    0    0 -0.15360692023E+02 -0.49218025748E+02 -0.14291056476E+02  0.53503263575E+02  0.00000000000E+00 0. -1.
        -11    1    3    3    0    0  0.70441436741E+01  0.46481782956E+02 -0.24095568317E+03  0.24549911885E+03  0.00000000000E+00 0. -1.
         11    1    3    3    0    0 -0.58053848175E+02  0.40370913268E+02 -0.10669409068E+03  0.12799878481E+03  0.00000000000E+00 0.  1.
          1    1    1    2  501    0 -0.33019089630E+02 -0.19746656136E+02  0.72300991272E+02  0.81900085760E+02  0.00000000000E+00 0. -1.
<scales pt_clust_5="13000.00000" pt_clust_6="13000.00000" pt_clust_7="13000.00000" pt_clust_8="13000.00000" pt_clust_9="38.47325"></scales>
<clustering>
<clus scale="   38.473">  1  9  2 -1</clus>
<clus scale="   92.168">  7  8 -1 -1</clus>
<clus scale="  109.520">  5  6 -1 -1</clus>
<clus scale="  136.631">  2  7  1 -1</clus>
<clus scale="   38.473">  1  5  2 -1</clus>
</clustering>
</event>
<event>
 9    2  0.6190160E-005  0.1053848E+03  0.7546771E-02  0.1276269E+00
         21   -1    0    0  501  502  0.00000000000E+00  0.00000000000E+00  0.24974636529E+03  0.24974636529E+03  0.00000000000E+00 0. -1.
          4   -1    0    0  502    0 -0.00000000000E+00 -0.00000000000E+00 -0.11051143968E+03  0.11051143968E+03  0.00000000000E+00 0. -1.
         23    2    1    2    0    0  0.43775704161E+02  0.16199528417E+02 -0.29873299392E+02  0.11069661980E+03  0.95825834835E+02 0.  0.
         24    2    1    2    0    0 -0.43845618960E+02  0.58185271091E+02  0.97188421617E+02  0.14609350228E+03  0.81177324649E+02 0.  0.
        -13    1    4    4    0    0 -0.33681545488E+02 -0.28787561319E+01  0.37532915213E+01  0.34012070513E+02  0.00000000000E+00 0.  1.
         14    1    4    4    0    0 -0.10164073472E+02  0.61064027223E+02  0.93435130095E+02  0.11208143176E+03  0.00000000000E+00 0. -1.
        -11    1    3    3    0    0  0.13452454719E+02 -0.20594891038E+02  0.26970639738E+02  0.36503883119E+02  0.00000000000E+00 0.  1.
         11    1    3    3    0    0  0.30323249442E+02  0.36794419456E+02 -0.56843939130E+02  0.74192736677E+02  0.00000000000E+00 0. -1.
          3    1    1    2  501    0  0.69914799600E-01 -0.74384799508E+02  0.71919803384E+02  0.10346768290E+03  0.00000000000E+00 0. -1.
<scales pt_clust_5="13000.00000" pt_clust_6="13000.00000" pt_clust_7="13000.00000" pt_clust_8="13000.00000" pt_clust_9="74.38483"></scales>
<clustering>
<clus scale="   74.385">  1  9  2 -1</clus>
<clus scale="   81.177">  5  6 -1 -1</clus>
<clus scale="   92.267">  1  5  2 -1</clus>
<clus scale="   95.826">  7  8 -1 -1</clus>
<clus scale="   74.385">  1  5  2 -1</clus>
</clustering>
</event>
<event>
 9    2  0.6190160E-005  0.1417005E+03  0.7546771E-02  0.1213937E+00
          2   -1    0    0  502    0 -0.00000000000E+00  0.00000000000E+00  0.21389266489E+03  0.21389266489E+03  0.00000000000E+00 0. -1.
         21   -1    0    0  501  502  0.00000000000E+00 -0.00000000000E+00 -0.74181678745E+03  0.74181678745E+03  0.00000000000E+00 0. -1.
         24    2    1    2    0    0  0.21953427784E+02 -0.11897658620E+03  0.15886905532E+03  0.21414766452E+03  0.77346392460E+02 0.  0.
         23    2    1    2    0    0  0.20250607177E+02  0.58167924002E+02 -0.95446712074E+02  0.14560078525E+03  0.91081937545E+02 0.  0.
        -11    1    3    3    0    0  0.52554153150E+01 -0.81007262012E+02  0.44686050680E+02  0.92664119346E+02  0.00000000000E+00 0.  1.
         12    1    3    3    0    0  0.16698012469E+02 -0.37969324187E+02  0.11418300464E+03  0.12148354518E+03  0.00000000000E+00 0. -1.
        -11    1    4    4    0    0  0.42489845033E+02 -0.32548623115E+00 -0.18299142489E+02  0.46263932907E+02  0.00000000000E+00 0. -1.
         11    1    4    4    0    0 -0.22239237856E+02  0.58493410234E+02 -0.77147569585E+02  0.99336852346E+02  0.00000000000E+00 0.  1.
          1    1    1    2  501    0 -0.42204034961E+02  0.60808662196E+02 -0.59134646580E+03  0.59596100256E+03  0.00000000000E+00 0. -1.
<scales pt_clust_5="13000.00000" pt_clust_6="13000.00000" pt_clust_7="13000.00000" pt_clust_8="13000.00000" pt_clust_9="74.01942"></scales>
<clustering>
<clus scale="   74.019">  2  9  1 -1</clus>
<clus scale="   77.346">  5  6 -1 -1</clus>
<clus scale="   91.082">  7  8 -1 -1</clus>
<clus scale="  133.288">  1  5  2 -1</clus>
<clus scale="   74.019">  2  5  1 -1</clus>
</clustering>
</event>
<event>
 9    2  0.6190160E-005  0.9249543E+02  0.7546771E-02  0.1307487E+00
         21   -1    0    0  501  502  0.00000000000E+00  0.00000000000E+00  0.29203494976E+03  0.29203494976E+03  0.00000000000E+00 0.  1.
         -1   -1    0    0    0  501 -0.00000000000E+00 -0.00000000000E+00 -0.58572512845E+02  0.58572512845E+02  0.00000000000E+00 0.  1.
         24    2    1    2    0    0 -0.22910686242E+02  0.81014103802E+01  0.18489186044E+02  0.79729425426E+02  0.73650518558E+02 0.  0.
         23    2    1    2    0    0  0.66972673906E+01  0.42779778300E+02  0.89046654304E+02  0.13409617422E+03  0.90429610609E+02 0.  0.
        -11    1    3    3    0    0 -0.89370794538E+00  0.36340551959E+02 -0.53053945822E+01  0.36736652573E+02  0.00000000000E+00 0.  1.
         12    1    3    3    0    0 -0.22016978296E+02 -0.28239141579E+02  0.23794580626E+02  0.42992772853E+02  0.00000000000E+00 0. -1.
        -13    1    4    4    0    0 -0.40743401964E+02  0.23719805281E+02  0.56074406313E+02  0.73259763920E+02  0.00000000000E+00 0.  1.
         13    1    4    4    0    0  0.47440669355E+02  0.19059973019E+02  0.32972247991E+02  0.60836410297E+02  0.00000000000E+00 0. -1.
         -2    1    1    2    0  502  0.16213418851E+02 -0.50881188680E+02  0.12592659656E+03  0.13678186296E+03  0.00000000000E+00 0.  1.
<scales pt_clust_5="13000.00000" pt_clust_6="13000.00000" pt_clust_7="13000.00000" pt_clust_8="13000.00000" pt_clust_9="53.40197"></scales>
<clustering>
<clus scale="   53.402">  1  9  2 -1</clus>
<clus scale="   73.651">  5  6 -1 -1</clus>
<clus scale="   76.173">  2  5  1 -1</clus>
<clus scale="   90.430">  7  8 -1 -1</clus>
<clus scale="   53.402">  1  5  2 -1</clus>
</clustering>
</event>
<event>
 9    2  0.6190160E-005  0.9893508E+02  0.7546771E-02  0.1291493E+00
         21   -1    0    0  501  502  0.00000000000E+00  0.00000000000E+00  0.17395583313E+03  0.17395583313E+03  0.00000000000E+00 0.  1.
          2   -1    0    0  502    0 -0.00000000000E+00 -0.00000000000E+00 -0.83281509891E+02  0.83281509891E+02  0.00000000000E+00 0. -1.
         24    2    1    2    0    0  0.41970819732E+01  0.41868411321E+02 -0.22741948519E+02  0.89583544131E+02  0.75745863207E+02 0.  0.
         23    2    1    2    0    0 -0.10626224718E+02 -0.14186013371E+02  0.77684300966E+02  0.12199831982E+03  0.92382789494E+02 0.  0.
        -11    1    3    3    0    0 -0.14017964755E+02  0.46216113363E+02  0.12312955610E+02  0.49840157966E+02  0.00000000000E+00 0.  1.
         12    1    3    3    0    0  0.18215046728E+02 -0.43477020419E+01 -0.35054904129E+02  0.39743386165E+02  0.00000000000E+00 0. -1.
        -11    1    4    4    0    0 -0.46297878712E+02 -0.28183043892E+02  0.56151095437E+02  0.78043084607E+02  0.00000000000E+00 0.  1.
         11    1    4    4    0    0  0.35671653994E+02  0.13997030520E+02  0.21533205529E+02  0.43955235210E+02  0.00000000000E+00 0. -1.
          1    1    1    2  501    0  0.64291427449E+01 -0.27682397950E+02  0.35731970796E+02  0.45655479076E+02  0.00000000000E+00 0. -1.
<scales pt_clust_5="13000.00000" pt_clust_6="13000.00000" pt_clust_7="13000.00000" pt_clust_8="13000.00000" pt_clust_9="28.41917"></scales>
<clustering>
<clus scale="   28.419">  1  9  2 -1</clus>
<clus scale="   75.746">  5  6 -1 -1</clus>
<clus scale="   83.612">  2  5  1 -1</clus>
<clus scale="   92.383">  7  8 -1 -1</clus>
<clus scale="   28.419">  1  5  2 -1</clus>
</clustering>
</event>
<event>
 9    2  0.6190160E-005  0.9358041E+02  0.7546771E-02  0.1304579E+00
         -1   -1    0    0    0  501 -0.00000000000E+00  0.00000000000E+00  0.29812949091E+03  0.29812949091E+03  0.00000000000E+00 0.  1.
         21   -1    0    0  501  502  0.00000000000E+00 -0.00000000000E+00 -0.20937020372E+03  0.20937020372E+03  0.00000000000E+00 0.  1.
         23    2    1    2    0    0 -0.91230666968E+01  0.19444003455E+02  0.25906207233E+03  0.27566656989E+03  0.91747483988E+02 0.  0.
         24    2    1    2    0    0 -0.18934727939E+02 -0.64817661388E+01 -0.22936358679E+02  0.81260474213E+02  0.75343552515E+02 0.  0.
        -13    1    4    4    0    0 -0.24240919896E+02  0.25569897864E+02 -0.31931121943E+02  0.47550377735E+02  0.00000000000E+00 0.  1.
         14    1    4    4    0    0  0.53061919572E+01 -0.32051664003E+02  0.89947632643E+01  0.33710096479E+02  0.00000000000E+00 0. -1.
        -13    1    3    3    0    0  0.39949879072E+02 -0.23108262503E+01  0.96380302985E+02  0.10435753715E+03  0.00000000000E+00 0. -1.
         13    1    3    3    0    0 -0.49072945769E+02  0.21754829705E+02  0.16268176935E+03  0.17130903275E+03  0.00000000000E+00 0.  1.
         -2    1    1    2    0  502  0.28057794636E+02 -0.12962237316E+02 -0.14736642646E+03  0.15057265052E+03  0.00000000000E+00 0.  1.
<scales pt_clust_5="13000.00000" pt_clust_6="13000.00000" pt_clust_7="13000.00000" pt_clust_8="13000.00000" pt_clust_9="30.90727"></scales>
<clustering>
<clus scale="   30.907">  2  9  1 -1</clus>
<clus scale="   75.344">  5  6 -1 -1</clus>
<clus scale="   77.565">  2  5  1 -1</clus>
<clus scale="   91.747">  7  8 -1 -1</clus>
<clus scale="   30.907">  2  5  1 -1</clus>
</clustering>
</event>
<event>
 9    2  0.6190160E-005  0.1202598E+03  0.7546771E-02  0.1246896E+00
         21   -1    0    0  501  502  0.00000000000E+00  0.00000000000E+00  0.26073062305E+03  0.26073062305E+03  0.00000000000E+00 0.  1.
         -1   -1    0    0    0  501 -0.00000000000E+00 -0.00000000000E+00 -0.19509577106E+03  0.19509577106E+03  0.00000000000E+00 0.  1.
         24    2    1    2    0    0  0.63398067256E+02 -0.35520330708E+02 -0.14449737832E+03  0.18106494415E+03  0.81388038633E+02 0.  0.
         23    2    1    2    0    0 -0.89916532983E+02  0.42431087045E+02  0.20546580920E+03  0.24696283373E+03  0.94281824569E+02 0.  0.
        -11    1    3    3    0    0  0.68221317352E+02 -0.37550622909E+02 -0.15265664907E+03  0.17137167189E+03  0.00000000000E+00 0.  1.
         12    1    3    3    0    0 -0.48232500961E+01  0.20302922013E+01  0.81592707474E+01  0.96932722567E+01  0.00000000000E+00 0. -1.
        -11    1    4    4    0    0 -0.93185461063E+02  0.64925949752E+02  0.17992157763E+03  0.21276908423E+03  0.00000000000E+00 0.  1.
         11    1    4    4    0    0  0.32689280800E+01 -0.22494862707E+02  0.25544231569E+02  0.34193749509E+02  0.00000000000E+00 0. -1.
         -2    1    1    2    0  502  0.26518465727E+02 -0.69107563374E+01  0.46664211129E+01  0.27798616219E+02  0.00000000000E+00 0.  1.
<scales pt_clust_5="13000.00000" pt_clust_6="13000.00000" pt_clust_7="13000.00000" pt_clust_8="13000.00000" pt_clust_9="27.40415"></scales>
<clustering>
<clus scale="   27.404">  1  9  2 -1</clus>
<clus scale="   81.388">  5  6 -1 -1</clus>
<clus scale="   94.282">  7  8 -1 -1</clus>
<clus scale="  110.442">  2  5  1 -1</clus>
<clus scale="   27.404">  1  5  2 -1</clus>
</clustering>
</event>
<event>
 9    2  0.6190160E-005  0.1116491E+03  0.7546771E-02  0.1263752E+00
         21   -1    0    0  501  502  0.00000000000E+00  0.00000000000E+00  0.95993048886E+03  0.95993048886E+03  0.00000000000E+00 0. -1.
          4   -1    0    0  502    0 -0.00000000000E+00 -0.00000000000E+00 -0.45365787217E+02  0.45365787217E+02  0.00000000000E+00 0. -1.
         23    2    1    2    0    0 -0.47099993960E+02 -0.11694012947E+02  0.51692123669E+02  0.11950963998E+03  0.96204568651E+02 0.  0.
         24    2    1    2    0    0  0.95160094168E+02  0.50015078927E+02  0.50272276890E+03  0.52042905466E+03  0.80989301337E+02 0.  0.
        -13    1    4    4    0    0  0.38528155973E+02  0.53788892235E+02  0.37315114174E+03  0.37897155343E+03  0.00000000000E+00 0.  1.
         14    1    4    4    0    0  0.56631938196E+02 -0.37738133083E+01  0.12957162716E+03  0.14145750123E+03  0.00000000000E+00 0. -1.
        -13    1    3    3    0    0 -0.40805189134E+02 -0.43835120525E+02  0.19082659399E+01  0.59918467359E+02  0.00000000000E+00 0. -1.
         13    1    3    3    0    0 -0.62948048252E+01  0.32141107578E+02  0.49783857729E+02  0.59591172623E+02  0.00000000000E+00 0.  1.
          3    1    1    2  501    0 -0.48060100209E+02 -0.38321065979E+02  0.36014980907E+03  0.36535758143E+03  0.00000000000E+00 0. -1.
<scales pt_clust_5="13000.00000" pt_clust_6="13000.00000" pt_clust_7="13000.00000" pt_clust_8="13000.00000" pt_clust_9="61.46769"></scales>
<clustering>
<clus scale="   61.468">  1  9  2 -1</clus>
<clus scale="   80.989">  5  6 -1 -1</clus>
<clus scale="   96.205">  7  8 -1 -1</clus>
<clus scale="   98.841">  1  5  2 -1</clus>
<clus scale="   61.468">  1  5  2 -1</clus>
</clustering>
</event>
<event>
 9    2  0.6190160E-005  0.9639058E+02  0.7546771E-02  0.1293709E+00
         21   -1    0    0  501  502  0.00000000000E+00  0.00000000000E+00  0.18165249996E+03  0.18165249996E+03  0.00000000000E+00 0. -1.
          4   -1    0    0  502    0 -0.00000000000E+00 -0.00000000000E+00 -0.10326788260E+03  0.10326788260E+03  0.00000000000E+00 0. -1.
         24    2    1    2    0    0  0.16472840567E+01  0.25422021650E+02  0.19271607241E+01  0.85108524395E+02  0.81183460426E+02 0.  0.
         23    2    1    2    0    0 -0.26845545247E+00 -0.46504058563E+02  0.11608617234E+03  0.15490318910E+03  0.91412794802E+02 0.  0.
        -11    1    3    3    0    0 -0.33985498213E+02  0.26378870825E+02 -0.15113512264E+02  0.45599091743E+02  0.00000000000E+00 0.  1.
         12    1    3    3    0    0  0.35632782270E+02 -0.95684917521E+00  0.17040672988E+02  0.39509432653E+02  0.00000000000E+00 0. -1.
        -13    1    4    4    0    0  0.15647887147E+02 -0.71347511060E+02  0.83845304687E+02  0.11119963500E+03  0.00000000000E+00 0.  1.
         13    1    4    4    0    0 -0.15916342600E+02  0.24843452497E+02  0.32240867654E+02  0.43703554098E+02  0.00000000000E+00 0. -1.
          3    1    1    2  501    0 -0.13788286042E+01  0.21082036913E+02 -0.39628715700E+02  0.44908669060E+02  0.00000000000E+00 0. -1.
<scales pt_clust_5="13000.00000" pt_clust_6="13000.00000" pt_clust_7="13000.00000" pt_clust_8="13000.00000" pt_clust_9="21.12709"></scales>
<clustering>
<clus scale="   21.127">  1  9  2 -1</clus>
<clus scale="   81.183">  5  6 -1 -1</clus>
<clus scale="   86.750">  2  5  1 -1</clus>
<clus scale="   91.413">  7  8 -1 -1</clus>
<clus scale="   21.127">  1  5  2 -1</clus>
</clustering>
</event>
<event>
 9    2  0.6190160E-005  0.9804862E+02  0.7546771E-02  0.1290383E+00
         21   -1    0    0  501  502  0.00000000000E+00  0.00000000000E+00  0.18870648757E+02  0.18870648757E+02  0.00000000000E+00 0.  1.
          2   -1    0    0  502    0 -0.00000000000E+00 -0.00000000000E+00 -0.83290039956E+03  0.83290039956E+03  0.00000000000E+00 0. -1.
         23    2    1    2    0    0 -0.13923165151E+02 -0.27409149185E+02 -0.40581162070E+03  0.41697925187E+03  0.90793771878E+02 0.  0.
         24    2    1    2    0    0 -0.11716522971E+02  0.55657599239E+02 -0.19438910016E+03  0.21758631174E+03  0.79508713565E+02 0.  0.
        -11    1    4    4    0    0 -0.43131132393E+00  0.63977148420E+02 -0.80452881410E+02  0.10279069840E+03  0.00000000000E+00 0.  1.
         12    1    4    4    0    0 -0.11285211647E+02 -0.83195491816E+01 -0.11393621875E+03  0.11479561335E+03  0.00000000000E+00 0. -1.
        -11    1    3    3    0    0  0.26512566981E+02 -0.43190475179E+02 -0.17822331589E+03  0.18528864963E+03  0.00000000000E+00 0. -1.
         11    1    3    3    0    0 -0.40435732131E+02  0.15781325994E+02 -0.22758830481E+03  0.23169060224E+03  0.00000000000E+00 0.  1.
          1    1    1    2  501    0  0.25639688121E+02 -0.28248450054E+02 -0.21382902995E+03  0.21720548470E+03  0.00000000000E+00 0. -1.
<scales pt_clust_5="13000.00000" pt_clust_6="13000.00000" pt_clust_7="13000.00000" pt_clust_8="13000.00000" pt_clust_9="38.14931"></scales>
<clustering>
<clus scale="   38.149">  1  9  2 -1</clus>
<clus scale="   79.509">  5  6 -1 -1</clus>
<clus scale="   87.702">  1  5  2 -1</clus>
<clus scale="   90.794">  7  8 -1 -1</clus>
<clus scale="   38.149">  1  5  2 -1</clus>
</clustering>
</event>
<event>
 9    2  0.6190160E-005  0.2002652E+03  0.7546771E-02  0.1150432E+00
          2   -1    0    0  502    0 -0.00000000000E+00  0.00000000000E+00  0.90582104304E+03  0.90582104304E+03  0.00000000000E+00 0. -1.
         21   -1    0    0  501  502  0.00000000000E+00 -0.00000000000E+00 -0.12046477174E+03  0.12046477174E+03  0.00000000000E+00 0.  1.
         24    2    1    2    0    0 -0.16678952940E+03  0.24716835451E+02  0.64435814682E+03  0.67094969330E+03  0.80909829430E+02 0.  0.
         23    2    1    2    0    0  0.22580836631E+03 -0.54457035678E+02  0.14609869013E+03  0.28905099200E+03  0.90833153011E+02 0.  0.
        -13    1    3    3    0    0 -0.12958333621E+02 -0.20753282870E+02  0.55903297791E+02  0.61022912615E+02  0.00000000000E+00 0.  1.
         14    1    3    3    0    0 -0.15383119578E+03  0.45470118321E+02  0.58845484903E+03  0.60992678068E+03  0.00000000000E+00 0. -1.
        -11    1    4    4    0    0  0.12313395281E+03 -0.85747889326E+01  0.29198718466E+02  0.12683872634E+03  0.00000000000E+00 0.  1.
         11    1    4    4    0    0  0.10267441350E+03 -0.45882246745E+02  0.11689997166E+03  0.16221226566E+03  0.00000000000E+00 0. -1.
          1    1    1    2  501    0 -0.59018836918E+02  0.29740200227E+02 -0.51005656494E+01  0.66285129483E+02  0.00000000000E+00 0. -1.
<scales pt_clust_5="13000.00000" pt_clust_6="13000.00000" pt_clust_7="13000.00000" pt_clust_8="13000.00000" pt_clust_9="66.08860"></scales>
<clustering>
<clus scale="   66.089">  2  9  1 -1</clus>
<clus scale="   80.910">  5  6 -1 -1</clus>
<clus scale="   90.833">  7  8 -1 -1</clus>
<clus scale="  195.964">  1  5  2 -1</clus>
<clus scale="   66.089">  2  5  1 -1</clus>
</clustering>
</event>
<event>
 9    2  0.6190160E-005  0.9370644E+02  0.7546771E-02  0.1300652E+00
         -1   -1    0    0    0  501 -0.00000000000E+00  0.00000000000E+00  0.24694430247E+02  0.24694430247E+02  0.00000000000E+00 0.  1.
         21   -1    0    0  501  502  0.00000000000E+00 -0.00000000000E+00 -0.44387956252E+03  0.44387956252E+03  0.00000000000E+00 0. -1.
         23    2    1    2    0    0  0.65013280321E+01  0.63135599000E+01 -0.15300610538E+03  0.17847925914E+03  0.91443148194E+02 0.  0.
         24    2    1    2    0    0 -0.28090281456E+02 -0.22259910623E+02 -0.21392371643E+03  0.23134963611E+03  0.80465707887E+02 0.  0.
        -13    1    4    4    0    0 -0.24417487660E+02  0.21901395970E+02 -0.39293295991E+02  0.51184450362E+02  0.00000000000E+00 0.  1.
         14    1    4    4    0    0 -0.36727937962E+01 -0.44161306594E+02 -0.17463042044E+03  0.18016518575E+03  0.00000000000E+00 0. -1.
        -11    1    3    3    0    0  0.43816516175E+02 -0.50302356889E+01 -0.11836518409E+03  0.12631511060E+03  0.00000000000E+00 0.  1.
         11    1    3    3    0    0 -0.37315188143E+02  0.11343795589E+02 -0.34640921298E+02  0.52164148540E+02  0.00000000000E+00 0. -1.
         -2    1    1    2    0  502  0.21588953424E+02  0.15946350723E+02 -0.52255310459E+02  0.58745097518E+02  0.00000000000E+00 0.  1.
<scales pt_clust_5="13000.00000" pt_clust_6="13000.00000" pt_clust_7="13000.00000" pt_clust_8="13000.00000" pt_clust_9="26.83970"></scales>
<clustering>
<clus scale="   26.840">  2  9  1 -1</clus>
<clus scale="   80.466">  5  6 -1 -1</clus>
<clus scale="   83.029">  2  5  1 -1</clus>
<clus scale="   91.443">  7  8 -1 -1</clus>
<clus scale="   26.840">  2  5  1 -1</clus>
</clustering>
</event>
<event>
 9    2  0.7353904E-005  0.1992741E+03  0.7546771E-02  0.1182199E+00
         21   -1    0    0  501  502  0.00000000000E+00  0.00000000000E+00  0.56588203549E+03  0.56588203549E+03  0.00000000000E+00 0. -1.
          2   -1    0    0  502    0 -0.00000000000E+00 -0.00000000000E+00 -0.34655933226E+03  0.34655933226E+03  0.00000000000E+00 0. -1.
         23    2    1    2    0    0  0.89699555163E+01  0.32365981588E+02 -0.12047600214E+02  0.96467040243E+02  0.89625489211E+02 0.  0.
         24    2    1    2    0    0 -0.12388963964E+03  0.11176924094E+03 -0.24416510519E+03  0.30595920906E+03  0.78443820589E+02 0.  0.
        -13    1    4    4    0    0 -0.58941663956E+02  0.62381477959E+02 -0.60553254436E+02  0.10503459033E+03  0.00000000000E+00 0.  1.
         14    1    4    4    0    0 -0.64947975685E+02  0.49387762979E+02 -0.18361185075E+03  0.20092461874E+03  0.00000000000E+00 0. -1.
        -11    1    3    3    0    0 -0.10235036077E+02 -0.29343302571E+02 -0.34062801859E+01  0.31263207033E+02  0.00000000000E+00 0.  1.
         11    1    3    3    0    0  0.19204991594E+02  0.61709284159E+02 -0.86413200283E+01  0.65203833210E+02  0.00000000000E+00 0. -1.
          1    1    1    2  501    0  0.11491968412E+03 -0.14413522253E+03  0.47553540863E+03  0.51001511844E+03  0.00000000000E+00 0. -1.
<scales pt_clust_5="13000.00000" pt_clust_6="13000.00000" pt_clust_7="13000.00000" pt_clust_8="13000.00000" pt_clust_9="183.18495"></scales>
<clustering>
<clus scale="   78.444">  5  6 -1 -1</clus>
<clus scale="   89.625">  7  8 -1 -1</clus>
<clus scale="   95.712">  2  7  1 -1</clus>
<clus scale="  183.185">  1  9  2 -1</clus>
<clus scale="  183.185">  1  5  2 -1</clus>
</clustering>
</event>
<event>
 9    2  0.6190160E-005  0.1019475E+03  0.7546771E-02  0.1282302E+00
         -1   -1    0    0    0  501 -0.00000000000E+00  0.00000000000E+00  0.31152630806E+03  0.31152630806E+03  0.00000000000E+00 0.  1.
         21   -1    0    0  501  502  0.00000000000E+00 -0.00000000000E+00 -0.85714950214E+02  0.85714950214E+02  0.00000000000E+00 0.  1.
         24    2    1    2    0    0  0.49735171162E+02  0.12838171268E+02  0.23632909591E+03  0.25448315037E+03  0.79194863202E+02 0.  0.
         23    2    1    2    0    0 -0.15472842132E+02  0.15546488428E+02  0.78443056748E+01  0.94625366995E+02  0.91713274946E+02 0.  0.
        -11    1    3    3    0    0  0.21079699631E+02 -0.25512064804E+02  0.16689624083E+03  0.17014574455E+03  0.00000000000E+00 0.  1.
         12    1    3    3    0    0  0.28655471531E+02  0.38350236072E+02  0.69432855085E+02  0.84337405821E+02  0.00000000000E+00 0. -1.
        -13    1    4    4    0    0 -0.41118701605E+02 -0.31972789726E+01  0.34021003587E+02  0.53463996293E+02  0.00000000000E+00 0. -1.
         13    1    4    4    0    0  0.25645859473E+02  0.18743767401E+02 -0.26176697912E+02  0.41161370702E+02  0.00000000000E+00 0.  1.
         -2    1    1    2    0  502 -0.34262329030E+02 -0.28384659696E+02 -0.18362043742E+02  0.48132740905E+02  0.00000000000E+00 0.  1.
<scales pt_clust_5="13000.00000" pt_clust_6="13000.00000" pt_clust_7="13000.00000" pt_clust_8="13000.00000" pt_clust_9="44.49265"></scales>
<clustering>
<clus scale="   44.493">  2  9  1 -1</clus>
<clus scale="   79.195">  5  6 -1 -1</clus>
<clus scale="   90.850">  1  5  2 -1</clus>
<clus scale="   91.713">  7  8 -1 -1</clus>
<clus scale="   44.493">  2  5  1 -1</clus>
</clustering>
</event>
<event>
 9    2  0.6190160E-005  0.1023505E+03  0.7546771E-02  0.1283188E+00
         21   -1    0    0  501  502  0.00000000000E+00  0.00000000000E+00  0.25299558759E+03  0.25299558759E+03  0.00000000000E+00 0.  1.
         -3   -1    0    0    0  501 -0.00000000000E+00 -0.00000000000E+00 -0.57022710027E+02  0.57022710027E+02  0.00000000000E+00 0.  1.
         23    2    1    2    0    0 -0.52675171279E+02  0.27010232160E+02  0.61631632207E+02  0.12726769928E+03  0.94310035950E+02 0.  0.
         24    2    1    2    0    0  0.20057142013E+02  0.32238474722E+00  0.88850727484E+02  0.12045778177E+03  0.78824060640E+02 0.  0.
        -11    1    4    4    0    0  0.13982004692E+02  0.36937084442E+02  0.25426269474E+02  0.46971691918E+02  0.00000000000E+00 0.  1.
         12    1    4    4    0    0  0.60751373210E+01 -0.36614699695E+02  0.63424458010E+02  0.73486089847E+02  0.00000000000E+00 0. -1.
        -11    1    3    3    0    0 -0.63804677504E+02  0.57361925735E+01  0.32528449690E+01  0.64144538170E+02  0.00000000000E+00 0.  1.
         11    1    3    3    0    0  0.11129506225E+02  0.21274039586E+02  0.58378787238E+02  0.63123161110E+02  0.00000000000E+00 0. -1.
         -4    1    1    2    0  502  0.32618029266E+02 -0.27332616907E+02  0.45490517873E+02  0.62292816573E+02  0.00000000000E+00 0.  1.
<scales pt_clust_5="13000.00000" pt_clust_6="13000.00000" pt_clust_7="13000.00000" pt_clust_8="13000.00000" pt_clust_9="42.55594"></scales>
<clustering>
<clus scale="   42.556">  1  9  2 -1</clus>
<clus scale="   78.824">  5  6 -1 -1</clus>
<clus scale="   88.286">  1  5  2 -1</clus>
<clus scale="   94.310">  7  8 -1 -1</clus>
<clus scale="   42.556">  1  5  2 -1</clus>
</clustering>
</event>
<event>
 9    2  0.6190160E-005  0.1105279E+03  0.7546771E-02  0.1266715E+00
         -3   -1    0    0    0  501 -0.00000000000E+00  0.00000000000E+00  0.15528560519E+02  0.15528560519E+02  0.00000000000E+00 0.  1.
         21   -1    0    0  501  502  0.00000000000E+00 -0.00000000000E+00 -0.14077493600E+04  0.14077493600E+04  0.00000000000E+00 0.  1.
         23    2    1    2    0    0  0.67348980201E+02  0.46942701973E+02 -0.33697968821E+03  0.35194141835E+03  0.59732313548E+02 0.  0.
         24    2    1    2    0    0 -0.77117958325E+02  0.18359677147E+02 -0.78616331500E+03  0.79427568918E+03  0.80850821388E+02 0.  0.
        -13    1    4    4    0    0 -0.49763906664E+02  0.48025629096E+02 -0.39216727635E+03  0.39821863354E+03  0.00000000000E+00 0.  1.
         14    1    4    4    0    0 -0.27354051661E+02 -0.29665951949E+02 -0.39399603866E+03  0.39605705564E+03  0.00000000000E+00 0. -1.
        -11    1    3    3    0    0  0.66348566046E+02  0.21202772083E+02 -0.18272673309E+03  0.19555241943E+03  0.00000000000E+00 0.  1.
         11    1    3    3    0    0  0.10004141555E+01  0.25739929890E+02 -0.15425295512E+03  0.15638899891E+03  0.00000000000E+00 0. -1.
         -4    1    1    2    0  502  0.97689781233E+01 -0.65302379121E+02 -0.26907779631E+03  0.27706081303E+03  0.00000000000E+00 0.  1.
<scales pt_clust_5="13000.00000" pt_clust_6="13000.00000" pt_clust_7="13000.00000" pt_clust_8="13000.00000" pt_clust_9="66.02907"></scales>
<clustering>
<clus scale="   59.732">  7  8 -1 -1</clus>
<clus scale="   66.029">  2  9  1 -1</clus>
<clus scale="   80.851">  5  6 -1 -1</clus>
<clus scale="   96.164">  1  7  2 -1</clus>
<clus scale="   66.029">  2  5  1 -1</clus>
</clustering>
</event>
<event>
 9    2  0.6190160E-005  0.1884673E+03  0.7546771E-02  0.1160845E+00
          2   -1    0    0  502    0 -0.00000000000E+00  0.00000000000E+00  0.45473438750E+03  0.45473438750E+03  0.00000000000E+00 0. -1.
         21   -1    0    0  501  502  0.00000000000E+00 -0.00000000000E+00 -0.12189252255E+03  0.12189252255E+03  0.00000000000E+00 0.  1.
         23    2    1    2    0    0 -0.48649671968E+02  0.16944014595E+03  0.23514127785E+03  0.30707520481E+03  0.89033742043E+02 0.  0.
         24    2    1    2    0    0  0.48233916143E+02 -0.14664428177E+03  0.13896721214E+03  0.22240556415E+03  0.79506558673E+02 0.  0.
        -13    1    4    4    0    0  0.61382729354E+02 -0.59746657171E+02  0.72333697787E+02  0.11211452333E+03  0.00000000000E+00 0.  1.
         14    1    4    4    0    0 -0.13148813211E+02 -0.86897624598E+02  0.66633514357E+02  0.11029104082E+03  0.00000000000E+00 0. -1.
        -13    1    3    3    0    0 -0.10653293979E+02  0.12284685113E+03  0.20641895564E+03  0.24044464385E+03  0.00000000000E+00 0.  1.
         13    1    3    3    0    0 -0.37996377989E+02  0.46593294815E+02  0.28722322205E+02  0.66630560968E+02  0.00000000000E+00 0. -1.
          1    1    1    2  501    0  0.41575582505E+00 -0.22795864180E+02 -0.41266625044E+02  0.47146141084E+02  0.00000000000E+00 0. -1.
<scales pt_clust_5="13000.00000" pt_clust_6="13000.00000" pt_clust_7="13000.00000" pt_clust_8="13000.00000" pt_clust_9="22.79966"></scales>
<clustering>
<clus scale="   22.800">  2  9  1 -1</clus>
<clus scale="   79.507">  5  6 -1 -1</clus>
<clus scale="   89.034">  7  8 -1 -1</clus>
<clus scale="  184.158">  2  5  1 -1</clus>
<clus scale="   22.800">  2  5  1 -1</clus>
</clustering>
</event>
<event>
 9    2  0.6190160E-005  0.1044095E+03  0.7546771E-02  0.1276496E+00
         -3   -1    0    0    0  501 -0.00000000000E+00  0.00000000000E+00  0.42814611755E+03  0.42814611755E+03  0.00000000000E+00 0.  1.
         21   -1    0    0  501  502  0.00000000000E+00 -0.00000000000E+00 -0.56241854029E+02  0.56241854029E+02  0.00000000000E+00 0.  1.
         24    2    1    2    0    0 -0.21928668874E+02 -0.45256085278E+02  0.34066409829E+03  0.35363001433E+03  0.80456071240E+02 0.  0.
         23    2    1    2    0    0  0.38377786117E+02  0.30416420094E+02  0.30732313479E+02  0.10859837615E+03  0.91929968629E+02 0.  0.
        -13    1    3    3    0    0 -0.47750601593E+02 -0.14411295664E+02  0.24188685226E+03  0.24697581803E+03  0.00000000000E+00 0.  1.
         14    1    3    3    0    0  0.25821932719E+02 -0.30844789614E+02  0.98777246032E+02  0.10665419630E+03  0.00000000000E+00 0. -1.
        -13    1    4    4    0    0  0.57244515713E+02 -0.11320165784E+02  0.17646824699E+02  0.60963031048E+02  0.00000000000E+00 0.  1.
         13    1    4    4    0    0 -0.18866729596E+02  0.41736585879E+02  0.13085488780E+02  0.47635345103E+02  0.00000000000E+00 0. -1.
         -4    1    1    2    0  502 -0.16449117243E+02  0.14839665184E+02  0.50785174851E+00  0.22159581093E+02  0.00000000000E+00 0.  1.
<scales pt_clust_5="13000.00000" pt_clust_6="13000.00000" pt_clust_7="13000.00000" pt_clust_8="13000.00000" pt_clust_9="22.15376"></scales>
<clustering>
<clus scale="   22.154">  2  9  1 -1</clus>
<clus scale="   80.456">  5  6 -1 -1</clus>
<clus scale="   91.930">  7  8 -1 -1</clus>
<clus scale="   94.464">  1  5  2 -1</clus>
<clus scale="   22.154">  2  5  1 -1</clus>
</clustering>
</event>
<event>
 9    2  0.6190160E-005  0.1487584E+03  0.7546771E-02  0.1202503E+00
         21   -1    0    0  501  502  0.00000000000E+00  0.00000000000E+00  0.51120415559E+02  0.51120415559E+02  0.00000000000E+00 0.  1.
         -3   -1    0    0    0  501 -0.00000000000E+00 -0.00000000000E+00 -0.71588136550E+03  0.71588136550E+03  0.00000000000E+00 0.  1.
         24    2    1    2    0    0  0.12744940661E+03 -0.86584593512E+01 -0.40064843988E+03  0.42885393758E+03  0.84132082084E+02 0.  0.
         23    2    1    2    0    0 -0.10283955499E+03  0.34539138931E+01 -0.89417877800E+02  0.16165153578E+03  0.86877836976E+02 0.  0.
        -13    1    3    3    0    0  0.63665668020E+02 -0.21032634041E+02 -0.94398231565E+02  0.11578737022E+03  0.00000000000E+00 0.  1.
         14    1    3    3    0    0  0.63783738595E+02  0.12374174690E+02 -0.30625020831E+03  0.31306656736E+03  0.00000000000E+00 0. -1.
        -13    1    4    4    0    0 -0.52539570852E+02  0.13913017901E+02  0.45660372806E+01  0.54541977126E+02  0.00000000000E+00 0.  1.
         13    1    4    4    0    0 -0.50299984141E+02 -0.10459104008E+02 -0.93983915080E+02  0.10710955865E+03  0.00000000000E+00 0. -1.
         -4    1    1    2    0  502 -0.24609851621E+02  0.52045454582E+01 -0.17469463226E+03  0.17649630770E+03  0.00000000000E+00 0.  1.
<scales pt_clust_5="13000.00000" pt_clust_6="13000.00000" pt_clust_7="13000.00000" pt_clust_8="13000.00000" pt_clust_9="25.15418"></scales>
<clustering>
<clus scale="   25.154">  1  9  2 -1</clus>
<clus scale="   84.132">  5  6 -1 -1</clus>
<clus scale="   86.878">  7  8 -1 -1</clus>
<clus scale="  147.172">  2  5  1 -1</clus>
<clus scale="   25.154">  1  5  2 -1</clus>
</clustering>
</event>
<event>
 9    2  0.6190160E-005  0.2204925E+03  0.7546771E-02  0.1133516E+00
         21   -1    0    0  501  502  0.00000000000E+00  0.00000000000E+00  0.17126811229E+03  0.17126811229E+03  0.00000000000E+00 0. -1.
          4   -1    0    0  502    0 -0.00000000000E+00 -0.00000000000E+00 -0.28281704332E+03  0.28281704332E+03  0.00000000000E+00 0. -1.
         24    2    1    2    0    0  0.43499674295E+02 -0.74194554439E+02 -0.11943110817E+03  0.16782530347E+03  0.80650414225E+02 0.  0.
         23    2    1    2    0    0  0.27056923693E+02 -0.36801698832E+02 -0.78853971308E+02  0.12871125263E+03  0.90896620428E+02 0.  0.
        -13    1    3    3    0    0 -0.21186790039E+02 -0.53092240971E+01 -0.34145108766E+02  0.40533398393E+02  0.00000000000E+00 0.  1.
         14    1    3    3    0    0  0.64686464334E+02 -0.68885330342E+02 -0.85285999404E+02  0.12729190508E+03  0.00000000000E+00 0. -1.
        -13    1    4    4    0    0  0.51194177287E+01 -0.33154499804E+02 -0.95312901615E+02  0.10104443829E+03  0.00000000000E+00 0. -1.
         13    1    4    4    0    0  0.21937505964E+02 -0.36471990287E+01  0.16458930307E+02  0.27666814337E+02  0.00000000000E+00 0.  1.
          3    1    1    2  501    0 -0.70556597987E+02  0.11099625327E+03  0.86736148443E+02  0.15754859951E+03  0.00000000000E+00 0. -1.
<scales pt_clust_5="13000.00000" pt_clust_6="13000.00000" pt_clust_7="13000.00000" pt_clust_8="13000.00000" pt_clust_9="131.52339"></scales>
<clustering>
<clus scale="   80.650">  5  6 -1 -1</clus>
<clus scale="   90.897">  7  8 -1 -1</clus>
<clus scale="   91.115">  5  7 -1 -1</clus>
<clus scale="  131.523">  1  9  2 -1</clus>
<clus scale="  131.523">  1  5  2 -1</clus>
</clustering>
</event>
<event>
 9    2  0.6190160E-005  0.1374461E+03  0.7546771E-02  0.1230405E+00
         21   -1    0    0  501  502  0.00000000000E+00  0.00000000000E+00  0.12171089109E+04  0.12171089109E+04  0.00000000000E+00 0. -1.
         -3   -1    0    0    0  501 -0.00000000000E+00 -0.00000000000E+00 -0.26943231268E+02  0.26943231268E+02  0.00000000000E+00 0.  1.
         24    2    1    2    0    0  0.63815617329E+02  0.13253351903E+02  0.21929997616E+03  0.24249093588E+03  0.80382150305E+02 0.  0.
         23    2    1    2    0    0  0.46024635244E+02  0.46127302222E+02  0.35329031903E+03  0.37148954479E+03  0.94575035301E+02 0.  0.
        -13    1    3    3    0    0  0.63324205433E+02  0.24340087480E+02  0.89945997788E+02  0.11266178310E+03  0.00000000000E+00 0.  1.
         14    1    3    3    0    0  0.49141189608E+00 -0.11086735577E+02  0.12935397838E+03  0.12982915279E+03  0.00000000000E+00 0. -1.
        -13    1    4    4    0    0 -0.22976237648E+02  0.39242947700E+02  0.14421875795E+03  0.15121827464E+03  0.00000000000E+00 0. -1.
         13    1    4    4    0    0  0.69000872892E+02  0.68843545211E+01  0.20907156108E+03  0.22027127014E+03  0.00000000000E+00 0.  1.
         -4    1    1    2    0  502 -0.10984025257E+03 -0.59380654124E+02  0.61757538448E+03  0.63007166155E+03  0.00000000000E+00 0.  1.
<scales pt_clust_5="13000.00000" pt_clust_6="13000.00000" pt_clust_7="13000.00000" pt_clust_8="13000.00000" pt_clust_9="99.73466"></scales>
<clustering>
<clus scale="   80.382">  5  6 -1 -1</clus>
<clus scale="   94.575">  7  8 -1 -1</clus>
<clus scale="  103.486">  2  5  1 -1</clus>
<clus scale="   99.735">  1  9  2 -1</clus>
<clus scale="   99.735">  1  5  2 -1</clus>
</clustering>
</event>
<event>
 9    2  0.6190160E-005  0.2038020E+03  0.7546771E-02  0.1147817E+00
          2   -1    0    0  502    0 -0.00000000000E+00  0.00000000000E+00  0.51598691022E+03  0.51598691022E+03  0.00000000000E+00 0. -1.
         21   -1    0    0  501  502  0.00000000000E+00 -0.00000000000E+00 -0.16446066282E+03  0.16446066282E+03  0.00000000000E+00 0.  1.
         24    2    1    2    0    0 -0.15948892210E+03 -0.91641391867E+02  0.32628486534E+03  0.38297088417E+03  0.79812428832E+02 0.  0.
         23    2    1    2    0    0  0.18188839586E+03  0.16891026546E+02 -0.21708628219E+02  0.20640717144E+03  0.93616027242E+02 0.  0.
        -13    1    3    3    0    0 -0.50344606039E+02 -0.74157054733E+02  0.15731283464E+03  0.18105572641E+03  0.00000000000E+00 0.  1.
         14    1    3    3    0    0 -0.10914431607E+03 -0.17484337134E+02  0.16897203070E+03  0.20191515776E+03  0.00000000000E+00 0. -1.
        -13    1    4    4    0    0  0.22792379056E+02  0.26732298359E+02 -0.30839247618E+02  0.46745775341E+02  0.00000000000E+00 0.  1.
         13    1    4    4    0    0  0.15909601681E+03 -0.98412718127E+01  0.91306193996E+01  0.15966139610E+03  0.00000000000E+00 0. -1.
          1    1    1    2  501    0 -0.22399473759E+02  0.74750365321E+02  0.46950010275E+02  0.91069517431E+02  0.00000000000E+00 0. -1.
<scales pt_clust_5="13000.00000" pt_clust_6="13000.00000" pt_clust_7="13000.00000" pt_clust_8="13000.00000" pt_clust_9="78.03431"></scales>
<clustering>
<clus scale="   78.034">  2  9  1 -1</clus>
<clus scale="   79.812">  5  6 -1 -1</clus>
<clus scale="   93.616">  7  8 -1 -1</clus>
<clus scale="  197.842">  1  5  2 -1</clus>
<clus scale="   78.034">  2  5  1 -1</clus>
</clustering>
</event>
<event>
 9    2  0.6190160E-005  0.1154446E+03  0.7546771E-02  0.1251488E+00
         21   -1    0    0  501  502  0.00000000000E+00  0.00000000000E+00  0.17241720335E+03  0.17241720335E+03  0.00000000000E+00 0. -1.
          2   -1    0    0  502    0 -0.00000000000E+00 -0.00000000000E+00 -0.51177229799E+03  0.51177229799E+03  0.00000000000E+00 0. -1.
         24    2    1    2    0    0 -0.64759705802E+02 -0.49245504436E+02 -0.34064823408E+03  0.36155752756E+03  0.89798035340E+02 0.  0.
         23    2    1    2    0    0  0.26810765276E+02  0.46614645617E+02 -0.14027730838E+03  0.17603990304E+03  0.91763728651E+02 0.  0.
        -13    1    3    3    0    0 -0.27241923880E+02 -0.39865566093E+02 -0.54518509729E+02  0.72826188145E+02  0.00000000000E+00 0.  1.
         14    1    3    3    0    0 -0.37517781922E+02 -0.93799383428E+01 -0.28612972435E+03  0.28873133942E+03  0.00000000000E+00 0. -1.
        -11    1    4    4    0    0 -0.23059532643E+02  0.47239286496E+02 -0.48185795584E+02  0.71310329760E+02  0.00000000000E+00 0. -1.
         11    1    4    4    0    0  0.49870297919E+02 -0.62464087939E+00 -0.92091512796E+02  0.10472957328E+03  0.00000000000E+00 0.  1.
          1    1    1    2  501    0  0.37948940526E+02  0.26308588189E+01  0.14157044782E+03  0.14659207073E+03  0.00000000000E+00 0. -1.
<scales pt_clust_5="13000.00000" pt_clust_6="13000.00000" pt_clust_7="13000.00000" pt_clust_8="13000.00000" pt_clust_9="38.04003"></scales>
<clustering>
<clus scale="   38.040">  1  9  2 -1</clus>
<clus scale="   89.798">  5  6 -1 -1</clus>
<clus scale="   91.764">  7  8 -1 -1</clus>
<clus scale="  113.888">  2  5  1 -1</clus>
<clus scale="   38.040">  1  5  2 -1</clus>
</clustering>
</event>
<event>
 9    2  0.6190160E-005  0.1063165E+03  0.7546771E-02  0.1271633E+00
         21   -1    0    0  501  502  0.00000000000E+00  0.00000000000E+00  0.15830626514E+03  0.15830626514E+03  0.00000000000E+00 0.  1.
         -3   -1    0    0    0  501 -0.00000000000E+00 -0.00000000000E+00 -0.15823369376E+03  0.15823369376E+03  0.00000000000E+00 0.  1.
         24    2    1    2    0    0  0.39009727382E+02 -0.40838363181E+02 -0.75083115981E+02  0.12380007042E+03  0.80619181294E+02 0.  0.
         23    2    1    2    0    0  0.37039029137E+01  0.71017919539E+02  0.19875424469E+02  0.11664016902E+03  0.90291930644E+02 0.  0.
        -13    1    3    3    0    0  0.42196643082E+02  0.13006885278E+02 -0.28727925202E+02  0.52678548181E+02  0.00000000000E+00 0.  1.
         14    1    3    3    0    0 -0.31869157002E+01 -0.53845248458E+02 -0.46355190780E+02  0.71121522238E+02  0.00000000000E+00 0. -1.
        -11    1    4    4    0    0  0.20903156386E+02  0.87580842015E+02  0.92817244750E+01  0.90517933274E+02  0.00000000000E+00 0.  1.
         11    1    4    4    0    0 -0.17199253473E+02 -0.16562922476E+02  0.10593699994E+02  0.26122235749E+02  0.00000000000E+00 0. -1.
         -4    1    1    2    0  502 -0.42713630296E+02 -0.30179556358E+02  0.55280262894E+02  0.76099719452E+02  0.00000000000E+00 0.  1.
<scales pt_clust_5="13000.00000" pt_clust_6="13000.00000" pt_clust_7="13000.00000" pt_clust_8="13000.00000" pt_clust_9="52.29971"></scales>
<clustering>
<clus scale="   52.300">  1  9  2 -1</clus>
<clus scale="   80.619">  5  6 -1 -1</clus>
<clus scale="   90.292">  7  8 -1 -1</clus>
<clus scale="   98.235">  2  5  1 -1</clus>
<clus scale="   52.300">  1  5  2 -1</clus>
</clustering>
</event>
<event>
 9    2  0.6190160E-005  0.1039879E+03  0.7546771E-02  0.1278110E+00
         21   -1    0    0  501  502  0.00000000000E+00  0.00000000000E+00  0.26085280074E+02  0.26085280074E+02  0.00000000000E+00 0.  1.
          2   -1    0    0  502    0 -0.00000000000E+00 -0.00000000000E+00 -0.55192467087E+03  0.55192467087E+03  0.00000000000E+00 0. -1.
         24    2    1    2    0    0 -0.54985039198E+01  0.59588509754E+02 -0.27165330593E+03  0.28969490684E+03  0.80911039927E+02 0.  0.
         23    2    1    2    0    0  0.12773494503E+02 -0.26511520767E+02 -0.21616053076E+03  0.23739397329E+03  0.93618911549E+02 0.  0.
        -13    1    3    3    0    0 -0.41898287653E+02  0.22077257717E+02 -0.14969373388E+03  0.15700664247E+03  0.00000000000E+00 0.  1.
         14    1    3    3    0    0  0.36399783733E+02  0.37511252037E+02 -0.12195957206E+03  0.13268826437E+03  0.00000000000E+00 0. -1.
        -11    1    4    4    0    0 -0.89810063191E+01  0.21566599621E+02 -0.11498873231E+02  0.26038448096E+02  0.00000000000E+00 0.  1.
         11    1    4    4    0    0  0.21754500822E+02 -0.48078120388E+02 -0.20466165753E+03  0.21135552520E+03  0.00000000000E+00 0. -1.
          1    1    1    2  501    0 -0.72749905827E+01 -0.33076988987E+02 -0.38025554094E+02  0.50921070812E+02  0.00000000000E+00 0. -1.
<scales pt_clust_5="13000.00000" pt_clust_6="13000.00000" pt_clust_7="13000.00000" pt_clust_8="13000.00000" pt_clust_9="33.86758"></scales>
<clustering>
<clus scale="   33.868">  1  9  2 -1</clus>
<clus scale="   80.911">  5  6 -1 -1</clus>
<clus scale="   92.712">  2  5  1 -1</clus>
<clus scale="   93.619">  7  8 -1 -1</clus>
<clus scale="   33.868">  1  5  2 -1</clus>
</clustering>
</event>
<event>
 9    2  0.6190160E-005  0.1305658E+03  0.7546771E-02  0.1232495E+00
          2   -1    0    0  502    0 -0.00000000000E+00  0.00000000000E+00  0.11961701203E+04  0.11961701203E+04  0.00000000000E+00 0. -1.
         21   -1    0    0  501  502  0.00000000000E+00 -0.00000000000E+00 -0.27418953872E+02  0.27418953872E+02  0.00000000000E+00 0. -1.
         24    2    1    2    0    0 -0.26361993526E+02 -0.10328130965E+03  0.75836688455E+03  0.77016386319E+03  0.81670441105E+02 0.  0.
         23    2    1    2    0    0  0.34187163925E+02  0.32363341992E+02  0.31473731102E+03  0.33409820455E+03  0.10171473469E+03 0.  0.
        -11    1    3    3    0    0 -0.25114190024E+02 -0.29483776746E+02  0.93376485774E+02  0.10108997837E+03  0.00000000000E+00 0.  1.
         12    1    3    3    0    0 -0.12478035018E+01 -0.73797532906E+02  0.66499039878E+03  0.66907388481E+03  0.00000000000E+00 0. -1.
        -11    1    4    4    0    0  0.26930719287E+02  0.65386264460E+02  0.26262160756E+03  0.27197561652E+03  0.00000000000E+00 0.  1.
         11    1    4    4    0    0  0.72564446383E+01 -0.33022922468E+02  0.52115703459E+02  0.62122588035E+02  0.00000000000E+00 0. -1.
          1    1    1    2  501    0 -0.78251703994E+01  0.70917967660E+02  0.95646970833E+02  0.11932700641E+03  0.00000000000E+00 0. -1.
<scales pt_clust_5="13000.00000" pt_clust_6="13000.00000" pt_clust_7="13000.00000" pt_clust_8="13000.00000" pt_clust_9="71.34838"></scales>
<clustering>
<clus scale="   71.348">  2  9  1 -1</clus>
<clus scale="   81.670">  5  6 -1 -1</clus>
<clus scale="  101.715">  7  8 -1 -1</clus>
<clus scale="  115.636">  1  5  2 -1</clus>
<clus scale="   71.348">  2  5  1 -1</clus>
</clustering>
</event>
<event>
 9    2  0.6190160E-005  0.1415559E+03  0.7546771E-02  0.1211275E+00
          2   -1    0    0  502    0 -0.00000000000E+00  0.00000000000E+00  0.55935188652E+03  0.55935188652E+03  0.00000000000E+00 0. -1.
         21   -1    0    0  501  502  0.00000000000E+00 -0.00000000000E+00 -0.49552501341E+02  0.49552501341E+02  0.00000000000E+00 0.  1.
         24    2    1    2    0    0 -0.81572370994E+02  0.82837917859E+02  0.32591763302E+03  0.35762094775E+03  0.90300976804E+02 0.  0.
         23    2    1    2    0    0  0.86089360692E+02 -0.48014692351E+02  0.12638615302E+03  0.18391279256E+03  0.90186844311E+02 0.  0.
        -13    1    3    3    0    0 -0.65066367558E+02  0.93123782700E+02  0.31597857486E+03  0.33577988454E+03  0.00000000000E+00 0.  1.
         14    1    3    3    0    0 -0.16506003436E+02 -0.10285864841E+02  0.99390581566E+01  0.21841063207E+02  0.00000000000E+00 0. -1.
        -11    1    4    4    0    0  0.39782803054E+02  0.18181006471E+02  0.78878260138E+02  0.90194236721E+02  0.00000000000E+00 0. -1.
         11    1    4    4    0    0  0.46306557638E+02 -0.66195698823E+02  0.47507892879E+02  0.93718555840E+02  0.00000000000E+00 0.  1.
          1    1    1    2  501    0 -0.45169896988E+01 -0.34823225508E+02  0.57495599139E+02  0.67370647548E+02  0.00000000000E+00 0. -1.
<scales pt_clust_5="13000.00000" pt_clust_6="13000.00000" pt_clust_7="13000.00000" pt_clust_8="13000.00000" pt_clust_9="35.11497"></scales>
<clustering>
<clus scale="   35.115">  2  9  1 -1</clus>
<clus scale="   90.187">  7  8 -1 -1</clus>
<clus scale="   90.301">  5  6 -1 -1</clus>
<clus scale="  141.483">  2  7  1 -1</clus>
<clus scale="   35.115">  2  5  1 -1</clus>
</clustering>
</event>
<event>
 9    2  0.6190160E-005  0.1180756E+03  0.7546771E-02  0.1250092E+00
         21   -1    0    0  501  502  0.00000000000E+00  0.00000000000E+00  0.11181187551E+03  0.11181187551E+03  0.00000000000E+00 0.  1.
          2   -1    0    0  502    0 -0.00000000000E+00 -0.00000000000E+00 -0.36490212072E+03  0.36490212072E+03  0.00000000000E+00 0. -1.
         23    2    1    2    0    0 -0.74313182180E+01  0.75857478132E+02 -0.30608421300E+03  0.32855280989E+03  0.91922913123E+02 0.  0.
         24    2    1    2    0    0  0.26819355710E+02 -0.59678961288E+02  0.18486824130E+02  0.10540158661E+03  0.80541141859E+02 0.  0.
        -11    1    4    4    0    0  0.47623168423E+02 -0.65658458466E+02  0.84759957386E+01  0.81552693656E+02  0.00000000000E+00 0.  1.
         12    1    4    4    0    0 -0.20803812713E+02  0.59794971788E+01  0.10010828392E+02  0.23848892952E+02  0.00000000000E+00 0. -1.
        -11    1    3    3    0    0 -0.55048728231E+01  0.25837696160E+02 -0.99682551298E+01  0.28235726979E+02  0.00000000000E+00 0.  1.
         11    1    3    3    0    0 -0.19264453950E+01  0.50019781971E+02 -0.29611595787E+03  0.30031708291E+03  0.00000000000E+00 0. -1.
          1    1    1    2  501    0 -0.19388037492E+02 -0.16178516844E+02  0.34507143667E+02  0.42759599731E+02  0.00000000000E+00 0. -1.
<scales pt_clust_5="13000.00000" pt_clust_6="13000.00000" pt_clust_7="13000.00000" pt_clust_8="13000.00000" pt_clust_9="25.25154"></scales>
<clustering>
<clus scale="   25.252">  1  9  2 -1</clus>
<clus scale="   80.541">  5  6 -1 -1</clus>
<clus scale="   91.923">  7  8 -1 -1</clus>
<clus scale="  109.448">  1  5  2 -1</clus>
<clus scale="   25.252">  1  5  2 -1</clus>
</clustering>
</event>
<event>
 9    2  0.6190160E-005  0.1182449E+03  0.7546771E-02  0.1249729E+00
         21   -1    0    0  501  502  0.00000000000E+00  0.00000000000E+00  0.37335717807E+02  0.37335717807E+02  0.00000000000E+00 0.  1.
          2   -1    0    0  502    0 -0.00000000000E+00 -0.00000000000E+00 -0.56120145689E+03  0.56120145689E+03  0.00000000000E+00 0. -1.
         24    2    1    2    0    0  0.60783911223E+02  0.58418383960E+02 -0.38663400681E+03  0.40375734009E+03  0.80166969538E+02 0.  0.
         23    2    1    2    0    0 -0.38604102627E+02 -0.33315148256E+02 -0.10179518665E+03  0.14601647626E+03  0.91424151460E+02 0.  0.
        -13    1    3    3    0    0  0.28172996477E+02 -0.33519169132E+01 -0.34050509549E+02  0.44321442644E+02  0.00000000000E+00 0.  1.
         14    1    3    3    0    0  0.32610914746E+02  0.61770300873E+02 -0.35258349726E+03  0.35943589745E+03  0.00000000000E+00 0. -1.
        -13    1    4    4    0    0  0.21486859587E+02 -0.94531393829E+01  0.21828578714E+01  0.23575662188E+02  0.00000000000E+00 0.  1.
         13    1    4    4    0    0 -0.60090962214E+02 -0.23862008873E+02 -0.10397804452E+03  0.12244081407E+03  0.00000000000E+00 0. -1.
          1    1    1    2  501    0 -0.22179808596E+02 -0.25103235705E+02 -0.35436545622E+02  0.48763358353E+02  0.00000000000E+00 0. -1.
<scales pt_clust_5="13000.00000" pt_clust_6="13000.00000" pt_clust_7="13000.00000" pt_clust_8="13000.00000" pt_clust_9="33.49801"></scales>
<clustering>
<clus scale="   33.498">  1  9  2 -1</clus>
<clus scale="   80.167">  5  6 -1 -1</clus>
<clus scale="   91.424">  7  8 -1 -1</clus>
<clus scale="  109.774">  2  5  1 -1</clus>
<clus scale="   33.498">  1  5  2 -1</clus>
</clustering>
</event>
<event>
 9    2  0.6190160E-005  0.9833084E+02  0.7546771E-02  0.1288854E+00
          2   -1    0    0  502    0 -0.00000000000E+00  0.00000000000E+00  0.56853342374E+02  0.56853342374E+02  0.00000000000E+00 0. -1.
         21   -1    0    0  501  502  0.00000000000E+00 -0.00000000000E+00 -0.95719611737E+03  0.95719611737E+03  0.00000000000E+00 0. -1.
         23    2    1    2    0    0 -0.25627709179E+02  0.26316885537E+02 -0.78961351908E+01  0.96492090835E+02  0.88876412510E+02 0.  0.
         24    2    1    2    0    0  0.10518617383E+02 -0.94036374889E+02 -0.35789538249E+03  0.37852187788E+03  0.78969779739E+02 0.  0.
        -11    1    4    4    0    0 -0.93529698328E+01 -0.24679591550E+02 -0.20281347841E+02  0.33285031982E+02  0.00000000000E+00 0.  1.
         12    1    4    4    0    0  0.19871587216E+02 -0.69356783339E+02 -0.33761403465E+03  0.34523684590E+03  0.00000000000E+00 0. -1.
        -11    1    3    3    0    0  0.16497312765E+02  0.40270485362E+02  0.15661298274E+02  0.46250941432E+02  0.00000000000E+00 0.  1.
         11    1    3    3    0    0 -0.42125021944E+02 -0.13953599825E+02 -0.23557433465E+02  0.50241149403E+02  0.00000000000E+00 0. -1.
          1    1    1    2  501    0  0.15109091796E+02  0.67719489352E+02 -0.53455125731E+03  0.53903549103E+03  0.00000000000E+00 0. -1.
<scales pt_clust_5="13000.00000" pt_clust_6="13000.00000" pt_clust_7="13000.00000" pt_clust_8="13000.00000" pt_clust_9="69.38454"></scales>
<clustering>
<clus scale="   69.385">  2  9  1 -1</clus>
<clus scale="   78.970">  5  6 -1 -1</clus>
<clus scale="   88.876">  7  8 -1 -1</clus>
<clus scale="   89.477">  2  5  1 -1</clus>
<clus scale="   69.385">  2  5  1 -1</clus>
</clustering>
</event>
<event>
 9    2  0.6190160E-005  0.2357365E+03  0.7546771E-02  0.1123507E+00
         21   -1    0    0  501  502  0.00000000000E+00  0.00000000000E+00  0.31348955854E+03  0.31348955854E+03  0.00000000000E+00 0. -1.
          2   -1    0    0  502    0 -0.00000000000E+00 -0.00000000000E+00 -0.65173303360E+03  0.65173303360E+03  0.00000000000E+00 0. -1.
         24    2    1    2    0    0 -0.21054748127E+03  0.73705196732E+02 -0.47523490065E+03  0.53090850729E+03  0.79075498207E+02 0.  0.
         23    2    1    2    0    0  0.10778336894E+03 -0.18692161766E+03  0.15362708025E+03  0.28051172546E+03  0.92350433480E+02 0.  0.
        -11    1    3    3    0    0 -0.15789348506E+03  0.20264630159E+02 -0.28552123533E+03  0.32689965384E+03  0.00000000000E+00 0.  1.
         12    1    3    3    0    0 -0.52653996212E+02  0.53440566574E+02 -0.18971366532E+03  0.20400885344E+03  0.00000000000E+00 0. -1.
        -13    1    4    4    0    0  0.54612991732E+02 -0.17837531618E+02  0.38298228615E+02  0.69047162977E+02  0.00000000000E+00 0.  1.
         13    1    4    4    0    0  0.53170377206E+02 -0.16908408604E+03  0.11532885163E+03  0.21146456248E+03  0.00000000000E+00 0. -1.
          1    1    1    2  501    0  0.10276411233E+03  0.11321642093E+03 -0.16635654647E+02  0.15380235940E+03  0.00000000000E+00 0. -1.
<scales pt_clust_5="13000.00000" pt_clust_6="13000.00000" pt_clust_7="13000.00000" pt_clust_8="13000.00000" pt_clust_9="152.90004"></scales>
<clustering>
<clus scale="   79.075">  5  6 -1 -1</clus>
<clus scale="   92.350">  7  8 -1 -1</clus>
<clus scale="  152.900">  1  9  2 -1</clus>
<clus scale="  230.859">  2  5  1 -1</clus>
<clus scale="  152.900">  1  5  2 -1</clus>
</clustering>
</event>
<event>
 9    2  0.6190160E-005  0.1887074E+03  0.7546771E-02  0.1193376E+00
          2   -1    0    0  502    0 -0.00000000000E+00  0.00000000000E+00  0.46676230686E+03  0.46676230686E+03  0.00000000000E+00 0. -1.
         21   -1    0    0  501  502  0.00000000000E+00 -0.00000000000E+00 -0.22704832112E+03  0.22704832112E+03  0.00000000000E+00 0. -1.
         23    2    1    2    0    0 -0.17452319158E+02  0.19909599328E+02  0.25200983490E+03  0.26691972067E+03  0.83882088696E+02 0.  0.
         24    2    1    2    0    0 -0.15521928185E+03  0.93189608647E+01  0.11585282996E+03  0.20988428418E+03  0.80309812885E+02 0.  0.
        -13    1    4    4    0    0 -0.70812266829E+02 -0.16732303240E+02  0.94026276679E+02  0.11889191651E+03  0.00000000000E+00 0.  1.
         14    1    4    4    0    0 -0.84407015020E+02  0.26051264104E+02  0.21826553286E+02  0.90992367671E+02  0.00000000000E+00 0. -1.
        -11    1    3    3    0    0  0.33256001389E+02  0.63612903188E+00  0.82981427936E+02  0.89399573102E+02  0.00000000000E+00 0.  1.
         11    1    3    3    0    0 -0.50708320547E+02  0.19273470296E+02  0.16902840697E+03  0.17752014756E+03  0.00000000000E+00 0. -1.
          1    1    1    2  501    0  0.17267160101E+03 -0.29228560193E+02 -0.12814867912E+03  0.21700662314E+03  0.00000000000E+00 0. -1.
<scales pt_clust_5="13000.00000" pt_clust_6="13000.00000" pt_clust_7="13000.00000" pt_clust_8="13000.00000" pt_clust_9="170.76535"></scales>
<clustering>
<clus scale="   80.310">  5  6 -1 -1</clus>
<clus scale="   83.882">  7  8 -1 -1</clus>
<clus scale="   87.961">  1  7  2 -1</clus>
<clus scale="  170.765">  2  9  1 -1</clus>
<clus scale="  170.765">  2  5  1 -1</clus>
</clustering>
</event>
<event>
 9    2  0.6190160E-005  0.1005047E+03  0.7546771E-02  0.1284210E+00
          2   -1    0    0  502    0 -0.00000000000E+00  0.00000000000E+00  0.12778809455E+03  0.12778809455E+03  0.00000000000E+00 0. -1.
         21   -1    0    0  501  502  0.00000000000E+00 -0.00000000000E+00 -0.42531876698E+03  0.42531876698E+03  0.00000000000E+00 0. -1.
         24    2    1    2    0    0  0.10226398265E+02 -0.41362781571E+02  0.73836887937E+02  0.11780958963E+03  0.81312695613E+02 0.  0.
         23    2    1    2    0    0  0.66097169128E+02  0.45014678044E+02 -0.11301112365E+03  0.16587813435E+03  0.91372229808E+02 0.  0.
        -11    1    3    3    0    0 -0.22249863086E+02  0.40248527658E+01 -0.30359941510E+01  0.22813879714E+02  0.00000000000E+00 0.  1.
         12    1    3    3    0    0  0.32476261351E+02 -0.45387634337E+02  0.76872882088E+02  0.94995709916E+02  0.00000000000E+00 0. -1.
        -13    1    4    4    0    0  0.19205941648E+02  0.64014733798E+02 -0.84728933597E+02  0.10791546009E+03  0.00000000000E+00 0.  1.
         13    1    4    4    0    0  0.46891227480E+02 -0.19000055753E+02 -0.28282190057E+02  0.57962674262E+02  0.00000000000E+00 0. -1.
          1    1    1    2  501    0 -0.76323567393E+02 -0.36518964738E+01 -0.25835643671E+03  0.26941913755E+03  0.00000000000E+00 0. -1.
<scales pt_clust_5="13000.00000" pt_clust_6="13000.00000" pt_clust_7="13000.00000" pt_clust_8="13000.00000" pt_clust_9="76.41088"></scales>
<clustering>
<clus scale="   76.411">  2  9  1 -1</clus>
<clus scale="   81.313">  5  6 -1 -1</clus>
<clus scale="   91.372">  7  8 -1 -1</clus>
<clus scale="   91.455">  1  5  2 -1</clus>
<clus scale="   76.411">  2  5  1 -1</clus>
</clustering>
</event>
<event>
 9    2  0.6190160E-005  0.8946948E+02  0.7546771E-02  0.1307712E+00
         21   -1    0    0  501  502  0.00000000000E+00  0.00000000000E+00  0.99250494433E+02  0.99250494433E+02  0.00000000000E+00 0. -1.
          2   -1    0    0  502    0 -0.00000000000E+00 -0.00000000000E+00 -0.15545580208E+03  0.15545580208E+03  0.00000000000E+00 0. -1.
         23    2    1    2    0    0 -0.15994532922E+02 -0.19135384491E+02 -0.48595760043E+02  0.10475802324E+03  0.89390757441E+02 0.  0.
         24    2    1    2    0    0 -0.27678215019E+02 -0.20703036524E+02 -0.26818682079E+01  0.90629720309E+02  0.83736816743E+02 0.  0.
        -13    1    4    4    0    0 -0.27980909421E+02  0.29127501153E+02  0.28601903035E+01  0.40491027450E+02  0.00000000000E+00 0.  1.
         14    1    4    4    0    0  0.30269440128E+00 -0.49830537677E+02 -0.55420585114E+01  0.50138692859E+02  0.00000000000E+00 0. -1.
        -11    1    3    3    0    0  0.19101312679E+02 -0.37970998776E+02 -0.76148835011E+00  0.42511607340E+02  0.00000000000E+00 0.  1.
         11    1    3    3    0    0 -0.35095845601E+02  0.18835614285E+02 -0.47834271693E+02  0.62246415899E+02  0.00000000000E+00 0. -1.
          1    1    1    2  501    0  0.43672747941E+02  0.39838421015E+02 -0.49276793967E+01  0.59318552965E+02  0.00000000000E+00 0. -1.
<scales pt_clust_5="13000.00000" pt_clust_6="13000.00000" pt_clust_7="13000.00000" pt_clust_8="13000.00000" pt_clust_9="59.11352"></scales>
<clustering>
<clus scale="   59.114">  1  9  2 -1</clus>
<clus scale="   83.737">  5  6 -1 -1</clus>
<clus scale="   83.821">  1  5  2 -1</clus>
<clus scale="   89.391">  7  8 -1 -1</clus>
<clus scale="   59.114">  1  5  2 -1</clus>
</clustering>
</event>
<event>
 9    2  0.6190160E-005  0.1081655E+03  0.7546771E-02  0.1270391E+00
         -3   -1    0    0    0  501 -0.00000000000E+00  0.00000000000E+00  0.34028501750E+03  0.34028501750E+03  0.00000000000E+00 0.  1.
         21   -1    0    0  501  502  0.00000000000E+00 -0.00000000000E+00 -0.17289795191E+03  0.17289795191E+03  0.00000000000E+00 0.  1.
         23    2    1    2    0    0  0.39744007535E+02  0.35249965201E+02  0.27745170265E+03  0.29721986142E+03  0.92401582971E+02 0.  0.
         24    2    1    2    0    0 -0.52797805425E+02 -0.51068916563E+02 -0.26735980791E+01  0.10663115421E+03  0.77249028640E+02 0.  0.
        -11    1    4    4    0    0 -0.23183667597E+02 -0.42108134640E+02  0.33829701377E+02  0.58779470407E+02  0.00000000000E+00 0.  1.
         12    1    4    4    0    0 -0.29614137828E+02 -0.89607819228E+01 -0.36503299456E+02  0.47851683807E+02  0.00000000000E+00 0. -1.
        -11    1    3    3    0    0  0.60650240946E+02  0.26857348400E+01  0.21790171292E+03  0.22620084304E+03  0.00000000000E+00 0.  1.
         11    1    3    3    0    0 -0.20906233411E+02  0.32564230361E+02  0.59549989733E+02  0.71019018380E+02  0.00000000000E+00 0. -1.
         -4    1    1    2    0  502  0.13053797890E+02  0.15818951362E+02 -0.10739103899E+03  0.10933195378E+03  0.00000000000E+00 0.  1.
<scales pt_clust_5="13000.00000" pt_clust_6="13000.00000" pt_clust_7="13000.00000" pt_clust_8="13000.00000" pt_clust_9="20.50953"></scales>
<clustering>
<clus scale="   20.510">  2  9  1 -1</clus>
<clus scale="   77.249">  5  6 -1 -1</clus>
<clus scale="   92.402">  7  8 -1 -1</clus>
<clus scale="   95.547">  2  5  1 -1</clus>
<clus scale="   20.510">  2  5  1 -1</clus>
</clustering>
</event>
<event>
 9    2  0.6190160E-005  0.1270545E+03  0.7546771E-02  0.1235578E+00
         21   -1    0    0  501  502  0.00000000000E+00  0.00000000000E+00  0.62279435949E+02  0.62279435949E+02  0.00000000000E+00 0.  1.
          2   -1    0    0  502    0 -0.00000000000E+00 -0.00000000000E+00 -0.50999728530E+03  0.50999728530E+03  0.00000000000E+00 0. -1.
         24    2    1    2    0    0 -0.77508759201E+02 -0.50795835109E+02 -0.39203276192E+03  0.41042830565E+03  0.78574060874E+02 0.  0.
         23    2    1    2    0    0  0.42655654943E+02  0.56494138274E+02 -0.49006707762E+02  0.12590665312E+03  0.91868032180E+02 0.  0.
        -11    1    3    3    0    0 -0.63643558292E+02 -0.69944243707E+02 -0.26882611725E+03  0.28497400067E+03  0.00000000000E+00 0.  1.
         12    1    3    3    0    0 -0.13865200909E+02  0.19148408598E+02 -0.12320664466E+03  0.12545430498E+03  0.00000000000E+00 0. -1.
        -11    1    4    4    0    0 -0.26139816989E+02  0.27446269675E+02 -0.31309521794E+02  0.49161711791E+02  0.00000000000E+00 0. -1.
         11    1    4    4    0    0  0.68795471932E+02  0.29047868599E+02 -0.17697185967E+02  0.76744941330E+02  0.00000000000E+00 0.  1.
          1    1    1    2  501    0  0.34853104258E+02 -0.56983031648E+01 -0.66783796751E+01  0.35941762484E+02  0.00000000000E+00 0. -1.
<scales pt_clust_5="13000.00000" pt_clust_6="13000.00000" pt_clust_7="13000.00000" pt_clust_8="13000.00000" pt_clust_9="35.31585"></scales>
<clustering>
<clus scale="   35.316">  1  9  2 -1</clus>
<clus scale="   78.574">  5  6 -1 -1</clus>
<clus scale="   91.868">  7  8 -1 -1</clus>
<clus scale="  117.801">  2  5  1 -1</clus>
<clus scale="   35.316">  1  5  2 -1</clus>
</clustering>
</event>
<event>
 9    2  0.6190160E-005  0.9210989E+02  0.7546771E-02  0.1303120E+00
         -1   -1    0    0    0  501 -0.00000000000E+00  0.00000000000E+00  0.53061212218E+03  0.53061212218E+03  0.00000000000E+00 0.  1.
         21   -1    0    0  501  502  0.00000000000E+00 -0.00000000000E+00 -0.31484540426E+02  0.31484540426E+02  0.00000000000E+00 0. -1.
         24    2    1    2    0    0 -0.13222162640E+02  0.49862401228E+01  0.26587262004E+03  0.27902020508E+03  0.83452600790E+02 0.  0.
         23    2    1    2    0    0 -0.33076681671E+02  0.11465981844E+02  0.20234127467E+03  0.22502549166E+03  0.92026870261E+02 0.  0.
        -11    1    3    3    0    0  0.13748925006E+02  0.37638093615E+02  0.16117432198E+03  0.16608076678E+03  0.00000000000E+00 0.  1.
         12    1    3    3    0    0 -0.26971087646E+02 -0.32651853492E+02  0.10469829807E+03  0.11293943830E+03  0.00000000000E+00 0. -1.
        -11    1    4    4    0    0 -0.31821447143E+02  0.45477645724E+02  0.16690376911E+03  0.17589112798E+03  0.00000000000E+00 0. -1.
         11    1    4    4    0    0 -0.12552345276E+01 -0.34011663880E+02  0.35437505563E+02  0.49134363679E+02  0.00000000000E+00 0.  1.
         -2    1    1    2    0  502  0.46298844310E+02 -0.16452221967E+02  0.30913687044E+02  0.58050965873E+02  0.00000000000E+00 0.  1.
<scales pt_clust_5="13000.00000" pt_clust_6="13000.00000" pt_clust_7="13000.00000" pt_clust_8="13000.00000" pt_clust_9="49.13511"></scales>
<clustering>
<clus scale="   49.135">  2  9  1 -1</clus>
<clus scale="   83.453">  5  6 -1 -1</clus>
<clus scale="   83.544">  1  5  2 -1</clus>
<clus scale="   92.027">  7  8 -1 -1</clus>
<clus scale="   49.135">  2  5  1 -1</clus>
</clustering>
</event>
<event>
 9    2  0.6190160E-005  0.1256624E+03  0.7546771E-02  0.1235588E+00
          4   -1    0    0  502    0 -0.00000000000E+00  0.00000000000E+00  0.40117033025E+03  0.40117033025E+03  0.00000000000E+00 0. -1.
         21   -1    0    0  501  502  0.00000000000E+00 -0.00000000000E+00 -0.87575529017E+02  0.87575529017E+02  0.00000000000E+00 0. -1.
         24    2    1    2    0    0 -0.72577137850E+02  0.93985506684E+02  0.24320881243E+03  0.28410124365E+03  0.86384453425E+02 0.  0.
         23    2    1    2    0    0  0.43737774782E+01 -0.28081468484E+02  0.24084658465E+02  0.99103847159E+02  0.91835738940E+02 0.  0.
        -13    1    3    3    0    0  0.18516607178E+01  0.58152801217E+02  0.62402190903E+02  0.85318288580E+02  0.00000000000E+00 0.  1.
         14    1    3    3    0    0 -0.74428798568E+02  0.35832705467E+02  0.18080662152E+03  0.19878295507E+03  0.00000000000E+00 0. -1.
        -13    1    4    4    0    0  0.42055742145E+02 -0.50492502079E+00  0.30523166740E+02  0.51967336900E+02  0.00000000000E+00 0.  1.
         13    1    4    4    0    0 -0.37681964667E+02 -0.27576543463E+02 -0.64385082750E+01  0.47136510259E+02  0.00000000000E+00 0. -1.
          3    1    1    2  501    0  0.68203360372E+02 -0.65904038200E+02  0.46301330346E+02  0.10554076847E+03  0.00000000000E+00 0. -1.
<scales pt_clust_5="13000.00000" pt_clust_6="13000.00000" pt_clust_7="13000.00000" pt_clust_8="13000.00000" pt_clust_9="94.84219"></scales>
<clustering>
<clus scale="   86.384">  5  6 -1 -1</clus>
<clus scale="   91.836">  7  8 -1 -1</clus>
<clus scale="   94.842">  2  9  1 -1</clus>
<clus scale="  121.735">  1  5  2 -1</clus>
<clus scale="   94.842">  2  5  1 -1</clus>
</clustering>
</event>
<event>
 9    2  0.6190160E-005  0.2613154E+03  0.7546771E-02  0.1106494E+00
         21   -1    0    0  501  502  0.00000000000E+00  0.00000000000E+00  0.57835529563E+03  0.57835529563E+03  0.00000000000E+00 0.  1.
         -3   -1    0    0    0  501 -0.00000000000E+00 -0.00000000000E+00 -0.17688254674E+03  0.17688254674E+03  0.00000000000E+00 0.  1.
         24    2    1    2    0    0 -0.24526369619E+03 -0.53378273389E+02  0.32040336412E+02  0.26822994187E+03  0.88978636851E+02 0.  0.
         23    2    1    2    0    0  0.22571882358E+03  0.30373054928E+02  0.38218070654E+03  0.45423960603E+03  0.91651609075E+02 0.  0.
        -11    1    3    3    0    0 -0.23064183895E+03 -0.48612275770E+02  0.53619896061E+02  0.24173105817E+03  0.00000000000E+00 0.  1.
         12    1    3    3    0    0 -0.14621857241E+02 -0.47659976192E+01 -0.21579559649E+02  0.26498883696E+02  0.00000000000E+00 0. -1.
        -13    1    4    4    0    0  0.12201548569E+03  0.26313361418E+02  0.12383514413E+03  0.17582751394E+03  0.00000000000E+00 0.  1.
         13    1    4    4    0    0  0.10370333789E+03  0.40596935099E+01  0.25834556241E+03  0.27841209208E+03  0.00000000000E+00 0. -1.
         -4    1    1    2    0  502  0.19544872611E+02  0.23005218461E+02 -0.12748294060E+02  0.32768294482E+02  0.00000000000E+00 0.  1.
<scales pt_clust_5="13000.00000" pt_clust_6="13000.00000" pt_clust_7="13000.00000" pt_clust_8="13000.00000" pt_clust_9="30.18680"></scales>
<clustering>
<clus scale="   30.187">  1  9  2 -1</clus>
<clus scale="   88.979">  5  6 -1 -1</clus>
<clus scale="   91.652">  7  8 -1 -1</clus>
<clus scale="  260.390">  2  5  1 -1</clus>
<clus scale="   30.187">  1  5  2 -1</clus>
</clustering>
</event>
<event>
 9    2  0.6190160E-005  0.1526079E+03  0.7546771E-02  0.1199191E+00
          4   -1    0    0  502    0 -0.00000000000E+00  0.00000000000E+00  0.87109616272E+02  0.87109616272E+02  0.00000000000E+00 0. -1.
         21   -1    0    0  501  502  0.00000000000E+00 -0.00000000000E+00 -0.41285303761E+03  0.41285303761E+03  0.00000000000E+00 0.  1.
         23    2    1    2    0    0 -0.14839684952E+03 -0.35329678202E+02 -0.12995546534E+03  0.22013759396E+03  0.91117101539E+02 0.  0.
         24    2    1    2    0    0  0.83780109751E+02  0.32314105101E+02 -0.17379699058E+03  0.21150215528E+03  0.80401863006E+02 0.  0.
        -11    1    4    4    0    0  0.64922607756E+00  0.35260227359E+02 -0.70906299161E+02  0.79192224294E+02  0.00000000000E+00 0.  1.
         12    1    4    4    0    0  0.83130883674E+02 -0.29461222581E+01 -0.10289069142E+03  0.13230993099E+03  0.00000000000E+00 0. -1.
        -11    1    3    3    0    0 -0.13691247466E+03 -0.58228724435E+02 -0.12437467152E+03  0.19391923314E+03  0.00000000000E+00 0.  1.
         11    1    3    3    0    0 -0.11484374857E+02  0.22899046233E+02 -0.55807938257E+01  0.26218360818E+02  0.00000000000E+00 0. -1.
          3    1    1    2  501    0  0.64616739767E+02  0.30155731013E+01 -0.21990965418E+02  0.68322904646E+02  0.00000000000E+00 0. -1.
<scales pt_clust_5="13000.00000" pt_clust_6="13000.00000" pt_clust_7="13000.00000" pt_clust_8="13000.00000" pt_clust_9="64.68710"></scales>
<clustering>
<clus scale="   64.687">  2  9  1 -1</clus>
<clus scale="   80.402">  5  6 -1 -1</clus>
<clus scale="   91.117">  7  8 -1 -1</clus>
<clus scale="  146.463">  2  5  1 -1</clus>
<clus scale="   64.687">  2  5  1 -1</clus>
</clustering>
</event>
<event>
 9    2  0.6190160E-005  0.9187604E+02  0.7546771E-02  0.1304219E+00
         21   -1    0    0  501  502  0.00000000000E+00  0.00000000000E+00  0.63419866545E+02  0.63419866545E+02  0.00000000000E+00 0. -1.
          2   -1    0    0  502    0 -0.00000000000E+00 -0.00000000000E+00 -0.23636455789E+03  0.23636455789E+03  0.00000000000E+00 0. -1.
         23    2    1    2    0    0  0.40071708791E+02 -0.12655210982E+02 -0.97943642302E+02  0.13981293435E+03  0.90492007016E+02 0.  0.
         24    2    1    2    0    0  0.77115401090E+01 -0.14103892150E+02 -0.63176213436E+02  0.10394368259E+03  0.80960901557E+02 0.  0.
        -11    1    4    4    0    0  0.24768839000E+02 -0.42024974872E+02 -0.45728501030E+02  0.66863216381E+02  0.00000000000E+00 0.  1.
         12    1    4    4    0    0 -0.17057298891E+02  0.27921082722E+02 -0.17447712406E+02  0.37080466205E+02  0.00000000000E+00 0. -1.
        -13    1    3    3    0    0 -0.17239938953E+02 -0.32471543740E+02 -0.22830442538E+02  0.43276387955E+02  0.00000000000E+00 0. -1.
         13    1    3    3    0    0  0.57311647744E+02  0.19816332758E+02 -0.75113199763E+02  0.96536546394E+02  0.00000000000E+00 0.  1.
          1    1    1    2  501    0 -0.47783248900E+02  0.26759103133E+02 -0.11824835605E+02  0.56027807497E+02  0.00000000000E+00 0. -1.
<scales pt_clust_5="13000.00000" pt_clust_6="13000.00000" pt_clust_7="13000.00000" pt_clust_8="13000.00000" pt_clust_9="54.76576"></scales>
<clustering>
<clus scale="   54.766">  1  9  2 -1</clus>
<clus scale="   80.961">  5  6 -1 -1</clus>
<clus scale="   82.505">  1  5  2 -1</clus>
<clus scale="   90.492">  7  8 -1 -1</clus>
<clus scale="   54.766">  1  5  2 -1</clus>
</clustering>
</event>
<event>
 9    2  0.6190160E-005  0.9474589E+02  0.7546771E-02  0.1295155E+00
         21   -1    0    0  501  502  0.00000000000E+00  0.00000000000E+00  0.46315203789E+02  0.46315203789E+02  0.00000000000E+00 0. -1.
          2   -1    0    0  502    0 -0.00000000000E+00 -0.00000000000E+00 -0.23655907837E+03  0.23655907837E+03  0.00000000000E+00 0. -1.
         24    2    1    2    0    0 -0.23196948830E+02 -0.11938089015E+02 -0.94433421747E+02  0.12869491864E+03  0.83451150593E+02 0.  0.
         23    2    1    2    0    0  0.20565983552E+02  0.34392377235E+02 -0.77229140315E+02  0.12491535469E+03  0.89630968048E+02 0.  0.
        -13    1    3    3    0    0 -0.44974460097E+02  0.19268873859E+02 -0.46580337324E+02  0.67555306128E+02  0.00000000000E+00 0.  1.
         14    1    3    3    0    0  0.21777511267E+02 -0.31206962874E+02 -0.47853084423E+02  0.61139612507E+02  0.00000000000E+00 0. -1.
        -11    1    4    4    0    0  0.58250087380E+01 -0.30798176239E+02 -0.24819796179E+02  0.39981003850E+02  0.00000000000E+00 0.  1.
         11    1    4    4    0    0  0.14740974814E+02  0.65190553474E+02 -0.52409344136E+02  0.84934350844E+02  0.00000000000E+00 0. -1.
          1    1    1    2  501    0  0.26309652782E+01 -0.22454288220E+02 -0.18581312516E+02  0.29264008826E+02  0.00000000000E+00 0. -1.
<scales pt_clust_5="13000.00000" pt_clust_6="13000.00000" pt_clust_7="13000.00000" pt_clust_8="13000.00000" pt_clust_9="22.60790"></scales>
<clustering>
<clus scale="   22.608">  1  9  2 -1</clus>
<clus scale="   83.451">  5  6 -1 -1</clus>
<clus scale="   88.922">  2  5  1 -1</clus>
<clus scale="   89.631">  7  8 -1 -1</clus>
<clus scale="   22.608">  1  5  2 -1</clus>
</clustering>
</event>
<event>
 9    2  0.6190160E-005  0.1033987E+03  0.7546771E-02  0.1278236E+00
         21   -1    0    0  501  502  0.00000000000E+00  0.00000000000E+00  0.23914713268E+02  0.23914713268E+02  0.00000000000E+00 0.  1.
          2   -1    0    0  502    0 -0.00000000000E+00 -0.00000000000E+00 -0.91914749323E+03  0.91914749323E+03  0.00000000000E+00 0. -1.
         23    2    1    2    0    0  0.68765466114E+02  0.27488614674E+01 -0.45206095558E+03  0.46610745853E+03  0.90337200383E+02 0.  0.
         24    2    1    2    0    0 -0.95523246460E+01 -0.36221477112E+02 -0.13301384016E+03  0.15942587164E+03  0.79502733065E+02 0.  0.
        -11    1    4    4    0    0 -0.11223184117E+02 -0.48040455342E+02 -0.34521308053E+02  0.60212672428E+02  0.00000000000E+00 0.  1.
         12    1    4    4    0    0  0.16708594707E+01  0.11818978230E+02 -0.98492532106E+02  0.99213199215E+02  0.00000000000E+00 0. -1.
        -11    1    3    3    0    0 -0.17548806177E+02 -0.12841321669E+02 -0.48920718614E+02  0.53535939798E+02  0.00000000000E+00 0.  1.
         11    1    3    3    0    0  0.86314272291E+02  0.15590183136E+02 -0.40314023696E+03  0.41257151873E+03  0.00000000000E+00 0. -1.
          1    1    1    2  501    0 -0.59213141468E+02  0.33472615644E+02 -0.31015798423E+03  0.31752887633E+03  0.00000000000E+00 0. -1.
<scales pt_clust_5="13000.00000" pt_clust_6="13000.00000" pt_clust_7="13000.00000" pt_clust_8="13000.00000" pt_clust_9="68.01924"></scales>
<clustering>
<clus scale="   68.019">  1  9  2 -1</clus>
<clus scale="   79.503">  5  6 -1 -1</clus>
<clus scale="   90.337">  7  8 -1 -1</clus>
<clus scale="   94.081">  1  5  2 -1</clus>
<clus scale="   68.019">  1  5  2 -1</clus>
</clustering>
</event>
<event>
 9    2  0.6190160E-005  0.3020372E+03  0.7546771E-02  0.1101071E+00
         21   -1    0    0  501  502  0.00000000000E+00  0.00000000000E+00  0.28070701844E+03  0.28070701844E+03  0.00000000000E+00 0. -1.
          2   -1    0    0  502    0 -0.00000000000E+00 -0.00000000000E+00 -0.77696812008E+03  0.77696812008E+03  0.00000000000E+00 0. -1.
         23    2    1    2    0    0 -0.16633746756E+02  0.16986119382E+03 -0.68428529785E+02  0.20563752021E+03  0.92058781947E+02 0.  0.
         24    2    1    2    0    0 -0.79415663855E+02 -0.40991672565E+03 -0.41363338743E+03  0.59309020188E+03  0.79528854738E+02 0.  0.
        -13    1    4    4    0    0 -0.26655924494E+02 -0.15874527057E+03 -0.10730343510E+03  0.19345445568E+03  0.00000000000E+00 0.  1.
         14    1    4    4    0    0 -0.52759739361E+02 -0.25117145508E+03 -0.30632995233E+03  0.39963574620E+03  0.00000000000E+00 0. -1.
        -11    1    3    3    0    0  0.12264842395E+02  0.16394065538E+03 -0.59092623247E+02  0.17469660262E+03  0.00000000000E+00 0.  1.
         11    1    3    3    0    0 -0.28898589151E+02  0.59205384370E+01 -0.93359065387E+01  0.30940917589E+02  0.00000000000E+00 0. -1.
          1    1    1    2  501    0  0.96049410611E+02  0.24005553183E+03 -0.14199184428E+02  0.25894741644E+03  0.00000000000E+00 0. -1.
<scales pt_clust_5="13000.00000" pt_clust_6="13000.00000" pt_clust_7="13000.00000" pt_clust_8="13000.00000" pt_clust_9="291.37886"></scales>
<clustering>
<clus scale="   79.529">  5  6 -1 -1</clus>
<clus scale="   92.059">  7  8 -1 -1</clus>
<clus scale="  193.918">  2  7  1 -1</clus>
<clus scale="  291.379">  1  9  2 -1</clus>
<clus scale="  291.379">  1  5  2 -1</clus>
</clustering>
</event>
<event>
 9    2  0.6190160E-005  0.1008554E+03  0.7546771E-02  0.1280650E+00
         21   -1    0    0  501  502  0.00000000000E+00  0.00000000000E+00  0.20378962364E+03  0.20378962364E+03  0.00000000000E+00 0. -1.
          2   -1    0    0  502    0 -0.00000000000E+00 -0.00000000000E+00 -0.13890411395E+03  0.13890411395E+03  0.00000000000E+00 0. -1.
         23    2    1    2    0    0  0.24843461236E+02 -0.52938579658E+02 -0.96874719649E+02  0.14152165012E+03  0.84993972517E+02 0.  0.
         24    2    1    2    0    0 -0.75355285191E-02  0.31080035350E+02  0.12499729817E+03  0.15171369816E+03  0.80167031905E+02 0.  0.
        -11    1    4    4    0    0 -0.16706022488E+02  0.53548349329E+02  0.67513244331E+02  0.87775594919E+02  0.00000000000E+00 0.  1.
         12    1    4    4    0    0  0.16698486960E+02 -0.22468313980E+02  0.57484053840E+02  0.63938103238E+02  0.00000000000E+00 0. -1.
        -11    1    3    3    0    0  0.48424990845E+01 -0.49076497836E+02 -0.75327468227E+01  0.49886819019E+02  0.00000000000E+00 0.  1.
         11    1    3    3    0    0  0.20000962151E+02 -0.38620818228E+01 -0.89341972827E+02  0.91634831105E+02  0.00000000000E+00 0. -1.
          1    1    1    2  501    0 -0.24835925707E+02  0.21858544309E+02  0.36762931174E+02  0.49458389314E+02  0.00000000000E+00 0. -1.
<scales pt_clust_5="13000.00000" pt_clust_6="13000.00000" pt_clust_7="13000.00000" pt_clust_8="13000.00000" pt_clust_9="33.08503"></scales>
<clustering>
<clus scale="   33.085">  1  9  2 -1</clus>
<clus scale="   80.167">  5  6 -1 -1</clus>
<clus scale="   84.994">  7  8 -1 -1</clus>
<clus scale="   96.822">  1  5  2 -1</clus>
<clus scale="   33.085">  1  5  2 -1</clus>
</clustering>
</event>
<event>
 9    2  0.6190160E-005  0.1122798E+03  0.7546771E-02  0.1256978E+00
         21   -1    0    0  501  502  0.00000000000E+00  0.00000000000E+00  0.31140192629E+02  0.31140192629E+02  0.00000000000E+00 0. -1.
         -1   -1    0    0    0  501 -0.00000000000E+00 -0.00000000000E+00 -0.54685985722E+03  0.54685985722E+03  0.00000000000E+00 0.  1.
         23    2    1    2    0    0 -0.56606314159E+01 -0.55095449315E+02 -0.30551026660E+03  0.32446770445E+03  0.94208369841E+02 0.  0.
         24    2    1    2    0    0  0.24647302727E+02  0.68349534990E+02 -0.18491765461E+03  0.21924186920E+03  0.92700106581E+02 0.  0.
        -11    1    4    4    0    0  0.34150618790E+02  0.74476990782E+02 -0.18994835793E+03  0.20686581545E+03  0.00000000000E+00 0.  1.
         12    1    4    4    0    0 -0.95033160626E+01 -0.61274557918E+01  0.50307033217E+01  0.12376053756E+02  0.00000000000E+00 0. -1.
        -11    1    3    3    0    0 -0.38157126227E+02  0.38572831161E+01 -0.73704093068E+02  0.83085126527E+02  0.00000000000E+00 0.  1.
         11    1    3    3    0    0  0.32496494812E+02 -0.58952732431E+02 -0.23180617353E+03  0.24138257792E+03  0.00000000000E+00 0. -1.
         -2    1    1    2    0  502 -0.18986671311E+02 -0.13254085675E+02 -0.25291743376E+02  0.34290476193E+02  0.00000000000E+00 0.  1.
<scales pt_clust_5="13000.00000" pt_clust_6="13000.00000" pt_clust_7="13000.00000" pt_clust_8="13000.00000" pt_clust_9="23.15523"></scales>
<clustering>
<clus scale="   23.155">  1  9  2 -1</clus>
<clus scale="   92.700">  5  6 -1 -1</clus>
<clus scale="   94.208">  7  8 -1 -1</clus>
<clus scale="  111.017">  1  5  2 -1</clus>
<clus scale="   23.155">  1  5  2 -1</clus>
</clustering>
</event>
<event>
 9    2  0.6190160E-005  0.2747403E+03  0.7546771E-02  0.1098774E+00
          2   -1    0    0  502    0 -0.00000000000E+00  0.00000000000E+00  0.20502355744E+04  0.20502355744E+04  0.00000000000E+00 0. -1.
         21   -1    0    0  501  502  0.00000000000E+00 -0.00000000000E+00 -0.69676520055E+02  0.69676520055E+02  0.00000000000E+00 0. -1.
         24    2    1    2    0    0 -0.23852344785E+03 -0.11870376467E+03  0.14060419268E+04  0.14333876126E+04  0.81621865543E+02 0.  0.
         23    2    1    2    0    0  0.24709459496E+03  0.57923017418E+02  0.56380748239E+03  0.62421509018E+03  0.85760053692E+02 0.  0.
        -13    1    3    3    0    0 -0.23705890545E+03 -0.10281955350E+03  0.13670940627E+04  0.13912997382E+04  0.00000000000E+00 0.  1.
         14    1    3    3    0    0 -0.14645424001E+01 -0.15884211161E+02  0.38947864122E+02  0.42087874362E+02  0.00000000000E+00 0. -1.
        -13    1    4    4    0    0  0.21027646667E+03  0.15155915042E+02  0.46155949864E+03  0.50742789141E+03  0.00000000000E+00 0. -1.
         13    1    4    4    0    0  0.36818128285E+02  0.42767102376E+02  0.10224798375E+03  0.11678719877E+03  0.00000000000E+00 0.  1.
          1    1    1    2  501    0 -0.85711471090E+01  0.60780747247E+02  0.10709645149E+02  0.62309391731E+02  0.00000000000E+00 0. -1.
<scales pt_clust_5="13000.00000" pt_clust_6="13000.00000" pt_clust_7="13000.00000" pt_clust_8="13000.00000" pt_clust_9="61.38211"></scales>
<clustering>
<clus scale="   61.382">  2  9  1 -1</clus>
<clus scale="   81.622">  5  6 -1 -1</clus>
<clus scale="   85.760">  7  8 -1 -1</clus>
<clus scale="  273.477">  1  5  2 -1</clus>
<clus scale="   61.382">  2  5  1 -1</clus>
</clustering>
</event>
<event>
 9    2  0.6190160E-005  0.9481938E+02  0.7546771E-02  0.1298626E+00
          2   -1    0    0  502    0 -0.00000000000E+00  0.00000000000E+00  0.73574960406E+02  0.73574960406E+02  0.00000000000E+00 0. -1.
         21   -1    0    0  501  502  0.00000000000E+00 -0.00000000000E+00 -0.31916897388E+03  0.31916897388E+03  0.00000000000E+00 0. -1.
         23    2    1    2    0    0 -0.38199498829E+02  0.20553407437E+02 -0.17353670023E+02  0.10329073345E+03  0.92120472671E+02 0.  0.
         24    2    1    2    0    0 -0.31270838393E+02  0.21502854660E+02 -0.16196791802E+03  0.18463482789E+03  0.80101030640E+02 0.  0.
        -13    1    4    4    0    0  0.20027751072E+02 -0.54683604682E+00 -0.96644944097E+02  0.98699823010E+02  0.00000000000E+00 0.  1.
         14    1    4    4    0    0 -0.51298589465E+02  0.22049690706E+02 -0.65322973919E+02  0.85935004876E+02  0.00000000000E+00 0. -1.
        -11    1    3    3    0    0  0.29832189239E+02  0.14537378724E+02 -0.96507261425E+01  0.34560547015E+02  0.00000000000E+00 0. -1.
         11    1    3    3    0    0 -0.68031688067E+02  0.60160287134E+01 -0.77029438808E+01  0.68730186434E+02  0.00000000000E+00 0.  1.
          1    1    1    2  501    0  0.69470337222E+02 -0.42056262097E+02 -0.66272425436E+02  0.10481837295E+03  0.00000000000E+00 0. -1.
<scales pt_clust_5="13000.00000" pt_clust_6="13000.00000" pt_clust_7="13000.00000" pt_clust_8="13000.00000" pt_clust_9="81.20872"></scales>
<clustering>
<clus scale="   80.101">  5  6 -1 -1</clus>
<clus scale="   81.209">  2  9  1 -1</clus>
<clus scale="   83.191">  2  5  1 -1</clus>
<clus scale="   92.120">  7  8 -1 -1</clus>
<clus scale="   81.209">  2  5  1 -1</clus>
</clustering>
</event>
<event>
 9    2  0.6190160E-005  0.9600199E+02  0.7546771E-02  0.1294833E+00
         21   -1    0    0  501  502  0.00000000000E+00  0.00000000000E+00  0.82341342643E+02  0.82341342643E+02  0.00000000000E+00 0.  1.
          2   -1    0    0  502    0 -0.00000000000E+00 -0.00000000000E+00 -0.18345713023E+03  0.18345713023E+03  0.00000000000E+00 0. -1.
         24    2    1    2    0    0  0.12330058633E+02 -0.32104929846E+02 -0.11600744103E+03  0.14563345768E+03  0.81047028055E+02 0.  0.
         23    2    1    2    0    0 -0.63449930902E+01  0.59803279866E+01  0.15735542541E+02  0.93350318093E+02  0.91600498518E+02 0.  0.
        -13    1    3    3    0    0  0.36329169336E+02 -0.22350372538E+02 -0.21746625089E+02  0.47877587659E+02  0.00000000000E+00 0.  1.
         14    1    3    3    0    0 -0.23999110703E+02 -0.97545573079E+01 -0.94260815937E+02  0.97755870023E+02  0.00000000000E+00 0. -1.
        -11    1    4    4    0    0 -0.32729567179E+02  0.83880778351E+01 -0.26876551743E+02  0.43173295578E+02  0.00000000000E+00 0. -1.
         11    1    4    4    0    0  0.26384574089E+02 -0.24077498486E+01  0.42612094283E+02  0.50177022514E+02  0.00000000000E+00 0.  1.
          1    1    1    2  501    0 -0.59850655429E+01  0.26124601859E+02 -0.84388910465E+00  0.26814697102E+02  0.00000000000E+00 0. -1.
<scales pt_clust_5="13000.00000" pt_clust_6="13000.00000" pt_clust_7="13000.00000" pt_clust_8="13000.00000" pt_clust_9="26.80141"></scales>
<clustering>
<clus scale="   26.801">  1  9  2 -1</clus>
<clus scale="   81.047">  5  6 -1 -1</clus>
<clus scale="   85.990">  2  5  1 -1</clus>
<clus scale="   91.600">  7  8 -1 -1</clus>
<clus scale="   26.801">  1  5  2 -1</clus>
</clustering>
</event>
<event>
 9    2  0.6190160E-005  0.9077836E+02  0.7546771E-02  0.1306137E+00
         -1   -1    0    0    0  501 -0.00000000000E+00  0.00000000000E+00  0.55295594094E+03  0.55295594094E+03  0.00000000000E+00 0.  1.
         21   -1    0    0  501  502  0.00000000000E+00 -0.00000000000E+00 -0.25689501265E+02  0.25689501265E+02  0.00000000000E+00 0.  1.
         24    2    1    2    0    0 -0.97196021432E+01  0.11375661050E+02  0.25866134080E+03  0.27187802405E+03  0.82389892632E+02 0.  0.
         23    2    1    2    0    0 -0.10649200311E+02  0.33145950123E+02  0.20195218113E+03  0.22406510005E+03  0.90600364910E+02 0.  0.
        -13    1    3    3    0    0 -0.35813266903E+02  0.10179414834E+02  0.54206632271E+02  0.65761459494E+02  0.00000000000E+00 0.  1.
         14    1    3    3    0    0  0.26093664760E+02  0.11962462162E+01  0.20445470853E+03  0.20611656456E+03  0.00000000000E+00 0. -1.
        -13    1    4    4    0    0 -0.51795258628E+01 -0.25364169045E+02  0.12270889309E+03  0.12540989196E+03  0.00000000000E+00 0. -1.
         13    1    4    4    0    0 -0.54696744482E+01  0.58510119167E+02  0.79243288044E+02  0.98655208092E+02  0.00000000000E+00 0.  1.
         -2    1    1    2    0  502  0.20368802454E+02 -0.44521611172E+02  0.66652917738E+02  0.82702318092E+02  0.00000000000E+00 0.  1.
<scales pt_clust_5="13000.00000" pt_clust_6="13000.00000" pt_clust_7="13000.00000" pt_clust_8="13000.00000" pt_clust_9="48.95980"></scales>
<clustering>
<clus scale="   48.960">  2  9  1 -1</clus>
<clus scale="   82.390">  5  6 -1 -1</clus>
<clus scale="   82.586">  1  5  2 -1</clus>
<clus scale="   90.600">  7  8 -1 -1</clus>
<clus scale="   48.960">  2  5  1 -1</clus>
</clustering>
</event>
<event>
 9    2  0.7803638E-005  0.2715621E+03  0.7546771E-02  0.1100785E+00
          2   -1    0    0  502    0 -0.00000000000E+00  0.00000000000E+00  0.80204238108E+03  0.80204238108E+03  0.00000000000E+00 0. -1.
         21   -1    0    0  501  502  0.00000000000E+00 -0.00000000000E+00 -0.24969353691E+03  0.24969353691E+03  0.00000000000E+00 0. -1.
         24    2    1    2    0    0  0.15729568392E+03  0.20653098264E+03  0.49387118832E+03  0.56401642828E+03  0.82515463692E+02 0.  0.
         23    2    1    2    0    0 -0.15671915727E+03 -0.17303203112E+03 -0.13956980549E+03  0.28685807212E+03  0.91141894240E+02 0.  0.
        -13    1    3    3    0    0  0.75182837116E+02  0.63532575962E+02  0.11867793350E+03  0.15418592383E+03  0.00000000000E+00 0.  1.
         14    1    3    3    0    0  0.82112846801E+02  0.14299840668E+03  0.37519325481E+03  0.40983050445E+03  0.00000000000E+00 0. -1.
        -11    1    4    4    0    0 -0.56681698370E+02 -0.50026040695E+02  0.43353472769E-01  0.75600407123E+02  0.00000000000E+00 0.  1.
         11    1    4    4    0    0 -0.10003745890E+03 -0.12300599043E+03 -0.13961315896E+03  0.21125766500E+03  0.00000000000E+00 0. -1.
          1    1    1    2  501    0 -0.57652664766E+00 -0.33498951513E+02  0.19804746133E+03  0.20086141759E+03  0.00000000000E+00 0. -1.
<scales pt_clust_5="13000.00000" pt_clust_6="13000.00000" pt_clust_7="13000.00000" pt_clust_8="13000.00000" pt_clust_9="33.50393"></scales>
<clustering>
<clus scale="   33.504">  2  9  1 -1</clus>
<clus scale="   82.515">  5  6 -1 -1</clus>
<clus scale="   91.142">  7  8 -1 -1</clus>
<clus scale="  268.790">  1  5  2 -1</clus>
<clus scale="   33.504">  2  5  1 -1</clus>
</clustering>
</event>
<event>
 9    2  0.6190160E-005  0.1541080E+03  0.7546771E-02  0.1198540E+00
          2   -1    0    0  502    0 -0.00000000000E+00  0.00000000000E+00  0.95478662584E+03  0.95478662584E+03  0.00000000000E+00 0. -1.
         21   -1    0    0  501  502  0.00000000000E+00 -0.00000000000E+00 -0.58384287191E+02  0.58384287191E+02  0.00000000000E+00 0. -1.
         24    2    1    2    0    0  0.25202496802E+02  0.12127894430E+03  0.41296014540E+03  0.43915705188E+03  0.83540926230E+02 0.  0.
         23    2    1    2    0    0  0.85672643771E+02 -0.10725157825E+03  0.16534132684E+03  0.23685184519E+03  0.99590859416E+02 0.  0.
        -11    1    3    3    0    0  0.11967567737E+01  0.30293566038E+02  0.23136496757E+02  0.38136987981E+02  0.00000000000E+00 0.  1.
         12    1    3    3    0    0  0.24005740029E+02  0.90985378261E+02  0.38982364864E+03  0.40102006390E+03  0.00000000000E+00 0. -1.
        -11    1    4    4    0    0  0.39547702297E+02  0.12046089450E+02  0.47053749738E+02  0.62635328628E+02  0.00000000000E+00 0.  1.
         11    1    4    4    0    0  0.46124941474E+02 -0.11929766770E+03  0.11828757710E+03  0.17421651656E+03  0.00000000000E+00 0. -1.
          1    1    1    2  501    0 -0.11087514057E+03 -0.14027366046E+02  0.31810086641E+03  0.33716201596E+03  0.00000000000E+00 0. -1.
<scales pt_clust_5="13000.00000" pt_clust_6="13000.00000" pt_clust_7="13000.00000" pt_clust_8="13000.00000" pt_clust_9="111.75901"></scales>
<clustering>
<clus scale="   83.541">  5  6 -1 -1</clus>
<clus scale="   99.591">  7  8 -1 -1</clus>
<clus scale="  111.759">  2  9  1 -1</clus>
<clus scale="  144.257">  1  5  2 -1</clus>
<clus scale="  111.759">  2  5  1 -1</clus>
</clustering>
</event>
<event>
 9    2  0.6190160E-005  0.1596072E+03  0.7546771E-02  0.1191010E+00
         -1   -1    0    0    0  501 -0.00000000000E+00  0.00000000000E+00  0.27949278796E+03  0.27949278796E+03  0.00000000000E+00 0.  1.
         21   -1    0    0  501  502  0.00000000000E+00 -0.00000000000E+00 -0.18195518350E+03  0.18195518350E+03  0.00000000000E+00 0. -1.
         24    2    1    2    0    0  0.11342303487E+03 -0.86008382300E+02  0.19187962867E+03  0.25213139480E+03  0.80561912077E+02 0.  0.
         23    2    1    2    0    0 -0.66701584366E+02  0.50478692484E+02 -0.82677855123E+02  0.14947256579E+03  0.92245435903E+02 0.  0.
        -13    1    3    3    0    0  0.71351354525E+02 -0.80923706004E+01  0.61613351644E+02  0.94618747378E+02  0.00000000000E+00 0.  1.
         14    1    3    3    0    0  0.42071680348E+02 -0.77916011699E+02  0.13026627703E+03  0.15751264742E+03  0.00000000000E+00 0. -1.
        -11    1    4    4    0    0 -0.49087868102E+02  0.34005540131E+02  0.36617035123E+01  0.59828117361E+02  0.00000000000E+00 0.  1.
         11    1    4    4    0    0 -0.17613716264E+02  0.16473152353E+02 -0.86339558636E+02  0.89644448431E+02  0.00000000000E+00 0. -1.
         -2    1    1    2    0  502 -0.46721450507E+02  0.35529689816E+02 -0.11664169087E+02  0.59844010865E+02  0.00000000000E+00 0.  1.
<scales pt_clust_5="13000.00000" pt_clust_6="13000.00000" pt_clust_7="13000.00000" pt_clust_8="13000.00000" pt_clust_9="58.69628"></scales>
<clustering>
<clus scale="   58.696">  2  9  1 -1</clus>
<clus scale="   80.562">  5  6 -1 -1</clus>
<clus scale="   92.245">  7  8 -1 -1</clus>
<clus scale="  153.152">  1  5  2 -1</clus>
<clus scale="   58.696">  2  5  1 -1</clus>
</clustering>
</event>
<event>
 9    2  0.6190160E-005  0.1280073E+03  0.7546771E-02  0.1233358E+00
         21   -1    0    0  501  502  0.00000000000E+00  0.00000000000E+00  0.74824653925E+03  0.74824653925E+03  0.00000000000E+00 0.  1.
         -3   -1    0    0    0  501 -0.00000000000E+00 -0.00000000000E+00 -0.75715669959E+02  0.75715669959E+02  0.00000000000E+00 0.  1.
         24    2    1    2    0    0  0.94907302434E+02  0.65221304883E+01  0.13844474512E+03  0.18357437225E+03  0.74045043418E+02 0.  0.
         23    2    1    2    0    0  0.46763595889E+02  0.65472268755E+02  0.43855282443E+03  0.45496818235E+03  0.90520800151E+02 0.  0.
        -11    1    3    3    0    0  0.10202122673E+03  0.50639354393E+01  0.94896997260E+02  0.13942529983E+03  0.00000000000E+00 0.  1.
         12    1    3    3    0    0 -0.71139242921E+01  0.14581950490E+01  0.43547747860E+02  0.44149072418E+02  0.00000000000E+00 0. -1.
        -13    1    4    4    0    0  0.26833958315E+02  0.82698716371E+02  0.39155067934E+03  0.40108736392E+03  0.00000000000E+00 0.  1.
         13    1    4    4    0    0  0.19929637574E+02 -0.17226447616E+02  0.47002145092E+02  0.53880818429E+02  0.00000000000E+00 0. -1.
         -4    1    1    2    0  502 -0.14167089832E+03 -0.71994399243E+02  0.95533299740E+02  0.18541965460E+03  0.00000000000E+00 0.  1.
<scales pt_clust_5="13000.00000" pt_clust_6="13000.00000" pt_clust_7="13000.00000" pt_clust_8="13000.00000" pt_clust_9="90.50893"></scales>
<clustering>
<clus scale="   74.045">  5  6 -1 -1</clus>
<clus scale="   90.521">  7  8 -1 -1</clus>
<clus scale="  120.551">  2  5  1 -1</clus>
<clus scale="   90.509">  1  9  2 -1</clus>
<clus scale="   90.509">  1  5  2 -1</clus>
</clustering>
</event>
<event>
 9    2  0.6190160E-005  0.1175120E+03  0.7546771E-02  0.1268082E+00
         21   -1    0    0  501  502  0.00000000000E+00  0.00000000000E+00  0.11135008870E+03  0.11135008870E+03  0.00000000000E+00 0.  1.
         -1   -1    0    0    0  501 -0.00000000000E+00 -0.00000000000E+00 -0.54773570807E+03  0.54773570807E+03  0.00000000000E+00 0.  1.
         23    2    1    2    0    0  0.30077130142E+02  0.85202088522E+01 -0.36545329530E+03  0.38379030247E+03  0.11296750643E+03 0.  0.
         24    2    1    2    0    0 -0.20039530798E+02  0.63978438354E+02 -0.14265080792E+03  0.17282428775E+03  0.70881295608E+02 0.  0.
        -11    1    4    4    0    0  0.16558338595E+02  0.46113446329E+02 -0.11070970280E+03  0.12106719953E+03  0.00000000000E+00 0.  1.
         12    1    4    4    0    0 -0.36597869393E+02  0.17864992025E+02 -0.31941105120E+02  0.51757088214E+02  0.00000000000E+00 0. -1.
        -13    1    3    3    0    0  0.48652856106E+02 -0.39910399430E+02 -0.23818191503E+03  0.24635455149E+03  0.00000000000E+00 0.  1.
         13    1    3    3    0    0 -0.18575725964E+02  0.48430608283E+02 -0.12727138027E+03  0.13743575098E+03  0.00000000000E+00 0. -1.
         -2    1    1    2    0  502 -0.10037599344E+02 -0.72498647206E+02  0.71718483840E+02  0.10247120655E+03  0.00000000000E+00 0.  1.
<scales pt_clust_5="13000.00000" pt_clust_6="13000.00000" pt_clust_7="13000.00000" pt_clust_8="13000.00000" pt_clust_9="73.19021"></scales>
<clustering>
<clus scale="   70.881">  5  6 -1 -1</clus>
<clus scale="   73.190">  1  9  2 -1</clus>
<clus scale="   77.920">  1  5  2 -1</clus>
<clus scale="  112.968">  7  8 -1 -1</clus>
<clus scale="   73.190">  1  5  2 -1</clus>
</clustering>
</event>
<event>
 9    2  0.6190160E-005  0.1011648E+03  0.7546771E-02  0.1283837E+00
         21   -1    0    0  501  502  0.00000000000E+00  0.00000000000E+00  0.58973847927E+03  0.58973847927E+03  0.00000000000E+00 0.  1.
         -3   -1    0    0    0  501 -0.00000000000E+00 -0.00000000000E+00 -0.57943051607E+02  0.57943051607E+02  0.00000000000E+00 0.  1.
         24    2    1    2    0    0  0.66216202949E+01 -0.45285387148E+02 -0.10022897771E+02  0.92141883906E+02  0.79341389865E+02 0.  0.
         23    2    1    2    0    0  0.28001228819E+01  0.17310901144E+02  0.40724680762E+03  0.41776869750E+03  0.91505269280E+02 0.  0.
        -11    1    3    3    0    0 -0.86469974179E+01 -0.53729836157E+02 -0.32730053528E+02  0.63505293179E+02  0.00000000000E+00 0.  1.
         12    1    3    3    0    0  0.15268617713E+02  0.84444490092E+01  0.22707155757E+02  0.28636590727E+02  0.00000000000E+00 0. -1.
        -11    1    4    4    0    0 -0.27278852181E+02  0.42167665072E+02  0.28664812462E+03  0.29101442421E+03  0.00000000000E+00 0. -1.
         11    1    4    4    0    0  0.30078975063E+02 -0.24856763928E+02  0.12059868300E+03  0.12675427328E+03  0.00000000000E+00 0.  1.
         -4    1    1    2    0  502 -0.94217431768E+01  0.27974486004E+02  0.13457151782E+03  0.13777094948E+03  0.00000000000E+00 0.  1.
<scales pt_clust_5="13000.00000" pt_clust_6="13000.00000" pt_clust_7="13000.00000" pt_clust_8="13000.00000" pt_clust_9="29.51849"></scales>
<clustering>
<clus scale="   29.518">  1  9  2 -1</clus>
<clus scale="   79.341">  5  6 -1 -1</clus>
<clus scale="   90.311">  2  5  1 -1</clus>
<clus scale="   91.505">  7  8 -1 -1</clus>
<clus scale="   29.518">  1  5  2 -1</clus>
</clustering>
</event>
<event>
 9    2  0.6581658E-005  0.1428926E+03  0.7546771E-02  0.1214005E+00
          2   -1    0    0  502    0 -0.00000000000E+00  0.00000000000E+00  0.53684158554E+03  0.53684158554E+03  0.00000000000E+00 0. -1.
         21   -1    0    0  501  502  0.00000000000E+00 -0.00000000000E+00 -0.28850591870E+03  0.28850591870E+03  0.00000000000E+00 0. -1.
         24    2    1    2    0    0  0.91916150668E+02  0.49014873178E+02  0.48836471622E+03  0.50568479297E+03  0.79787074413E+02 0.  0.
         23    2    1    2    0    0 -0.61459588199E+02 -0.54264593360E+02 -0.69972198072E+02  0.14682031359E+03  0.99690365156E+02 0.  0.
        -13    1    3    3    0    0  0.64138511710E+01  0.44643092861E+02  0.19001244052E+03  0.19529175809E+03  0.00000000000E+00 0.  1.
         14    1    3    3    0    0  0.85502299497E+02  0.43717803166E+01  0.29835227570E+03  0.31039303487E+03  0.00000000000E+00 0. -1.
        -13    1    4    4    0    0 -0.25211277448E+02  0.53959064568E+01 -0.72517945782E+02  0.76964776213E+02  0.00000000000E+00 0.  1.
         13    1    4    4    0    0 -0.36248310751E+02 -0.59660499816E+02  0.25457477092E+01  0.69855537375E+02  0.00000000000E+00 0. -1.
          1    1    1    2  501    0 -0.30456562470E+02  0.52497201819E+01 -0.17005685131E+03  0.17284239768E+03  0.00000000000E+00 0. -1.
<scales pt_clust_5="13000.00000" pt_clust_6="13000.00000" pt_clust_7="13000.00000" pt_clust_8="13000.00000" pt_clust_9="30.90569"></scales>
<clustering>
<clus scale="   30.906">  2  9  1 -1</clus>
<clus scale="   79.787">  5  6 -1 -1</clus>
<clus scale="   99.690">  7  8 -1 -1</clus>
<clus scale="  129.793">  1  5  2 -1</clus>
<clus scale="   30.906">  2  5  1 -1</clus>
</clustering>
</event>
<event>
 9    2  0.6190160E-005  0.9590534E+02  0.7546771E-02  0.1294470E+00
          2   -1    0    0  502    0 -0.00000000000E+00  0.00000000000E+00  0.85513794160E+03  0.85513794160E+03  0.00000000000E+00 0. -1.
         21   -1    0    0  501  502  0.00000000000E+00 -0.00000000000E+00 -0.16021127705E+02  0.16021127705E+02  0.00000000000E+00 0.  1.
         23    2    1    2    0    0  0.79189612770E+00 -0.31525420132E+02  0.36426699738E+03  0.37664480855E+03  0.90423377595E+02 0.  0.
         24    2    1    2    0    0 -0.43008936187E+02  0.15451143764E+02  0.32872261694E+03  0.34156387897E+03  0.80739197988E+02 0.  0.
        -11    1    4    4    0    0 -0.27763851990E+02  0.19873767247E+02  0.40790662234E+02  0.53194701121E+02  0.00000000000E+00 0.  1.
         12    1    4    4    0    0 -0.15245084197E+02 -0.44226234831E+01  0.28793195471E+03  0.28836917785E+03  0.00000000000E+00 0. -1.
        -13    1    3    3    0    0 -0.37638825047E+02  0.10240526217E+02  0.14920913330E+03  0.15422358765E+03  0.00000000000E+00 0.  1.
         13    1    3    3    0    0  0.38430721175E+02 -0.41765946349E+02  0.21505786408E+03  0.22242122090E+03  0.00000000000E+00 0. -1.
          1    1    1    2  501    0  0.42217040059E+02  0.16074276369E+02  0.14612719957E+03  0.15295038178E+03  0.00000000000E+00 0. -1.
<scales pt_clust_5="13000.00000" pt_clust_6="13000.00000" pt_clust_7="13000.00000" pt_clust_8="13000.00000" pt_clust_9="45.17367"></scales>
<clustering>
<clus scale="   45.174">  2  9  1 -1</clus>
<clus scale="   80.739">  5  6 -1 -1</clus>
<clus scale="   86.835">  2  5  1 -1</clus>
<clus scale="   90.423">  7  8 -1 -1</clus>
<clus scale="   45.174">  2  5  1 -1</clus>
</clustering>
</event>
<event>
 9    2  0.6190160E-005  0.1100159E+03  0.7546771E-02  0.1263138E+00
         21   -1    0    0  501  502  0.00000000000E+00  0.00000000000E+00  0.15959416896E+03  0.15959416896E+03  0.00000000000E+00 0. -1.
          2   -1    0    0  502    0 -0.00000000000E+00 -0.00000000000E+00 -0.47717048638E+03  0.47717048638E+03  0.00000000000E+00 0. -1.
         23    2    1    2    0    0  0.17347147278E+02  0.64721764574E+02 -0.34226699674E+03  0.36061477685E+03  0.91686912331E+02 0.  0.
         24    2    1    2    0    0 -0.81461342964E+02  0.28148247676E+02 -0.57480662364E+02  0.13655188904E+03  0.88961326488E+02 0.  0.
        -13    1    4    4    0    0 -0.51836901464E+02 -0.29013592199E+02 -0.25166255310E+02  0.64515062521E+02  0.00000000000E+00 0.  1.
         14    1    4    4    0    0 -0.29624441500E+02  0.57161839875E+02 -0.32314407054E+02  0.72036826522E+02  0.00000000000E+00 0. -1.
        -11    1    3    3    0    0 -0.29552650268E+02  0.59378899399E+02 -0.19570771607E+03  0.20664153252E+03  0.00000000000E+00 0.  1.
         11    1    3    3    0    0  0.46899797546E+02  0.53428651753E+01 -0.14655928067E+03  0.15397324433E+03  0.00000000000E+00 0. -1.
          1    1    1    2  501    0  0.64114195686E+02 -0.92870012251E+02  0.82171341681E+02  0.13959798945E+03  0.00000000000E+00 0. -1.
<scales pt_clust_5="13000.00000" pt_clust_6="13000.00000" pt_clust_7="13000.00000" pt_clust_8="13000.00000" pt_clust_9="112.85154"></scales>
<clustering>
<clus scale="   88.961">  5  6 -1 -1</clus>
<clus scale="   91.687">  7  8 -1 -1</clus>
<clus scale="  112.852">  1  9  2 -1</clus>
<clus scale="  112.852">  1  5  2 -1</clus>
<clus scale="  110.016">  1  5  2 -1</clus>
</clustering>
</event>
<event>
 9    2  0.6190160E-005  0.2560925E+03  0.7546771E-02  0.1110037E+00
         21   -1    0    0  501  502  0.00000000000E+00  0.00000000000E+00  0.35075791697E+03  0.35075791697E+03  0.00000000000E+00 0. -1.
          2   -1    0    0  502    0 -0.00000000000E+00 -0.00000000000E+00 -0.37215534273E+03  0.37215534273E+03  0.00000000000E+00 0. -1.
         23    2    1    2    0    0  0.22496936664E+03  0.41373140910E+02 -0.10596521612E+03  0.26680153967E+03  0.87358352948E+02 0.  0.
         24    2    1    2    0    0 -0.23198748982E+03 -0.17968220612E+03  0.93274767327E+02  0.31735126810E+03  0.76861918507E+02 0.  0.
        -13    1    4    4    0    0 -0.25268181021E+02 -0.50103973749E+02 -0.11130283370E+00  0.56115074141E+02  0.00000000000E+00 0.  1.
         14    1    4    4    0    0 -0.20671930880E+03 -0.12957823237E+03  0.93386070161E+02  0.26123619396E+03  0.00000000000E+00 0. -1.
        -11    1    3    3    0    0  0.35165924339E+02 -0.14231425492E+02 -0.47036540758E+02  0.60428568348E+02  0.00000000000E+00 0. -1.
         11    1    3    3    0    0  0.18980344230E+03  0.55604566402E+02 -0.58928675365E+02  0.20637297132E+03  0.00000000000E+00 0.  1.
          1    1    1    2  501    0  0.70181231864E+01  0.13830906521E+03 -0.87069769678E+01  0.13876045193E+03  0.00000000000E+00 0. -1.
<scales pt_clust_5="13000.00000" pt_clust_6="13000.00000" pt_clust_7="13000.00000" pt_clust_8="13000.00000" pt_clust_9="138.48708"></scales>
<clustering>
<clus scale="   76.862">  5  6 -1 -1</clus>
<clus scale="   87.358">  7  8 -1 -1</clus>
<clus scale="  138.487">  1  9  2 -1</clus>
<clus scale="  252.705">  1  5  2 -1</clus>
<clus scale="  138.487">  1  5  2 -1</clus>
</clustering>
</event>
<event>
 9    2  0.6190160E-005  0.1311283E+03  0.7546771E-02  0.1248875E+00
         21   -1    0    0  501  502  0.00000000000E+00  0.00000000000E+00  0.14770045246E+03  0.14770045246E+03  0.00000000000E+00 0. -1.
          2   -1    0    0  502    0 -0.00000000000E+00 -0.00000000000E+00 -0.17607789629E+03  0.17607789629E+03  0.00000000000E+00 0. -1.
         24    2    1    2    0    0 -0.24127835585E+02 -0.19760784357E+02 -0.47668532406E+02  0.94743407800E+02  0.75705899977E+02 0.  0.
         23    2    1    2    0    0  0.93724540423E+02 -0.40119682106E+02  0.10996014034E+02  0.13684936806E+03  0.90625376374E+02 0.  0.
        -11    1    3    3    0    0 -0.24071895675E+02  0.26387625754E+02 -0.19999439052E+02  0.40935809711E+02  0.00000000000E+00 0.  1.
         12    1    3    3    0    0 -0.55939909966E-01 -0.46148410111E+02 -0.27669093354E+02  0.53807598089E+02  0.00000000000E+00 0. -1.
        -11    1    4    4    0    0  0.99906723492E+02 -0.43902707432E+01  0.10837943322E+02  0.10058871155E+03  0.00000000000E+00 0. -1.
         11    1    4    4    0    0 -0.61821830691E+01 -0.35729411362E+02  0.15807071126E+00  0.36260656505E+02  0.00000000000E+00 0.  1.
          1    1    1    2  501    0 -0.69596704838E+02  0.59880466463E+02  0.82950745359E+01  0.92185572893E+02  0.00000000000E+00 0. -1.
<scales pt_clust_5="13000.00000" pt_clust_6="13000.00000" pt_clust_7="13000.00000" pt_clust_8="13000.00000" pt_clust_9="94.77173"></scales>
<clustering>
<clus scale="   75.706">  5  6 -1 -1</clus>
<clus scale="   81.878">  2  5  1 -1</clus>
<clus scale="   90.625">  7  8 -1 -1</clus>
<clus scale="   94.772">  1  9  2 -1</clus>
<clus scale="   94.772">  1  5  2 -1</clus>
</clustering>
</event>
<event>
 9    2  0.6190160E-005  0.9550634E+02  0.7546771E-02  0.1297166E+00
         21   -1    0    0  501  502  0.00000000000E+00  0.00000000000E+00  0.61216504656E+02  0.61216504656E+02  0.00000000000E+00 0.  1.
          2   -1    0    0  502    0 -0.00000000000E+00 -0.00000000000E+00 -0.33072911899E+03  0.33072911899E+03  0.00000000000E+00 0. -1.
         23    2    1    2    0    0  0.10558658589E+02  0.31170429989E+01 -0.95307073204E+02  0.13257886185E+03  0.91501449049E+02 0.  0.
         24    2    1    2    0    0  0.28755332319E+02  0.69126222168E+02 -0.85740593127E+02  0.13857468313E+03  0.79032839802E+02 0.  0.
        -11    1    4    4    0    0  0.15742596835E+02  0.84238773943E+02 -0.54656698766E+02  0.10164327381E+03  0.00000000000E+00 0.  1.
         12    1    4    4    0    0  0.13012735484E+02 -0.15112551775E+02 -0.31083894362E+02  0.36931409323E+02  0.00000000000E+00 0. -1.
        -13    1    3    3    0    0  0.51556099825E+01  0.22829501931E+02 -0.10666028011E+03  0.10919790211E+03  0.00000000000E+00 0. -1.
         13    1    3    3    0    0  0.54030486070E+01 -0.19712458932E+02  0.11353206902E+02  0.23380959740E+02  0.00000000000E+00 0.  1.
          1    1    1    2  501    0 -0.39313990909E+02 -0.72243265167E+02 -0.88464947999E+02  0.12079207866E+03  0.00000000000E+00 0. -1.
<scales pt_clust_5="13000.00000" pt_clust_6="13000.00000" pt_clust_7="13000.00000" pt_clust_8="13000.00000" pt_clust_9="82.24771"></scales>
<clustering>
<clus scale="   79.033">  5  6 -1 -1</clus>
<clus scale="   82.248">  1  9  2 -1</clus>
<clus scale="   83.637">  1  5  2 -1</clus>
<clus scale="   91.501">  7  8 -1 -1</clus>
<clus scale="   82.248">  1  5  2 -1</clus>
</clustering>
</event>
<event>
 9    2  0.6190160E-005  0.1012835E+03  0.7546771E-02  0.1284126E+00
         21   -1    0    0  501  502  0.00000000000E+00  0.00000000000E+00  0.22676627971E+03  0.22676627971E+03  0.00000000000E+00 0.  1.
          2   -1    0    0  502    0 -0.00000000000E+00 -0.00000000000E+00 -0.17580615550E+03  0.17580615550E+03  0.00000000000E+00 0. -1.
         23    2    1    2    0    0 -0.30143387180E+02 -0.38645815634E+02 -0.13042111503E+03  0.16546676010E+03  0.89260621740E+02 0.  0.
         24    2    1    2    0    0 -0.17456108900E+02  0.57887489991E+02  0.14428963227E+03  0.17376736627E+03  0.75630168337E+02 0.  0.
        -11    1    4    4    0    0 -0.11200404486E+02  0.51232013125E+02  0.15263643131E+03  0.16139407794E+03  0.00000000000E+00 0.  1.
         12    1    4    4    0    0 -0.62557044138E+01  0.66554768660E+01 -0.83467990360E+01  0.12373288333E+02  0.00000000000E+00 0. -1.
        -13    1    3    3    0    0 -0.14087889726E+02 -0.56677368779E+02 -0.37370793920E+02  0.69335193133E+02  0.00000000000E+00 0.  1.
         13    1    3    3    0    0 -0.16055497454E+02  0.18031553145E+02 -0.93050321115E+02  0.96131566964E+02  0.00000000000E+00 0. -1.
          1    1    1    2  501    0  0.47599496080E+02 -0.19241674357E+02  0.37091606967E+02  0.63338308839E+02  0.00000000000E+00 0. -1.
<scales pt_clust_5="13000.00000" pt_clust_6="13000.00000" pt_clust_7="13000.00000" pt_clust_8="13000.00000" pt_clust_9="51.34154"></scales>
<clustering>
<clus scale="   51.342">  1  9  2 -1</clus>
<clus scale="   75.630">  5  6 -1 -1</clus>
<clus scale="   89.261">  7  8 -1 -1</clus>
<clus scale="   89.503">  1  5  2 -1</clus>
<clus scale="   51.342">  1  5  2 -1</clus>
</clustering>
</event>
<event>
 9    2  0.6190160E-005  0.9937600E+02  0.7546771E-02  0.1288169E+00
         -1   -1    0    0    0  501 -0.00000000000E+00  0.00000000000E+00  0.24763844017E+03  0.24763844017E+03  0.00000000000E+00 0.  1.
         21   -1    0    0  501  502  0.00000000000E+00 -0.00000000000E+00 -0.66890289646E+02  0.66890289646E+02  0.00000000000E+00 0. -1.
         24    2    1    2    0    0 -0.20435217625E+02 -0.79314570811E+01  0.58225598649E+02  0.10280693820E+03  0.81844609317E+02 0.  0.
         23    2    1    2    0    0  0.50574771128E+02 -0.26598827803E+02  0.39715055305E+02  0.11707605876E+03  0.94149948490E+02 0.  0.
        -13    1    3    3    0    0  0.18550815231E+02  0.19111668113E+02  0.47043291546E+02  0.54059780644E+02  0.00000000000E+00 0.  1.
         14    1    3    3    0    0 -0.38986032855E+02 -0.27043125194E+02  0.11182307102E+02  0.48747157560E+02  0.00000000000E+00 0. -1.
        -11    1    4    4    0    0  0.75559844708E+02 -0.35633684983E+02  0.29061529117E+02  0.88451241441E+02  0.00000000000E+00 0. -1.
         11    1    4    4    0    0 -0.24985073580E+02  0.90348571804E+01  0.10653526188E+02  0.28624817315E+02  0.00000000000E+00 0.  1.
         -2    1    1    2    0  502 -0.30139553503E+02  0.34530284884E+02  0.82807496568E+02  0.94645732854E+02  0.00000000000E+00 0.  1.
<scales pt_clust_5="13000.00000" pt_clust_6="13000.00000" pt_clust_7="13000.00000" pt_clust_8="13000.00000" pt_clust_9="45.83378"></scales>
<clustering>
<clus scale="   45.834">  2  9  1 -1</clus>
<clus scale="   81.845">  5  6 -1 -1</clus>
<clus scale="   87.806">  1  5  2 -1</clus>
<clus scale="   94.150">  7  8 -1 -1</clus>
<clus scale="   45.834">  2  5  1 -1</clus>
</clustering>
</event>
<event>
 9    2  0.6190160E-005  0.9227515E+02  0.7546771E-02  0.1305364E+00
          2   -1    0    0  502    0 -0.00000000000E+00  0.00000000000E+00  0.11408267282E+04  0.11408267282E+04  0.00000000000E+00 0. -1.
         21   -1    0    0  501  502  0.00000000000E+00 -0.00000000000E+00 -0.11727258953E+02  0.11727258953E+02  0.00000000000E+00 0. -1.
         24    2    1    2    0    0 -0.17062001150E+02 -0.14563925370E+02  0.72620279504E+03  0.73073753475E+03  0.78125702349E+02 0.  0.
         23    2    1    2    0    0  0.53717859691E+01 -0.15686627702E+02  0.29037539726E+03  0.30471480912E+03  0.90875283725E+02 0.  0.
        -11    1    3    3    0    0  0.11471158454E+02  0.25733780165E+02  0.16709688984E+03  0.16945555616E+03  0.00000000000E+00 0.  1.
         12    1    3    3    0    0 -0.28533159604E+02 -0.40297705536E+02  0.55910590520E+03  0.56128197859E+03  0.00000000000E+00 0. -1.
        -13    1    4    4    0    0  0.76120216892E+01  0.37600422236E+02  0.10364543620E+03  0.11051746953E+03  0.00000000000E+00 0.  1.
         13    1    4    4    0    0 -0.22402357201E+01 -0.53287049938E+02  0.18672996106E+03  0.19419733959E+03  0.00000000000E+00 0. -1.
          1    1    1    2  501    0  0.11690215181E+02  0.30250553073E+02  0.11252127695E+03  0.11710164328E+03  0.00000000000E+00 0. -1.
<scales pt_clust_5="13000.00000" pt_clust_6="13000.00000" pt_clust_7="13000.00000" pt_clust_8="13000.00000" pt_clust_9="32.43080"></scales>
<clustering>
<clus scale="   32.431">  2  9  1 -1</clus>
<clus scale="   78.126">  5  6 -1 -1</clus>
<clus scale="   79.750">  1  5  2 -1</clus>
<clus scale="   90.875">  7  8 -1 -1</clus>
<clus scale="   32.431">  2  5  1 -1</clus>
</clustering>
</event>
<event>
 9    2  0.6190160E-005  0.1241320E+03  0.7546771E-02  0.1239718E+00
         -1   -1    0    0    0  501 -0.00000000000E+00  0.00000000000E+00  0.92238307386E+03  0.92238307386E+03  0.00000000000E+00 0.  1.
         21   -1    0    0  501  502  0.00000000000E+00 -0.00000000000E+00 -0.31569255485E+02  0.31569255485E+02  0.00000000000E+00 0. -1.
         23    2    1    2    0    0  0.81171639773E+02 -0.66115414377E+02  0.52853203777E+03  0.54683876809E+03  0.93415417466E+02 0.  0.
         24    2    1    2    0    0 -0.50982924046E+02 -0.30032068358E+01  0.12544058415E+03  0.15855271418E+03  0.82433883980E+02 0.  0.
        -11    1    4    4    0    0 -0.65665674259E+02 -0.74549627127E+01  0.12696422527E+03  0.14313445337E+03  0.00000000000E+00 0.  1.
         12    1    4    4    0    0  0.14682750213E+02  0.44517558769E+01 -0.15236411171E+01  0.15418260812E+02  0.00000000000E+00 0. -1.
        -11    1    3    3    0    0  0.25349341137E+02  0.32430785194E+01  0.25911940061E+02  0.36394165632E+02  0.00000000000E+00 0. -1.
         11    1    3    3    0    0  0.55822298636E+02 -0.69358492896E+02  0.50262009771E+03  0.51044460246E+03  0.00000000000E+00 0.  1.
         -2    1    1    2    0  502 -0.30188715727E+02  0.69118621213E+02  0.23684119646E+03  0.24856084707E+03  0.00000000000E+00 0.  1.
<scales pt_clust_5="13000.00000" pt_clust_6="13000.00000" pt_clust_7="13000.00000" pt_clust_8="13000.00000" pt_clust_9="75.42379"></scales>
<clustering>
<clus scale="   75.424">  2  9  1 -1</clus>
<clus scale="   82.434">  5  6 -1 -1</clus>
<clus scale="   93.415">  7  8 -1 -1</clus>
<clus scale="  116.093">  2  5  1 -1</clus>
<clus scale="   75.424">  2  5  1 -1</clus>
</clustering>
</event>
<event>
 9    2  0.6190160E-005  0.1936748E+03  0.7546771E-02  0.1156113E+00
         -1   -1    0    0    0  501 -0.00000000000E+00  0.00000000000E+00  0.32922464227E+03  0.32922464227E+03  0.00000000000E+00 0.  1.
         21   -1    0    0  501  502  0.00000000000E+00 -0.00000000000E+00 -0.15948064346E+03  0.15948064346E+03  0.00000000000E+00 0. -1.
         24    2    1    2    0    0 -0.15951603134E+03  0.20792881247E+02  0.79882474612E+02  0.19676936993E+03  0.80369565307E+02 0.  0.
         23    2    1    2    0    0  0.18803244095E+03  0.38128313023E+02  0.61143924609E+02  0.22045449669E+03  0.89730922692E+02 0.  0.
        -13    1    3    3    0    0 -0.11210884127E+03 -0.21349093171E+02  0.36103694584E+02  0.11969817389E+03  0.00000000000E+00 0.  1.
         14    1    3    3    0    0 -0.47407190069E+02  0.42141974418E+02  0.43778780028E+02  0.77071196039E+02  0.00000000000E+00 0. -1.
        -13    1    4    4    0    0  0.90824842569E+02  0.36246719210E+02 -0.12362901621E+02  0.98568849125E+02  0.00000000000E+00 0. -1.
         13    1    4    4    0    0  0.97207598385E+02  0.18815938122E+01  0.73506826230E+02  0.12188564756E+03  0.00000000000E+00 0.  1.
         -2    1    1    2    0  502 -0.28516409615E+02 -0.58921194270E+02  0.28717599589E+02  0.71481419107E+02  0.00000000000E+00 0.  1.
<scales pt_clust_5="13000.00000" pt_clust_6="13000.00000" pt_clust_7="13000.00000" pt_clust_8="13000.00000" pt_clust_9="65.45912"></scales>
<clustering>
<clus scale="   65.459">  2  9  1 -1</clus>
<clus scale="   80.370">  5  6 -1 -1</clus>
<clus scale="   89.731">  7  8 -1 -1</clus>
<clus scale="  189.519">  1  5  2 -1</clus>
<clus scale="   65.459">  2  5  1 -1</clus>
</clustering>
</event>
<event>
 9    2  0.6190160E-005  0.1018555E+03  0.7546771E-02  0.1276479E+00
          2   -1    0    0  502    0 -0.00000000000E+00  0.00000000000E+00  0.60946379038E+03  0.60946379038E+03  0.00000000000E+00 0. -1.
         21   -1    0    0  501  502  0.00000000000E+00 -0.00000000000E+00 -0.40387424611E+02  0.40387424611E+02  0.00000000000E+00 0. -1.
         23    2    1    2    0    0 -0.15902147661E+02  0.56561251421E+02  0.39068004879E+03  0.40295829331E+03  0.79324852140E+02 0.  0.
         24    2    1    2    0    0  0.52438448325E+02 -0.75249752920E+02  0.95524309264E+02  0.15441627047E+03  0.79417723145E+02 0.  0.
        -13    1    4    4    0    0 -0.93526759025E+01 -0.24439231177E+02  0.62706489596E+02  0.67947423825E+02  0.00000000000E+00 0.  1.
         14    1    4    4    0    0  0.61791124228E+02 -0.50810521742E+02  0.32817819668E+02  0.86468846649E+02  0.00000000000E+00 0. -1.
        -11    1    3    3    0    0  0.96433154786E+01 -0.17591820686E+02  0.91007326785E+02  0.93192270157E+02  0.00000000000E+00 0.  1.
         11    1    3    3    0    0 -0.25545463139E+02  0.74153072107E+02  0.29967272200E+03  0.30976602316E+03  0.00000000000E+00 0. -1.
          1    1    1    2  501    0 -0.36536300664E+02  0.18688501498E+02  0.82872007720E+02  0.92476651205E+02  0.00000000000E+00 0. -1.
<scales pt_clust_5="13000.00000" pt_clust_6="13000.00000" pt_clust_7="13000.00000" pt_clust_8="13000.00000" pt_clust_9="41.03856"></scales>
<clustering>
<clus scale="   41.039">  2  9  1 -1</clus>
<clus scale="   79.325">  7  8 -1 -1</clus>
<clus scale="   79.418">  5  6 -1 -1</clus>
<clus scale="  101.783">  1  7  2 -1</clus>
<clus scale="   41.039">  2  5  1 -1</clus>
</clustering>
</event>
<event>
 9    2  0.6190160E-005  0.1790583E+03  0.7546771E-02  0.1185551E+00
          2   -1    0    0  502    0 -0.00000000000E+00  0.00000000000E+00  0.90825383886E+03  0.90825383886E+03  0.00000000000E+00 0. -1.
         21   -1    0    0  501  502  0.00000000000E+00 -0.00000000000E+00 -0.66249757013E+02  0.66249757013E+02  0.00000000000E+00 0. -1.
         24    2    1    2    0    0  0.90367582929E+02  0.11211709313E+02  0.14271522520E+03  0.18802263854E+03  0.81809991002E+02 0.  0.
         23    2    1    2    0    0  0.10682816030E+03  0.61935343160E+01  0.44835690038E+03  0.46686251243E+03  0.74068074703E+02 0.  0.
        -13    1    3    3    0    0  0.14017803768E+02  0.32612413428E+02  0.77913503061E+02  0.85618819726E+02  0.00000000000E+00 0.  1.
         14    1    3    3    0    0  0.76349779161E+02 -0.21400704115E+02  0.64801722140E+02  0.10240381881E+03  0.00000000000E+00 0. -1.
        -11    1    4    4    0    0  0.33324922046E+02  0.34254130855E+02  0.22597250396E+03  0.23097070909E+03  0.00000000000E+00 0. -1.
         11    1    4    4    0    0  0.73503238250E+02 -0.28060596539E+02  0.22238439642E+03  0.23589180334E+03  0.00000000000E+00 0.  1.
          1    1    1    2  501    0 -0.19719574323E+03 -0.17405243629E+02  0.25093195627E+03  0.31961844491E+03  0.00000000000E+00 0. -1.
<scales pt_clust_5="13000.00000" pt_clust_6="13000.00000" pt_clust_7="13000.00000" pt_clust_8="13000.00000" pt_clust_9="163.02087"></scales>
<clustering>
<clus scale="   74.068">  7  8 -1 -1</clus>
<clus scale="   81.810">  5  6 -1 -1</clus>
<clus scale="  122.413">  1  5  2 -1</clus>
<clus scale="  163.021">  2  9  1 -1</clus>
<clus scale="  163.021">  2  5  1 -1</clus>
</clustering>
</event>
<event>
 9    2  0.6190160E-005  0.9421306E+02  0.7546771E-02  0.1299259E+00
         21   -1    0    0  501  502  0.00000000000E+00  0.00000000000E+00  0.50688230442E+03  0.50688230442E+03  0.00000000000E+00 0. -1.
         -3   -1    0    0    0  501 -0.00000000000E+00 -0.00000000000E+00 -0.27038116052E+02  0.27038116052E+02  0.00000000000E+00 0.  1.
         23    2    1    2    0    0  0.34038405541E+02 -0.11923022075E+02  0.11190377562E+03  0.14811285245E+03  0.90078801925E+02 0.  0.
         24    2    1    2    0    0 -0.15943900667E+02 -0.26255950066E+01  0.19141076318E+03  0.20775760160E+03  0.79145682405E+02 0.  0.
        -11    1    4    4    0    0 -0.14235750571E+02 -0.39497164696E+02  0.79322064660E+02  0.89747827580E+02  0.00000000000E+00 0.  1.
         12    1    4    4    0    0 -0.17081500962E+01  0.36871569690E+02  0.11208869852E+03  0.11800977402E+03  0.00000000000E+00 0. -1.
        -11    1    3    3    0    0  0.17518246425E+02 -0.39536058602E+02  0.14623627002E+02  0.45649089304E+02  0.00000000000E+00 0.  1.
         11    1    3    3    0    0  0.16520159116E+02  0.27613036526E+02  0.97280148617E+02  0.10246376315E+03  0.00000000000E+00 0. -1.
         -4    1    1    2    0  502 -0.18094504875E+02  0.14548617082E+02  0.17652964956E+03  0.17804996641E+03  0.00000000000E+00 0.  1.
<scales pt_clust_5="13000.00000" pt_clust_6="13000.00000" pt_clust_7="13000.00000" pt_clust_8="13000.00000" pt_clust_9="23.21795"></scales>
<clustering>
<clus scale="   23.218">  1  9  2 -1</clus>
<clus scale="   79.146">  5  6 -1 -1</clus>
<clus scale="   83.821">  1  5  2 -1</clus>
<clus scale="   90.079">  7  8 -1 -1</clus>
<clus scale="   23.218">  1  5  2 -1</clus>
</clustering>
</event>
<event>
 9    2  0.6190160E-005  0.1074587E+03  0.7546771E-02  0.1268664E+00
         21   -1    0    0  501  502  0.00000000000E+00  0.00000000000E+00  0.39954020125E+02  0.39954020125E+02  0.00000000000E+00 0.  1.
          2   -1    0    0  502    0 -0.00000000000E+00 -0.00000000000E+00 -0.46729947817E+03  0.46729947817E+03  0.00000000000E+00 0. -1.
         23    2    1    2    0    0 -0.19141870822E+02  0.45633710059E+02 -0.25509244610E+03  0.27443980851E+03  0.88296125207E+02 0.  0.
         24    2    1    2    0    0  0.55239959582E+02 -0.20752266278E+02 -0.11855730519E+03  0.16349278976E+03  0.95874647315E+02 0.  0.
        -11    1    4    4    0    0  0.52397011275E+02 -0.55412976214E+02 -0.68301858175E+02  0.10237767605E+03  0.00000000000E+00 0.  1.
         12    1    4    4    0    0  0.28429483075E+01  0.34660709936E+02 -0.50255447018E+02  0.61115113706E+02  0.00000000000E+00 0. -1.
        -13    1    3    3    0    0  0.27512927605E+02  0.43620386599E+02 -0.16634378408E+03  0.17415497069E+03  0.00000000000E+00 0.  1.
         13    1    3    3    0    0 -0.46654798426E+02  0.20133234600E+01 -0.88748662018E+02  0.10028483783E+03  0.00000000000E+00 0. -1.
          1    1    1    2  501    0 -0.36098088761E+02 -0.24881443781E+02 -0.53695706751E+02  0.69320900025E+02  0.00000000000E+00 0. -1.
<scales pt_clust_5="13000.00000" pt_clust_6="13000.00000" pt_clust_7="13000.00000" pt_clust_8="13000.00000" pt_clust_9="43.84243"></scales>
<clustering>
<clus scale="   43.842">  1  9  2 -1</clus>
<clus scale="   88.296">  7  8 -1 -1</clus>
<clus scale="   95.875">  5  6 -1 -1</clus>
<clus scale="  100.755">  2  7  1 -1</clus>
<clus scale="   43.842">  1  5  2 -1</clus>
</clustering>
</event>
<event>
 9    2  0.6190160E-005  0.9643981E+02  0.7546771E-02  0.1292465E+00
          2   -1    0    0  502    0 -0.00000000000E+00  0.00000000000E+00  0.32858971180E+03  0.32858971180E+03  0.00000000000E+00 0. -1.
         21   -1    0    0  501  502  0.00000000000E+00 -0.00000000000E+00 -0.61584762852E+02  0.61584762852E+02  0.00000000000E+00 0. -1.
         24    2    1    2    0    0 -0.67467909773E+01  0.14861488342E+02  0.10026717518E+03  0.13131185938E+03  0.83204056214E+02 0.  0.
         23    2    1    2    0    0 -0.19067811463E+02 -0.69768094319E+02  0.49137237305E+02  0.12653342252E+03  0.91460759373E+02 0.  0.
        -13    1    3    3    0    0 -0.25932840247E+02  0.39788306012E+02  0.35448785848E+02  0.59264136851E+02  0.00000000000E+00 0.  1.
         14    1    3    3    0    0  0.19186049270E+02 -0.24926817670E+02  0.64818389331E+02  0.72047722526E+02  0.00000000000E+00 0. -1.
        -11    1    4    4    0    0 -0.43718199894E+02 -0.45167720830E+02 -0.40150346098E+01  0.62988288673E+02  0.00000000000E+00 0. -1.
         11    1    4    4    0    0  0.24650388431E+02 -0.24600373489E+02  0.53152271915E+02  0.63545133844E+02  0.00000000000E+00 0.  1.
          1    1    1    2  501    0  0.25814602440E+02  0.54906605978E+02  0.11760053646E+03  0.13232919276E+03  0.00000000000E+00 0. -1.
<scales pt_clust_5="13000.00000" pt_clust_6="13000.00000" pt_clust_7="13000.00000" pt_clust_8="13000.00000" pt_clust_9="60.67234"></scales>
<clustering>
<clus scale="   60.672">  2  9  1 -1</clus>
<clus scale="   83.204">  5  6 -1 -1</clus>
<clus scale="   88.648">  1  5  2 -1</clus>
<clus scale="   91.461">  7  8 -1 -1</clus>
<clus scale="   60.672">  2  5  1 -1</clus>
</clustering>
</event>
<event>
 9    2  0.6190160E-005  0.2003652E+03  0.7546771E-02  0.1167230E+00
          2   -1    0    0  502    0 -0.00000000000E+00  0.00000000000E+00  0.10342560995E+04  0.10342560995E+04  0.00000000000E+00 0. -1.
         21   -1    0    0  501  502  0.00000000000E+00 -0.00000000000E+00 -0.26746816865E+03  0.26746816865E+03  0.00000000000E+00 0.  1.
         23    2    1    2    0    0 -0.13399465332E+02 -0.91802555566E+02  0.17851157306E+03  0.22215308278E+03  0.94225026367E+02 0.  0.
         24    2    1    2    0    0 -0.45149123452E+02 -0.17341386664E+03 -0.17913200155E+03  0.26551757666E+03  0.79375670340E+02 0.  0.
        -13    1    4    4    0    0 -0.38834053115E+02 -0.12198374353E+03 -0.17014773473E+03  0.21292808410E+03  0.00000000000E+00 0.  1.
         14    1    4    4    0    0 -0.63150703371E+01 -0.51430123109E+02 -0.89842668207E+01  0.52589492551E+02  0.00000000000E+00 0. -1.
        -13    1    3    3    0    0  0.14637815432E+02 -0.88844676234E+02  0.82622153295E+02  0.12220500133E+03  0.00000000000E+00 0.  1.
         13    1    3    3    0    0 -0.28037280763E+02 -0.29578793320E+01  0.95889419760E+02  0.99948081445E+02  0.00000000000E+00 0. -1.
          1    1    1    2  501    0  0.58548588783E+02  0.26521642221E+03  0.76740835932E+03  0.81405360868E+03  0.00000000000E+00 0. -1.
<scales pt_clust_5="13000.00000" pt_clust_6="13000.00000" pt_clust_7="13000.00000" pt_clust_8="13000.00000" pt_clust_9="183.97209"></scales>
<clustering>
<clus scale="   79.376">  5  6 -1 -1</clus>
<clus scale="   94.225">  7  8 -1 -1</clus>
<clus scale="  132.233">  1  7  2 -1</clus>
<clus scale="  183.972">  2  9  1 -1</clus>
<clus scale="  183.972">  2  5  1 -1</clus>
</clustering>
</event>
<event>
 9    2  0.6190160E-005  0.1072782E+03  0.7546771E-02  0.1269467E+00
         21   -1    0    0  501  502  0.00000000000E+00  0.00000000000E+00  0.14544680898E+03  0.14544680898E+03  0.00000000000E+00 0.  1.
          2   -1    0    0  502    0 -0.00000000000E+00 -0.00000000000E+00 -0.14082791869E+03  0.14082791869E+03  0.00000000000E+00 0. -1.
         23    2    1    2    0    0 -0.37788085187E+02  0.11683629936E+02 -0.14084109840E+02  0.98939795194E+02  0.89589476683E+02 0.  0.
         24    2    1    2    0    0  0.66465430334E+02 -0.67058745344E+02  0.10347129351E+02  0.12441741418E+03  0.80362311495E+02 0.  0.
        -11    1    4    4    0    0  0.82543814118E+02 -0.41780886482E+02  0.16116703983E+02  0.93908848740E+02  0.00000000000E+00 0.  1.
         12    1    4    4    0    0 -0.16078383784E+02 -0.25277858862E+02 -0.57695746317E+01  0.30508565440E+02  0.00000000000E+00 0. -1.
        -11    1    3    3    0    0 -0.23322332866E+02 -0.24805006758E+02 -0.39522804375E+02  0.52165809073E+02  0.00000000000E+00 0.  1.
         11    1    3    3    0    0 -0.14465752321E+02  0.36488636694E+02  0.25438694535E+02  0.46773986121E+02  0.00000000000E+00 0. -1.
          1    1    1    2  501    0 -0.28677345148E+02  0.55375115409E+02  0.83558707797E+01  0.62917518290E+02  0.00000000000E+00 0. -1.
<scales pt_clust_5="13000.00000" pt_clust_6="13000.00000" pt_clust_7="13000.00000" pt_clust_8="13000.00000" pt_clust_9="62.36019"></scales>
<clustering>
<clus scale="   62.360">  1  9  2 -1</clus>
<clus scale="   80.362">  5  6 -1 -1</clus>
<clus scale="   89.589">  7  8 -1 -1</clus>
<clus scale="   99.702">  1  5  2 -1</clus>
<clus scale="   62.360">  1  5  2 -1</clus>
</clustering>
</event>
<event>
 9    2  0.6190160E-005  0.1242724E+03  0.7546771E-02  0.1239313E+00
          2   -1    0    0  502    0 -0.00000000000E+00  0.00000000000E+00  0.23381428298E+03  0.23381428298E+03  0.00000000000E+00 0. -1.
         21   -1    0    0  501  502  0.00000000000E+00 -0.00000000000E+00 -0.10231253753E+03  0.10231253753E+03  0.00000000000E+00 0. -1.
         24    2    1    2    0    0  0.66241135083E+02  0.60596359445E+02  0.12475197452E+03  0.17425803883E+03  0.82115785292E+02 0.  0.
         23    2    1    2    0    0 -0.69805821343E+02 -0.18076180705E+02 -0.54070794716E+01  0.11750143333E+03  0.92616139646E+02 0.  0.
        -13    1    3    3    0    0  0.12777922923E+02  0.65156483993E+02  0.54763356502E+02  0.86067810103E+02  0.00000000000E+00 0.  1.
         14    1    3    3    0    0  0.53463212160E+02 -0.45601245478E+01  0.69988618020E+02  0.88190228726E+02  0.00000000000E+00 0. -1.
        -11    1    4    4    0    0 -0.23252981760E+02 -0.38914614909E+02  0.30928385459E+02  0.54878169078E+02  0.00000000000E+00 0.  1.
         11    1    4    4    0    0 -0.46552839583E+02  0.20838434204E+02 -0.36335464931E+02  0.62623264248E+02  0.00000000000E+00 0. -1.
          1    1    1    2  501    0  0.35646862602E+01 -0.42520178740E+02  0.12156850405E+02  0.44367348354E+02  0.00000000000E+00 0. -1.
<scales pt_clust_5="13000.00000" pt_clust_6="13000.00000" pt_clust_7="13000.00000" pt_clust_8="13000.00000" pt_clust_9="42.66934"></scales>
<clustering>
<clus scale="   42.669">  2  9  1 -1</clus>
<clus scale="   82.116">  5  6 -1 -1</clus>
<clus scale="   92.616">  7  8 -1 -1</clus>
<clus scale="  116.657">  1  5  2 -1</clus>
<clus scale="   42.669">  2  5  1 -1</clus>
</clustering>
</event>
<event>
 9    2  0.6190160E-005  0.1011101E+03  0.7546771E-02  0.1289671E+00
          2   -1    0    0  502    0 -0.00000000000E+00  0.00000000000E+00  0.37527013081E+03  0.37527013081E+03  0.00000000000E+00 0. -1.
         21   -1    0    0  501  502  0.00000000000E+00 -0.00000000000E+00 -0.42730761128E+02  0.42730761128E+02  0.00000000000E+00 0.  1.
         23    2    1    2    0    0 -0.16336786369E+02 -0.13357915064E+02  0.11628706527E+03  0.15441488240E+03  0.99377813791E+02 0.  0.
         24    2    1    2    0    0 -0.38957142481E+02  0.14489915702E+02  0.94825497379E+02  0.13015749138E+03  0.78876365285E+02 0.  0.
        -13    1    4    4    0    0 -0.44222082384E+02  0.30502709263E+02  0.26725085213E+02  0.60001983487E+02  0.00000000000E+00 0.  1.
         14    1    4    4    0    0  0.52649399030E+01 -0.16012793561E+02  0.68100412167E+02  0.70155507888E+02  0.00000000000E+00 0. -1.
        -11    1    3    3    0    0 -0.55675091300E+02 -0.34562742433E+01  0.90615860806E+02  0.10640909666E+03  0.00000000000E+00 0. -1.
         11    1    3    3    0    0  0.39338304931E+02 -0.99016408207E+01  0.25671204469E+02  0.48005785742E+02  0.00000000000E+00 0.  1.
          1    1    1    2  501    0  0.55293928850E+02 -0.11320006378E+01  0.12142680702E+03  0.13342851815E+03  0.00000000000E+00 0. -1.
<scales pt_clust_5="13000.00000" pt_clust_6="13000.00000" pt_clust_7="13000.00000" pt_clust_8="13000.00000" pt_clust_9="55.30554"></scales>
<clustering>
<clus scale="   55.306">  2  9  1 -1</clus>
<clus scale="   78.876">  5  6 -1 -1</clus>
<clus scale="   81.048">  2  5  1 -1</clus>
<clus scale="   99.378">  7  8 -1 -1</clus>
<clus scale="   55.306">  2  5  1 -1</clus>
</clustering>
</event>
<event>
 9    2  0.6190160E-005  0.1527577E+03  0.7546771E-02  0.1202214E+00
         21   -1    0    0  501  502  0.00000000000E+00  0.00000000000E+00  0.69289749933E+02  0.69289749933E+02  0.00000000000E+00 0.  1.
         -3   -1    0    0    0  501 -0.00000000000E+00 -0.00000000000E+00 -0.41841549556E+03  0.41841549556E+03  0.00000000000E+00 0.  1.
         23    2    1    2    0    0 -0.12092647818E+03  0.70197751689E+01 -0.19898417974E+03  0.25536159203E+03  0.10460568115E+03 0.  0.
         24    2    1    2    0    0  0.98415287375E+02  0.20925361467E+02 -0.73638887771E+02  0.14784309647E+03  0.79444671568E+02 0.  0.
        -11    1    4    4    0    0  0.94904144164E+02 -0.21704361547E+01 -0.32142874283E+02  0.10022310981E+03  0.00000000000E+00 0.  1.
         12    1    4    4    0    0  0.35111432114E+01  0.23095797621E+02 -0.41496013488E+02  0.47619986663E+02  0.00000000000E+00 0. -1.
        -11    1    3    3    0    0 -0.10858291964E+02 -0.33734283333E+02 -0.83471225582E+02  0.90682687855E+02  0.00000000000E+00 0. -1.
         11    1    3    3    0    0 -0.11006818622E+03  0.40754058502E+02 -0.11551295416E+03  0.16467890417E+03  0.00000000000E+00 0.  1.
         -4    1    1    2    0  502  0.22511190805E+02 -0.27945136636E+02 -0.76502678121E+02  0.84500556997E+02  0.00000000000E+00 0.  1.
<scales pt_clust_5="13000.00000" pt_clust_6="13000.00000" pt_clust_7="13000.00000" pt_clust_8="13000.00000" pt_clust_9="35.88434"></scales>
<clustering>
<clus scale="   35.884">  1  9  2 -1</clus>
<clus scale="   79.445">  5  6 -1 -1</clus>
<clus scale="  104.606">  7  8 -1 -1</clus>
<clus scale="  136.763">  1  5  2 -1</clus>
<clus scale="   35.884">  1  5  2 -1</clus>
</clustering>
</event>
<event>
 9    2  0.6190160E-005  0.1918058E+03  0.7546771E-02  0.1158063E+00
          2   -1    0    0  502    0 -0.00000000000E+00  0.00000000000E+00  0.12544959224E+04  0.12544959224E+04  0.00000000000E+00 0. -1.
         21   -1    0    0  501  502  0.00000000000E+00 -0.00000000000E+00 -0.49477704179E+02  0.49477704179E+02  0.00000000000E+00 0. -1.
         23    2    1    2    0    0 -0.10218284313E+03 -0.14555494130E+03  0.99412258764E+03  0.10140201798E+04  0.91266814096E+02 0.  0.
         24    2    1    2    0    0  0.80756560023E+02  0.11316737240E+03  0.16597701588E+03  0.23057565488E+03  0.79298717914E+02 0.  0.
        -11    1    4    4    0    0  0.44997548814E+02  0.35836818023E+02  0.12158418626E+03  0.13450565518E+03  0.00000000000E+00 0.  1.
         12    1    4    4    0    0  0.35759011209E+02  0.77330554374E+02  0.44392829617E+02  0.96069999708E+02  0.00000000000E+00 0. -1.
        -13    1    3    3    0    0 -0.69876981247E+02 -0.24680163154E+02  0.33059354656E+03  0.33879786892E+03  0.00000000000E+00 0.  1.
         13    1    3    3    0    0 -0.32305861888E+02 -0.12087477815E+03  0.66352904109E+03  0.67522231085E+03  0.00000000000E+00 0. -1.
          1    1    1    2  501    0  0.21426283112E+02  0.32387568905E+02  0.44918614710E+02  0.59377791934E+02  0.00000000000E+00 0. -1.
<scales pt_clust_5="13000.00000" pt_clust_6="13000.00000" pt_clust_7="13000.00000" pt_clust_8="13000.00000" pt_clust_9="38.83349"></scales>
<clustering>
<clus scale="   38.833">  2  9  1 -1</clus>
<clus scale="   79.299">  5  6 -1 -1</clus>
<clus scale="   91.267">  7  8 -1 -1</clus>
<clus scale="  186.408">  2  5  1 -1</clus>
<clus scale="   38.833">  2  5  1 -1</clus>
</clustering>
</event>
<event>
 9    2  0.6190160E-005  0.1068198E+03  0.7546771E-02  0.1270833E+00
         -3   -1    0    0    0  501 -0.00000000000E+00  0.00000000000E+00  0.12585196654E+03  0.12585196654E+03  0.00000000000E+00 0.  1.
         21   -1    0    0  501  502  0.00000000000E+00 -0.00000000000E+00 -0.18419344352E+03  0.18419344352E+03  0.00000000000E+00 0. -1.
         24    2    1    2    0    0  0.11045507401E+02  0.68716062716E+02  0.56164316269E+02  0.12005831897E+03  0.80097871530E+02 0.  0.
         23    2    1    2    0    0 -0.17240759719E+02 -0.26325283844E+02 -0.39178924969E+02  0.10332974074E+03  0.90287223874E+02 0.  0.
        -13    1    3    3    0    0 -0.47757927186E+01  0.27971711361E+02  0.68914688943E+02  0.74528244208E+02  0.00000000000E+00 0.  1.
         14    1    3    3    0    0  0.15821300120E+02  0.40744351354E+02 -0.12750372674E+02  0.45530074765E+02  0.00000000000E+00 0. -1.
        -13    1    4    4    0    0  0.28167551007E+02  0.11737082514E+02  0.29069112048E+01  0.30653224437E+02  0.00000000000E+00 0.  1.
         13    1    4    4    0    0 -0.45408310726E+02 -0.38062366358E+02 -0.42085836174E+02  0.72676516305E+02  0.00000000000E+00 0. -1.
         -4    1    1    2    0  502  0.61952523179E+01 -0.42390778872E+02 -0.75326868276E+02  0.86657350345E+02  0.00000000000E+00 0.  1.
<scales pt_clust_5="13000.00000" pt_clust_6="13000.00000" pt_clust_7="13000.00000" pt_clust_8="13000.00000" pt_clust_9="42.84109"></scales>
<clustering>
<clus scale="   42.841">  2  9  1 -1</clus>
<clus scale="   80.098">  5  6 -1 -1</clus>
<clus scale="   90.287">  7  8 -1 -1</clus>
<clus scale="   98.358">  1  5  2 -1</clus>
<clus scale="   42.841">  2  5  1 -1</clus>
</clustering>
</event>
<event>
 9    2  0.6190160E-005  0.3147655E+03  0.7546771E-02  0.1102415E+00
         21   -1    0    0  501  502  0.00000000000E+00  0.00000000000E+00  0.36753007384E+03  0.36753007384E+03  0.00000000000E+00 0. -1.
          2   -1    0    0  502    0 -0.00000000000E+00 -0.00000000000E+00 -0.48929111190E+03  0.48929111190E+03  0.00000000000E+00 0. -1.
         23    2    1    2    0    0  0.13697297348E+03 -0.14277322731E+02  0.39758917273E+01  0.16552544338E+03  0.91746538249E+02 0.  0.
         24    2    1    2    0    0  0.20551975800E+03 -0.50589579495E+02 -0.23593916962E+03  0.32570920023E+03  0.74976762220E+02 0.  0.
        -11    1    4    4    0    0  0.34155302138E+02  0.19540427500E+02 -0.43496524392E+02  0.58654587248E+02  0.00000000000E+00 0.  1.
         12    1    4    4    0    0  0.17136445586E+03 -0.70130006994E+02 -0.19244264522E+03  0.26705461298E+03  0.00000000000E+00 0. -1.
        -11    1    3    3    0    0  0.12243690266E+03 -0.41896138283E+02 -0.12893978321E+02  0.13004743832E+03  0.00000000000E+00 0. -1.
         11    1    3    3    0    0  0.14536070824E+02  0.27618815553E+02  0.16869870048E+02  0.35478005059E+02  0.00000000000E+00 0.  1.
          1    1    1    2  501    0 -0.34249273148E+03  0.64866902225E+02  0.11020223983E+03  0.36558654213E+03  0.00000000000E+00 0. -1.
<scales pt_clust_5="13000.00000" pt_clust_6="13000.00000" pt_clust_7="13000.00000" pt_clust_8="13000.00000" pt_clust_9="305.70538"></scales>
<clustering>
<clus scale="   74.977">  5  6 -1 -1</clus>
<clus scale="   91.747">  7  8 -1 -1</clus>
<clus scale="  165.478">  2  7  1 -1</clus>
<clus scale="  305.705">  1  9  2 -1</clus>
<clus scale="  305.705">  1  5  2 -1</clus>
</clustering>
</event>
<event>
 9    2  0.6190160E-005  0.9439313E+02  0.7546771E-02  0.1299213E+00
         21   -1    0    0  501  502  0.00000000000E+00  0.00000000000E+00  0.56871319015E+02  0.56871319015E+02  0.00000000000E+00 0. -1.
          2   -1    0    0  502    0 -0.00000000000E+00 -0.00000000000E+00 -0.31727605989E+03  0.31727605989E+03  0.00000000000E+00 0. -1.
         23    2    1    2    0    0  0.23931265983E+02 -0.29937062807E+02 -0.19049327571E+03  0.21467071446E+03  0.91251818258E+02 0.  0.
         24    2    1    2    0    0 -0.16231940838E+02 -0.13446218121E+02 -0.79232161693E+02  0.11444041176E+03  0.79841065329E+02 0.  0.
        -13    1    4    4    0    0 -0.46056199309E+02 -0.17438797912E+02 -0.33010438454E+02  0.59287217967E+02  0.00000000000E+00 0.  1.
         14    1    4    4    0    0  0.29824258470E+02  0.39925797909E+01 -0.46221723238E+02  0.55153193795E+02  0.00000000000E+00 0. -1.
        -13    1    3    3    0    0  0.38801299587E+02 -0.56401022380E+02 -0.12623487489E+03  0.14360313302E+03  0.00000000000E+00 0. -1.
         13    1    3    3    0    0 -0.14870033605E+02  0.26463959573E+02 -0.64258400815E+02  0.71067581435E+02  0.00000000000E+00 0.  1.
          1    1    1    2  501    0 -0.76993251443E+01  0.43383280928E+02  0.93206965275E+01  0.45036252681E+02  0.00000000000E+00 0. -1.
<scales pt_clust_5="13000.00000" pt_clust_6="13000.00000" pt_clust_7="13000.00000" pt_clust_8="13000.00000" pt_clust_9="44.06119"></scales>
<clustering>
<clus scale="   44.061">  1  9  2 -1</clus>
<clus scale="   79.841">  5  6 -1 -1</clus>
<clus scale="   83.413">  1  5  2 -1</clus>
<clus scale="   91.252">  7  8 -1 -1</clus>
<clus scale="   44.061">  1  5  2 -1</clus>
</clustering>
</event>
<event>
 9    2  0.6190160E-005  0.1023187E+03  0.7546771E-02  0.1281271E+00
          2   -1    0    0  502    0 -0.00000000000E+00  0.00000000000E+00  0.28529031938E+03  0.28529031938E+03  0.00000000000E+00 0. -1.
         21   -1    0    0  501  502  0.00000000000E+00 -0.00000000000E+00 -0.48998327973E+02  0.48998327973E+02  0.00000000000E+00 0. -1.
         24    2    1    2    0    0 -0.79227513945E+01 -0.46381862115E+02  0.15886125065E+03  0.18476555661E+03  0.81776321913E+02 0.  0.
         23    2    1    2    0    0 -0.11346360571E+01  0.27154784158E+02  0.37751122306E+02  0.10450988253E+03  0.93586850619E+02 0.  0.
        -13    1    3    3    0    0 -0.39336262864E+02 -0.13865103701E+01  0.61974962604E+02  0.73417708878E+02  0.00000000000E+00 0.  1.
         14    1    3    3    0    0  0.31413511470E+02 -0.44995351745E+02  0.96886288050E+02  0.11134784773E+03  0.00000000000E+00 0. -1.
        -13    1    4    4    0    0 -0.19991013307E+02  0.51983751262E+02  0.19044291680E+00  0.55695487042E+02  0.00000000000E+00 0. -1.
         13    1    4    4    0    0  0.18856377250E+02 -0.24828967103E+02  0.37560679390E+02  0.48814395486E+02  0.00000000000E+00 0.  1.
          1    1    1    2  501    0  0.90573874517E+01  0.19227077957E+02  0.39679618445E+02  0.45013208219E+02  0.00000000000E+00 0. -1.
<scales pt_clust_5="13000.00000" pt_clust_6="13000.00000" pt_clust_7="13000.00000" pt_clust_8="13000.00000" pt_clust_9="21.25364"></scales>
<clustering>
<clus scale="   21.254">  2  9  1 -1</clus>
<clus scale="   81.776">  5  6 -1 -1</clus>
<clus scale="   91.641">  1  5  2 -1</clus>
<clus scale="   93.587">  7  8 -1 -1</clus>
<clus scale="   21.254">  2  5  1 -1</clus>
</clustering>
</event>
<event>
 9    2  0.6190160E-005  0.9422914E+02  0.7546771E-02  0.1302283E+00
          2   -1    0    0  502    0 -0.00000000000E+00  0.00000000000E+00  0.21089281273E+03  0.21089281273E+03  0.00000000000E+00 0. -1.
         21   -1    0    0  501  502  0.00000000000E+00 -0.00000000000E+00 -0.16321102056E+03  0.16321102056E+03  0.00000000000E+00 0. -1.
         24    2    1    2    0    0 -0.19047778216E+02 -0.12277161160E+02  0.16126276024E+03  0.18000113256E+03  0.76688873638E+02 0.  0.
         23    2    1    2    0    0  0.15332128289E+02 -0.29960704614E+02 -0.33725263029E+02  0.10368822740E+03  0.92093089625E+02 0.  0.
        -11    1    3    3    0    0  0.11522113843E+01  0.22814541215E+02  0.12013165382E+03  0.12228427998E+03  0.00000000000E+00 0.  1.
         12    1    3    3    0    0 -0.20199989600E+02 -0.35091702375E+02  0.41131106424E+02  0.57716852574E+02  0.00000000000E+00 0. -1.
        -13    1    4    4    0    0 -0.20858904560E+02 -0.45238295222E+02 -0.40024667140E+02  0.63902826492E+02  0.00000000000E+00 0.  1.
         13    1    4    4    0    0  0.36191032849E+02  0.15277590608E+02  0.62994041109E+01  0.39785400910E+02  0.00000000000E+00 0. -1.
          1    1    1    2  501    0  0.37156499264E+01  0.42237865774E+02 -0.79855705040E+02  0.90414473326E+02  0.00000000000E+00 0. -1.
<scales pt_clust_5="13000.00000" pt_clust_6="13000.00000" pt_clust_7="13000.00000" pt_clust_8="13000.00000" pt_clust_9="42.40098"></scales>
<clustering>
<clus scale="   42.401">  2  9  1 -1</clus>
<clus scale="   76.689">  5  6 -1 -1</clus>
<clus scale="   79.241">  1  5  2 -1</clus>
<clus scale="   92.093">  7  8 -1 -1</clus>
<clus scale="   42.401">  2  5  1 -1</clus>
</clustering>
</event>
<event>
 9    2  0.6190160E-005  0.4239666E+03  0.7546771E-02  0.1075999E+00
         -1   -1    0    0    0  501 -0.00000000000E+00  0.00000000000E+00  0.11168162876E+04  0.11168162876E+04  0.00000000000E+00 0.  1.
         21   -1    0    0  501  502  0.00000000000E+00 -0.00000000000E+00 -0.57001991015E+03  0.57001991015E+03  0.00000000000E+00 0.  1.
         23    2    1    2    0    0  0.41757889380E+02  0.88654482258E+02  0.20068526697E+02  0.13776555395E+03  0.94727311481E+02 0.  0.
         24    2    1    2    0    0  0.33341766823E+03  0.10744010224E+03  0.90976256834E+03  0.97817189623E+03  0.80259645907E+02 0.  0.
        -13    1    4    4    0    0  0.28962317891E+03  0.61887038060E+02  0.75420205224E+03  0.81026682447E+03  0.00000000000E+00 0.  1.
         14    1    4    4    0    0  0.43794489316E+02  0.45553064181E+02  0.15556051610E+03  0.16790507175E+03  0.00000000000E+00 0. -1.
        -11    1    3    3    0    0  0.71692921289E+02  0.50056019110E+02  0.13730119445E+02  0.88509864942E+02  0.00000000000E+00 0.  1.
         11    1    3    3    0    0 -0.29935031909E+02  0.38598463148E+02  0.63384072526E+01  0.49255689004E+02  0.00000000000E+00 0. -1.
         -2    1    1    2    0  502 -0.37517555761E+03 -0.19609458450E+03 -0.38303471759E+03  0.57089874757E+03  0.00000000000E+00 0.  1.
<scales pt_clust_5="13000.00000" pt_clust_6="13000.00000" pt_clust_7="13000.00000" pt_clust_8="13000.00000" pt_clust_9="416.30042"></scales>
<clustering>
<clus scale="   80.260">  5  6 -1 -1</clus>
<clus scale="   94.727">  7  8 -1 -1</clus>
<clus scale="  136.296">  1  7  2 -1</clus>
<clus scale="  416.300">  2  9  1 -1</clus>
<clus scale="  416.300">  2  5  1 -1</clus>
</clustering>
</event>
<event>
 9    2  0.6190160E-005  0.1013437E+03  0.7546771E-02  0.1281790E+00
          4   -1    0    0  502    0 -0.00000000000E+00  0.00000000000E+00  0.31377105014E+03  0.31377105014E+03  0.00000000000E+00 0. -1.
         21   -1    0    0  501  502  0.00000000000E+00 -0.00000000000E+00 -0.67830876490E+02  0.67830876490E+02  0.00000000000E+00 0.  1.
         23    2    1    2    0    0 -0.37113551594E+02  0.13973110605E+02  0.15020367821E+03  0.17943298576E+03  0.89790800753E+02 0.  0.
         24    2    1    2    0    0  0.63469844765E+02 -0.35266619469E+02  0.88613747727E+01  0.10892005723E+03  0.80702535649E+02 0.  0.
        -11    1    4    4    0    0  0.47354846947E+02 -0.77646584372E+01 -0.31565453037E+02  0.57438221381E+02  0.00000000000E+00 0.  1.
         12    1    4    4    0    0  0.16114997818E+02 -0.27501961032E+02  0.40426827810E+02  0.51481835845E+02  0.00000000000E+00 0. -1.
        -13    1    3    3    0    0  0.17769154377E+02 -0.18824356409E+02  0.15109602116E+02  0.29973310087E+02  0.00000000000E+00 0.  1.
         13    1    3    3    0    0 -0.54882705970E+02  0.32797467014E+02  0.13509407610E+03  0.14945967568E+03  0.00000000000E+00 0. -1.
          3    1    1    2  501    0 -0.26356293171E+02  0.21293508864E+02  0.86875120666E+02  0.93248883641E+02  0.00000000000E+00 0. -1.
<scales pt_clust_5="13000.00000" pt_clust_6="13000.00000" pt_clust_7="13000.00000" pt_clust_8="13000.00000" pt_clust_9="33.88316"></scales>
<clustering>
<clus scale="   33.883">  2  9  1 -1</clus>
<clus scale="   80.703">  5  6 -1 -1</clus>
<clus scale="   89.791">  7  8 -1 -1</clus>
<clus scale="   93.387">  2  5  1 -1</clus>
<clus scale="   33.883">  2  5  1 -1</clus>
</clustering>
</event>
<event>
 9    2  0.6190160E-005  0.9123778E+02  0.7546771E-02  0.1305485E+00
         -1   -1    0    0    0  501 -0.00000000000E+00  0.00000000000E+00  0.27782825516E+03  0.27782825516E+03  0.00000000000E+00 0.  1.
         21   -1    0    0  501  502  0.00000000000E+00 -0.00000000000E+00 -0.48080744559E+02  0.48080744559E+02  0.00000000000E+00 0.  1.
         24    2    1    2    0    0  0.33200958572E+02  0.26594098969E+01  0.11982188808E+03  0.14807554390E+03  0.80372294527E+02 0.  0.
         23    2    1    2    0    0  0.62352489637E+01  0.19266285260E+02  0.89954994235E+02  0.12849000066E+03  0.89485815656E+02 0.  0.
        -13    1    3    3    0    0  0.46720227553E+02  0.18909165853E+01  0.12509175882E+03  0.13354513602E+03  0.00000000000E+00 0.  1.
         14    1    3    3    0    0 -0.13519268981E+02  0.76849331163E+00 -0.52698707399E+01  0.14530407888E+02  0.00000000000E+00 0. -1.
        -13    1    4    4    0    0  0.44713848257E+02 -0.65191949891E+01  0.39757077117E+02  0.60186820070E+02  0.00000000000E+00 0.  1.
         13    1    4    4    0    0 -0.38478599293E+02  0.25785480249E+02  0.50197917119E+02  0.68303180587E+02  0.00000000000E+00 0. -1.
         -2    1    1    2    0  502 -0.39436207536E+02 -0.21925695157E+02  0.19970628283E+02  0.49343455158E+02  0.00000000000E+00 0.  1.
<scales pt_clust_5="13000.00000" pt_clust_6="13000.00000" pt_clust_7="13000.00000" pt_clust_8="13000.00000" pt_clust_9="45.12151"></scales>
<clustering>
<clus scale="   45.122">  2  9  1 -1</clus>
<clus scale="   80.372">  5  6 -1 -1</clus>
<clus scale="   82.318">  1  5  2 -1</clus>
<clus scale="   89.486">  7  8 -1 -1</clus>
<clus scale="   45.122">  2  5  1 -1</clus>
</clustering>
</event>
<event>
 9    2  0.6190160E-005  0.9106895E+02  0.7546771E-02  0.1306992E+00
         -1   -1    0    0    0  501 -0.00000000000E+00  0.00000000000E+00  0.13338558639E+03  0.13338558639E+03  0.00000000000E+00 0.  1.
         21   -1    0    0  501  502  0.00000000000E+00 -0.00000000000E+00 -0.93285753781E+02  0.93285753781E+02  0.00000000000E+00 0.  1.
         24    2    1    2    0    0  0.78300555566E+01  0.79910436130E+01  0.58384603291E+02  0.99312179067E+02  0.79554889614E+02 0.  0.
         23    2    1    2    0    0  0.17533696432E+02 -0.24940116951E+02 -0.17689002297E+02  0.96847754358E+02  0.90206134923E+02 0.  0.
        -13    1    3    3    0    0 -0.71180751369E+01 -0.32628747137E+02  0.40465139535E+02  0.52466462154E+02  0.00000000000E+00 0.  1.
         14    1    3    3    0    0  0.14948130693E+02  0.40619790750E+02  0.17919463756E+02  0.46845716913E+02  0.00000000000E+00 0. -1.
        -11    1    4    4    0    0  0.53115601554E+02 -0.12822668021E+02  0.14633918093E+01  0.54661041513E+02  0.00000000000E+00 0.  1.
         11    1    4    4    0    0 -0.35581905122E+02 -0.12117448930E+02 -0.19152394106E+02  0.42186712845E+02  0.00000000000E+00 0. -1.
         -2    1    1    2    0  502 -0.25363751988E+02  0.16949073338E+02 -0.59576838078E+00  0.30511406751E+02  0.00000000000E+00 0.  1.
<scales pt_clust_5="13000.00000" pt_clust_6="13000.00000" pt_clust_7="13000.00000" pt_clust_8="13000.00000" pt_clust_9="30.50559"></scales>
<clustering>
<clus scale="   30.506">  2  9  1 -1</clus>
<clus scale="   79.555">  5  6 -1 -1</clus>
<clus scale="   80.532">  1  5  2 -1</clus>
<clus scale="   90.206">  7  8 -1 -1</clus>
<clus scale="   30.506">  2  5  1 -1</clus>
</clustering>
</event>
<event>
 9    2  0.6190160E-005  0.9208338E+02  0.7546771E-02  0.1304798E+00
          4   -1    0    0  502    0 -0.00000000000E+00  0.00000000000E+00  0.19496724615E+03  0.19496724615E+03  0.00000000000E+00 0. -1.
         21   -1    0    0  501  502  0.00000000000E+00 -0.00000000000E+00 -0.11831829382E+03  0.11831829382E+03  0.00000000000E+00 0. -1.
         24    2    1    2    0    0 -0.13480025634E+01  0.56282891304E+01  0.62547123159E+02  0.10181666152E+03  0.80131112553E+02 0.  0.
         23    2    1    2    0    0 -0.49881792063E+01 -0.44819893568E+02 -0.66528211419E+02  0.12159489721E+03  0.91244787909E+02 0.  0.
        -11    1    3    3    0    0 -0.36606587129E+02  0.18902603549E+02  0.22947780265E+02  0.47158787741E+02  0.00000000000E+00 0.  1.
         12    1    3    3    0    0  0.35258584565E+02 -0.13274314418E+02  0.39599342894E+02  0.54657873783E+02  0.00000000000E+00 0. -1.
        -13    1    4    4    0    0  0.30286463050E+02 -0.51783222231E+02 -0.20951963881E+02  0.63543345357E+02  0.00000000000E+00 0. -1.
         13    1    4    4    0    0 -0.35274642256E+02  0.69633286628E+01 -0.45576247538E+02  0.58051551849E+02  0.00000000000E+00 0.  1.
          3    1    1    2  501    0  0.63361817697E+01  0.39191604438E+02  0.80630040589E+02  0.89873981236E+02  0.00000000000E+00 0. -1.
<scales pt_clust_5="13000.00000" pt_clust_6="13000.00000" pt_clust_7="13000.00000" pt_clust_8="13000.00000" pt_clust_9="39.70051"></scales>
<clustering>
<clus scale="   39.701">  2  9  1 -1</clus>
<clus scale="   80.131">  5  6 -1 -1</clus>
<clus scale="   81.085">  1  5  2 -1</clus>
<clus scale="   91.245">  7  8 -1 -1</clus>
<clus scale="   39.701">  2  5  1 -1</clus>
</clustering>
</event>
<event>
 9    2  0.6190160E-005  0.1397066E+03  0.7546771E-02  0.1231774E+00
          2   -1    0    0  502    0 -0.00000000000E+00  0.00000000000E+00  0.37655537911E+03  0.37655537911E+03  0.00000000000E+00 0. -1.
         21   -1    0    0  501  502  0.00000000000E+00 -0.00000000000E+00 -0.14755202171E+03  0.14755202171E+03  0.00000000000E+00 0.  1.
         24    2    1    2    0    0  0.24404991023E+02  0.48431475789E+02 -0.70890263334E+02  0.11917711058E+03  0.78971784948E+02 0.  0.
         23    2    1    2    0    0  0.59119045685E+02 -0.11146712604E+03  0.23740771021E+03  0.28305229006E+03  0.88522292624E+02 0.  0.
        -13    1    3    3    0    0 -0.28608551518E+02  0.14146408040E+02 -0.31027838236E+02  0.44511760536E+02  0.00000000000E+00 0.  1.
         14    1    3    3    0    0  0.53013542541E+02  0.34285067749E+02 -0.39862425098E+02  0.74665350049E+02  0.00000000000E+00 0. -1.
        -11    1    4    4    0    0  0.98763115120E+01 -0.10373859158E+03  0.15635907740E+03  0.18790262903E+03  0.00000000000E+00 0. -1.
         11    1    4    4    0    0  0.49242734173E+02 -0.77285344635E+01  0.81048632808E+02  0.95149661029E+02  0.00000000000E+00 0.  1.
          1    1    1    2  501    0 -0.83524036708E+02  0.63035650250E+02  0.62485910524E+02  0.12187800017E+03  0.00000000000E+00 0. -1.
<scales pt_clust_5="13000.00000" pt_clust_6="13000.00000" pt_clust_7="13000.00000" pt_clust_8="13000.00000" pt_clust_9="108.08208"></scales>
<clustering>
<clus scale="   78.972">  5  6 -1 -1</clus>
<clus scale="   88.522">  7  8 -1 -1</clus>
<clus scale="   95.801">  1  5  2 -1</clus>
<clus scale="  108.082">  2  9  1 -1</clus>
<clus scale="  108.082">  2  5  1 -1</clus>
</clustering>
</event>
<event>
 9    2  0.6190160E-005  0.9698490E+02  0.7546771E-02  0.1292141E+00
         21   -1    0    0  501  502  0.00000000000E+00  0.00000000000E+00  0.27923579829E+03  0.27923579829E+03  0.00000000000E+00 0.  1.
         -1   -1    0    0    0  501 -0.00000000000E+00 -0.00000000000E+00 -0.18426129983E+03  0.18426129983E+03  0.00000000000E+00 0.  1.
         23    2    1    2    0    0 -0.13723721047E+02  0.29267342409E+02 -0.14011284822E+03  0.17055743797E+03  0.91724105664E+02 0.  0.
         24    2    1    2    0    0 -0.30892221248E+02 -0.38895344133E+02  0.62277795877E+02  0.11420404094E+03  0.81834356958E+02 0.  0.
        -11    1    4    4    0    0 -0.58827755861E+02 -0.29007038375E+02  0.37347201904E+02  0.75477987685E+02  0.00000000000E+00 0.  1.
         12    1    4    4    0    0  0.27935534612E+02 -0.98883057584E+01  0.24930593973E+02  0.38726053255E+02  0.00000000000E+00 0. -1.
        -13    1    3    3    0    0 -0.52751208460E+02  0.23226394733E+02 -0.87324238707E+02  0.10463115249E+03  0.00000000000E+00 0.  1.
         13    1    3    3    0    0  0.39027487413E+02  0.60409476761E+01 -0.52788609513E+02  0.65926285478E+02  0.00000000000E+00 0. -1.
         -2    1    1    2    0  502  0.44615942295E+02  0.96280017242E+01  0.17280955080E+03  0.17873561921E+03  0.00000000000E+00 0.  1.
<scales pt_clust_5="13000.00000" pt_clust_6="13000.00000" pt_clust_7="13000.00000" pt_clust_8="13000.00000" pt_clust_9="45.64297"></scales>
<clustering>
<clus scale="   45.643">  1  9  2 -1</clus>
<clus scale="   81.834">  5  6 -1 -1</clus>
<clus scale="   87.690">  1  5  2 -1</clus>
<clus scale="   91.724">  7  8 -1 -1</clus>
<clus scale="   45.643">  1  5  2 -1</clus>
</clustering>
</event>
<event>
 9    2  0.6190160E-005  0.1497027E+03  0.7546771E-02  0.1225019E+00
         21   -1    0    0  501  502  0.00000000000E+00  0.00000000000E+00  0.27277600188E+02  0.27277600188E+02  0.00000000000E+00 0. -1.
          2   -1    0    0  502    0 -0.00000000000E+00 -0.00000000000E+00 -0.12935956263E+04  0.12935956263E+04  0.00000000000E+00 0. -1.
         24    2    1    2    0    0  0.14646118036E+02 -0.14929732321E+02 -0.44529709647E+03  0.45421254955E+03  0.87075429147E+02 0.  0.
         23    2    1    2    0    0 -0.78517108071E+02  0.10760399898E+03 -0.55350477586E+03  0.57643160257E+03  0.90345440916E+02 0.  0.
        -13    1    3    3    0    0  0.30449153974E+02  0.14885195205E+02 -0.74082406146E+02  0.81467311938E+02  0.00000000000E+00 0.  1.
         14    1    3    3    0    0 -0.15803035938E+02 -0.29814927526E+02 -0.37121469032E+03  0.37274523761E+03  0.00000000000E+00 0. -1.
        -11    1    4    4    0    0 -0.63238553053E+02  0.13176589027E+02 -0.19722005771E+03  0.20752948767E+03  0.00000000000E+00 0.  1.
         11    1    4    4    0    0 -0.15278555018E+02  0.94427409957E+02 -0.35628471815E+03  0.36890211491E+03  0.00000000000E+00 0. -1.
          1    1    1    2  501    0  0.63870990035E+02 -0.92674266663E+02 -0.26751615375E+03  0.29022907433E+03  0.00000000000E+00 0. -1.
<scales pt_clust_5="13000.00000" pt_clust_6="13000.00000" pt_clust_7="13000.00000" pt_clust_8="13000.00000" pt_clust_9="119.36752"></scales>
<clustering>
<clus scale="   87.075">  5  6 -1 -1</clus>
<clus scale="   89.552">  2  5  1 -1</clus>
<clus scale="   90.345">  7  8 -1 -1</clus>
<clus scale="  119.368">  1  9  2 -1</clus>
<clus scale="  119.368">  1  5  2 -1</clus>
</clustering>
</event>
<event>
 9    2  0.6190160E-005  0.1305764E+03  0.7546771E-02  0.1236486E+00
         21   -1    0    0  501  502  0.00000000000E+00  0.00000000000E+00  0.82295763384E+02  0.82295763384E+02  0.00000000000E+00 0.  1.
         -1   -1    0    0    0  501 -0.00000000000E+00 -0.00000000000E+00 -0.38357340588E+03  0.38357340588E+03  0.00000000000E+00 0.  1.
         23    2    1    2    0    0 -0.70823827428E+02  0.39755320523E+02 -0.27594518075E+03  0.30805332741E+03  0.11024794651E+03 0.  0.
         24    2    1    2    0    0  0.54342082878E+02  0.43274936621E+00 -0.48664729846E+02  0.10850941632E+03  0.80329249062E+02 0.  0.
        -11    1    4    4    0    0  0.54641986787E+02  0.32079650789E+02 -0.42418012436E+02  0.76250498318E+02  0.00000000000E+00 0.  1.
         12    1    4    4    0    0 -0.29990390906E+00 -0.31646901423E+02 -0.62467174100E+01  0.32258917998E+02  0.00000000000E+00 0. -1.
        -11    1    3    3    0    0 -0.39245891240E+02 -0.27063867243E+01 -0.15493104964E+02  0.42280028497E+02  0.00000000000E+00 0. -1.
         11    1    3    3    0    0 -0.31577936188E+02  0.42461707247E+02 -0.26045207578E+03  0.26577329892E+03  0.00000000000E+00 0.  1.
         -2    1    1    2    0  502  0.16481744550E+02 -0.40188069889E+02  0.23332268095E+02  0.49306425537E+02  0.00000000000E+00 0.  1.
<scales pt_clust_5="13000.00000" pt_clust_6="13000.00000" pt_clust_7="13000.00000" pt_clust_8="13000.00000" pt_clust_9="43.43649"></scales>
<clustering>
<clus scale="   43.436">  1  9  2 -1</clus>
<clus scale="   80.329">  5  6 -1 -1</clus>
<clus scale="  106.529">  1  5  2 -1</clus>
<clus scale="  110.248">  7  8 -1 -1</clus>
<clus scale="   43.436">  1  5  2 -1</clus>
</clustering>
</event>
<event>
 9    2  0.6190160E-005  0.1814316E+03  0.7546771E-02  0.1168560E+00
          4   -1    0    0  502    0 -0.00000000000E+00  0.00000000000E+00  0.31777004230E+03  0.31777004230E+03  0.00000000000E+00 0. -1.
         21   -1    0    0  501  502  0.00000000000E+00 -0.00000000000E+00 -0.31987779902E+03  0.31987779902E+03  0.00000000000E+00 0.  1.
         23    2    1    2    0    0  0.44068353656E+02  0.14621454272E+03  0.23973104032E+03  0.29968138199E+03  0.94959184488E+02 0.  0.
         24    2    1    2    0    0 -0.20167151311E+02 -0.16739251920E+03 -0.14310107189E+03  0.23419308833E+03  0.77081232252E+02 0.  0.
        -13    1    4    4    0    0  0.22557237572E+02 -0.11770256452E+03 -0.93711294228E+02  0.15213326174E+03  0.00000000000E+00 0.  1.
         14    1    4    4    0    0 -0.42724388883E+02 -0.49689954689E+02 -0.49389777665E+02  0.82059826591E+02  0.00000000000E+00 0. -1.
        -11    1    3    3    0    0  0.62306486256E+02  0.89939671373E+02  0.20137230231E+03  0.22917688987E+03  0.00000000000E+00 0. -1.
         11    1    3    3    0    0 -0.18238132600E+02  0.56274871347E+02  0.38358738017E+02  0.70504492113E+02  0.00000000000E+00 0.  1.
          3    1    1    2  501    0 -0.23901202346E+02  0.21177976485E+02 -0.98737725147E+02  0.10377337100E+03  0.00000000000E+00 0. -1.
<scales pt_clust_5="13000.00000" pt_clust_6="13000.00000" pt_clust_7="13000.00000" pt_clust_8="13000.00000" pt_clust_9="31.93390"></scales>
<clustering>
<clus scale="   31.934">  2  9  1 -1</clus>
<clus scale="   77.081">  5  6 -1 -1</clus>
<clus scale="   94.959">  7  8 -1 -1</clus>
<clus scale="  172.747">  2  5  1 -1</clus>
<clus scale="   31.934">  2  5  1 -1</clus>
</clustering>
</event>
<event>
 9    2  0.6190160E-005  0.1120660E+03  0.7546771E-02  0.1258187E+00
         21   -1    0    0  501  502  0.00000000000E+00  0.00000000000E+00  0.63390737553E+02  0.63390737553E+02  0.00000000000E+00 0. -1.
          2   -1    0    0  502    0 -0.00000000000E+00 -0.00000000000E+00 -0.29177769718E+03  0.29177769718E+03  0.00000000000E+00 0. -1.
         24    2    1    2    0    0 -0.13751613765E+02 -0.55240300589E+02 -0.14823133946E+03  0.18144904388E+03  0.87810180724E+02 0.  0.
         23    2    1    2    0    0  0.11330387518E+02  0.83033617714E+02 -0.53601313294E+02  0.13520365346E+03  0.91564009137E+02 0.  0.
        -11    1    3    3    0    0 -0.50515346046E+02 -0.22261208283E+02 -0.75242037720E+02  0.93320554117E+02  0.00000000000E+00 0.  1.
         12    1    3    3    0    0  0.36763732281E+02 -0.32979092306E+02 -0.72989301737E+02  0.88128489767E+02  0.00000000000E+00 0. -1.
        -13    1    4    4    0    0  0.48671196717E+02  0.62494671368E+02 -0.22187843054E+02  0.82260377574E+02  0.00000000000E+00 0. -1.
         13    1    4    4    0    0 -0.37340809199E+02  0.20538946346E+02 -0.31413470241E+02  0.52943275883E+02  0.00000000000E+00 0.  1.
          1    1    1    2  501    0  0.24212262469E+01 -0.27793317125E+02 -0.26554306876E+02  0.38515737394E+02  0.00000000000E+00 0. -1.
<scales pt_clust_5="13000.00000" pt_clust_6="13000.00000" pt_clust_7="13000.00000" pt_clust_8="13000.00000" pt_clust_9="27.89859"></scales>
<clustering>
<clus scale="   27.899">  1  9  2 -1</clus>
<clus scale="   87.810">  5  6 -1 -1</clus>
<clus scale="   91.564">  7  8 -1 -1</clus>
<clus scale="  109.020">  2  5  1 -1</clus>
<clus scale="   27.899">  1  5  2 -1</clus>
</clustering>
</event>
<event>
 9    2  0.6190160E-005  0.1266037E+03  0.7546771E-02  0.1236441E+00
          2   -1    0    0  502    0 -0.00000000000E+00  0.00000000000E+00  0.50222056294E+02  0.50222056294E+02  0.00000000000E+00 0. -1.
         21   -1    0    0  501  502  0.00000000000E+00 -0.00000000000E+00 -0.66625064562E+03  0.66625064562E+03  0.00000000000E+00 0.  1.
         24    2    1    2    0    0 -0.52519916840E+02 -0.57425154643E+02 -0.99561091965E+02  0.14870213713E+03  0.78383190177E+02 0.  0.
         23    2    1    2    0    0  0.73861628843E+02  0.99303186904E+02 -0.49024054700E+03  0.51394593118E+03  0.92130142258E+02 0.  0.
        -11    1    3    3    0    0  0.66660991997E+01 -0.24994869822E+02 -0.70731957282E+02  0.75313944107E+02  0.00000000000E+00 0.  1.
         12    1    3    3    0    0 -0.59186016040E+02 -0.32430284822E+02 -0.28829134683E+02  0.73388193021E+02  0.00000000000E+00 0. -1.
        -13    1    4    4    0    0  0.28533037164E+02  0.41376067990E+02 -0.63853904208E+02  0.81261517920E+02  0.00000000000E+00 0. -1.
         13    1    4    4    0    0  0.45328591679E+02  0.57927118914E+02 -0.42638664279E+03  0.43268441326E+03  0.00000000000E+00 0.  1.
          1    1    1    2  501    0 -0.21341712003E+02 -0.41878032260E+02 -0.26226950358E+02  0.53824633601E+02  0.00000000000E+00 0. -1.
<scales pt_clust_5="13000.00000" pt_clust_6="13000.00000" pt_clust_7="13000.00000" pt_clust_8="13000.00000" pt_clust_9="47.00256"></scales>
<clustering>
<clus scale="   47.003">  2  9  1 -1</clus>
<clus scale="   78.383">  5  6 -1 -1</clus>
<clus scale="   92.130">  7  8 -1 -1</clus>
<clus scale="  116.981">  1  5  2 -1</clus>
<clus scale="   47.003">  2  5  1 -1</clus>
</clustering>
</event>
<event>
 9    2  0.6190160E-005  0.2025202E+03  0.7546771E-02  0.1163364E+00
         21   -1    0    0  501  502  0.00000000000E+00  0.00000000000E+00  0.10386632899E+03  0.10386632899E+03  0.00000000000E+00 0. -1.
          2   -1    0    0  502    0 -0.00000000000E+00 -0.00000000000E+00 -0.81581764632E+03  0.81581764632E+03  0.00000000000E+00 0. -1.
         23    2    1    2    0    0  0.10271412306E+03  0.35356042866E+02 -0.67969186487E+02  0.15562495131E+03  0.88312367857E+02 0.  0.
         24    2    1    2    0    0 -0.24950289187E+03 -0.97756336705E+01 -0.39412437236E+03  0.47314632324E+03  0.78652185256E+02 0.  0.
        -13    1    4    4    0    0 -0.14766990510E+03  0.32957369088E+02 -0.22324714323E+03  0.26968847957E+03  0.00000000000E+00 0.  1.
         14    1    4    4    0    0 -0.10183298676E+03 -0.42733002759E+02 -0.17087722913E+03  0.20345784367E+03  0.00000000000E+00 0. -1.
        -13    1    3    3    0    0  0.30844380258E+02  0.56356783632E+02 -0.22749142480E+02  0.68154136620E+02  0.00000000000E+00 0. -1.
         13    1    3    3    0    0  0.71869742801E+02 -0.21000740766E+02 -0.45220044007E+02  0.87470814693E+02  0.00000000000E+00 0.  1.
          1    1    1    2  501    0  0.14678876881E+03 -0.25580409195E+02 -0.24985775849E+03  0.29091270075E+03  0.00000000000E+00 0. -1.
<scales pt_clust_5="13000.00000" pt_clust_6="13000.00000" pt_clust_7="13000.00000" pt_clust_8="13000.00000" pt_clust_9="186.62333"></scales>
<clustering>
<clus scale="   78.652">  5  6 -1 -1</clus>
<clus scale="   88.312">  7  8 -1 -1</clus>
<clus scale="  139.998">  2  7  1 -1</clus>
<clus scale="  186.623">  1  9  2 -1</clus>
<clus scale="  186.623">  1  5  2 -1</clus>
</clustering>
</event>
<event>
 9    2  0.6190160E-005  0.1666091E+03  0.7546771E-02  0.1182171E+00
         -3   -1    0    0    0  501 -0.00000000000E+00  0.00000000000E+00  0.11970435340E+03  0.11970435340E+03  0.00000000000E+00 0.  1.
         21   -1    0    0  501  502  0.00000000000E+00 -0.00000000000E+00 -0.40283991852E+03  0.40283991852E+03  0.00000000000E+00 0. -1.
         23    2    1    2    0    0  0.96778548743E+02 -0.10678851239E+03 -0.18580073499E+02  0.17097518119E+03  0.90096723450E+02 0.  0.
         24    2    1    2    0    0 -0.12843156425E+03  0.53868685990E+02 -0.22644302411E+03  0.27907783887E+03  0.84920521394E+02 0.  0.
        -11    1    4    4    0    0 -0.33873394436E+02  0.98046420717E+01 -0.67914727793E+01  0.35911863768E+02  0.00000000000E+00 0.  1.
         12    1    4    4    0    0 -0.94558169811E+02  0.44064043918E+02 -0.21965155133E+03  0.24316597510E+03  0.00000000000E+00 0. -1.
        -13    1    3    3    0    0  0.50448613555E+01 -0.70133337403E+02  0.73614011312E+00  0.70318401174E+02  0.00000000000E+00 0.  1.
         13    1    3    3    0    0  0.91733687388E+02 -0.36655174990E+02 -0.19316213612E+02  0.10065678002E+03  0.00000000000E+00 0. -1.
         -4    1    1    2    0  502  0.31653015504E+02  0.52919826403E+02 -0.38112467509E+02  0.72491251863E+02  0.00000000000E+00 0.  1.
<scales pt_clust_5="13000.00000" pt_clust_6="13000.00000" pt_clust_7="13000.00000" pt_clust_8="13000.00000" pt_clust_9="61.66381"></scales>
<clustering>
<clus scale="   61.664">  2  9  1 -1</clus>
<clus scale="   84.921">  5  6 -1 -1</clus>
<clus scale="   90.097">  7  8 -1 -1</clus>
<clus scale="  163.868">  2  5  1 -1</clus>
<clus scale="   61.664">  2  5  1 -1</clus>
</clustering>
</event>
<event>
 9    2  0.6190160E-005  0.1818599E+03  0.7546771E-02  0.1167439E+00
          2   -1    0    0  502    0 -0.00000000000E+00  0.00000000000E+00  0.54905513829E+03  0.54905513829E+03  0.00000000000E+00 0. -1.
         21   -1    0    0  501  502  0.00000000000E+00 -0.00000000000E+00 -0.72557537627E+02  0.72557537627E+02  0.00000000000E+00 0. -1.
         24    2    1    2    0    0 -0.13286769940E+03  0.79655294073E+02  0.25828048819E+03  0.31160684095E+03  0.79945114478E+02 0.  0.
         23    2    1    2    0    0  0.12298007613E+03 -0.10411853021E+03  0.15614326967E+03  0.24255676546E+03  0.92131950764E+02 0.  0.
        -13    1    3    3    0    0 -0.56292822582E+02 -0.77830411336E+01  0.67808176831E+02  0.88472631072E+02  0.00000000000E+00 0.  1.
         14    1    3    3    0    0 -0.76574876820E+02  0.87438335207E+02  0.19047231136E+03  0.22313420988E+03  0.00000000000E+00 0. -1.
        -13    1    4    4    0    0  0.68058730151E+02 -0.95660654901E+01  0.95071293161E+02  0.11731176898E+03  0.00000000000E+00 0.  1.
         13    1    4    4    0    0  0.54921345974E+02 -0.94552464722E+02  0.61071976509E+02  0.12524499648E+03  0.00000000000E+00 0. -1.
          1    1    1    2  501    0  0.98876232770E+01  0.24463236139E+02  0.62073842810E+02  0.67449069509E+02  0.00000000000E+00 0. -1.
<scales pt_clust_5="13000.00000" pt_clust_6="13000.00000" pt_clust_7="13000.00000" pt_clust_8="13000.00000" pt_clust_9="26.38590"></scales>
<clustering>
<clus scale="   26.386">  2  9  1 -1</clus>
<clus scale="   79.945">  5  6 -1 -1</clus>
<clus scale="   92.132">  7  8 -1 -1</clus>
<clus scale="  176.000">  1  5  2 -1</clus>
<clus scale="   26.386">  2  5  1 -1</clus>
</clustering>
</event>
<event>
 9    2  0.6190160E-005  0.2305294E+03  0.7546771E-02  0.1142899E+00
          2   -1    0    0  502    0 -0.00000000000E+00  0.00000000000E+00  0.84536797852E+03  0.84536797852E+03  0.00000000000E+00 0. -1.
         21   -1    0    0  501  502  0.00000000000E+00 -0.00000000000E+00 -0.27418729370E+03  0.27418729370E+03  0.00000000000E+00 0. -1.
         23    2    1    2    0    0  0.11029660905E+03  0.58798940600E+02  0.32890391065E+03  0.36306169917E+03  0.89517359083E+02 0.  0.
         24    2    1    2    0    0 -0.91828867165E+02  0.16347328941E+03  0.42288763883E+03  0.46949830105E+03  0.80241151659E+02 0.  0.
        -13    1    4    4    0    0 -0.34611510654E+02  0.16855417127E+02  0.14616031431E+03  0.15114529180E+03  0.00000000000E+00 0.  1.
         14    1    4    4    0    0 -0.57217356511E+02  0.14661787228E+03  0.27672732452E+03  0.31835300925E+03  0.00000000000E+00 0. -1.
        -11    1    3    3    0    0 -0.30250245122E+00  0.37570069806E+02  0.52176595007E+02  0.64296179665E+02  0.00000000000E+00 0.  1.
         11    1    3    3    0    0  0.11059911150E+03  0.21228870794E+02  0.27672731564E+03  0.29876551950E+03  0.00000000000E+00 0. -1.
          1    1    1    2  501    0 -0.18467741887E+02 -0.22227223001E+03 -0.18061086465E+03  0.28699527201E+03  0.00000000000E+00 0. -1.
<scales pt_clust_5="13000.00000" pt_clust_6="13000.00000" pt_clust_7="13000.00000" pt_clust_8="13000.00000" pt_clust_9="216.11372"></scales>
<clustering>
<clus scale="   80.241">  5  6 -1 -1</clus>
<clus scale="   89.517">  7  8 -1 -1</clus>
<clus scale="  153.740">  1  7  2 -1</clus>
<clus scale="  216.114">  2  9  1 -1</clus>
<clus scale="  216.114">  2  5  1 -1</clus>
</clustering>
</event>
<event>
 9    2  0.6190160E-005  0.1632842E+03  0.7546771E-02  0.1213246E+00
         -1   -1    0    0    0  501 -0.00000000000E+00  0.00000000000E+00  0.15510910464E+03  0.15510910464E+03  0.00000000000E+00 0.  1.
         21   -1    0    0  501  502  0.00000000000E+00 -0.00000000000E+00 -0.30483218722E+03  0.30483218722E+03  0.00000000000E+00 0. -1.
         24    2    1    2    0    0 -0.28206006354E+02  0.20887586416E+02  0.36453320082E+02  0.95620302075E+02  0.81132777367E+02 0.  0.
         23    2    1    2    0    0  0.11680283565E+03 -0.88060462793E+02 -0.18318583026E+03  0.25309807395E+03  0.95415088467E+02 0.  0.
        -11    1    3    3    0    0 -0.12427806877E+02 -0.30521838873E+02  0.50312597737E+01  0.33336865583E+02  0.00000000000E+00 0.  1.
         12    1    3    3    0    0 -0.15778199477E+02  0.51409425290E+02  0.31422060308E+02  0.62283436493E+02  0.00000000000E+00 0. -1.
        -13    1    4    4    0    0 -0.14342010935E+02 -0.25643953351E+02 -0.32426407869E+02  0.43758171219E+02  0.00000000000E+00 0.  1.
         13    1    4    4    0    0  0.13114484658E+03 -0.62416509443E+02 -0.15075942239E+03  0.20933990273E+03  0.00000000000E+00 0. -1.
         -2    1    1    2    0  502 -0.88596829295E+02  0.67172876377E+02 -0.29905724024E+01  0.11122291583E+03  0.00000000000E+00 0.  1.
<scales pt_clust_5="13000.00000" pt_clust_6="13000.00000" pt_clust_7="13000.00000" pt_clust_8="13000.00000" pt_clust_9="132.50554"></scales>
<clustering>
<clus scale="   81.133">  5  6 -1 -1</clus>
<clus scale="   88.399">  1  5  2 -1</clus>
<clus scale="   95.415">  7  8 -1 -1</clus>
<clus scale="  132.506">  2  9  1 -1</clus>
<clus scale="  132.506">  2  5  1 -1</clus>
</clustering>
</event>
<event>
 9    2  0.6190160E-005  0.1021067E+03  0.7546771E-02  0.1284083E+00
          4   -1    0    0  502    0 -0.00000000000E+00  0.00000000000E+00  0.10266427012E+03  0.10266427012E+03  0.00000000000E+00 0. -1.
         21   -1    0    0  501  502  0.00000000000E+00 -0.00000000000E+00 -0.18608133448E+03  0.18608133448E+03  0.00000000000E+00 0. -1.
         23    2    1    2    0    0 -0.20373375119E+02  0.39165569614E+02  0.43294755069E+02  0.11106944532E+03  0.92265755347E+02 0.  0.
         24    2    1    2    0    0  0.12656493721E+01 -0.45987932383E+02 -0.57640255781E+02  0.10568636333E+03  0.75701496111E+02 0.  0.
        -11    1    4    4    0    0  0.23671121827E+01 -0.28023496962E+02  0.14285070078E+02  0.31543348414E+02  0.00000000000E+00 0.  1.
         12    1    4    4    0    0 -0.11014628106E+01 -0.17964435421E+02 -0.71925325859E+02  0.74143014912E+02  0.00000000000E+00 0. -1.
        -11    1    3    3    0    0  0.18240648441E+02  0.18873914905E+02  0.59105442946E+02  0.64671472113E+02  0.00000000000E+00 0. -1.
         11    1    3    3    0    0 -0.38614023560E+02  0.20291654709E+02 -0.15810687877E+02  0.46397973204E+02  0.00000000000E+00 0.  1.
          3    1    1    2  501    0  0.19107725747E+02  0.68223627690E+01 -0.69071563644E+02  0.71989795952E+02  0.00000000000E+00 0. -1.
<scales pt_clust_5="13000.00000" pt_clust_6="13000.00000" pt_clust_7="13000.00000" pt_clust_8="13000.00000" pt_clust_9="20.28916"></scales>
<clustering>
<clus scale="   20.289">  2  9  1 -1</clus>
<clus scale="   75.701">  5  6 -1 -1</clus>
<clus scale="   87.427">  2  5  1 -1</clus>
<clus scale="   92.266">  7  8 -1 -1</clus>
<clus scale="   20.289">  2  5  1 -1</clus>
</clustering>
</event>
<event>
 9    2  0.6190160E-005  0.2577408E+03  0.7546771E-02  0.1109156E+00
          2   -1    0    0  502    0 -0.00000000000E+00  0.00000000000E+00  0.16695008390E+04  0.16695008390E+04  0.00000000000E+00 0. -1.
         21   -1    0    0  501  502  0.00000000000E+00 -0.00000000000E+00 -0.12449403718E+03  0.12449403718E+03  0.00000000000E+00 0.  1.
         24    2    1    2    0    0  0.18883826956E+03  0.15634084590E+03  0.13715009309E+04  0.13954482152E+04  0.78476528910E+02 0.  0.
         23    2    1    2    0    0 -0.19441755231E+03 -0.85897439124E+02  0.23196185485E+02  0.23245510949E+03  0.91218201104E+02 0.  0.
        -13    1    3    3    0    0  0.83652706860E+02  0.43660718781E+02  0.35503208037E+03  0.36735787976E+03  0.00000000000E+00 0.  1.
         14    1    3    3    0    0  0.10518556270E+03  0.11268012711E+03  0.10164688506E+04  0.10280903354E+04  0.00000000000E+00 0. -1.
        -11    1    4    4    0    0 -0.11517482299E+03 -0.10588342672E+02 -0.15054941156E+02  0.11663620409E+03  0.00000000000E+00 0.  1.
         11    1    4    4    0    0 -0.79242729318E+02 -0.75309096452E+02  0.38251126642E+02  0.11581890540E+03  0.00000000000E+00 0. -1.
          1    1    1    2  501    0  0.55792827517E+01 -0.70443406771E+02  0.15030968544E+03  0.16609155153E+03  0.00000000000E+00 0. -1.
<scales pt_clust_5="13000.00000" pt_clust_6="13000.00000" pt_clust_7="13000.00000" pt_clust_8="13000.00000" pt_clust_9="70.66404"></scales>
<clustering>
<clus scale="   70.664">  2  9  1 -1</clus>
<clus scale="   78.477">  5  6 -1 -1</clus>
<clus scale="   91.218">  7  8 -1 -1</clus>
<clus scale="  253.512">  1  5  2 -1</clus>
<clus scale="   70.664">  2  5  1 -1</clus>
</clustering>
</event>
<event>
 9    2  0.1047281E-004  0.1379828E+03  0.7546771E-02  0.1218258E+00
          2   -1    0    0  502    0 -0.00000000000E+00  0.00000000000E+00  0.11999216041E+04  0.11999216041E+04  0.00000000000E+00 0. -1.
         21   -1    0    0  501  502  0.00000000000E+00 -0.00000000000E+00 -0.25108813430E+03  0.25108813430E+03  0.00000000000E+00 0. -1.
         24    2    1    2    0    0  0.81952887235E+01  0.10471059067E+03  0.10451523104E+04  0.10535127698E+04  0.80711422570E+02 0.  0.
         23    2    1    2    0    0 -0.46271780394E+02 -0.93186174397E+02  0.11678442782E+03  0.18071220336E+03  0.90518269443E+02 0.  0.
        -13    1    3    3    0    0  0.25331114177E+02  0.11268617311E+02  0.10592425062E+03  0.10949243787E+03  0.00000000000E+00 0.  1.
         14    1    3    3    0    0 -0.17135825454E+02  0.93441973364E+02  0.93922805977E+03  0.94402033197E+03  0.00000000000E+00 0. -1.
        -11    1    4    4    0    0 -0.58843099566E+02 -0.38283726042E+02  0.99546733515E+02  0.12181012355E+03  0.00000000000E+00 0. -1.
         11    1    4    4    0    0  0.12571319173E+02 -0.54902448355E+02  0.17237694309E+02  0.58902079812E+02  0.00000000000E+00 0.  1.
          1    1    1    2  501    0  0.38076491670E+02 -0.11524416278E+02 -0.21310326844E+03  0.21678476517E+03  0.00000000000E+00 0. -1.
<scales pt_clust_5="13000.00000" pt_clust_6="13000.00000" pt_clust_7="13000.00000" pt_clust_8="13000.00000" pt_clust_9="39.78230"></scales>
<clustering>
<clus scale="   39.782">  2  9  1 -1</clus>
<clus scale="   80.711">  5  6 -1 -1</clus>
<clus scale="   90.518">  7  8 -1 -1</clus>
<clus scale="  131.757">  1  5  2 -1</clus>
<clus scale="   39.782">  2  5  1 -1</clus>
</clustering>
</event>
<event>
 9    2  0.6190160E-005  0.4718961E+03  0.7546771E-02  0.1021386E+00
          2   -1    0    0  502    0 -0.00000000000E+00  0.00000000000E+00  0.29120010455E+04  0.29120010455E+04  0.00000000000E+00 0. -1.
         21   -1    0    0  501  502  0.00000000000E+00 -0.00000000000E+00 -0.64821151443E+02  0.64821151443E+02  0.00000000000E+00 0. -1.
         24    2    1    2    0    0  0.24818209852E+03  0.27101999859E+03  0.12334800933E+04  0.12895396617E+04  0.79957519655E+02 0.  0.
         23    2    1    2    0    0  0.22177660449E+02  0.19731655479E+02  0.30774955614E+03  0.32231478284E+03  0.91081518851E+02 0.  0.
        -13    1    3    3    0    0  0.45454002755E+02  0.39513354566E+02  0.11923380154E+03  0.13358170154E+03  0.00000000000E+00 0.  1.
         14    1    3    3    0    0  0.20272809577E+03  0.23150664402E+03  0.11142462917E+04  0.11559579602E+04  0.00000000000E+00 0. -1.
        -13    1    4    4    0    0 -0.35449579073E+02  0.11771810733E+02  0.13231366481E+03  0.13748510494E+03  0.00000000000E+00 0. -1.
         13    1    4    4    0    0  0.57627239522E+02  0.79598447458E+01  0.17543589134E+03  0.18482967790E+03  0.00000000000E+00 0.  1.
          1    1    1    2  501    0 -0.27035975897E+03 -0.29075165407E+03  0.13059502446E+04  0.13649677523E+04  0.00000000000E+00 0. -1.
<scales pt_clust_5="13000.00000" pt_clust_6="13000.00000" pt_clust_7="13000.00000" pt_clust_8="13000.00000" pt_clust_9="397.02781"></scales>
<clustering>
<clus scale="   79.958">  5  6 -1 -1</clus>
<clus scale="   91.082">  7  8 -1 -1</clus>
<clus scale="   91.151">  5  7 -1 -1</clus>
<clus scale="  397.028">  2  9  1 -1</clus>
<clus scale="  397.028">  2  5  1 -1</clus>
</clustering>
</event>
<event>
 9    2  0.6190160E-005  0.1062952E+03  0.7546771E-02  0.1273411E+00
         21   -1    0    0  501  502  0.00000000000E+00  0.00000000000E+00  0.80652552773E+03  0.80652552773E+03  0.00000000000E+00 0.  1.
          2   -1    0    0  502    0 -0.00000000000E+00 -0.00000000000E+00 -0.21675928027E+03  0.21675928027E+03  0.00000000000E+00 0. -1.
         23    2    1    2    0    0  0.10824143091E+02 -0.53700991281E+02 -0.18982722613E+03  0.21727302736E+03  0.90400409842E+02 0.  0.
         24    2    1    2    0    0 -0.59881775693E+01  0.11133199008E+03  0.65225605564E+03  0.66615636746E+03  0.76783289207E+02 0.  0.
        -11    1    4    4    0    0  0.17027653027E+02  0.11089818473E+03  0.52864560231E+03  0.54042068908E+03  0.00000000000E+00 0.  1.
         12    1    4    4    0    0 -0.23015830596E+02  0.43380535246E+00  0.12361045333E+03  0.12573567838E+03  0.00000000000E+00 0. -1.
        -11    1    3    3    0    0  0.45705924067E+02 -0.56091505409E+01 -0.90267437261E+02  0.10133461548E+03  0.00000000000E+00 0.  1.
         11    1    3    3    0    0 -0.34881780976E+02 -0.48091840740E+02 -0.99559788873E+02  0.11593841188E+03  0.00000000000E+00 0. -1.
          1    1    1    2  501    0 -0.48359655216E+01 -0.57630998797E+02  0.12733741795E+03  0.13985541318E+03  0.00000000000E+00 0. -1.
<scales pt_clust_5="13000.00000" pt_clust_6="13000.00000" pt_clust_7="13000.00000" pt_clust_8="13000.00000" pt_clust_9="57.83354"></scales>
<clustering>
<clus scale="   57.834">  1  9  2 -1</clus>
<clus scale="   76.783">  5  6 -1 -1</clus>
<clus scale="   90.400">  7  8 -1 -1</clus>
<clus scale="   94.985">  1  5  2 -1</clus>
<clus scale="   57.834">  1  5  2 -1</clus>
</clustering>
</event>
<event>
 9    2  0.6190160E-005  0.1014902E+03  0.7546771E-02  0.1282323E+00
         21   -1    0    0  501  502  0.00000000000E+00  0.00000000000E+00  0.22663134658E+03  0.22663134658E+03  0.00000000000E+00 0. -1.
          4   -1    0    0  502    0 -0.00000000000E+00 -0.00000000000E+00 -0.84980612375E+02  0.84980612375E+02  0.00000000000E+00 0. -1.
         24    2    1    2    0    0  0.11241612299E+01  0.38187237396E+02 -0.24194614793E+01  0.88867547915E+02  0.80200114964E+02 0.  0.
         23    2    1    2    0    0  0.25830275734E+02 -0.69757917677E+02  0.13731130096E+03  0.18068573556E+03  0.90882184386E+02 0.  0.
        -13    1    3    3    0    0 -0.24434147581E+02  0.20445479962E+02  0.30122709176E+02  0.43845442488E+02  0.00000000000E+00 0.  1.
         14    1    3    3    0    0  0.25558308811E+02  0.17741757434E+02 -0.32542170655E+02  0.45022105427E+02  0.00000000000E+00 0. -1.
        -11    1    4    4    0    0 -0.38928648951E+01 -0.62766085350E+02  0.13633030032E+03  0.15013556092E+03  0.00000000000E+00 0. -1.
         11    1    4    4    0    0  0.29723140629E+02 -0.69918323269E+01  0.98100064186E+00  0.30550174638E+02  0.00000000000E+00 0.  1.
          3    1    1    2  501    0 -0.26954436964E+02  0.31570680281E+02  0.67588947232E+01  0.42058675483E+02  0.00000000000E+00 0. -1.
<scales pt_clust_5="13000.00000" pt_clust_6="13000.00000" pt_clust_7="13000.00000" pt_clust_8="13000.00000" pt_clust_9="41.51206"></scales>
<clustering>
<clus scale="   41.512">  1  9  2 -1</clus>
<clus scale="   80.200">  5  6 -1 -1</clus>
<clus scale="   90.882">  7  8 -1 -1</clus>
<clus scale="   92.048">  2  5  1 -1</clus>
<clus scale="   41.512">  1  5  2 -1</clus>
</clustering>
</event>
<event>
 9    2  0.6190160E-005  0.1230092E+03  0.7546771E-02  0.1253305E+00
         -1   -1    0    0    0  501 -0.00000000000E+00  0.00000000000E+00  0.18875835251E+03  0.18875835251E+03  0.00000000000E+00 0.  1.
         21   -1    0    0  501  502  0.00000000000E+00 -0.00000000000E+00 -0.18927781351E+03  0.18927781351E+03  0.00000000000E+00 0.  1.
         23    2    1    2    0    0  0.62984082177E+01 -0.61802107456E+01 -0.76629682774E+02  0.11881306105E+03  0.90369077910E+02 0.  0.
         24    2    1    2    0    0 -0.61830455516E+02  0.79145833611E+02  0.10199280647E+03  0.16394614770E+03  0.79929585046E+02 0.  0.
        -11    1    4    4    0    0 -0.35558606687E+02  0.43232841845E+02  0.10537564757E+03  0.11932108039E+03  0.00000000000E+00 0.  1.
         12    1    4    4    0    0 -0.26271848829E+02  0.35912991765E+02 -0.33828411013E+01  0.44625067309E+02  0.00000000000E+00 0. -1.
        -13    1    3    3    0    0  0.98522619009E+01 -0.41047183478E+02 -0.97769255301E+01  0.43330435134E+02  0.00000000000E+00 0. -1.
         13    1    3    3    0    0 -0.35538536832E+01  0.34866972733E+02 -0.66852757244E+02  0.75482625912E+02  0.00000000000E+00 0.  1.
         -2    1    1    2    0  502  0.55532047298E+02 -0.72965622865E+02 -0.25882584691E+02  0.95276957275E+02  0.00000000000E+00 0.  1.
<scales pt_clust_5="13000.00000" pt_clust_6="13000.00000" pt_clust_7="13000.00000" pt_clust_8="13000.00000" pt_clust_9="93.50146"></scales>
<clustering>
<clus scale="   79.930">  5  6 -1 -1</clus>
<clus scale="   90.369">  7  8 -1 -1</clus>
<clus scale="   90.799">  1  7  2 -1</clus>
<clus scale="   93.501">  2  9  1 -1</clus>
<clus scale="   93.501">  2  5  1 -1</clus>
</clustering>
</event>
<event>
 9    2  0.6190160E-005  0.1309349E+03  0.7546771E-02  0.1235056E+00
         21   -1    0    0  501  502  0.00000000000E+00  0.00000000000E+00  0.48145470426E+03  0.48145470426E+03  0.00000000000E+00 0. -1.
         -1   -1    0    0    0  501 -0.00000000000E+00 -0.00000000000E+00 -0.53387311365E+02  0.53387311365E+02  0.00000000000E+00 0.  1.
         23    2    1    2    0    0 -0.77478169290E+02  0.16157381803E+02  0.72671683835E+02  0.15329154525E+03  0.10933067507E+03 0.  0.
         24    2    1    2    0    0  0.51318683709E+02 -0.35942192076E+01  0.32714747582E+03  0.34105214422E+03  0.81514222270E+02 0.  0.
        -11    1    4    4    0    0  0.60275013733E+02 -0.70050697212E+01  0.12779908412E+03  0.14147351054E+03  0.00000000000E+00 0.  1.
         12    1    4    4    0    0 -0.89563300238E+01  0.34108505136E+01  0.19934839170E+03  0.19957863368E+03  0.00000000000E+00 0. -1.
        -13    1    3    3    0    0 -0.13514994082E+02  0.48063662276E+02 -0.19406657061E+01  0.49965356796E+02  0.00000000000E+00 0. -1.
         13    1    3    3    0    0 -0.63963175208E+02 -0.31906280473E+02  0.74612349542E+02  0.10332618845E+03  0.00000000000E+00 0.  1.
         -2    1    1    2    0  502  0.26159485581E+02 -0.12563162595E+02  0.28248233242E+02  0.40498326158E+02  0.00000000000E+00 0.  1.
<scales pt_clust_5="13000.00000" pt_clust_6="13000.00000" pt_clust_7="13000.00000" pt_clust_8="13000.00000" pt_clust_9="29.01987"></scales>
<clustering>
<clus scale="   29.020">  1  9  2 -1</clus>
<clus scale="   81.514">  5  6 -1 -1</clus>
<clus scale="  108.790">  1  5  2 -1</clus>
<clus scale="  109.331">  7  8 -1 -1</clus>
<clus scale="   29.020">  1  5  2 -1</clus>
</clustering>
</event>
<event>
 9    2  0.6190160E-005  0.9985435E+02  0.7546771E-02  0.1293095E+00
         21   -1    0    0  501  502  0.00000000000E+00  0.00000000000E+00  0.68165940524E+02  0.68165940524E+02  0.00000000000E+00 0. -1.
         -1   -1    0    0    0  501 -0.00000000000E+00 -0.00000000000E+00 -0.24217944554E+03  0.24217944554E+03  0.00000000000E+00 0.  1.
         24    2    1    2    0    0  0.15031550748E+02 -0.12978374354E+02 -0.11090030031E+03  0.13741637020E+03  0.78676530629E+02 0.  0.
         23    2    1    2    0    0  0.23756427327E+02 -0.76802021208E+01 -0.75240635624E+02  0.12733999738E+03  0.99654243960E+02 0.  0.
        -13    1    3    3    0    0 -0.31843545175E+02 -0.12587745049E+02 -0.48544329802E+02  0.59405510272E+02  0.00000000000E+00 0.  1.
         14    1    3    3    0    0  0.46875095923E+02 -0.39062930541E+00 -0.62355970510E+02  0.78010859932E+02  0.00000000000E+00 0. -1.
        -13    1    4    4    0    0  0.12895208674E+02  0.35002462614E+02 -0.74470313379E+02  0.83290373817E+02  0.00000000000E+00 0.  1.
         13    1    4    4    0    0  0.10861218653E+02 -0.42682664735E+02 -0.77032224490E+00  0.44049623561E+02  0.00000000000E+00 0. -1.
         -2    1    1    2    0  502 -0.38787978075E+02  0.20658576475E+02  0.12127430923E+02  0.45589018479E+02  0.00000000000E+00 0.  1.
<scales pt_clust_5="13000.00000" pt_clust_6="13000.00000" pt_clust_7="13000.00000" pt_clust_8="13000.00000" pt_clust_9="43.94638"></scales>
<clustering>
<clus scale="   43.946">  1  9  2 -1</clus>
<clus scale="   78.677">  5  6 -1 -1</clus>
<clus scale="   78.930">  2  5  1 -1</clus>
<clus scale="   99.654">  7  8 -1 -1</clus>
<clus scale="   43.946">  1  5  2 -1</clus>
</clustering>
</event>
<event>
 9    2  0.6190160E-005  0.1258094E+03  0.7546771E-02  0.1242002E+00
         -1   -1    0    0    0  501 -0.00000000000E+00  0.00000000000E+00  0.21444176517E+03  0.21444176517E+03  0.00000000000E+00 0.  1.
         21   -1    0    0  501  502  0.00000000000E+00 -0.00000000000E+00 -0.21024525943E+03  0.21024525943E+03  0.00000000000E+00 0. -1.
         23    2    1    2    0    0  0.64872413802E+02 -0.54396574429E+02 -0.35056589672E+01  0.13480474408E+03  0.10484565800E+03 0.  0.
         24    2    1    2    0    0 -0.61098296155E+01  0.50521953311E+02 -0.11762448187E+03  0.15140909781E+03  0.80618846304E+02 0.  0.
        -13    1    4    4    0    0  0.16045550981E+02  0.16594586467E+02  0.38071327645E+01  0.23395176131E+02  0.00000000000E+00 0.  1.
         14    1    4    4    0    0 -0.22155380597E+02  0.33927366844E+02 -0.12143161463E+03  0.12801392168E+03  0.00000000000E+00 0. -1.
        -11    1    3    3    0    0 -0.20726183287E+01 -0.44604040235E+02 -0.38206908871E+02  0.58767202056E+02  0.00000000000E+00 0.  1.
         11    1    3    3    0    0  0.66945032131E+02 -0.97925341936E+01  0.34701249903E+02  0.76037542029E+02  0.00000000000E+00 0. -1.
         -2    1    1    2    0  502 -0.58762584187E+02  0.38746211174E+01  0.12532664657E+03  0.13847318271E+03  0.00000000000E+00 0.  1.
<scales pt_clust_5="13000.00000" pt_clust_6="13000.00000" pt_clust_7="13000.00000" pt_clust_8="13000.00000" pt_clust_9="58.89022"></scales>
<clustering>
<clus scale="   58.890">  2  9  1 -1</clus>
<clus scale="   80.619">  5  6 -1 -1</clus>
<clus scale="  104.846">  7  8 -1 -1</clus>
<clus scale="  106.465">  2  5  1 -1</clus>
<clus scale="   58.890">  2  5  1 -1</clus>
</clustering>
</event>
<event>
 9    2  0.6190160E-005  0.8586570E+02  0.7546771E-02  0.1316434E+00
         -1   -1    0    0    0  501 -0.00000000000E+00  0.00000000000E+00  0.23588816587E+02  0.23588816587E+02  0.00000000000E+00 0.  1.
         21   -1    0    0  501  502  0.00000000000E+00 -0.00000000000E+00 -0.61062942758E+03  0.61062942758E+03  0.00000000000E+00 0.  1.
         24    2    1    2    0    0  0.35645001505E+02 -0.14177513746E+02 -0.15815339424E+03  0.18124312289E+03  0.79780984309E+02 0.  0.
         23    2    1    2    0    0  0.70039150977E+01  0.41795759759E+02 -0.33953691310E+03  0.35018808726E+03  0.74501280094E+02 0.  0.
        -13    1    3    3    0    0  0.55731608356E+02 -0.56360805340E+01 -0.66126372676E+02  0.86662995200E+02  0.00000000000E+00 0.  1.
         14    1    3    3    0    0 -0.20086606851E+02 -0.85414332125E+01 -0.92027021564E+02  0.94580127691E+02  0.00000000000E+00 0. -1.
        -11    1    4    4    0    0  0.95900121315E+01  0.62539154616E+02 -0.22348413043E+03  0.23226767047E+03  0.00000000000E+00 0.  1.
         11    1    4    4    0    0 -0.25860970338E+01 -0.20743394857E+02 -0.11605278268E+03  0.11792041679E+03  0.00000000000E+00 0. -1.
         -2    1    1    2    0  502 -0.42648916603E+02 -0.27618246012E+02 -0.89350303648E+02  0.10278703402E+03  0.00000000000E+00 0.  1.
<scales pt_clust_5="13000.00000" pt_clust_6="13000.00000" pt_clust_7="13000.00000" pt_clust_8="13000.00000" pt_clust_9="50.81043"></scales>
<clustering>
<clus scale="   50.810">  2  9  1 -1</clus>
<clus scale="   74.501">  7  8 -1 -1</clus>
<clus scale="   79.781">  5  6 -1 -1</clus>
<clus scale="   80.984">  2  7  1 -1</clus>
<clus scale="   50.810">  2  5  1 -1</clus>
</clustering>
</event>
<event>
 9    2  0.9889057E-005  0.9353740E+02  0.7546771E-02  0.1296564E+00
         21   -1    0    0  501  502  0.00000000000E+00  0.00000000000E+00  0.12469016294E+03  0.12469016294E+03  0.00000000000E+00 0. -1.
          2   -1    0    0  502    0 -0.00000000000E+00 -0.00000000000E+00 -0.56510607125E+03  0.56510607125E+03  0.00000000000E+00 0. -1.
         24    2    1    2    0    0  0.12246754216E+02  0.21762941052E+02 -0.50782408685E+03  0.51576378441E+03  0.86621992210E+02 0.  0.
         23    2    1    2    0    0 -0.41432429597E+02  0.41812386451E+01  0.39041427686E+01  0.99482690102E+02  0.90263139322E+02 0.  0.
        -13    1    3    3    0    0 -0.99742662689E+01  0.39721042913E+02 -0.11820606179E+03  0.12509964141E+03  0.00000000000E+00 0.  1.
         14    1    3    3    0    0  0.22221020485E+02 -0.17958101861E+02 -0.38961802507E+03  0.39066414300E+03  0.00000000000E+00 0. -1.
        -11    1    4    4    0    0 -0.65760333010E+02  0.77507910554E+01 -0.15681711657E+02  0.68047132489E+02  0.00000000000E+00 0. -1.
         11    1    4    4    0    0  0.24327903412E+02 -0.35695524103E+01  0.19585854425E+02  0.31435557613E+02  0.00000000000E+00 0.  1.
          1    1    1    2  501    0  0.29185675381E+02 -0.25944179697E+02  0.63504035772E+02  0.74549759671E+02  0.00000000000E+00 0. -1.
<scales pt_clust_5="13000.00000" pt_clust_6="13000.00000" pt_clust_7="13000.00000" pt_clust_8="13000.00000" pt_clust_9="39.05002"></scales>
<clustering>
<clus scale="   39.050">  1  9  2 -1</clus>
<clus scale="   86.622">  5  6 -1 -1</clus>
<clus scale="   90.029">  2  5  1 -1</clus>
<clus scale="   90.263">  7  8 -1 -1</clus>
<clus scale="   39.050">  1  5  2 -1</clus>
</clustering>
</event>
<event>
 9    2  0.6190160E-005  0.1055104E+03  0.7546771E-02  0.1273946E+00
         21   -1    0    0  501  502  0.00000000000E+00  0.00000000000E+00  0.25568985920E+03  0.25568985920E+03  0.00000000000E+00 0. -1.
         -1   -1    0    0    0  501 -0.00000000000E+00 -0.00000000000E+00 -0.98886462162E+02  0.98886462162E+02  0.00000000000E+00 0.  1.
         23    2    1    2    0    0 -0.37811861666E+02 -0.45894164146E+02 -0.30585963753E+02  0.11354831347E+03  0.91769859588E+02 0.  0.
         24    2    1    2    0    0  0.46488115172E+02  0.25606219515E+01  0.73105948574E+02  0.11849731148E+03  0.80804897589E+02 0.  0.
        -13    1    4    4    0    0  0.77701062200E+01 -0.28601312768E+02 -0.54817695798E+00  0.29643045402E+02  0.00000000000E+00 0.  1.
         14    1    4    4    0    0  0.38718008952E+02  0.31161934720E+02  0.73654125532E+02  0.88854266079E+02  0.00000000000E+00 0. -1.
        -11    1    3    3    0    0 -0.12729468022E+02 -0.33768742278E+02 -0.61889619354E+02  0.71642810490E+02  0.00000000000E+00 0.  1.
         11    1    3    3    0    0 -0.25082393644E+02 -0.12125421868E+02  0.31303655600E+02  0.41905502984E+02  0.00000000000E+00 0. -1.
         -2    1    1    2    0  502 -0.86762535055E+01  0.43333542195E+02  0.11428341221E+03  0.12253069640E+03  0.00000000000E+00 0.  1.
<scales pt_clust_5="13000.00000" pt_clust_6="13000.00000" pt_clust_7="13000.00000" pt_clust_8="13000.00000" pt_clust_9="44.19359"></scales>
<clustering>
<clus scale="   44.194">  1  9  2 -1</clus>
<clus scale="   80.805">  5  6 -1 -1</clus>
<clus scale="   91.770">  7  8 -1 -1</clus>
<clus scale="   96.126">  1  5  2 -1</clus>
<clus scale="   44.194">  1  5  2 -1</clus>
</clustering>
</event>
<event>
 9    2  0.6190160E-005  0.9403422E+02  0.7546771E-02  0.1300093E+00
         21   -1    0    0  501  502  0.00000000000E+00  0.00000000000E+00  0.16815368675E+03  0.16815368675E+03  0.00000000000E+00 0.  1.
          2   -1    0    0  502    0 -0.00000000000E+00 -0.00000000000E+00 -0.17810679686E+03  0.17810679686E+03  0.00000000000E+00 0. -1.
         24    2    1    2    0    0 -0.22217676424E+02 -0.13980526602E+01 -0.12398351950E+03  0.14995701651E+03  0.81361010291E+02 0.  0.
         23    2    1    2    0    0 -0.84001414786E+01  0.93092207369E+00  0.16934344324E+02  0.94493276861E+02  0.92578498376E+02 0.  0.
        -11    1    3    3    0    0  0.52818447942E+01  0.36858768599E+02 -0.55172327900E+02  0.66561644157E+02  0.00000000000E+00 0.  1.
         12    1    3    3    0    0 -0.27499521218E+02 -0.38256821259E+02 -0.68811191603E+02  0.83395372353E+02  0.00000000000E+00 0. -1.
        -11    1    4    4    0    0 -0.22517535793E+02  0.38563778385E+02  0.28119551116E+02  0.52772280380E+02  0.00000000000E+00 0.  1.
         11    1    4    4    0    0  0.14117394315E+02 -0.37632856312E+02 -0.11185206791E+02  0.41720996481E+02  0.00000000000E+00 0. -1.
          1    1    1    2  501    0  0.30617817903E+02  0.46713058646E+00  0.97096065073E+02  0.10181019024E+03  0.00000000000E+00 0. -1.
<scales pt_clust_5="13000.00000" pt_clust_6="13000.00000" pt_clust_7="13000.00000" pt_clust_8="13000.00000" pt_clust_9="30.62138"></scales>
<clustering>
<clus scale="   30.621">  1  9  2 -1</clus>
<clus scale="   81.361">  5  6 -1 -1</clus>
<clus scale="   83.014">  2  5  1 -1</clus>
<clus scale="   92.578">  7  8 -1 -1</clus>
<clus scale="   30.621">  1  5  2 -1</clus>
</clustering>
</event>
<event>
 9    2  0.6190160E-005  0.2471825E+03  0.7546771E-02  0.1115098E+00
          4   -1    0    0  502    0 -0.00000000000E+00  0.00000000000E+00  0.59861286429E+03  0.59861286429E+03  0.00000000000E+00 0. -1.
         21   -1    0    0  501  502  0.00000000000E+00 -0.00000000000E+00 -0.69736679420E+02  0.69736679420E+02  0.00000000000E+00 0. -1.
         24    2    1    2    0    0 -0.40331656774E+02  0.10003721456E+03  0.14907427276E+03  0.20092281746E+03  0.80701629105E+02 0.  0.
         23    2    1    2    0    0 -0.25896494088E+01  0.51985837952E+02  0.21510424196E+03  0.23921943108E+03  0.90812266045E+02 0.  0.
        -11    1    3    3    0    0 -0.31714087519E+02 -0.24983770901E+01  0.34915143515E+02  0.47234441692E+02  0.00000000000E+00 0.  1.
         12    1    3    3    0    0 -0.86175692549E+01  0.10253559165E+03  0.11415912925E+03  0.15368837577E+03  0.00000000000E+00 0. -1.
        -11    1    4    4    0    0  0.14783634001E+02  0.72985376290E+02  0.17985972798E+03  0.19466623419E+03  0.00000000000E+00 0.  1.
         11    1    4    4    0    0 -0.17373283410E+02 -0.20999538338E+02  0.35244513985E+02  0.44553196887E+02  0.00000000000E+00 0. -1.
          3    1    1    2  501    0  0.42921306182E+02 -0.15202305251E+03  0.16469767014E+03  0.22820729517E+03  0.00000000000E+00 0. -1.
<scales pt_clust_5="13000.00000" pt_clust_6="13000.00000" pt_clust_7="13000.00000" pt_clust_8="13000.00000" pt_clust_9="157.96597"></scales>
<clustering>
<clus scale="   80.702">  5  6 -1 -1</clus>
<clus scale="   90.812">  7  8 -1 -1</clus>
<clus scale="  104.126">  5  7 -1 -1</clus>
<clus scale="  157.966">  2  9  1 -1</clus>
<clus scale="  157.966">  2  5  1 -1</clus>
</clustering>
</event>
<event>
 9    2  0.6190160E-005  0.1640006E+03  0.7546771E-02  0.1187258E+00
         21   -1    0    0  501  502  0.00000000000E+00  0.00000000000E+00  0.10711450927E+03  0.10711450927E+03  0.00000000000E+00 0.  1.
         -3   -1    0    0    0  501 -0.00000000000E+00 -0.00000000000E+00 -0.30047831481E+03  0.30047831481E+03  0.00000000000E+00 0.  1.
         23    2    1    2    0    0 -0.12958867897E+03  0.63291556034E+02 -0.11704294737E+03  0.20610785948E+03  0.89344006109E+02 0.  0.
         24    2    1    2    0    0  0.12994817929E+03 -0.25686576578E+02 -0.60904599183E+02  0.16084108730E+03  0.67927576474E+02 0.  0.
        -13    1    4    4    0    0  0.10622503168E+03 -0.16788955555E+02 -0.15239568613E+02  0.10861800419E+03  0.00000000000E+00 0.  1.
         14    1    4    4    0    0  0.23723147616E+02 -0.88976210231E+01 -0.45665030570E+02  0.52223083111E+02  0.00000000000E+00 0. -1.
        -11    1    3    3    0    0 -0.32841775314E+02  0.76136406610E+01 -0.82719500475E+02  0.89325614965E+02  0.00000000000E+00 0.  1.
         11    1    3    3    0    0 -0.96746903656E+02  0.55677915373E+02 -0.34323446896E+02  0.11678224452E+03  0.00000000000E+00 0. -1.
         -4    1    1    2    0  502 -0.35950032135E+00 -0.37604979456E+02 -0.15416258986E+02  0.40643877294E+02  0.00000000000E+00 0.  1.
<scales pt_clust_5="13000.00000" pt_clust_6="13000.00000" pt_clust_7="13000.00000" pt_clust_8="13000.00000" pt_clust_9="37.60670"></scales>
<clustering>
<clus scale="   37.607">  1  9  2 -1</clus>
<clus scale="   67.928">  5  6 -1 -1</clus>
<clus scale="   89.344">  7  8 -1 -1</clus>
<clus scale="  153.388">  1  5  2 -1</clus>
<clus scale="   37.607">  1  5  2 -1</clus>
</clustering>
</event>
<event>
 9    2  0.6190160E-005  0.9769121E+02  0.7546771E-02  0.1289359E+00
          2   -1    0    0  502    0 -0.00000000000E+00  0.00000000000E+00  0.34638279587E+03  0.34638279587E+03  0.00000000000E+00 0. -1.
         21   -1    0    0  501  502  0.00000000000E+00 -0.00000000000E+00 -0.43394565010E+02  0.43394565010E+02  0.00000000000E+00 0.  1.
         23    2    1    2    0    0 -0.26448947438E+02 -0.40266617665E+02  0.18458510062E+03  0.21096660624E+03  0.90079421944E+02 0.  0.
         24    2    1    2    0    0 -0.13948013467E+02  0.28048234696E+02  0.58619037434E+02  0.10563055865E+03  0.82099773582E+02 0.  0.
        -13    1    4    4    0    0 -0.36180537735E+02 -0.70274440528E+01  0.40817855684E+01  0.37082034115E+02  0.00000000000E+00 0.  1.
         14    1    4    4    0    0  0.22232524268E+02  0.35075678749E+02  0.54537251866E+02  0.68548524536E+02  0.00000000000E+00 0. -1.
        -13    1    3    3    0    0  0.13099337712E+02 -0.56927731914E+02  0.11939316924E+03  0.13291759918E+03  0.00000000000E+00 0. -1.
         13    1    3    3    0    0 -0.39548285150E+02  0.16661114249E+02  0.65191931382E+02  0.78049007064E+02  0.00000000000E+00 0.  1.
          1    1    1    2  501    0  0.40396960905E+02  0.12218382969E+02  0.59784092806E+02  0.73180195992E+02  0.00000000000E+00 0. -1.
<scales pt_clust_5="13000.00000" pt_clust_6="13000.00000" pt_clust_7="13000.00000" pt_clust_8="13000.00000" pt_clust_9="42.20433"></scales>
<clustering>
<clus scale="   42.204">  2  9  1 -1</clus>
<clus scale="   82.100">  5  6 -1 -1</clus>
<clus scale="   90.079">  7  8 -1 -1</clus>
<clus scale="   90.386">  2  5  1 -1</clus>
<clus scale="   42.204">  2  5  1 -1</clus>
</clustering>
</event>
<event>
 9    2  0.6190160E-005  0.9190147E+02  0.7546771E-02  0.1301297E+00
         21   -1    0    0  501  502  0.00000000000E+00  0.00000000000E+00  0.40670064825E+02  0.40670064825E+02  0.00000000000E+00 0.  1.
         -3   -1    0    0    0  501 -0.00000000000E+00 -0.00000000000E+00 -0.73749741084E+03  0.73749741084E+03  0.00000000000E+00 0.  1.
         23    2    1    2    0    0 -0.16514366717E+02 -0.84194248113E+00 -0.37224283120E+03  0.38346049576E+03  0.90574793667E+02 0.  0.
         24    2    1    2    0    0 -0.48282637976E+01 -0.58251575211E+02 -0.53871112461E+02  0.11679818566E+03  0.85575471188E+02 0.  0.
        -11    1    4    4    0    0  0.23850120727E+02 -0.24695330635E+02  0.12967232278E+02  0.36699274200E+02  0.00000000000E+00 0.  1.
         12    1    4    4    0    0 -0.28678384525E+02 -0.33556244575E+02 -0.66838344739E+02  0.80098911456E+02  0.00000000000E+00 0. -1.
        -11    1    3    3    0    0 -0.30749309622E+02  0.38725245395E+02 -0.22227866975E+03  0.22771247594E+03  0.00000000000E+00 0. -1.
         11    1    3    3    0    0  0.14234942906E+02 -0.39567187876E+02 -0.14996416146E+03  0.15574801982E+03  0.00000000000E+00 0.  1.
         -4    1    1    2    0  502  0.21342630514E+02  0.59093517692E+02 -0.27071340235E+03  0.27790879425E+03  0.00000000000E+00 0.  1.
<scales pt_clust_5="13000.00000" pt_clust_6="13000.00000" pt_clust_7="13000.00000" pt_clust_8="13000.00000" pt_clust_9="62.82958"></scales>
<clustering>
<clus scale="   62.830">  1  9  2 -1</clus>
<clus scale="   85.575">  5  6 -1 -1</clus>
<clus scale="   86.978">  1  5  2 -1</clus>
<clus scale="   90.575">  7  8 -1 -1</clus>
<clus scale="   62.830">  1  5  2 -1</clus>
</clustering>
</event>
<event>
 9    2  0.6190160E-005  0.1011790E+03  0.7546771E-02  0.1282809E+00
         -3   -1    0    0    0  501 -0.00000000000E+00  0.00000000000E+00  0.23183575022E+03  0.23183575022E+03  0.00000000000E+00 0.  1.
         21   -1    0    0  501  502  0.00000000000E+00 -0.00000000000E+00 -0.13548003191E+03  0.13548003191E+03  0.00000000000E+00 0. -1.
         23    2    1    2    0    0 -0.79290799768E+01  0.38289201375E+02  0.12314221309E+03  0.15786216204E+03  0.90705701620E+02 0.  0.
         24    2    1    2    0    0  0.85454549091E+02 -0.28644313013E+02  0.13552492634E+02  0.12153060752E+03  0.80393046218E+02 0.  0.
        -13    1    4    4    0    0  0.57716994580E+02 -0.40213920529E+02  0.40495083180E+02  0.81168113378E+02  0.00000000000E+00 0.  1.
         14    1    4    4    0    0  0.27737554511E+02  0.11569607516E+02 -0.26942590546E+02  0.40362494146E+02  0.00000000000E+00 0. -1.
        -13    1    3    3    0    0 -0.17890471508E+02 -0.26157752933E+02  0.55457435449E+02  0.63873501202E+02  0.00000000000E+00 0. -1.
         13    1    3    3    0    0  0.99613915308E+01  0.64446954308E+02  0.67684777645E+02  0.93988660836E+02  0.00000000000E+00 0.  1.
         -4    1    1    2    0  502 -0.77525469114E+02 -0.96448883624E+01 -0.40338987425E+02  0.87923012570E+02  0.00000000000E+00 0.  1.
<scales pt_clust_5="13000.00000" pt_clust_6="13000.00000" pt_clust_7="13000.00000" pt_clust_8="13000.00000" pt_clust_9="78.12312"></scales>
<clustering>
<clus scale="   78.123">  2  9  1 -1</clus>
<clus scale="   80.393">  5  6 -1 -1</clus>
<clus scale="   90.706">  7  8 -1 -1</clus>
<clus scale="   92.047">  2  5  1 -1</clus>
<clus scale="   78.123">  2  5  1 -1</clus>
</clustering>
</event>
<event>
 9    2  0.6190160E-005  0.1718681E+03  0.7546771E-02  0.1177100E+00
          2   -1    0    0  502    0 -0.00000000000E+00  0.00000000000E+00  0.13921705331E+03  0.13921705331E+03  0.00000000000E+00 0. -1.
         21   -1    0    0  501  502  0.00000000000E+00 -0.00000000000E+00 -0.15389386103E+04  0.15389386103E+04  0.00000000000E+00 0. -1.
         23    2    1    2    0    0 -0.62089475197E+02 -0.13600152594E+03  0.38284917457E+02  0.17896384712E+03  0.90613496149E+02 0.  0.
         24    2    1    2    0    0 -0.11146434392E+03  0.15085578818E+03 -0.42993014811E+03  0.47617693049E+03  0.81992487983E+02 0.  0.
        -13    1    4    4    0    0 -0.65830168018E+00  0.62301158458E+02 -0.14783425439E+03  0.16042703786E+03  0.00000000000E+00 0.  1.
         14    1    4    4    0    0 -0.11080604224E+03  0.88554629726E+02 -0.28209589372E+03  0.31574989263E+03  0.00000000000E+00 0. -1.
        -11    1    3    3    0    0 -0.46824809849E+02 -0.11168910719E+02  0.24729709694E+01  0.48201897986E+02  0.00000000000E+00 0.  1.
         11    1    3    3    0    0 -0.15264665348E+02 -0.12483261522E+03  0.35811946487E+02  0.13076194914E+03  0.00000000000E+00 0. -1.
          1    1    1    2  501    0  0.17355381911E+03 -0.14854262246E+02 -0.10080763264E+04  0.10230148860E+04  0.00000000000E+00 0. -1.
<scales pt_clust_5="13000.00000" pt_clust_6="13000.00000" pt_clust_7="13000.00000" pt_clust_8="13000.00000" pt_clust_9="174.18834"></scales>
<clustering>
<clus scale="   81.992">  5  6 -1 -1</clus>
<clus scale="   90.613">  7  8 -1 -1</clus>
<clus scale="  174.188">  2  9  1 -1</clus>
<clus scale="  174.188">  2  5  1 -1</clus>
<clus scale="  171.868">  2  5  1 -1</clus>
</clustering>
</event>
<event>
 9    2  0.6190160E-005  0.9517758E+02  0.7546771E-02  0.1292933E+00
         -3   -1    0    0    0  501 -0.00000000000E+00  0.00000000000E+00  0.34348226043E+03  0.34348226043E+03  0.00000000000E+00 0.  1.
         21   -1    0    0  501  502  0.00000000000E+00 -0.00000000000E+00 -0.75107693200E+02  0.75107693200E+02  0.00000000000E+00 0.  1.
         23    2    1    2    0    0 -0.13940161047E+02 -0.34777464093E+02  0.15467607864E+03  0.18373853429E+03  0.91822435070E+02 0.  0.
         24    2    1    2    0    0 -0.57396120046E+02 -0.31118072821E+02  0.87315534060E+02  0.13421769201E+03  0.78279865285E+02 0.  0.
        -11    1    4    4    0    0 -0.62974132595E+02 -0.49802751797E+02  0.58148189363E+02  0.99132574812E+02  0.00000000000E+00 0.  1.
         12    1    4    4    0    0  0.55780125488E+01  0.18684678976E+02  0.29167344697E+02  0.35085117202E+02  0.00000000000E+00 0. -1.
        -13    1    3    3    0    0  0.15815519632E+02  0.18211727185E+02  0.87412415065E+01  0.25655544651E+02  0.00000000000E+00 0. -1.
         13    1    3    3    0    0 -0.29755680680E+02 -0.52989191278E+02  0.14593483714E+03  0.15808298964E+03  0.00000000000E+00 0.  1.
         -4    1    1    2    0  502  0.71336281094E+02  0.65895536914E+02  0.26382954533E+02  0.10063372733E+03  0.00000000000E+00 0.  1.
<scales pt_clust_5="13000.00000" pt_clust_6="13000.00000" pt_clust_7="13000.00000" pt_clust_8="13000.00000" pt_clust_9="97.11378"></scales>
<clustering>
<clus scale="   78.280">  5  6 -1 -1</clus>
<clus scale="   91.822">  7  8 -1 -1</clus>
<clus scale="   97.114">  2  9  1 -1</clus>
<clus scale="   97.114">  2  5  1 -1</clus>
<clus scale="   95.178">  2  5  1 -1</clus>
</clustering>
</event>
<event>
 9    2  0.6190160E-005  0.1085827E+03  0.7546771E-02  0.1267335E+00
         -1   -1    0    0    0  501 -0.00000000000E+00  0.00000000000E+00  0.11008271336E+03  0.11008271336E+03  0.00000000000E+00 0.  1.
         21   -1    0    0  501  502  0.00000000000E+00 -0.00000000000E+00 -0.19996011755E+03  0.19996011755E+03  0.00000000000E+00 0. -1.
         24    2    1    2    0    0  0.88000047320E+02 -0.24173288667E+02 -0.53140305326E+01  0.12242959075E+03  0.81439606804E+02 0.  0.
         23    2    1    2    0    0 -0.18918385409E+02 -0.19260105889E+01 -0.50883875369E+02  0.10644823515E+03  0.91544760471E+02 0.  0.
        -11    1    3    3    0    0  0.74670563729E+02 -0.37686305214E+02  0.24437765879E+02  0.87138711773E+02  0.00000000000E+00 0.  1.
         12    1    3    3    0    0  0.13329483591E+02  0.13513016547E+02 -0.29751796411E+02  0.35290878973E+02  0.00000000000E+00 0. -1.
        -13    1    4    4    0    0 -0.49849983386E+02 -0.11306739341E+02 -0.64791203690E+01  0.51525160833E+02  0.00000000000E+00 0.  1.
         13    1    4    4    0    0  0.30931597977E+02  0.93807287518E+01 -0.44404755000E+02  0.54923074313E+02  0.00000000000E+00 0. -1.
         -2    1    1    2    0  502 -0.69081661911E+02  0.26099299256E+02 -0.33679498296E+02  0.81165005018E+02  0.00000000000E+00 0.  1.
<scales pt_clust_5="13000.00000" pt_clust_6="13000.00000" pt_clust_7="13000.00000" pt_clust_8="13000.00000" pt_clust_9="73.84747"></scales>
<clustering>
<clus scale="   73.847">  2  9  1 -1</clus>
<clus scale="   81.440">  5  6 -1 -1</clus>
<clus scale="   91.545">  7  8 -1 -1</clus>
<clus scale="  100.211">  1  5  2 -1</clus>
<clus scale="   73.847">  2  5  1 -1</clus>
</clustering>
</event>
<event>
 9    2  0.6190160E-005  0.9358380E+02  0.7546771E-02  0.1298716E+00
          4   -1    0    0  502    0 -0.00000000000E+00  0.00000000000E+00  0.22351201602E+03  0.22351201602E+03  0.00000000000E+00 0. -1.
         21   -1    0    0  501  502  0.00000000000E+00 -0.00000000000E+00 -0.69543479251E+02  0.69543479251E+02  0.00000000000E+00 0.  1.
         24    2    1    2    0    0 -0.22642951377E+02  0.20344943734E+01  0.13689799008E+03  0.16210784071E+03  0.83791705528E+02 0.  0.
         23    2    1    2    0    0  0.12765264156E+02  0.28255894574E+02  0.36941910971E+01  0.96393302363E+02  0.91195801139E+02 0.  0.
        -13    1    3    3    0    0 -0.30061888613E+01 -0.28321313278E+02  0.11785165379E+03  0.12124415969E+03  0.00000000000E+00 0.  1.
         14    1    3    3    0    0 -0.19636762516E+02  0.30355807651E+02  0.19046336294E+02  0.40863681020E+02  0.00000000000E+00 0. -1.
        -11    1    4    4    0    0  0.46872571431E+02  0.19002744201E+02  0.23621336592E+02  0.55822126277E+02  0.00000000000E+00 0. -1.
         11    1    4    4    0    0 -0.34107307275E+02  0.92531503728E+01 -0.19927145495E+02  0.40571176086E+02  0.00000000000E+00 0.  1.
          3    1    1    2  501    0  0.98776872219E+01 -0.30290388948E+02  0.13376355593E+02  0.34554352206E+02  0.00000000000E+00 0. -1.
<scales pt_clust_5="13000.00000" pt_clust_6="13000.00000" pt_clust_7="13000.00000" pt_clust_8="13000.00000" pt_clust_9="31.86026"></scales>
<clustering>
<clus scale="   31.860">  2  9  1 -1</clus>
<clus scale="   83.792">  5  6 -1 -1</clus>
<clus scale="   86.385">  1  5  2 -1</clus>
<clus scale="   91.196">  7  8 -1 -1</clus>
<clus scale="   31.860">  2  5  1 -1</clus>
</clustering>
</event>
<event>
 9    2  0.6190160E-005  0.9771572E+02  0.7546771E-02  0.1289532E+00
          2   -1    0    0  502    0 -0.00000000000E+00  0.00000000000E+00  0.45644652567E+03  0.45644652567E+03  0.00000000000E+00 0. -1.
         21   -1    0    0  501  502  0.00000000000E+00 -0.00000000000E+00 -0.43219272957E+02  0.43219272957E+02  0.00000000000E+00 0.  1.
         24    2    1    2    0    0  0.41282106984E+01  0.40454138992E+02  0.28138988328E+03  0.29525566633E+03  0.79637068046E+02 0.  0.
         23    2    1    2    0    0  0.17675995007E+02 -0.45172393951E+02  0.14646149283E+03  0.17773523209E+03  0.88237508286E+02 0.  0.
        -13    1    3    3    0    0  0.38053585208E+02  0.22847389798E+01  0.13083310511E+03  0.13627397687E+03  0.00000000000E+00 0.  1.
         14    1    3    3    0    0 -0.33925374509E+02  0.38169400012E+02  0.15055677816E+03  0.15898168946E+03  0.00000000000E+00 0. -1.
        -13    1    4    4    0    0  0.47140972982E+02 -0.26522020827E+02  0.12644257862E+03  0.13752605066E+03  0.00000000000E+00 0. -1.
         13    1    4    4    0    0 -0.29464977975E+02 -0.18650373124E+02  0.20018914207E+02  0.40209181424E+02  0.00000000000E+00 0.  1.
          1    1    1    2  501    0 -0.21804205705E+02  0.47182549589E+01 -0.14624123389E+02  0.26674900209E+02  0.00000000000E+00 0. -1.
<scales pt_clust_5="13000.00000" pt_clust_6="13000.00000" pt_clust_7="13000.00000" pt_clust_8="13000.00000" pt_clust_9="22.30886"></scales>
<clustering>
<clus scale="   22.309">  2  9  1 -1</clus>
<clus scale="   79.637">  5  6 -1 -1</clus>
<clus scale="   88.238">  7  8 -1 -1</clus>
<clus scale="   90.025">  1  5  2 -1</clus>
<clus scale="   22.309">  2  5  1 -1</clus>
</clustering>
</event>
<event>
 9    2  0.6190160E-005  0.9170089E+02  0.7546771E-02  0.1304309E+00
         21   -1    0    0  501  502  0.00000000000E+00  0.00000000000E+00  0.14217138965E+03  0.14217138965E+03  0.00000000000E+00 0. -1.
         -1   -1    0    0    0  501 -0.00000000000E+00 -0.00000000000E+00 -0.11553560696E+03  0.11553560696E+03  0.00000000000E+00 0.  1.
         23    2    1    2    0    0 -0.92277034409E+01 -0.36336755144E+01 -0.55670601315E+02  0.10706476681E+03  0.90913664173E+02 0.  0.
         24    2    1    2    0    0  0.17227562971E+02 -0.31876094484E+02  0.61815475064E+02  0.10887120076E+03  0.81968964083E+02 0.  0.
        -11    1    4    4    0    0  0.48374464531E+02 -0.31987081800E+02  0.34751678546E+02  0.67608737471E+02  0.00000000000E+00 0.  1.
         12    1    4    4    0    0 -0.31146901559E+02  0.11098731635E+00  0.27063796518E+02  0.41262463292E+02  0.00000000000E+00 0. -1.
        -13    1    3    3    0    0  0.30163899771E+02 -0.26567405445E+02 -0.77643482933E+01  0.40938649048E+02  0.00000000000E+00 0.  1.
         13    1    3    3    0    0 -0.39391603212E+02  0.22933729930E+02 -0.47906253022E+02  0.66126117765E+02  0.00000000000E+00 0. -1.
         -2    1    1    2    0  502 -0.79998595303E+01  0.35509769998E+02  0.20490908938E+02  0.41771029038E+02  0.00000000000E+00 0.  1.
<scales pt_clust_5="13000.00000" pt_clust_6="13000.00000" pt_clust_7="13000.00000" pt_clust_8="13000.00000" pt_clust_9="36.39975"></scales>
<clustering>
<clus scale="   36.400">  1  9  2 -1</clus>
<clus scale="   81.969">  5  6 -1 -1</clus>
<clus scale="   82.841">  1  5  2 -1</clus>
<clus scale="   90.914">  7  8 -1 -1</clus>
<clus scale="   36.400">  1  5  2 -1</clus>
</clustering>
</event>
<event>
 9    2  0.6190160E-005  0.1106343E+03  0.7546771E-02  0.1263495E+00
         -1   -1    0    0    0  501 -0.00000000000E+00  0.00000000000E+00  0.35737476890E+02  0.35737476890E+02  0.00000000000E+00 0.  1.
         21   -1    0    0  501  502  0.00000000000E+00 -0.00000000000E+00 -0.95743674703E+03  0.95743674703E+03  0.00000000000E+00 0.  1.
         23    2    1    2    0    0  0.27378234369E+02 -0.10003392344E+02 -0.18105227346E+03  0.20464403630E+03  0.90827420366E+02 0.  0.
         24    2    1    2    0    0 -0.63243417094E+02  0.78507964783E+02 -0.17330537761E+03  0.21594333787E+03  0.80209356835E+02 0.  0.
        -13    1    4    4    0    0 -0.73022391451E+02  0.60813473572E+02 -0.17095294738E+03  0.19559002643E+03  0.00000000000E+00 0.  1.
         14    1    4    4    0    0  0.97789743565E+01  0.17694491211E+02 -0.23524302266E+01  0.20353311442E+02  0.00000000000E+00 0. -1.
        -11    1    3    3    0    0 -0.33134099109E+02 -0.10813184239E+02 -0.68110079638E+02  0.76509975986E+02  0.00000000000E+00 0.  1.
         11    1    3    3    0    0  0.60512333477E+02  0.80979189540E+00 -0.11294219383E+03  0.12813406031E+03  0.00000000000E+00 0. -1.
         -2    1    1    2    0  502  0.35865182725E+02 -0.68504572439E+02 -0.56734161907E+03  0.57258684975E+03  0.00000000000E+00 0.  1.
<scales pt_clust_5="13000.00000" pt_clust_6="13000.00000" pt_clust_7="13000.00000" pt_clust_8="13000.00000" pt_clust_9="77.32521"></scales>
<clustering>
<clus scale="   77.325">  2  9  1 -1</clus>
<clus scale="   80.209">  5  6 -1 -1</clus>
<clus scale="   90.827">  7  8 -1 -1</clus>
<clus scale="  102.097">  2  5  1 -1</clus>
<clus scale="   77.325">  2  5  1 -1</clus>
</clustering>
</event>
<event>
 9    2  0.6190160E-005  0.1391641E+03  0.7546771E-02  0.1224430E+00
         21   -1    0    0  501  502  0.00000000000E+00  0.00000000000E+00  0.75038402237E+02  0.75038402237E+02  0.00000000000E+00 0. -1.
          2   -1    0    0  502    0 -0.00000000000E+00 -0.00000000000E+00 -0.88126366048E+03  0.88126366048E+03  0.00000000000E+00 0. -1.
         24    2    1    2    0    0  0.49201567424E+02  0.62316394804E+02 -0.63906806310E+03  0.64895575593E+03  0.80196362613E+02 0.  0.
         23    2    1    2    0    0 -0.82415312354E+02  0.53027168989E+02 -0.11511225304E+03  0.17651830306E+03  0.91124728553E+02 0.  0.
        -13    1    3    3    0    0  0.68951996031E+02  0.32495982133E+02 -0.39592561522E+03  0.40319655182E+03  0.00000000000E+00 0.  1.
         14    1    3    3    0    0 -0.19750428607E+02  0.29820412671E+02 -0.24314244788E+03  0.24575920411E+03  0.00000000000E+00 0. -1.
        -13    1    4    4    0    0 -0.25596842591E+02 -0.24871007050E+02 -0.19229926851E+02  0.40540787228E+02  0.00000000000E+00 0.  1.
         13    1    4    4    0    0 -0.56818469763E+02  0.77898176039E+02 -0.95882326193E+02  0.13597751583E+03  0.00000000000E+00 0. -1.
          1    1    1    2  501    0  0.33213744930E+02 -0.11534356379E+03 -0.52044942093E+02  0.13082800372E+03  0.00000000000E+00 0. -1.
<scales pt_clust_5="13000.00000" pt_clust_6="13000.00000" pt_clust_7="13000.00000" pt_clust_8="13000.00000" pt_clust_9="105.18049"></scales>
<clustering>
<clus scale="   80.196">  5  6 -1 -1</clus>
<clus scale="   91.125">  7  8 -1 -1</clus>
<clus scale="  112.852">  2  5  1 -1</clus>
<clus scale="  105.180">  1  9  2 -1</clus>
<clus scale="  105.180">  1  5  2 -1</clus>
</clustering>
</event>
<event>
 9    2  0.6190160E-005  0.1183220E+03  0.7546771E-02  0.1248747E+00
          2   -1    0    0  502    0 -0.00000000000E+00  0.00000000000E+00  0.26132942816E+03  0.26132942816E+03  0.00000000000E+00 0. -1.
         21   -1    0    0  501  502  0.00000000000E+00 -0.00000000000E+00 -0.23049247956E+03  0.23049247956E+03  0.00000000000E+00 0.  1.
         23    2    1    2    0    0 -0.22191307934E+02 -0.74795761675E+02  0.22852773806E+03  0.25762144648E+03  0.89760918617E+02 0.  0.
         24    2    1    2    0    0  0.33815012428E+02  0.58076268902E+02 -0.16813154482E+03  0.19830615964E+03  0.80875265133E+02 0.  0.
        -11    1    4    4    0    0  0.35833878153E+02  0.77466916912E+02 -0.14243825526E+03  0.16605374612E+03  0.00000000000E+00 0.  1.
         12    1    4    4    0    0 -0.20188657256E+01 -0.19390648009E+02 -0.25693289566E+02  0.32252413518E+02  0.00000000000E+00 0. -1.
        -13    1    3    3    0    0  0.64674110927E+01 -0.21681058928E+02  0.14625699956E+01  0.22672336304E+02  0.00000000000E+00 0.  1.
         13    1    3    3    0    0 -0.28658719026E+02 -0.53114702746E+02  0.22706516806E+03  0.23494911017E+03  0.00000000000E+00 0. -1.
          1    1    1    2  501    0 -0.11623704494E+02  0.16719492772E+02 -0.29559244634E+02  0.35894301610E+02  0.00000000000E+00 0. -1.
<scales pt_clust_5="13000.00000" pt_clust_6="13000.00000" pt_clust_7="13000.00000" pt_clust_8="13000.00000" pt_clust_9="20.36300"></scales>
<clustering>
<clus scale="   20.363">  2  9  1 -1</clus>
<clus scale="   80.875">  5  6 -1 -1</clus>
<clus scale="   89.761">  7  8 -1 -1</clus>
<clus scale="  111.731">  2  5  1 -1</clus>
<clus scale="   20.363">  2  5  1 -1</clus>
</clustering>
</event>
<event>
 9    2  0.6190160E-005  0.1076634E+03  0.7546771E-02  0.1268273E+00
         21   -1    0    0  501  502  0.00000000000E+00  0.00000000000E+00  0.21605832787E+03  0.21605832787E+03  0.00000000000E+00 0.  1.
         -3   -1    0    0    0  501 -0.00000000000E+00 -0.00000000000E+00 -0.94851966051E+02  0.94851966051E+02  0.00000000000E+00 0.  1.
         24    2    1    2    0    0 -0.53605666390E+02 -0.50319256335E+02  0.34848671051E+02  0.11408575230E+03  0.79972082487E+02 0.  0.
         23    2    1    2    0    0  0.25298527897E+02  0.31571656851E+02  0.11632139314E+03  0.15154110054E+03  0.88302058990E+02 0.  0.
        -13    1    3    3    0    0 -0.57119511621E+02 -0.65121178844E+02  0.13194009677E+02  0.87621278427E+02  0.00000000000E+00 0.  1.
         14    1    3    3    0    0  0.35138452315E+01  0.14801922509E+02  0.21654661375E+02  0.26464473876E+02  0.00000000000E+00 0. -1.
        -11    1    4    4    0    0 -0.17610009698E+02 -0.19675619161E+02  0.15628310483E+02  0.30683652316E+02  0.00000000000E+00 0. -1.
         11    1    4    4    0    0  0.42908537595E+02  0.51247276012E+02  0.10069308265E+03  0.12085744822E+03  0.00000000000E+00 0.  1.
         -4    1    1    2    0  502  0.28307138492E+02  0.18747599484E+02 -0.29963702370E+02  0.45283441077E+02  0.00000000000E+00 0.  1.
<scales pt_clust_5="13000.00000" pt_clust_6="13000.00000" pt_clust_7="13000.00000" pt_clust_8="13000.00000" pt_clust_9="33.95243"></scales>
<clustering>
<clus scale="   33.952">  1  9  2 -1</clus>
<clus scale="   79.972">  5  6 -1 -1</clus>
<clus scale="   88.302">  7  8 -1 -1</clus>
<clus scale="  100.944">  2  5  1 -1</clus>
<clus scale="   33.952">  1  5  2 -1</clus>
</clustering>
</event>
<event>
 9    2  0.6190160E-005  0.1033154E+03  0.7546771E-02  0.1278841E+00
         21   -1    0    0  501  502  0.00000000000E+00  0.00000000000E+00  0.90371688946E+02  0.90371688946E+02  0.00000000000E+00 0. -1.
         -3   -1    0    0    0  501 -0.00000000000E+00 -0.00000000000E+00 -0.26888353511E+03  0.26888353511E+03  0.00000000000E+00 0.  1.
         23    2    1    2    0    0 -0.54954817701E+02  0.19544410620E+02 -0.20269235705E+03  0.22987631279E+03  0.91416145170E+02 0.  0.
         24    2    1    2    0    0  0.16977879609E+02 -0.51012042842E+01 -0.60755711266E+00  0.81783718743E+02  0.79836939098E+02 0.  0.
        -13    1    4    4    0    0 -0.30495555213E+02  0.76284883596E+01 -0.70405822462E+01  0.32214011249E+02  0.00000000000E+00 0.  1.
         14    1    4    4    0    0  0.47473434822E+02 -0.12729692644E+02  0.64330251335E+01  0.49569707493E+02  0.00000000000E+00 0. -1.
        -13    1    3    3    0    0 -0.44212629940E+02  0.51637371853E+02 -0.93779344987E+02  0.11582633709E+03  0.00000000000E+00 0.  1.
         13    1    3    3    0    0 -0.10742187761E+02 -0.32092961233E+02 -0.10891301206E+03  0.11404997569E+03  0.00000000000E+00 0. -1.
         -4    1    1    2    0  502  0.37976938092E+02 -0.14443206336E+02  0.24788068003E+02  0.47595192524E+02  0.00000000000E+00 0.  1.
<scales pt_clust_5="13000.00000" pt_clust_6="13000.00000" pt_clust_7="13000.00000" pt_clust_8="13000.00000" pt_clust_9="40.63070"></scales>
<clustering>
<clus scale="   40.631">  1  9  2 -1</clus>
<clus scale="   79.837">  5  6 -1 -1</clus>
<clus scale="   91.416">  7  8 -1 -1</clus>
<clus scale="   93.226">  1  5  2 -1</clus>
<clus scale="   40.631">  1  5  2 -1</clus>
</clustering>
</event>
<event>
 9    2  0.6190160E-005  0.9535009E+02  0.7546771E-02  0.1297030E+00
          2   -1    0    0  502    0 -0.00000000000E+00  0.00000000000E+00  0.25033502679E+03  0.25033502679E+03  0.00000000000E+00 0. -1.
         21   -1    0    0  501  502  0.00000000000E+00 -0.00000000000E+00 -0.18731547373E+03  0.18731547373E+03  0.00000000000E+00 0. -1.
         24    2    1    2    0    0  0.49303175279E+02  0.14337395707E+02  0.14771636291E+03  0.17534788031E+03  0.79311986795E+02 0.  0.
         23    2    1    2    0    0  0.35908158586E+02 -0.17858314330E+02  0.43321534498E+02  0.10847783423E+03  0.91007526749E+02 0.  0.
        -13    1    3    3    0    0  0.21858454886E+02  0.11490671567E+02 -0.38549895230E+00  0.24697696097E+02  0.00000000000E+00 0.  1.
         14    1    3    3    0    0  0.27444720393E+02  0.28467241399E+01  0.14810186187E+03  0.15065018422E+03  0.00000000000E+00 0. -1.
        -11    1    4    4    0    0  0.61662713565E+02  0.48605192116E+01  0.40682350204E+02  0.74033563397E+02  0.00000000000E+00 0. -1.
         11    1    4    4    0    0 -0.25754554979E+02 -0.22718833542E+02  0.26391842942E+01  0.34444270836E+02  0.00000000000E+00 0.  1.
          1    1    1    2  501    0 -0.85211333865E+02  0.35209186234E+01 -0.12801834435E+03  0.15382478597E+03  0.00000000000E+00 0. -1.
<scales pt_clust_5="13000.00000" pt_clust_6="13000.00000" pt_clust_7="13000.00000" pt_clust_8="13000.00000" pt_clust_9="85.28404"></scales>
<clustering>
<clus scale="   79.312">  5  6 -1 -1</clus>
<clus scale="   85.284">  2  9  1 -1</clus>
<clus scale="   84.259">  1  5  2 -1</clus>
<clus scale="   91.008">  7  8 -1 -1</clus>
<clus scale="   85.284">  2  5  1 -1</clus>
</clustering>
</event>
<event>
 9    2  0.6190160E-005  0.1092570E+03  0.7546771E-02  0.1272826E+00
         -1   -1    0    0    0  501 -0.00000000000E+00  0.00000000000E+00  0.61686364400E+03  0.61686364400E+03  0.00000000000E+00 0.  1.
         21   -1    0    0  501  502  0.00000000000E+00 -0.00000000000E+00 -0.39751573410E+02  0.39751573410E+02  0.00000000000E+00 0. -1.
         23    2    1    2    0    0  0.86725334256E+01  0.39284997117E+02  0.47041335450E+03  0.48318147339E+03  0.10274769248E+03 0.  0.
         24    2    1    2    0    0  0.34484308305E+02 -0.29823799557E+02  0.76763366699E+02  0.12006566000E+03  0.80277778408E+02 0.  0.
        -11    1    4    4    0    0  0.86280577038E+01 -0.47013165322E+02  0.75038826093E+02  0.88969132370E+02  0.00000000000E+00 0.  1.
         12    1    4    4    0    0  0.25856250601E+02  0.17189365766E+02  0.17245406063E+01  0.31096527634E+02  0.00000000000E+00 0. -1.
        -11    1    3    3    0    0 -0.14794083235E+02  0.69923177446E+02  0.28870641696E+03  0.29742143641E+03  0.00000000000E+00 0.  1.
         11    1    3    3    0    0  0.23466616661E+02 -0.30638180329E+02  0.18170693753E+03  0.18576003698E+03  0.00000000000E+00 0. -1.
         -2    1    1    2    0  502 -0.43156841731E+02 -0.94611975606E+01  0.29935349392E+02  0.53368084008E+02  0.00000000000E+00 0.  1.
<scales pt_clust_5="13000.00000" pt_clust_6="13000.00000" pt_clust_7="13000.00000" pt_clust_8="13000.00000" pt_clust_9="44.18175"></scales>
<clustering>
<clus scale="   44.182">  2  9  1 -1</clus>
<clus scale="   80.278">  5  6 -1 -1</clus>
<clus scale="   88.456">  2  5  1 -1</clus>
<clus scale="  102.748">  7  8 -1 -1</clus>
<clus scale="   44.182">  2  5  1 -1</clus>
</clustering>
</event>
<event>
 9    2  0.6190160E-005  0.1703168E+03  0.7546771E-02  0.1182041E+00
          2   -1    0    0  502    0 -0.00000000000E+00  0.00000000000E+00  0.88865143828E+03  0.88865143828E+03  0.00000000000E+00 0. -1.
         21   -1    0    0  501  502  0.00000000000E+00 -0.00000000000E+00 -0.13964454806E+03  0.13964454806E+03  0.00000000000E+00 0. -1.
         23    2    1    2    0    0  0.13816674718E+02  0.12900233488E+03  0.64449698583E+03  0.66260467805E+03  0.82680661168E+02 0.  0.
         24    2    1    2    0    0  0.13661749198E+03 -0.11560014371E+02  0.41744945659E+02  0.16478691012E+03  0.81327192335E+02 0.  0.
        -11    1    4    4    0    0  0.19390433300E+02  0.29165279752E+02  0.51170043677E+01  0.35394719666E+02  0.00000000000E+00 0.  1.
         12    1    4    4    0    0  0.11722705868E+03 -0.40725294123E+02  0.36627941291E+02  0.12939219046E+03  0.00000000000E+00 0. -1.
        -13    1    3    3    0    0 -0.31928210332E+02  0.78218144163E+02  0.39356902977E+03  0.40253455738E+03  0.00000000000E+00 0. -1.
         13    1    3    3    0    0  0.45744885050E+02  0.50784190721E+02  0.25092795605E+03  0.26007012067E+03  0.00000000000E+00 0.  1.
          1    1    1    2  501    0 -0.15043416670E+03 -0.11744232051E+03  0.62764958733E+02  0.20090439817E+03  0.00000000000E+00 0. -1.
<scales pt_clust_5="13000.00000" pt_clust_6="13000.00000" pt_clust_7="13000.00000" pt_clust_8="13000.00000" pt_clust_9="149.64528"></scales>
<clustering>
<clus scale="   81.327">  5  6 -1 -1</clus>
<clus scale="   82.681">  7  8 -1 -1</clus>
<clus scale="  153.846">  1  7  2 -1</clus>
<clus scale="  149.645">  2  9  1 -1</clus>
<clus scale="  149.645">  2  5  1 -1</clus>
</clustering>
</event>
<event>
 9    2  0.7916922E-005  0.8958097E+02  0.7546771E-02  0.1308333E+00
          2   -1    0    0  502    0 -0.00000000000E+00  0.00000000000E+00  0.22421284432E+03  0.22421284432E+03  0.00000000000E+00 0. -1.
         21   -1    0    0  501  502  0.00000000000E+00 -0.00000000000E+00 -0.20891316547E+03  0.20891316547E+03  0.00000000000E+00 0.  1.
         24    2    1    2    0    0  0.10266646782E+02 -0.10146865878E+02  0.18486631279E+03  0.20250136902E+03  0.81381127583E+02 0.  0.
         23    2    1    2    0    0  0.14854129969E+02  0.18877428502E+02 -0.18003924094E+03  0.20204227478E+03  0.88487004895E+02 0.  0.
        -11    1    3    3    0    0 -0.20662618288E+02 -0.17054332687E+02  0.17135260883E+02  0.31802692078E+02  0.00000000000E+00 0.  1.
         12    1    3    3    0    0  0.30929265069E+02  0.69074668094E+01  0.16773105191E+03  0.17069867694E+03  0.00000000000E+00 0. -1.
        -11    1    4    4    0    0  0.39204700125E+02  0.40755855601E+02 -0.90603055202E+02  0.10680337958E+03  0.00000000000E+00 0.  1.
         11    1    4    4    0    0 -0.24350570156E+02 -0.21878427099E+02 -0.89436185738E+02  0.95238895198E+02  0.00000000000E+00 0. -1.
          1    1    1    2  501    0 -0.25120776750E+02 -0.87305626241E+01  0.10472606998E+02  0.28582365990E+02  0.00000000000E+00 0. -1.
<scales pt_clust_5="13000.00000" pt_clust_6="13000.00000" pt_clust_7="13000.00000" pt_clust_8="13000.00000" pt_clust_9="26.59468"></scales>
<clustering>
<clus scale="   26.595">  2  9  1 -1</clus>
<clus scale="   81.381">  5  6 -1 -1</clus>
<clus scale="   82.569">  1  5  2 -1</clus>
<clus scale="   88.487">  7  8 -1 -1</clus>
<clus scale="   26.595">  2  5  1 -1</clus>
</clustering>
</event>
<event>
 9    2  0.6190160E-005  0.1166045E+03  0.7546771E-02  0.1251852E+00
         21   -1    0    0  501  502  0.00000000000E+00  0.00000000000E+00  0.50718429979E+03  0.50718429979E+03  0.00000000000E+00 0.  1.
         -3   -1    0    0    0  501 -0.00000000000E+00 -0.00000000000E+00 -0.21188533914E+03  0.21188533914E+03  0.00000000000E+00 0.  1.
         23    2    1    2    0    0  0.20630267449E+02 -0.73313692054E+02 -0.17958210378E+03  0.21524784743E+03  0.91002189237E+02 0.  0.
         24    2    1    2    0    0 -0.43413813496E+02  0.26611525747E+02  0.17856962653E+03  0.20298853114E+03  0.82001827734E+02 0.  0.
        -11    1    4    4    0    0  0.23808951776E+02  0.14085047377E+02  0.42619835183E+02  0.50810482140E+02  0.00000000000E+00 0.  1.
         12    1    4    4    0    0 -0.67222765272E+02  0.12526478370E+02  0.13594979134E+03  0.15217804900E+03  0.00000000000E+00 0. -1.
        -11    1    3    3    0    0  0.34270745359E+02 -0.14840046223E+02 -0.15338423999E+02  0.40372988621E+02  0.00000000000E+00 0. -1.
         11    1    3    3    0    0 -0.13640477910E+02 -0.58473645831E+02 -0.16424367978E+03  0.17487485881E+03  0.00000000000E+00 0.  1.
         -4    1    1    2    0  502  0.22783546047E+02  0.46702166307E+02  0.29631143791E+03  0.30083326037E+03  0.00000000000E+00 0.  1.
<scales pt_clust_5="13000.00000" pt_clust_6="13000.00000" pt_clust_7="13000.00000" pt_clust_8="13000.00000" pt_clust_9="51.96328"></scales>
<clustering>
<clus scale="   51.963">  1  9  2 -1</clus>
<clus scale="   82.002">  5  6 -1 -1</clus>
<clus scale="   91.002">  7  8 -1 -1</clus>
<clus scale="  109.725">  1  5  2 -1</clus>
<clus scale="   51.963">  1  5  2 -1</clus>
</clustering>
</event>
<event>
 9    2  0.6190160E-005  0.9193049E+02  0.7546771E-02  0.1303930E+00
         21   -1    0    0  501  502  0.00000000000E+00  0.00000000000E+00  0.16181640952E+03  0.16181640952E+03  0.00000000000E+00 0. -1.
          2   -1    0    0  502    0 -0.00000000000E+00 -0.00000000000E+00 -0.94812423999E+02  0.94812423999E+02  0.00000000000E+00 0. -1.
         23    2    1    2    0    0  0.16411422157E+01 -0.18603611048E+02 -0.13287439132E+02  0.94099428816E+02  0.91265320757E+02 0.  0.
         24    2    1    2    0    0  0.17116375736E+01 -0.10271196223E+02  0.98195134686E+02  0.12838942140E+03  0.82055663285E+02 0.  0.
        -13    1    4    4    0    0 -0.38062478118E+02 -0.17572946876E+02  0.44062752398E+02  0.60820118804E+02  0.00000000000E+00 0.  1.
         14    1    4    4    0    0  0.39774115691E+02  0.73017506537E+01  0.54132382288E+02  0.67569302600E+02  0.00000000000E+00 0. -1.
        -11    1    3    3    0    0  0.22950201646E+02  0.26328393464E+02 -0.25070887650E+02  0.42993551441E+02  0.00000000000E+00 0.  1.
         11    1    3    3    0    0 -0.21309059430E+02 -0.44932004512E+02  0.11783448517E+02  0.51105877375E+02  0.00000000000E+00 0. -1.
          1    1    1    2  501    0 -0.33527797893E+01  0.28874807271E+02 -0.17903710029E+02  0.34139983305E+02  0.00000000000E+00 0. -1.
<scales pt_clust_5="13000.00000" pt_clust_6="13000.00000" pt_clust_7="13000.00000" pt_clust_8="13000.00000" pt_clust_9="29.06882"></scales>
<clustering>
<clus scale="   29.069">  1  9  2 -1</clus>
<clus scale="   82.056">  5  6 -1 -1</clus>
<clus scale="   82.795">  1  5  2 -1</clus>
<clus scale="   91.265">  7  8 -1 -1</clus>
<clus scale="   29.069">  1  5  2 -1</clus>
</clustering>
</event>
<event>
 9    2  0.6190160E-005  0.1283277E+03  0.7546771E-02  0.1232224E+00
          2   -1    0    0  502    0 -0.00000000000E+00  0.00000000000E+00  0.45515903002E+03  0.45515903002E+03  0.00000000000E+00 0. -1.
         21   -1    0    0  501  502  0.00000000000E+00 -0.00000000000E+00 -0.13329085217E+03  0.13329085217E+03  0.00000000000E+00 0. -1.
         24    2    1    2    0    0 -0.85236549353E+02 -0.47921187742E+02  0.40318577954E+03  0.42219431343E+03  0.78278706522E+02 0.  0.
         23    2    1    2    0    0  0.56025620142E+02  0.29138890389E+02 -0.47033365663E+02  0.11745534417E+03  0.87153171739E+02 0.  0.
        -13    1    3    3    0    0 -0.35235096221E+02  0.12304875378E+02  0.63945419891E+02  0.74040115403E+02  0.00000000000E+00 0.  1.
         14    1    3    3    0    0 -0.50001453132E+02 -0.60226063120E+02  0.33924035965E+03  0.34815419803E+03  0.00000000000E+00 0. -1.
        -13    1    4    4    0    0 -0.22473411543E+02 -0.27915913780E+01 -0.13155733417E+02  0.26190084585E+02  0.00000000000E+00 0. -1.
         13    1    4    4    0    0  0.78499031685E+02  0.31930481767E+02 -0.33877632245E+02  0.91265259589E+02  0.00000000000E+00 0.  1.
          1    1    1    2  501    0  0.29210929212E+02  0.18782297352E+02 -0.34284236026E+02  0.48800224581E+02  0.00000000000E+00 0. -1.
<scales pt_clust_5="13000.00000" pt_clust_6="13000.00000" pt_clust_7="13000.00000" pt_clust_8="13000.00000" pt_clust_9="34.72827"></scales>
<clustering>
<clus scale="   34.728">  2  9  1 -1</clus>
<clus scale="   78.279">  5  6 -1 -1</clus>
<clus scale="   87.153">  7  8 -1 -1</clus>
<clus scale="  122.474">  1  5  2 -1</clus>
<clus scale="   34.728">  2  5  1 -1</clus>
</clustering>
</event>
<event>
 9    2  0.6190160E-005  0.1326051E+03  0.7546771E-02  0.1245566E+00
          2   -1    0    0  502    0 -0.00000000000E+00  0.00000000000E+00  0.31876140103E+03  0.31876140103E+03  0.00000000000E+00 0. -1.
         21   -1    0    0  501  502  0.00000000000E+00 -0.00000000000E+00 -0.32450585572E+03  0.32450585572E+03  0.00000000000E+00 0. -1.
         24    2    1    2    0    0 -0.29089459088E+02 -0.10834196929E+02 -0.70363525552E+02  0.11004454598E+03  0.78709592285E+02 0.  0.
         23    2    1    2    0    0 -0.42661066555E+02  0.55820283429E+02  0.27754079528E+03  0.30407745850E+03  0.10246139311E+03 0.  0.
        -13    1    3    3    0    0 -0.25951348103E+02 -0.39952797733E+02 -0.19759443134E+02  0.51576487938E+02  0.00000000000E+00 0.  1.
         14    1    3    3    0    0 -0.31381109852E+01  0.29118600804E+02 -0.50604082418E+02  0.58468058038E+02  0.00000000000E+00 0. -1.
        -13    1    4    4    0    0  0.18226522736E+02  0.27291734193E+02  0.21213165597E+02  0.39077401155E+02  0.00000000000E+00 0.  1.
         13    1    4    4    0    0 -0.60887589291E+02  0.28528549236E+02  0.25632762969E+03  0.26500005734E+03  0.00000000000E+00 0. -1.
          1    1    1    2  501    0  0.71750525643E+02 -0.44986086500E+02 -0.21292172443E+03  0.22914525228E+03  0.00000000000E+00 0. -1.
<scales pt_clust_5="13000.00000" pt_clust_6="13000.00000" pt_clust_7="13000.00000" pt_clust_8="13000.00000" pt_clust_9="84.17701"></scales>
<clustering>
<clus scale="   78.710">  5  6 -1 -1</clus>
<clus scale="   84.610">  1  5  2 -1</clus>
<clus scale="   84.177">  2  9  1 -1</clus>
<clus scale="  102.461">  7  8 -1 -1</clus>
<clus scale="   84.177">  2  5  1 -1</clus>
</clustering>
</event>
<event>
 9    2  0.6190160E-005  0.1232463E+03  0.7546771E-02  0.1240170E+00
         21   -1    0    0  501  502  0.00000000000E+00  0.00000000000E+00  0.16214807942E+03  0.16214807942E+03  0.00000000000E+00 0. -1.
          2   -1    0    0  502    0 -0.00000000000E+00 -0.00000000000E+00 -0.84351087282E+03  0.84351087282E+03  0.00000000000E+00 0. -1.
         24    2    1    2    0    0 -0.50448884094E+02  0.42017118458E+02 -0.62931713308E+03  0.64042097406E+03  0.98936554808E+02 0.  0.
         23    2    1    2    0    0  0.49614221088E+02 -0.12174515780E+03 -0.16299488647E+03  0.22861079309E+03  0.91717540948E+02 0.  0.
        -11    1    3    3    0    0 -0.67437171659E+02  0.61357362497E+02 -0.53204557829E+03  0.53980088499E+03  0.00000000000E+00 0.  1.
         12    1    3    3    0    0  0.16988287565E+02 -0.19340244038E+02 -0.97271554791E+02  0.10062008907E+03  0.00000000000E+00 0. -1.
        -13    1    4    4    0    0  0.18328361583E+02 -0.37890365127E+02  0.64361735471E+00  0.42095401780E+02  0.00000000000E+00 0.  1.
         13    1    4    4    0    0  0.31285859505E+02 -0.83854792674E+02 -0.16363850383E+03  0.18651539131E+03  0.00000000000E+00 0. -1.
          1    1    1    2  501    0  0.83466300642E+00  0.79728039343E+02  0.11094922616E+03  0.13662718509E+03  0.00000000000E+00 0. -1.
<scales pt_clust_5="13000.00000" pt_clust_6="13000.00000" pt_clust_7="13000.00000" pt_clust_8="13000.00000" pt_clust_9="79.73241"></scales>
<clustering>
<clus scale="   79.732">  1  9  2 -1</clus>
<clus scale="   91.718">  7  8 -1 -1</clus>
<clus scale="   98.937">  5  6 -1 -1</clus>
<clus scale="  117.530">  1  7  2 -1</clus>
<clus scale="   79.732">  1  5  2 -1</clus>
</clustering>
</event>
<event>
 9    2  0.6190160E-005  0.9543408E+02  0.7546771E-02  0.1297495E+00
         21   -1    0    0  501  502  0.00000000000E+00  0.00000000000E+00  0.11949937106E+02  0.11949937106E+02  0.00000000000E+00 0. -1.
          2   -1    0    0  502    0 -0.00000000000E+00 -0.00000000000E+00 -0.88316853795E+03  0.88316853795E+03  0.00000000000E+00 0. -1.
         24    2    1    2    0    0  0.66554811883E+01  0.15710250118E+02 -0.34899316279E+03  0.35814755709E+03  0.78627842319E+02 0.  0.
         23    2    1    2    0    0 -0.78704758413E+01 -0.39884352692E+02 -0.44208178418E+03  0.45325193144E+03  0.91369050979E+02 0.  0.
        -13    1    3    3    0    0 -0.17345686135E+02  0.24088442669E+02 -0.50530678683E+02  0.58604397325E+02  0.00000000000E+00 0.  1.
         14    1    3    3    0    0  0.24001167323E+02 -0.83781925508E+01 -0.29846248411E+03  0.29954315977E+03  0.00000000000E+00 0. -1.
        -13    1    4    4    0    0 -0.43628112869E+02 -0.41809522864E+02 -0.33313254256E+03  0.33856866268E+03  0.00000000000E+00 0. -1.
         13    1    4    4    0    0  0.35757637028E+02  0.19251701718E+01 -0.10894924161E+03  0.11468326876E+03  0.00000000000E+00 0.  1.
          1    1    1    2  501    0  0.12149946529E+01  0.24174102574E+02 -0.80143653878E+02  0.83718986522E+02  0.00000000000E+00 0. -1.
<scales pt_clust_5="13000.00000" pt_clust_6="13000.00000" pt_clust_7="13000.00000" pt_clust_8="13000.00000" pt_clust_9="24.20462"></scales>
<clustering>
<clus scale="   24.205">  1  9  2 -1</clus>
<clus scale="   78.628">  5  6 -1 -1</clus>
<clus scale="   83.317">  2  5  1 -1</clus>
<clus scale="   91.369">  7  8 -1 -1</clus>
<clus scale="   24.205">  1  5  2 -1</clus>
</clustering>
</event>
<event>
 9    2  0.6190160E-005  0.1075827E+03  0.7546771E-02  0.1274185E+00
          2   -1    0    0  502    0 -0.00000000000E+00  0.00000000000E+00  0.10514450794E+04  0.10514450794E+04  0.00000000000E+00 0. -1.
         21   -1    0    0  501  502  0.00000000000E+00 -0.00000000000E+00 -0.21083094561E+02  0.21083094561E+02  0.00000000000E+00 0.  1.
         24    2    1    2    0    0 -0.19917516214E+02 -0.29510024347E+02  0.63021856114E+03  0.63649328939E+03  0.81735693798E+02 0.  0.
         23    2    1    2    0    0  0.43684107248E+01  0.48727496954E+02  0.39534795957E+03  0.41085389152E+03  0.10053585962E+03 0.  0.
        -13    1    3    3    0    0 -0.20352665792E+02 -0.37957515122E+02  0.14647789672E+03  0.15267867627E+03  0.00000000000E+00 0.  1.
         14    1    3    3    0    0  0.43514957741E+00  0.84474907748E+01  0.48374066442E+03  0.48381461312E+03  0.00000000000E+00 0. -1.
        -13    1    4    4    0    0 -0.40991888984E+02  0.50927159176E+02  0.25986729914E+03  0.26796440746E+03  0.00000000000E+00 0. -1.
         13    1    4    4    0    0  0.45360299709E+02 -0.21996622215E+01  0.13548066043E+03  0.14288948406E+03  0.00000000000E+00 0.  1.
          1    1    1    2  501    0  0.15549105489E+02 -0.19217472607E+02  0.47954641273E+01  0.25180993053E+02  0.00000000000E+00 0. -1.
<scales pt_clust_5="13000.00000" pt_clust_6="13000.00000" pt_clust_7="13000.00000" pt_clust_8="13000.00000" pt_clust_9="24.72015"></scales>
<clustering>
<clus scale="   24.720">  2  9  1 -1</clus>
<clus scale="   81.736">  5  6 -1 -1</clus>
<clus scale="   90.262">  1  5  2 -1</clus>
<clus scale="  100.536">  7  8 -1 -1</clus>
<clus scale="   24.720">  2  5  1 -1</clus>
</clustering>
</event>
<event>
 9    2  0.6190160E-005  0.1824423E+03  0.7546771E-02  0.1177918E+00
          4   -1    0    0  502    0 -0.00000000000E+00  0.00000000000E+00  0.50457042929E+03  0.50457042929E+03  0.00000000000E+00 0. -1.
         21   -1    0    0  501  502  0.00000000000E+00 -0.00000000000E+00 -0.14188365331E+03  0.14188365331E+03  0.00000000000E+00 0.  1.
         23    2    1    2    0    0 -0.80845224065E+02 -0.63719769495E+02  0.12062144522E+03  0.18277418513E+03  0.90888450441E+02 0.  0.
         24    2    1    2    0    0  0.12255264189E+03 -0.11023729483E+03  0.31203366845E+02  0.18715984981E+03  0.82968355841E+02 0.  0.
        -11    1    4    4    0    0  0.12367597691E+03 -0.10463951420E+03  0.48368533055E+02  0.16907007478E+03  0.00000000000E+00 0.  1.
         12    1    4    4    0    0 -0.11233350149E+01 -0.55977806320E+01 -0.17165166210E+02  0.18089775028E+02  0.00000000000E+00 0. -1.
        -11    1    3    3    0    0 -0.54238242062E+02 -0.86346164746E+02  0.95938065314E+02  0.14000556933E+03  0.00000000000E+00 0.  1.
         11    1    3    3    0    0 -0.26606982004E+02  0.22626395251E+02  0.24683379906E+02  0.42768615795E+02  0.00000000000E+00 0. -1.
          3    1    1    2  501    0 -0.41707417826E+02  0.17395706433E+03  0.21086196392E+03  0.27652004766E+03  0.00000000000E+00 0. -1.
<scales pt_clust_5="13000.00000" pt_clust_6="13000.00000" pt_clust_7="13000.00000" pt_clust_8="13000.00000" pt_clust_9="162.48534"></scales>
<clustering>
<clus scale="   82.968">  5  6 -1 -1</clus>
<clus scale="   90.888">  7  8 -1 -1</clus>
<clus scale="  137.320">  1  7  2 -1</clus>
<clus scale="  162.485">  2  9  1 -1</clus>
<clus scale="  162.485">  2  5  1 -1</clus>
</clustering>
</event>
<event>
 9    2  0.7136280E-005  0.1082758E+03  0.7546771E-02  0.1268702E+00
         21   -1    0    0  501  502  0.00000000000E+00  0.00000000000E+00  0.13843992585E+03  0.13843992585E+03  0.00000000000E+00 0. -1.
          2   -1    0    0  502    0 -0.00000000000E+00 -0.00000000000E+00 -0.57027928629E+03  0.57027928629E+03  0.00000000000E+00 0. -1.
         24    2    1    2    0    0  0.42910139980E+02 -0.26771919224E+02 -0.43840239291E+03  0.44898776948E+03  0.82676134806E+02 0.  0.
         23    2    1    2    0    0 -0.40084340594E+02  0.63322583866E+02 -0.93980437870E+02  0.15271310005E+03  0.94193759002E+02 0.  0.
        -13    1    3    3    0    0 -0.22832398625E+02 -0.19663338315E+02 -0.16265589636E+03  0.16542341406E+03  0.00000000000E+00 0.  1.
         14    1    3    3    0    0  0.65742538605E+02 -0.71085809092E+01 -0.27574649655E+03  0.28356435542E+03  0.00000000000E+00 0. -1.
        -11    1    4    4    0    0  0.19745189243E+02  0.51426480602E+02 -0.64925637820E+02  0.85146308503E+02  0.00000000000E+00 0. -1.
         11    1    4    4    0    0 -0.59829529838E+02  0.11896103264E+02 -0.29054800050E+02  0.67566791543E+02  0.00000000000E+00 0.  1.
          1    1    1    2  501    0 -0.28257993858E+01 -0.36550664642E+02  0.10054347034E+03  0.10701834261E+03  0.00000000000E+00 0. -1.
<scales pt_clust_5="13000.00000" pt_clust_6="13000.00000" pt_clust_7="13000.00000" pt_clust_8="13000.00000" pt_clust_9="36.65974"></scales>
<clustering>
<clus scale="   36.660">  1  9  2 -1</clus>
<clus scale="   82.676">  5  6 -1 -1</clus>
<clus scale="   94.194">  7  8 -1 -1</clus>
<clus scale="   98.420">  2  5  1 -1</clus>
<clus scale="   36.660">  1  5  2 -1</clus>
</clustering>
</event>
<event>
 9    2  0.6190160E-005  0.9225115E+02  0.7546771E-02  0.1304632E+00
          4   -1    0    0  502    0 -0.00000000000E+00  0.00000000000E+00  0.50301723083E+03  0.50301723083E+03  0.00000000000E+00 0. -1.
         21   -1    0    0  501  502  0.00000000000E+00 -0.00000000000E+00 -0.55604391622E+02  0.55604391622E+02  0.00000000000E+00 0. -1.
         23    2    1    2    0    0 -0.15825522094E+02  0.53208539335E+01  0.38994473849E+03  0.40087257868E+03  0.91450350621E+02 0.  0.
         24    2    1    2    0    0 -0.11495599601E+02 -0.16227634283E+02  0.84331356315E+02  0.11791142274E+03  0.79974002214E+02 0.  0.
        -13    1    4    4    0    0  0.22212888839E+02  0.20460532850E+02  0.18735201334E+02  0.35539465445E+02  0.00000000000E+00 0.  1.
         14    1    4    4    0    0 -0.33708488439E+02 -0.36688167133E+02  0.65596154980E+02  0.82371957295E+02  0.00000000000E+00 0. -1.
        -11    1    3    3    0    0 -0.21010173837E+02  0.45896955639E+02  0.17811954644E+03  0.18513381853E+03  0.00000000000E+00 0.  1.
         11    1    3    3    0    0  0.51846517430E+01 -0.40576101706E+02  0.21182519205E+03  0.21573876015E+03  0.00000000000E+00 0. -1.
          3    1    1    2  501    0  0.27321121694E+02  0.10906780349E+02 -0.26863255595E+02  0.39837621031E+02  0.00000000000E+00 0. -1.
<scales pt_clust_5="13000.00000" pt_clust_6="13000.00000" pt_clust_7="13000.00000" pt_clust_8="13000.00000" pt_clust_9="29.41771"></scales>
<clustering>
<clus scale="   29.418">  2  9  1 -1</clus>
<clus scale="   79.974">  5  6 -1 -1</clus>
<clus scale="   80.889">  2  5  1 -1</clus>
<clus scale="   91.450">  7  8 -1 -1</clus>
<clus scale="   29.418">  2  5  1 -1</clus>
</clustering>
</event>
<event>
 9    2  0.6190160E-005  0.2590668E+03  0.7546771E-02  0.1108177E+00
          2   -1    0    0  502    0 -0.00000000000E+00  0.00000000000E+00  0.98997302106E+03  0.98997302106E+03  0.00000000000E+00 0. -1.
         21   -1    0    0  501  502  0.00000000000E+00 -0.00000000000E+00 -0.38558706823E+03  0.38558706823E+03  0.00000000000E+00 0.  1.
         23    2    1    2    0    0 -0.12193013839E+02 -0.23517486636E+03  0.78392725668E+03  0.82374374605E+03  0.92498259641E+02 0.  0.
         24    2    1    2    0    0  0.46028980070E+01  0.27994651764E+03  0.68158146734E+02  0.29998876644E+03  0.83405561030E+02 0.  0.
        -13    1    4    4    0    0  0.16508605729E+02  0.27847517139E+03  0.70571510623E+02  0.28775213857E+03  0.00000000000E+00 0.  1.
         14    1    4    4    0    0 -0.11905707722E+02  0.14713462551E+01 -0.24133638883E+01  0.12236627861E+02  0.00000000000E+00 0. -1.
        -13    1    3    3    0    0 -0.39460697786E+02 -0.41346570277E+02  0.18769616223E+03  0.19620533851E+03  0.00000000000E+00 0. -1.
         13    1    3    3    0    0  0.27267683947E+02 -0.19382829609E+03  0.59623109445E+03  0.62753840754E+03  0.00000000000E+00 0.  1.
          1    1    1    2  501    0  0.75901158317E+01 -0.44771651281E+02 -0.24769945059E+03  0.25182757680E+03  0.00000000000E+00 0. -1.
<scales pt_clust_5="13000.00000" pt_clust_6="13000.00000" pt_clust_7="13000.00000" pt_clust_8="13000.00000" pt_clust_9="45.41047"></scales>
<clustering>
<clus scale="   45.410">  2  9  1 -1</clus>
<clus scale="   83.406">  5  6 -1 -1</clus>
<clus scale="   92.498">  7  8 -1 -1</clus>
<clus scale="  255.961">  2  5  1 -1</clus>
<clus scale="   45.410">  2  5  1 -1</clus>
</clustering>
</event>
<event>
 9    2  0.6190160E-005  0.1295243E+03  0.7546771E-02  0.1231360E+00
         -3   -1    0    0    0  501 -0.00000000000E+00  0.00000000000E+00  0.65782628596E+02  0.65782628596E+02  0.00000000000E+00 0.  1.
         21   -1    0    0  501  502  0.00000000000E+00 -0.00000000000E+00 -0.74116772033E+03  0.74116772033E+03  0.00000000000E+00 0.  1.
         23    2    1    2    0    0  0.19456349699E+02  0.84211343222E+02 -0.37006158670E+02  0.13040358619E+03  0.90363375548E+02 0.  0.
         24    2    1    2    0    0 -0.48999920660E+02 -0.12826466625E+03 -0.56045980986E+03  0.58228697484E+03  0.78039129694E+02 0.  0.
        -13    1    4    4    0    0 -0.47344305092E+02 -0.34675317979E+02 -0.14525094693E+03  0.15665790273E+03  0.00000000000E+00 0.  1.
         14    1    4    4    0    0 -0.16556155677E+01 -0.93589348267E+02 -0.41520886293E+03  0.42562907211E+03  0.00000000000E+00 0. -1.
        -13    1    3    3    0    0 -0.26282640657E+02  0.66506918963E+02 -0.46842578372E+01  0.71665122210E+02  0.00000000000E+00 0.  1.
         13    1    3    3    0    0  0.45738990356E+02  0.17704424259E+02 -0.32321900833E+02  0.58738463979E+02  0.00000000000E+00 0. -1.
         -4    1    1    2    0  502  0.29543570961E+02  0.44053323024E+02 -0.77919123204E+02  0.94259787902E+02  0.00000000000E+00 0.  1.
<scales pt_clust_5="13000.00000" pt_clust_6="13000.00000" pt_clust_7="13000.00000" pt_clust_8="13000.00000" pt_clust_9="53.04263"></scales>
<clustering>
<clus scale="   53.043">  2  9  1 -1</clus>
<clus scale="   78.039">  5  6 -1 -1</clus>
<clus scale="   90.363">  7  8 -1 -1</clus>
<clus scale="  121.248">  2  5  1 -1</clus>
<clus scale="   53.043">  2  5  1 -1</clus>
</clustering>
</event>
<event>
 9    2  0.6190160E-005  0.9406678E+02  0.7546771E-02  0.1301295E+00
         21   -1    0    0  501  502  0.00000000000E+00  0.00000000000E+00  0.11603903573E+03  0.11603903573E+03  0.00000000000E+00 0. -1.
         -3   -1    0    0    0  501 -0.00000000000E+00 -0.00000000000E+00 -0.32531662316E+03  0.32531662316E+03  0.00000000000E+00 0.  1.
         23    2    1    2    0    0 -0.17320245017E+02  0.13716082624E+02 -0.28793321303E+03  0.30297556711E+03  0.91654444982E+02 0.  0.
         24    2    1    2    0    0  0.22869855203E+02  0.14415304118E+02  0.69931383807E+02  0.10840868060E+03  0.78302058207E+02 0.  0.
        -13    1    4    4    0    0  0.25842898465E+02 -0.15274004375E+02 -0.24494798170E+01  0.30118940255E+02  0.00000000000E+00 0.  1.
         14    1    4    4    0    0 -0.29730432620E+01  0.29689308493E+02  0.72380863624E+02  0.78289740349E+02  0.00000000000E+00 0. -1.
        -13    1    3    3    0    0 -0.54954804746E+02  0.53903024389E+01 -0.18487646448E+03  0.19294660672E+03  0.00000000000E+00 0.  1.
         13    1    3    3    0    0  0.37634559729E+02  0.83257801849E+01 -0.10305674856E+03  0.11002896039E+03  0.00000000000E+00 0. -1.
         -4    1    1    2    0  502 -0.55496101859E+01 -0.28131386742E+02  0.87242418030E+01  0.29971411183E+02  0.00000000000E+00 0.  1.
<scales pt_clust_5="13000.00000" pt_clust_6="13000.00000" pt_clust_7="13000.00000" pt_clust_8="13000.00000" pt_clust_9="28.67356"></scales>
<clustering>
<clus scale="   28.674">  1  9  2 -1</clus>
<clus scale="   78.302">  5  6 -1 -1</clus>
<clus scale="   81.112">  1  5  2 -1</clus>
<clus scale="   91.654">  7  8 -1 -1</clus>
<clus scale="   28.674">  1  5  2 -1</clus>
</clustering>
</event>
<event>
 9    2  0.6190160E-005  0.1651031E+03  0.7546771E-02  0.1184696E+00
         21   -1    0    0  501  502  0.00000000000E+00  0.00000000000E+00  0.16405870707E+03  0.16405870707E+03  0.00000000000E+00 0. -1.
          2   -1    0    0  502    0 -0.00000000000E+00 -0.00000000000E+00 -0.84775810155E+03  0.84775810155E+03  0.00000000000E+00 0. -1.
         24    2    1    2    0    0  0.79114337523E+01  0.13251141083E+03 -0.65592477817E+03  0.67421388067E+03  0.81885148136E+02 0.  0.
         23    2    1    2    0    0  0.33716243396E+02 -0.15760591088E+03 -0.12826878821E+03  0.22597105069E+03  0.92917304674E+02 0.  0.
        -13    1    3    3    0    0  0.89916151659E+01  0.87616229726E+02 -0.23608836582E+03  0.25198247822E+03  0.00000000000E+00 0.  1.
         14    1    3    3    0    0 -0.10801814136E+01  0.44895181101E+02 -0.41983641235E+03  0.42223140245E+03  0.00000000000E+00 0. -1.
        -13    1    4    4    0    0 -0.17207318144E+02 -0.12142125185E+03 -0.95465141623E+02  0.15541172885E+03  0.00000000000E+00 0.  1.
         13    1    4    4    0    0  0.50923561541E+02 -0.36184659026E+02 -0.32803646583E+02  0.70559321836E+02  0.00000000000E+00 0. -1.
          1    1    1    2  501    0 -0.41627677149E+02  0.25094500051E+02  0.10049417189E+03  0.11163187726E+03  0.00000000000E+00 0. -1.
<scales pt_clust_5="13000.00000" pt_clust_6="13000.00000" pt_clust_7="13000.00000" pt_clust_8="13000.00000" pt_clust_9="48.60656"></scales>
<clustering>
<clus scale="   48.607">  1  9  2 -1</clus>
<clus scale="   81.885">  5  6 -1 -1</clus>
<clus scale="   92.917">  7  8 -1 -1</clus>
<clus scale="  159.156">  2  5  1 -1</clus>
<clus scale="   48.607">  1  5  2 -1</clus>
</clustering>
</event>
<event>
 9    2  0.6190160E-005  0.9583505E+02  0.7546771E-02  0.1294540E+00
         -1   -1    0    0    0  501 -0.00000000000E+00  0.00000000000E+00  0.66909728911E+03  0.66909728911E+03  0.00000000000E+00 0.  1.
         21   -1    0    0  501  502  0.00000000000E+00 -0.00000000000E+00 -0.41027992784E+02  0.41027992784E+02  0.00000000000E+00 0.  1.
         24    2    1    2    0    0  0.71355470045E+01  0.52058990878E+02  0.40473397056E+03  0.41640557896E+03  0.82601239109E+02 0.  0.
         23    2    1    2    0    0  0.14146686900E+00  0.21279357265E+02  0.19139592085E+03  0.21339788880E+03  0.91942532963E+02 0.  0.
        -11    1    3    3    0    0  0.13439338121E+02  0.71299671124E+02  0.36090603072E+03  0.36812691007E+03  0.00000000000E+00 0.  1.
         12    1    3    3    0    0 -0.63037911163E+01 -0.19240680246E+02  0.43827939841E+02  0.48278668887E+02  0.00000000000E+00 0. -1.
        -11    1    4    4    0    0  0.28604411692E+02 -0.88836344562E+01  0.15607486045E+03  0.15892291651E+03  0.00000000000E+00 0. -1.
         11    1    4    4    0    0 -0.28462944823E+02  0.30162991721E+02  0.35321060402E+02  0.54474972286E+02  0.00000000000E+00 0.  1.
         -2    1    1    2    0  502 -0.72770138735E+01 -0.73338348143E+02  0.31939404918E+02  0.80321814134E+02  0.00000000000E+00 0.  1.
<scales pt_clust_5="13000.00000" pt_clust_6="13000.00000" pt_clust_7="13000.00000" pt_clust_8="13000.00000" pt_clust_9="73.69850"></scales>
<clustering>
<clus scale="   73.698">  2  9  1 -1</clus>
<clus scale="   82.601">  5  6 -1 -1</clus>
<clus scale="   86.913">  1  5  2 -1</clus>
<clus scale="   91.943">  7  8 -1 -1</clus>
<clus scale="   73.698">  2  5  1 -1</clus>
</clustering>
</event>
<event>
 9    2  0.6190160E-005  0.2349709E+03  0.7546771E-02  0.1123873E+00
          2   -1    0    0  502    0 -0.00000000000E+00  0.00000000000E+00  0.40550939526E+03  0.40550939526E+03  0.00000000000E+00 0. -1.
         21   -1    0    0  501  502  0.00000000000E+00 -0.00000000000E+00 -0.24783505956E+03  0.24783505956E+03  0.00000000000E+00 0.  1.
         24    2    1    2    0    0 -0.12052084487E+03 -0.16258497369E+03  0.13642462989E+03  0.25710309749E+03  0.80815687718E+02 0.  0.
         23    2    1    2    0    0  0.18954242530E+03  0.17797741685E+03 -0.66494830718E+02  0.28354703821E+03  0.91515400167E+02 0.  0.
        -11    1    3    3    0    0 -0.21667513346E+02 -0.30330465523E+01 -0.45707456853E+01  0.22351112324E+02  0.00000000000E+00 0.  1.
         12    1    3    3    0    0 -0.98853331523E+02 -0.15955192714E+03  0.14099537557E+03  0.23475198517E+03  0.00000000000E+00 0. -1.
        -13    1    4    4    0    0  0.12873171123E+03  0.14264920253E+03 -0.84061636101E+01  0.19233125603E+03  0.00000000000E+00 0.  1.
         13    1    4    4    0    0  0.60810714063E+02  0.35328214323E+02 -0.58088667108E+02  0.91215782179E+02  0.00000000000E+00 0. -1.
          1    1    1    2  501    0 -0.69021580428E+02 -0.15392443157E+02  0.87744536534E+02  0.11269431912E+03  0.00000000000E+00 0. -1.
<scales pt_clust_5="13000.00000" pt_clust_6="13000.00000" pt_clust_7="13000.00000" pt_clust_8="13000.00000" pt_clust_9="70.71712"></scales>
<clustering>
<clus scale="   70.717">  2  9  1 -1</clus>
<clus scale="   80.816">  5  6 -1 -1</clus>
<clus scale="   91.515">  7  8 -1 -1</clus>
<clus scale="  231.014">  1  5  2 -1</clus>
<clus scale="   70.717">  2  5  1 -1</clus>
</clustering>
</event>
<event>
 9    2  0.7998203E-005  0.9118717E+02  0.7546771E-02  0.1315959E+00
         21   -1    0    0  501  502  0.00000000000E+00  0.00000000000E+00  0.49513808020E+02  0.49513808020E+02  0.00000000000E+00 0. -1.
          2   -1    0    0  502    0 -0.00000000000E+00 -0.00000000000E+00 -0.42687675895E+03  0.42687675895E+03  0.00000000000E+00 0. -1.
         24    2    1    2    0    0  0.98181026410E+01  0.10375447758E+02 -0.23583256974E+03  0.24560723435E+03  0.67095957830E+02 0.  0.
         23    2    1    2    0    0  0.15842360245E+02 -0.50253786717E+01 -0.52802697428E+01  0.92034727354E+02  0.90367444258E+02 0.  0.
        -11    1    3    3    0    0 -0.18246744300E+02 -0.18864943412E+02 -0.66498400597E+02  0.71490328363E+02  0.00000000000E+00 0.  1.
         12    1    3    3    0    0  0.28064846941E+02  0.29240391171E+02 -0.16933416914E+03  0.17411690598E+03  0.00000000000E+00 0. -1.
        -13    1    4    4    0    0  0.34853099229E+02 -0.29403397843E+02  0.22159978589E+02  0.50698747338E+02  0.00000000000E+00 0. -1.
         13    1    4    4    0    0 -0.19010738984E+02  0.24378019171E+02 -0.27440248331E+02  0.41335980016E+02  0.00000000000E+00 0.  1.
          1    1    1    2  501    0 -0.25660462886E+02 -0.53500690867E+01 -0.13625011144E+03  0.13874860527E+03  0.00000000000E+00 0. -1.
<scales pt_clust_5="13000.00000" pt_clust_6="13000.00000" pt_clust_7="13000.00000" pt_clust_8="13000.00000" pt_clust_9="26.21227"></scales>
<clustering>
<clus scale="   26.212">  1  9  2 -1</clus>
<clus scale="   67.096">  5  6 -1 -1</clus>
<clus scale="   68.196">  2  5  1 -1</clus>
<clus scale="   90.367">  7  8 -1 -1</clus>
<clus scale="   26.212">  1  5  2 -1</clus>
</clustering>
</event>
<event>
 9    2  0.6190160E-005  0.1469967E+03  0.7546771E-02  0.1211954E+00
          2   -1    0    0  502    0 -0.00000000000E+00  0.00000000000E+00  0.99177112280E+03  0.99177112280E+03  0.00000000000E+00 0. -1.
         21   -1    0    0  501  502  0.00000000000E+00 -0.00000000000E+00 -0.54803921498E+02  0.54803921498E+02  0.00000000000E+00 0. -1.
         24    2    1    2    0    0  0.44453191018E+02  0.81439180591E+02  0.57647202471E+03  0.58976987001E+03  0.83066707932E+02 0.  0.
         23    2    1    2    0    0  0.84574510812E+02 -0.88215945296E+02  0.18539374704E+03  0.23919409229E+03  0.88927338098E+02 0.  0.
        -13    1    3    3    0    0  0.19886343799E+02 -0.14118422377E+02  0.81984620634E+02  0.85535223976E+02  0.00000000000E+00 0.  1.
         14    1    3    3    0    0  0.24566847219E+02  0.95557602968E+02  0.49448740408E+03  0.50423464603E+03  0.00000000000E+00 0. -1.
        -11    1    4    4    0    0  0.38362543424E+02  0.12020989334E+02  0.40702917359E+02  0.57209408353E+02  0.00000000000E+00 0.  1.
         11    1    4    4    0    0  0.46211967388E+02 -0.10023693463E+03  0.14469082968E+03  0.18198468393E+03  0.00000000000E+00 0. -1.
          1    1    1    2  501    0 -0.12902770183E+03  0.67767647048E+01  0.17510142956E+03  0.21761108201E+03  0.00000000000E+00 0. -1.
<scales pt_clust_5="13000.00000" pt_clust_6="13000.00000" pt_clust_7="13000.00000" pt_clust_8="13000.00000" pt_clust_9="117.04688"></scales>
<clustering>
<clus scale="   83.067">  5  6 -1 -1</clus>
<clus scale="   88.927">  7  8 -1 -1</clus>
<clus scale="  124.533">  1  5  2 -1</clus>
<clus scale="  117.047">  2  9  1 -1</clus>
<clus scale="  117.047">  2  5  1 -1</clus>
</clustering>
</event>
<event>
 9    2  0.6190160E-005  0.1064004E+03  0.7546771E-02  0.1275244E+00
         21   -1    0    0  501  502  0.00000000000E+00  0.00000000000E+00  0.39925634738E+03  0.39925634738E+03  0.00000000000E+00 0. -1.
         -1   -1    0    0    0  501 -0.00000000000E+00 -0.00000000000E+00 -0.75453821972E+02  0.75453821972E+02  0.00000000000E+00 0.  1.
         23    2    1    2    0    0  0.33057035106E+02  0.54776725811E+02  0.19189877115E+01  0.11645804569E+03  0.97290989463E+02 0.  0.
         24    2    1    2    0    0 -0.66953198836E+00  0.10715062941E+02  0.13533049216E+03  0.15790202122E+03  0.80643941802E+02 0.  0.
        -13    1    4    4    0    0  0.20657239983E+02 -0.20099396284E+02  0.16300377155E+02  0.33112076197E+02  0.00000000000E+00 0.  1.
         14    1    4    4    0    0 -0.21326771972E+02  0.30814459225E+02  0.11903011501E+03  0.12478994502E+03  0.00000000000E+00 0. -1.
        -11    1    3    3    0    0 -0.14844356404E+02 -0.17875900639E+02  0.16125858974E+02  0.28283317846E+02  0.00000000000E+00 0. -1.
         11    1    3    3    0    0  0.47901391510E+02  0.72652626450E+02 -0.14206871262E+02  0.88174727841E+02  0.00000000000E+00 0.  1.
         -2    1    1    2    0  502 -0.32387503118E+02 -0.65491788752E+02  0.18655304553E+03  0.20035010244E+03  0.00000000000E+00 0.  1.
<scales pt_clust_5="13000.00000" pt_clust_6="13000.00000" pt_clust_7="13000.00000" pt_clust_8="13000.00000" pt_clust_9="73.06247"></scales>
<clustering>
<clus scale="   73.062">  1  9  2 -1</clus>
<clus scale="   80.644">  5  6 -1 -1</clus>
<clus scale="   91.427">  1  5  2 -1</clus>
<clus scale="   97.291">  7  8 -1 -1</clus>
<clus scale="   73.062">  1  5  2 -1</clus>
</clustering>
</event>
<event>
 9    2  0.6190160E-005  0.9046511E+02  0.7546771E-02  0.1307507E+00
         21   -1    0    0  501  502  0.00000000000E+00  0.00000000000E+00  0.26114938015E+03  0.26114938015E+03  0.00000000000E+00 0.  1.
         -1   -1    0    0    0  501 -0.00000000000E+00 -0.00000000000E+00 -0.65864058529E+02  0.65864058529E+02  0.00000000000E+00 0.  1.
         23    2    1    2    0    0  0.29135979871E+02 -0.16429828516E+02  0.39868218680E+02  0.10428886978E+03  0.90376152340E+02 0.  0.
         24    2    1    2    0    0  0.25699321558E+02 -0.21770600467E+02  0.61068557093E+02  0.10710523158E+03  0.81288054435E+02 0.  0.
        -11    1    4    4    0    0  0.31496116662E+02  0.18191671407E+02  0.55480003807E+02  0.66339830387E+02  0.00000000000E+00 0.  1.
         12    1    4    4    0    0 -0.57967951042E+01 -0.39962271874E+02  0.55885532862E+01  0.40765401196E+02  0.00000000000E+00 0. -1.
        -11    1    3    3    0    0  0.60373671839E+02 -0.21979296988E+02  0.31049562532E+02  0.71359267659E+02  0.00000000000E+00 0.  1.
         11    1    3    3    0    0 -0.31237691968E+02  0.55494684718E+01  0.88186561485E+01  0.32929602124E+02  0.00000000000E+00 0. -1.
         -2    1    1    2    0  502 -0.54835301429E+02  0.38200428983E+02  0.94348545850E+02  0.11561933732E+03  0.00000000000E+00 0.  1.
<scales pt_clust_5="13000.00000" pt_clust_6="13000.00000" pt_clust_7="13000.00000" pt_clust_8="13000.00000" pt_clust_9="66.82951"></scales>
<clustering>
<clus scale="   66.830">  1  9  2 -1</clus>
<clus scale="   81.288">  5  6 -1 -1</clus>
<clus scale="   81.387">  1  5  2 -1</clus>
<clus scale="   90.376">  7  8 -1 -1</clus>
<clus scale="   66.830">  1  5  2 -1</clus>
</clustering>
</event>
<event>
 9    2  0.6190160E-005  0.9417404E+02  0.7546771E-02  0.1300661E+00
         21   -1    0    0  501  502  0.00000000000E+00  0.00000000000E+00  0.59874844986E+02  0.59874844986E+02  0.00000000000E+00 0. -1.
          2   -1    0    0  502    0 -0.00000000000E+00 -0.00000000000E+00 -0.39459153814E+03  0.39459153814E+03  0.00000000000E+00 0. -1.
         24    2    1    2    0    0 -0.11882502897E+02 -0.10118870813E+02 -0.22173723692E+03  0.23582961464E+03  0.78769407018E+02 0.  0.
         23    2    1    2    0    0  0.41832530982E+02 -0.20726720950E+01 -0.14274533871E+03  0.17468627748E+03  0.91568592869E+02 0.  0.
        -11    1    3    3    0    0 -0.28831587014E+02 -0.22291392293E+02 -0.45194047915E+02  0.58057459014E+02  0.00000000000E+00 0.  1.
         12    1    3    3    0    0  0.16949084117E+02  0.12172521480E+02 -0.17654318900E+03  0.17777215562E+03  0.00000000000E+00 0. -1.
        -13    1    4    4    0    0 -0.18235614034E+02 -0.17515286351E+02 -0.82790182909E+01  0.26605732822E+02  0.00000000000E+00 0.  1.
         13    1    4    4    0    0  0.60068145016E+02  0.15442614256E+02 -0.13446632041E+03  0.14808054466E+03  0.00000000000E+00 0. -1.
          1    1    1    2  501    0 -0.29950028085E+02  0.12191542908E+02  0.29765882469E+02  0.43950491009E+02  0.00000000000E+00 0. -1.
<scales pt_clust_5="13000.00000" pt_clust_6="13000.00000" pt_clust_7="13000.00000" pt_clust_8="13000.00000" pt_clust_9="32.33632"></scales>
<clustering>
<clus scale="   32.336">  1  9  2 -1</clus>
<clus scale="   78.769">  5  6 -1 -1</clus>
<clus scale="   81.784">  2  5  1 -1</clus>
<clus scale="   91.569">  7  8 -1 -1</clus>
<clus scale="   32.336">  1  5  2 -1</clus>
</clustering>
</event>
<event>
 9    2  0.6190160E-005  0.1821938E+03  0.7546771E-02  0.1166957E+00
         21   -1    0    0  501  502  0.00000000000E+00  0.00000000000E+00  0.14901374441E+03  0.14901374441E+03  0.00000000000E+00 0. -1.
          2   -1    0    0  502    0 -0.00000000000E+00 -0.00000000000E+00 -0.64908178155E+03  0.64908178155E+03  0.00000000000E+00 0. -1.
         23    2    1    2    0    0 -0.24509801852E+02  0.13114474649E+03 -0.20254584108E+03  0.25909821396E+03  0.91144894642E+02 0.  0.
         24    2    1    2    0    0  0.16970608620E+03 -0.13150592407E+03 -0.31839597573E+03  0.39230782322E+03  0.80221362744E+02 0.  0.
        -13    1    4    4    0    0  0.27511600225E+02  0.51918430331E+01 -0.68117965038E+02  0.73647135328E+02  0.00000000000E+00 0.  1.
         14    1    4    4    0    0  0.14219448598E+03 -0.13669776710E+03 -0.25027801069E+03  0.31866068789E+03  0.00000000000E+00 0. -1.
        -11    1    3    3    0    0 -0.14590553231E+02  0.10452793510E+03 -0.77690768579E+02  0.13105277175E+03  0.00000000000E+00 0.  1.
         11    1    3    3    0    0 -0.99192486203E+01  0.26616811387E+02 -0.12485507250E+03  0.12804544221E+03  0.00000000000E+00 0. -1.
          1    1    1    2  501    0 -0.14519628435E+03  0.36117757992E+00  0.20873779674E+02  0.14668948877E+03  0.00000000000E+00 0. -1.
<scales pt_clust_5="13000.00000" pt_clust_6="13000.00000" pt_clust_7="13000.00000" pt_clust_8="13000.00000" pt_clust_9="145.19673"></scales>
<clustering>
<clus scale="   80.221">  5  6 -1 -1</clus>
<clus scale="   91.145">  7  8 -1 -1</clus>
<clus scale="  145.197">  1  9  2 -1</clus>
<clus scale="  176.982">  1  5  2 -1</clus>
<clus scale="  145.197">  1  5  2 -1</clus>
</clustering>
</event>
<event>
 9    2  0.6190160E-005  0.9312552E+02  0.7546771E-02  0.1300404E+00
          2   -1    0    0  502    0 -0.00000000000E+00  0.00000000000E+00  0.60205547073E+03  0.60205547073E+03  0.00000000000E+00 0. -1.
         21   -1    0    0  501  502  0.00000000000E+00 -0.00000000000E+00 -0.46147961576E+02  0.46147961576E+02  0.00000000000E+00 0.  1.
         23    2    1    2    0    0 -0.25031306297E+01 -0.26386061063E+02  0.26713698780E+03  0.28324423437E+03  0.90347308606E+02 0.  0.
         24    2    1    2    0    0  0.23767169589E+02  0.26636960660E-01  0.12022311592E+02  0.86146446795E+02  0.81925547051E+02 0.  0.
        -13    1    4    4    0    0  0.47434886138E+02 -0.12894307672E+02  0.26177421077E+02  0.55691911149E+02  0.00000000000E+00 0.  1.
         14    1    4    4    0    0 -0.23667716549E+02  0.12920944633E+02 -0.14155109485E+02  0.30454535645E+02  0.00000000000E+00 0. -1.
        -11    1    3    3    0    0 -0.27641406599E+02  0.23900396924E+02  0.12980609470E+03  0.13485139433E+03  0.00000000000E+00 0.  1.
         11    1    3    3    0    0  0.25138275969E+02 -0.50286457986E+02  0.13733089310E+03  0.14839284004E+03  0.00000000000E+00 0. -1.
          1    1    1    2  501    0 -0.21264038959E+02  0.26359424102E+02  0.27674820976E+03  0.27881275114E+03  0.00000000000E+00 0. -1.
<scales pt_clust_5="13000.00000" pt_clust_6="13000.00000" pt_clust_7="13000.00000" pt_clust_8="13000.00000" pt_clust_9="33.86709"></scales>
<clustering>
<clus scale="   33.867">  2  9  1 -1</clus>
<clus scale="   81.926">  5  6 -1 -1</clus>
<clus scale="   84.980">  2  5  1 -1</clus>
<clus scale="   90.347">  7  8 -1 -1</clus>
<clus scale="   33.867">  2  5  1 -1</clus>
</clustering>
</event>
<event>
 9    2  0.6190160E-005  0.1457536E+03  0.7546771E-02  0.1227988E+00
          2   -1    0    0  502    0 -0.00000000000E+00  0.00000000000E+00  0.50971144321E+03  0.50971144321E+03  0.00000000000E+00 0. -1.
         21   -1    0    0  501  502  0.00000000000E+00 -0.00000000000E+00 -0.64248959524E+02  0.64248959524E+02  0.00000000000E+00 0. -1.
         24    2    1    2    0    0 -0.30147863069E+02 -0.14289004349E+02  0.83609344496E+02  0.12374530711E+03  0.84907651317E+02 0.  0.
         23    2    1    2    0    0  0.86211510025E+02  0.10208091769E+03  0.24621148706E+03  0.29457594802E+03  0.91115062288E+02 0.  0.
        -13    1    3    3    0    0 -0.58552931348E+02 -0.20190958390E+02  0.61354888954E+02  0.87181092955E+02  0.00000000000E+00 0.  1.
         14    1    3    3    0    0  0.28405068279E+02  0.59019540409E+01  0.22254455541E+02  0.36564214157E+02  0.00000000000E+00 0. -1.
        -13    1    4    4    0    0  0.22411643695E+02 -0.11299264893E+02  0.14899815134E+02  0.29188347868E+02  0.00000000000E+00 0.  1.
         13    1    4    4    0    0  0.63799866330E+02  0.11338018259E+03  0.23131167193E+03  0.26538760016E+03  0.00000000000E+00 0. -1.
          1    1    1    2  501    0 -0.56063646956E+02 -0.87791913343E+02  0.11564165213E+03  0.15563914760E+03  0.00000000000E+00 0. -1.
<scales pt_clust_5="13000.00000" pt_clust_6="13000.00000" pt_clust_7="13000.00000" pt_clust_8="13000.00000" pt_clust_9="113.76362"></scales>
<clustering>
<clus scale="   84.908">  5  6 -1 -1</clus>
<clus scale="   91.115">  7  8 -1 -1</clus>
<clus scale="   91.227">  1  5  2 -1</clus>
<clus scale="  113.764">  2  9  1 -1</clus>
<clus scale="  113.764">  2  5  1 -1</clus>
</clustering>
</event>
<event>
 9    2  0.6190160E-005  0.9946580E+02  0.7546771E-02  0.1286720E+00
         21   -1    0    0  501  502  0.00000000000E+00  0.00000000000E+00  0.10506532313E+03  0.10506532313E+03  0.00000000000E+00 0. -1.
          2   -1    0    0  502    0 -0.00000000000E+00 -0.00000000000E+00 -0.32866238072E+03  0.32866238072E+03  0.00000000000E+00 0. -1.
         23    2    1    2    0    0 -0.90633423434E+00 -0.47513496059E+02 -0.26944992264E+03  0.28805102234E+03  0.90065403506E+02 0.  0.
         24    2    1    2    0    0 -0.11926049721E+02  0.20764039016E+02 -0.88240221455E+01  0.83469242045E+02  0.79472479655E+02 0.  0.
        -13    1    4    4    0    0  0.24334592829E+02 -0.11847461127E+02  0.13017719891E+02  0.30033244488E+02  0.00000000000E+00 0.  1.
         14    1    4    4    0    0 -0.36260642550E+02  0.32611500143E+02 -0.21841742036E+02  0.53435997557E+02  0.00000000000E+00 0. -1.
        -11    1    3    3    0    0 -0.24114350232E+02 -0.62551464739E+02 -0.23203650522E+03  0.24152665978E+03  0.00000000000E+00 0. -1.
         11    1    3    3    0    0  0.23208015998E+02  0.15037968680E+02 -0.37413417424E+02  0.46524362564E+02  0.00000000000E+00 0.  1.
          1    1    1    2  501    0  0.12832383955E+02  0.26749457043E+02  0.54676887206E+02  0.62207439464E+02  0.00000000000E+00 0. -1.
<scales pt_clust_5="13000.00000" pt_clust_6="13000.00000" pt_clust_7="13000.00000" pt_clust_8="13000.00000" pt_clust_9="29.66822"></scales>
<clustering>
<clus scale="   29.668">  1  9  2 -1</clus>
<clus scale="   79.472">  5  6 -1 -1</clus>
<clus scale="   89.986">  1  5  2 -1</clus>
<clus scale="   90.065">  7  8 -1 -1</clus>
<clus scale="   29.668">  1  5  2 -1</clus>
</clustering>
</event>
<event>
 9    2  0.6190160E-005  0.1017617E+03  0.7546771E-02  0.1282450E+00
         21   -1    0    0  501  502  0.00000000000E+00  0.00000000000E+00  0.86597900537E+02  0.86597900537E+02  0.00000000000E+00 0. -1.
          4   -1    0    0  502    0 -0.00000000000E+00 -0.00000000000E+00 -0.51940956154E+03  0.51940956154E+03  0.00000000000E+00 0. -1.
         24    2    1    2    0    0  0.31981349323E+02  0.27142519518E+02 -0.36542776610E+03  0.37640628447E+03  0.79904415893E+02 0.  0.
         23    2    1    2    0    0 -0.53914624996E+02 -0.11365271080E+02 -0.12580029982E+03  0.16523918172E+03  0.91882074242E+02 0.  0.
        -11    1    3    3    0    0  0.47232961244E+02  0.45897737842E+02 -0.25549229783E+03  0.26384440342E+03  0.00000000000E+00 0.  1.
         12    1    3    3    0    0 -0.15251611920E+02 -0.18755218324E+02 -0.10993546828E+03  0.11256188105E+03  0.00000000000E+00 0. -1.
        -11    1    4    4    0    0 -0.13264877153E+01  0.25237272435E+02 -0.14032445401E+01  0.25311036819E+02  0.00000000000E+00 0.  1.
         11    1    4    4    0    0 -0.52588137281E+02 -0.36602543515E+02 -0.12439705528E+03  0.13992814490E+03  0.00000000000E+00 0. -1.
          3    1    1    2  501    0  0.21933275673E+02 -0.15777248439E+02  0.58416404920E+02  0.64361995881E+02  0.00000000000E+00 0. -1.
<scales pt_clust_5="13000.00000" pt_clust_6="13000.00000" pt_clust_7="13000.00000" pt_clust_8="13000.00000" pt_clust_9="27.01833"></scales>
<clustering>
<clus scale="   27.018">  1  9  2 -1</clus>
<clus scale="   79.904">  5  6 -1 -1</clus>
<clus scale="   91.092">  2  5  1 -1</clus>
<clus scale="   91.882">  7  8 -1 -1</clus>
<clus scale="   27.018">  1  5  2 -1</clus>
</clustering>
</event>
<event>
 9    2  0.6190160E-005  0.9572355E+02  0.7546771E-02  0.1292962E+00
         21   -1    0    0  501  502  0.00000000000E+00  0.00000000000E+00  0.84470117414E+02  0.84470117414E+02  0.00000000000E+00 0.  1.
         -3   -1    0    0    0  501 -0.00000000000E+00 -0.00000000000E+00 -0.20192887645E+03  0.20192887645E+03  0.00000000000E+00 0.  1.
         24    2    1    2    0    0 -0.27785221503E+02 -0.69783176020E+00 -0.12807956726E+03  0.15609417559E+03  0.84785084776E+02 0.  0.
         23    2    1    2    0    0  0.32886355390E+02  0.27830623875E+02 -0.68094149099E-01  0.10069970708E+03  0.91018516654E+02 0.  0.
        -13    1    3    3    0    0 -0.31494947795E+02 -0.13072703616E+02 -0.76166938362E+01  0.34940540085E+02  0.00000000000E+00 0.  1.
         14    1    3    3    0    0  0.37097262919E+01  0.12374871856E+02 -0.12046287342E+03  0.12115363550E+03  0.00000000000E+00 0. -1.
        -13    1    4    4    0    0  0.21614899221E+01  0.21076681999E+02 -0.42729423682E+02  0.47693838292E+02  0.00000000000E+00 0.  1.
         13    1    4    4    0    0  0.30724865468E+02  0.67539418761E+01  0.42661329533E+02  0.53005868792E+02  0.00000000000E+00 0. -1.
         -4    1    1    2    0  502 -0.51011338867E+01 -0.27132792115E+02  0.10688902370E+02  0.29605111193E+02  0.00000000000E+00 0.  1.
<scales pt_clust_5="13000.00000" pt_clust_6="13000.00000" pt_clust_7="13000.00000" pt_clust_8="13000.00000" pt_clust_9="27.60815"></scales>
<clustering>
<clus scale="   27.608">  1  9  2 -1</clus>
<clus scale="   84.785">  5  6 -1 -1</clus>
<clus scale="   89.817">  2  5  1 -1</clus>
<clus scale="   91.019">  7  8 -1 -1</clus>
<clus scale="   27.608">  1  5  2 -1</clus>
</clustering>
</event>
<event>
 9    2  0.6190160E-005  0.1025131E+03  0.7546771E-02  0.1279945E+00
         21   -1    0    0  501  502  0.00000000000E+00  0.00000000000E+00  0.20248539487E+02  0.20248539487E+02  0.00000000000E+00 0.  1.
          2   -1    0    0  502    0 -0.00000000000E+00 -0.00000000000E+00 -0.91049618453E+03  0.91049618453E+03  0.00000000000E+00 0. -1.
         23    2    1    2    0    0  0.45357894661E+01  0.45382479427E+02 -0.39962395343E+03  0.41246291065E+03  0.91357570443E+02 0.  0.
         24    2    1    2    0    0 -0.46083140222E+02 -0.37121702178E+02 -0.19177531159E+03  0.21644613450E+03  0.81052343713E+02 0.  0.
        -13    1    4    4    0    0 -0.86015016147E+01 -0.33545374923E+02 -0.18768369603E+02  0.39389461869E+02  0.00000000000E+00 0.  1.
         14    1    4    4    0    0 -0.37481638607E+02 -0.35763272548E+01 -0.17300694199E+03  0.17705667264E+03  0.00000000000E+00 0. -1.
        -11    1    3    3    0    0 -0.30407638220E+02 -0.43001164112E+00 -0.53186316635E+02  0.61266578567E+02  0.00000000000E+00 0.  1.
         11    1    3    3    0    0  0.34943427686E+02  0.45812491068E+02 -0.34643763680E+03  0.35119633208E+03  0.00000000000E+00 0. -1.
          1    1    1    2  501    0  0.41547350756E+02 -0.82607772490E+01 -0.29884838002E+03  0.30183567887E+03  0.00000000000E+00 0. -1.
<scales pt_clust_5="13000.00000" pt_clust_6="13000.00000" pt_clust_7="13000.00000" pt_clust_8="13000.00000" pt_clust_9="42.36065"></scales>
<clustering>
<clus scale="   42.361">  1  9  2 -1</clus>
<clus scale="   81.052">  5  6 -1 -1</clus>
<clus scale="   91.358">  7  8 -1 -1</clus>
<clus scale="   93.446">  1  5  2 -1</clus>
<clus scale="   42.361">  1  5  2 -1</clus>
</clustering>
</event>
<event>
 9    2  0.6190160E-005  0.1130717E+03  0.7546771E-02  0.1260787E+00
         21   -1    0    0  501  502  0.00000000000E+00  0.00000000000E+00  0.12041733826E+03  0.12041733826E+03  0.00000000000E+00 0.  1.
          4   -1    0    0  502    0 -0.00000000000E+00 -0.00000000000E+00 -0.42030257726E+03  0.42030257726E+03  0.00000000000E+00 0. -1.
         24    2    1    2    0    0 -0.41406597998E+02  0.39030138882E+02 -0.12585656112E+03  0.15709051163E+03  0.74831121656E+02 0.  0.
         23    2    1    2    0    0  0.11971137123E+03 -0.66327906812E+02  0.26827863690E+02  0.16632741141E+03  0.90635919425E+02 0.  0.
        -11    1    3    3    0    0 -0.41118430077E+02  0.55768833620E+02 -0.68859968523E+02  0.97686147228E+02  0.00000000000E+00 0.  1.
         12    1    3    3    0    0 -0.28816792097E+00 -0.16738694738E+02 -0.56996592597E+02  0.59404364402E+02  0.00000000000E+00 0. -1.
        -11    1    4    4    0    0  0.40597444083E+02 -0.76941778353E+01  0.50300009595E+02  0.65095651190E+02  0.00000000000E+00 0. -1.
         11    1    4    4    0    0  0.79113927152E+02 -0.58633728976E+02 -0.23472145905E+02  0.10123176022E+03  0.00000000000E+00 0.  1.
          3    1    1    2  501    0 -0.78304773237E+02  0.27297767930E+02 -0.20085654157E+03  0.21730199249E+03  0.00000000000E+00 0. -1.
<scales pt_clust_5="13000.00000" pt_clust_6="13000.00000" pt_clust_7="13000.00000" pt_clust_8="13000.00000" pt_clust_9="82.92655"></scales>
<clustering>
<clus scale="   74.831">  5  6 -1 -1</clus>
<clus scale="   82.927">  1  9  2 -1</clus>
<clus scale="   90.636">  7  8 -1 -1</clus>
<clus scale="  100.847">  2  5  1 -1</clus>
<clus scale="   82.927">  1  5  2 -1</clus>
</clustering>
</event>
